Protein in INSANE! Membrane UpperLeaflet>POPC=1.0 LowerLeaflet>POPC=1.0
248046
    1AU     AUC    1   9.442  24.110   7.503
    1AU     AUC    2   9.713  24.118   7.338
    1AU     AUC    3   9.714  24.115   7.665
    1AU     AUC    4   9.170  24.103   7.336
    1AU     AUC    5   9.170  24.102   7.667
    1AU     AUC    6   9.264  24.366   7.505
    1AU     AUC    7   9.595  24.374   7.505
    1AU     AUC    8   9.285  23.842   7.502
    1AU     AUC    9   9.619  23.850   7.500
    1AU     AUC   10   9.450  23.948   7.765
    1AU     AUC   11   9.437  24.271   7.774
    1AU     AUC   12   9.449  23.949   7.237
    1AU     AUC   13   9.436  24.274   7.237
    1AU     AUC   14   9.978  24.146   7.177
    1AU     AUC   15  10.008  24.125   7.498
    1AU     AUC   16   9.981  24.133   7.819
    1AU     AUC   17   8.912  24.083   7.161
    1AU     AUC   18   8.891  24.087   7.498
    1AU     AUC   19   8.909  24.080   7.833
    1AU     AUC   20   9.090  24.603   7.508
    1AU     AUC   21   9.431  24.641   7.509
    1AU     AUC   22   9.726  24.638   7.505
    1AU     AUC   23   9.147  23.562   7.503
    1AU     AUC   24   9.459  23.567   7.500
    1AU     AUC   25   9.796  23.600   7.495
    1AU     AUC   26   9.472  23.800   8.023
    1AU     AUC   27   9.452  24.103   8.047
    1AU     AUC   28   9.444  24.441   8.030
    1AU     AUC   29   9.469  23.805   6.970
    1AU     AUC   30   9.444  24.103   6.967
    1AU     AUC   31   9.435  24.450   6.989
    1AU     AUC   32   9.719  23.950   7.938
    1AU     AUC   33   9.719  24.283   7.955
    1AU     AUC   34   9.715  23.966   7.046
    1AU     AUC   35   9.724  24.298   7.070
    1AU     AUC   36   9.168  23.947   7.943
    1AU     AUC   37   9.153  24.269   7.943
    1AU     AUC   38   9.170  23.944   7.060
    1AU     AUC   39   9.151  24.269   7.063
    1AU     AUC   40   9.877  24.382   7.342
    1AU     AUC   41   9.878  24.373   7.674
    1AU     AUC   42   8.988  24.369   7.321
    1AU     AUC   43   8.984  24.365   7.675
    1AU     AUC   44   9.896  23.850   7.333
    1AU     AUC   45   9.908  23.848   7.642
    1AU     AUC   46   9.008  23.828   7.324
    1AU     AUC   47   9.011  23.823   7.677
    1AU     AUC   48   9.257  24.540   7.791
    1AU     AUC   49   9.584  24.549   7.785
    1AU     AUC   50   9.297  23.664   7.756
    1AU     AUC   51   9.646  23.687   7.772
    1AU     AUC   52   9.254  24.534   7.216
    1AU     AUC   53   9.581  24.559   7.225
    1AU     AUC   54   9.288  23.671   7.246
    1AU     AUC   55   9.639  23.688   7.227
    1AU    AUSL   56   9.896  24.086   8.139
    1AU    AUSL   57   9.798  23.659   8.078
    1AU     AUL   58  10.156  23.847   8.202
    1AU       S   59  10.120  23.335   8.284
    1AU     LIG   60  10.300  23.018   8.597
    1AU     LIG   61  10.703  22.824   8.734
    1AU       S   62   9.934  23.876   8.663
    1AU     LIG   63  10.067  24.078   9.070
    1AU     LIG   64  10.327  24.087   9.471
    1AU    AUSL   65   9.606  23.915   8.250
    1AU    AUSL   66   9.289  24.255   8.179
    1AU     AUL   67   9.429  24.139   8.524
    1AU       S   68   9.693  23.682   8.602
    1AU     LIG   69   9.655  23.738   9.075
    1AU     LIG   70   9.896  23.780   9.475
    1AU       S   71   8.703  23.841   8.793
    1AU     LIG   72   8.845  24.134   9.152
    1AU     LIG   73   8.769  24.244   9.606
    1AU    AUSL   74   9.622  24.310   8.257
    1AU    AUSL   75  10.026  24.394   7.992
    1AU     AUL   76   9.981  24.301   8.377
    1AU       S   77   9.619  24.633   8.602
    1AU     LIG   78   9.985  24.619   8.908
    1AU     LIG   79  10.054  24.516   9.362
    1AU       S   80  10.358  24.617   8.245
    1AU     LIG   81  10.691  24.680   8.556
    1AU     LIG   82  10.828  24.990   8.862
    1AU    AUSL   83   9.923  24.173   6.842
    1AU    AUSL   84   9.737  24.580   6.909
    1AU     AUL   85   9.754  24.448   6.561
    1AU       S   86  10.139  24.159   6.386
    1AU     LIG   87  10.456  24.236   6.020
    1AU     LIG   88  10.460  24.040   5.580
    1AU       S   89  10.155  24.767   6.658
    1AU     LIG   90  10.311  25.132   6.388
    1AU     LIG   91  10.486  25.390   6.019
    1AU    AUSL   92   9.655  23.938   6.735
    1AU    AUSL   93   9.938  23.898   7.074
    1AU     AUL   94  10.049  23.830   6.761
    1AU       S   95  10.139  23.005   6.783
    1AU     LIG   96  10.561  23.079   6.622
    1AU     LIG   97  10.856  22.859   6.333
    1AU       S   98   9.835  23.905   6.300
    1AU     LIG   99   9.750  23.733   5.853
    1AU     LIG  100   9.965  23.821   5.429
    1AU    AUSL  101   9.588  24.278   6.831
    1AU    AUSL  102   9.298  23.935   6.732
    1AU     AUL  103   9.450  24.193   6.504
    1AU       S  104   9.037  23.930   6.284
    1AU     LIG  105   9.158  23.761   5.850
    1AU     LIG  106   8.862  23.785   5.479
    1AU       S  107  10.118  23.900   6.175
    1AU     LIG  108   9.992  24.182   5.820
    1AU     LIG  109  10.089  24.347   5.385
    1AU    AUSL  110   8.965  24.075   8.153
    1AU    AUSL  111   9.147  24.567   8.094
    1AU     AUL  112   9.096  24.369   8.422
    1AU       S  113   8.696  24.027   8.495
    1AU     LIG  114   8.464  24.281   8.825
    1AU     LIG  115   8.351  24.145   9.275
    1AU       S  116   8.769  24.767   8.323
    1AU     LIG  117   8.670  25.123   8.580
    1AU     LIG  118   8.307  25.311   8.784
    1AU    AUSL  119   9.261  23.909   8.265
    1AU    AUSL  120   8.852  23.790   7.959
    1AU     AUL  121   9.005  23.662   8.274
    1AU       S  122   8.516  23.534   8.185
    1AU     LIG  123   8.098  23.329   8.276
    1AU     LIG  124   8.028  22.897   8.453
    1AU       S  125   8.986  23.919   8.702
    1AU     LIG  126   9.114  23.708   9.101
    1AU     LIG  127   8.905  23.737   9.523
    1AU    AUSL  128   8.972  24.040   6.847
    1AU    AUSL  129   9.188  23.710   6.984
    1AU     AUL  130   9.094  23.643   6.688
    1AU       S  131   8.711  23.952   6.490
    1AU     LIG  132   8.407  24.116   6.144
    1AU     LIG  133   8.389  24.055   5.664
    1AU       S  134   8.681  23.187   6.660
    1AU     LIG  135   8.706  22.765   6.433
    1AU     LIG  136   8.505  22.588   6.048
    1AU    AUSL  137   9.251  24.278   6.837
    1AU    AUSL  138   8.870  24.365   6.988
    1AU     AUL  139   9.026  24.352   6.613
    1AU       S  140   8.565  24.563   6.689
    1AU     LIG  141   8.252  24.921   6.555
    1AU     LIG  142   7.851  25.197   6.431
    1AU       S  143   8.770  23.784   6.192
    1AU     LIG  144   8.841  24.156   5.867
    1AU     LIG  145   8.782  24.304   5.411
    1AU    AUSL  146  10.041  24.573   7.488
    1AU    AUSL  147  10.034  24.432   7.069
    1AU     AUL  148  10.153  24.796   7.226
    1AU       S  149  10.335  24.529   6.780
    1AU     LIG  150  10.546  24.646   6.341
    1AU     LIG  151  10.804  25.043   6.272
    1AU       S  152  10.887  24.489   7.578
    1AU     LIG  153  11.148  24.864   7.516
    1AU     LIG  154  11.337  25.123   7.193
    1AU    AUSL  155  10.214  24.299   7.337
    1AU    AUSL  156  10.238  23.969   7.647
    1AU     AUL  157  10.519  24.081   7.385
    1AU       S  158  10.607  24.581   7.430
    1AU     LIG  159  10.901  24.692   7.095
    1AU     LIG  160  11.346  24.595   7.092
    1AU       S  161  10.671  23.620   7.596
    1AU     LIG  162  11.072  23.416   7.753
    1AU     LIG  163  11.540  23.532   7.804
    1AU    AUSL  164  10.195  24.319   7.699
    1AU    AUSL  165   9.828  24.608   7.753
    1AU     AUL  166  10.164  24.709   7.782
    1AU       S  167  10.368  24.935   8.265
    1AU     LIG  168  10.763  25.152   8.347
    1AU     LIG  169  10.848  25.472   8.646
    1AU       S  170  10.612  24.446   7.774
    1AU     LIG  171  10.925  24.740   8.010
    1AU     LIG  172  11.403  24.737   7.937
    1AU    AUSL  173   8.795  24.561   7.509
    1AU    AUSL  174   8.847  24.363   7.970
    1AU     AUL  175   8.530  24.542   7.763
    1AU       S  176   8.580  24.490   8.291
    1AU     LIG  177   8.264  24.814   8.481
    1AU     LIG  178   7.885  25.128   8.523
    1AU       S  179   8.612  25.004   7.516
    1AU     LIG  180   8.151  25.078   7.667
    1AU     LIG  181   7.713  25.192   7.520
    1AU    AUSL  182   8.726  24.256   7.283
    1AU    AUSL  183   8.937  24.666   7.209
    1AU     AUL  184   8.579  24.556   7.210
    1AU       S  185   8.359  24.140   6.943
    1AU     LIG  186   7.913  24.253   7.128
    1AU     LIG  187   7.481  24.458   7.125
    1AU       S  188   8.650  24.996   6.945
    1AU     LIG  189   8.422  25.384   6.732
    1AU     LIG  190   8.115  25.665   6.491
    1AU    AUSL  191   8.702  24.233   7.685
    1AU    AUSL  192   8.666  23.928   7.331
    1AU     AUL  193   8.436  24.277   7.458
    1AU       S  194   8.192  23.836   7.348
    1AU     LIG  195   7.800  23.740   7.097
    1AU     LIG  196   7.401  23.743   7.329
    1AU       S  197   8.321  24.133   8.006
    1AU     LIG  198   7.859  24.302   7.852
    1AU     LIG  199   7.402  24.488   7.739
    1AU    AUSL  200  10.106  23.655   7.488
    1AU    AUSL  201   9.977  23.883   7.869
    1AU     AUL  202  10.270  23.715   7.872
    1AU       S  203  10.429  23.381   7.487
    1AU     LIG  204  10.768  23.055   7.489
    1AU     LIG  205  11.024  22.886   7.140
    1AU       S  206  10.418  23.242   8.163
    1AU     LIG  207  10.855  23.103   8.109
    1AU     LIG  208  11.137  22.903   8.386
    1AU    AUSL  209  10.197  23.945   7.298
    1AU    AUSL  210   9.928  23.537   7.202
    1AU     AUL  211  10.229  23.699   7.075
    1AU       S  212  10.629  23.568   7.341
    1AU     LIG  213  11.063  23.432   7.242
    1AU     LIG  214  11.514  23.603   7.265
    1AU       S  215  10.188  23.186   7.049
    1AU     LIG  216  10.503  22.803   7.063
    1AU     LIG  217  10.539  22.563   6.640
    1AU    AUSL  218   8.903  23.673   7.491
    1AU    AUSL  219   8.846  23.789   7.061
    1AU     AUL  220   8.625  23.562   7.305
    1AU       S  221   8.599  23.509   6.789
    1AU     LIG  222   8.365  23.452   6.385
    1AU     LIG  223   8.262  23.006   6.253
    1AU       S  224   7.976  23.922   7.525
    1AU     LIG  225   7.831  23.473   7.526
    1AU     LIG  226   7.545  23.220   7.269
    1AU    AUSL  227   8.687  23.895   7.678
    1AU    AUSL  228   8.994  23.502   7.789
    1AU     AUL  229   8.651  23.541   7.687
    1AU       S  230   8.694  23.217   8.068
    1AU     LIG  231   8.456  22.785   8.007
    1AU     LIG  232   8.218  22.451   8.268
    1AU       S  233   8.214  23.820   7.641
    1AU     LIG  234   7.877  23.730   7.970
    1AU     LIG  235   7.431  23.604   7.834
    1AU    AUSL  236   9.450  24.755   7.986
    1AU    AUSL  237   8.954  24.667   7.801
    1AU     AUL  238   9.134  24.940   7.989
    1AU       S  239   8.630  24.949   8.063
    1AU     LIG  240   8.307  25.270   8.228
    1AU     LIG  241   8.138  25.663   8.446
    1AU       S  242   9.523  25.204   8.182
    1AU     LIG  243   9.562  25.577   8.468
    1AU     LIG  244   9.454  26.023   8.407
    1AU    AUSL  245   9.249  24.801   7.671
    1AU    AUSL  246   9.574  24.897   7.337
    1AU     AUL  247   9.236  25.103   7.459
    1AU       S  248   9.395  25.474   8.008
    1AU     LIG  249   9.301  25.922   7.909
    1AU     LIG  250   9.102  26.277   8.107
    1AU       S  251   9.622  25.356   7.215
    1AU     LIG  252   9.772  25.832   7.324
    1AU     LIG  253   9.886  26.212   7.053
    1AU    AUSL  254   9.602  24.870   7.680
    1AU    AUSL  255   9.737  24.584   8.089
    1AU     AUL  256   9.846  24.893   7.941
    1AU       S  257  10.076  24.811   8.396
    1AU     LIG  258  10.321  25.047   8.756
    1AU     LIG  259  10.544  25.383   9.050
    1AU       S  260   9.585  25.314   7.816
    1AU     LIG  261   9.783  25.757   7.840
    1AU     LIG  262   9.760  26.192   8.019
    1AU    AUSL  263   9.490  23.530   7.968
    1AU    AUSL  264   9.937  23.524   7.773
    1AU     AUL  265   9.703  23.271   8.003
    1AU       S  266   8.984  22.790   8.026
    1AU     LIG  267   9.036  22.438   8.304
    1AU     LIG  268   9.093  22.054   8.571
    1AU       S  269  10.213  23.202   7.928
    1AU     LIG  270  10.496  22.820   7.892
    1AU     LIG  271  10.724  22.615   8.262
    1AU    AUSL  272   9.284  23.343   7.688
    1AU    AUSL  273   9.204  23.708   7.986
    1AU     AUL  274   9.212  23.344   8.074
    1AU       S  275   9.057  22.935   7.756
    1AU     LIG  276   8.891  22.452   7.667
    1AU     LIG  277   9.009  22.090   7.919
    1AU       S  278   8.583  23.229   8.336
    1AU     LIG  279   8.555  22.797   8.504
    1AU     LIG  280   8.290  22.547   8.790
    1AU    AUSL  281   9.632  23.416   7.669
    1AU    AUSL  282   9.291  23.336   7.332
    1AU     AUL  283   9.537  23.092   7.536
    1AU       S  284   9.085  22.934   7.263
    1AU     LIG  285   8.787  22.564   7.166
    1AU     LIG  286   9.025  22.185   7.118
    1AU       S  287   9.253  22.698   7.888
    1AU     LIG  288   9.417  22.277   7.703
    1AU     LIG  289   9.460  21.820   7.896
    1AU    AUSL  290   9.452  24.764   7.022
    1AU    AUSL  291   9.806  24.646   7.253
    1AU     AUL  292   9.817  24.910   7.038
    1AU       S  293   9.487  25.249   6.850
    1AU     LIG  294   9.372  25.628   6.564
    1AU     LIG  295   9.566  26.065   6.563
    1AU       S  296  10.485  24.834   6.787
    1AU     LIG  297  10.673  25.264   6.746
    1AU     LIG  298  10.757  25.572   6.414
    1AU    AUSL  299   9.251  24.749   7.332
    1AU    AUSL  300   9.150  24.599   6.928
    1AU     AUL  301   9.141  24.959   7.087
    1AU       S  302   9.667  25.515   6.947
    1AU     LIG  303   9.371  25.892   7.013
    1AU     LIG  304   9.344  26.356   6.948
    1AU       S  305   8.813  24.829   6.690
    1AU     LIG  306   8.691  25.127   6.371
    1AU     LIG  307   8.306  25.294   6.173
    1AU    AUSL  308   9.465  23.542   7.079
    1AU    AUSL  309   9.008  23.497   7.208
    1AU     AUL  310   9.235  23.333   6.937
    1AU       S  311   8.726  23.200   6.954
    1AU     LIG  312   8.435  22.783   6.858
    1AU     LIG  313   8.243  22.511   6.497
    1AU       S  314   9.254  22.738   7.085
    1AU     LIG  315   9.112  22.502   6.731
    1AU     LIG  316   9.096  22.043   6.613
    1AU    AUSL  317   9.650  23.394   7.335
    1AU    AUSL  318   9.746  23.639   6.907
    1AU     AUL  319   9.666  23.270   7.010
    1AU       S  320   9.246  22.628   7.353
    1AU     LIG  321   9.522  22.294   7.155
    1AU     LIG  322   9.603  21.950   6.841
    1AU       S  323  10.067  23.309   6.697
    1AU     LIG  324  10.174  23.093   6.282
    1AU     LIG  325  10.399  22.706   6.141
    2AU     AUC  326   9.568  34.873   7.513
    2AU     AUC  327   9.836  34.884   7.345
    2AU     AUC  328   9.843  34.879   7.672
    2AU     AUC  329   9.294  34.867   7.350
    2AU     AUC  330   9.299  34.864   7.681
    2AU     AUC  331   9.389  35.128   7.520
    2AU     AUC  332   9.719  35.138   7.516
    2AU     AUC  333   9.413  34.605   7.510
    2AU     AUC  334   9.746  34.614   7.503
    2AU     AUC  335   9.581  34.710   7.773
    2AU     AUC  336   9.568  35.033   7.786
    2AU     AUC  337   9.572  34.715   7.244
    2AU     AUC  338   9.557  35.039   7.248
    2AU     AUC  339  10.098  34.915   7.182
    2AU     AUC  340  10.134  34.890   7.503
    2AU     AUC  341  10.113  34.898   7.822
    2AU     AUC  342   9.033  34.849   7.179
    2AU     AUC  343   9.017  34.848   7.515
    2AU     AUC  344   9.042  34.840   7.850
    2AU     AUC  345   9.213  35.363   7.529
    2AU     AUC  346   9.553  35.405   7.524
    2AU     AUC  347   9.846  35.406   7.515
    2AU     AUC  348   9.276  34.325   7.510
    2AU     AUC  349   9.587  34.331   7.501
    2AU     AUC  350   9.923  34.364   7.492
    2AU     AUC  351   9.607  34.560   8.030
    2AU     AUC  352   9.589  34.864   8.058
    2AU     AUC  353   9.578  35.201   8.043
    2AU     AUC  354   9.591  34.574   6.975
    2AU     AUC  355   9.563  34.873   6.977
    2AU     AUC  356   9.550  35.217   7.002
    2AU     AUC  357   9.853  34.711   7.944
    2AU     AUC  358   9.853  35.046   7.963
    2AU     AUC  359   9.837  34.735   7.051
    2AU     AUC  360   9.842  35.068   7.081
    2AU     AUC  361   9.304  34.707   7.956
    2AU     AUC  362   9.286  35.029   7.959
    2AU     AUC  363   9.292  34.712   7.071
    2AU     AUC  364   9.269  35.035   7.077
    2AU     AUC  365   9.996  35.149   7.351
    2AU     AUC  366  10.006  35.140   7.680
    2AU     AUC  367   9.108  35.132   7.340
    2AU     AUC  368   9.112  35.125   7.694
    2AU     AUC  369  10.021  34.616   7.334
    2AU     AUC  370  10.036  34.611   7.645
    2AU     AUC  371   9.133  34.592   7.338
    2AU     AUC  372   9.143  34.585   7.692
    2AU     AUC  373   9.385  35.301   7.808
    2AU     AUC  374   9.713  35.313   7.797
    2AU     AUC  375   9.429  34.428   7.763
    2AU     AUC  376   9.777  34.449   7.773
    2AU     AUC  377   9.372  35.297   7.232
    2AU     AUC  378   9.698  35.325   7.237
    2AU     AUC  379   9.413  34.435   7.252
    2AU     AUC  380   9.763  34.455   7.227
    2AU    AUSL  381  10.037  34.850   8.142
    2AU    AUSL  382   9.928  34.414   8.080
    2AU     AUL  383  10.287  34.593   8.202
    2AU       S  384  10.223  34.086   8.301
    2AU     LIG  385  10.261  33.854   8.730
    2AU     LIG  386  10.491  33.584   9.052
    2AU       S  387  10.087  34.663   8.671
    2AU     LIG  388  10.269  34.847   9.079
    2AU     LIG  389  10.546  34.875   9.477
    2AU    AUSL  390   9.748  34.674   8.258
    2AU    AUSL  391   9.429  35.014   8.195
    2AU     AUL  392   9.565  34.886   8.537
    2AU       S  393   9.861  34.447   8.612
    2AU     LIG  394   9.878  34.479   9.098
    2AU     LIG  395  10.094  34.597   9.507
    2AU       S  396   8.810  34.592   8.786
    2AU     LIG  397   8.878  34.885   9.173
    2AU     LIG  398   8.760  35.021   9.623
    2AU    AUSL  399   9.764  35.067   8.270
    2AU    AUSL  400  10.159  35.163   7.993
    2AU     AUL  401  10.136  35.070   8.369
    2AU       S  402   9.762  35.370   8.623
    2AU     LIG  403  10.129  35.346   8.923
    2AU     LIG  404  10.266  35.294   9.369
    2AU       S  405  10.476  35.436   8.266
    2AU     LIG  406  10.932  35.563   8.373
    2AU     LIG  407  11.266  35.843   8.563
    2AU    AUSL  408  10.042  34.950   6.849
    2AU    AUSL  409   9.854  35.350   6.924
    2AU     AUL  410   9.860  35.237   6.578
    2AU       S  411  10.268  34.972   6.421
    2AU     LIG  412  10.598  34.957   6.077
    2AU     LIG  413  10.563  34.839   5.617
    2AU       S  414  10.294  35.522   6.679
    2AU     LIG  415  10.559  35.832   6.410
    2AU     LIG  416  10.867  36.186   6.316
    2AU    AUSL  417   9.775  34.713   6.740
    2AU    AUSL  418  10.063  34.669   7.073
    2AU     AUL  419  10.163  34.599   6.753
    2AU       S  420  10.307  33.751   6.799
    2AU     LIG  421  10.714  33.775   6.559
    2AU     LIG  422  11.045  33.538   6.332
    2AU       S  423   9.972  34.725   6.299
    2AU     LIG  424   9.964  34.485   5.885
    2AU     LIG  425  10.225  34.431   5.488
    2AU    AUSL  426   9.704  35.049   6.844
    2AU    AUSL  427   9.418  34.706   6.741
    2AU     AUL  428   9.567  34.971   6.517
    2AU       S  429   9.179  34.694   6.289
    2AU     LIG  430   9.364  34.519   5.880
    2AU     LIG  431   9.125  34.529   5.476
    2AU       S  432  10.103  34.939   6.114
    2AU     LIG  433  10.054  34.926   5.638
    2AU     LIG  434  10.218  34.864   5.197
    2AU    AUSL  435   9.104  34.835   8.170
    2AU    AUSL  436   9.280  35.322   8.112
    2AU     AUL  437   9.235  35.124   8.441
    2AU       S  438   8.823  34.784   8.503
    2AU     LIG  439   8.533  35.014   8.814
    2AU     LIG  440   8.374  34.922   9.273
    2AU       S  441   8.901  35.519   8.347
    2AU     LIG  442   8.794  35.865   8.615
    2AU     LIG  443   8.604  36.241   8.772
    2AU    AUSL  444   9.402  34.669   8.277
    2AU    AUSL  445   8.989  34.551   7.978
    2AU     AUL  446   9.151  34.426   8.295
    2AU       S  447   8.650  34.320   8.212
    2AU     LIG  448   8.228  34.063   8.282
    2AU     LIG  449   7.973  33.753   8.571
    2AU       S  450   9.107  34.684   8.722
    2AU     LIG  451   9.173  34.475   9.148
    2AU     LIG  452   8.929  34.517   9.561
    2AU    AUSL  453   9.091  34.807   6.860
    2AU    AUSL  454   9.310  34.479   6.993
    2AU     AUL  455   9.214  34.413   6.701
    2AU       S  456   8.845  34.709   6.469
    2AU     LIG  457   8.562  34.838   6.072
    2AU     LIG  458   8.583  34.772   5.584
    2AU       S  459   8.770  34.090   6.617
    2AU     LIG  460   8.649  33.698   6.443
    2AU     LIG  461   8.318  33.506   6.193
    2AU    AUSL  462   9.366  35.049   6.844
    2AU    AUSL  463   8.985  35.132   7.010
    2AU     AUL  464   9.127  35.116   6.629
    2AU       S  465   8.688  35.361   6.721
    2AU     LIG  466   8.540  35.772   6.493
    2AU     LIG  467   8.351  35.953   6.107
    2AU       S  468   8.937  34.533   6.180
    2AU     LIG  469   9.015  34.889   5.842
    2AU     LIG  470   8.998  35.026   5.385
    2AU    AUSL  471  10.163  35.340   7.492
    2AU    AUSL  472  10.148  35.210   7.084
    2AU     AUL  473  10.240  35.593   7.244
    2AU       S  474  10.466  35.297   6.830
    2AU     LIG  475  10.757  35.334   6.458
    2AU     LIG  476  11.065  35.692   6.467
    2AU       S  477  10.921  35.439   7.528
    2AU     LIG  478  11.040  35.771   7.251
    2AU     LIG  479  11.346  35.784   6.899
    2AU    AUSL  480  10.333  35.064   7.337
    2AU    AUSL  481  10.364  34.732   7.652
    2AU     AUL  482  10.640  34.852   7.405
    2AU       S  483  10.701  35.348   7.328
    2AU     LIG  484  11.032  35.332   7.007
    2AU     LIG  485  11.417  35.389   7.224
    2AU       S  486  10.798  34.395   7.584
    2AU     LIG  487  11.208  34.287   7.781
    2AU     LIG  488  11.481  34.042   8.088
    2AU    AUSL  489  10.327  35.087   7.697
    2AU    AUSL  490   9.955  35.378   7.762
    2AU     AUL  491  10.293  35.474   7.787
    2AU       S  492  10.465  35.761   8.281
    2AU     LIG  493  10.835  36.066   8.322
    2AU     LIG  494  10.972  36.470   8.529
    2AU       S  495  10.753  35.255   7.714
    2AU     LIG  496  11.167  35.305   7.965
    2AU     LIG  497  11.624  35.432   8.061
    2AU    AUSL  498   8.918  35.320   7.534
    2AU    AUSL  499   8.978  35.121   7.989
    2AU     AUL  500   8.651  35.296   7.787
    2AU       S  501   8.717  35.246   8.310
    2AU     LIG  502   8.398  35.582   8.439
    2AU     LIG  503   8.196  35.971   8.611
    2AU       S  504   8.748  35.768   7.545
    2AU     LIG  505   8.326  35.957   7.430
    2AU     LIG  506   7.864  36.047   7.512
    2AU    AUSL  507   8.842  35.018   7.304
    2AU    AUSL  508   9.056  35.430   7.235
    2AU     AUL  509   8.699  35.325   7.238
    2AU       S  510   8.476  34.914   6.967
    2AU     LIG  511   8.088  35.206   7.094
    2AU     LIG  512   7.791  35.570   7.249
    2AU       S  513   8.777  35.789   6.978
    2AU     LIG  514   8.587  36.241   6.744
    2AU     LIG  515   8.506  36.658   6.424
    2AU    AUSL  516   8.829  34.989   7.707
    2AU    AUSL  517   8.790  34.688   7.353
    2AU     AUL  518   8.552  35.024   7.487
    2AU       S  519   8.327  34.575   7.364
    2AU     LIG  520   8.037  34.297   7.109
    2AU     LIG  521   7.613  34.235   7.239
    2AU       S  522   8.475  34.867   8.043
    2AU     LIG  523   8.030  34.975   7.862
    2AU     LIG  524   7.708  35.338   7.737
    2AU    AUSL  525  10.233  34.420   7.485
    2AU    AUSL  526  10.107  34.641   7.874
    2AU     AUL  527  10.398  34.460   7.871
    2AU       S  528  10.558  34.157   7.468
    2AU     LIG  529  10.906  33.881   7.584
    2AU     LIG  530  11.367  33.837   7.616
    2AU       S  531  10.290  33.789   8.219
    2AU     LIG  532  10.678  33.774   8.442
    2AU     LIG  533  10.901  33.495   8.741
    2AU    AUSL  534  10.322  34.712   7.300
    2AU    AUSL  535  10.053  34.305   7.199
    2AU     AUL  536  10.348  34.470   7.068
    2AU       S  537  10.757  34.347   7.324
    2AU     LIG  538  11.187  34.184   7.268
    2AU     LIG  539  11.625  34.269   7.410
    2AU       S  540  10.321  33.952   7.045
    2AU     LIG  541  10.733  33.649   7.049
    2AU     LIG  542  10.991  33.312   6.799
    2AU    AUSL  543   9.036  34.435   7.508
    2AU    AUSL  544   8.968  34.561   7.080
    2AU     AUL  545   8.764  34.314   7.334
    2AU       S  546   8.694  34.347   6.821
    2AU     LIG  547   8.295  34.165   6.693
    2AU     LIG  548   8.256  34.010   6.290
    2AU       S  549   8.092  34.581   7.512
    2AU     LIG  550   7.999  34.103   7.588
    2AU     LIG  551   7.833  33.881   7.997
    2AU    AUSL  552   8.819  34.650   7.697
    2AU    AUSL  553   9.130  34.265   7.806
    2AU     AUL  554   8.787  34.294   7.712
    2AU       S  555   8.844  34.006   8.120
    2AU     LIG  556   8.615  33.634   8.045
    2AU     LIG  557   8.184  33.562   8.153
    2AU       S  558   8.339  34.561   7.670
    2AU     LIG  559   7.967  34.427   7.969
    2AU     LIG  560   7.543  34.252   7.793
    2AU    AUSL  561   9.581  35.517   7.998
    2AU    AUSL  562   9.083  35.426   7.824
    2AU     AUL  563   9.269  35.691   8.023
    2AU       S  564   8.767  35.708   8.081
    2AU     LIG  565   8.530  36.105   8.232
    2AU     LIG  566   8.279  36.467   8.440
    2AU       S  567   9.648  36.002   8.170
    2AU     LIG  568   9.736  36.468   8.343
    2AU     LIG  569   9.704  36.907   8.564
    2AU    AUSL  570   9.372  35.566   7.691
    2AU    AUSL  571   9.686  35.667   7.344
    2AU     AUL  572   9.358  35.866   7.483
    2AU       S  573   9.456  36.217   7.997
    2AU     LIG  574   9.284  36.609   8.141
    2AU     LIG  575   9.288  37.049   8.288
    2AU       S  576   9.671  36.123   7.146
    2AU     LIG  577   9.850  36.589   7.220
    2AU     LIG  578   9.959  37.056   7.051
    2AU    AUSL  579   9.726  35.636   7.688
    2AU    AUSL  580   9.867  35.347   8.100
    2AU     AUL  581   9.967  35.662   7.951
    2AU       S  582  10.183  35.588   8.411
    2AU     LIG  583  10.475  35.738   8.775
    2AU     LIG  584  10.862  36.023   8.844
    2AU       S  585   9.704  36.086   7.823
    2AU     LIG  586   9.765  36.559   7.813
    2AU     LIG  587   9.779  36.935   8.063
    2AU    AUSL  588   9.624  34.293   7.960
    2AU    AUSL  589  10.066  34.284   7.772
    2AU     AUL  590   9.824  34.029   7.992
    2AU       S  591   9.143  33.548   8.043
    2AU     LIG  592   9.380  33.205   8.284
    2AU     LIG  593   9.725  32.899   8.345
    2AU       S  594  10.336  33.950   7.941
    2AU     LIG  595  10.652  33.588   7.937
    2AU     LIG  596  10.821  33.326   8.270
    2AU    AUSL  597   9.413  34.105   7.689
    2AU    AUSL  598   9.340  34.468   8.001
    2AU     AUL  599   9.360  34.100   8.078
    2AU       S  600   9.171  33.710   7.753
    2AU     LIG  601   8.964  33.264   7.676
    2AU     LIG  602   9.168  32.919   7.901
    2AU       S  603   8.716  34.055   8.391
    2AU     LIG  604   8.492  33.692   8.557
    2AU     LIG  605   8.294  33.590   8.970
    2AU    AUSL  606   9.762  34.177   7.662
    2AU    AUSL  607   9.415  34.099   7.333
    2AU     AUL  608   9.660  33.854   7.528
    2AU       S  609   9.216  33.675   7.258
    2AU     LIG  610   8.918  33.265   7.139
    2AU     LIG  611   8.920  32.748   7.133
    2AU       S  612   9.379  33.467   7.859
    2AU     LIG  613   9.675  33.087   7.836
    2AU     LIG  614   9.819  32.628   7.917
    2AU    AUSL  615   9.563  35.526   7.031
    2AU    AUSL  616   9.917  35.417   7.267
    2AU     AUL  617   9.922  35.686   7.039
    2AU       S  618   9.556  35.964   6.789
    2AU     LIG  619   9.413  36.341   6.477
    2AU     LIG  620   9.401  36.829   6.445
    2AU       S  621  10.618  35.595   6.849
    2AU     LIG  622  10.850  36.003   6.828
    2AU     LIG  623  11.210  36.260   6.704
    2AU    AUSL  624   9.373  35.504   7.354
    2AU    AUSL  625   9.262  35.366   6.949
    2AU     AUL  626   9.262  35.723   7.129
    2AU       S  627   9.717  36.243   6.860
    2AU     LIG  628   9.447  36.619   6.914
    2AU     LIG  629   9.461  36.956   7.206
    2AU       S  630   8.958  35.610   6.720
    2AU     LIG  631   9.009  36.029   6.553
    2AU     LIG  632   8.759  36.246   6.241
    2AU    AUSL  633   9.587  34.307   7.075
    2AU    AUSL  634   9.132  34.265   7.215
    2AU     AUL  635   9.352  34.095   6.944
    2AU       S  636   8.835  34.031   6.916
    2AU     LIG  637   8.545  33.688   6.955
    2AU     LIG  638   8.205  33.639   6.694
    2AU       S  639   9.382  33.459   7.074
    2AU     LIG  640   9.577  33.086   6.845
    2AU     LIG  641   9.872  32.872   6.515
    2AU    AUSL  642   9.774  34.158   7.328
    2AU    AUSL  643   9.869  34.410   6.908
    2AU     AUL  644   9.796  34.039   7.001
    2AU       S  645   9.365  33.372   7.357
    2AU     LIG  646   9.824  33.251   7.286
    2AU     LIG  647  10.069  32.983   6.987
    2AU       S  648  10.208  34.066   6.704
    2AU     LIG  649  10.276  33.816   6.297
    2AU     LIG  650  10.586  33.534   6.085
    3AU     AUC  651  25.734  44.542   7.500
    3AU     AUC  652  26.001  44.550   7.330
    3AU     AUC  653  26.010  44.550   7.658
    3AU     AUC  654  25.459  44.531   7.340
    3AU     AUC  655  25.466  44.536   7.670
    3AU     AUC  656  25.555  44.798   7.503
    3AU     AUC  657  25.886  44.806   7.497
    3AU     AUC  658  25.579  44.275   7.505
    3AU     AUC  659  25.912  44.283   7.494
    3AU     AUC  660  25.748  44.385   7.763
    3AU     AUC  661  25.734  44.706   7.770
    3AU     AUC  662  25.736  44.378   7.235
    3AU     AUC  663  25.721  44.703   7.233
    3AU     AUC  664  26.260  44.578   7.164
    3AU     AUC  665  26.299  44.559   7.489
    3AU     AUC  666  26.281  44.569   7.808
    3AU     AUC  667  25.197  44.506   7.173
    3AU     AUC  668  25.183  44.515   7.509
    3AU     AUC  669  25.209  44.516   7.843
    3AU     AUC  670  25.380   0.034   7.505
    3AU     AUC  671  25.720   0.074   7.499
    3AU     AUC  672  26.017   0.071   7.493
    3AU     AUC  673  25.443  43.996   7.513
    3AU     AUC  674  25.754  44.003   7.497
    3AU     AUC  675  26.092  44.034   7.484
    3AU     AUC  676  25.776  44.241   8.022
    3AU     AUC  677  25.754  44.543   8.045
    3AU     AUC  678  25.745  44.878   8.024
    3AU     AUC  679  25.751  44.231   6.968
    3AU     AUC  680  25.725  44.528   6.965
    3AU     AUC  681  25.714  44.876   6.985
    3AU     AUC  682  26.021  44.387   7.931
    3AU     AUC  683  26.020  44.719   7.947
    3AU     AUC  684  25.997  44.395   7.038
    3AU     AUC  685  26.005  44.727   7.060
    3AU     AUC  686  25.470  44.387   7.949
    3AU     AUC  687  25.453  44.708   7.945
    3AU     AUC  688  25.453  44.369   7.064
    3AU     AUC  689  25.432  44.695   7.069
    3AU     AUC  690  26.166  44.815   7.331
    3AU     AUC  691  26.175  44.808   7.662
    3AU     AUC  692  25.273  44.795   7.326
    3AU     AUC  693  25.279  44.798   7.679
    3AU     AUC  694  26.184  44.282   7.324
    3AU     AUC  695  26.205  44.282   7.633
    3AU     AUC  696  25.298  44.255   7.335
    3AU     AUC  697  25.308  44.258   7.690
    3AU     AUC  698  25.553  44.975   7.787
    3AU     AUC  699  25.880  44.983   7.775
    3AU     AUC  700  25.597  44.104   7.760
    3AU     AUC  701  25.946  44.126   7.767
    3AU     AUC  702  25.537  44.964   7.214
    3AU     AUC  703  25.865  44.988   7.216
    3AU     AUC  704  25.579  44.100   7.249
    3AU     AUC  705  25.928  44.117   7.220
    3AU    AUSL  706  26.202  44.521   8.129
    3AU    AUSL  707  26.101  44.098   8.072
    3AU     AUL  708  26.468  44.282   8.183
    3AU       S  709  26.375  43.781   8.317
    3AU     LIG  710  26.510  43.477   8.717
    3AU     LIG  711  26.417  43.202   9.115
    3AU       S  712  26.250  44.293   8.644
    3AU     LIG  713  26.389  44.525   9.018
    3AU     LIG  714  26.640  44.555   9.416
    3AU    AUSL  715  25.912  44.354   8.245
    3AU    AUSL  716  25.593  44.699   8.180
    3AU     AUL  717  25.739  44.575   8.524
    3AU       S  718  26.000  44.114   8.596
    3AU     LIG  719  25.937  44.238   9.055
    3AU     LIG  720  26.149  44.359   9.455
    3AU       S  721  24.989  44.259   8.768
    3AU     LIG  722  25.069  44.575   9.138
    3AU     LIG  723  24.945  44.658   9.591
    3AU    AUSL  724  25.927  44.747   8.251
    3AU    AUSL  725  26.325  44.831   7.984
    3AU     AUL  726  26.284  44.734   8.372
    3AU       S  727  25.896   0.075   8.589
    3AU     LIG  728  26.220   0.034   8.924
    3AU     LIG  729  26.233  44.878   9.368
    3AU       S  730  26.608   0.108   8.267
    3AU     LIG  731  27.051   0.191   8.392
    3AU     LIG  732  27.195   0.526   8.675
    3AU    AUSL  733  26.197  44.603   6.828
    3AU    AUSL  734  26.015   0.006   6.898
    3AU     AUL  735  26.027  44.872   6.547
    3AU       S  736  26.376  44.553   6.343
    3AU     LIG  737  26.673  44.597   5.956
    3AU     LIG  738  26.646  44.384   5.528
    3AU       S  739  26.428   0.191   6.630
    3AU     LIG  740  26.591   0.430   6.252
    3AU     LIG  741  26.868   0.710   5.989
    3AU    AUSL  742  25.930  44.364   6.731
    3AU    AUSL  743  26.221  44.329   7.064
    3AU     AUL  744  26.339  44.274   6.760
    3AU       S  745  26.647  43.733   6.639
    3AU     LIG  746  26.963  43.499   6.346
    3AU     LIG  747  27.421  43.579   6.193
    3AU       S  748  26.085  44.284   6.308
    3AU     LIG  749  25.993  44.044   5.893
    3AU     LIG  750  26.219  44.040   5.474
    3AU    AUSL  751  25.863  44.706   6.820
    3AU    AUSL  752  25.570  44.354   6.731
    3AU     AUL  753  25.721  44.613   6.499
    3AU       S  754  25.301  44.350   6.289
    3AU     LIG  755  25.456  44.102   5.899
    3AU     LIG  756  25.283  44.039   5.452
    3AU       S  757  26.367  44.265   6.172
    3AU     LIG  758  26.201  44.495   5.792
    3AU     LIG  759  26.186  44.541   5.319
    3AU    AUSL  760  25.270  44.517   8.160
    3AU    AUSL  761  25.449   0.010   8.090
    3AU     AUL  762  25.401  44.813   8.424
    3AU       S  763  24.994  44.469   8.494
    3AU     LIG  764  24.682  44.651   8.810
    3AU     LIG  765  24.587  44.444   9.243
    3AU       S  766  25.077   0.215   8.322
    3AU     LIG  767  25.010   0.456   8.704
    3AU     LIG  768  24.756   0.803   8.874
    3AU    AUSL  769  25.568  44.356   8.269
    3AU    AUSL  770  25.157  44.228   7.979
    3AU     AUL  771  25.324  44.108   8.288
    3AU       S  772  24.831  43.963   8.233
    3AU     LIG  773  24.423  43.748   8.435
    3AU     LIG  774  24.101  43.570   8.750
    3AU       S  775  25.282  44.373   8.709
    3AU     LIG  776  25.354  44.156   9.120
    3AU     LIG  777  25.024  44.152   9.462
    3AU    AUSL  778  25.246  44.467   6.856
    3AU    AUSL  779  25.475  44.134   6.989
    3AU     AUL  780  25.330  44.072   6.708
    3AU       S  781  24.978  44.403   6.497
    3AU     LIG  782  24.743  44.623   6.126
    3AU     LIG  783  24.600  44.518   5.666
    3AU       S  784  24.848  43.641   6.698
    3AU     LIG  785  24.970  43.265   6.433
    3AU     LIG  786  24.863  42.920   6.113
    3AU    AUSL  787  25.528  44.695   6.848
    3AU    AUSL  788  25.150  44.786   6.997
    3AU     AUL  789  25.322  44.776   6.619
    3AU       S  790  24.845  44.937   6.704
    3AU     LIG  791  24.642   0.108   6.336
    3AU     LIG  792  24.362   0.426   6.152
    3AU       S  793  25.025  44.212   6.207
    3AU     LIG  794  25.097  44.444   5.792
    3AU     LIG  795  25.014  44.763   5.453
    3AU    AUSL  796  26.336   0.013   7.474
    3AU    AUSL  797  26.317  44.861   7.052
    3AU     AUL  798  26.445   0.226   7.199
    3AU       S  799  26.610  44.957   6.764
    3AU     LIG  800  26.788  44.944   6.331
    3AU     LIG  801  27.080   0.264   6.163
    3AU       S  802  27.179  44.890   7.536
    3AU     LIG  803  27.434   0.282   7.564
    3AU     LIG  804  27.842   0.504   7.594
    3AU    AUSL  805  26.499  44.735   7.321
    3AU    AUSL  806  26.540  44.404   7.634
    3AU     AUL  807  26.801  44.516   7.333
    3AU       S  808  26.903   0.009   7.398
    3AU     LIG  809  27.266   0.110   7.098
    3AU     LIG  810  27.713   0.021   7.209
    3AU       S  811  26.979  44.097   7.593
    3AU     LIG  812  27.234  43.941   7.973
    3AU     LIG  813  27.589  43.644   8.093
    3AU    AUSL  814  26.490  44.752   7.685
    3AU    AUSL  815  26.124   0.037   7.739
    3AU     AUL  816  26.475   0.133   7.773
    3AU       S  817  26.574   0.222   8.572
    3AU     LIG  818  26.759   0.610   8.369
    3AU     LIG  819  27.155   0.873   8.281
    3AU       S  820  26.919  44.857   7.741
    3AU     LIG  821  27.328  44.995   7.992
    3AU     LIG  822  27.791   0.057   7.885
    3AU    AUSL  823  25.085  44.988   7.514
    3AU    AUSL  824  25.149  44.803   7.974
    3AU     AUL  825  24.822  44.970   7.769
    3AU       S  826  24.895  44.932   8.293
    3AU     LIG  827  24.615   0.144   8.582
    3AU     LIG  828  24.359   0.490   8.755
    3AU       S  829  24.892   0.426   7.508
    3AU     LIG  830  24.397   0.459   7.533
    3AU     LIG  831  23.931   0.315   7.508
    3AU    AUSL  832  25.011  44.675   7.295
    3AU    AUSL  833  25.219   0.088   7.209
    3AU     AUL  834  24.858  44.968   7.225
    3AU       S  835  24.633  44.536   6.971
    3AU     LIG  836  24.159  44.561   7.144
    3AU     LIG  837  23.766  44.839   7.234
    3AU       S  838  24.921   0.388   6.939
    3AU     LIG  839  24.617   0.561   6.611
    3AU     LIG  840  24.451   0.912   6.327
    3AU    AUSL  841  24.998  44.663   7.697
    3AU    AUSL  842  24.958  44.347   7.353
    3AU     AUL  843  24.721  44.688   7.477
    3AU       S  844  24.495  44.233   7.390
    3AU     LIG  845  24.185  44.022   7.116
    3AU     LIG  846  23.761  44.148   7.093
    3AU       S  847  24.644  44.562   8.043
    3AU     LIG  848  24.253  44.782   7.836
    3AU     LIG  849  23.796  44.755   7.738
    3AU    AUSL  850  26.399  44.086   7.477
    3AU    AUSL  851  26.279  44.318   7.857
    3AU     AUL  852  26.562  44.132   7.860
    3AU       S  853  26.717  43.824   7.473
    3AU     LIG  854  27.016  43.584   7.707
    3AU     LIG  855  27.448  43.657   7.599
    3AU       S  856  26.454  43.486   8.222
    3AU     LIG  857  26.873  43.698   8.295
    3AU     LIG  858  27.056  43.740   8.699
    3AU    AUSL  859  26.475  44.380   7.291
    3AU    AUSL  860  26.222  43.972   7.185
    3AU     AUL  861  26.525  44.142   7.071
    3AU       S  862  26.926  44.009   7.345
    3AU     LIG  863  27.348  43.887   7.162
    3AU     LIG  864  27.616  43.691   6.798
    3AU       S  865  26.491  43.650   6.930
    3AU     LIG  866  26.716  43.255   6.766
    3AU     LIG  867  27.003  42.923   6.645
    3AU    AUSL  868  25.201  44.102   7.512
    3AU    AUSL  869  25.129  44.214   7.075
    3AU     AUL  870  24.932  43.981   7.338
    3AU       S  871  24.827  43.946   6.833
    3AU     LIG  872  24.366  43.792   6.690
    3AU     LIG  873  24.033  43.648   6.360
    3AU       S  874  24.287  44.257   7.541
    3AU     LIG  875  24.314  43.767   7.552
    3AU     LIG  876  24.022  43.470   7.714
    3AU    AUSL  877  24.984  44.324   7.699
    3AU    AUSL  878  25.298  43.942   7.811
    3AU     AUL  879  24.950  43.971   7.725
    3AU       S  880  25.019  43.665   8.124
    3AU     LIG  881  24.665  43.379   8.164
    3AU     LIG  882  24.217  43.340   8.187
    3AU       S  883  24.501  44.243   7.694
    3AU     LIG  884  24.061  44.339   7.968
    3AU     LIG  885  23.587  44.324   7.947
    3AU    AUSL  886  25.752   0.189   7.976
    3AU    AUSL  887  25.250   0.106   7.799
    3AU     AUL  888  25.442   0.386   7.980
    3AU       S  889  24.939   0.383   8.056
    3AU     LIG  890  24.669   0.632   8.360
    3AU     LIG  891  24.381   0.979   8.542
    3AU       S  892  25.852   0.574   8.239
    3AU     LIG  893  25.837   0.955   8.567
    3AU     LIG  894  25.892   1.439   8.514
    3AU    AUSL  895  25.545   0.232   7.664
    3AU    AUSL  896  25.862   0.326   7.323
    3AU     AUL  897  25.545   0.542   7.467
    3AU       S  898  26.042   0.827   8.139
    3AU     LIG  899  25.691   1.152   8.117
    3AU     LIG  900  25.509   1.576   8.175
    3AU       S  901  25.890   0.778   7.154
    3AU     LIG  902  26.180   1.173   7.230
    3AU     LIG  903  26.272   1.474   6.877
    3AU    AUSL  904  25.895   0.302   7.667
    3AU    AUSL  905  26.036   0.022   8.077
    3AU     AUL  906  26.156   0.321   7.900
    3AU       S  907  26.303   0.265   8.383
    3AU     LIG  908  26.306   0.639   8.641
    3AU     LIG  909  26.712   0.681   8.881
    3AU       S  910  25.875   0.739   7.867
    3AU     LIG  911  26.070   1.169   7.766
    3AU     LIG  912  26.002   1.560   8.003
    3AU    AUSL  913  25.794  43.974   7.964
    3AU    AUSL  914  26.234  43.957   7.766
    3AU     AUL  915  25.995  43.708   7.985
    3AU       S  916  25.374  43.241   8.055
    3AU     LIG  917  25.496  42.914   8.377
    3AU     LIG  918  25.664  42.565   8.655
    3AU       S  919  26.507  43.624   7.950
    3AU     LIG  920  26.833  43.244   8.045
    3AU     LIG  921  26.941  42.914   8.341
    3AU    AUSL  922  25.581  43.783   7.696
    3AU    AUSL  923  25.511  44.153   7.994
    3AU     AUL  924  25.530  43.791   8.089
    3AU       S  925  25.335  43.408   7.768
    3AU     LIG  926  24.956  43.138   7.810
    3AU     LIG  927  25.071  42.827   8.102
    3AU       S  928  24.930  43.713   8.434
    3AU     LIG  929  25.074  43.260   8.467
    3AU     LIG  930  25.111  42.857   8.719
    3AU    AUSL  931  25.925  43.863   7.659
    3AU    AUSL  932  25.586  43.769   7.339
    3AU     AUL  933  25.833  43.532   7.549
    3AU       S  934  25.363  43.377   7.281
    3AU     LIG  935  25.101  42.978   7.344
    3AU     LIG  936  24.909  42.662   7.046
    3AU       S  937  25.451  43.131   7.796
    3AU     LIG  938  25.834  43.018   8.004
    3AU     LIG  939  25.936  42.642   8.210
    3AU    AUSL  940  25.730   0.189   7.012
    3AU    AUSL  941  26.094   0.074   7.241
    3AU     AUL  942  26.102   0.332   7.023
    3AU       S  943  25.762   0.645   6.801
    3AU     LIG  944  25.658   1.044   6.521
    3AU     LIG  945  25.858   1.476   6.473
    3AU       S  946  26.763   0.272   6.707
    3AU     LIG  947  26.996   0.669   6.511
    3AU     LIG  948  27.255   1.113   6.477
    3AU    AUSL  949  25.532   0.189   7.324
    3AU    AUSL  950  25.427   0.021   6.925
    3AU     AUL  951  25.414   0.385   7.073
    3AU       S  952  25.972   0.898   6.871
    3AU     LIG  953  25.773   1.330   6.960
    3AU     LIG  954  25.820   1.806   6.876
    3AU       S  955  25.071   0.233   6.681
    3AU     LIG  956  24.995   0.480   6.277
    3AU     LIG  957  24.745   0.692   5.934
    3AU    AUSL  958  25.755  43.963   7.075
    3AU    AUSL  959  25.298  43.928   7.221
    3AU     AUL  960  25.515  43.761   6.943
    3AU       S  961  25.003  43.642   6.963
    3AU     LIG  962  24.886  43.173   6.927
    3AU     LIG  963  24.730  42.840   6.606
    3AU       S  964  25.403  43.198   7.021
    3AU     LIG  965  25.419  42.968   6.619
    3AU     LIG  966  25.677  42.683   6.323
    3AU    AUSL  967  25.949  43.823   7.328
    3AU    AUSL  968  26.029  44.069   6.897
    3AU     AUL  969  25.973  43.695   7.006
    3AU       S  970  25.557  43.135   7.289
    3AU     LIG  971  25.893  42.882   7.178
    3AU     LIG  972  25.851  42.675   6.794
    3AU       S  973  26.316  43.769   6.627
    3AU     LIG  974  26.449  43.412   6.304
    3AU     LIG  975  26.571  43.340   5.836
    4AU     AUC  976  32.099  42.907   7.509
    4AU     AUC  977  32.369  42.914   7.341
    4AU     AUC  978  32.373  42.913   7.669
    4AU     AUC  979  31.824  42.901   7.345
    4AU     AUC  980  31.829  42.901   7.675
    4AU     AUC  981  31.923  43.163   7.512
    4AU     AUC  982  32.255  43.170   7.508
    4AU     AUC  983  31.938  42.639   7.510
    4AU     AUC  984  32.273  42.645   7.505
    4AU     AUC  985  32.109  42.745   7.771
    4AU     AUC  986  32.099  43.069   7.779
    4AU     AUC  987  32.100  42.746   7.244
    4AU     AUC  988  32.090  43.070   7.241
    4AU     AUC  989  32.633  42.942   7.176
    4AU     AUC  990  32.667  42.923   7.498
    4AU     AUC  991  32.641  42.932   7.821
    4AU     AUC  992  31.563  42.884   7.172
    4AU     AUC  993  31.546  42.888   7.509
    4AU     AUC  994  31.572  42.882   7.844
    4AU     AUC  995  31.749  43.400   7.517
    4AU     AUC  996  32.091  43.436   7.515
    4AU     AUC  997  32.387  43.434   7.506
    4AU     AUC  998  31.794  42.362   7.513
    4AU     AUC  999  32.108  42.363   7.510
    4AU     AUC 1000  32.446  42.393   7.500
    4AU     AUC 1001  32.133  42.594   8.028
    4AU     AUC 1002  32.118  42.900   8.053
    4AU     AUC 1003  32.111  43.239   8.035
    4AU     AUC 1004  32.116  42.601   6.980
    4AU     AUC 1005  32.094  42.899   6.973
    4AU     AUC 1006  32.086  43.245   6.992
    4AU     AUC 1007  32.379  42.745   7.944
    4AU     AUC 1008  32.384  43.082   7.959
    4AU     AUC 1009  32.367  42.760   7.054
    4AU     AUC 1010  32.376  43.094   7.071
    4AU     AUC 1011  31.830  42.747   7.951
    4AU     AUC 1012  31.818  43.069   7.951
    4AU     AUC 1013  31.820  42.743   7.069
    4AU     AUC 1014  31.803  43.066   7.068
    4AU     AUC 1015  32.536  43.179   7.340
    4AU     AUC 1016  32.542  43.173   7.673
    4AU     AUC 1017  31.643  43.168   7.331
    4AU     AUC 1018  31.645  43.165   7.686
    4AU     AUC 1019  32.552  42.645   7.338
    4AU     AUC 1020  32.559  42.643   7.647
    4AU     AUC 1021  31.656  42.628   7.335
    4AU     AUC 1022  31.665  42.624   7.687
    4AU     AUC 1023  31.920  43.339   7.798
    4AU     AUC 1024  32.248  43.347   7.789
    4AU     AUC 1025  31.952  42.461   7.763
    4AU     AUC 1026  32.299  42.478   7.778
    4AU     AUC 1027  31.909  43.328   7.222
    4AU     AUC 1028  32.236  43.353   7.228
    4AU     AUC 1029  31.935  42.468   7.256
    4AU     AUC 1030  32.288  42.484   7.235
    4AU    AUSL 1031  32.565  42.887   8.145
    4AU    AUSL 1032  32.454  42.443   8.080
    4AU     AUL 1033  32.796  42.609   8.220
    4AU       S 1034  32.843  42.080   8.211
    4AU     LIG 1035  33.015  41.702   8.455
    4AU     LIG 1036  33.066  41.352   8.800
    4AU       S 1037  32.590  42.718   8.681
    4AU     LIG 1038  32.729  42.835   9.111
    4AU     LIG 1039  32.955  42.847   9.526
    4AU    AUSL 1040  32.275  42.710   8.253
    4AU    AUSL 1041  31.958  43.053   8.184
    4AU     AUL 1042  32.088  42.929   8.526
    4AU       S 1043  32.369  42.490   8.614
    4AU     LIG 1044  32.309  42.521   9.088
    4AU     LIG 1045  32.527  42.536   9.513
    4AU       S 1046  31.369  42.594   8.777
    4AU     LIG 1047  31.484  42.886   9.169
    4AU     LIG 1048  31.402  42.952   9.640
    4AU    AUSL 1049  32.291  43.106   8.264
    4AU    AUSL 1050  32.691  43.197   7.989
    4AU     AUL 1051  32.664  43.116   8.366
    4AU       S 1052  32.275  43.407   8.618
    4AU     LIG 1053  32.602  43.338   8.951
    4AU     LIG 1054  32.637  43.247   9.416
    4AU       S 1055  32.981  43.504   8.282
    4AU     LIG 1056  33.413  43.714   8.392
    4AU     LIG 1057  33.464  44.135   8.646
    4AU    AUSL 1058  32.571  42.961   6.844
    4AU    AUSL 1059  32.384  43.379   6.907
    4AU     AUL 1060  32.421  43.224   6.563
    4AU       S 1061  32.680  42.851   6.322
    4AU     LIG 1062  32.949  42.945   5.933
    4AU     LIG 1063  32.983  42.771   5.492
    4AU       S 1064  32.742  43.617   6.635
    4AU     LIG 1065  32.778  44.063   6.423
    4AU     LIG 1066  33.151  44.193   6.159
    4AU    AUSL 1067  32.306  42.726   6.749
    4AU    AUSL 1068  32.593  42.689   7.084
    4AU     AUL 1069  32.725  42.650   6.777
    4AU       S 1070  32.713  41.824   6.695
    4AU     LIG 1071  33.155  41.775   6.608
    4AU     LIG 1072  33.480  41.571   6.346
    4AU       S 1073  32.424  42.570   6.347
    4AU     LIG 1074  32.363  42.315   5.930
    4AU     LIG 1075  32.603  42.393   5.519
    4AU    AUSL 1076  32.238  43.072   6.835
    4AU    AUSL 1077  31.948  42.729   6.740
    4AU     AUL 1078  32.116  42.978   6.506
    4AU       S 1079  31.708  42.712   6.289
    4AU     LIG 1080  31.836  42.534   5.851
    4AU     LIG 1081  31.569  42.586   5.454
    4AU       S 1082  32.710  42.561   6.188
    4AU     LIG 1083  32.476  42.799   5.840
    4AU     LIG 1084  32.558  43.071   5.470
    4AU    AUSL 1085  31.632  42.875   8.163
    4AU    AUSL 1086  31.817  43.365   8.104
    4AU     AUL 1087  31.765  43.162   8.432
    4AU       S 1088  31.357  42.822   8.506
    4AU     LIG 1089  31.074  42.978   8.874
    4AU     LIG 1090  31.011  42.780   9.319
    4AU       S 1091  31.455  43.575   8.341
    4AU     LIG 1092  31.446  43.957   8.599
    4AU     LIG 1093  31.251  44.299   8.845
    4AU    AUSL 1094  31.928  42.706   8.269
    4AU    AUSL 1095  31.512  42.595   7.972
    4AU     AUL 1096  31.677  42.462   8.281
    4AU       S 1097  31.172  42.383   8.211
    4AU     LIG 1098  30.790  42.098   8.178
    4AU     LIG 1099  30.719  41.701   8.405
    4AU       S 1100  31.648  42.711   8.713
    4AU     LIG 1101  31.755  42.465   9.107
    4AU     LIG 1102  31.492  42.462   9.502
    4AU    AUSL 1103  31.622  42.838   6.855
    4AU    AUSL 1104  31.834  42.509   6.996
    4AU     AUL 1105  31.737  42.437   6.706
    4AU       S 1106  31.373  42.737   6.477
    4AU     LIG 1107  31.068  42.871   6.118
    4AU     LIG 1108  31.065  42.824   5.636
    4AU       S 1109  31.308  42.043   6.649
    4AU     LIG 1110  31.091  41.718   6.389
    4AU     LIG 1111  30.832  41.426   6.118
    4AU    AUSL 1112  31.901  43.076   6.832
    4AU    AUSL 1113  31.520  43.166   6.999
    4AU     AUL 1114  31.660  43.146   6.619
    4AU       S 1115  31.222  43.396   6.707
    4AU     LIG 1116  31.040  43.821   6.516
    4AU     LIG 1117  30.808  44.007   6.147
    4AU       S 1118  31.447  42.556   6.187
    4AU     LIG 1119  31.512  42.925   5.866
    4AU     LIG 1120  31.471  43.101   5.427
    4AU    AUSL 1121  32.705  43.376   7.486
    4AU    AUSL 1122  32.685  43.232   7.057
    4AU     AUL 1123  32.811  43.593   7.214
    4AU       S 1124  32.966  43.367   6.758
    4AU     LIG 1125  33.430  43.540   6.697
    4AU     LIG 1126  33.554  43.942   6.440
    4AU       S 1127  33.544  43.316   7.477
    4AU     LIG 1128  33.538  43.792   7.484
    4AU     LIG 1129  33.814  44.093   7.289
    4AU    AUSL 1130  32.871  43.098   7.322
    4AU    AUSL 1131  32.879  42.761   7.658
    4AU     AUL 1132  33.157  42.897   7.477
    4AU       S 1133  33.288  43.352   7.269
    4AU     LIG 1134  33.765  43.535   7.100
    4AU     LIG 1135  34.240  43.427   7.166
    4AU       S 1136  33.321  42.407   7.605
    4AU     LIG 1137  33.632  42.141   7.863
    4AU     LIG 1138  33.926  42.011   8.202
    4AU    AUSL 1139  32.863  43.122   7.689
    4AU    AUSL 1140  32.494  43.410   7.756
    4AU     AUL 1141  32.832  43.504   7.792
    4AU       S 1142  32.945  43.642   8.573
    4AU     LIG 1143  33.050  44.057   8.324
    4AU     LIG 1144  33.239  44.503   8.336
    4AU       S 1145  33.300  43.357   7.651
    4AU     LIG 1146  33.690  43.518   7.911
    4AU     LIG 1147  34.128  43.350   7.987
    4AU    AUSL 1148  31.452  43.362   7.523
    4AU    AUSL 1149  31.514  43.166   7.984
    4AU     AUL 1150  31.189  43.341   7.785
    4AU       S 1151  31.258  43.303   8.309
    4AU     LIG 1152  30.984  43.676   8.466
    4AU     LIG 1153  30.823  44.023   8.717
    4AU       S 1154  31.276  43.806   7.530
    4AU     LIG 1155  30.793  43.855   7.547
    4AU     LIG 1156  30.344  43.675   7.462
    4AU    AUSL 1157  31.380  43.059   7.296
    4AU    AUSL 1158  31.593  43.465   7.221
    4AU     AUL 1159  31.233  43.358   7.225
    4AU       S 1160  31.008  42.942   6.962
    4AU     LIG 1161  30.551  43.042   7.107
    4AU     LIG 1162  30.192  43.358   7.053
    4AU       S 1163  31.321  43.811   6.980
    4AU     LIG 1164  31.244  44.258   6.813
    4AU     LIG 1165  30.957  44.390   6.478
    4AU    AUSL 1166  31.364  43.035   7.703
    4AU    AUSL 1167  31.315  42.733   7.348
    4AU     AUL 1168  31.092  43.080   7.479
    4AU       S 1169  30.829  42.648   7.390
    4AU     LIG 1170  30.463  42.526   7.109
    4AU     LIG 1171  30.182  42.164   7.098
    4AU       S 1172  31.025  42.915   8.058
    4AU     LIG 1173  30.609  43.075   7.937
    4AU     LIG 1174  30.266  43.389   7.918
    4AU    AUSL 1175  32.758  42.452   7.488
    4AU    AUSL 1176  32.626  42.675   7.879
    4AU     AUL 1177  32.917  42.504   7.878
    4AU       S 1178  33.086  42.193   7.478
    4AU     LIG 1179  33.329  41.838   7.585
    4AU     LIG 1180  33.697  41.946   7.385
    4AU       S 1181  33.142  42.008   8.035
    4AU     LIG 1182  33.473  41.735   8.201
    4AU     LIG 1183  33.507  41.560   8.611
    4AU    AUSL 1184  32.862  42.745   7.300
    4AU    AUSL 1185  32.574  42.325   7.206
    4AU     AUL 1186  32.875  42.480   7.081
    4AU       S 1187  33.298  42.414   7.339
    4AU     LIG 1188  33.714  42.398   7.146
    4AU     LIG 1189  34.126  42.169   7.122
    4AU       S 1190  32.807  41.985   6.962
    4AU     LIG 1191  32.981  41.531   7.029
    4AU     LIG 1192  33.292  41.263   6.784
    4AU    AUSL 1193  31.549  42.471   7.503
    4AU    AUSL 1194  31.491  42.594   7.075
    4AU     AUL 1195  31.262  42.371   7.321
    4AU       S 1196  31.226  42.334   6.800
    4AU     LIG 1197  30.850  42.186   6.522
    4AU     LIG 1198  30.586  41.825   6.350
    4AU       S 1199  30.596  42.726   7.548
    4AU     LIG 1200  30.440  42.272   7.563
    4AU     LIG 1201  30.347  41.923   7.873
    4AU    AUSL 1202  31.343  42.697   7.692
    4AU    AUSL 1203  31.643  42.306   7.803
    4AU     AUL 1204  31.298  42.343   7.707
    4AU       S 1205  31.337  42.053   8.118
    4AU     LIG 1206  31.098  41.659   8.006
    4AU     LIG 1207  30.879  41.272   8.164
    4AU       S 1208  30.859  42.637   7.678
    4AU     LIG 1209  30.520  42.517   8.001
    4AU     LIG 1210  30.059  42.362   7.926
    4AU    AUSL 1211  32.116  43.556   7.986
    4AU    AUSL 1212  31.619  43.468   7.812
    4AU     AUL 1213  31.809  43.734   8.002
    4AU       S 1214  31.310  43.759   8.070
    4AU     LIG 1215  31.165  44.189   8.249
    4AU     LIG 1216  31.182  44.622   8.452
    4AU       S 1217  32.180  44.057   8.118
    4AU     LIG 1218  32.196  44.428   8.394
    4AU     LIG 1219  32.116  44.821   8.610
    4AU    AUSL 1220  31.911  43.602   7.676
    4AU    AUSL 1221  32.229  43.691   7.340
    4AU     AUL 1222  31.884  43.893   7.454
    4AU       S 1223  31.976  44.288   7.940
    4AU     LIG 1224  31.947  44.746   8.068
    4AU     LIG 1225  31.713   0.030   8.381
    4AU       S 1226  32.288  44.154   7.232
    4AU     LIG 1227  32.501  44.615   7.152
    4AU     LIG 1228  32.483  44.982   6.860
    4AU    AUSL 1229  32.266  43.667   7.680
    4AU    AUSL 1230  32.398  43.384   8.094
    4AU     AUL 1231  32.505  43.699   7.942
    4AU       S 1232  32.668  43.646   8.423
    4AU     LIG 1233  32.712  44.070   8.704
    4AU     LIG 1234  33.035  44.421   8.809
    4AU       S 1235  32.237  44.116   7.780
    4AU     LIG 1236  32.405  44.520   7.897
    4AU     LIG 1237  32.455  44.845   8.194
    4AU    AUSL 1238  32.142  42.319   7.978
    4AU    AUSL 1239  32.590  42.316   7.770
    4AU     AUL 1240  32.370  42.064   8.019
    4AU       S 1241  31.617  41.569   8.061
    4AU     LIG 1242  31.835  41.136   8.185
    4AU     LIG 1243  32.280  40.906   8.180
    4AU       S 1244  32.872  41.967   7.873
    4AU     LIG 1245  33.092  41.508   7.937
    4AU     LIG 1246  33.183  41.236   8.318
    4AU    AUSL 1247  31.929  42.142   7.697
    4AU    AUSL 1248  31.865  42.509   7.988
    4AU     AUL 1249  31.860  42.143   8.083
    4AU       S 1250  31.671  41.750   7.770
    4AU     LIG 1251  31.471  41.298   7.661
    4AU     LIG 1252  31.634  40.862   7.739
    4AU       S 1253  31.234  42.110   8.409
    4AU     LIG 1254  31.231  41.642   8.496
    4AU     LIG 1255  30.974  41.280   8.677
    4AU    AUSL 1256  32.281  42.201   7.681
    4AU    AUSL 1257  31.933  42.134   7.342
    4AU     AUL 1258  32.173  41.885   7.540
    4AU       S 1259  31.719  41.723   7.276
    4AU     LIG 1260  31.450  41.317   7.149
    4AU     LIG 1261  31.700  40.923   7.232
    4AU       S 1262  31.856  41.531   7.874
    4AU     LIG 1263  32.089  41.159   7.745
    4AU     LIG 1264  32.231  40.749   7.692
    4AU    AUSL 1265  32.105  43.559   7.027
    4AU    AUSL 1266  32.462  43.437   7.254
    4AU     AUL 1267  32.468  43.706   7.054
    4AU       S 1268  32.148  44.049   6.859
    4AU     LIG 1269  32.287  44.411   6.573
    4AU     LIG 1270  32.454  44.799   6.380
    4AU       S 1271  32.989  43.574   6.481
    4AU     LIG 1272  33.140  43.956   6.749
    4AU     LIG 1273  33.279  44.378   6.624
    4AU    AUSL 1274  31.911  43.536   7.339
    4AU    AUSL 1275  31.803  43.395   6.936
    4AU     AUL 1276  31.807  43.753   7.098
    4AU       S 1277  32.129  44.304   7.039
    4AU     LIG 1278  32.048  44.731   6.914
    4AU     LIG 1279  31.998   0.124   6.725
    4AU       S 1280  31.485  43.645   6.702
    4AU     LIG 1281  31.502  44.031   6.427
    4AU     LIG 1282  31.267  44.242   6.092
    4AU    AUSL 1283  32.109  42.337   7.088
    4AU    AUSL 1284  31.651  42.298   7.218
    4AU     AUL 1285  31.876  42.128   6.950
    4AU       S 1286  31.362  42.031   6.950
    4AU     LIG 1287  31.084  41.633   6.898
    4AU     LIG 1288  30.740  41.383   6.654
    4AU       S 1289  31.894  41.537   7.110
    4AU     LIG 1290  31.951  41.183   6.854
    4AU     LIG 1291  32.344  40.960   6.740
    4AU    AUSL 1292  32.294  42.194   7.347
    4AU    AUSL 1293  32.391  42.432   6.918
    4AU     AUL 1294  32.303  42.059   7.031
    4AU       S 1295  31.893  41.400   7.357
    4AU     LIG 1296  32.209  41.006   7.255
    4AU     LIG 1297  32.452  40.605   7.098
    4AU       S 1298  32.638  42.148   6.648
    4AU     LIG 1299  32.814  42.014   6.238
    4AU     LIG 1300  32.998  41.587   6.155
    5AU     AUC 1301  15.887  39.003   7.497
    5AU     AUC 1302  16.158  39.006   7.330
    5AU     AUC 1303  16.161  39.008   7.658
    5AU     AUC 1304  15.613  38.997   7.333
    5AU     AUC 1305  15.616  39.001   7.663
    5AU     AUC 1306  15.712  39.262   7.497
    5AU     AUC 1307  16.043  39.265   7.494
    5AU     AUC 1308  15.726  38.737   7.500
    5AU     AUC 1309  16.060  38.741   7.496
    5AU     AUC 1310  15.895  38.845   7.761
    5AU     AUC 1311  15.886  39.169   7.766
    5AU     AUC 1312  15.889  38.838   7.233
    5AU     AUC 1313  15.881  39.162   7.228
    5AU     AUC 1314  16.424  39.030   7.166
    5AU     AUC 1315  16.455  39.013   7.487
    5AU     AUC 1316  16.428  39.027   7.812
    5AU     AUC 1317  15.353  38.979   7.161
    5AU     AUC 1318  15.335  38.986   7.497
    5AU     AUC 1319  15.357  38.985   7.832
    5AU     AUC 1320  15.541  39.501   7.497
    5AU     AUC 1321  15.880  39.535   7.495
    5AU     AUC 1322  16.176  39.528   7.489
    5AU     AUC 1323  15.583  38.460   7.506
    5AU     AUC 1324  15.894  38.462   7.502
    5AU     AUC 1325  16.233  38.490   7.492
    5AU     AUC 1326  15.917  38.699   8.021
    5AU     AUC 1327  15.902  39.005   8.042
    5AU     AUC 1328  15.897  39.343   8.019
    5AU     AUC 1329  15.905  38.690   6.968
    5AU     AUC 1330  15.887  38.988   6.960
    5AU     AUC 1331  15.880  39.334   6.977
    5AU     AUC 1332  16.165  38.846   7.936
    5AU     AUC 1333  16.171  39.181   7.946
    5AU     AUC 1334  16.157  38.849   7.041
    5AU     AUC 1335  16.168  39.182   7.058
    5AU     AUC 1336  15.615  38.851   7.942
    5AU     AUC 1337  15.603  39.174   7.937
    5AU     AUC 1338  15.610  38.836   7.057
    5AU     AUC 1339  15.594  39.159   7.056
    5AU     AUC 1340  16.325  39.267   7.329
    5AU     AUC 1341  16.330  39.264   7.660
    5AU     AUC 1342  15.433  39.265   7.316
    5AU     AUC 1343  15.434  39.266   7.670
    5AU     AUC 1344  16.341  38.736   7.329
    5AU     AUC 1345  16.346  38.738   7.639
    5AU     AUC 1346  15.446  38.725   7.326
    5AU     AUC 1347  15.453  38.725   7.680
    5AU     AUC 1348  15.709  39.441   7.780
    5AU     AUC 1349  16.035  39.445   7.772
    5AU     AUC 1350  15.737  38.564   7.757
    5AU     AUC 1351  16.085  38.580   7.770
    5AU     AUC 1352  15.701  39.425   7.205
    5AU     AUC 1353  16.027  39.445   7.211
    5AU     AUC 1354  15.724  38.562   7.246
    5AU     AUC 1355  16.075  38.576   7.224
    5AU    AUSL 1356  16.352  38.987   8.137
    5AU    AUSL 1357  16.237  38.545   8.075
    5AU     AUL 1358  16.584  38.706   8.211
    5AU       S 1359  16.619  38.175   8.201
    5AU     LIG 1360  16.688  37.970   8.610
    5AU     LIG 1361  16.874  37.658   8.911
    5AU       S 1362  16.378  38.820   8.668
    5AU     LIG 1363  16.580  38.896   9.071
    5AU     LIG 1364  16.805  38.938   9.480
    5AU    AUSL 1365  16.058  38.816   8.245
    5AU    AUSL 1366  15.741  39.162   8.172
    5AU     AUL 1367  15.875  39.042   8.516
    5AU       S 1368  16.151  38.599   8.607
    5AU     LIG 1369  16.114  38.642   9.083
    5AU     LIG 1370  16.365  38.641   9.486
    5AU       S 1371  15.137  38.736   8.775
    5AU     LIG 1372  15.224  38.997   9.175
    5AU     LIG 1373  15.149  39.088   9.642
    5AU    AUSL 1374  16.075  39.212   8.248
    5AU    AUSL 1375  16.478  39.294   7.976
    5AU     AUL 1376  16.443  39.223   8.356
    5AU       S 1377  16.050  39.533   8.591
    5AU     LIG 1378  16.394  39.517   8.910
    5AU     LIG 1379  16.475  39.328   9.336
    5AU       S 1380  16.762  39.606   8.265
    5AU     LIG 1381  17.204  39.777   8.360
    5AU     LIG 1382  17.337  40.134   8.653
    5AU    AUSL 1383  16.366  39.051   6.833
    5AU    AUSL 1384  16.183  39.461   6.894
    5AU     AUL 1385  16.217  39.323   6.550
    5AU       S 1386  16.512  38.965   6.329
    5AU     LIG 1387  16.825  39.075   5.984
    5AU     LIG 1388  16.911  38.893   5.554
    5AU       S 1389  16.600  39.664   6.638
    5AU     LIG 1390  16.740  40.090   6.425
    5AU     LIG 1391  17.098  40.369   6.300
    5AU    AUSL 1392  16.096  38.815   6.735
    5AU    AUSL 1393  16.382  38.779   7.076
    5AU     AUL 1394  16.505  38.725   6.769
    5AU       S 1395  16.496  37.895   6.677
    5AU     LIG 1396  16.870  37.807   6.438
    5AU     LIG 1397  17.136  37.898   6.057
    5AU       S 1398  16.242  38.691   6.319
    5AU     LIG 1399  16.203  38.436   5.906
    5AU     LIG 1400  16.529  38.408   5.563
    5AU    AUSL 1401  16.032  39.160   6.816
    5AU    AUSL 1402  15.736  38.817   6.726
    5AU     AUL 1403  15.905  39.065   6.491
    5AU       S 1404  15.483  38.810   6.278
    5AU     LIG 1405  15.606  38.645   5.844
    5AU     LIG 1406  15.340  38.664   5.451
    5AU       S 1407  16.542  38.686   6.172
    5AU     LIG 1408  16.412  38.886   5.756
    5AU     LIG 1409  16.516  39.179   5.390
    5AU    AUSL 1410  15.416  38.984   8.151
    5AU    AUSL 1411  15.601  39.475   8.084
    5AU     AUL 1412  15.545  39.281   8.415
    5AU       S 1413  15.142  38.938   8.493
    5AU     LIG 1414  14.882  39.173   8.824
    5AU     LIG 1415  14.732  39.097   9.288
    5AU       S 1416  15.217  39.686   8.315
    5AU     LIG 1417  14.990  40.012   8.612
    5AU     LIG 1418  14.696  40.298   8.884
    5AU    AUSL 1419  15.712  38.817   8.262
    5AU    AUSL 1420  15.297  38.699   7.966
    5AU     AUL 1421  15.459  38.573   8.280
    5AU       S 1422  14.960  38.474   8.205
    5AU     LIG 1423  14.558  38.224   8.148
    5AU     LIG 1424  14.362  37.923   8.433
    5AU       S 1425  15.427  38.837   8.706
    5AU     LIG 1426  15.543  38.609   9.108
    5AU     LIG 1427  15.305  38.594   9.524
    5AU    AUSL 1428  15.412  38.932   6.843
    5AU    AUSL 1429  15.622  38.601   6.984
    5AU     AUL 1430  15.508  38.531   6.694
    5AU       S 1431  15.154  38.851   6.464
    5AU     LIG 1432  14.807  38.913   6.115
    5AU     LIG 1433  14.803  38.825   5.643
    5AU       S 1434  14.817  38.237   6.821
    5AU     LIG 1435  14.938  37.984   6.444
    5AU     LIG 1436  14.763  37.678   6.136
    5AU    AUSL 1437  15.696  39.161   6.828
    5AU    AUSL 1438  15.312  39.256   6.985
    5AU     AUL 1439  15.473  39.239   6.606
    5AU       S 1440  15.009  39.439   6.688
    5AU     LIG 1441  14.740  39.776   6.484
    5AU     LIG 1442  14.430  40.136   6.400
    5AU       S 1443  15.221  38.649   6.186
    5AU     LIG 1444  15.241  39.001   5.859
    5AU     LIG 1445  15.162  39.159   5.420
    5AU    AUSL 1446  16.493  39.460   7.473
    5AU    AUSL 1447  16.479  39.319   7.052
    5AU     AUL 1448  16.591  39.689   7.221
    5AU       S 1449  16.792  39.429   6.780
    5AU     LIG 1450  17.228  39.521   6.527
    5AU     LIG 1451  17.406  39.962   6.481
    5AU       S 1452  17.323  39.451   7.425
    5AU     LIG 1453  17.248  39.910   7.388
    5AU     LIG 1454  17.423  40.192   7.698
    5AU    AUSL 1455  16.661  39.182   7.315
    5AU    AUSL 1456  16.664  38.852   7.647
    5AU     AUL 1457  16.947  38.987   7.486
    5AU       S 1458  17.057  39.423   7.234
    5AU     LIG 1459  17.480  39.412   6.964
    5AU     LIG 1460  17.950  39.421   6.972
    5AU       S 1461  17.106  38.501   7.583
    5AU     LIG 1462  17.504  38.263   7.669
    5AU     LIG 1463  17.850  38.062   7.918
    5AU    AUSL 1464  16.652  39.212   7.679
    5AU    AUSL 1465  16.278  39.499   7.736
    5AU     AUL 1466  16.621  39.593   7.774
    5AU       S 1467  16.731  39.730   8.555
    5AU     LIG 1468  16.873  40.161   8.418
    5AU     LIG 1469  17.020  40.559   8.626
    5AU       S 1470  17.083  39.460   7.609
    5AU     LIG 1471  17.401  39.697   7.860
    5AU     LIG 1472  17.844  39.664   7.922
    5AU    AUSL 1473  15.246  39.461   7.503
    5AU    AUSL 1474  15.297  39.271   7.964
    5AU     AUL 1475  14.974  39.441   7.752
    5AU       S 1476  15.038  39.396   8.277
    5AU     LIG 1477  14.680  39.638   8.431
    5AU     LIG 1478  14.413  39.997   8.574
    5AU       S 1479  15.073  39.905   7.506
    5AU     LIG 1480  14.637  39.992   7.691
    5AU     LIG 1481  14.193  40.109   7.629
    5AU    AUSL 1482  15.168  39.153   7.282
    5AU    AUSL 1483  15.386  39.560   7.199
    5AU     AUL 1484  15.024  39.452   7.210
    5AU       S 1485  14.791  39.035   6.950
    5AU     LIG 1486  14.329  39.203   7.088
    5AU     LIG 1487  13.969  39.524   6.990
    5AU       S 1488  15.102  39.880   6.931
    5AU     LIG 1489  14.894  40.234   6.663
    5AU     LIG 1490  14.649  40.608   6.473
    5AU    AUSL 1491  15.151  39.134   7.683
    5AU    AUSL 1492  15.104  38.827   7.337
    5AU     AUL 1493  14.877  39.172   7.461
    5AU       S 1494  14.621  38.734   7.348
    5AU     LIG 1495  14.175  38.711   7.111
    5AU     LIG 1496  13.752  38.579   7.286
    5AU       S 1497  14.778  39.030   8.013
    5AU     LIG 1498  14.335  39.234   7.899
    5AU     LIG 1499  14.164  39.690   7.951
    5AU    AUSL 1500  16.546  38.543   7.481
    5AU    AUSL 1501  16.415  38.771   7.874
    5AU     AUL 1502  16.710  38.599   7.871
    5AU       S 1503  16.879  38.292   7.471
    5AU     LIG 1504  17.170  38.002   7.359
    5AU     LIG 1505  17.559  38.034   7.145
    5AU       S 1506  16.907  38.061   8.027
    5AU     LIG 1507  17.134  37.887   8.384
    5AU     LIG 1508  17.341  37.885   8.815
    5AU    AUSL 1509  16.655  38.832   7.289
    5AU    AUSL 1510  16.362  38.416   7.198
    5AU     AUL 1511  16.661  38.564   7.072
    5AU       S 1512  17.095  38.515   7.315
    5AU     LIG 1513  17.558  38.573   7.261
    5AU     LIG 1514  17.824  38.953   7.203
    5AU       S 1515  16.599  38.071   6.941
    5AU     LIG 1516  16.887  37.685   6.946
    5AU     LIG 1517  17.021  37.249   6.775
    5AU    AUSL 1518  15.342  38.572   7.498
    5AU    AUSL 1519  15.282  38.693   7.067
    5AU     AUL 1520  15.064  38.460   7.324
    5AU       S 1521  14.989  38.498   6.806
    5AU     LIG 1522  14.776  38.465   6.375
    5AU     LIG 1523  14.508  38.134   6.172
    5AU       S 1524  14.417  38.839   7.523
    5AU     LIG 1525  14.227  38.383   7.490
    5AU     LIG 1526  14.214  37.920   7.393
    5AU    AUSL 1527  15.129  38.796   7.683
    5AU    AUSL 1528  15.433  38.408   7.800
    5AU     AUL 1529  15.089  38.443   7.704
    5AU       S 1530  15.128  38.151   8.114
    5AU     LIG 1531  14.830  37.791   8.012
    5AU     LIG 1532  14.473  37.497   8.142
    5AU       S 1533  14.644  38.718   7.649
    5AU     LIG 1534  14.242  38.624   7.933
    5AU     LIG 1535  13.800  38.456   7.795
    5AU    AUSL 1536  15.907  39.656   7.968
    5AU    AUSL 1537  15.409  39.572   7.792
    5AU     AUL 1538  15.597  39.849   7.980
    5AU       S 1539  15.090  39.850   8.041
    5AU     LIG 1540  14.727  40.105   8.188
    5AU     LIG 1541  14.589  40.498   8.425
    5AU       S 1542  16.007  40.089   8.187
    5AU     LIG 1543  16.075  40.424   8.543
    5AU     LIG 1544  16.161  40.876   8.465
    5AU    AUSL 1545  15.700  39.704   7.656
    5AU    AUSL 1546  16.027  39.785   7.315
    5AU     AUL 1547  15.701  40.002   7.436
    5AU       S 1548  16.114  40.397   8.057
    5AU     LIG 1549  15.877  40.832   8.036
    5AU     LIG 1550  15.532  41.160   8.185
    5AU       S 1551  16.076  40.237   7.146
    5AU     LIG 1552  16.208  40.700   7.106
    5AU     LIG 1553  16.117  41.139   6.944
    5AU    AUSL 1554  16.055  39.764   7.659
    5AU    AUSL 1555  16.189  39.486   8.076
    5AU     AUL 1556  16.307  39.787   7.904
    5AU       S 1557  16.450  39.755   8.394
    5AU     LIG 1558  16.466  40.129   8.718
    5AU     LIG 1559  16.749  40.381   9.017
    5AU       S 1560  16.036  40.209   7.805
    5AU     LIG 1561  16.188  40.635   7.629
    5AU     LIG 1562  16.393  40.850   7.969
    5AU    AUSL 1563  15.926  38.426   7.969
    5AU    AUSL 1564  16.375  38.415   7.766
    5AU     AUL 1565  16.145  38.168   8.015
    5AU       S 1566  15.467  37.686   8.051
    5AU     LIG 1567  15.743  37.346   8.255
    5AU     LIG 1568  16.068  37.015   8.245
    5AU       S 1569  16.638  38.071   7.858
    5AU     LIG 1570  16.639  37.634   8.041
    5AU     LIG 1571  16.695  37.479   8.456
    5AU    AUSL 1572  15.717  38.243   7.692
    5AU    AUSL 1573  15.648  38.615   7.987
    5AU     AUL 1574  15.649  38.250   8.082
    5AU       S 1575  15.474  37.859   7.763
    5AU     LIG 1576  15.218  37.460   7.683
    5AU     LIG 1577  15.459  37.102   7.865
    5AU       S 1578  14.995  38.189   8.396
    5AU     LIG 1579  14.830  37.747   8.522
    5AU     LIG 1580  14.478  37.415   8.643
    5AU    AUSL 1581  16.067  38.305   7.674
    5AU    AUSL 1582  15.720  38.230   7.336
    5AU     AUL 1583  15.969  37.989   7.540
    5AU       S 1584  15.540  37.812   7.273
    5AU     LIG 1585  15.251  37.456   7.165
    5AU     LIG 1586  15.535  37.106   7.040
    5AU       S 1587  15.668  37.600   7.834
    5AU     LIG 1588  15.966  37.224   7.774
    5AU     LIG 1589  16.236  36.811   7.799
    5AU    AUSL 1590  15.901  39.646   7.003
    5AU    AUSL 1591  16.251  39.524   7.241
    5AU     AUL 1592  16.271  39.784   7.024
    5AU       S 1593  15.959  40.108   6.788
    5AU     LIG 1594  16.095  40.550   6.558
    5AU     LIG 1595  15.956  41.002   6.465
    5AU       S 1596  16.894  39.763   6.777
    5AU     LIG 1597  17.071  40.197   6.825
    5AU     LIG 1598  17.059  40.655   6.740
    5AU    AUSL 1599  15.701  39.644   7.317
    5AU    AUSL 1600  15.595  39.485   6.917
    5AU     AUL 1601  15.596  39.849   7.063
    5AU       S 1602  15.864  40.364   6.956
    5AU     LIG 1603  15.735  40.799   6.909
    5AU     LIG 1604  15.395  41.101   6.820
    5AU       S 1605  15.253  39.712   6.679
    5AU     LIG 1606  15.184  39.976   6.314
    5AU     LIG 1607  14.857  40.249   6.125
    5AU    AUSL 1608  15.895  38.424   7.073
    5AU    AUSL 1609  15.437  38.396   7.211
    5AU     AUL 1610  15.650  38.218   6.943
    5AU       S 1611  15.125  38.167   6.910
    5AU     LIG 1612  14.887  37.747   6.902
    5AU     LIG 1613  14.521  37.711   6.617
    5AU       S 1614  15.721  37.609   7.072
    5AU     LIG 1615  15.986  37.332   6.797
    5AU     LIG 1616  16.210  37.062   6.478
    5AU    AUSL 1617  16.078  38.292   7.339
    5AU    AUSL 1618  16.180  38.521   6.908
    5AU     AUL 1619  16.096  38.148   7.028
    5AU       S 1620  15.720  37.500   7.342
    5AU     LIG 1621  16.120  37.229   7.278
    5AU     LIG 1622  16.309  36.923   6.976
    5AU       S 1623  16.426  38.222   6.638
    5AU     LIG 1624  16.529  38.118   6.190
    5AU     LIG 1625  16.653  37.726   5.951
    6AU     AUC 1626   6.188   5.603   7.511
    6AU     AUC 1627   6.456   5.612   7.342
    6AU     AUC 1628   6.463   5.608   7.669
    6AU     AUC 1629   5.913   5.597   7.348
    6AU     AUC 1630   5.919   5.596   7.679
    6AU     AUC 1631   6.010   5.859   7.516
    6AU     AUC 1632   6.342   5.867   7.510
    6AU     AUC 1633   6.031   5.336   7.511
    6AU     AUC 1634   6.364   5.342   7.504
    6AU     AUC 1635   6.201   5.441   7.772
    6AU     AUC 1636   6.189   5.764   7.782
    6AU     AUC 1637   6.190   5.444   7.244
    6AU     AUC 1638   6.177   5.768   7.245
    6AU     AUC 1639   6.718   5.640   7.178
    6AU     AUC 1640   6.755   5.617   7.499
    6AU     AUC 1641   6.734   5.626   7.819
    6AU     AUC 1642   5.652   5.578   7.178
    6AU     AUC 1643   5.637   5.580   7.515
    6AU     AUC 1644   5.662   5.574   7.849
    6AU     AUC 1645   5.835   6.094   7.523
    6AU     AUC 1646   6.177   6.134   7.518
    6AU     AUC 1647   6.472   6.133   7.507
    6AU     AUC 1648   5.891   5.058   7.513
    6AU     AUC 1649   6.203   5.059   7.505
    6AU     AUC 1650   6.539   5.090   7.494
    6AU     AUC 1651   6.227   5.293   8.029
    6AU     AUC 1652   6.209   5.597   8.055
    6AU     AUC 1653   6.200   5.934   8.037
    6AU     AUC 1654   6.206   5.301   6.976
    6AU     AUC 1655   6.180   5.599   6.974
    6AU     AUC 1656   6.171   5.945   6.998
    6AU     AUC 1657   6.472   5.443   7.941
    6AU     AUC 1658   6.475   5.778   7.958
    6AU     AUC 1659   6.452   5.461   7.049
    6AU     AUC 1660   6.461   5.793   7.076
    6AU     AUC 1661   5.923   5.440   7.955
    6AU     AUC 1662   5.907   5.763   7.956
    6AU     AUC 1663   5.909   5.441   7.070
    6AU     AUC 1664   5.889   5.764   7.075
    6AU     AUC 1665   6.621   5.876   7.344
    6AU     AUC 1666   6.630   5.866   7.674
    6AU     AUC 1667   5.730   5.861   7.338
    6AU     AUC 1668   5.733   5.858   7.691
    6AU     AUC 1669   6.638   5.343   7.334
    6AU     AUC 1670   6.654   5.338   7.643
    6AU     AUC 1671   5.750   5.323   7.338
    6AU     AUC 1672   5.761   5.318   7.692
    6AU     AUC 1673   6.007   6.032   7.803
    6AU     AUC 1674   6.335   6.042   7.790
    6AU     AUC 1675   6.047   5.159   7.765
    6AU     AUC 1676   6.395   5.177   7.774
    6AU     AUC 1677   5.995   6.027   7.228
    6AU     AUC 1678   6.323   6.053   7.232
    6AU     AUC 1679   6.029   5.166   7.255
    6AU     AUC 1680   6.379   5.182   7.230
    6AU    AUSL 1681   6.657   5.583   8.140
    6AU    AUSL 1682   6.550   5.150   8.081
    6AU     AUL 1683   6.917   5.339   8.189
    6AU       S 1684   6.844   4.842   8.313
    6AU     LIG 1685   6.971   4.676   8.735
    6AU     LIG 1686   7.234   4.294   8.821
    6AU       S 1687   6.708   5.378   8.656
    6AU     LIG 1688   6.890   5.519   9.059
    6AU     LIG 1689   7.166   5.538   9.439
    6AU    AUSL 1690   6.367   5.410   8.254
    6AU    AUSL 1691   6.049   5.749   8.189
    6AU     AUL 1692   6.195   5.631   8.532
    6AU       S 1693   6.469   5.177   8.607
    6AU     LIG 1694   6.530   5.139   9.081
    6AU     LIG 1695   6.868   5.104   9.412
    6AU       S 1696   5.466   5.350   8.816
    6AU     LIG 1697   5.605   5.673   9.147
    6AU     LIG 1698   5.520   5.805   9.582
    6AU    AUSL 1699   6.383   5.806   8.261
    6AU    AUSL 1700   6.782   5.894   7.989
    6AU     AUL 1701   6.748   5.810   8.372
    6AU       S 1702   6.369   6.131   8.602
    6AU     LIG 1703   6.728   6.099   8.911
    6AU     LIG 1704   6.850   5.955   9.343
    6AU       S 1705   7.081   6.177   8.257
    6AU     LIG 1706   7.465   6.306   8.479
    6AU     LIG 1707   7.601   6.618   8.784
    6AU    AUSL 1708   6.654   5.673   6.843
    6AU    AUSL 1709   6.474   6.073   6.917
    6AU     AUL 1710   6.470   5.956   6.570
    6AU       S 1711   6.862   5.675   6.392
    6AU     LIG 1712   7.164   5.577   6.023
    6AU     LIG 1713   7.242   5.419   5.578
    6AU       S 1714   6.900   6.235   6.658
    6AU     LIG 1715   7.068   6.549   6.359
    6AU     LIG 1716   7.347   6.874   6.156
    6AU    AUSL 1717   6.390   5.436   6.739
    6AU    AUSL 1718   6.676   5.395   7.074
    6AU     AUL 1719   6.786   5.335   6.759
    6AU       S 1720   6.922   4.536   6.726
    6AU     LIG 1721   7.297   4.479   6.460
    6AU     LIG 1722   7.558   4.440   6.057
    6AU       S 1723   6.584   5.411   6.298
    6AU     LIG 1724   6.787   5.196   5.902
    6AU     LIG 1725   6.805   5.204   5.414
    6AU    AUSL 1726   6.320   5.773   6.839
    6AU    AUSL 1727   6.033   5.430   6.739
    6AU     AUL 1728   6.184   5.686   6.510
    6AU       S 1729   5.776   5.416   6.291
    6AU     LIG 1730   5.857   5.210   5.846
    6AU     LIG 1731   5.591   5.149   5.450
    6AU       S 1732   6.680   5.652   6.123
    6AU     LIG 1733   6.776   5.662   5.675
    6AU     LIG 1734   6.923   5.704   5.240
    6AU    AUSL 1735   5.725   5.569   8.168
    6AU    AUSL 1736   5.903   6.061   8.106
    6AU     AUL 1737   5.861   5.862   8.436
    6AU       S 1738   5.457   5.523   8.513
    6AU     LIG 1739   5.213   5.784   8.826
    6AU     LIG 1740   5.111   5.648   9.276
    6AU       S 1741   5.533   6.259   8.345
    6AU     LIG 1742   5.421   6.609   8.611
    6AU     LIG 1743   5.093   6.832   8.843
    6AU    AUSL 1744   6.022   5.404   8.276
    6AU    AUSL 1745   5.607   5.285   7.977
    6AU     AUL 1746   5.763   5.159   8.289
    6AU       S 1747   5.263   5.039   8.204
    6AU     LIG 1748   4.861   4.740   8.242
    6AU     LIG 1749   4.659   4.557   8.623
    6AU       S 1750   5.749   5.416   8.718
    6AU     LIG 1751   5.889   5.253   9.140
    6AU     LIG 1752   5.728   5.333   9.580
    6AU    AUSL 1753   5.708   5.536   6.859
    6AU    AUSL 1754   5.927   5.207   6.994
    6AU     AUL 1755   5.825   5.137   6.704
    6AU       S 1756   5.445   5.444   6.489
    6AU     LIG 1757   5.103   5.476   6.114
    6AU     LIG 1758   5.142   5.394   5.628
    6AU       S 1759   5.368   4.741   6.663
    6AU     LIG 1760   5.312   4.348   6.417
    6AU     LIG 1761   5.037   4.084   6.120
    6AU    AUSL 1762   5.983   5.774   6.843
    6AU    AUSL 1763   5.606   5.859   7.007
    6AU     AUL 1764   5.753   5.845   6.624
    6AU       S 1765   5.301   6.059   6.721
    6AU     LIG 1766   5.050   6.441   6.599
    6AU     LIG 1767   4.957   6.779   6.299
    6AU       S 1768   5.518   5.242   6.227
    6AU     LIG 1769   5.539   5.599   5.883
    6AU     LIG 1770   5.579   5.677   5.426
    6AU    AUSL 1771   6.791   6.065   7.484
    6AU    AUSL 1772   6.772   5.925   7.073
    6AU     AUL 1773   6.895   6.294   7.217
    6AU       S 1774   7.075   5.998   6.786
    6AU     LIG 1775   7.243   6.036   6.329
    6AU     LIG 1776   7.537   6.381   6.211
    6AU       S 1777   7.631   5.988   7.561
    6AU     LIG 1778   7.829   6.393   7.523
    6AU     LIG 1779   7.998   6.612   7.153
    6AU    AUSL 1780   6.960   5.790   7.333
    6AU    AUSL 1781   6.984   5.455   7.648
    6AU     AUL 1782   7.261   5.572   7.401
    6AU       S 1783   7.359   6.070   7.385
    6AU     LIG 1784   7.730   6.147   7.087
    6AU     LIG 1785   8.199   6.125   7.214
    6AU       S 1786   7.414   5.100   7.579
    6AU     LIG 1787   7.819   4.841   7.664
    6AU     LIG 1788   8.288   4.869   7.770
    6AU    AUSL 1789   6.949   5.810   7.695
    6AU    AUSL 1790   6.578   6.100   7.750
    6AU     AUL 1791   6.921   6.197   7.773
    6AU       S 1792   7.065   6.508   8.241
    6AU     LIG 1793   7.436   6.802   8.303
    6AU     LIG 1794   7.811   7.015   8.473
    6AU       S 1795   7.377   5.957   7.753
    6AU     LIG 1796   7.752   6.182   8.007
    6AU     LIG 1797   8.240   6.157   8.001
    6AU    AUSL 1798   5.540   6.053   7.530
    6AU    AUSL 1799   5.601   5.857   7.987
    6AU     AUL 1800   5.276   6.034   7.786
    6AU       S 1801   5.348   5.979   8.309
    6AU     LIG 1802   5.064   6.234   8.574
    6AU     LIG 1803   4.720   6.512   8.707
    6AU       S 1804   5.361   6.501   7.527
    6AU     LIG 1805   5.049   6.853   7.345
    6AU     LIG 1806   4.638   7.009   7.145
    6AU    AUSL 1807   5.467   5.747   7.303
    6AU    AUSL 1808   5.678   6.156   7.229
    6AU     AUL 1809   5.316   6.043   7.238
    6AU       S 1810   5.100   5.624   6.965
    6AU     LIG 1811   4.650   5.718   7.136
    6AU     LIG 1812   4.319   6.079   7.135
    6AU       S 1813   5.392   6.488   6.985
    6AU     LIG 1814   5.180   6.889   6.841
    6AU     LIG 1815   4.831   7.148   6.655
    6AU    AUSL 1816   5.450   5.724   7.707
    6AU    AUSL 1817   5.408   5.420   7.353
    6AU     AUL 1818   5.175   5.759   7.485
    6AU       S 1819   4.934   5.318   7.373
    6AU     LIG 1820   4.540   5.191   7.123
    6AU     LIG 1821   4.172   5.016   7.347
    6AU       S 1822   5.100   5.608   8.047
    6AU     LIG 1823   4.638   5.693   7.932
    6AU     LIG 1824   4.264   5.992   7.960
    6AU    AUSL 1825   6.847   5.145   7.482
    6AU    AUSL 1826   6.726   5.373   7.870
    6AU     AUL 1827   7.015   5.186   7.865
    6AU       S 1828   7.162   4.875   7.459
    6AU     LIG 1829   7.416   4.525   7.536
    6AU     LIG 1830   7.804   4.357   7.403
    6AU       S 1831   6.940   4.537   8.248
    6AU     LIG 1832   7.369   4.587   8.408
    6AU     LIG 1833   7.725   4.436   8.686
    6AU    AUSL 1834   6.939   5.438   7.297
    6AU    AUSL 1835   6.665   5.031   7.197
    6AU     AUL 1836   6.963   5.199   7.068
    6AU       S 1837   7.368   5.066   7.323
    6AU     LIG 1838   7.704   4.806   7.169
    6AU     LIG 1839   8.168   4.731   7.261
    6AU       S 1840   6.922   4.692   7.011
    6AU     LIG 1841   7.341   4.452   7.017
    6AU     LIG 1842   7.556   4.079   6.805
    6AU    AUSL 1843   5.651   5.167   7.508
    6AU    AUSL 1844   5.584   5.289   7.078
    6AU     AUL 1845   5.371   5.053   7.329
    6AU       S 1846   5.315   5.050   6.809
    6AU     LIG 1847   5.064   5.031   6.404
    6AU     LIG 1848   4.907   4.617   6.231
    6AU       S 1849   4.718   5.359   7.549
    6AU     LIG 1850   4.649   4.870   7.511
    6AU     LIG 1851   4.344   4.505   7.427
    6AU    AUSL 1852   5.436   5.385   7.697
    6AU    AUSL 1853   5.745   4.999   7.807
    6AU     AUL 1854   5.404   5.029   7.708
    6AU       S 1855   5.451   4.729   8.111
    6AU     LIG 1856   5.160   4.374   8.034
    6AU     LIG 1857   4.779   4.204   8.262
    6AU       S 1858   4.959   5.301   7.678
    6AU     LIG 1859   4.602   5.102   7.960
    6AU     LIG 1860   4.228   4.816   7.837
    6AU    AUSL 1861   6.205   6.246   7.994
    6AU    AUSL 1862   5.702   6.162   7.819
    6AU     AUL 1863   5.889   6.436   8.002
    6AU       S 1864   5.385   6.440   8.091
    6AU     LIG 1865   5.004   6.689   8.309
    6AU     LIG 1866   4.706   7.016   8.536
    6AU       S 1867   6.300   6.652   8.231
    6AU     LIG 1868   6.625   7.007   8.307
    6AU     LIG 1869   6.517   7.463   8.316
    6AU    AUSL 1870   5.998   6.288   7.686
    6AU    AUSL 1871   6.317   6.392   7.341
    6AU     AUL 1872   5.991   6.594   7.491
    6AU       S 1873   6.166   6.945   8.110
    6AU     LIG 1874   6.048   7.339   7.903
    6AU     LIG 1875   6.140   7.754   8.028
    6AU       S 1876   6.332   6.849   7.188
    6AU     LIG 1877   6.498   7.267   7.016
    6AU     LIG 1878   6.533   7.545   6.661
    6AU    AUSL 1879   6.347   6.364   7.685
    6AU    AUSL 1880   6.494   6.081   8.090
    6AU     AUL 1881   6.604   6.385   7.920
    6AU       S 1882   6.796   6.342   8.397
    6AU     LIG 1883   7.073   6.649   8.708
    6AU     LIG 1884   7.339   7.058   8.750
    6AU       S 1885   6.320   6.805   7.872
    6AU     LIG 1886   6.533   7.228   7.834
    6AU     LIG 1887   6.625   7.687   7.871
    6AU    AUSL 1888   6.243   5.023   7.966
    6AU    AUSL 1889   6.683   5.013   7.773
    6AU     AUL 1890   6.453   4.761   8.000
    6AU       S 1891   5.788   4.277   8.055
    6AU     LIG 1892   6.067   3.942   8.254
    6AU     LIG 1893   6.166   3.469   8.205
    6AU       S 1894   6.968   4.680   7.963
    6AU     LIG 1895   7.294   4.282   7.993
    6AU     LIG 1896   7.499   4.070   8.387
    6AU    AUSL 1897   6.028   4.836   7.695
    6AU    AUSL 1898   5.959   5.202   8.000
    6AU     AUL 1899   5.971   4.836   8.083
    6AU       S 1900   5.771   4.443   7.772
    6AU     LIG 1901   5.469   4.028   7.771
    6AU     LIG 1902   5.699   3.695   7.999
    6AU       S 1903   5.334   4.781   8.396
    6AU     LIG 1904   5.158   4.381   8.550
    6AU     LIG 1905   4.855   4.100   8.785
    6AU    AUSL 1906   6.379   4.898   7.668
    6AU    AUSL 1907   6.026   4.833   7.340
    6AU     AUL 1908   6.260   4.577   7.528
    6AU       S 1909   5.758   4.446   7.280
    6AU     LIG 1910   5.437   4.002   7.266
    6AU     LIG 1911   5.405   3.537   7.116
    6AU       S 1912   5.943   4.158   7.800
    6AU     LIG 1913   6.226   3.767   7.783
    6AU     LIG 1914   6.627   3.555   7.976
    6AU    AUSL 1915   6.189   6.257   7.029
    6AU    AUSL 1916   6.551   6.147   7.256
    6AU     AUL 1917   6.552   6.409   7.031
    6AU       S 1918   6.205   6.748   6.852
    6AU     LIG 1919   6.159   7.179   6.609
    6AU     LIG 1920   6.011   7.609   6.490
    6AU       S 1921   7.246   6.272   6.766
    6AU     LIG 1922   7.481   6.661   6.663
    6AU     LIG 1923   7.623   7.098   6.556
    6AU    AUSL 1924   5.995   6.241   7.346
    6AU    AUSL 1925   5.885   6.094   6.943
    6AU     AUL 1926   5.882   6.449   7.110
    6AU       S 1927   6.066   6.997   7.061
    6AU     LIG 1928   6.024   7.456   7.050
    6AU     LIG 1929   6.172   7.828   6.916
    6AU       S 1930   5.550   6.328   6.714
    6AU     LIG 1931   5.478   6.710   6.462
    6AU     LIG 1932   5.304   7.136   6.401
    6AU    AUSL 1933   6.204   5.038   7.084
    6AU    AUSL 1934   5.746   4.998   7.217
    6AU     AUL 1935   5.973   4.827   6.948
    6AU       S 1936   5.457   4.737   6.941
    6AU     LIG 1937   5.208   4.321   6.929
    6AU     LIG 1938   4.916   4.083   6.630
    6AU       S 1939   5.740   4.299   7.018
    6AU     LIG 1940   5.968   4.009   6.766
    6AU     LIG 1941   6.241   3.672   6.608
    6AU    AUSL 1942   6.389   4.884   7.334
    6AU    AUSL 1943   6.481   5.136   6.906
    6AU     AUL 1944   6.402   4.764   7.008
    6AU       S 1945   5.901   4.174   7.271
    6AU     LIG 1946   6.207   3.834   7.208
    6AU     LIG 1947   6.504   3.525   7.035
    6AU       S 1948   6.786   4.820   6.676
    6AU     LIG 1949   6.891   4.725   6.224
    6AU     LIG 1950   7.057   4.394   5.928
    7AU     AUC 1951  22.572  13.586   7.502
    7AU     AUC 1952  22.842  13.589   7.335
    7AU     AUC 1953  22.846  13.588   7.661
    7AU     AUC 1954  22.298  13.581   7.339
    7AU     AUC 1955  22.302  13.584   7.668
    7AU     AUC 1956  22.397  13.846   7.503
    7AU     AUC 1957  22.729  13.849   7.502
    7AU     AUC 1958  22.412  13.320   7.503
    7AU     AUC 1959  22.745  13.322   7.497
    7AU     AUC 1960  22.582  13.427   7.763
    7AU     AUC 1961  22.572  13.751   7.771
    7AU     AUC 1962  22.574  13.423   7.236
    7AU     AUC 1963  22.566  13.748   7.236
    7AU     AUC 1964  23.104  13.614   7.172
    7AU     AUC 1965  23.138  13.593   7.495
    7AU     AUC 1966  23.115  13.601   7.814
    7AU     AUC 1967  22.039  13.562   7.167
    7AU     AUC 1968  22.021  13.568   7.503
    7AU     AUC 1969  22.044  13.567   7.837
    7AU     AUC 1970  22.224  14.085   7.503
    7AU     AUC 1971  22.566  14.120   7.503
    7AU     AUC 1972  22.863  14.111   7.500
    7AU     AUC 1973  22.268  13.044   7.509
    7AU     AUC 1974  22.580  13.041   7.500
    7AU     AUC 1975  22.916  13.066   7.489
    7AU     AUC 1976  22.605  13.280   8.021
    7AU     AUC 1977  22.588  13.585   8.045
    7AU     AUC 1978  22.582  13.923   8.025
    7AU     AUC 1979  22.588  13.278   6.968
    7AU     AUC 1980  22.570  13.574   6.968
    7AU     AUC 1981  22.564  13.922   6.989
    7AU     AUC 1982  22.852  13.422   7.933
    7AU     AUC 1983  22.856  13.757   7.950
    7AU     AUC 1984  22.839  13.435   7.042
    7AU     AUC 1985  22.851  13.767   7.067
    7AU     AUC 1986  22.303  13.434   7.945
    7AU     AUC 1987  22.289  13.756   7.942
    7AU     AUC 1988  22.293  13.419   7.061
    7AU     AUC 1989  22.278  13.745   7.068
    7AU     AUC 1990  23.009  13.852   7.339
    7AU     AUC 1991  23.014  13.846   7.670
    7AU     AUC 1992  22.117  13.848   7.323
    7AU     AUC 1993  22.118  13.850   7.675
    7AU     AUC 1994  23.021  13.318   7.328
    7AU     AUC 1995  23.036  13.315   7.637
    7AU     AUC 1996  22.132  13.309   7.330
    7AU     AUC 1997  22.140  13.308   7.684
    7AU     AUC 1998  22.394  14.025   7.786
    7AU     AUC 1999  22.722  14.027   7.780
    7AU     AUC 2000  22.424  13.146   7.757
    7AU     AUC 2001  22.773  13.158   7.766
    7AU     AUC 2002  22.385  14.011   7.214
    7AU     AUC 2003  22.714  14.031   7.222
    7AU     AUC 2004  22.407  13.149   7.246
    7AU     AUC 2005  22.759  13.159   7.225
    7AU    AUSL 2006  23.036  13.553   8.132
    7AU    AUSL 2007  22.926  13.128   8.073
    7AU     AUL 2008  23.289  13.298   8.193
    7AU       S 2009  23.234  12.782   8.286
    7AU     LIG 2010  23.333  12.504   8.688
    7AU     LIG 2011  23.542  12.089   8.799
    7AU       S 2012  23.074  13.341   8.660
    7AU     LIG 2013  23.195  13.530   9.084
    7AU     LIG 2014  23.437  13.539   9.500
    7AU    AUSL 2015  22.742  13.391   8.247
    7AU    AUSL 2016  22.427  13.745   8.178
    7AU     AUL 2017  22.570  13.619   8.523
    7AU       S 2018  22.825  13.156   8.598
    7AU     LIG 2019  22.799  13.175   9.071
    7AU     LIG 2020  23.073  13.153   9.453
    7AU       S 2021  21.829  13.308   8.768
    7AU     LIG 2022  21.938  13.616   9.138
    7AU     LIG 2023  21.845  13.725   9.584
    7AU    AUSL 2024  22.762  13.784   8.251
    7AU    AUSL 2025  23.160  13.863   7.989
    7AU     AUL 2026  23.113  13.763   8.374
    7AU       S 2027  22.760  14.109   8.599
    7AU     LIG 2028  23.120  14.096   8.906
    7AU     LIG 2029  23.206  13.986   9.355
    7AU       S 2030  23.492  14.078   8.248
    7AU     LIG 2031  23.955  14.079   8.320
    7AU     LIG 2032  24.303  14.339   8.470
    7AU    AUSL 2033  23.046  13.642   6.835
    7AU    AUSL 2034  22.868  14.044   6.908
    7AU     AUL 2035  22.865  13.929   6.561
    7AU       S 2036  23.264  13.647   6.391
    7AU     LIG 2037  23.539  13.543   5.978
    7AU     LIG 2038  23.569  13.414   5.516
    7AU       S 2039  23.301  14.202   6.643
    7AU     LIG 2040  23.491  14.606   6.432
    7AU     LIG 2041  23.900  14.788   6.304
    7AU    AUSL 2042  22.775  13.408   6.731
    7AU    AUSL 2043  23.063  13.367   7.066
    7AU     AUL 2044  23.163  13.293   6.746
    7AU       S 2045  23.306  12.469   6.806
    7AU     LIG 2046  23.718  12.489   6.600
    7AU     LIG 2047  24.088  12.321   6.381
    7AU       S 2048  22.974  13.407   6.287
    7AU     LIG 2049  23.097  13.197   5.869
    7AU     LIG 2050  23.122  13.171   5.391
    7AU    AUSL 2051  22.712  13.746   6.826
    7AU    AUSL 2052  22.416  13.409   6.730
    7AU     AUL 2053  22.568  13.661   6.502
    7AU       S 2054  22.135  13.425   6.280
    7AU     LIG 2055  22.181  13.269   5.815
    7AU     LIG 2056  21.942  13.419   5.432
    7AU       S 2057  23.076  13.651   6.114
    7AU     LIG 2058  23.128  13.661   5.651
    7AU     LIG 2059  23.217  13.656   5.196
    7AU    AUSL 2060  22.104  13.568   8.155
    7AU    AUSL 2061  22.286  14.056   8.088
    7AU     AUL 2062  22.238  13.864   8.422
    7AU       S 2063  21.829  13.521   8.491
    7AU     LIG 2064  21.543  13.713   8.825
    7AU     LIG 2065  21.448  13.545   9.270
    7AU       S 2066  21.910  14.265   8.317
    7AU     LIG 2067  21.852  14.476   8.727
    7AU     LIG 2068  21.643  14.815   8.965
    7AU    AUSL 2069  22.398  13.401   8.265
    7AU    AUSL 2070  21.987  13.282   7.972
    7AU     AUL 2071  22.153  13.156   8.283
    7AU       S 2072  21.653  13.060   8.218
    7AU     LIG 2073  21.241  12.827   8.267
    7AU     LIG 2074  21.163  12.398   8.462
    7AU       S 2075  22.113  13.421   8.703
    7AU     LIG 2076  22.224  13.199   9.102
    7AU     LIG 2077  21.957  13.209   9.492
    7AU    AUSL 2078  22.094  13.521   6.849
    7AU    AUSL 2079  22.305  13.181   6.976
    7AU     AUL 2080  22.196  13.130   6.678
    7AU       S 2081  21.821  13.476   6.506
    7AU     LIG 2082  21.574  13.774   6.196
    7AU     LIG 2083  21.510  13.720   5.707
    7AU       S 2084  21.750  12.786   6.633
    7AU     LIG 2085  21.541  12.456   6.417
    7AU     LIG 2086  21.287  12.199   6.123
    7AU    AUSL 2087  22.378  13.745   6.853
    7AU    AUSL 2088  22.000  13.841   6.991
    7AU     AUL 2089  22.184  13.834   6.617
    7AU       S 2090  21.703  13.994   6.686
    7AU     LIG 2091  21.432  14.264   6.421
    7AU     LIG 2092  21.062  14.560   6.375
    7AU       S 2093  21.845  13.356   6.188
    7AU     LIG 2094  21.985  13.729   5.887
    7AU     LIG 2095  21.937  13.945   5.458
    7AU    AUSL 2096  23.179  14.047   7.486
    7AU    AUSL 2097  23.165  13.895   7.064
    7AU     AUL 2098  23.291  14.260   7.213
    7AU       S 2099  23.486  13.965   6.792
    7AU     LIG 2100  23.940  13.955   6.584
    7AU     LIG 2101  24.152  14.350   6.483
    7AU       S 2102  23.888  14.178   7.696
    7AU     LIG 2103  24.057  14.525   7.468
    7AU     LIG 2104  24.074  14.936   7.217
    7AU    AUSL 2105  23.341  13.769   7.335
    7AU    AUSL 2106  23.370  13.433   7.642
    7AU     AUL 2107  23.643  13.565   7.374
    7AU       S 2108  23.752  14.055   7.426
    7AU     LIG 2109  24.046  14.210   7.062
    7AU     LIG 2110  24.389  14.533   7.075
    7AU       S 2111  23.798  13.114   7.578
    7AU     LIG 2112  24.237  13.078   7.693
    7AU     LIG 2113  24.638  13.051   7.920
    7AU    AUSL 2114  23.330  13.785   7.696
    7AU    AUSL 2115  22.968  14.086   7.751
    7AU     AUL 2116  23.306  14.175   7.786
    7AU       S 2117  23.501  14.168   8.542
    7AU     LIG 2118  23.740  14.537   8.364
    7AU     LIG 2119  24.102  14.836   8.432
    7AU       S 2120  23.758  13.893   7.784
    7AU     LIG 2121  24.247  13.939   7.940
    7AU     LIG 2122  24.437  14.361   7.866
    7AU    AUSL 2123  21.924  14.042   7.509
    7AU    AUSL 2124  21.984  13.854   7.968
    7AU     AUL 2125  21.653  14.017   7.762
    7AU       S 2126  21.731  13.983   8.285
    7AU     LIG 2127  21.455  14.175   8.590
    7AU     LIG 2128  21.247  14.525   8.804
    7AU       S 2129  21.731  14.477   7.499
    7AU     LIG 2130  21.244  14.564   7.426
    7AU     LIG 2131  20.808  14.463   7.592
    7AU    AUSL 2132  21.854  13.733   7.286
    7AU    AUSL 2133  22.067  14.141   7.207
    7AU     AUL 2134  21.706  14.026   7.210
    7AU       S 2135  21.491  13.599   6.946
    7AU     LIG 2136  21.056  13.787   7.014
    7AU     LIG 2137  20.793  14.171   7.152
    7AU       S 2138  21.771  14.448   6.925
    7AU     LIG 2139  21.449  14.725   6.679
    7AU     LIG 2140  21.236  15.055   6.394
    7AU    AUSL 2141  21.836  13.715   7.690
    7AU    AUSL 2142  21.791  13.408   7.345
    7AU     AUL 2143  21.561  13.753   7.466
    7AU       S 2144  21.319  13.314   7.361
    7AU     LIG 2145  20.941  13.270   7.068
    7AU     LIG 2146  20.533  13.038   7.064
    7AU       S 2147  21.489  13.598   8.042
    7AU     LIG 2148  21.036  13.678   7.928
    7AU     LIG 2149  20.687  14.002   7.886
    7AU    AUSL 2150  23.230  13.120   7.479
    7AU    AUSL 2151  23.111  13.346   7.863
    7AU     AUL 2152  23.391  13.150   7.863
    7AU       S 2153  23.572  12.852   7.462
    7AU     LIG 2154  23.977  12.591   7.566
    7AU     LIG 2155  24.449  12.573   7.712
    7AU       S 2156  23.283  12.465   8.194
    7AU     LIG 2157  23.701  12.338   8.362
    7AU     LIG 2158  23.986  12.384   8.714
    7AU    AUSL 2159  23.322  13.414   7.293
    7AU    AUSL 2160  23.043  13.004   7.198
    7AU     AUL 2161  23.344  13.165   7.065
    7AU       S 2162  23.757  13.058   7.323
    7AU     LIG 2163  24.166  12.914   7.208
    7AU     LIG 2164  24.591  12.931   7.354
    7AU       S 2165  23.299  12.655   7.055
    7AU     LIG 2166  23.726  12.424   7.114
    7AU     LIG 2167  23.953  12.089   6.844
    7AU    AUSL 2168  22.029  13.152   7.503
    7AU    AUSL 2169  21.966  13.277   7.070
    7AU     AUL 2170  21.752  13.039   7.328
    7AU       S 2171  21.679  13.055   6.811
    7AU     LIG 2172  21.261  12.810   6.721
    7AU     LIG 2173  21.012  12.523   6.430
    7AU       S 2174  21.119  13.367   7.524
    7AU     LIG 2175  20.987  12.915   7.437
    7AU     LIG 2176  20.680  12.604   7.315
    7AU    AUSL 2177  21.818  13.376   7.689
    7AU    AUSL 2178  22.121  12.992   7.806
    7AU     AUL 2179  21.778  13.022   7.712
    7AU       S 2180  21.827  12.741   8.128
    7AU     LIG 2181  21.501  12.433   8.059
    7AU     LIG 2182  21.409  12.017   8.223
    7AU       S 2183  21.339  13.301   7.668
    7AU     LIG 2184  20.950  13.110   7.911
    7AU     LIG 2185  20.588  12.816   7.786
    7AU    AUSL 2186  22.591  14.239   7.978
    7AU    AUSL 2187  22.094  14.156   7.794
    7AU     AUL 2188  22.283  14.430   7.984
    7AU       S 2189  21.780  14.432   8.041
    7AU     LIG 2190  21.525  14.650   8.371
    7AU     LIG 2191  21.316  15.005   8.596
    7AU       S 2192  22.667  14.717   8.159
    7AU     LIG 2193  22.686  15.144   8.464
    7AU     LIG 2194  22.813  15.615   8.509
    7AU    AUSL 2195  22.388  14.290   7.661
    7AU    AUSL 2196  22.716  14.368   7.329
    7AU     AUL 2197  22.378  14.586   7.431
    7AU       S 2198  22.840  14.945   8.034
    7AU     LIG 2199  22.542  15.311   8.009
    7AU     LIG 2200  22.646  15.741   8.040
    7AU       S 2201  22.827  14.811   7.255
    7AU     LIG 2202  23.140  15.225   7.192
    7AU     LIG 2203  22.946  15.460   6.831
    7AU    AUSL 2204  22.744  14.347   7.672
    7AU    AUSL 2205  22.873  14.061   8.085
    7AU     AUL 2206  22.983  14.373   7.942
    7AU       S 2207  23.206  14.274   8.395
    7AU     LIG 2208  23.350  14.604   8.713
    7AU     LIG 2209  23.796  14.691   8.855
    7AU       S 2210  22.732  14.795   7.777
    7AU     LIG 2211  22.885  15.245   7.644
    7AU     LIG 2212  23.062  15.439   8.051
    7AU    AUSL 2213  22.618  13.012   7.956
    7AU    AUSL 2214  23.057  12.987   7.765
    7AU     AUL 2215  22.817  12.746   8.001
    7AU       S 2216  22.136  12.292   8.143
    7AU     LIG 2217  22.238  11.949   8.488
    7AU     LIG 2218  22.495  11.554   8.665
    7AU       S 2219  23.325  12.632   7.926
    7AU     LIG 2220  23.545  12.149   7.916
    7AU     LIG 2221  23.667  11.817   8.266
    7AU    AUSL 2222  22.400  12.823   7.694
    7AU    AUSL 2223  22.340  13.198   7.989
    7AU     AUL 2224  22.348  12.836   8.084
    7AU       S 2225  22.136  12.435   7.798
    7AU     LIG 2226  21.797  12.067   7.870
    7AU     LIG 2227  21.852  11.771   8.210
    7AU       S 2228  21.720  12.773   8.412
    7AU     LIG 2229  21.757  12.295   8.484
    7AU     LIG 2230  21.611  11.887   8.681
    7AU    AUSL 2231  22.752  12.874   7.662
    7AU    AUSL 2232  22.398  12.817   7.338
    7AU     AUL 2233  22.621  12.554   7.529
    7AU       S 2234  22.120  12.448   7.293
    7AU     LIG 2235  21.773  12.095   7.346
    7AU     LIG 2236  21.857  11.713   7.085
    7AU       S 2237  22.292  12.213   7.929
    7AU     LIG 2238  22.486  11.844   8.060
    7AU     LIG 2239  22.611  11.435   8.184
    7AU    AUSL 2240  22.584  14.237   7.017
    7AU    AUSL 2241  22.945  14.116   7.248
    7AU     AUL 2242  22.953  14.369   7.014
    7AU       S 2243  22.630  14.740   6.888
    7AU     LIG 2244  22.580  15.139   6.591
    7AU     LIG 2245  22.795  15.481   6.343
    7AU       S 2246  23.618  14.270   6.767
    7AU     LIG 2247  23.899  14.653   6.815
    7AU     LIG 2248  23.959  15.112   6.713
    7AU    AUSL 2249  22.384  14.230   7.323
    7AU    AUSL 2250  22.280  14.072   6.925
    7AU     AUL 2251  22.265  14.431   7.067
    7AU       S 2252  22.814  14.943   6.979
    7AU     LIG 2253  22.587  15.288   7.160
    7AU     LIG 2254  22.440  15.722   7.043
    7AU       S 2255  21.926  14.284   6.680
    7AU     LIG 2256  21.830  14.585   6.355
    7AU     LIG 2257  21.473  14.702   6.087
    7AU    AUSL 2258  22.581  13.017   7.079
    7AU    AUSL 2259  22.124  12.986   7.210
    7AU     AUL 2260  22.349  12.801   6.947
    7AU       S 2261  21.828  12.744   6.921
    7AU     LIG 2262  21.549  12.379   6.934
    7AU     LIG 2263  21.236  12.136   6.685
    7AU       S 2264  22.073  12.274   6.992
    7AU     LIG 2265  22.247  11.902   6.745
    7AU     LIG 2266  22.505  11.558   6.500
    7AU    AUSL 2267  22.763  12.860   7.329
    7AU    AUSL 2268  22.863  13.108   6.904
    7AU     AUL 2269  22.779  12.742   7.001
    7AU       S 2270  22.247  12.175   7.208
    7AU     LIG 2271  22.506  11.819   7.200
    7AU     LIG 2272  22.808  11.548   6.995
    7AU       S 2273  23.191  12.763   6.701
    7AU     LIG 2274  23.309  12.509   6.297
    7AU     LIG 2275  23.628  12.169   6.160
    8AU     AUC 2276  22.196  26.480   7.508
    8AU     AUC 2277  22.466  26.487   7.342
    8AU     AUC 2278  22.471  26.478   7.668
    8AU     AUC 2279  21.921  26.480   7.344
    8AU     AUC 2280  21.925  26.474   7.674
    8AU     AUC 2281  22.021  26.738   7.517
    8AU     AUC 2282  22.354  26.741   7.513
    8AU     AUC 2283  22.034  26.215   7.504
    8AU     AUC 2284  22.368  26.217   7.499
    8AU     AUC 2285  22.204  26.313   7.767
    8AU     AUC 2286  22.197  26.637   7.782
    8AU     AUC 2287  22.198  26.325   7.240
    8AU     AUC 2288  22.188  26.648   7.245
    8AU     AUC 2289  22.731  26.514   7.179
    8AU     AUC 2290  22.764  26.487   7.500
    8AU     AUC 2291  22.738  26.489   7.821
    8AU     AUC 2292  21.660  26.467   7.171
    8AU     AUC 2293  21.643  26.465   7.509
    8AU     AUC 2294  21.667  26.455   7.843
    8AU     AUC 2295  21.850  26.976   7.526
    8AU     AUC 2296  22.191  27.010   7.522
    8AU     AUC 2297  22.487  27.004   7.515
    8AU     AUC 2298  21.891  25.938   7.500
    8AU     AUC 2299  22.202  25.937   7.494
    8AU     AUC 2300  22.540  25.963   7.487
    8AU     AUC 2301  22.225  26.158   8.022
    8AU     AUC 2302  22.213  26.464   8.052
    8AU     AUC 2303  22.210  26.804   8.039
    8AU     AUC 2304  22.215  26.188   6.970
    8AU     AUC 2305  22.192  26.484   6.973
    8AU     AUC 2306  22.185  26.829   7.000
    8AU     AUC 2307  22.473  26.305   7.939
    8AU     AUC 2308  22.482  26.641   7.960
    8AU     AUC 2309  22.465  26.340   7.048
    8AU     AUC 2310  22.476  26.672   7.078
    8AU     AUC 2311  21.925  26.316   7.948
    8AU     AUC 2312  21.915  26.638   7.954
    8AU     AUC 2313  21.917  26.329   7.063
    8AU     AUC 2314  21.900  26.651   7.071
    8AU     AUC 2315  22.633  26.749   7.349
    8AU     AUC 2316  22.641  26.736   7.679
    8AU     AUC 2317  21.741  26.747   7.337
    8AU     AUC 2318  21.744  26.739   7.691
    8AU     AUC 2319  22.648  26.217   7.332
    8AU     AUC 2320  22.655  26.205   7.641
    8AU     AUC 2321  21.754  26.209   7.328
    8AU     AUC 2322  21.762  26.198   7.681
    8AU     AUC 2323  22.021  26.909   7.805
    8AU     AUC 2324  22.350  26.913   7.795
    8AU     AUC 2325  22.045  26.032   7.754
    8AU     AUC 2326  22.392  26.046   7.768
    8AU     AUC 2327  22.007  26.909   7.230
    8AU     AUC 2328  22.335  26.931   7.236
    8AU     AUC 2329  22.032  26.051   7.245
    8AU     AUC 2330  22.386  26.062   7.225
    8AU    AUSL 2331  22.659  26.438   8.140
    8AU    AUSL 2332  22.542  26.001   8.073
    8AU     AUL 2333  22.900  26.169   8.202
    8AU       S 2334  22.849  25.652   8.281
    8AU     LIG 2335  22.895  25.327   8.670
    8AU     LIG 2336  23.157  24.927   8.771
    8AU       S 2337  22.692  26.233   8.666
    8AU     LIG 2338  22.893  26.340   9.069
    8AU     LIG 2339  23.135  26.366   9.474
    8AU    AUSL 2340  22.367  26.268   8.249
    8AU    AUSL 2341  22.054  26.618   8.189
    8AU     AUL 2342  22.192  26.489   8.528
    8AU       S 2343  22.456  26.032   8.603
    8AU     LIG 2344  22.433  26.071   9.083
    8AU     LIG 2345  22.691  26.071   9.483
    8AU       S 2346  21.468  26.165   8.781
    8AU     LIG 2347  21.594  26.445   9.176
    8AU     LIG 2348  21.585  26.498   9.650
    8AU    AUSL 2349  22.389  26.662   8.264
    8AU    AUSL 2350  22.791  26.747   7.994
    8AU     AUL 2351  22.753  26.649   8.374
    8AU       S 2352  22.385  26.973   8.617
    8AU     LIG 2353  22.740  26.941   8.925
    8AU     LIG 2354  22.803  26.760   9.357
    8AU       S 2355  23.118  26.991   8.274
    8AU     LIG 2356  23.591  27.053   8.385
    8AU     LIG 2357  23.875  27.384   8.582
    8AU    AUSL 2358  22.672  26.546   6.845
    8AU    AUSL 2359  22.489  26.959   6.923
    8AU     AUL 2360  22.513  26.837   6.578
    8AU       S 2361  22.834  26.506   6.360
    8AU     LIG 2362  23.155  26.574   6.011
    8AU     LIG 2363  23.242  26.410   5.572
    8AU       S 2364  22.923  27.145   6.675
    8AU     LIG 2365  23.184  27.477   6.416
    8AU     LIG 2366  23.469  27.713   6.103
    8AU    AUSL 2367  22.400  26.318   6.739
    8AU    AUSL 2368  22.692  26.270   7.076
    8AU     AUL 2369  22.798  26.206   6.759
    8AU       S 2370  22.877  25.387   6.781
    8AU     LIG 2371  23.282  25.518   6.581
    8AU     LIG 2372  23.591  25.367   6.268
    8AU       S 2373  22.534  26.234   6.314
    8AU     LIG 2374  22.536  25.975   5.908
    8AU     LIG 2375  22.829  26.086   5.557
    8AU    AUSL 2376  22.339  26.658   6.843
    8AU    AUSL 2377  22.046  26.324   6.732
    8AU     AUL 2378  22.210  26.592   6.515
    8AU       S 2379  21.826  26.324   6.279
    8AU     LIG 2380  21.997  26.179   5.853
    8AU     LIG 2381  21.664  26.121   5.526
    8AU       S 2382  22.683  26.414   6.100
    8AU     LIG 2383  22.460  26.435   5.691
    8AU     LIG 2384  22.538  26.376   5.227
    8AU    AUSL 2385  21.727  26.444   8.163
    8AU    AUSL 2386  21.917  26.933   8.110
    8AU     AUL 2387  21.860  26.731   8.435
    8AU       S 2388  21.454  26.391   8.511
    8AU     LIG 2389  21.181  26.554   8.894
    8AU     LIG 2390  21.121  26.399   9.364
    8AU       S 2391  21.540  27.145   8.349
    8AU     LIG 2392  21.392  27.518   8.612
    8AU     LIG 2393  21.202  27.931   8.769
    8AU    AUSL 2394  22.022  26.271   8.267
    8AU    AUSL 2395  21.607  26.167   7.965
    8AU     AUL 2396  21.767  26.032   8.276
    8AU       S 2397  21.261  25.965   8.192
    8AU     LIG 2398  20.887  25.684   8.107
    8AU     LIG 2399  20.735  25.360   8.407
    8AU       S 2400  21.748  26.275   8.713
    8AU     LIG 2401  21.852  26.020   9.109
    8AU     LIG 2402  21.587  25.997   9.511
    8AU    AUSL 2403  21.719  26.429   6.851
    8AU    AUSL 2404  21.934  26.099   6.983
    8AU     AUL 2405  21.833  26.036   6.690
    8AU       S 2406  21.481  26.343   6.454
    8AU     LIG 2407  21.183  26.464   6.071
    8AU     LIG 2408  21.205  26.429   5.582
    8AU       S 2409  21.436  25.623   6.635
    8AU     LIG 2410  21.453  25.192   6.480
    8AU     LIG 2411  21.222  24.910   6.176
    8AU    AUSL 2412  22.001  26.665   6.840
    8AU    AUSL 2413  21.615  26.750   7.005
    8AU     AUL 2414  21.765  26.744   6.626
    8AU       S 2415  21.310  26.963   6.719
    8AU     LIG 2416  21.084  27.340   6.501
    8AU     LIG 2417  20.736  27.678   6.406
    8AU       S 2418  21.577  26.176   6.163
    8AU     LIG 2419  21.637  26.540   5.850
    8AU     LIG 2420  21.669  26.639   5.396
    8AU    AUSL 2421  22.804  26.937   7.495
    8AU    AUSL 2422  22.783  26.807   7.077
    8AU     AUL 2423  22.894  27.180   7.242
    8AU       S 2424  23.088  26.894   6.805
    8AU     LIG 2425  23.327  26.958   6.386
    8AU     LIG 2426  23.664  27.292   6.368
    8AU       S 2427  23.646  26.885   7.445
    8AU     LIG 2428  23.704  27.338   7.422
    8AU     LIG 2429  23.590  27.781   7.548
    8AU    AUSL 2430  22.969  26.659   7.331
    8AU    AUSL 2431  22.977  26.317   7.657
    8AU     AUL 2432  23.260  26.448   7.476
    8AU       S 2433  23.356  26.912   7.278
    8AU     LIG 2434  23.698  27.055   6.975
    8AU     LIG 2435  24.096  27.264   6.958
    8AU       S 2436  23.400  25.955   7.574
    8AU     LIG 2437  23.728  25.696   7.755
    8AU     LIG 2438  24.171  25.795   7.724
    8AU    AUSL 2439  22.962  26.680   7.694
    8AU    AUSL 2440  22.596  26.974   7.764
    8AU     AUL 2441  22.931  27.062   7.804
    8AU       S 2442  23.116  27.090   8.569
    8AU     LIG 2443  23.344  27.495   8.429
    8AU     LIG 2444  23.662  27.865   8.519
    8AU       S 2445  23.395  26.914   7.645
    8AU     LIG 2446  23.757  27.103   7.891
    8AU     LIG 2447  24.199  26.983   7.896
    8AU    AUSL 2448  21.554  26.939   7.533
    8AU    AUSL 2449  21.611  26.739   7.986
    8AU     AUL 2450  21.288  26.920   7.785
    8AU       S 2451  21.352  26.869   8.308
    8AU     LIG 2452  21.025  27.216   8.406
    8AU     LIG 2453  20.835  27.616   8.584
    8AU       S 2454  21.390  27.392   7.540
    8AU     LIG 2455  20.962  27.562   7.407
    8AU     LIG 2456  20.550  27.316   7.371
    8AU    AUSL 2457  21.476  26.640   7.302
    8AU    AUSL 2458  21.690  27.043   7.231
    8AU     AUL 2459  21.330  26.941   7.239
    8AU       S 2460  21.093  26.539   6.968
    8AU     LIG 2461  20.623  26.704   7.032
    8AU     LIG 2462  20.282  27.046   6.971
    8AU       S 2463  21.401  27.389   6.986
    8AU     LIG 2464  21.114  27.752   6.802
    8AU     LIG 2465  20.936  28.131   6.557
    8AU    AUSL 2466  21.459  26.609   7.705
    8AU    AUSL 2467  21.412  26.312   7.341
    8AU     AUL 2468  21.186  26.653   7.483
    8AU       S 2469  20.931  26.219   7.372
    8AU     LIG 2470  20.500  26.203   7.130
    8AU     LIG 2471  20.111  26.140   7.344
    8AU       S 2472  21.108  26.495   8.047
    8AU     LIG 2473  20.670  26.668   7.915
    8AU     LIG 2474  20.478  27.109   7.890
    8AU    AUSL 2475  22.852  26.014   7.479
    8AU    AUSL 2476  22.722  26.228   7.873
    8AU     AUL 2477  23.011  26.040   7.870
    8AU       S 2478  23.172  25.745   7.455
    8AU     LIG 2479  23.398  25.367   7.512
    8AU     LIG 2480  23.719  25.162   7.287
    8AU       S 2481  22.922  25.354   8.176
    8AU     LIG 2482  23.332  25.279   8.414
    8AU     LIG 2483  23.659  25.007   8.631
    8AU    AUSL 2484  22.959  26.309   7.299
    8AU    AUSL 2485  22.668  25.904   7.194
    8AU     AUL 2486  22.970  26.061   7.066
    8AU       S 2487  23.393  25.960   7.312
    8AU     LIG 2488  23.786  25.675   7.256
    8AU     LIG 2489  24.266  25.586   7.254
    8AU       S 2490  22.916  25.549   7.037
    8AU     LIG 2491  23.292  25.237   7.007
    8AU     LIG 2492  23.379  25.010   6.600
    8AU    AUSL 2493  21.649  26.049   7.493
    8AU    AUSL 2494  21.589  26.180   7.065
    8AU     AUL 2495  21.365  25.949   7.310
    8AU       S 2496  21.329  25.918   6.792
    8AU     LIG 2497  20.949  25.638   6.701
    8AU     LIG 2498  20.933  25.265   6.432
    8AU       S 2499  20.725  26.284   7.557
    8AU     LIG 2500  20.657  25.798   7.616
    8AU     LIG 2501  20.736  25.331   7.744
    8AU    AUSL 2502  21.439  26.270   7.686
    8AU    AUSL 2503  21.739  25.878   7.792
    8AU     AUL 2504  21.401  25.912   7.693
    8AU       S 2505  21.427  25.638   8.115
    8AU     LIG 2506  21.204  25.269   7.980
    8AU     LIG 2507  20.904  24.967   8.143
    8AU       S 2508  20.965  26.201   7.678
    8AU     LIG 2509  20.581  26.134   7.999
    8AU     LIG 2510  20.098  26.085   7.899
    8AU    AUSL 2511  22.222  27.122   7.995
    8AU    AUSL 2512  21.722  27.043   7.821
    8AU     AUL 2513  21.915  27.303   8.023
    8AU       S 2514  21.411  27.332   8.077
    8AU     LIG 2515  21.166  27.741   8.204
    8AU     LIG 2516  20.980  28.169   8.347
    8AU       S 2517  22.291  27.633   8.109
    8AU     LIG 2518  22.307  28.056   8.341
    8AU     LIG 2519  22.162  28.505   8.385
    8AU    AUSL 2520  22.018  27.171   7.690
    8AU    AUSL 2521  22.327  27.268   7.349
    8AU     AUL 2522  21.983  27.465   7.482
    8AU       S 2523  22.140  27.854   7.897
    8AU     LIG 2524  22.039  28.290   7.949
    8AU     LIG 2525  21.847  28.747   7.948
    8AU       S 2526  22.349  27.719   7.221
    8AU     LIG 2527  22.302  28.148   7.435
    8AU     LIG 2528  22.303  28.560   7.203
    8AU    AUSL 2529  22.375  27.236   7.688
    8AU    AUSL 2530  22.503  26.940   8.100
    8AU     AUL 2531  22.609  27.259   7.965
    8AU       S 2532  22.820  27.161   8.423
    8AU     LIG 2533  22.923  27.508   8.745
    8AU     LIG 2534  23.343  27.655   8.918
    8AU       S 2535  22.387  27.692   7.769
    8AU     LIG 2536  22.544  28.157   7.897
    8AU     LIG 2537  22.611  28.594   8.100
    8AU    AUSL 2538  22.232  25.885   7.961
    8AU    AUSL 2539  22.680  25.874   7.761
    8AU     AUL 2540  22.443  25.620   7.978
    8AU       S 2541  21.722  25.170   8.073
    8AU     LIG 2542  21.920  24.744   8.278
    8AU     LIG 2543  22.067  24.282   8.408
    8AU       S 2544  22.959  25.520   7.910
    8AU     LIG 2545  23.263  25.089   7.951
    8AU     LIG 2546  23.342  24.765   8.292
    8AU    AUSL 2547  22.020  25.710   7.679
    8AU    AUSL 2548  21.957  26.078   7.985
    8AU     AUL 2549  21.951  25.710   8.067
    8AU       S 2550  21.789  25.289   7.756
    8AU     LIG 2551  21.711  24.741   7.818
    8AU     LIG 2552  21.908  24.342   7.919
    8AU       S 2553  21.298  25.690   8.397
    8AU     LIG 2554  21.236  25.223   8.488
    8AU     LIG 2555  20.937  24.890   8.650
    8AU    AUSL 2556  22.369  25.781   7.657
    8AU    AUSL 2557  22.030  25.715   7.322
    8AU     AUL 2558  22.263  25.457   7.522
    8AU       S 2559  21.813  25.331   7.228
    8AU     LIG 2560  21.656  24.949   7.378
    8AU     LIG 2561  21.973  24.584   7.390
    8AU       S 2562  21.983  25.133   7.941
    8AU     LIG 2563  22.218  24.767   7.819
    8AU     LIG 2564  22.427  24.471   8.069
    8AU    AUSL 2565  22.202  27.139   7.034
    8AU    AUSL 2566  22.561  27.019   7.268
    8AU     AUL 2567  22.567  27.287   7.047
    8AU       S 2568  22.224  27.616   6.854
    8AU     LIG 2569  21.951  27.935   6.598
    8AU     LIG 2570  21.853  28.405   6.515
    8AU       S 2571  23.240  27.178   6.817
    8AU     LIG 2572  23.545  27.527   6.835
    8AU     LIG 2573  23.737  27.806   6.539
    8AU    AUSL 2574  22.008  27.115   7.350
    8AU    AUSL 2575  21.897  26.981   6.945
    8AU     AUL 2576  21.894  27.334   7.115
    8AU       S 2577  22.316  27.912   6.971
    8AU     LIG 2578  21.919  28.126   7.072
    8AU     LIG 2579  21.695  28.503   6.994
    8AU       S 2580  21.561  27.222   6.721
    8AU     LIG 2581  21.530  27.616   6.510
    8AU     LIG 2582  21.215  27.826   6.256
    8AU    AUSL 2583  22.210  25.929   7.080
    8AU    AUSL 2584  21.752  25.885   7.201
    8AU     AUL 2585  21.985  25.727   6.925
    8AU       S 2586  21.475  25.622   6.932
    8AU     LIG 2587  21.267  25.220   6.966
    8AU     LIG 2588  21.129  24.876   6.720
    8AU       S 2589  21.783  25.134   6.935
    8AU     LIG 2590  21.960  24.673   6.861
    8AU     LIG 2591  22.131  24.273   6.654
    8AU    AUSL 2592  22.391  25.758   7.324
    8AU    AUSL 2593  22.490  26.017   6.903
    8AU     AUL 2594  22.398  25.651   6.993
    8AU       S 2595  22.045  25.108   7.105
    8AU     LIG 2596  22.404  24.785   7.112
    8AU     LIG 2597  22.349  24.336   7.116
    8AU       S 2598  22.796  25.678   6.676
    8AU     LIG 2599  22.899  25.359   6.284
    8AU     LIG 2600  23.213  25.069   6.063
    9AU     AUC 2601  31.161  24.671   7.511
    9AU     AUC 2602  31.433  24.676   7.350
    9AU     AUC 2603  31.428  24.674   7.677
    9AU     AUC 2604  30.892  24.668   7.342
    9AU     AUC 2605  30.890  24.666   7.673
    9AU     AUC 2606  30.986  24.931   7.511
    9AU     AUC 2607  31.317  24.935   7.515
    9AU     AUC 2608  31.005  24.404   7.507
    9AU     AUC 2609  31.335  24.406   7.508
    9AU     AUC 2610  31.166  24.507   7.773
    9AU     AUC 2611  31.155  24.833   7.782
    9AU     AUC 2612  31.169  24.510   7.244
    9AU     AUC 2613  31.159  24.835   7.245
    9AU     AUC 2614  31.701  24.701   7.196
    9AU     AUC 2615  31.718  24.683   7.512
    9AU     AUC 2616  31.688  24.691   7.835
    9AU     AUC 2617  30.636  24.651   7.165
    9AU     AUC 2618  30.612  24.652   7.502
    9AU     AUC 2619  30.630  24.647   7.836
    9AU     AUC 2620  30.815  25.169   7.511
    9AU     AUC 2621  31.157  25.205   7.515
    9AU     AUC 2622  31.453  25.199   7.516
    9AU     AUC 2623  30.864  24.126   7.505
    9AU     AUC 2624  31.172  24.125   7.507
    9AU     AUC 2625  31.511  24.153   7.503
    9AU     AUC 2626  31.185  24.357   8.032
    9AU     AUC 2627  31.166  24.664   8.057
    9AU     AUC 2628  31.160  25.004   8.037
    9AU     AUC 2629  31.190  24.367   6.976
    9AU     AUC 2630  31.168  24.666   6.975
    9AU     AUC 2631  31.164  25.010   6.997
    9AU     AUC 2632  31.430  24.505   7.949
    9AU     AUC 2633  31.433  24.841   7.968
    9AU     AUC 2634  31.436  24.524   7.058
    9AU     AUC 2635  31.450  24.854   7.086
    9AU     AUC 2636  30.885  24.509   7.950
    9AU     AUC 2637  30.871  24.835   7.948
    9AU     AUC 2638  30.894  24.512   7.062
    9AU     AUC 2639  30.876  24.835   7.067
    9AU     AUC 2640  31.605  24.940   7.363
    9AU     AUC 2641  31.593  24.935   7.690
    9AU     AUC 2642  30.710  24.934   7.326
    9AU     AUC 2643  30.705  24.931   7.679
    9AU     AUC 2644  31.617  24.404   7.345
    9AU     AUC 2645  31.617  24.402   7.652
    9AU     AUC 2646  30.730  24.396   7.326
    9AU     AUC 2647  30.733  24.389   7.684
    9AU     AUC 2648  30.978  25.106   7.795
    9AU     AUC 2649  31.304  25.111   7.794
    9AU     AUC 2650  31.013  24.225   7.763
    9AU     AUC 2651  31.359  24.239   7.780
    9AU     AUC 2652  30.981  25.097   7.223
    9AU     AUC 2653  31.311  25.117   7.235
    9AU     AUC 2654  31.005  24.234   7.248
    9AU     AUC 2655  31.354  24.245   7.235
    9AU    AUSL 2656  31.608  24.636   8.152
    9AU    AUSL 2657  31.508  24.213   8.089
    9AU     AUL 2658  31.883  24.408   8.191
    9AU       S 2659  31.810  23.914   8.323
    9AU     LIG 2660  32.003  23.640   8.667
    9AU     LIG 2661  32.372  23.356   8.661
    9AU       S 2662  31.664  24.393   8.652
    9AU     LIG 2663  31.856  24.621   9.021
    9AU     LIG 2664  32.135  24.629   9.416
    9AU    AUSL 2665  31.315  24.470   8.260
    9AU    AUSL 2666  31.003  24.821   8.186
    9AU     AUL 2667  31.137  24.693   8.533
    9AU       S 2668  31.400  24.237   8.615
    9AU     LIG 2669  31.381  24.386   9.081
    9AU     LIG 2670  31.621  24.504   9.476
    9AU       S 2671  30.381  24.396   8.771
    9AU     LIG 2672  30.467  24.664   9.168
    9AU     LIG 2673  30.384  24.790   9.621
    9AU    AUSL 2674  31.334  24.867   8.268
    9AU    AUSL 2675  31.737  24.948   8.021
    9AU     AUL 2676  31.685  24.846   8.403
    9AU       S 2677  31.308  25.187   8.616
    9AU     LIG 2678  31.667  25.158   8.928
    9AU     LIG 2679  31.766  25.004   9.362
    9AU       S 2680  32.042  25.198   8.316
    9AU     LIG 2681  32.508  25.317   8.417
    9AU     LIG 2682  32.729  25.666   8.640
    9AU    AUSL 2683  31.647  24.733   6.860
    9AU    AUSL 2684  31.476  25.127   6.923
    9AU     AUL 2685  31.483  25.007   6.573
    9AU       S 2686  31.860  24.705   6.391
    9AU     LIG 2687  32.171  24.758   6.008
    9AU     LIG 2688  32.163  24.506   5.603
    9AU       S 2689  31.920  25.265   6.676
    9AU     LIG 2690  32.048  25.464   6.288
    9AU     LIG 2691  32.290  25.809   6.069
    9AU    AUSL 2692  31.385  24.498   6.748
    9AU    AUSL 2693  31.655  24.451   7.093
    9AU     AUL 2694  31.791  24.407   6.792
    9AU       S 2695  31.895  23.631   6.675
    9AU     LIG 2696  32.292  23.674   6.454
    9AU     LIG 2697  32.611  23.461   6.184
    9AU       S 2698  31.566  24.433   6.334
    9AU     LIG 2699  31.478  24.203   5.941
    9AU     LIG 2700  31.699  24.267   5.556
    9AU    AUSL 2701  31.313  24.835   6.842
    9AU    AUSL 2702  31.027  24.503   6.735
    9AU     AUL 2703  31.191  24.755   6.509
    9AU       S 2704  30.785  24.508   6.278
    9AU     LIG 2705  30.933  24.290   5.871
    9AU     LIG 2706  30.599  24.238   5.541
    9AU       S 2707  31.855  24.420   6.209
    9AU     LIG 2708  31.692  24.680   5.852
    9AU     LIG 2709  31.762  24.768   5.382
    9AU    AUSL 2710  30.679  24.644   8.156
    9AU    AUSL 2711  30.866  25.136   8.096
    9AU     AUL 2712  30.809  24.937   8.426
    9AU       S 2713  30.394  24.599   8.487
    9AU     LIG 2714  30.131  24.835   8.815
    9AU     LIG 2715  29.972  24.781   9.276
    9AU       S 2716  30.491  25.342   8.321
    9AU     LIG 2717  30.426  25.636   8.656
    9AU     LIG 2718  30.078  25.868   8.854
    9AU    AUSL 2719  30.970  24.476   8.272
    9AU    AUSL 2720  30.574  24.358   7.965
    9AU     AUL 2721  30.713  24.230   8.285
    9AU       S 2722  30.207  24.166   8.178
    9AU     LIG 2723  29.985  23.976   8.599
    9AU     LIG 2724  29.794  23.541   8.743
    9AU       S 2725  30.671  24.501   8.705
    9AU     LIG 2726  30.829  24.313   9.104
    9AU     LIG 2727  30.656  24.331   9.548
    9AU    AUSL 2728  30.700  24.613   6.845
    9AU    AUSL 2729  30.910  24.276   6.981
    9AU     AUL 2730  30.813  24.216   6.684
    9AU       S 2731  30.454  24.534   6.460
    9AU     LIG 2732  30.178  24.691   6.072
    9AU     LIG 2733  30.164  24.584   5.595
    9AU       S 2734  30.322  23.902   6.586
    9AU     LIG 2735  30.185  23.475   6.428
    9AU     LIG 2736  29.827  23.234   6.215
    9AU    AUSL 2737  30.978  24.847   6.836
    9AU    AUSL 2738  30.593  24.934   6.996
    9AU     AUL 2739  30.748  24.931   6.619
    9AU       S 2740  30.285  25.141   6.699
    9AU     LIG 2741  29.993  25.475   6.468
    9AU     LIG 2742  29.708  25.652   6.104
    9AU       S 2743  30.526  24.352   6.173
    9AU     LIG 2744  30.621  24.687   5.818
    9AU     LIG 2745  30.485  24.997   5.492
    9AU    AUSL 2746  31.771  25.148   7.505
    9AU    AUSL 2747  31.768  24.977   7.099
    9AU     AUL 2748  31.892  25.350   7.232
    9AU       S 2749  32.086  25.038   6.825
    9AU     LIG 2750  32.347  24.966   6.449
    9AU     LIG 2751  32.513  25.286   6.155
    9AU       S 2752  32.504  25.215   7.299
    9AU     LIG 2753  32.681  25.586   7.473
    9AU     LIG 2754  33.038  25.601   7.700
    9AU    AUSL 2755  31.945  24.844   7.379
    9AU    AUSL 2756  31.925  24.532   7.655
    9AU     AUL 2757  32.200  24.722   7.736
    9AU       S 2758  32.315  24.962   7.265
    9AU     LIG 2759  32.668  24.926   6.933
    9AU     LIG 2760  33.146  24.943   7.044
    9AU       S 2761  32.392  24.286   7.536
    9AU     LIG 2762  32.630  24.019   7.853
    9AU     LIG 2763  33.014  23.760   7.799
    9AU    AUSL 2764  31.890  24.893   7.717
    9AU    AUSL 2765  31.554  25.166   7.768
    9AU     AUL 2766  31.900  25.254   7.826
    9AU       S 2767  32.048  25.515   8.343
    9AU     LIG 2768  32.422  25.793   8.233
    9AU     LIG 2769  32.695  26.163   8.381
    9AU       S 2770  32.347  25.170   7.559
    9AU     LIG 2771  32.664  25.309   7.912
    9AU     LIG 2772  33.116  25.272   8.084
    9AU    AUSL 2773  30.515  25.124   7.513
    9AU    AUSL 2774  30.567  24.934   7.970
    9AU     AUL 2775  30.241  25.102   7.761
    9AU       S 2776  30.305  25.065   8.289
    9AU     LIG 2777  30.034  25.303   8.593
    9AU     LIG 2778  29.670  25.584   8.705
    9AU       S 2779  30.321  25.569   7.504
    9AU     LIG 2780  29.940  25.865   7.312
    9AU     LIG 2781  29.502  26.107   7.227
    9AU    AUSL 2782  30.445  24.816   7.287
    9AU    AUSL 2783  30.664  25.233   7.218
    9AU     AUL 2784  30.300  25.113   7.218
    9AU       S 2785  30.087  24.691   6.942
    9AU     LIG 2786  29.631  24.762   7.132
    9AU     LIG 2787  29.271  25.087   7.237
    9AU       S 2788  30.381  25.562   6.974
    9AU     LIG 2789  30.070  25.881   6.801
    9AU     LIG 2790  29.688  25.919   6.559
    9AU    AUSL 2791  30.422  24.796   7.689
    9AU    AUSL 2792  30.387  24.487   7.339
    9AU     AUL 2793  30.146  24.817   7.462
    9AU       S 2794  29.918  24.355   7.409
    9AU     LIG 2795  29.567  24.210   7.159
    9AU     LIG 2796  29.145  24.164   7.284
    9AU       S 2797  30.076  24.680   8.040
    9AU     LIG 2798  29.650  24.761   7.839
    9AU     LIG 2799  29.361  25.125   7.749
    9AU    AUSL 2800  31.827  24.212   7.492
    9AU    AUSL 2801  31.687  24.431   7.882
    9AU     AUL 2802  31.998  24.263   7.862
    9AU       S 2803  32.245  24.038   7.455
    9AU     LIG 2804  32.613  23.739   7.417
    9AU     LIG 2805  33.059  23.668   7.287
    9AU       S 2806  32.105  23.808   8.215
    9AU     LIG 2807  32.538  23.751   8.344
    9AU     LIG 2808  32.818  23.628   8.700
    9AU    AUSL 2809  31.926  24.511   7.300
    9AU    AUSL 2810  31.638  24.084   7.212
    9AU     AUL 2811  31.931  24.229   7.090
    9AU       S 2812  32.355  24.400   7.299
    9AU     LIG 2813  32.552  24.095   7.036
    9AU     LIG 2814  32.953  23.985   6.896
    9AU       S 2815  31.887  23.743   6.965
    9AU     LIG 2816  32.352  23.614   6.968
    9AU     LIG 2817  32.697  23.389   6.717
    9AU    AUSL 2818  30.634  24.243   7.494
    9AU    AUSL 2819  30.569  24.369   7.063
    9AU     AUL 2820  30.363  24.121   7.306
    9AU       S 2821  30.291  24.168   6.793
    9AU     LIG 2822  29.878  23.978   6.804
    9AU     LIG 2823  29.708  23.682   6.501
    9AU       S 2824  29.807  24.139   7.598
    9AU     LIG 2825  29.870  23.800   7.298
    9AU     LIG 2826  29.587  23.599   7.009
    9AU    AUSL 2827  30.411  24.456   7.683
    9AU    AUSL 2828  30.712  24.071   7.797
    9AU     AUL 2829  30.392  24.097   7.681
    9AU       S 2830  30.378  23.837   8.102
    9AU     LIG 2831  30.140  23.452   7.961
    9AU     LIG 2832  29.755  23.404   8.243
    9AU       S 2833  29.949  24.358   7.690
    9AU     LIG 2834  29.636  24.271   8.046
    9AU     LIG 2835  29.187  24.079   8.021
    9AU    AUSL 2836  31.171  25.320   7.990
    9AU    AUSL 2837  30.677  25.238   7.801
    9AU     AUL 2838  30.861  25.514   7.989
    9AU       S 2839  30.356  25.515   8.056
    9AU     LIG 2840  30.032  25.755   8.337
    9AU     LIG 2841  29.691  26.064   8.513
    9AU       S 2842  31.257  25.751   8.210
    9AU     LIG 2843  31.133  26.126   8.491
    9AU     LIG 2844  31.212  26.595   8.532
    9AU    AUSL 2845  30.974  25.370   7.673
    9AU    AUSL 2846  31.312  25.456   7.339
    9AU     AUL 2847  30.988  25.674   7.461
    9AU       S 2848  31.435  26.016   8.106
    9AU     LIG 2849  31.178  26.419   8.052
    9AU     LIG 2850  31.160  26.909   8.062
    9AU       S 2851  31.382  25.906   7.195
    9AU     LIG 2852  31.716  26.289   7.236
    9AU     LIG 2853  31.686  26.755   7.175
    9AU    AUSL 2854  31.329  25.431   7.686
    9AU    AUSL 2855  31.448  25.145   8.102
    9AU     AUL 2856  31.572  25.450   7.943
    9AU       S 2857  31.736  25.370   8.422
    9AU     LIG 2858  31.851  25.653   8.773
    9AU     LIG 2859  32.261  25.886   8.731
    9AU       S 2860  31.318  25.883   7.841
    9AU     LIG 2861  31.533  26.323   7.707
    9AU     LIG 2862  31.597  26.793   7.813
    9AU    AUSL 2863  31.203  24.082   7.971
    9AU    AUSL 2864  31.653  24.078   7.780
    9AU     AUL 2865  31.422  23.824   8.009
    9AU       S 2866  30.835  23.308   7.992
    9AU     LIG 2867  30.963  22.982   8.326
    9AU     LIG 2868  31.065  22.604   8.612
    9AU       S 2869  31.936  23.765   7.968
    9AU     LIG 2870  32.385  23.556   7.875
    9AU     LIG 2871  32.700  23.292   8.115
    9AU    AUSL 2872  30.993  23.902   7.690
    9AU    AUSL 2873  30.922  24.265   8.002
    9AU     AUL 2874  30.919  23.896   8.076
    9AU       S 2875  30.719  23.506   7.758
    9AU     LIG 2876  30.436  23.057   7.845
    9AU     LIG 2877  30.521  22.757   8.195
    9AU       S 2878  30.045  23.901   8.123
    9AU     LIG 2879  30.209  23.528   8.453
    9AU     LIG 2880  30.311  23.137   8.704
    9AU    AUSL 2881  31.348  23.961   7.676
    9AU    AUSL 2882  30.993  23.899   7.334
    9AU     AUL 2883  31.226  23.644   7.526
    9AU       S 2884  30.735  23.506   7.262
    9AU     LIG 2885  30.585  23.001   7.355
    9AU     LIG 2886  30.533  22.660   7.048
    9AU       S 2887  30.871  23.239   7.689
    9AU     LIG 2888  30.952  22.829   7.834
    9AU     LIG 2889  31.209  22.551   8.127
    9AU    AUSL 2890  31.188  25.319   7.025
    9AU    AUSL 2891  31.537  25.200   7.265
    9AU     AUL 2892  31.561  25.452   7.036
    9AU       S 2893  31.235  25.792   6.840
    9AU     LIG 2894  31.122  26.201   6.594
    9AU     LIG 2895  31.327  26.630   6.568
    9AU       S 2896  32.249  25.323   6.779
    9AU     LIG 2897  32.352  25.751   6.592
    9AU     LIG 2898  32.342  26.215   6.435
    9AU    AUSL 2899  30.983  25.315   7.334
    9AU    AUSL 2900  30.877  25.165   6.937
    9AU     AUL 2901  30.879  25.524   7.090
    9AU       S 2902  31.462  26.020   6.905
    9AU     LIG 2903  31.266  26.432   7.046
    9AU     LIG 2904  31.191  26.903   7.005
    9AU       S 2905  30.531  25.405   6.706
    9AU     LIG 2906  30.419  25.760   6.435
    9AU     LIG 2907  30.075  26.002   6.231
    9AU    AUSL 2908  31.179  24.099   7.080
    9AU    AUSL 2909  30.723  24.072   7.201
    9AU     AUL 2910  30.945  23.891   6.940
    9AU       S 2911  30.423  23.848   6.882
    9AU     LIG 2912  30.111  23.523   6.932
    9AU     LIG 2913  29.820  23.238   6.722
    9AU       S 2914  30.620  23.342   6.991
    9AU     LIG 2915  30.791  22.960   6.735
    9AU     LIG 2916  30.649  22.512   6.576
    9AU    AUSL 2917  31.354  23.953   7.342
    9AU    AUSL 2918  31.464  24.197   6.916
    9AU     AUL 2919  31.379  23.822   7.022
    9AU       S 2920  30.909  23.285   7.127
    9AU     LIG 2921  31.029  22.827   7.174
    9AU     LIG 2922  31.135  22.537   6.829
    9AU       S 2923  31.726  23.909   6.651
    9AU     LIG 2924  31.852  23.859   6.202
    9AU     LIG 2925  32.096  23.515   5.983
   10AU     AUC 2926   5.268  14.574   7.501
   10AU     AUC 2927   5.539  14.583   7.333
   10AU     AUC 2928   5.543  14.580   7.659
   10AU     AUC 2929   4.994  14.567   7.338
   10AU     AUC 2930   4.998  14.566   7.668
   10AU     AUC 2931   5.090  14.830   7.506
   10AU     AUC 2932   5.423  14.838   7.502
   10AU     AUC 2933   5.112  14.306   7.501
   10AU     AUC 2934   5.446  14.315   7.494
   10AU     AUC 2935   5.279  14.413   7.762
   10AU     AUC 2936   5.267  14.735   7.772
   10AU     AUC 2937   5.273  14.415   7.235
   10AU     AUC 2938   5.259  14.738   7.236
   10AU     AUC 2939   5.802  14.613   7.168
   10AU     AUC 2940   5.837  14.591   7.490
   10AU     AUC 2941   5.811  14.597   7.812
   10AU     AUC 2942   4.732  14.545   7.167
   10AU     AUC 2943   4.716  14.549   7.502
   10AU     AUC 2944   4.740  14.544   7.836
   10AU     AUC 2945   4.915  15.065   7.511
   10AU     AUC 2946   5.256  15.105   7.507
   10AU     AUC 2947   5.553  15.103   7.501
   10AU     AUC 2948   4.974  14.027   7.504
   10AU     AUC 2949   5.286  14.034   7.495
   10AU     AUC 2950   5.626  14.065   7.484
   10AU     AUC 2951   5.302  14.265   8.020
   10AU     AUC 2952   5.284  14.568   8.045
   10AU     AUC 2953   5.277  14.904   8.027
   10AU     AUC 2954   5.288  14.273   6.968
   10AU     AUC 2955   5.266  14.570   6.966
   10AU     AUC 2956   5.253  14.915   6.989
   10AU     AUC 2957   5.547  14.414   7.933
   10AU     AUC 2958   5.552  14.747   7.950
   10AU     AUC 2959   5.538  14.433   7.042
   10AU     AUC 2960   5.543  14.765   7.065
   10AU     AUC 2961   4.999  14.413   7.943
   10AU     AUC 2962   4.984  14.734   7.945
   10AU     AUC 2963   4.991  14.409   7.060
   10AU     AUC 2964   4.970  14.733   7.067
   10AU     AUC 2965   5.703  14.848   7.336
   10AU     AUC 2966   5.712  14.838   7.667
   10AU     AUC 2967   4.808  14.831   7.327
   10AU     AUC 2968   4.812  14.829   7.680
   10AU     AUC 2969   5.726  14.315   7.325
   10AU     AUC 2970   5.734  14.309   7.634
   10AU     AUC 2971   4.832  14.291   7.326
   10AU     AUC 2972   4.839  14.288   7.679
   10AU     AUC 2973   5.086  15.003   7.792
   10AU     AUC 2974   5.415  15.012   7.781
   10AU     AUC 2975   5.126  14.130   7.755
   10AU     AUC 2976   5.473  14.152   7.767
   10AU     AUC 2977   5.074  14.998   7.218
   10AU     AUC 2978   5.402  15.023   7.223
   10AU     AUC 2979   5.112  14.137   7.246
   10AU     AUC 2980   5.465  14.155   7.222
   10AU    AUSL 2981   5.729  14.547   8.131
   10AU    AUSL 2982   5.624  14.122   8.073
   10AU     AUL 2983   6.001  14.317   8.172
   10AU       S 2984   5.871  13.843   8.337
   10AU     LIG 2985   5.946  13.739   8.776
   10AU     LIG 2986   6.213  13.367   8.881
   10AU       S 2987   5.783  14.301   8.635
   10AU     LIG 2988   5.936  14.473   9.034
   10AU     LIG 2989   6.178  14.489   9.439
   10AU    AUSL 2990   5.438  14.380   8.245
   10AU    AUSL 2991   5.122  14.721   8.180
   10AU     AUL 2992   5.266  14.598   8.524
   10AU       S 2993   5.524  14.137   8.597
   10AU     LIG 2994   5.479  14.210   9.061
   10AU     LIG 2995   5.691  14.299   9.472
   10AU       S 2996   4.519  14.292   8.772
   10AU     LIG 2997   4.619  14.592   9.142
   10AU     LIG 2998   4.510  14.690   9.594
   10AU    AUSL 2999   5.456  14.773   8.254
   10AU    AUSL 3000   5.860  14.855   7.986
   10AU     AUL 3001   5.814  14.754   8.376
   10AU       S 3002   5.428  15.096   8.595
   10AU     LIG 3003   5.765  15.035   8.924
   10AU     LIG 3004   5.798  14.846   9.362
   10AU       S 3005   6.144  15.125   8.273
   10AU     LIG 3006   6.580  15.289   8.295
   10AU     LIG 3007   6.704  15.663   8.552
   10AU    AUSL 3008   5.738  14.642   6.835
   10AU    AUSL 3009   5.555  15.046   6.906
   10AU     AUL 3010   5.577  14.917   6.556
   10AU       S 3011   5.891  14.575   6.334
   10AU     LIG 3012   6.226  14.643   5.995
   10AU     LIG 3013   6.299  14.400   5.594
   10AU       S 3014   5.978  15.230   6.652
   10AU     LIG 3015   6.104  15.467   6.273
   10AU     LIG 3016   6.347  15.817   6.053
   10AU    AUSL 3017   5.477  14.407   6.733
   10AU    AUSL 3018   5.766  14.363   7.070
   10AU     AUL 3019   5.895  14.325   6.769
   10AU       S 3020   5.887  13.559   6.574
   10AU     LIG 3021   6.281  13.672   6.363
   10AU     LIG 3022   6.584  13.528   6.031
   10AU       S 3023   5.620  14.299   6.320
   10AU     LIG 3024   5.514  14.106   5.883
   10AU     LIG 3025   5.769  14.075   5.484
   10AU    AUSL 3026   5.404  14.747   6.822
   10AU    AUSL 3027   5.117  14.403   6.729
   10AU     AUL 3028   5.273  14.657   6.496
   10AU       S 3029   4.848  14.405   6.278
   10AU     LIG 3030   4.964  14.204   5.845
   10AU     LIG 3031   4.664  14.134   5.472
   10AU       S 3032   5.897  14.295   6.163
   10AU     LIG 3033   5.798  14.516   5.750
   10AU     LIG 3034   5.914  14.546   5.283
   10AU    AUSL 3035   4.799  14.540   8.155
   10AU    AUSL 3036   4.980  15.034   8.096
   10AU     AUL 3037   4.931  14.832   8.425
   10AU       S 3038   4.524  14.489   8.490
   10AU     LIG 3039   4.245  14.714   8.807
   10AU     LIG 3040   4.121  14.557   9.255
   10AU       S 3041   4.606  15.235   8.333
   10AU     LIG 3042   4.429  15.548   8.632
   10AU     LIG 3043   4.183  15.922   8.775
   10AU    AUSL 3044   5.094  14.375   8.265
   10AU    AUSL 3045   4.684  14.256   7.963
   10AU     AUL 3046   4.842  14.129   8.275
   10AU       S 3047   4.336  14.034   8.189
   10AU     LIG 3048   3.926  13.739   8.186
   10AU     LIG 3049   3.755  13.411   8.510
   10AU       S 3050   4.813  14.386   8.704
   10AU     LIG 3051   4.898  14.171   9.116
   10AU     LIG 3052   4.602  14.181   9.490
   10AU    AUSL 3053   4.790  14.505   6.850
   10AU    AUSL 3054   5.011  14.174   6.980
   10AU     AUL 3055   4.909  14.114   6.683
   10AU       S 3056   4.527  14.429   6.497
   10AU     LIG 3057   4.230  14.621   6.168
   10AU     LIG 3058   4.112  14.501   5.717
   10AU       S 3059   4.529  13.650   6.667
   10AU     LIG 3060   4.360  13.316   6.395
   10AU     LIG 3061   4.259  13.342   5.936
   10AU    AUSL 3062   5.068  14.741   6.845
   10AU    AUSL 3063   4.686  14.826   6.996
   10AU     AUL 3064   4.854  14.817   6.618
   10AU       S 3065   4.385  14.999   6.703
   10AU     LIG 3066   4.160  15.361   6.499
   10AU     LIG 3067   4.110  15.623   6.116
   10AU       S 3068   4.574  14.260   6.197
   10AU     LIG 3069   4.615  14.563   5.819
   10AU     LIG 3070   4.864  14.610   5.415
   10AU    AUSL 3071   5.874  15.043   7.480
   10AU    AUSL 3072   5.852  14.902   7.060
   10AU     AUL 3073   5.973  15.271   7.219
   10AU       S 3074   6.158  14.993   6.789
   10AU     LIG 3075   6.351  15.003   6.353
   10AU     LIG 3076   6.602  15.357   6.177
   10AU       S 3077   6.724  14.941   7.448
   10AU     LIG 3078   6.912  15.321   7.500
   10AU     LIG 3079   7.238  15.486   7.753
   10AU    AUSL 3080   6.038  14.768   7.319
   10AU    AUSL 3081   6.052  14.428   7.648
   10AU     AUL 3082   6.314  14.573   7.468
   10AU       S 3083   6.448  15.021   7.270
   10AU     LIG 3084   6.870  15.125   7.016
   10AU     LIG 3085   7.315  15.219   7.192
   10AU       S 3086   6.523  14.122   7.589
   10AU     LIG 3087   6.977  14.001   7.706
   10AU     LIG 3088   7.391  13.784   7.695
   10AU    AUSL 3089   6.033  14.787   7.685
   10AU    AUSL 3090   5.662  15.070   7.745
   10AU     AUL 3091   6.010  15.161   7.782
   10AU       S 3092   6.133  15.249   8.563
   10AU     LIG 3093   6.223  15.659   8.337
   10AU     LIG 3094   6.389  16.104   8.384
   10AU       S 3095   6.494  15.006   7.663
   10AU     LIG 3096   6.941  15.012   7.914
   10AU     LIG 3097   7.433  15.046   8.041
   10AU    AUSL 3098   4.619  15.022   7.518
   10AU    AUSL 3099   4.680  14.829   7.976
   10AU     AUL 3100   4.355  15.000   7.773
   10AU       S 3101   4.424  14.951   8.296
   10AU     LIG 3102   4.081  15.215   8.437
   10AU     LIG 3103   3.877  15.513   8.723
   10AU       S 3104   4.437  15.465   7.529
   10AU     LIG 3105   3.975  15.569   7.656
   10AU     LIG 3106   3.550  15.532   7.447
   10AU    AUSL 3107   4.543  14.717   7.293
   10AU    AUSL 3108   4.757  15.126   7.216
   10AU     AUL 3109   4.396  15.016   7.225
   10AU       S 3110   4.151  14.601   6.975
   10AU     LIG 3111   3.668  14.694   7.142
   10AU     LIG 3112   3.224  14.956   7.207
   10AU       S 3113   4.472  15.442   6.942
   10AU     LIG 3114   4.344  15.824   6.676
   10AU     LIG 3115   4.026  16.052   6.423
   10AU    AUSL 3116   4.532  14.693   7.696
   10AU    AUSL 3117   4.489  14.388   7.339
   10AU     AUL 3118   4.255  14.727   7.480
   10AU       S 3119   4.013  14.284   7.391
   10AU     LIG 3120   3.718  14.167   7.062
   10AU     LIG 3121   3.266  14.080   7.081
   10AU       S 3122   4.179  14.579   8.039
   10AU     LIG 3123   3.781  14.848   7.947
   10AU     LIG 3124   3.592  15.299   7.931
   10AU    AUSL 3125   5.936  14.116   7.473
   10AU    AUSL 3126   5.798  14.340   7.863
   10AU     AUL 3127   6.098  14.156   7.852
   10AU       S 3128   6.300  13.883   7.457
   10AU     LIG 3129   6.665  13.624   7.527
   10AU     LIG 3130   7.078  13.580   7.343
   10AU       S 3131   5.976  13.530   8.308
   10AU     LIG 3132   6.366  13.683   8.481
   10AU     LIG 3133   6.697  13.540   8.768
   10AU    AUSL 3134   6.033  14.416   7.289
   10AU    AUSL 3135   5.752  14.004   7.180
   10AU     AUL 3136   6.059  14.156   7.073
   10AU       S 3137   6.506  14.120   7.308
   10AU     LIG 3138   6.999  14.086   7.206
   10AU     LIG 3139   7.468  13.880   7.192
   10AU       S 3140   5.974  13.709   6.843
   10AU     LIG 3141   6.321  13.405   6.804
   10AU     LIG 3142   6.462  13.182   6.419
   10AU    AUSL 3143   4.729  14.135   7.494
   10AU    AUSL 3144   4.668  14.251   7.065
   10AU     AUL 3145   4.449  14.025   7.310
   10AU       S 3146   4.420  13.953   6.797
   10AU     LIG 3147   4.035  13.732   6.611
   10AU     LIG 3148   3.868  13.448   6.276
   10AU       S 3149   3.777  14.349   7.533
   10AU     LIG 3150   3.553  13.917   7.500
   10AU     LIG 3151   3.367  13.574   7.776
   10AU    AUSL 3152   4.513  14.355   7.684
   10AU    AUSL 3153   4.823  13.969   7.795
   10AU     AUL 3154   4.482  13.998   7.692
   10AU       S 3155   4.517  13.717   8.107
   10AU     LIG 3156   4.237  13.360   8.056
   10AU     LIG 3157   4.076  13.054   8.349
   10AU       S 3158   4.030  14.267   7.677
   10AU     LIG 3159   3.627  14.123   7.954
   10AU     LIG 3160   3.134  14.065   7.884
   10AU    AUSL 3161   5.284  15.215   7.984
   10AU    AUSL 3162   4.783  15.133   7.806
   10AU     AUL 3163   4.966  15.411   7.989
   10AU       S 3164   4.459  15.411   8.073
   10AU     LIG 3165   4.111  15.719   8.261
   10AU     LIG 3166   4.011  16.193   8.340
   10AU       S 3167   5.375  15.592   8.245
   10AU     LIG 3168   5.402  15.897   8.608
   10AU     LIG 3169   5.398  16.344   8.481
   10AU    AUSL 3170   5.078  15.262   7.674
   10AU    AUSL 3171   5.396  15.361   7.332
   10AU     AUL 3172   5.075  15.570   7.475
   10AU       S 3173   5.363  15.910   8.121
   10AU     LIG 3174   5.115  16.292   8.032
   10AU     LIG 3175   4.734  16.582   8.122
   10AU       S 3176   5.402  15.806   7.145
   10AU     LIG 3177   5.642  16.202   7.257
   10AU     LIG 3178   5.731  16.520   6.925
   10AU    AUSL 3179   5.429  15.333   7.676
   10AU    AUSL 3180   5.571  15.047   8.082
   10AU     AUL 3181   5.688  15.356   7.914
   10AU       S 3182   5.842  15.281   8.396
   10AU     LIG 3183   5.849  15.640   8.688
   10AU     LIG 3184   6.254  15.832   8.829
   10AU       S 3185   5.400  15.770   7.866
   10AU     LIG 3186   5.625  16.211   7.807
   10AU     LIG 3187   5.930  16.557   7.972
   10AU    AUSL 3188   5.318  13.993   7.966
   10AU    AUSL 3189   5.766  13.985   7.766
   10AU     AUL 3190   5.528  13.728   7.976
   10AU       S 3191   4.782  13.265   8.086
   10AU     LIG 3192   4.972  12.946   8.410
   10AU     LIG 3193   4.998  12.465   8.520
   10AU       S 3194   6.033  13.683   8.028
   10AU     LIG 3195   6.401  13.405   8.048
   10AU     LIG 3196   6.489  13.174   8.444
   10AU    AUSL 3197   5.111  13.808   7.690
   10AU    AUSL 3198   5.036  14.178   7.985
   10AU     AUL 3199   5.040  13.817   8.079
   10AU       S 3200   4.893  13.400   7.778
   10AU     LIG 3201   4.841  12.921   7.731
   10AU     LIG 3202   4.846  12.606   8.057
   10AU       S 3203   4.392  13.772   8.382
   10AU     LIG 3204   4.480  13.333   8.511
   10AU     LIG 3205   4.257  13.094   8.836
   10AU    AUSL 3206   5.456  13.891   7.660
   10AU    AUSL 3207   5.119  13.802   7.333
   10AU     AUL 3208   5.362  13.558   7.537
   10AU       S 3209   4.906  13.407   7.265
   10AU     LIG 3210   4.613  13.086   7.053
   10AU     LIG 3211   4.936  12.709   6.985
   10AU       S 3212   5.079  13.241   8.011
   10AU     LIG 3213   5.302  12.824   7.921
   10AU     LIG 3214   5.545  12.426   7.952
   10AU    AUSL 3215   5.268  15.225   7.019
   10AU    AUSL 3216   5.629  15.110   7.252
   10AU     AUL 3217   5.640  15.371   7.035
   10AU       S 3218   5.292  15.662   6.794
   10AU     LIG 3219   5.101  16.035   6.555
   10AU     LIG 3220   5.271  16.479   6.543
   10AU       S 3221   6.307  15.295   6.750
   10AU     LIG 3222   6.458  15.705   6.563
   10AU     LIG 3223   6.489  16.169   6.429
   10AU    AUSL 3224   5.072  15.215   7.334
   10AU    AUSL 3225   4.965  15.063   6.932
   10AU     AUL 3226   4.957  15.424   7.098
   10AU       S 3227   5.488  15.933   6.858
   10AU     LIG 3228   5.193  16.275   7.006
   10AU     LIG 3229   4.851  16.595   6.890
   10AU       S 3230   4.634  15.288   6.690
   10AU     LIG 3231   4.601  15.572   6.314
   10AU     LIG 3232   4.466  16.001   6.157
   10AU    AUSL 3233   5.289  14.010   7.083
   10AU    AUSL 3234   4.835  13.962   7.209
   10AU     AUL 3235   5.063  13.802   6.936
   10AU       S 3236   4.558  13.665   6.963
   10AU     LIG 3237   4.200  13.341   6.908
   10AU     LIG 3238   3.946  13.085   6.628
   10AU       S 3239   5.071  13.227   7.010
   10AU     LIG 3240   4.853  13.011   6.603
   10AU     LIG 3241   4.782  12.514   6.512
   10AU    AUSL 3242   5.483  13.856   7.329
   10AU    AUSL 3243   5.558  14.111   6.897
   10AU     AUL 3244   5.491  13.733   7.010
   10AU       S 3245   5.046  13.110   7.306
   10AU     LIG 3246   5.416  12.864   7.130
   10AU     LIG 3247   5.632  12.589   6.836
   10AU       S 3248   5.758  13.859   6.578
   10AU     LIG 3249   5.847  13.779   6.115
   10AU     LIG 3250   6.081  13.416   5.934
   11POPC   NC3 3251  33.465  34.685   9.589
   11POPC   PO4 3252  34.087  34.289   9.469
   11POPC   GL1 3253  33.801  34.441   9.126
   11POPC   GL2 3254  33.504  34.680   9.082
   11POPC   C1A 3255  33.911  34.395   8.706
   11POPC   D2A 3256  34.047  34.399   8.297
   11POPC   C3A 3257  33.782  34.568   7.962
   11POPC   C4A 3258  33.823  34.724   7.561
   11POPC   C1B 3259  33.480  34.626   8.620
   11POPC   C2B 3260  33.395  34.911   8.290
   11POPC   C3B 3261  33.280  34.831   7.865
   11POPC   C4B 3262  33.435  34.996   7.467
   12POPC   NC3 3263  25.256  25.587   9.510
   12POPC   PO4 3264  25.077  24.831   9.489
   12POPC   GL1 3265  25.274  25.047   9.119
   12POPC   GL2 3266  25.137  25.351   9.097
   12POPC   C1A 3267  25.367  25.242   8.659
   12POPC   D2A 3268  25.565  25.383   8.269
   12POPC   C3A 3269  25.424  25.218   7.886
   12POPC   C4A 3270  25.487  25.344   7.430
   12POPC   C1B 3271  24.909  25.438   8.760
   12POPC   C2B 3272  24.918  25.183   8.399
   12POPC   C3B 3273  24.918  25.150   7.961
   12POPC   C4B 3274  25.020  25.405   7.622
   13POPC   NC3 3275  30.737  14.119   9.324
   13POPC   PO4 3276  30.480  14.797   9.360
   13POPC   GL1 3277  30.632  14.548   9.031
   13POPC   GL2 3278  30.991  14.531   9.077
   13POPC   C1A 3279  30.739  14.308   8.640
   13POPC   D2A 3280  30.725  14.395   8.186
   13POPC   C3A 3281  30.671  14.100   7.830
   13POPC   C4A 3282  30.962  13.999   7.498
   13POPC   C1B 3283  30.936  14.781   8.690
   13POPC   C2B 3284  31.010  14.859   8.260
   13POPC   C3B 3285  30.854  14.767   7.860
   13POPC   C4B 3286  30.782  14.499   7.500
   14POPC   NC3 3287  18.871  21.634   9.555
   14POPC   PO4 3288  18.170  21.258   9.726
   14POPC   GL1 3289  18.136  21.166   9.203
   14POPC   GL2 3290  18.471  21.285   9.064
   14POPC   C1A 3291  18.070  21.245   8.726
   14POPC   D2A 3292  18.164  21.142   8.285
   14POPC   C3A 3293  18.108  21.442   7.940
   14POPC   C4A 3294  17.925  21.855   7.879
   14POPC   C1B 3295  18.744  21.343   8.730
   14POPC   C2B 3296  18.571  21.457   8.374
   14POPC   C3B 3297  18.630  21.350   7.973
   14POPC   C4B 3298  18.492  21.312   7.585
   15POPC   NC3 3299  40.917  41.917   9.517
   15POPC   PO4 3300  40.535  41.326   9.449
   15POPC   GL1 3301  40.728  41.486   9.116
   15POPC   GL2 3302  41.034  41.616   9.098
   15POPC   C1A 3303  40.607  41.654   8.730
   15POPC   D2A 3304  40.525  41.455   8.362
   15POPC   C3A 3305  40.513  41.633   7.988
   15POPC   C4A 3306  40.690  41.468   7.645
   15POPC   C1B 3307  41.023  41.400   8.681
   15POPC   C2B 3308  40.962  41.725   8.342
   15POPC   C3B 3309  41.040  41.722   7.921
   15POPC   C4B 3310  41.316  41.381   7.923
   16POPC   NC3 3311   8.790  30.274   9.570
   16POPC   PO4 3312   9.256  29.821   9.337
   16POPC   GL1 3313   8.845  29.668   9.206
   16POPC   GL2 3314   8.671  29.950   9.185
   16POPC   C1A 3315   8.645  29.569   8.818
   16POPC   D2A 3316   8.861  29.614   8.440
   16POPC   C3A 3317   8.666  29.587   8.053
   16POPC   C4A 3318   8.960  29.716   7.763
   16POPC   C1B 3319   8.854  30.045   8.774
   16POPC   C2B 3320   8.630  30.071   8.372
   16POPC   C3B 3321   8.648  30.123   7.944
   16POPC   C4B 3322   8.694  30.514   7.740
   17POPC   NC3 3323  20.601  42.796   9.692
   17POPC   PO4 3324  20.817  42.283   9.377
   17POPC   GL1 3325  20.760  42.345   9.002
   17POPC   GL2 3326  20.438  42.241   9.011
   17POPC   C1A 3327  20.779  42.417   8.594
   17POPC   D2A 3328  20.609  42.196   8.292
   17POPC   C3A 3329  20.845  42.307   7.960
   17POPC   C4A 3330  20.760  42.178   7.567
   17POPC   C1B 3331  20.244  42.320   8.670
   17POPC   C2B 3332  20.264  42.614   8.358
   17POPC   C3B 3333  20.386  42.519   7.957
   17POPC   C4B 3334  20.365  42.511   7.563
   18POPC   NC3 3335  28.040   7.668   9.568
   18POPC   PO4 3336  28.589   7.383   9.366
   18POPC   GL1 3337  28.234   7.230   9.153
   18POPC   GL2 3338  28.178   7.574   9.068
   18POPC   C1A 3339  28.228   7.126   8.694
   18POPC   D2A 3340  28.050   7.298   8.284
   18POPC   C3A 3341  28.383   7.361   7.968
   18POPC   C4A 3342  28.426   7.129   7.605
   18POPC   C1B 3343  27.826   7.786   8.888
   18POPC   C2B 3344  27.832   7.787   8.471
   18POPC   C3B 3345  28.139   7.806   8.128
   18POPC   C4B 3346  28.065   7.902   7.725
   19POPC   NC3 3347   5.397  18.741   9.467
   19POPC   PO4 3348   4.723  18.875   9.466
   19POPC   GL1 3349   4.959  18.907   9.104
   19POPC   GL2 3350   5.251  19.119   9.113
   19POPC   C1A 3351   4.865  19.023   8.689
   19POPC   D2A 3352   5.013  19.319   8.441
   19POPC   C3A 3353   5.069  19.157   8.072
   19POPC   C4A 3354   4.771  19.049   7.798
   19POPC   C1B 3355   5.437  18.864   8.798
   19POPC   C2B 3356   5.283  18.776   8.405
   19POPC   C3B 3357   5.413  18.810   7.972
   19POPC   C4B 3358   5.223  18.948   7.586
   20POPC   NC3 3359   3.343  16.936   9.481
   20POPC   PO4 3360   3.810  16.474   9.641
   20POPC   GL1 3361   3.556  16.484   9.231
   20POPC   GL2 3362   3.640  16.812   9.086
   20POPC   C1A 3363   3.506  16.479   8.738
   20POPC   D2A 3364   3.600  16.831   8.428
   20POPC   C3A 3365   3.728  16.830   7.993
   20POPC   C4A 3366   3.725  16.465   7.745
   20POPC   C1B 3367   3.289  16.958   8.805
   20POPC   C2B 3368   3.194  17.130   8.370
   20POPC   C3B 3369   3.217  16.935   7.901
   20POPC   C4B 3370   3.518  16.873   7.508
   21POPC   NC3 3371  21.602  18.936   9.612
   21POPC   PO4 3372  21.154  19.472   9.403
   21POPC   GL1 3373  21.423  19.122   9.182
   21POPC   GL2 3374  21.337  18.729   9.175
   21POPC   C1A 3375  21.429  19.131   8.737
   21POPC   D2A 3376  21.701  19.188   8.379
   21POPC   C3A 3377  21.432  19.277   8.050
   21POPC   C4A 3378  21.424  19.199   7.654
   21POPC   C1B 3379  21.594  18.639   8.826
   21POPC   C2B 3380  21.581  18.689   8.377
   21POPC   C3B 3381  21.541  18.792   7.937
   21POPC   C4B 3382  21.092  18.840   7.801
   22POPC   NC3 3383  35.962  37.465   9.554
   22POPC   PO4 3384  36.105  38.177   9.474
   22POPC   GL1 3385  36.106  37.816   9.200
   22POPC   GL2 3386  35.734  37.787   9.217
   22POPC   C1A 3387  36.256  37.572   8.832
   22POPC   D2A 3388  36.432  37.662   8.426
   22POPC   C3A 3389  36.228  37.630   8.045
   22POPC   C4A 3390  36.317  37.798   7.645
   22POPC   C1B 3391  35.753  37.571   8.850
   22POPC   C2B 3392  35.848  37.659   8.417
   22POPC   C3B 3393  35.728  37.725   7.984
   22POPC   C4B 3394  35.790  37.595   7.563
   23POPC   NC3 3395  34.282  37.015   9.449
   23POPC   PO4 3396  34.924  36.785   9.549
   23POPC   GL1 3397  34.669  36.794   9.188
   23POPC   GL2 3398  34.701  37.130   9.176
   23POPC   C1A 3399  34.621  36.847   8.739
   23POPC   D2A 3400  34.774  36.813   8.304
   23POPC   C3A 3401  34.441  36.704   8.041
   23POPC   C4A 3402  34.226  36.643   7.658
   23POPC   C1B 3403  34.887  37.305   8.822
   23POPC   C2B 3404  34.741  37.403   8.414
   23POPC   C3B 3405  34.416  37.323   8.097
   23POPC   C4B 3406  34.485  37.099   7.718
   24POPC   NC3 3407  21.089   4.352   9.382
   24POPC   PO4 3408  21.695   4.481   9.698
   24POPC   GL1 3409  21.670   4.433   9.248
   24POPC   GL2 3410  21.723   4.068   9.158
   24POPC   C1A 3411  21.544   4.612   8.838
   24POPC   D2A 3412  21.197   4.476   8.545
   24POPC   C3A 3413  21.258   4.429   8.088
   24POPC   C4A 3414  21.029   4.165   7.798
   24POPC   C1B 3415  21.460   4.083   8.772
   24POPC   C2B 3416  21.359   3.981   8.320
   24POPC   C3B 3417  21.498   3.957   7.890
   24POPC   C4B 3418  21.637   3.876   7.461
   25POPC   NC3 3419  24.156  23.996   9.459
   25POPC   PO4 3420  24.176  24.698   9.504
   25POPC   GL1 3421  24.530  24.426   9.293
   25POPC   GL2 3422  24.905  24.388   9.274
   25POPC   C1A 3423  24.520  24.388   8.850
   25POPC   D2A 3424  24.355  24.410   8.412
   25POPC   C3A 3425  24.387  24.430   7.946
   25POPC   C4A 3426  24.217  24.303   7.532
   25POPC   C1B 3427  25.025  24.335   8.844
   25POPC   C2B 3428  24.839  24.263   8.445
   25POPC   C3B 3429  24.923  24.398   8.054
   25POPC   C4B 3430  24.826  24.699   7.748
   26POPC   NC3 3431   5.568  19.725   9.420
   26POPC   PO4 3432   6.079  20.137   9.523
   26POPC   GL1 3433   5.966  19.896   9.159
   26POPC   GL2 3434   6.068  19.535   9.167
   26POPC   C1A 3435   5.829  19.746   8.762
   26POPC   D2A 3436   5.940  19.542   8.381
   26POPC   C3A 3437   5.798  19.764   8.020
   26POPC   C4A 3438   5.642  19.677   7.628
   26POPC   C1B 3439   6.309  19.422   8.768
   26POPC   C2B 3440   6.291  19.180   8.359
   26POPC   C3B 3441   6.150  19.317   7.932
   26POPC   C4B 3442   6.155  19.679   7.679
   27POPC   NC3 3443  15.750  33.158   9.646
   27POPC   PO4 3444  16.247  32.945   9.320
   27POPC   GL1 3445  15.946  33.188   9.120
   27POPC   GL2 3446  15.563  33.165   9.163
   27POPC   C1A 3447  16.095  33.227   8.702
   27POPC   D2A 3448  16.294  32.979   8.398
   27POPC   C3A 3449  16.146  32.882   7.993
   27POPC   C4A 3450  16.131  33.261   7.771
   27POPC   C1B 3451  15.696  32.890   8.791
   27POPC   C2B 3452  15.786  32.915   8.371
   27POPC   C3B 3453  15.660  33.045   7.973
   27POPC   C4B 3454  15.726  32.732   7.680
   28POPC   NC3 3455   8.510  36.904   9.546
   28POPC   PO4 3456   7.959  36.611   9.540
   28POPC   GL1 3457   8.128  36.823   9.156
   28POPC   GL2 3458   7.997  37.141   9.053
   28POPC   C1A 3459   8.237  36.930   8.682
   28POPC   D2A 3460   8.085  36.925   8.278
   28POPC   C3A 3461   8.374  36.705   7.996
   28POPC   C4A 3462   8.281  36.423   7.660
   28POPC   C1B 3463   7.856  37.303   8.681
   28POPC   C2B 3464   8.027  37.453   8.342
   28POPC   C3B 3465   8.248  37.294   7.966
   28POPC   C4B 3466   8.031  36.973   7.754
   29POPC   NC3 3467   1.794  20.835   9.600
   29POPC   PO4 3468   2.380  20.640   9.564
   29POPC   GL1 3469   2.156  20.806   9.220
   29POPC   GL2 3470   1.895  20.583   9.099
   29POPC   C1A 3471   2.189  20.997   8.832
   29POPC   D2A 3472   2.412  20.934   8.406
   29POPC   C3A 3473   2.165  20.747   8.070
   29POPC   C4A 3474   2.405  20.703   7.679
   29POPC   C1B 3475   1.955  20.576   8.641
   29POPC   C2B 3476   1.695  20.581   8.272
   29POPC   C3B 3477   1.724  20.343   7.887
   29POPC   C4B 3478   2.142  20.198   7.830
   30POPC   NC3 3479  19.121   2.996   9.594
   30POPC   PO4 3480  18.555   2.634   9.422
   30POPC   GL1 3481  18.881   2.762   9.160
   30POPC   GL2 3482  18.835   3.105   9.190
   30POPC   C1A 3483  19.037   2.764   8.737
   30POPC   D2A 3484  19.282   2.640   8.342
   30POPC   C3A 3485  19.004   2.640   8.036
   30POPC   C4A 3486  18.880   2.299   7.856
   30POPC   C1B 3487  18.627   3.136   8.823
   30POPC   C2B 3488  18.680   2.959   8.418
   30POPC   C3B 3489  18.826   3.116   8.054
   30POPC   C4B 3490  18.958   2.977   7.645
   31POPC   NC3 3491  19.107  24.768   9.404
   31POPC   PO4 3492  18.964  25.371   9.677
   31POPC   GL1 3493  18.876  25.219   9.242
   31POPC   GL2 3494  19.201  25.251   9.135
   31POPC   C1A 3495  18.812  25.300   8.767
   31POPC   D2A 3496  18.972  25.412   8.361
   31POPC   C3A 3497  18.873  25.190   8.015
   31POPC   C4A 3498  18.808  25.447   7.680
   31POPC   C1B 3499  19.195  24.993   8.758
   31POPC   C2B 3500  19.268  24.999   8.331
   31POPC   C3B 3501  19.369  25.282   8.007
   31POPC   C4B 3502  19.355  25.153   7.595
   32POPC   NC3 3503  44.637   0.866   9.415
   32POPC   PO4 3504   0.067   0.304   9.521
   32POPC   GL1 3505  44.799   0.396   9.189
   32POPC   GL2 3506  44.977   0.668   9.105
   32POPC   C1A 3507  44.749   0.412   8.718
   32POPC   D2A 3508  44.498   0.462   8.341
   32POPC   C3A 3509  44.692   0.504   7.941
   32POPC   C4A 3510  44.396   0.781   7.746
   32POPC   C1B 3511   0.161   0.727   8.724
   32POPC   C2B 3512   0.033   0.666   8.300
   32POPC   C3B 3513   0.234   0.781   7.904
   32POPC   C4B 3514   0.025   0.592   7.545
   33POPC   NC3 3515   0.540  43.391   9.578
   33POPC   PO4 3516   0.135  42.800   9.589
   33POPC   GL1 3517   0.348  43.019   9.215
   33POPC   GL2 3518   0.261  43.364   9.125
   33POPC   C1A 3519   0.411  42.956   8.749
   33POPC   D2A 3520   0.533  43.088   8.334
   33POPC   C3A 3521   0.424  42.803   8.008
   33POPC   C4A 3522   0.453  42.802   7.530
   33POPC   C1B 3523   0.292  43.450   8.657
   33POPC   C2B 3524   0.268  43.513   8.191
   33POPC   C3B 3525   0.319  43.266   7.831
   33POPC   C4B 3526   0.389  43.360   7.396
   34POPC   NC3 3527  36.275  21.667   9.393
   34POPC   PO4 3528  35.668  21.348   9.470
   34POPC   GL1 3529  35.837  21.568   9.148
   34POPC   GL2 3530  35.897  21.235   9.027
   34POPC   C1A 3531  36.052  21.614   8.746
   34POPC   D2A 3532  35.938  21.434   8.366
   34POPC   C3A 3533  36.151  21.506   7.971
   34POPC   C4A 3534  36.261  21.267   7.616
   34POPC   C1B 3535  35.725  20.929   8.767
   34POPC   C2B 3536  35.810  20.806   8.352
   34POPC   C3B 3537  35.801  20.932   7.935
   34POPC   C4B 3538  35.944  20.899   7.536
   35POPC   NC3 3539   3.019  44.875   9.466
   35POPC   PO4 3540   2.580  44.361   9.390
   35POPC   GL1 3541   2.865  44.532   9.122
   35POPC   GL2 3542   2.748  44.892   9.040
   35POPC   C1A 3543   2.853  44.449   8.720
   35POPC   D2A 3544   2.757  44.726   8.427
   35POPC   C3A 3545   2.922  44.573   8.041
   35POPC   C4A 3546   2.986  44.907   7.792
   35POPC   C1B 3547   2.397  44.742   8.809
   35POPC   C2B 3548   2.210  44.609   8.422
   35POPC   C3B 3549   2.450  44.764   8.035
   35POPC   C4B 3550   2.545  44.606   7.605
   36POPC   NC3 3551  44.877  35.560   9.256
   36POPC   PO4 3552  44.605  36.161   9.512
   36POPC   GL1 3553  44.474  36.150   9.092
   36POPC   GL2 3554  44.460  35.778   9.030
   36POPC   C1A 3555  44.238  36.101   8.715
   36POPC   D2A 3556  44.461  35.862   8.424
   36POPC   C3A 3557  44.711  36.145   8.186
   36POPC   C4A 3558  44.670  36.126   7.733
   36POPC   C1B 3559  44.818  35.982   8.764
   36POPC   C2B 3560   0.111  35.764   8.506
   36POPC   C3B 3561   0.252  35.768   8.065
   36POPC   C4B 3562   0.098  35.872   7.633
   37POPC   NC3 3563  10.887  12.938   9.366
   37POPC   PO4 3564  10.262  13.164   9.480
   37POPC   GL1 3565  10.417  12.919   9.118
   37POPC   GL2 3566  10.541  12.561   8.978
   37POPC   C1A 3567  10.541  13.004   8.709
   37POPC   D2A 3568  10.549  12.703   8.403
   37POPC   C3A 3569  10.350  12.840   8.081
   37POPC   C4A 3570  10.434  12.824   7.663
   37POPC   C1B 3571  10.942  12.569   8.683
   37POPC   C2B 3572  11.073  12.557   8.264
   37POPC   C3B 3573  10.829  12.692   7.943
   37POPC   C4B 3574  10.830  12.505   7.557
   38POPC   NC3 3575   4.618  11.410   9.357
   38POPC   PO4 3576   5.262  11.415   9.540
   38POPC   GL1 3577   5.123  11.196   9.153
   38POPC   GL2 3578   5.012  11.487   9.057
   38POPC   C1A 3579   4.857  11.133   8.734
   38POPC   D2A 3580   4.924  11.321   8.313
   38POPC   C3A 3581   4.946  11.215   7.871
   38POPC   C4A 3582   5.066  10.986   7.474
   38POPC   C1B 3583   5.206  11.506   8.705
   38POPC   C2B 3584   5.253  11.720   8.349
   38POPC   C3B 3585   5.363  11.463   8.033
   38POPC   C4B 3586   5.287  11.587   7.616
   39POPC   NC3 3587  33.240  40.348   9.414
   39POPC   PO4 3588  32.601  40.311   9.407
   39POPC   GL1 3589  32.823  40.588   9.108
   39POPC   GL2 3590  33.153  40.775   9.130
   39POPC   C1A 3591  32.740  40.713   8.683
   39POPC   D2A 3592  32.825  40.878   8.278
   39POPC   C3A 3593  32.713  40.653   7.919
   39POPC   C4A 3594  32.711  40.772   7.495
   39POPC   C1B 3595  33.234  40.851   8.692
   39POPC   C2B 3596  33.334  40.732   8.268
   39POPC   C3B 3597  33.212  40.892   7.861
   39POPC   C4B 3598  33.072  41.136   7.476
   40POPC   NC3 3599  38.491  20.344   9.525
   40POPC   PO4 3600  38.841  20.914   9.463
   40POPC   GL1 3601  38.560  20.680   9.144
   40POPC   GL2 3602  38.195  20.548   9.177
   40POPC   C1A 3603  38.451  20.571   8.707
   40POPC   D2A 3604  38.695  20.547   8.346
   40POPC   C3A 3605  38.525  20.708   7.966
   40POPC   C4A 3606  38.765  20.507   7.674
   40POPC   C1B 3607  38.143  20.910   8.925
   40POPC   C2B 3608  38.065  20.852   8.488
   40POPC   C3B 3609  38.087  20.520   8.179
   40POPC   C4B 3610  38.066  20.517   7.730
   41POPC   NC3 3611  31.673  36.161   9.403
   41POPC   PO4 3612  32.310  35.968   9.456
   41POPC   GL1 3613  32.296  36.274   9.124
   41POPC   GL2 3614  32.035  36.486   9.198
   41POPC   C1A 3615  32.427  36.243   8.711
   41POPC   D2A 3616  32.246  36.132   8.305
   41POPC   C3A 3617  32.344  36.309   7.904
   41POPC   C4A 3618  32.229  36.132   7.501
   41POPC   C1B 3619  32.071  36.613   8.749
   41POPC   C2B 3620  31.878  36.547   8.351
   41POPC   C3B 3621  31.923  36.602   7.914
   41POPC   C4B 3622  31.766  36.387   7.544
   42POPC   NC3 3623   2.380  29.480   9.505
   42POPC   PO4 3624   1.879  29.954   9.530
   42POPC   GL1 3625   2.111  29.928   9.137
   42POPC   GL2 3626   2.063  29.574   9.116
   42POPC   C1A 3627   2.082  29.856   8.680
   42POPC   D2A 3628   1.987  30.135   8.357
   42POPC   C3A 3629   1.830  30.020   7.999
   42POPC   C4A 3630   2.031  29.913   7.639
   42POPC   C1B 3631   2.374  29.430   8.831
   42POPC   C2B 3632   2.438  29.598   8.436
   42POPC   C3B 3633   2.239  29.704   8.071
   42POPC   C4B 3634   2.229  29.435   7.703
   43POPC   NC3 3635  21.373  37.357   9.547
   43POPC   PO4 3636  21.432  38.043   9.402
   43POPC   GL1 3637  21.230  37.780   9.096
   43POPC   GL2 3638  21.491  37.582   9.111
   43POPC   C1A 3639  21.261  37.549   8.675
   43POPC   D2A 3640  21.392  37.881   8.429
   43POPC   C3A 3641  21.373  37.912   8.014
   43POPC   C4A 3642  21.347  37.627   7.693
   43POPC   C1B 3643  21.765  37.668   8.766
   43POPC   C2B 3644  21.879  37.430   8.428
   43POPC   C3B 3645  21.806  37.643   8.085
   43POPC   C4B 3646  21.808  37.837   7.697
   44POPC   NC3 3647  41.210   8.067   9.767
   44POPC   PO4 3648  40.716   7.813   9.366
   44POPC   GL1 3649  40.622   8.108   9.045
   44POPC   GL2 3650  40.537   8.479   9.095
   44POPC   C1A 3651  40.809   8.185   8.685
   44POPC   D2A 3652  41.012   8.341   8.328
   44POPC   C3A 3653  40.875   8.046   8.027
   44POPC   C4A 3654  40.630   7.966   7.690
   44POPC   C1B 3655  40.399   8.486   8.688
   44POPC   C2B 3656  40.501   8.325   8.283
   44POPC   C3B 3657  40.623   8.458   7.898
   44POPC   C4B 3658  40.296   8.487   7.632
   45POPC   NC3 3659   1.646  35.952   9.361
   45POPC   PO4 3660   1.105  36.182   9.322
   45POPC   GL1 3661   1.437  36.266   9.016
   45POPC   GL2 3662   1.393  36.583   8.929
   45POPC   C1A 3663   1.398  36.053   8.624
   45POPC   D2A 3664   1.107  35.857   8.325
   45POPC   C3A 3665   1.082  36.035   7.914
   45POPC   C4A 3666   1.311  36.064   7.564
   45POPC   C1B 3667   1.020  36.456   8.750
   45POPC   C2B 3668   1.057  36.363   8.358
   45POPC   C3B 3669   1.038  36.557   8.016
   45POPC   C4B 3670   1.186  36.546   7.633
   46POPC   NC3 3671  36.059  33.526   9.695
   46POPC   PO4 3672  36.451  33.942   9.403
   46POPC   GL1 3673  36.240  33.806   9.083
   46POPC   GL2 3674  36.007  33.535   9.168
   46POPC   C1A 3675  36.278  34.013   8.700
   46POPC   D2A 3676  36.470  33.877   8.346
   46POPC   C3A 3677  36.266  34.033   8.002
   46POPC   C4A 3678  36.177  33.874   7.603
   46POPC   C1B 3679  35.844  33.739   8.771
   46POPC   C2B 3680  35.933  33.806   8.344
   46POPC   C3B 3681  35.780  33.766   7.941
   46POPC   C4B 3682  35.786  33.380   7.709
   47POPC   NC3 3683  16.875   5.581   9.396
   47POPC   PO4 3684  16.540   6.217   9.259
   47POPC   GL1 3685  16.844   5.992   9.051
   47POPC   GL2 3686  16.584   5.750   9.002
   47POPC   C1A 3687  17.033   5.738   8.741
   47POPC   D2A 3688  16.926   5.595   8.334
   47POPC   C3A 3689  16.916   5.910   8.027
   47POPC   C4A 3690  16.644   6.036   7.728
   47POPC   C1B 3691  16.304   5.673   8.669
   47POPC   C2B 3692  16.257   5.480   8.288
   47POPC   C3B 3693  16.243   5.676   7.893
   47POPC   C4B 3694  16.493   5.569   7.581
   48POPC   NC3 3695  34.825  25.437   9.346
   48POPC   PO4 3696  34.380  24.987   9.480
   48POPC   GL1 3697  34.361  25.280   9.153
   48POPC   GL2 3698  34.516  25.547   8.938
   48POPC   C1A 3699  34.446  25.075   8.785
   48POPC   D2A 3700  34.524  24.985   8.387
   48POPC   C3A 3701  34.404  25.253   8.032
   48POPC   C4A 3702  34.725  25.123   7.725
   48POPC   C1B 3703  34.805  25.386   8.626
   48POPC   C2B 3704  34.884  25.321   8.200
   48POPC   C3B 3705  34.839  25.591   7.846
   48POPC   C4B 3706  34.788  25.553   7.368
   49POPC   NC3 3707  28.797  34.632   9.355
   49POPC   PO4 3708  28.125  34.560   9.466
   49POPC   GL1 3709  28.264  34.416   9.102
   49POPC   GL2 3710  28.117  34.081   9.129
   49POPC   C1A 3711  28.439  34.587   8.703
   49POPC   D2A 3712  28.670  34.664   8.292
   49POPC   C3A 3713  28.759  34.638   7.865
   49POPC   C4A 3714  28.532  34.839   7.528
   49POPC   C1B 3715  28.176  34.145   8.677
   49POPC   C2B 3716  28.207  34.391   8.294
   49POPC   C3B 3717  28.253  34.567   7.883
   49POPC   C4B 3718  27.943  34.492   7.519
   50POPC   NC3 3719   2.062  11.416   9.471
   50POPC   PO4 3720   1.520  11.090   9.525
   50POPC   GL1 3721   1.752  11.254   9.118
   50POPC   GL2 3722   1.813  11.625   9.068
   50POPC   C1A 3723   1.710  11.303   8.654
   50POPC   D2A 3724   1.629  11.479   8.242
   50POPC   C3A 3725   1.662  11.256   7.851
   50POPC   C4A 3726   1.830  11.356   7.441
   50POPC   C1B 3727   2.138  11.571   8.741
   50POPC   C2B 3728   2.142  11.313   8.349
   50POPC   C3B 3729   2.168  11.346   7.897
   50POPC   C4B 3730   2.510  11.115   7.701
   51POPC   NC3 3731   7.602  40.221   9.610
   51POPC   PO4 3732   7.204  39.706   9.584
   51POPC   GL1 3733   7.232  39.923   9.201
   51POPC   GL2 3734   7.583  40.013   9.131
   51POPC   C1A 3735   7.142  40.217   8.876
   51POPC   D2A 3736   7.306  40.339   8.454
   51POPC   C3A 3737   7.202  40.148   8.090
   51POPC   C4A 3738   7.231  39.969   7.706
   51POPC   C1B 3739   7.499  39.884   8.707
   51POPC   C2B 3740   7.693  40.035   8.333
   51POPC   C3B 3741   7.687  39.950   7.922
   51POPC   C4B 3742   7.721  39.875   7.473
   52POPC   NC3 3743   3.778  31.062   9.546
   52POPC   PO4 3744   3.113  30.878   9.411
   52POPC   GL1 3745   3.518  30.819   9.165
   52POPC   GL2 3746   3.613  30.504   9.123
   52POPC   C1A 3747   3.854  30.825   8.823
   52POPC   D2A 3748   3.687  30.820   8.408
   52POPC   C3A 3749   3.864  30.817   8.005
   52POPC   C4A 3750   3.576  30.848   7.634
   52POPC   C1B 3751   3.521  30.426   8.709
   52POPC   C2B 3752   3.787  30.310   8.334
   52POPC   C3B 3753   3.674  30.355   7.922
   52POPC   C4B 3754   3.259  30.414   7.752
   53POPC   NC3 3755  12.772  27.094   9.312
   53POPC   PO4 3756  12.702  27.687   9.655
   53POPC   GL1 3757  12.877  27.673   9.159
   53POPC   GL2 3758  12.584  27.862   8.993
   53POPC   C1A 3759  12.827  27.430   8.743
   53POPC   D2A 3760  12.638  27.523   8.368
   53POPC   C3A 3761  12.617  27.333   7.988
   53POPC   C4A 3762  12.821  27.385   7.623
   53POPC   C1B 3763  12.942  27.923   8.717
   53POPC   C2B 3764  13.076  27.817   8.306
   53POPC   C3B 3765  12.885  27.794   7.916
   53POPC   C4B 3766  12.933  27.865   7.451
   54POPC   NC3 3767   3.337  34.914   9.815
   54POPC   PO4 3768   3.767  34.480   9.582
   54POPC   GL1 3769   3.521  34.404   9.240
   54POPC   GL2 3770   3.820  34.297   9.095
   54POPC   C1A 3771   3.398  34.442   8.808
   54POPC   D2A 3772   3.483  34.658   8.427
   54POPC   C3A 3773   3.184  34.626   8.131
   54POPC   C4A 3774   3.248  34.442   7.738
   54POPC   C1B 3775   3.893  34.500   8.719
   54POPC   C2B 3776   3.929  34.326   8.321
   54POPC   C3B 3777   3.703  34.473   7.995
   54POPC   C4B 3778   3.753  34.778   7.688
   55POPC   NC3 3779  12.886   1.458   9.641
   55POPC   PO4 3780  12.460   1.078   9.370
   55POPC   GL1 3781  12.754   1.247   9.109
   55POPC   GL2 3782  12.948   1.553   9.152
   55POPC   C1A 3783  12.755   1.033   8.729
   55POPC   D2A 3784  12.642   1.190   8.374
   55POPC   C3A 3785  12.766   0.934   8.058
   55POPC   C4A 3786  12.627   0.908   7.661
   55POPC   C1B 3787  12.840   1.548   8.705
   55POPC   C2B 3788  13.006   1.661   8.317
   55POPC   C3B 3789  12.865   1.456   7.991
   55POPC   C4B 3790  12.988   1.264   7.692
   56POPC   NC3 3791   6.894  32.552   9.428
   56POPC   PO4 3792   6.557  31.934   9.550
   56POPC   GL1 3793   6.490  32.095   9.077
   56POPC   GL2 3794   6.623  32.366   9.047
   56POPC   C1A 3795   6.670  32.144   8.606
   56POPC   D2A 3796   6.841  31.892   8.274
   56POPC   C3A 3797   6.654  32.102   7.917
   56POPC   C4A 3798   6.760  32.042   7.503
   56POPC   C1B 3799   6.650  32.622   8.732
   56POPC   C2B 3800   6.363  32.773   8.466
   56POPC   C3B 3801   6.511  32.828   8.061
   56POPC   C4B 3802   6.782  32.580   7.777
   57POPC   NC3 3803  35.790  12.565   9.589
   57POPC   PO4 3804  36.409  12.845   9.443
   57POPC   GL1 3805  36.134  13.029   9.142
   57POPC   GL2 3806  36.374  13.240   8.987
   57POPC   C1A 3807  35.908  12.820   8.791
   57POPC   D2A 3808  36.027  12.660   8.372
   57POPC   C3A 3809  36.321  12.947   8.167
   57POPC   C4A 3810  36.261  13.227   7.846
   57POPC   C1B 3811  36.418  12.901   8.679
   57POPC   C2B 3812  36.546  12.530   8.420
   57POPC   C3B 3813  36.368  12.477   8.009
   57POPC   C4B 3814  36.363  12.776   7.643
   58POPC   NC3 3815   2.881  35.280   9.646
   58POPC   PO4 3816   2.414  35.633   9.345
   58POPC   GL1 3817   2.735  35.499   9.141
   58POPC   GL2 3818   2.807  35.161   9.145
   58POPC   C1A 3819   2.610  35.356   8.714
   58POPC   D2A 3820   2.398  35.322   8.347
   58POPC   C3A 3821   2.607  35.497   8.037
   58POPC   C4A 3822   2.432  35.529   7.659
   58POPC   C1B 3823   3.103  35.364   8.818
   58POPC   C2B 3824   3.013  35.563   8.401
   58POPC   C3B 3825   3.106  35.389   7.972
   58POPC   C4B 3826   2.881  35.319   7.574
   59POPC   NC3 3827  42.931   1.559   9.353
   59POPC   PO4 3828  42.638   2.158   9.565
   59POPC   GL1 3829  42.920   2.088   9.175
   59POPC   GL2 3830  43.262   1.891   9.147
   59POPC   C1A 3831  43.197   2.266   8.834
   59POPC   D2A 3832  43.376   2.120   8.441
   59POPC   C3A 3833  43.077   2.105   8.090
   59POPC   C4A 3834  43.123   2.165   7.644
   59POPC   C1B 3835  43.039   1.791   8.728
   59POPC   C2B 3836  43.162   1.628   8.317
   59POPC   C3B 3837  43.161   1.616   7.859
   59POPC   C4B 3838  43.041   1.560   7.440
   60POPC   NC3 3839   2.327  13.603   9.574
   60POPC   PO4 3840   1.721  13.806   9.409
   60POPC   GL1 3841   1.984  13.611   9.144
   60POPC   GL2 3842   2.208  13.893   9.149
   60POPC   C1A 3843   1.885  13.449   8.741
   60POPC   D2A 3844   1.890  13.268   8.315
   60POPC   C3A 3845   2.240  13.452   8.019
   60POPC   C4A 3846   2.174  13.465   7.543
   60POPC   C1B 3847   1.945  13.988   8.747
   60POPC   C2B 3848   1.817  13.778   8.344
   60POPC   C3B 3849   1.777  13.608   7.910
   60POPC   C4B 3850   1.826  13.829   7.538
   61POPC   NC3 3851  32.434   3.841   9.399
   61POPC   PO4 3852  32.017   3.311   9.381
   61POPC   GL1 3853  32.314   3.375   9.012
   61POPC   GL2 3854  32.569   3.660   8.952
   61POPC   C1A 3855  32.236   3.587   8.599
   61POPC   D2A 3856  31.862   3.669   8.393
   61POPC   C3A 3857  31.953   3.405   8.057
   61POPC   C4A 3858  32.369   3.520   7.932
   61POPC   C1B 3859  32.719   3.333   8.692
   61POPC   C2B 3860  32.606   3.269   8.299
   61POPC   C3B 3861  32.681   3.112   7.873
   61POPC   C4B 3862  32.463   3.226   7.489
   62POPC   NC3 3863  40.138  18.408   9.391
   62POPC   PO4 3864  39.831  17.855   9.562
   62POPC   GL1 3865  39.961  17.952   9.132
   62POPC   GL2 3866  40.312  18.048   9.068
   62POPC   C1A 3867  39.935  18.051   8.691
   62POPC   D2A 3868  39.947  18.407   8.474
   62POPC   C3A 3869  39.794  18.421   8.069
   62POPC   C4A 3870  39.721  18.134   7.726
   62POPC   C1B 3871  40.409  18.223   8.653
   62POPC   C2B 3872  40.393  18.418   8.242
   62POPC   C3B 3873  40.220  18.216   7.872
   62POPC   C4B 3874  40.098  18.377   7.479
   63POPC   NC3 3875   1.754  39.113   9.620
   63POPC   PO4 3876   1.849  39.750   9.516
   63POPC   GL1 3877   1.845  39.438   9.176
   63POPC   GL2 3878   1.910  39.061   9.150
   63POPC   C1A 3879   2.073  39.353   8.777
   63POPC   D2A 3880   2.137  39.140   8.356
   63POPC   C3A 3881   2.098  39.360   7.945
   63POPC   C4A 3882   2.446  39.600   7.757
   63POPC   C1B 3883   1.947  38.843   8.745
   63POPC   C2B 3884   1.737  38.830   8.339
   63POPC   C3B 3885   1.935  38.850   7.958
   63POPC   C4B 3886   2.000  39.009   7.567
   64POPC   NC3 3887  28.917  31.541   9.311
   64POPC   PO4 3888  29.546  31.166   9.527
   64POPC   GL1 3889  29.402  31.410   9.177
   64POPC   GL2 3890  29.542  31.696   9.018
   64POPC   C1A 3891  29.274  31.317   8.785
   64POPC   D2A 3892  29.064  31.101   8.486
   64POPC   C3A 3893  29.160  31.169   8.077
   64POPC   C4A 3894  29.003  31.464   7.831
   64POPC   C1B 3895  29.321  31.796   8.623
   64POPC   C2B 3896  29.384  31.683   8.176
   64POPC   C3B 3897  29.358  31.809   7.752
   64POPC   C4B 3898  29.581  31.742   7.368
   65POPC   NC3 3899  43.587  11.799   9.580
   65POPC   PO4 3900  44.176  12.112   9.469
   65POPC   GL1 3901  43.985  11.870   9.167
   65POPC   GL2 3902  43.715  12.100   9.110
   65POPC   C1A 3903  44.000  11.943   8.704
   65POPC   D2A 3904  43.686  11.830   8.376
   65POPC   C3A 3905  43.729  11.958   7.932
   65POPC   C4A 3906  43.921  12.252   7.634
   65POPC   C1B 3907  43.601  12.301   8.717
   65POPC   C2B 3908  43.747  12.327   8.320
   65POPC   C3B 3909  43.667  12.501   7.974
   65POPC   C4B 3910  43.418  12.327   7.721
   66POPC   NC3 3911  27.794  30.929   9.546
   66POPC   PO4 3912  27.271  30.497   9.400
   66POPC   GL1 3913  27.637  30.580   9.171
   66POPC   GL2 3914  27.578  30.920   9.086
   66POPC   C1A 3915  27.806  30.499   8.767
   66POPC   D2A 3916  27.593  30.464   8.353
   66POPC   C3A 3917  27.821  30.468   7.959
   66POPC   C4A 3918  27.733  30.591   7.550
   66POPC   C1B 3919  27.389  30.835   8.716
   66POPC   C2B 3920  27.467  30.981   8.314
   66POPC   C3B 3921  27.490  30.846   7.912
   66POPC   C4B 3922  27.362  31.087   7.555
   67POPC   NC3 3923  44.812  43.130   9.579
   67POPC   PO4 3924  44.163  43.329   9.537
   67POPC   GL1 3925  44.439  43.273   9.180
   67POPC   GL2 3926  44.787  43.166   9.088
   67POPC   C1A 3927  44.391  43.131   8.763
   67POPC   D2A 3928  44.490  43.173   8.342
   67POPC   C3A 3929  44.595  42.827   8.064
   67POPC   C4A 3930  44.504  42.865   7.615
   67POPC   C1B 3931  44.917  43.097   8.691
   67POPC   C2B 3932   0.014  43.065   8.264
   67POPC   C3B 3933  44.806  43.303   7.956
   67POPC   C4B 3934  44.889  43.383   7.550
   68POPC   NC3 3935  36.367   9.098   9.400
   68POPC   PO4 3936  35.828   9.267   9.722
   68POPC   GL1 3937  35.839   8.995   9.258
   68POPC   GL2 3938  36.086   8.726   9.172
   68POPC   C1A 3939  35.811   8.969   8.810
   68POPC   D2A 3940  36.016   9.075   8.409
   68POPC   C3A 3941  35.883   8.942   7.991
   68POPC   C4A 3942  36.062   9.180   7.645
   68POPC   C1B 3943  36.344   8.840   8.794
   68POPC   C2B 3944  36.533   9.006   8.416
   68POPC   C3B 3945  36.401   9.002   8.013
   68POPC   C4B 3946  36.545   9.283   7.719
   69POPC   NC3 3947  12.947   5.997   9.603
   69POPC   PO4 3948  12.381   5.733   9.489
   69POPC   GL1 3949  12.659   5.913   9.196
   69POPC   GL2 3950  12.975   5.692   9.187
   69POPC   C1A 3951  12.831   6.016   8.817
   69POPC   D2A 3952  12.898   5.779   8.448
   69POPC   C3A 3953  12.628   5.873   8.152
   69POPC   C4A 3954  12.810   5.846   7.762
   69POPC   C1B 3955  13.257   5.722   8.811
   69POPC   C2B 3956  13.307   5.467   8.449
   69POPC   C3B 3957  13.239   5.640   8.022
   69POPC   C4B 3958  13.318   5.967   7.718
   70POPC   NC3 3959  19.447   7.692   9.401
   70POPC   PO4 3960  18.866   7.484   9.559
   70POPC   GL1 3961  19.024   7.480   9.123
   70POPC   GL2 3962  19.278   7.235   9.077
   70POPC   C1A 3963  19.052   7.372   8.660
   70POPC   D2A 3964  18.764   7.427   8.344
   70POPC   C3A 3965  18.903   7.554   7.951
   70POPC   C4A 3966  18.962   7.777   7.563
   70POPC   C1B 3967  19.554   7.126   8.746
   70POPC   C2B 3968  19.527   7.324   8.375
   70POPC   C3B 3969  19.298   7.216   8.025
   70POPC   C4B 3970  19.257   7.337   7.601
   71POPC   NC3 3971  26.637  26.443   9.422
   71POPC   PO4 3972  26.602  27.100   9.531
   71POPC   GL1 3973  26.729  26.865   9.168
   71POPC   GL2 3974  27.056  26.668   9.309
   71POPC   C1A 3975  26.721  26.726   8.725
   71POPC   D2A 3976  26.807  26.937   8.322
   71POPC   C3A 3977  26.691  26.740   7.897
   71POPC   C4A 3978  26.779  26.722   7.412
   71POPC   C1B 3979  27.151  26.559   8.907
   71POPC   C2B 3980  27.267  26.608   8.482
   71POPC   C3B 3981  27.190  26.713   8.086
   71POPC   C4B 3982  27.152  26.551   7.698
   72POPC   NC3 3983  12.582  37.925   9.278
   72POPC   PO4 3984  12.181  37.352   9.332
   72POPC   GL1 3985  12.557  37.440   9.042
   72POPC   GL2 3986  12.915  37.472   9.083
   72POPC   C1A 3987  12.782  37.445   8.600
   72POPC   D2A 3988  13.129  37.398   8.311
   72POPC   C3A 3989  13.001  37.489   7.915
   72POPC   C4A 3990  12.967  37.618   7.514
   72POPC   C1B 3991  13.073  37.813   8.746
   72POPC   C2B 3992  13.033  37.900   8.290
   72POPC   C3B 3993  12.864  38.021   7.881
   72POPC   C4B 3994  13.107  38.391   7.762
   73POPC   NC3 3995  44.651  25.758   9.452
   73POPC   PO4 3996  44.419  26.394   9.221
   73POPC   GL1 3997  44.782  26.108   9.098
   73POPC   GL2 3998   0.031  25.792   9.114
   73POPC   C1A 3999  44.661  25.849   8.765
   73POPC   D2A 4000  44.459  26.030   8.442
   73POPC   C3A 4001  44.563  25.854   8.058
   73POPC   C4A 4002  44.454  26.026   7.665
   73POPC   C1B 4003   0.132  25.988   8.732
   73POPC   C2B 4004  44.961  26.117   8.324
   73POPC   C3B 4005  44.917  26.141   7.856
   73POPC   C4B 4006  44.931  25.872   7.473
   74POPC   NC3 4007  38.255   9.214   9.303
   74POPC   PO4 4008  37.776   8.789   9.569
   74POPC   GL1 4009  37.752   9.151   9.257
   74POPC   GL2 4010  37.829   8.896   9.055
   74POPC   C1A 4011  37.743   9.328   8.820
   74POPC   D2A 4012  37.660   9.101   8.447
   74POPC   C3A 4013  37.820   9.223   8.071
   74POPC   C4A 4014  37.661   9.171   7.675
   74POPC   C1B 4015  37.626   8.664   8.696
   74POPC   C2B 4016  37.782   8.604   8.289
   74POPC   C3B 4017  37.673   8.697   7.865
   74POPC   C4B 4018  37.841   8.714   7.445
   75POPC   NC3 4019  41.572  33.384   9.496
   75POPC   PO4 4020  41.784  32.747   9.391
   75POPC   GL1 4021  41.561  33.025   9.128
   75POPC   GL2 4022  41.175  33.045   9.186
   75POPC   C1A 4023  41.435  32.903   8.741
   75POPC   D2A 4024  41.444  32.618   8.427
   75POPC   C3A 4025  41.416  32.865   8.058
   75POPC   C4A 4026  41.750  32.784   7.773
   75POPC   C1B 4027  41.180  33.339   8.809
   75POPC   C2B 4028  41.418  33.321   8.426
   75POPC   C3B 4029  41.210  33.374   8.071
   75POPC   C4B 4030  41.193  33.179   7.705
   76POPC   NC3 4031  20.559   6.489   9.376
   76POPC   PO4 4032  20.551   7.142   9.211
   76POPC   GL1 4033  20.590   6.737   8.942
   76POPC   GL2 4034  20.847   6.462   8.969
   76POPC   C1A 4035  20.565   6.540   8.521
   76POPC   D2A 4036  20.428   6.854   8.271
   76POPC   C3A 4037  20.516   6.836   7.861
   76POPC   C4A 4038  20.319   7.079   7.596
   76POPC   C1B 4039  21.031   6.720   8.665
   76POPC   C2B 4040  20.989   6.771   8.222
   76POPC   C3B 4041  20.989   6.721   7.804
   76POPC   C4B 4042  20.739   6.417   7.609
   77POPC   NC3 4043   5.194  27.433   9.455
   77POPC   PO4 4044   4.606  27.825   9.444
   77POPC   GL1 4045   4.884  27.633   9.109
   77POPC   GL2 4046   4.893  27.231   9.091
   77POPC   C1A 4047   4.874  27.613   8.677
   77POPC   D2A 4048   4.830  27.849   8.313
   77POPC   C3A 4049   5.011  27.593   8.008
   77POPC   C4A 4050   4.934  27.727   7.605
   77POPC   C1B 4051   5.239  27.268   8.781
   77POPC   C2B 4052   5.520  27.302   8.444
   77POPC   C3B 4053   5.507  27.373   8.007
   77POPC   C4B 4054   5.254  27.302   7.627
   78POPC   NC3 4055   0.746   3.450   9.515
   78POPC   PO4 4056   0.293   3.923   9.560
   78POPC   GL1 4057   0.287   3.649   9.197
   78POPC   GL2 4058   0.605   3.703   9.099
   78POPC   C1A 4059   0.206   3.669   8.721
   78POPC   D2A 4060   0.510   3.723   8.342
   78POPC   C3A 4061   0.334   3.653   7.929
   78POPC   C4A 4062   0.441   3.862   7.536
   78POPC   C1B 4063   0.700   3.345   8.850
   78POPC   C2B 4064   0.852   3.308   8.454
   78POPC   C3B 4065   0.760   3.344   8.058
   78POPC   C4B 4066   0.801   3.048   7.739
   79POPC   NC3 4067   2.864  36.701   9.527
   79POPC   PO4 4068   3.027  37.362   9.422
   79POPC   GL1 4069   2.821  37.047   9.125
   79POPC   GL2 4070   2.725  36.676   9.030
   79POPC   C1A 4071   2.503  37.088   8.780
   79POPC   D2A 4072   2.338  37.058   8.354
   79POPC   C3A 4073   2.488  37.324   8.038
   79POPC   C4A 4074   2.499  37.319   7.620
   79POPC   C1B 4075   2.671  36.662   8.555
   79POPC   C2B 4076   2.722  36.831   8.117
   79POPC   C3B 4077   2.819  36.758   7.697
   79POPC   C4B 4078   3.041  36.602   7.333
   80POPC   NC3 4079  44.994  36.467   9.560
   80POPC   PO4 4080  44.745  37.130   9.629
   80POPC   GL1 4081  44.781  36.976   9.200
   80POPC   GL2 4082  44.706  36.628   9.171
   80POPC   C1A 4083  44.970  36.893   8.795
   80POPC   D2A 4084  44.978  36.695   8.375
   80POPC   C3A 4085  44.674  36.839   8.108
   80POPC   C4A 4086  44.740  37.005   7.714
   80POPC   C1B 4087  44.631  36.496   8.746
   80POPC   C2B 4088  44.383  36.518   8.399
   80POPC   C3B 4089  44.303  36.427   7.978
   80POPC   C4B 4090  44.465  36.586   7.612
   81POPC   NC3 4091  38.941  31.168   9.394
   81POPC   PO4 4092  39.445  31.408   9.688
   81POPC   GL1 4093  39.338  31.457   9.249
   81POPC   GL2 4094  39.288  31.803   9.202
   81POPC   C1A 4095  39.233  31.297   8.815
   81POPC   D2A 4096  39.318  31.440   8.413
   81POPC   C3A 4097  39.474  31.285   8.014
   81POPC   C4A 4098  39.211  31.299   7.656
   81POPC   C1B 4099  39.470  31.782   8.786
   81POPC   C2B 4100  39.320  31.952   8.415
   81POPC   C3B 4101  39.304  31.771   8.039
   81POPC   C4B 4102  39.206  31.839   7.658
   82POPC   NC3 4103   2.478  41.772   9.741
   82POPC   PO4 4104   1.813  41.468   9.642
   82POPC   GL1 4105   1.700  41.361   9.210
   82POPC   GL2 4106   2.012  41.253   9.053
   82POPC   C1A 4107   1.695  41.483   8.744
   82POPC   D2A 4108   1.963  41.336   8.420
   82POPC   C3A 4109   1.788  41.481   8.041
   82POPC   C4A 4110   1.978  41.576   7.653
   82POPC   C1B 4111   2.288  41.050   8.724
   82POPC   C2B 4112   2.459  41.125   8.342
   82POPC   C3B 4113   2.222  41.125   8.020
   82POPC   C4B 4114   2.341  41.254   7.693
   83POPC   NC3 4115  23.047   4.310   9.539
   83POPC   PO4 4116  23.062   4.955   9.729
   83POPC   GL1 4117  22.859   4.680   9.261
   83POPC   GL2 4118  22.644   4.358   9.253
   83POPC   C1A 4119  23.041   4.444   8.876
   83POPC   D2A 4120  23.165   4.612   8.471
   83POPC   C3A 4121  23.325   4.326   8.176
   83POPC   C4A 4122  23.222   4.230   7.756
   83POPC   C1B 4123  22.558   4.338   8.815
   83POPC   C2B 4124  22.788   4.234   8.442
   83POPC   C3B 4125  22.786   4.351   8.009
   83POPC   C4B 4126  22.792   4.602   7.618
   84POPC   NC3 4127   4.273   9.529   9.526
   84POPC   PO4 4128   3.999  10.196   9.542
   84POPC   GL1 4129   4.274  10.081   9.196
   84POPC   GL2 4130   4.475   9.790   9.134
   84POPC   C1A 4131   4.141   9.899   8.770
   84POPC   D2A 4132   4.057   9.575   8.511
   84POPC   C3A 4133   3.967   9.777   8.103
   84POPC   C4A 4134   4.021   9.627   7.677
   84POPC   C1B 4135   4.630   9.814   8.703
   84POPC   C2B 4136   4.458   9.774   8.284
   84POPC   C3B 4137   4.400   9.940   7.881
   84POPC   C4B 4138   4.525   9.572   7.645
   85POPC   NC3 4139   7.237  18.003   9.690
   85POPC   PO4 4140   7.664  17.445   9.613
   85POPC   GL1 4141   7.487  17.339   9.217
   85POPC   GL2 4142   7.798  17.229   9.160
   85POPC   C1A 4143   7.329  17.305   8.783
   85POPC   D2A 4144   7.340  17.647   8.457
   85POPC   C3A 4145   7.171  17.698   8.045
   85POPC   C4A 4146   7.252  17.409   7.735
   85POPC   C1B 4147   7.738  17.592   8.853
   85POPC   C2B 4148   7.846  17.631   8.405
   85POPC   C3B 4149   7.688  17.538   7.999
   85POPC   C4B 4150   7.739  17.361   7.574
   86POPC   NC3 4151  26.185  33.044   9.368
   86POPC   PO4 4152  25.532  32.835   9.418
   86POPC   GL1 4153  25.716  33.070   9.053
   86POPC   GL2 4154  26.007  32.975   8.918
   86POPC   C1A 4155  25.868  33.363   8.671
   86POPC   D2A 4156  26.017  33.049   8.385
   86POPC   C3A 4157  26.039  33.206   7.987
   86POPC   C4A 4158  26.005  32.987   7.613
   86POPC   C1B 4159  26.332  32.732   8.781
   86POPC   C2B 4160  26.477  32.843   8.381
   86POPC   C3B 4161  26.323  32.732   7.991
   86POPC   C4B 4162  26.477  32.765   7.593
   87POPC   NC3 4163   7.140  30.901   9.495
   87POPC   PO4 4164   7.660  30.549   9.623
   87POPC   GL1 4165   7.598  30.530   9.182
   87POPC   GL2 4166   7.246  30.599   9.084
   87POPC   C1A 4167   7.666  30.729   8.759
   87POPC   D2A 4168   7.858  30.754   8.318
   87POPC   C3A 4169   7.614  30.859   7.936
   87POPC   C4A 4170   7.306  30.523   7.848
   87POPC   C1B 4171   7.186  30.932   8.769
   87POPC   C2B 4172   7.247  30.873   8.315
   87POPC   C3B 4173   7.016  30.908   7.925
   87POPC   C4B 4174   7.021  30.962   7.444
   88POPC   NC3 4175  13.811  17.666   9.658
   88POPC   PO4 4176  13.311  17.221   9.467
   88POPC   GL1 4177  13.619  17.443   9.189
   88POPC   GL2 4178  13.685  17.816   9.186
   88POPC   C1A 4179  13.736  17.472   8.756
   88POPC   D2A 4180  13.633  17.421   8.321
   88POPC   C3A 4181  13.967  17.314   8.020
   88POPC   C4A 4182  13.924  17.321   7.562
   88POPC   C1B 4183  13.816  17.971   8.813
   88POPC   C2B 4184  13.692  17.925   8.401
   88POPC   C3B 4185  13.780  17.778   7.950
   88POPC   C4B 4186  14.186  17.722   7.719
   89POPC   NC3 4187  11.510  28.563   9.782
   89POPC   PO4 4188  11.679  28.036   9.428
   89POPC   GL1 4189  11.430  28.335   9.243
   89POPC   GL2 4190  11.705  28.350   9.020
   89POPC   C1A 4191  11.224  28.341   8.830
   89POPC   D2A 4192  11.108  28.125   8.448
   89POPC   C3A 4193  11.131  28.295   8.012
   89POPC   C4A 4194  11.161  28.598   7.681
   89POPC   C1B 4195  11.650  28.586   8.682
   89POPC   C2B 4196  11.511  28.456   8.327
   89POPC   C3B 4197  11.658  28.336   7.969
   89POPC   C4B 4198  11.507  28.249   7.583
   90POPC   NC3 4199  20.066   3.746   9.367
   90POPC   PO4 4200  19.437   3.970   9.534
   90POPC   GL1 4201  19.611   3.752   9.154
   90POPC   GL2 4202  19.765   3.391   9.164
   90POPC   C1A 4203  19.880   3.821   8.770
   90POPC   D2A 4204  20.048   4.066   8.415
   90POPC   C3A 4205  19.893   3.872   8.028
   90POPC   C4A 4206  20.081   3.555   7.761
   90POPC   C1B 4207  19.602   3.178   8.776
   90POPC   C2B 4208  19.747   2.946   8.394
   90POPC   C3B 4209  19.838   3.212   8.051
   90POPC   C4B 4210  19.564   3.494   7.806
   91POPC   NC3 4211  42.361  38.955   9.525
   91POPC   PO4 4212  42.586  39.647   9.517
   91POPC   GL1 4213  42.437  39.365   9.184
   91POPC   GL2 4214  42.674  39.069   9.145
   91POPC   C1A 4215  42.207  39.462   8.784
   91POPC   D2A 4216  42.335  39.587   8.350
   91POPC   C3A 4217  42.119  39.554   7.936
   91POPC   C4A 4218  42.200  39.314   7.545
   91POPC   C1B 4219  42.705  39.271   8.761
   91POPC   C2B 4220  42.600  39.149   8.363
   91POPC   C3B 4221  42.619  39.310   7.966
   91POPC   C4B 4222  42.640  39.062   7.653
   92POPC   NC3 4223  16.854   1.170   9.569
   92POPC   PO4 4224  16.328   1.527   9.297
   92POPC   GL1 4225  16.650   1.257   9.101
   92POPC   GL2 4226  17.000   1.349   9.111
   92POPC   C1A 4227  16.652   1.168   8.673
   92POPC   D2A 4228  16.439   1.463   8.377
   92POPC   C3A 4229  16.532   1.363   7.958
   92POPC   C4A 4230  16.734   0.921   7.885
   92POPC   C1B 4231  17.166   1.318   8.702
   92POPC   C2B 4232  17.034   1.118   8.325
   92POPC   C3B 4233  17.026   1.346   7.976
   92POPC   C4B 4234  17.166   1.616   7.722
   93POPC   NC3 4235  33.777  36.452   9.506
   93POPC   PO4 4236  34.297  35.852   9.581
   93POPC   GL1 4237  34.150  36.011   9.159
   93POPC   GL2 4238  33.868  36.256   9.046
   93POPC   C1A 4239  34.168  36.044   8.694
   93POPC   D2A 4240  33.887  35.907   8.331
   93POPC   C3A 4241  34.090  35.936   7.924
   93POPC   C4A 4242  34.118  36.170   7.547
   93POPC   C1B 4243  33.482  36.106   8.825
   93POPC   C2B 4244  33.330  35.911   8.436
   93POPC   C3B 4245  33.456  36.063   8.035
   93POPC   C4B 4246  33.633  36.054   7.637
   94POPC   NC3 4247  37.502  34.252   9.492
   94POPC   PO4 4248  37.852  34.820   9.355
   94POPC   GL1 4249  37.735  34.522   9.075
   94POPC   GL2 4250  37.418  34.374   9.005
   94POPC   C1A 4251  37.843  34.629   8.667
   94POPC   D2A 4252  37.766  34.856   8.322
   94POPC   C3A 4253  37.815  34.608   8.017
   94POPC   C4A 4254  37.882  34.568   7.640
   94POPC   C1B 4255  37.336  34.648   8.671
   94POPC   C2B 4256  37.350  34.537   8.240
   94POPC   C3B 4257  37.328  34.490   7.795
   94POPC   C4B 4258  37.055  34.743   7.544
   95POPC   NC3 4259  17.139  26.455   9.436
   95POPC   PO4 4260  17.477  27.022   9.738
   95POPC   GL1 4261  17.476  26.984   9.260
   95POPC   GL2 4262  17.138  26.909   9.208
   95POPC   C1A 4263  17.675  27.021   8.813
   95POPC   D2A 4264  17.803  26.870   8.377
   95POPC   C3A 4265  17.548  26.870   7.999
   95POPC   C4A 4266  17.672  26.879   7.583
   95POPC   C1B 4267  17.288  26.661   8.828
   95POPC   C2B 4268  17.350  26.577   8.386
   95POPC   C3B 4269  17.254  26.432   7.957
   95POPC   C4B 4270  17.279  26.547   7.534
   96POPC   NC3 4271   4.698  30.412   9.730
   96POPC   PO4 4272   4.257  30.908   9.437
   96POPC   GL1 4273   4.458  30.677   9.092
   96POPC   GL2 4274   4.418  30.304   9.074
   96POPC   C1A 4275   4.357  30.847   8.692
   96POPC   D2A 4276   4.100  31.124   8.434
   96POPC   C3A 4277   4.276  31.099   8.041
   96POPC   C4A 4278   4.428  30.855   7.731
   96POPC   C1B 4279   4.130  30.398   8.716
   96POPC   C2B 4280   4.253  30.541   8.270
   96POPC   C3B 4281   4.556  30.421   7.923
   96POPC   C4B 4282   4.500  30.444   7.429
   97POPC   NC3 4283  36.386  30.141   9.498
   97POPC   PO4 4284  35.724  30.008   9.545
   97POPC   GL1 4285  35.939  30.027   9.170
   97POPC   GL2 4286  36.234  29.768   9.200
   97POPC   C1A 4287  35.825  30.057   8.728
   97POPC   D2A 4288  35.961  29.710   8.460
   97POPC   C3A 4289  36.104  29.800   8.066
   97POPC   C4A 4290  36.034  30.062   7.762
   97POPC   C1B 4291  36.324  29.933   8.783
   97POPC   C2B 4292  36.339  30.159   8.372
   97POPC   C3B 4293  36.507  30.130   7.926
   97POPC   C4B 4294  36.496  29.715   7.702
   98POPC   NC3 4295  19.683  31.985   9.475
   98POPC   PO4 4296  20.049  32.498   9.467
   98POPC   GL1 4297  20.004  32.225   9.130
   98POPC   GL2 4298  19.628  32.278   9.056
   98POPC   C1A 4299  19.927  32.097   8.699
   98POPC   D2A 4300  19.631  32.335   8.450
   98POPC   C3A 4301  19.842  32.309   8.090
   98POPC   C4A 4302  19.937  32.263   7.669
   98POPC   C1B 4303  19.422  31.983   8.785
   98POPC   C2B 4304  19.219  32.023   8.393
   98POPC   C3B 4305  19.399  32.049   7.997
   98POPC   C4B 4306  19.492  31.989   7.571
   99POPC   NC3 4307  23.439  16.211   9.435
   99POPC   PO4 4308  23.791  16.812   9.491
   99POPC   GL1 4309  23.542  16.623   9.158
   99POPC   GL2 4310  23.818  16.408   9.100
   99POPC   C1A 4311  23.399  16.554   8.721
   99POPC   D2A 4312  23.313  16.897   8.420
   99POPC   C3A 4313  23.504  16.862   8.032
   99POPC   C4A 4314  23.675  16.548   7.833
   99POPC   C1B 4315  23.893  16.687   8.732
   99POPC   C2B 4316  23.959  16.748   8.284
   99POPC   C3B 4317  24.062  16.864   7.872
   99POPC   C4B 4318  23.990  16.697   7.453
  100POPC   NC3 4319  14.787  42.007   9.688
  100POPC   PO4 4320  15.013  42.573   9.579
  100POPC   GL1 4321  14.960  42.391   9.181
  100POPC   GL2 4322  14.979  42.025   9.187
  100POPC   C1A 4323  15.165  42.349   8.767
  100POPC   D2A 4324  15.278  42.521   8.346
  100POPC   C3A 4325  15.021  42.586   7.974
  100POPC   C4A 4326  15.254  42.575   7.598
  100POPC   C1B 4327  15.049  41.855   8.765
  100POPC   C2B 4328  15.204  41.996   8.351
  100POPC   C3B 4329  15.241  42.122   7.912
  100POPC   C4B 4330  14.915  42.186   7.610
  101POPC   NC3 4331   3.303  21.256   9.567
  101POPC   PO4 4332   3.594  21.861   9.586
  101POPC   GL1 4333   3.537  21.535   9.205
  101POPC   GL2 4334   3.185  21.477   9.129
  101POPC   C1A 4335   3.688  21.366   8.782
  101POPC   D2A 4336   3.764  21.487   8.379
  101POPC   C3A 4337   3.793  21.125   8.133
  101POPC   C4A 4338   3.650  21.188   7.732
  101POPC   C1B 4339   3.282  21.101   8.913
  101POPC   C2B 4340   3.334  21.068   8.471
  101POPC   C3B 4341   3.267  21.133   8.045
  101POPC   C4B 4342   3.324  20.790   7.740
  102POPC   NC3 4343  23.627  31.241   9.467
  102POPC   PO4 4344  23.690  31.982   9.320
  102POPC   GL1 4345  23.584  31.614   9.126
  102POPC   GL2 4346  23.899  31.513   9.165
  102POPC   C1A 4347  23.582  31.304   8.793
  102POPC   D2A 4348  23.608  31.429   8.390
  102POPC   C3A 4349  23.353  31.414   8.036
  102POPC   C4A 4350  23.367  31.666   7.661
  102POPC   C1B 4351  23.917  31.721   8.763
  102POPC   C2B 4352  24.056  31.623   8.353
  102POPC   C3B 4353  23.871  31.528   7.925
  102POPC   C4B 4354  23.837  31.682   7.466
  103POPC   NC3 4355  41.862  18.236   9.752
  103POPC   PO4 4356  41.495  18.687   9.467
  103POPC   GL1 4357  41.617  18.371   9.183
  103POPC   GL2 4358  41.915  18.173   9.239
  103POPC   C1A 4359  41.632  18.377   8.771
  103POPC   D2A 4360  41.364  18.414   8.429
  103POPC   C3A 4361  41.432  18.522   8.028
  103POPC   C4A 4362  41.523  18.379   7.622
  103POPC   C1B 4363  42.045  18.087   8.795
  103POPC   C2B 4364  41.776  18.044   8.427
  103POPC   C3B 4365  41.645  18.066   8.037
  103POPC   C4B 4366  41.887  18.052   7.694
  104POPC   NC3 4367  29.777  32.634   9.551
  104POPC   PO4 4368  30.009  32.052   9.552
  104POPC   GL1 4369  29.992  32.319   9.173
  104POPC   GL2 4370  29.742  32.547   9.045
  104POPC   C1A 4371  30.102  32.296   8.727
  104POPC   D2A 4372  30.187  32.474   8.333
  104POPC   C3A 4373  30.002  32.349   7.988
  104POPC   C4A 4374  30.105  32.428   7.566
  104POPC   C1B 4375  29.626  32.161   8.841
  104POPC   C2B 4376  29.651  32.104   8.403
  104POPC   C3B 4377  29.506  32.211   8.019
  104POPC   C4B 4378  29.647  32.195   7.612
  105POPC   NC3 4379   1.442   0.307   9.516
  105POPC   PO4 4380   0.825   0.441   9.729
  105POPC   GL1 4381   1.016   0.349   9.251
  105POPC   GL2 4382   1.318   0.635   9.170
  105POPC   C1A 4383   1.116   0.369   8.781
  105POPC   D2A 4384   0.957   0.327   8.363
  105POPC   C3A 4385   1.186   0.355   7.975
  105POPC   C4A 4386   1.012   0.501   7.591
  105POPC   C1B 4387   1.424   0.797   8.784
  105POPC   C2B 4388   1.428   0.615   8.378
  105POPC   C3B 4389   1.485   0.801   7.949
  105POPC   C4B 4390   1.712   0.683   7.588
  106POPC   NC3 4391   4.440  18.994   9.795
  106POPC   PO4 4392   3.965  18.739   9.499
  106POPC   GL1 4393   4.297  18.838   9.182
  106POPC   GL2 4394   4.487  19.116   9.075
  106POPC   C1A 4395   4.427  18.716   8.761
  106POPC   D2A 4396   4.386  18.946   8.368
  106POPC   C3A 4397   4.418  18.717   7.963
  106POPC   C4A 4398   4.385  18.848   7.531
  106POPC   C1B 4399   4.426  19.349   8.719
  106POPC   C2B 4400   4.504  19.453   8.307
  106POPC   C3B 4401   4.322  19.251   7.947
  106POPC   C4B 4402   4.454  19.376   7.554
  107POPC   NC3 4403  21.569   9.996   9.622
  107POPC   PO4 4404  20.905   9.802   9.559
  107POPC   GL1 4405  21.196   9.840   9.238
  107POPC   GL2 4406  21.428   9.549   9.182
  107POPC   C1A 4407  21.208   9.804   8.798
  107POPC   D2A 4408  21.551   9.773   8.491
  107POPC   C3A 4409  21.409   9.787   8.070
  107POPC   C4A 4410  21.232  10.090   7.782
  107POPC   C1B 4411  21.573   9.366   8.790
  107POPC   C2B 4412  21.757   9.334   8.328
  107POPC   C3B 4413  21.628   9.357   7.855
  107POPC   C4B 4414  21.283   9.565   7.595
  108POPC   NC3 4415   9.287  18.630   9.481
  108POPC   PO4 4416   9.391  17.914   9.507
  108POPC   GL1 4417   9.499  18.117   9.130
  108POPC   GL2 4418   9.674  18.433   9.173
  108POPC   C1A 4419   9.697  18.164   8.732
  108POPC   D2A 4420   9.630  18.320   8.321
  108POPC   C3A 4421   9.848  18.060   8.054
  108POPC   C4A 4422  10.215  17.972   7.812
  108POPC   C1B 4423   9.520  18.641   8.782
  108POPC   C2B 4424   9.606  18.835   8.356
  108POPC   C3B 4425   9.473  18.657   7.949
  108POPC   C4B 4426   9.462  18.243   7.717
  109POPC   NC3 4427  26.823  30.278   9.385
  109POPC   PO4 4428  27.100  29.645   9.455
  109POPC   GL1 4429  27.061  29.917   9.089
  109POPC   GL2 4430  26.739  29.784   9.085
  109POPC   C1A 4431  26.843  30.139   8.736
  109POPC   D2A 4432  26.618  29.964   8.400
  109POPC   C3A 4433  26.802  30.001   8.002
  109POPC   C4A 4434  26.691  30.298   7.704
  109POPC   C1B 4435  26.940  29.583   8.741
  109POPC   C2B 4436  26.917  29.560   8.338
  109POPC   C3B 4437  26.630  29.511   8.033
  109POPC   C4B 4438  26.694  29.566   7.614
  110POPC   NC3 4439  33.353  25.891   9.560
  110POPC   PO4 4440  33.482  26.436   9.158
  110POPC   GL1 4441  33.351  26.071   8.938
  110POPC   GL2 4442  33.470  25.736   9.070
  110POPC   C1A 4443  33.158  25.949   8.546
  110POPC   D2A 4444  32.943  25.756   8.181
  110POPC   C3A 4445  32.831  26.061   7.863
  110POPC   C4A 4446  32.928  26.095   7.420
  110POPC   C1B 4447  33.657  25.749   8.644
  110POPC   C2B 4448  33.452  25.654   8.248
  110POPC   C3B 4449  33.350  25.943   7.877
  110POPC   C4B 4450  33.410  25.815   7.429
  111POPC   NC3 4451  42.862  37.437   9.577
  111POPC   PO4 4452  43.439  37.774   9.348
  111POPC   GL1 4453  43.071  37.596   9.127
  111POPC   GL2 4454  42.816  37.850   9.157
  111POPC   C1A 4455  42.968  37.505   8.695
  111POPC   D2A 4456  43.116  37.689   8.308
  111POPC   C3A 4457  43.262  37.502   7.933
  111POPC   C4A 4458  43.550  37.779   7.707
  111POPC   C1B 4459  42.590  37.872   8.778
  111POPC   C2B 4460  42.609  37.820   8.346
  111POPC   C3B 4461  42.728  37.603   7.972
  111POPC   C4B 4462  42.960  37.770   7.636
  112POPC   NC3 4463  19.192  23.975   9.644
  112POPC   PO4 4464  18.748  24.495   9.526
  112POPC   GL1 4465  19.022  24.382   9.093
  112POPC   GL2 4466  18.784  24.289   8.847
  112POPC   C1A 4467  19.266  24.477   8.733
  112POPC   D2A 4468  19.107  24.513   8.331
  112POPC   C3A 4469  19.233  24.630   7.901
  112POPC   C4A 4470  19.341  24.293   7.600
  112POPC   C1B 4471  18.772  24.734   8.804
  112POPC   C2B 4472  18.743  24.875   8.398
  112POPC   C3B 4473  18.709  24.606   8.031
  112POPC   C4B 4474  18.817  24.465   7.613
  113POPC   NC3 4475   3.192  38.486   9.390
  113POPC   PO4 4476   2.629  38.799   9.449
  113POPC   GL1 4477   2.796  38.752   9.083
  113POPC   GL2 4478   2.762  38.397   9.028
  113POPC   C1A 4479   2.974  38.706   8.699
  113POPC   D2A 4480   2.849  38.420   8.385
  113POPC   C3A 4481   2.908  38.636   7.996
  113POPC   C4A 4482   2.794  38.663   7.557
  113POPC   C1B 4483   3.163  38.231   8.795
  113POPC   C2B 4484   3.234  38.072   8.373
  113POPC   C3B 4485   3.009  38.131   7.960
  113POPC   C4B 4486   2.960  38.056   7.503
  114POPC   NC3 4487  39.480  21.841   9.451
  114POPC   PO4 4488  39.277  22.417   9.706
  114POPC   GL1 4489  39.183  22.286   9.210
  114POPC   GL2 4490  38.864  22.312   9.016
  114POPC   C1A 4491  39.248  22.114   8.757
  114POPC   D2A 4492  39.428  21.852   8.417
  114POPC   C3A 4493  39.297  22.036   8.030
  114POPC   C4A 4494  39.394  22.362   7.761
  114POPC   C1B 4495  38.647  22.405   8.631
  114POPC   C2B 4496  38.784  22.510   8.273
  114POPC   C3B 4497  38.891  22.369   7.897
  114POPC   C4B 4498  38.999  22.619   7.583
  115POPC   NC3 4499  44.166  21.831   9.497
  115POPC   PO4 4500  43.730  21.394   9.696
  115POPC   GL1 4501  43.937  21.405   9.237
  115POPC   GL2 4502  44.097  21.661   9.024
  115POPC   C1A 4503  43.911  21.248   8.824
  115POPC   D2A 4504  43.871  21.563   8.524
  115POPC   C3A 4505  43.745  21.481   8.135
  115POPC   C4A 4506  43.894  21.507   7.752
  115POPC   C1B 4507  44.357  21.647   8.655
  115POPC   C2B 4508  44.285  21.562   8.203
  115POPC   C3B 4509  44.407  21.565   7.767
  115POPC   C4B 4510  44.564  21.656   7.351
  116POPC   NC3 4511   5.331   8.311   9.547
  116POPC   PO4 4512   5.999   8.379   9.685
  116POPC   GL1 4513   5.938   8.219   9.238
  116POPC   GL2 4514   5.584   8.154   9.128
  116POPC   C1A 4515   6.033   8.204   8.756
  116POPC   D2A 4516   6.057   8.379   8.307
  116POPC   C3A 4517   6.179   8.233   7.877
  116POPC   C4A 4518   5.904   8.423   7.577
  116POPC   C1B 4519   5.427   8.205   8.673
  116POPC   C2B 4520   5.519   8.217   8.206
  116POPC   C3B 4521   5.725   8.006   7.841
  116POPC   C4B 4522   5.900   7.693   7.531
  117POPC   NC3 4523   5.256  36.461   9.347
  117POPC   PO4 4524   5.048  37.084   9.368
  117POPC   GL1 4525   5.076  37.219   9.014
  117POPC   GL2 4526   4.759  37.387   8.980
  117POPC   C1A 4527   5.040  37.033   8.619
  117POPC   D2A 4528   4.856  36.757   8.317
  117POPC   C3A 4529   5.009  36.658   7.904
  117POPC   C4A 4530   4.868  36.730   7.470
  117POPC   C1B 4531   5.036  37.557   8.655
  117POPC   C2B 4532   5.294  37.369   8.339
  117POPC   C3B 4533   5.070  37.153   8.005
  117POPC   C4B 4534   4.985  37.230   7.567
  118POPC   NC3 4535   3.821   7.364   9.534
  118POPC   PO4 4536   4.436   7.462   9.611
  118POPC   GL1 4537   4.214   7.481   9.228
  118POPC   GL2 4538   3.938   7.739   9.216
  118POPC   C1A 4539   4.337   7.290   8.836
  118POPC   D2A 4540   4.201   7.246   8.433
  118POPC   C3A 4541   4.360   7.119   8.021
  118POPC   C4A 4542   4.615   7.206   7.662
  118POPC   C1B 4543   4.201   7.789   8.833
  118POPC   C2B 4544   4.356   7.795   8.424
  118POPC   C3B 4545   4.265   7.614   8.040
  118POPC   C4B 4546   4.277   7.645   7.618
  119POPC   NC3 4547  44.921  35.595   9.804
  119POPC   PO4 4548  44.466  35.344   9.386
  119POPC   GL1 4549  44.535  35.240   9.047
  119POPC   GL2 4550  44.859  35.072   9.044
  119POPC   C1A 4551  44.612  35.407   8.664
  119POPC   D2A 4552  44.879  35.347   8.341
  119POPC   C3A 4553  44.759  35.648   8.039
  119POPC   C4A 4554  44.959  35.401   7.776
  119POPC   C1B 4555  44.580  34.852   8.752
  119POPC   C2B 4556  44.395  35.014   8.395
  119POPC   C3B 4557  44.530  35.154   8.000
  119POPC   C4B 4558  44.361  35.451   7.786
  120POPC   NC3 4559   0.739  42.297   9.495
  120POPC   PO4 4560   1.437  42.374   9.447
  120POPC   GL1 4561   1.181  42.361   9.061
  120POPC   GL2 4562   0.939  42.141   9.069
  120POPC   C1A 4563   1.112  42.369   8.615
  120POPC   D2A 4564   1.344  42.229   8.235
  120POPC   C3A 4565   1.283  42.498   7.892
  120POPC   C4A 4566   0.887  42.607   7.766
  120POPC   C1B 4567   0.734  41.991   8.720
  120POPC   C2B 4568   0.924  41.951   8.348
  120POPC   C3B 4569   0.930  42.093   7.946
  120POPC   C4B 4570   1.166  42.086   7.623
  121POPC   NC3 4571  37.959  25.133   9.462
  121POPC   PO4 4572  37.525  25.635   9.527
  121POPC   GL1 4573  37.659  25.456   9.173
  121POPC   GL2 4574  38.004  25.485   9.066
  121POPC   C1A 4575  37.539  25.593   8.784
  121POPC   D2A 4576  37.687  25.531   8.393
  121POPC   C3A 4577  37.501  25.564   8.009
  121POPC   C4A 4578  37.604  25.288   7.644
  121POPC   C1B 4579  37.834  25.155   8.772
  121POPC   C2B 4580  37.784  25.032   8.329
  121POPC   C3B 4581  37.955  25.283   8.015
  121POPC   C4B 4582  38.145  25.337   7.644
  122POPC   NC3 4583  21.496  11.778   9.482
  122POPC   PO4 4584  21.734  11.138   9.513
  122POPC   GL1 4585  21.658  11.052   9.079
  122POPC   GL2 4586  21.329  11.192   9.010
  122POPC   C1A 4587  21.633  11.192   8.622
  122POPC   D2A 4588  21.419  11.516   8.366
  122POPC   C3A 4589  21.505  11.504   7.905
  122POPC   C4A 4590  21.372  11.438   7.445
  122POPC   C1B 4591  21.107  11.169   8.644
  122POPC   C2B 4592  21.272  11.043   8.243
  122POPC   C3B 4593  21.307  11.023   7.789
  122POPC   C4B 4594  21.426  10.877   7.360
  123POPC   NC3 4595  35.105  14.144   9.400
  123POPC   PO4 4596  35.555  14.605   9.346
  123POPC   GL1 4597  35.440  14.294   9.025
  123POPC   GL2 4598  35.093  14.091   8.919
  123POPC   C1A 4599  35.472  14.222   8.600
  123POPC   D2A 4600  35.597  14.456   8.290
  123POPC   C3A 4601  35.333  14.447   7.985
  123POPC   C4A 4602  35.378  14.195   7.647
  123POPC   C1B 4603  35.063  14.496   8.734
  123POPC   C2B 4604  34.932  14.349   8.346
  123POPC   C3B 4605  34.907  14.131   7.963
  123POPC   C4B 4606  34.935  14.448   7.657
  124POPC   NC3 4607  27.268  36.844   9.533
  124POPC   PO4 4608  26.610  36.962   9.403
  124POPC   GL1 4609  26.744  36.709   9.084
  124POPC   GL2 4610  27.102  36.619   9.114
  124POPC   C1A 4611  26.590  36.708   8.675
  124POPC   D2A 4612  26.747  36.915   8.338
  124POPC   C3A 4613  26.564  36.914   7.944
  124POPC   C4A 4614  26.789  36.968   7.585
  124POPC   C1B 4615  27.122  36.821   8.736
  124POPC   C2B 4616  27.210  36.662   8.345
  124POPC   C3B 4617  27.113  36.843   7.971
  124POPC   C4B 4618  27.187  36.636   7.618
  125POPC   NC3 4619  37.301  19.211   9.478
  125POPC   PO4 4620  37.792  18.800   9.420
  125POPC   GL1 4621  37.544  19.000   9.080
  125POPC   GL2 4622  37.481  19.375   9.034
  125POPC   C1A 4623  37.615  18.801   8.708
  125POPC   D2A 4624  37.761  18.633   8.358
  125POPC   C3A 4625  38.008  18.912   8.130
  125POPC   C4A 4626  37.783  19.056   7.785
  125POPC   C1B 4627  37.750  19.313   8.691
  125POPC   C2B 4628  37.580  19.146   8.310
  125POPC   C3B 4629  37.466  19.409   7.974
  125POPC   C4B 4630  37.880  19.563   7.804
  126POPC   NC3 4631  16.803  36.059   9.498
  126POPC   PO4 4632  16.482  36.724   9.482
  126POPC   GL1 4633  16.471  36.356   9.149
  126POPC   GL2 4634  16.789  36.235   9.047
  126POPC   C1A 4635  16.492  36.345   8.661
  126POPC   D2A 4636  16.656  36.138   8.299
  126POPC   C3A 4637  16.632  36.345   7.892
  126POPC   C4A 4638  16.609  36.053   7.587
  126POPC   C1B 4639  17.004  36.045   8.720
  126POPC   C2B 4640  17.179  36.168   8.320
  126POPC   C3B 4641  17.061  36.003   7.883
  126POPC   C4B 4642  17.073  36.152   7.437
  127POPC   NC3 4643  28.622  11.547   9.521
  127POPC   PO4 4644  27.950  11.672   9.619
  127POPC   GL1 4645  28.175  11.443   9.223
  127POPC   GL2 4646  28.417  11.145   9.205
  127POPC   C1A 4647  28.235  11.308   8.765
  127POPC   D2A 4648  28.170  11.150   8.344
  127POPC   C3A 4649  28.058  11.265   7.902
  127POPC   C4A 4650  27.900  11.079   7.494
  127POPC   C1B 4651  28.716  11.190   8.840
  127POPC   C2B 4652  28.636  11.400   8.447
  127POPC   C3B 4653  28.562  11.406   8.015
  127POPC   C4B 4654  28.790  11.096   7.793
  128POPC   NC3 4655  29.383  37.172   9.600
  128POPC   PO4 4656  28.932  36.634   9.489
  128POPC   GL1 4657  29.152  36.882   9.240
  128POPC   GL2 4658  29.515  36.760   9.294
  128POPC   C1A 4659  28.954  36.910   8.843
  128POPC   D2A 4660  28.771  36.928   8.456
  128POPC   C3A 4661  28.936  36.704   8.130
  128POPC   C4A 4662  28.982  36.976   7.826
  128POPC   C1B 4663  29.514  36.960   8.901
  128POPC   C2B 4664  29.377  36.856   8.499
  128POPC   C3B 4665  29.422  36.994   8.105
  128POPC   C4B 4666  29.440  36.848   7.697
  129POPC   NC3 4667  33.348  20.217   9.447
  129POPC   PO4 4668  33.054  20.819   9.500
  129POPC   GL1 4669  33.028  20.576   9.126
  129POPC   GL2 4670  33.203  20.290   8.979
  129POPC   C1A 4671  33.110  20.691   8.711
  129POPC   D2A 4672  32.915  20.620   8.342
  129POPC   C3A 4673  33.179  20.718   8.033
  129POPC   C4A 4674  33.034  20.773   7.637
  129POPC   C1B 4675  32.873  20.225   8.680
  129POPC   C2B 4676  32.890  20.085   8.232
  129POPC   C3B 4677  32.919  20.317   7.835
  129POPC   C4B 4678  32.876  20.361   7.384
  130POPC   NC3 4679  34.979  27.382   9.580
  130POPC   PO4 4680  35.568  27.665   9.388
  130POPC   GL1 4681  35.244  27.515   9.162
  130POPC   GL2 4682  35.057  27.775   9.166
  130POPC   C1A 4683  35.318  27.357   8.790
  130POPC   D2A 4684  35.584  27.494   8.469
  130POPC   C3A 4685  35.515  27.515   8.020
  130POPC   C4A 4686  35.536  27.782   7.633
  130POPC   C1B 4687  35.248  27.882   8.747
  130POPC   C2B 4688  35.224  27.838   8.288
  130POPC   C3B 4689  35.179  28.052   7.879
  130POPC   C4B 4690  35.072  27.997   7.426
  131POPC   NC3 4691  43.675  20.164   9.657
  131POPC   PO4 4692  43.827  19.607   9.320
  131POPC   GL1 4693  43.822  20.011   9.174
  131POPC   GL2 4694  44.113  20.020   8.980
  131POPC   C1A 4695  43.664  20.120   8.777
  131POPC   D2A 4696  43.880  20.057   8.393
  131POPC   C3A 4697  43.698  19.988   8.017
  131POPC   C4A 4698  44.000  20.101   7.730
  131POPC   C1B 4699  43.983  19.658   8.692
  131POPC   C2B 4700  44.126  19.524   8.306
  131POPC   C3B 4701  44.030  19.587   7.901
  131POPC   C4B 4702  44.149  19.367   7.577
  132POPC   NC3 4703  40.578  12.488   9.484
  132POPC   PO4 4704  40.961  11.853   9.408
  132POPC   GL1 4705  40.681  11.962   9.126
  132POPC   GL2 4706  40.813  12.284   9.093
  132POPC   C1A 4707  40.766  11.855   8.714
  132POPC   D2A 4708  40.607  11.712   8.327
  132POPC   C3A 4709  40.795  11.875   7.973
  132POPC   C4A 4710  41.033  12.028   7.644
  132POPC   C1B 4711  40.615  12.355   8.713
  132POPC   C2B 4712  40.826  12.222   8.353
  132POPC   C3B 4713  40.966  12.420   8.007
  132POPC   C4B 4714  40.810  12.473   7.609
  133POPC   NC3 4715  20.697  17.040   9.800
  133POPC   PO4 4716  20.490  16.460   9.595
  133POPC   GL1 4717  20.445  16.628   9.055
  133POPC   GL2 4718  20.774  16.695   8.871
  133POPC   C1A 4719  20.389  16.932   8.669
  133POPC   D2A 4720  20.213  16.724   8.270
  133POPC   C3A 4721  20.350  16.766   7.811
  133POPC   C4A 4722  20.425  16.500   7.400
  133POPC   C1B 4723  20.615  16.486   8.542
  133POPC   C2B 4724  20.769  16.632   8.182
  133POPC   C3B 4725  21.120  16.790   8.018
  133POPC   C4B 4726  20.993  17.129   7.822
  134POPC   NC3 4727  34.909  37.916   9.414
  134POPC   PO4 4728  34.287  37.543   9.407
  134POPC   GL1 4729  34.608  37.640   9.109
  134POPC   GL2 4730  34.459  37.941   9.104
  134POPC   C1A 4731  34.805  37.840   8.731
  134POPC   D2A 4732  34.546  37.892   8.374
  134POPC   C3A 4733  34.719  37.736   8.017
  134POPC   C4A 4734  34.545  37.604   7.649
  134POPC   C1B 4735  34.174  38.009   8.759
  134POPC   C2B 4736  34.049  38.036   8.329
  134POPC   C3B 4737  34.189  37.809   7.953
  134POPC   C4B 4738  34.028  37.749   7.503
  135POPC   NC3 4739   4.930  17.061   9.742
  135POPC   PO4 4740   5.438  17.527   9.618
  135POPC   GL1 4741   5.353  17.611   9.151
  135POPC   GL2 4742   5.568  17.859   8.957
  135POPC   C1A 4743   5.183  17.533   8.753
  135POPC   D2A 4744   5.123  17.713   8.368
  135POPC   C3A 4745   4.949  17.467   8.087
  135POPC   C4A 4746   4.813  17.681   7.743
  135POPC   C1B 4747   5.614  17.762   8.559
  135POPC   C2B 4748   5.519  17.938   8.176
  135POPC   C3B 4749   5.322  17.744   7.868
  135POPC   C4B 4750   5.472  17.378   7.637
  136POPC   NC3 4751   6.899  38.884   9.898
  136POPC   PO4 4752   6.734  39.383   9.515
  136POPC   GL1 4753   6.769  39.181   9.175
  136POPC   GL2 4754   6.841  38.893   9.339
  136POPC   C1A 4755   6.683  39.186   8.750
  136POPC   D2A 4756   6.325  39.158   8.490
  136POPC   C3A 4757   6.457  39.426   8.188
  136POPC   C4A 4758   6.398  39.386   7.766
  136POPC   C1B 4759   6.945  38.762   8.933
  136POPC   C2B 4760   6.971  38.799   8.476
  136POPC   C3B 4761   6.865  39.107   8.164
  136POPC   C4B 4762   6.826  39.072   7.726
  137POPC   NC3 4763   2.394  38.357   9.481
  137POPC   PO4 4764   1.808  38.658   9.671
  137POPC   GL1 4765   1.880  38.555   9.239
  137POPC   GL2 4766   2.239  38.655   9.108
  137POPC   C1A 4767   1.852  38.337   8.858
  137POPC   D2A 4768   1.968  38.195   8.457
  137POPC   C3A 4769   1.765  38.377   8.107
  137POPC   C4A 4770   1.804  38.458   7.677
  137POPC   C1B 4771   2.377  38.496   8.687
  137POPC   C2B 4772   2.346  38.460   8.230
  137POPC   C3B 4773   2.471  38.338   7.823
  137POPC   C4B 4774   2.281  38.604   7.533
  138POPC   NC3 4775  23.786  31.702   9.666
  138POPC   PO4 4776  23.815  32.416   9.716
  138POPC   GL1 4777  23.801  32.466   9.241
  138POPC   GL2 4778  24.125  32.544   9.197
  138POPC   C1A 4779  23.742  32.353   8.791
  138POPC   D2A 4780  23.714  32.061   8.443
  138POPC   C3A 4781  23.534  32.239   8.071
  138POPC   C4A 4782  23.630  32.135   7.655
  138POPC   C1B 4783  24.176  32.598   8.778
  138POPC   C2B 4784  24.013  32.597   8.363
  138POPC   C3B 4785  24.199  32.511   7.944
  138POPC   C4B 4786  23.937  32.536   7.557
  139POPC   NC3 4787  26.144  17.659   9.484
  139POPC   PO4 4788  25.478  17.603   9.652
  139POPC   GL1 4789  25.734  17.565   9.213
  139POPC   GL2 4790  25.819  17.851   8.959
  139POPC   C1A 4791  25.949  17.371   8.827
  139POPC   D2A 4792  25.973  17.542   8.393
  139POPC   C3A 4793  26.169  17.276   8.085
  139POPC   C4A 4794  26.060  17.213   7.640
  139POPC   C1B 4795  26.276  17.781   8.823
  139POPC   C2B 4796  26.469  17.681   8.416
  139POPC   C3B 4797  26.313  17.791   8.038
  139POPC   C4B 4798  25.978  17.699   7.799
  140POPC   NC3 4799  21.752  24.426   9.805
  140POPC   PO4 4800  21.143  24.297   9.546
  140POPC   GL1 4801  21.377  24.348   9.145
  140POPC   GL2 4802  21.224  24.655   9.053
  140POPC   C1A 4803  21.549  24.186   8.730
  140POPC   D2A 4804  21.572  24.371   8.325
  140POPC   C3A 4805  21.392  24.316   7.950
  140POPC   C4A 4806  21.589  24.024   7.649
  140POPC   C1B 4807  21.425  24.727   8.646
  140POPC   C2B 4808  21.386  24.822   8.193
  140POPC   C3B 4809  21.211  24.794   7.761
  140POPC   C4B 4810  21.128  24.877   7.328
  141POPC   NC3 4811   4.944  22.784   9.678
  141POPC   PO4 4812   5.260  23.205   9.286
  141POPC   GL1 4813   5.064  22.881   9.036
  141POPC   GL2 4814   4.739  22.804   9.215
  141POPC   C1A 4815   5.282  22.901   8.629
  141POPC   D2A 4816   5.360  23.232   8.299
  141POPC   C3A 4817   5.307  23.153   7.862
  141POPC   C4A 4818   5.366  22.821   7.577
  141POPC   C1B 4819   4.620  22.586   8.850
  141POPC   C2B 4820   4.884  22.572   8.517
  141POPC   C3B 4821   5.061  22.793   8.184
  141POPC   C4B 4822   4.891  22.875   7.820
  142POPC   NC3 4823  43.587  16.459   9.516
  142POPC   PO4 4824  43.945  15.897   9.718
  142POPC   GL1 4825  43.909  16.081   9.284
  142POPC   GL2 4826  43.604  16.088   9.175
  142POPC   C1A 4827  44.088  16.191   8.870
  142POPC   D2A 4828  44.245  16.042   8.471
  142POPC   C3A 4829  44.206  16.108   8.027
  142POPC   C4A 4830  44.075  15.732   7.782
  142POPC   C1B 4831  43.576  16.105   8.741
  142POPC   C2B 4832  43.506  15.953   8.321
  142POPC   C3B 4833  43.700  16.126   7.968
  142POPC   C4B 4834  43.928  16.187   7.581
  143POPC   NC3 4835   3.002  32.312   9.406
  143POPC   PO4 4836   2.300  32.344   9.419
  143POPC   GL1 4837   2.464  32.034   9.127
  143POPC   GL2 4838   2.747  32.230   8.981
  143POPC   C1A 4839   2.523  31.922   8.661
  143POPC   D2A 4840   2.575  32.268   8.361
  143POPC   C3A 4841   2.697  32.269   7.923
  143POPC   C4A 4842   2.716  32.647   7.664
  143POPC   C1B 4843   3.050  32.129   8.670
  143POPC   C2B 4844   3.066  32.172   8.256
  143POPC   C3B 4845   3.164  32.029   7.873
  143POPC   C4B 4846   2.989  32.124   7.490
  144POPC   NC3 4847  14.343   5.962   9.545
  144POPC   PO4 4848  14.778   5.480   9.303
  144POPC   GL1 4849  14.500   5.728   9.067
  144POPC   GL2 4850  14.166   5.905   9.069
  144POPC   C1A 4851  14.665   5.910   8.707
  144POPC   D2A 4852  14.573   6.023   8.310
  144POPC   C3A 4853  14.719   5.791   7.975
  144POPC   C4A 4854  14.617   5.902   7.546
  144POPC   C1B 4855  14.169   5.759   8.648
  144POPC   C2B 4856  14.042   6.038   8.299
  144POPC   C3B 4857  14.243   6.031   7.910
  144POPC   C4B 4858  14.262   5.612   7.752
  145POPC   NC3 4859   0.257  22.771   9.393
  145POPC   PO4 4860   0.710  23.262   9.562
  145POPC   GL1 4861   0.526  23.142   9.177
  145POPC   GL2 4862   0.150  23.212   9.175
  145POPC   C1A 4863   0.488  22.888   8.800
  145POPC   D2A 4864   0.645  22.656   8.470
  145POPC   C3A 4865   0.595  22.869   8.084
  145POPC   C4A 4866   0.630  22.835   7.649
  145POPC   C1B 4867   0.295  23.371   8.790
  145POPC   C2B 4868   0.534  23.260   8.428
  145POPC   C3B 4869   0.296  23.313   8.048
  145POPC   C4B 4870   0.168  23.011   7.748
  146POPC   NC3 4871  13.316  13.533   9.525
  146POPC   PO4 4872  13.911  13.396   9.243
  146POPC   GL1 4873  13.657  13.734   9.176
  146POPC   GL2 4874  13.462  13.478   9.012
  146POPC   C1A 4875  13.652  13.964   8.814
  146POPC   D2A 4876  13.774  13.825   8.406
  146POPC   C3A 4877  13.594  13.875   7.987
  146POPC   C4A 4878  13.483  13.859   7.521
  146POPC   C1B 4879  13.666  13.376   8.633
  146POPC   C2B 4880  13.525  13.207   8.252
  146POPC   C3B 4881  13.711  13.365   7.899
  146POPC   C4B 4882  14.141  13.353   7.840
  147POPC   NC3 4883  32.763  18.629   9.455
  147POPC   PO4 4884  33.337  19.018   9.476
  147POPC   GL1 4885  33.268  19.072   9.075
  147POPC   GL2 4886  33.493  19.335   9.045
  147POPC   C1A 4887  32.895  19.018   8.797
  147POPC   D2A 4888  32.729  18.814   8.417
  147POPC   C3A 4889  33.067  18.681   8.189
  147POPC   C4A 4890  33.173  18.647   7.767
  147POPC   C1B 4891  33.218  19.409   8.687
  147POPC   C2B 4892  33.066  19.190   8.317
  147POPC   C3B 4893  32.916  19.088   7.893
  147POPC   C4B 4894  32.850  19.395   7.524
  148POPC   NC3 4895  40.406   7.519   9.536
  148POPC   PO4 4896  41.082   7.464   9.666
  148POPC   GL1 4897  41.000   7.349   9.195
  148POPC   GL2 4898  40.669   7.298   9.145
  148POPC   C1A 4899  40.917   7.591   8.788
  148POPC   D2A 4900  40.791   7.753   8.421
  148POPC   C3A 4901  40.902   7.513   8.063
  148POPC   C4A 4902  40.911   7.529   7.620
  148POPC   C1B 4903  40.653   7.163   8.693
  148POPC   C2B 4904  40.692   7.027   8.232
  148POPC   C3B 4905  40.634   7.157   7.767
  148POPC   C4B 4906  40.743   7.153   7.307
  149POPC   NC3 4907   7.735  30.098   9.542
  149POPC   PO4 4908   6.990  29.894   9.447
  149POPC   GL1 4909   7.310  30.087   9.203
  149POPC   GL2 4910   7.481  29.784   9.104
  149POPC   C1A 4911   7.462  30.215   8.798
  149POPC   D2A 4912   7.479  29.934   8.480
  149POPC   C3A 4913   7.283  30.067   8.102
  149POPC   C4A 4914   7.355  29.925   7.701
  149POPC   C1B 4915   7.127  29.682   8.804
  149POPC   C2B 4916   6.933  29.790   8.389
  149POPC   C3B 4917   6.995  29.674   7.939
  149POPC   C4B 4918   7.072  29.551   7.460
  150POPC   NC3 4919   1.018  37.479   9.538
  150POPC   PO4 4920   1.311  38.010   9.621
  150POPC   GL1 4921   1.155  37.897   9.233
  150POPC   GL2 4922   1.364  37.625   9.193
  150POPC   C1A 4923   1.069  38.005   8.803
  150POPC   D2A 4924   1.122  37.806   8.433
  150POPC   C3A 4925   1.001  37.922   8.044
  150POPC   C4A 4926   1.107  37.706   7.709
  150POPC   C1B 4927   1.178  37.489   8.849
  150POPC   C2B 4928   1.370  37.368   8.500
  150POPC   C3B 4929   1.364  37.439   8.084
  150POPC   C4B 4930   1.607  37.618   7.766
  151POPC   NC3 4931  41.964   8.046   9.499
  151POPC   PO4 4932  42.511   8.559   9.537
  151POPC   GL1 4933  42.249   8.407   9.207
  151POPC   GL2 4934  42.332   8.075   9.151
  151POPC   C1A 4935  42.252   8.354   8.748
  151POPC   D2A 4936  42.456   8.326   8.359
  151POPC   C3A 4937  42.282   8.468   7.983
  151POPC   C4A 4938  42.537   8.312   7.690
  151POPC   C1B 4939  42.147   7.852   8.797
  151POPC   C2B 4940  42.024   7.881   8.381
  151POPC   C3B 4941  42.249   7.939   8.003
  151POPC   C4B 4942  42.155   7.984   7.562
  152POPC   NC3 4943  41.695  21.846   9.463
  152POPC   PO4 4944  41.402  22.444   9.557
  152POPC   GL1 4945  41.552  22.267   9.174
  152POPC   GL2 4946  41.340  21.987   9.118
  152POPC   C1A 4947  41.594  22.365   8.730
  152POPC   D2A 4948  41.833  22.482   8.349
  152POPC   C3A 4949  41.616  22.411   7.960
  152POPC   C4A 4950  41.210  22.512   7.848
  152POPC   C1B 4951  41.188  22.012   8.701
  152POPC   C2B 4952  41.318  22.165   8.310
  152POPC   C3B 4953  41.429  21.920   7.949
  152POPC   C4B 4954  41.801  21.821   7.733
  153POPC   NC3 4955  28.128  22.704   9.499
  153POPC   PO4 4956  28.401  23.331   9.546
  153POPC   GL1 4957  28.291  23.106   9.151
  153POPC   GL2 4958  28.154  22.763   9.007
  153POPC   C1A 4959  28.482  23.031   8.735
  153POPC   D2A 4960  28.293  22.723   8.450
  153POPC   C3A 4961  28.213  23.001   8.121
  153POPC   C4A 4962  28.462  23.067   7.760
  153POPC   C1B 4963  27.829  22.635   8.716
  153POPC   C2B 4964  27.787  22.650   8.261
  153POPC   C3B 4965  28.042  22.585   7.896
  153POPC   C4B 4966  28.476  22.566   7.883
  154POPC   NC3 4967   6.011  44.568   9.631
  154POPC   PO4 4968   5.599   0.115   9.616
  154POPC   GL1 4969   5.877   0.008   9.237
  154POPC   GL2 4970   5.808  44.661   9.166
  154POPC   C1A 4971   5.947  44.959   8.758
  154POPC   D2A 4972   5.755  44.744   8.372
  154POPC   C3A 4973   5.905  44.910   8.013
  154POPC   C4A 4974   5.979  44.748   7.622
  154POPC   C1B 4975   5.700  44.484   8.797
  154POPC   C2B 4976   5.925  44.247   8.473
  154POPC   C3B 4977   5.975  44.372   8.041
  154POPC   C4B 4978   5.830  44.252   7.621
  155POPC   NC3 4979  13.906  35.056   9.371
  155POPC   PO4 4980  13.595  34.531   9.650
  155POPC   GL1 4981  13.605  34.552   9.187
  155POPC   GL2 4982  13.916  34.665   9.016
  155POPC   C1A 4983  13.441  34.564   8.777
  155POPC   D2A 4984  13.658  34.727   8.389
  155POPC   C3A 4985  13.607  34.671   7.935
  155POPC   C4A 4986  13.356  34.760   7.521
  155POPC   C1B 4987  13.897  34.335   8.671
  155POPC   C2B 4988  13.909  34.315   8.211
  155POPC   C3B 4989  13.851  34.192   7.822
  155POPC   C4B 4990  13.795  34.474   7.462
  156POPC   NC3 4991  44.895   3.259   9.473
  156POPC   PO4 4992  44.594   2.688   9.445
  156POPC   GL1 4993  44.639   2.514   9.080
  156POPC   GL2 4994  44.941   2.406   9.091
  156POPC   C1A 4995  44.572   2.754   8.715
  156POPC   D2A 4996  44.908   2.911   8.503
  156POPC   C3A 4997  44.932   2.796   8.125
  156POPC   C4A 4998  44.830   2.769   7.731
  156POPC   C1B 4999  44.903   2.364   8.623
  156POPC   C2B 5000  44.912   2.287   8.162
  156POPC   C3B 5001  44.758   2.255   7.733
  156POPC   C4B 5002  44.930   2.390   7.313
  157POPC   NC3 5003  23.387  20.928   9.162
  157POPC   PO4 5004  23.660  21.481   9.470
  157POPC   GL1 5005  23.758  21.309   9.088
  157POPC   GL2 5006  23.430  21.402   8.982
  157POPC   C1A 5007  24.022  21.276   8.718
  157POPC   D2A 5008  23.929  21.407   8.290
  157POPC   C3A 5009  24.188  21.191   7.973
  157POPC   C4A 5010  24.124  21.331   7.538
  157POPC   C1B 5011  23.498  21.205   8.566
  157POPC   C2B 5012  23.643  21.002   8.198
  157POPC   C3B 5013  23.697  21.236   7.809
  157POPC   C4B 5014  23.429  21.534   7.914
  158POPC   NC3 5015  39.315  26.520   9.478
  158POPC   PO4 5016  38.944  27.122   9.539
  158POPC   GL1 5017  39.176  26.888   9.159
  158POPC   GL2 5018  39.474  26.626   9.029
  158POPC   C1A 5019  39.350  27.048   8.780
  158POPC   D2A 5020  39.172  27.278   8.480
  158POPC   C3A 5021  39.159  27.139   8.069
  158POPC   C4A 5022  39.420  27.213   7.730
  158POPC   C1B 5023  39.290  26.514   8.658
  158POPC   C2B 5024  39.300  26.689   8.268
  158POPC   C3B 5025  39.565  26.668   7.911
  158POPC   C4B 5026  39.350  26.718   7.605
  159POPC   NC3 5027   9.456  41.814   9.435
  159POPC   PO4 5028   9.944  41.394   9.212
  159POPC   GL1 5029   9.665  41.646   8.999
  159POPC   GL2 5030   9.826  41.975   9.109
  159POPC   C1A 5031   9.671  41.532   8.579
  159POPC   D2A 5032   9.852  41.263   8.216
  159POPC   C3A 5033   9.688  41.511   7.875
  159POPC   C4A 5034   9.678  41.581   7.417
  159POPC   C1B 5035  10.065  41.875   8.742
  159POPC   C2B 5036  10.095  41.697   8.344
  159POPC   C3B 5037  10.065  41.914   7.978
  159POPC   C4B 5038   9.860  42.028   7.620
  160POPC   NC3 5039  25.000  32.503   9.485
  160POPC   PO4 5040  25.295  31.970   9.558
  160POPC   GL1 5041  25.180  32.154   9.156
  160POPC   GL2 5042  25.442  32.392   9.133
  160POPC   C1A 5043  25.132  32.369   8.738
  160POPC   D2A 5044  25.345  32.390   8.365
  160POPC   C3A 5045  25.124  32.332   7.973
  160POPC   C4A 5046  25.044  32.042   7.651
  160POPC   C1B 5047  25.587  32.090   8.839
  160POPC   C2B 5048  25.769  32.119   8.436
  160POPC   C3B 5049  25.568  32.054   8.035
  160POPC   C4B 5050  25.565  32.125   7.612
  161POPC   NC3 5051  10.976  36.607   9.424
  161POPC   PO4 5052  11.257  37.202   9.459
  161POPC   GL1 5053  11.266  36.945   9.145
  161POPC   GL2 5054  11.478  36.654   9.229
  161POPC   C1A 5055  11.088  36.926   8.744
  161POPC   D2A 5056  10.984  37.127   8.366
  161POPC   C3A 5057  11.223  37.166   7.997
  161POPC   C4A 5058  11.195  37.235   7.539
  161POPC   C1B 5059  11.566  36.764   8.779
  161POPC   C2B 5060  11.382  36.761   8.329
  161POPC   C3B 5061  11.396  36.722   7.843
  161POPC   C4B 5062  11.527  36.591   7.427
  162POPC   NC3 5063  37.134  11.505   9.475
  162POPC   PO4 5064  36.601  11.047   9.530
  162POPC   GL1 5065  36.845  11.113   9.180
  162POPC   GL2 5066  37.029  11.387   8.998
  162POPC   C1A 5067  36.697  11.066   8.772
  162POPC   D2A 5068  36.889  11.170   8.430
  162POPC   C3A 5069  36.708  11.044   8.067
  162POPC   C4A 5070  37.058  11.196   7.822
  162POPC   C1B 5071  36.743  11.595   8.723
  162POPC   C2B 5072  36.540  11.578   8.317
  162POPC   C3B 5073  36.669  11.542   7.910
  162POPC   C4B 5074  36.879  11.562   7.531
  163POPC   NC3 5075  43.601   9.410   9.526
  163POPC   PO4 5076  44.287   9.684   9.474
  163POPC   GL1 5077  43.981   9.794   9.111
  163POPC   GL2 5078  43.649  10.019   9.147
  163POPC   C1A 5079  43.898   9.928   8.696
  163POPC   D2A 5080  44.157   9.796   8.368
  163POPC   C3A 5081  44.038   9.896   7.991
  163POPC   C4A 5082  43.960   9.602   7.655
  163POPC   C1B 5083  43.566   9.614   8.901
  163POPC   C2B 5084  43.680   9.490   8.475
  163POPC   C3B 5085  43.602   9.631   8.058
  163POPC   C4B 5086  43.513   9.333   7.728
  164POPC   NC3 5087  37.366  36.678   9.347
  164POPC   PO4 5088  36.754  37.074   9.421
  164POPC   GL1 5089  36.925  36.816   9.123
  164POPC   GL2 5090  37.153  37.096   9.099
  164POPC   C1A 5091  36.870  36.575   8.746
  164POPC   D2A 5092  36.769  36.804   8.360
  164POPC   C3A 5093  36.895  36.690   7.971
  164POPC   C4A 5094  36.916  36.732   7.533
  164POPC   C1B 5095  37.125  37.016   8.663
  164POPC   C2B 5096  37.259  37.049   8.223
  164POPC   C3B 5097  37.057  37.148   7.831
  164POPC   C4B 5098  36.702  37.192   7.519
  165POPC   NC3 5099  22.568  22.032   9.574
  165POPC   PO4 5100  21.877  22.259   9.480
  165POPC   GL1 5101  22.072  22.201   9.119
  165POPC   GL2 5102  22.410  22.122   9.120
  165POPC   C1A 5103  22.153  22.449   8.782
  165POPC   D2A 5104  21.893  22.475   8.422
  165POPC   C3A 5105  21.915  22.113   8.134
  165POPC   C4A 5106  22.124  22.219   7.744
  165POPC   C1B 5107  22.351  21.975   8.730
  165POPC   C2B 5108  22.354  22.187   8.365
  165POPC   C3B 5109  22.578  22.182   8.008
  165POPC   C4B 5110  22.681  21.895   7.734
  166POPC   NC3 5111  37.917  27.483   9.430
  166POPC   PO4 5112  37.347  27.823   9.459
  166POPC   GL1 5113  37.499  27.941   9.083
  166POPC   GL2 5114  37.851  27.928   9.132
  166POPC   C1A 5115  37.467  27.781   8.658
  166POPC   D2A 5116  37.519  27.811   8.223
  166POPC   C3A 5117  37.593  27.436   7.983
  166POPC   C4A 5118  37.440  27.265   7.600
  166POPC   C1B 5119  37.978  27.874   8.704
  166POPC   C2B 5120  38.120  27.959   8.272
  166POPC   C3B 5121  37.908  27.881   7.868
  166POPC   C4B 5122  37.487  27.870   7.715
  167POPC   NC3 5123  42.483  43.460   9.434
  167POPC   PO4 5124  42.615  44.174   9.433
  167POPC   GL1 5125  42.366  43.895   9.184
  167POPC   GL2 5126  42.544  43.999   8.914
  167POPC   C1A 5127  42.224  43.625   8.829
  167POPC   D2A 5128  42.344  43.831   8.445
  167POPC   C3A 5129  42.197  43.784   8.032
  167POPC   C4A 5130  42.351  43.544   7.707
  167POPC   C1B 5131  42.090  44.134   8.773
  167POPC   C2B 5132  41.894  44.100   8.335
  167POPC   C3B 5133  42.030  44.262   7.895
  167POPC   C4B 5134  42.123  44.018   7.515
  168POPC   NC3 5135  12.851  24.043   9.451
  168POPC   PO4 5136  12.513  24.615   9.706
  168POPC   GL1 5137  12.599  24.665   9.189
  168POPC   GL2 5138  12.917  24.440   9.112
  168POPC   C1A 5139  12.673  24.683   8.726
  168POPC   D2A 5140  12.868  24.563   8.334
  168POPC   C3A 5141  12.754  24.831   7.992
  168POPC   C4A 5142  12.587  24.836   7.593
  168POPC   C1B 5143  12.839  24.167   8.719
  168POPC   C2B 5144  12.641  24.112   8.288
  168POPC   C3B 5145  12.626  24.314   7.896
  168POPC   C4B 5146  12.995  24.450   7.736
  169POPC   NC3 5147   6.118  22.302   9.697
  169POPC   PO4 5148   5.605  22.332   9.290
  169POPC   GL1 5149   5.898  22.159   9.022
  169POPC   GL2 5150   6.199  22.199   9.188
  169POPC   C1A 5151   5.943  22.083   8.600
  169POPC   D2A 5152   6.013  21.906   8.231
  169POPC   C3A 5153   5.738  22.206   8.024
  169POPC   C4A 5154   5.599  22.349   7.617
  169POPC   C1B 5155   6.307  22.368   8.790
  169POPC   C2B 5156   6.417  22.262   8.358
  169POPC   C3B 5157   6.262  22.221   7.915
  169POPC   C4B 5158   5.961  21.927   7.676
  170POPC   NC3 5159  43.729  23.433   9.574
  170POPC   PO4 5160  44.331  23.839   9.426
  170POPC   GL1 5161  44.023  23.578   9.172
  170POPC   GL2 5162  43.633  23.555   9.095
  170POPC   C1A 5163  44.024  23.492   8.745
  170POPC   D2A 5164  44.205  23.766   8.425
  170POPC   C3A 5165  44.253  23.667   7.979
  170POPC   C4A 5166  44.083  23.687   7.532
  170POPC   C1B 5167  43.564  23.757   8.696
  170POPC   C2B 5168  43.732  23.611   8.306
  170POPC   C3B 5169  43.701  23.664   7.887
  170POPC   C4B 5170  43.575  23.436   7.554
  171POPC   NC3 5171  28.040   2.141   9.233
  171POPC   PO4 5172  27.523   2.013   9.660
  171POPC   GL1 5173  27.544   1.924   9.233
  171POPC   GL2 5174  27.452   2.268   9.174
  171POPC   C1A 5175  27.620   1.952   8.756
  171POPC   D2A 5176  27.586   2.305   8.405
  171POPC   C3A 5177  27.759   2.238   7.996
  171POPC   C4A 5178  27.901   1.879   7.749
  171POPC   C1B 5179  27.236   2.275   8.773
  171POPC   C2B 5180  27.064   2.420   8.364
  171POPC   C3B 5181  27.247   2.404   7.988
  171POPC   C4B 5182  27.348   2.051   7.736
  172POPC   NC3 5183  23.266  18.783   9.521
  172POPC   PO4 5184  23.932  18.950   9.504
  172POPC   GL1 5185  23.872  19.039   9.041
  172POPC   GL2 5186  23.544  18.973   9.141
  172POPC   C1A 5187  23.840  19.012   8.555
  172POPC   D2A 5188  23.742  18.794   8.166
  172POPC   C3A 5189  23.956  19.008   7.873
  172POPC   C4A 5190  23.898  19.395   7.703
  172POPC   C1B 5191  23.410  19.124   8.784
  172POPC   C2B 5192  23.316  18.956   8.398
  172POPC   C3B 5193  23.327  19.049   7.995
  172POPC   C4B 5194  23.504  18.949   7.636
  173POPC   NC3 5195  33.062  15.677   9.751
  173POPC   PO4 5196  33.167  15.113   9.389
  173POPC   GL1 5197  33.290  14.978   9.009
  173POPC   GL2 5198  33.028  14.843   8.837
  173POPC   C1A 5199  33.360  15.153   8.598
  173POPC   D2A 5200  33.124  15.304   8.239
  173POPC   C3A 5201  33.279  15.111   7.925
  173POPC   C4A 5202  33.345  15.098   7.531
  173POPC   C1B 5203  32.821  15.157   8.629
  173POPC   C2B 5204  32.665  15.096   8.245
  173POPC   C3B 5205  32.740  15.208   7.845
  173POPC   C4B 5206  32.447  15.256   7.494
  174POPC   NC3 5207  34.910  40.308   9.287
  174POPC   PO4 5208  35.119  40.845   9.580
  174POPC   GL1 5209  35.436  40.863   9.242
  174POPC   GL2 5210  35.659  40.595   9.140
  174POPC   C1A 5211  35.422  40.901   8.790
  174POPC   D2A 5212  35.253  41.071   8.406
  174POPC   C3A 5213  35.468  41.068   8.017
  174POPC   C4A 5214  35.254  40.850   7.716
  174POPC   C1B 5215  35.824  40.560   8.725
  174POPC   C2B 5216  35.592  40.637   8.343
  174POPC   C3B 5217  35.700  40.624   7.896
  174POPC   C4B 5218  35.541  40.504   7.491
  175POPC   NC3 5219  34.741   9.215   9.351
  175POPC   PO4 5220  34.423   8.654   9.470
  175POPC   GL1 5221  34.421   8.898   9.125
  175POPC   GL2 5222  34.197   9.155   9.226
  175POPC   C1A 5223  34.633   8.980   8.743
  175POPC   D2A 5224  34.855   8.767   8.415
  175POPC   C3A 5225  34.856   8.894   7.991
  175POPC   C4A 5226  34.825   9.129   7.653
  175POPC   C1B 5227  34.211   9.301   8.796
  175POPC   C2B 5228  34.382   9.194   8.362
  175POPC   C3B 5229  34.342   9.109   7.911
  175POPC   C4B 5230  34.402   8.795   7.586
  176POPC   NC3 5231  37.056   7.747   9.458
  176POPC   PO4 5232  36.558   7.441   9.772
  176POPC   GL1 5233  36.687   7.440   9.302
  176POPC   GL2 5234  36.748   7.149   9.143
  176POPC   C1A 5235  36.824   7.585   8.850
  176POPC   D2A 5236  36.899   7.430   8.413
  176POPC   C3A 5237  36.903   7.680   7.996
  176POPC   C4A 5238  36.760   7.624   7.542
  176POPC   C1B 5239  37.128   7.145   8.857
  176POPC   C2B 5240  37.183   6.981   8.443
  176POPC   C3B 5241  36.947   7.045   8.082
  176POPC   C4B 5242  37.017   7.207   7.684
  177POPC   NC3 5243  40.047  16.503   9.473
  177POPC   PO4 5244  40.150  17.087   9.846
  177POPC   GL1 5245  39.854  16.926   9.304
  177POPC   GL2 5246  40.141  16.650   9.013
  177POPC   C1A 5247  39.709  16.755   8.836
  177POPC   D2A 5248  39.700  16.529   8.416
  177POPC   C3A 5249  39.908  16.663   8.015
  177POPC   C4A 5250  39.917  17.045   7.759
  177POPC   C1B 5251  40.204  16.928   8.625
  177POPC   C2B 5252  40.277  17.016   8.188
  177POPC   C3B 5253  40.405  16.986   7.778
  177POPC   C4B 5254  40.297  17.109   7.318
  178POPC   NC3 5255  13.106   0.459   9.695
  178POPC   PO4 5256  13.726   0.279   9.513
  178POPC   GL1 5257  13.692   0.339   9.098
  178POPC   GL2 5258  13.416   0.077   9.121
  178POPC   C1A 5259  13.700   0.667   8.758
  178POPC   D2A 5260  13.595   0.928   8.384
  178POPC   C3A 5261  13.741   0.737   7.988
  178POPC   C4A 5262  13.754   0.298   7.820
  178POPC   C1B 5263  13.329   0.282   8.750
  178POPC   C2B 5264  13.468   0.405   8.345
  178POPC   C3B 5265  13.297   0.207   8.003
  178POPC   C4B 5266  13.281   0.336   7.607
  179POPC   NC3 5267  34.469   7.567   9.555
  179POPC   PO4 5268  34.498   6.858   9.513
  179POPC   GL1 5269  34.342   7.191   9.213
  179POPC   GL2 5270  34.685   7.339   9.137
  179POPC   C1A 5271  34.275   7.533   8.882
  179POPC   D2A 5272  34.386   7.665   8.460
  179POPC   C3A 5273  34.230   7.477   8.092
  179POPC   C4A 5274  34.403   7.399   7.704
  179POPC   C1B 5275  34.836   7.478   8.718
  179POPC   C2B 5276  34.894   7.609   8.274
  179POPC   C3B 5277  34.928   7.542   7.797
  179POPC   C4B 5278  34.808   7.368   7.367
  180POPC   NC3 5279  35.488  21.850   9.491
  180POPC   PO4 5280  35.472  22.587   9.472
  180POPC   GL1 5281  35.390  22.352   9.096
  180POPC   GL2 5282  35.206  22.072   9.092
  180POPC   C1A 5283  35.361  22.345   8.672
  180POPC   D2A 5284  35.244  22.215   8.312
  180POPC   C3A 5285  35.498  22.283   7.972
  180POPC   C4A 5286  35.534  22.395   7.540
  180POPC   C1B 5287  35.210  21.849   8.705
  180POPC   C2B 5288  35.325  21.709   8.312
  180POPC   C3B 5289  35.258  21.838   7.925
  180POPC   C4B 5290  35.195  21.900   7.481
  181POPC   NC3 5291   0.074  42.597   9.188
  181POPC   PO4 5292   0.796  42.683   9.241
  181POPC   GL1 5293   0.550  42.496   8.987
  181POPC   GL2 5294   0.404  42.206   9.096
  181POPC   C1A 5295   0.520  42.464   8.579
  181POPC   D2A 5296   0.732  42.444   8.236
  181POPC   C3A 5297   0.472  42.325   7.873
  181POPC   C4A 5298   0.249  42.346   7.450
  181POPC   C1B 5299   0.230  42.055   8.699
  181POPC   C2B 5300   0.414  41.896   8.275
  181POPC   C3B 5301   0.231  41.895   7.836
  181POPC   C4B 5302   0.268  41.844   7.341
  182POPC   NC3 5303  12.538  13.235   9.296
  182POPC   PO4 5304  12.744  13.813   9.489
  182POPC   GL1 5305  12.724  13.675   9.121
  182POPC   GL2 5306  12.981  13.445   9.154
  182POPC   C1A 5307  12.751  13.524   8.709
  182POPC   D2A 5308  12.793  13.798   8.401
  182POPC   C3A 5309  12.646  13.688   8.026
  182POPC   C4A 5310  12.739  13.477   7.693
  182POPC   C1B 5311  13.150  13.851   8.944
  182POPC   C2B 5312  13.287  13.721   8.558
  182POPC   C3B 5313  13.196  13.591   8.168
  182POPC   C4B 5314  13.099  13.891   7.879
  183POPC   NC3 5315  12.870   6.881   9.380
  183POPC   PO4 5316  12.587   6.287   9.647
  183POPC   GL1 5317  12.562   6.449   9.253
  183POPC   GL2 5318  12.919   6.401   9.147
  183POPC   C1A 5319  12.467   6.378   8.823
  183POPC   D2A 5320  12.692   6.335   8.417
  183POPC   C3A 5321  12.712   6.711   8.145
  183POPC   C4A 5322  12.689   6.770   7.708
  183POPC   C1B 5323  13.001   6.636   8.748
  183POPC   C2B 5324  13.203   6.664   8.321
  183POPC   C3B 5325  13.154   6.996   8.021
  183POPC   C4B 5326  13.132   7.044   7.576
  184POPC   NC3 5327  11.548  39.618   9.510
  184POPC   PO4 5328  10.996  39.957   9.375
  184POPC   GL1 5329  11.203  39.740   9.111
  184POPC   GL2 5330  11.309  40.085   9.010
  184POPC   C1A 5331  11.157  39.747   8.680
  184POPC   D2A 5332  11.279  40.070   8.418
  184POPC   C3A 5333  11.439  39.861   8.106
  184POPC   C4A 5334  11.407  39.972   7.727
  184POPC   C1B 5335  10.926  40.228   8.763
  184POPC   C2B 5336  10.728  40.259   8.325
  184POPC   C3B 5337  10.966  40.253   7.934
  184POPC   C4B 5338  10.986  40.222   7.457
  185POPC   NC3 5339   8.666  42.691   9.604
  185POPC   PO4 5340   7.948  42.827   9.482
  185POPC   GL1 5341   8.294  42.618   9.166
  185POPC   GL2 5342   8.334  42.222   9.107
  185POPC   C1A 5343   8.535  42.543   8.781
  185POPC   D2A 5344   8.447  42.154   8.587
  185POPC   C3A 5345   8.328  42.194   8.163
  185POPC   C4A 5346   8.548  42.235   7.756
  185POPC   C1B 5347   7.970  42.229   8.849
  185POPC   C2B 5348   7.795  42.168   8.444
  185POPC   C3B 5349   7.848  42.437   8.089
  185POPC   C4B 5350   8.031  42.290   7.744
  186POPC   NC3 5351   2.471  19.830   9.582
  186POPC   PO4 5352   3.050  19.912   9.702
  186POPC   GL1 5353   2.975  19.765   9.203
  186POPC   GL2 5354   2.686  19.627   9.164
  186POPC   C1A 5355   2.916  19.916   8.762
  186POPC   D2A 5356   2.548  19.852   8.483
  186POPC   C3A 5357   2.675  19.950   8.063
  186POPC   C4A 5358   2.600  20.134   7.639
  186POPC   C1B 5359   2.555  19.389   8.829
  186POPC   C2B 5360   2.481  19.352   8.393
  186POPC   C3B 5361   2.660  19.452   7.985
  186POPC   C4B 5362   2.892  19.708   7.675
  187POPC   NC3 5363   8.285  40.480   9.488
  187POPC   PO4 5364   7.827  40.950   9.398
  187POPC   GL1 5365   8.158  40.899   9.117
  187POPC   GL2 5366   8.497  40.921   9.211
  187POPC   C1A 5367   8.105  40.868   8.695
  187POPC   D2A 5368   7.960  41.151   8.384
  187POPC   C3A 5369   8.103  40.895   8.055
  187POPC   C4A 5370   7.959  40.746   7.687
  187POPC   C1B 5371   8.624  40.716   8.823
  187POPC   C2B 5372   8.523  40.655   8.402
  187POPC   C3B 5373   8.615  40.783   8.004
  187POPC   C4B 5374   8.416  40.545   7.714
  188POPC   NC3 5375  15.750  29.138   9.506
  188POPC   PO4 5376  15.046  29.106   9.457
  188POPC   GL1 5377  15.154  28.991   9.084
  188POPC   GL2 5378  15.507  28.939   9.123
  188POPC   C1A 5379  15.005  29.141   8.693
  188POPC   D2A 5380  14.895  29.387   8.319
  188POPC   C3A 5381  15.010  29.319   7.889
  188POPC   C4A 5382  14.843  29.054   7.562
  188POPC   C1B 5383  15.508  29.196   8.788
  188POPC   C2B 5384  15.448  29.327   8.395
  188POPC   C3B 5385  15.531  29.139   8.020
  188POPC   C4B 5386  15.431  29.176   7.623
  189POPC   NC3 5387  20.373  39.735   9.387
  189POPC   PO4 5388  20.931  40.032   9.517
  189POPC   GL1 5389  20.822  39.831   9.097
  189POPC   GL2 5390  20.470  39.932   8.935
  189POPC   C1A 5391  20.799  39.677   8.652
  189POPC   D2A 5392  20.448  39.703   8.378
  189POPC   C3A 5393  20.548  39.789   7.956
  189POPC   C4A 5394  20.820  40.049   7.703
  189POPC   C1B 5395  20.415  40.254   8.622
  189POPC   C2B 5396  20.317  40.167   8.215
  189POPC   C3B 5397  20.356  40.235   7.814
  189POPC   C4B 5398  20.239  40.402   7.457
  190POPC   NC3 5399  15.468  24.935   9.348
  190POPC   PO4 5400  15.685  24.256   9.439
  190POPC   GL1 5401  15.375  24.490   9.101
  190POPC   GL2 5402  14.960  24.468   9.103
  190POPC   C1A 5403  15.238  24.407   8.664
  190POPC   D2A 5404  15.393  24.585   8.283
  190POPC   C3A 5405  15.302  24.403   7.904
  190POPC   C4A 5406  15.070  24.693   7.645
  190POPC   C1B 5407  14.729  24.352   8.736
  190POPC   C2B 5408  14.823  24.534   8.352
  190POPC   C3B 5409  14.781  24.393   7.982
  190POPC   C4B 5410  14.922  24.200   7.629
  191POPC   NC3 5411  24.493  39.085   9.734
  191POPC   PO4 5412  24.692  39.535   9.346
  191POPC   GL1 5413  24.649  39.207   9.140
  191POPC   GL2 5414  24.529  39.463   8.877
  191POPC   C1A 5415  24.727  39.028   8.750
  191POPC   D2A 5416  24.578  39.268   8.380
  191POPC   C3A 5417  24.664  39.019   8.041
  191POPC   C4A 5418  24.738  38.755   7.670
  191POPC   C1B 5419  24.164  39.591   8.676
  191POPC   C2B 5420  24.142  39.592   8.243
  191POPC   C3B 5421  24.408  39.477   7.913
  191POPC   C4B 5422  24.339  39.502   7.479
  192POPC   NC3 5423   9.946  30.364   9.559
  192POPC   PO4 5424   9.503  30.720   9.173
  192POPC   GL1 5425   9.929  30.757   9.042
  192POPC   GL2 5426   9.984  30.411   9.053
  192POPC   C1A 5427  10.024  30.654   8.609
  192POPC   D2A 5428   9.677  30.431   8.424
  192POPC   C3A 5429   9.588  30.651   8.045
  192POPC   C4A 5430   9.907  30.871   7.803
  192POPC   C1B 5431  10.111  30.145   8.721
  192POPC   C2B 5432  10.183  30.233   8.290
  192POPC   C3B 5433   9.848  30.178   8.003
  192POPC   C4B 5434   9.691  30.376   7.635
  193POPC   NC3 5435  12.921  24.747   9.549
  193POPC   PO4 5436  12.506  25.211   9.374
  193POPC   GL1 5437  12.791  25.249   9.028
  193POPC   GL2 5438  12.966  24.962   9.037
  193POPC   C1A 5439  12.847  25.177   8.573
  193POPC   D2A 5440  12.812  25.445   8.229
  193POPC   C3A 5441  12.978  25.312   7.864
  193POPC   C4A 5442  12.944  25.168   7.447
  193POPC   C1B 5443  13.199  24.810   8.662
  193POPC   C2B 5444  13.208  24.930   8.200
  193POPC   C3B 5445  13.263  24.904   7.744
  193POPC   C4B 5446  13.419  24.991   7.264
  194POPC   NC3 5447   6.519  30.137   9.459
  194POPC   PO4 5448   6.704  30.779   9.491
  194POPC   GL1 5449   6.739  30.499   9.153
  194POPC   GL2 5450   6.439  30.341   8.994
  194POPC   C1A 5451   6.762  30.660   8.751
  194POPC   D2A 5452   6.741  30.895   8.386
  194POPC   C3A 5453   6.584  30.656   8.064
  194POPC   C4A 5454   6.664  30.647   7.631
  194POPC   C1B 5455   6.238  30.677   8.755
  194POPC   C2B 5456   6.238  31.038   8.484
  194POPC   C3B 5457   6.369  31.147   8.085
  194POPC   C4B 5458   6.250  30.934   7.761
  195POPC   NC3 5459  42.424  26.978   9.624
  195POPC   PO4 5460  42.155  26.364   9.509
  195POPC   GL1 5461  42.365  26.634   9.234
  195POPC   GL2 5462  42.191  26.935   9.176
  195POPC   C1A 5463  42.514  26.749   8.819
  195POPC   D2A 5464  42.468  26.927   8.394
  195POPC   C3A 5465  42.432  26.711   8.000
  195POPC   C4A 5466  42.527  27.000   7.687
  195POPC   C1B 5467  42.137  27.098   8.744
  195POPC   C2B 5468  41.812  27.198   8.432
  195POPC   C3B 5469  42.056  27.064   8.086
  195POPC   C4B 5470  42.001  26.944   7.691
  196POPC   NC3 5471  39.553  11.255   9.372
  196POPC   PO4 5472  40.203  11.213   9.576
  196POPC   GL1 5473  40.049  11.444   9.210
  196POPC   GL2 5474  39.948  11.117   9.071
  196POPC   C1A 5475  39.994  11.491   8.738
  196POPC   D2A 5476  40.092  11.190   8.407
  196POPC   C3A 5477  39.978  11.361   8.000
  196POPC   C4A 5478  40.312  11.572   7.738
  196POPC   C1B 5479  39.782  10.883   8.692
  196POPC   C2B 5480  39.670  10.738   8.282
  196POPC   C3B 5481  39.595  10.989   7.912
  196POPC   C4B 5482  39.761  11.147   7.492
  197POPC   NC3 5483  40.175  20.282   9.651
  197POPC   PO4 5484  39.740  20.816   9.625
  197POPC   GL1 5485  39.878  20.620   9.265
  197POPC   GL2 5486  39.785  20.278   9.310
  197POPC   C1A 5487  39.964  20.708   8.836
  197POPC   D2A 5488  40.129  20.726   8.423
  197POPC   C3A 5489  39.925  20.920   8.078
  197POPC   C4A 5490  39.998  20.769   7.670
  197POPC   C1B 5491  39.740  20.240   8.862
  197POPC   C2B 5492  39.781  20.237   8.407
  197POPC   C3B 5493  39.934  20.359   7.979
  197POPC   C4B 5494  39.760  20.312   7.539
  198POPC   NC3 5495  40.585  33.778   9.651
  198POPC   PO4 5496  41.141  33.512   9.411
  198POPC   GL1 5497  40.824  33.885   9.204
  198POPC   GL2 5498  40.461  33.906   9.150
  198POPC   C1A 5499  40.928  33.990   8.775
  198POPC   D2A 5500  41.076  33.733   8.473
  198POPC   C3A 5501  40.976  33.935   8.143
  198POPC   C4A 5502  40.937  33.750   7.777
  198POPC   C1B 5503  40.440  34.192   8.777
  198POPC   C2B 5504  40.592  34.236   8.330
  198POPC   C3B 5505  40.479  33.929   8.003
  198POPC   C4B 5506  40.478  33.875   7.562
  199POPC   NC3 5507  18.747  41.869   9.435
  199POPC   PO4 5508  18.109  41.749   9.460
  199POPC   GL1 5509  18.250  41.499   9.089
  199POPC   GL2 5510  18.615  41.446   9.142
  199POPC   C1A 5511  18.172  41.529   8.626
  199POPC   D2A 5512  17.912  41.595   8.227
  199POPC   C3A 5513  18.141  41.554   7.811
  199POPC   C4A 5514  18.328  41.305   7.428
  199POPC   C1B 5515  18.638  41.693   8.754
  199POPC   C2B 5516  18.437  41.853   8.349
  199POPC   C3B 5517  18.579  41.859   7.903
  199POPC   C4B 5518  18.672  42.047   7.481
  200POPC   NC3 5519  27.559  24.149   9.506
  200POPC   PO4 5520  27.437  24.844   9.520
  200POPC   GL1 5521  27.541  24.721   9.101
  200POPC   GL2 5522  27.564  24.359   9.050
  200POPC   C1A 5523  27.457  24.660   8.657
  200POPC   D2A 5524  27.607  24.815   8.269
  200POPC   C3A 5525  27.435  24.609   7.944
  200POPC   C4A 5526  27.512  24.593   7.475
  200POPC   C1B 5527  27.499  24.139   8.646
  200POPC   C2B 5528  27.588  24.091   8.194
  200POPC   C3B 5529  27.591  24.167   7.743
  200POPC   C4B 5530  27.619  24.152   7.256
  201POPC   NC3 5531  15.401  31.128   9.466
  201POPC   PO4 5532  15.235  31.774   9.660
  201POPC   GL1 5533  15.199  31.553   9.258
  201POPC   GL2 5534  15.350  31.810   9.139
  201POPC   C1A 5535  15.008  31.407   8.851
  201POPC   D2A 5536  14.904  31.537   8.392
  201POPC   C3A 5537  14.821  31.175   8.052
  201POPC   C4A 5538  14.967  31.204   7.633
  201POPC   C1B 5539  15.185  31.867   8.731
  201POPC   C2B 5540  15.392  32.024   8.356
  201POPC   C3B 5541  15.450  31.897   7.952
  201POPC   C4B 5542  15.131  31.619   7.867
  202POPC   NC3 5543   2.419   9.387   9.521
  202POPC   PO4 5544   2.598  10.011   9.389
  202POPC   GL1 5545   2.756   9.662   9.152
  202POPC   GL2 5546   2.653   9.915   8.888
  202POPC   C1A 5547   2.806   9.469   8.746
  202POPC   D2A 5548   2.795   9.719   8.377
  202POPC   C3A 5549   2.912   9.443   8.054
  202POPC   C4A 5550   2.688   9.419   7.678
  202POPC   C1B 5551   3.082   9.988   8.805
  202POPC   C2B 5552   3.366  10.009   8.421
  202POPC   C3B 5553   3.163   9.999   8.006
  202POPC   C4B 5554   2.731   9.901   7.861
  203POPC   NC3 5555  12.932  38.316   9.546
  203POPC   PO4 5556  12.455  38.673   9.246
  203POPC   GL1 5557  12.839  38.580   9.102
  203POPC   GL2 5558  12.912  38.223   9.031
  203POPC   C1A 5559  12.911  38.576   8.674
  203POPC   D2A 5560  12.933  38.454   8.270
  203POPC   C3A 5561  12.934  38.848   8.057
  203POPC   C4A 5562  12.925  38.846   7.642
  203POPC   C1B 5563  12.668  38.131   8.636
  203POPC   C2B 5564  12.437  38.276   8.267
  203POPC   C3B 5565  12.599  38.482   7.883
  203POPC   C4B 5566  12.644  38.440   7.437
  204POPC   NC3 5567  23.467  15.744   9.957
  204POPC   PO4 5568  23.950  16.056   9.535
  204POPC   GL1 5569  23.772  15.905   9.141
  204POPC   GL2 5570  23.422  15.795   9.143
  204POPC   C1A 5571  23.628  16.090   8.740
  204POPC   D2A 5572  23.683  16.285   8.312
  204POPC   C3A 5573  23.638  16.051   7.892
  204POPC   C4A 5574  23.818  16.196   7.488
  204POPC   C1B 5575  23.412  15.626   8.725
  204POPC   C2B 5576  23.624  15.729   8.320
  204POPC   C3B 5577  23.589  15.552   7.908
  204POPC   C4B 5578  23.281  15.573   7.603
  205POPC   NC3 5579  41.950  18.687   9.384
  205POPC   PO4 5580  42.319  18.178   9.684
  205POPC   GL1 5581  42.419  18.199   9.194
  205POPC   GL2 5582  42.254  18.496   9.030
  205POPC   C1A 5583  42.601  18.274   8.759
  205POPC   D2A 5584  42.392  18.456   8.398
  205POPC   C3A 5585  42.203  18.159   8.114
  205POPC   C4A 5586  42.448  18.171   7.732
  205POPC   C1B 5587  42.039  18.683   8.695
  205POPC   C2B 5588  41.869  18.541   8.303
  205POPC   C3B 5589  41.939  18.518   7.857
  205POPC   C4B 5590  41.960  18.622   7.398
  206POPC   NC3 5591  23.338  17.013   9.466
  206POPC   PO4 5592  23.049  16.472   9.490
  206POPC   GL1 5593  22.926  16.771   9.234
  206POPC   GL2 5594  22.572  16.824   9.250
  206POPC   C1A 5595  23.006  16.863   8.831
  206POPC   D2A 5596  22.787  16.805   8.434
  206POPC   C3A 5597  23.000  16.694   8.052
  206POPC   C4A 5598  23.167  16.800   7.647
  206POPC   C1B 5599  22.565  16.577   8.867
  206POPC   C2B 5600  22.389  16.488   8.448
  206POPC   C3B 5601  22.471  16.622   8.042
  206POPC   C4B 5602  22.657  16.565   7.659
  207POPC   NC3 5603  24.810  17.253   9.376
  207POPC   PO4 5604  24.321  17.659   9.437
  207POPC   GL1 5605  24.462  17.792   9.020
  207POPC   GL2 5606  24.770  17.592   8.981
  207POPC   C1A 5607  24.458  17.562   8.597
  207POPC   D2A 5608  24.233  17.183   8.453
  207POPC   C3A 5609  24.275  17.294   8.050
  207POPC   C4A 5610  24.701  17.447   8.054
  207POPC   C1B 5611  24.911  17.985   8.824
  207POPC   C2B 5612  24.780  18.044   8.449
  207POPC   C3B 5613  24.986  18.002   8.089
  207POPC   C4B 5614  24.888  17.799   7.745
  208POPC   NC3 5615  41.234  12.346   9.425
  208POPC   PO4 5616  41.849  12.200   9.312
  208POPC   GL1 5617  41.524  11.924   9.192
  208POPC   GL2 5618  41.779  11.797   8.997
  208POPC   C1A 5619  41.319  11.914   8.778
  208POPC   D2A 5620  41.488  12.164   8.431
  208POPC   C3A 5621  41.393  12.138   8.000
  208POPC   C4A 5622  41.347  12.441   7.657
  208POPC   C1B 5623  41.938  11.796   8.591
  208POPC   C2B 5624  41.719  11.761   8.199
  208POPC   C3B 5625  41.635  11.763   7.766
  208POPC   C4B 5626  41.358  11.739   7.416
  209POPC   NC3 5627   2.463  25.510   9.665
  209POPC   PO4 5628   2.838  24.925   9.533
  209POPC   GL1 5629   2.769  24.998   9.094
  209POPC   GL2 5630   2.928  25.333   9.018
  209POPC   C1A 5631   2.761  24.992   8.643
  209POPC   D2A 5632   2.690  25.224   8.264
  209POPC   C3A 5633   2.786  24.986   7.894
  209POPC   C4A 5634   2.953  25.038   7.474
  209POPC   C1B 5635   3.097  25.378   8.594
  209POPC   C2B 5636   3.202  25.388   8.177
  209POPC   C3B 5637   2.946  25.463   7.834
  209POPC   C4B 5638   2.589  25.694   7.806
  210POPC   NC3 5639  29.160  20.333   9.530
  210POPC   PO4 5640  29.177  21.017   9.435
  210POPC   GL1 5641  29.157  20.675   9.128
  210POPC   GL2 5642  28.876  20.517   9.138
  210POPC   C1A 5643  29.333  20.527   8.749
  210POPC   D2A 5644  29.493  20.747   8.403
  210POPC   C3A 5645  29.340  20.543   8.067
  210POPC   C4A 5646  29.112  20.595   7.728
  210POPC   C1B 5647  28.861  20.285   8.753
  210POPC   C2B 5648  28.650  20.257   8.408
  210POPC   C3B 5649  28.632  20.447   8.045
  210POPC   C4B 5650  28.632  20.279   7.679
  211POPC   NC3 5651   5.534  35.506   9.455
  211POPC   PO4 5652   5.952  35.119   9.764
  211POPC   GL1 5653   6.000  35.535   9.305
  211POPC   GL2 5654   5.713  35.526   9.003
  211POPC   C1A 5655   6.185  35.572   8.839
  211POPC   D2A 5656   6.181  35.253   8.467
  211POPC   C3A 5657   5.936  35.272   8.084
  211POPC   C4A 5658   6.085  35.318   7.665
  211POPC   C1B 5659   5.741  35.788   8.697
  211POPC   C2B 5660   5.969  35.717   8.350
  211POPC   C3B 5661   5.946  35.758   7.920
  211POPC   C4B 5662   5.642  35.580   7.653
  212POPC   NC3 5663  27.771  17.824   9.425
  212POPC   PO4 5664  27.288  17.314   9.494
  212POPC   GL1 5665  27.524  17.435   9.130
  212POPC   GL2 5666  27.338  17.759   9.074
  212POPC   C1A 5667  27.775  17.260   8.769
  212POPC   D2A 5668  27.907  17.444   8.375
  212POPC   C3A 5669  27.653  17.313   8.023
  212POPC   C4A 5670  27.577  17.251   7.607
  212POPC   C1B 5671  27.518  17.725   8.647
  212POPC   C2B 5672  27.527  17.781   8.187
  212POPC   C3B 5673  27.764  17.792   7.782
  212POPC   C4B 5674  27.708  17.656   7.341
  213POPC   NC3 5675  10.878  26.608   9.495
  213POPC   PO4 5676  10.219  26.833   9.517
  213POPC   GL1 5677  10.535  26.859   9.130
  213POPC   GL2 5678  10.873  26.738   9.011
  213POPC   C1A 5679  10.452  26.931   8.693
  213POPC   D2A 5680  10.491  27.035   8.272
  213POPC   C3A 5681  10.661  26.839   7.954
  213POPC   C4A 5682  10.622  26.732   7.538
  213POPC   C1B 5683  10.682  26.487   8.689
  213POPC   C2B 5684  10.794  26.456   8.255
  213POPC   C3B 5685  10.935  26.418   7.815
  213POPC   C4B 5686  10.706  26.220   7.448
  214POPC   NC3 5687  20.201  15.106   9.549
  214POPC   PO4 5688  19.917  15.675   9.359
  214POPC   GL1 5689  19.697  15.409   9.056
  214POPC   GL2 5690  19.751  15.058   9.114
  214POPC   C1A 5691  19.861  15.378   8.629
  214POPC   D2A 5692  19.956  15.652   8.272
  214POPC   C3A 5693  20.074  15.401   7.959
  214POPC   C4A 5694  20.068  14.937   7.891
  214POPC   C1B 5695  19.433  15.104   8.750
  214POPC   C2B 5696  19.559  15.076   8.299
  214POPC   C3B 5697  19.592  15.190   7.864
  214POPC   C4B 5698  19.569  15.316   7.449
  215POPC   NC3 5699  29.492   0.507   9.767
  215POPC   PO4 5700  28.800   0.319   9.702
  215POPC   GL1 5701  29.026   0.326   9.286
  215POPC   GL2 5702  29.201   0.585   9.253
  215POPC   C1A 5703  29.261   0.296   8.817
  215POPC   D2A 5704  29.391   0.228   8.364
  215POPC   C3A 5705  29.092   0.257   8.018
  215POPC   C4A 5706  28.768   0.552   7.831
  215POPC   C1B 5707  28.993   0.715   8.874
  215POPC   C2B 5708  28.995   0.622   8.416
  215POPC   C3B 5709  29.182   0.747   8.008
  215POPC   C4B 5710  29.164   0.650   7.537
  216POPC   NC3 5711  17.901  16.190   9.337
  216POPC   PO4 5712  18.330  15.640   9.413
  216POPC   GL1 5713  18.094  15.764   9.118
  216POPC   GL2 5714  18.276  16.017   9.032
  216POPC   C1A 5715  17.954  15.717   8.725
  216POPC   D2A 5716  17.875  15.908   8.357
  216POPC   C3A 5717  18.147  16.137   8.097
  216POPC   C4A 5718  18.086  16.092   7.662
  216POPC   C1B 5719  18.202  16.187   8.653
  216POPC   C2B 5720  18.552  16.270   8.397
  216POPC   C3B 5721  18.586  16.412   8.009
  216POPC   C4B 5722  18.571  16.213   7.616
  217POPC   NC3 5723  38.909   5.268   9.250
  217POPC   PO4 5724  38.377   5.072   9.690
  217POPC   GL1 5725  38.353   5.245   9.244
  217POPC   GL2 5726  38.522   4.985   9.048
  217POPC   C1A 5727  38.356   5.399   8.774
  217POPC   D2A 5728  38.158   5.241   8.352
  217POPC   C3A 5729  38.230   4.872   8.103
  217POPC   C4A 5730  38.493   4.866   7.763
  217POPC   C1B 5731  38.800   4.924   8.667
  217POPC   C2B 5732  38.715   5.080   8.225
  217POPC   C3B 5733  38.865   5.227   7.832
  217POPC   C4B 5734  38.900   5.014   7.420
  218POPC   NC3 5735  43.846  14.406   9.749
  218POPC   PO4 5736  43.991  14.183   9.106
  218POPC   GL1 5737  44.056  14.612   8.822
  218POPC   GL2 5738  43.710  14.739   8.719
  218POPC   C1A 5739  44.080  14.573   8.409
  218POPC   D2A 5740  44.032  14.162   8.279
  218POPC   C3A 5741  44.092  14.236   7.888
  218POPC   C4A 5742  44.081  14.690   7.902
  218POPC   C1B 5743  43.603  14.307   8.599
  218POPC   C2B 5744  43.518  14.124   8.253
  218POPC   C3B 5745  43.645  14.434   8.027
  218POPC   C4B 5746  43.667  14.463   7.645
  219POPC   NC3 5747  19.376  11.080   9.471
  219POPC   PO4 5748  20.079  11.280   9.502
  219POPC   GL1 5749  20.021  11.390   9.125
  219POPC   GL2 5750  19.690  11.307   9.131
  219POPC   C1A 5751  20.074  11.510   8.709
  219POPC   D2A 5752  19.905  11.300   8.349
  219POPC   C3A 5753  19.855  11.617   8.044
  219POPC   C4A 5754  20.090  11.537   7.682
  219POPC   C1B 5755  19.569  11.230   8.731
  219POPC   C2B 5756  19.454  10.937   8.390
  219POPC   C3B 5757  19.653  10.936   7.993
  219POPC   C4B 5758  19.649  11.266   7.724
  220POPC   NC3 5759  41.061  36.028  10.020
  220POPC   PO4 5760  40.591  36.266   9.581
  220POPC   GL1 5761  40.780  36.162   9.155
  220POPC   GL2 5762  41.010  36.396   9.040
  220POPC   C1A 5763  40.991  35.961   8.751
  220POPC   D2A 5764  41.013  35.773   8.307
  220POPC   C3A 5765  40.834  35.926   7.913
  220POPC   C4A 5766  40.474  35.982   7.593
  220POPC   C1B 5767  40.799  36.421   8.672
  220POPC   C2B 5768  40.878  36.343   8.254
  220POPC   C3B 5769  40.774  36.436   7.836
  220POPC   C4B 5770  40.910  36.192   7.471
  221POPC   NC3 5771   2.757   8.582   9.716
  221POPC   PO4 5772   2.809   9.152   9.339
  221POPC   GL1 5773   2.906   8.987   9.009
  221POPC   GL2 5774   3.227   8.843   9.073
  221POPC   C1A 5775   2.657   8.974   8.662
  221POPC   D2A 5776   2.394   9.244   8.435
  221POPC   C3A 5777   2.451   9.168   8.056
  221POPC   C4A 5778   2.238   9.210   7.709
  221POPC   C1B 5779   3.131   8.728   8.643
  221POPC   C2B 5780   2.962   8.911   8.247
  221POPC   C3B 5781   2.846   8.936   7.819
  221POPC   C4B 5782   3.020   8.749   7.434
  222POPC   NC3 5783  39.058  15.377   9.799
  222POPC   PO4 5784  39.471  15.135   9.290
  222POPC   GL1 5785  39.366  15.194   8.873
  222POPC   GL2 5786  39.060  15.031   8.937
  222POPC   C1A 5787  39.141  15.455   8.595
  222POPC   D2A 5788  38.915  15.484   8.277
  222POPC   C3A 5789  39.228  15.367   8.044
  222POPC   C4A 5790  39.356  15.384   7.659
  222POPC   C1B 5791  39.326  14.700   8.773
  222POPC   C2B 5792  39.348  14.904   8.411
  222POPC   C3B 5793  38.982  14.956   8.180
  222POPC   C4B 5794  38.988  15.002   7.751
  223POPC   NC3 5795   0.928  40.628   9.488
  223POPC   PO4 5796   1.560  40.618   9.580
  223POPC   GL1 5797   1.318  40.830   9.198
  223POPC   GL2 5798   0.932  40.937   9.092
  223POPC   C1A 5799   1.290  40.697   8.764
  223POPC   D2A 5800   1.544  40.580   8.388
  223POPC   C3A 5801   1.356  40.518   8.010
  223POPC   C4A 5802   1.342  40.777   7.677
  223POPC   C1B 5803   0.783  40.680   8.753
  223POPC   C2B 5804   0.991  40.657   8.347
  223POPC   C3B 5805   0.883  40.731   7.933
  223POPC   C4B 5806   0.757  41.138   7.741
  224POPC   NC3 5807   9.108  11.416   9.633
  224POPC   PO4 5808   8.696  10.921   9.402
  224POPC   GL1 5809   8.866  11.229   9.172
  224POPC   GL2 5810   9.215  11.223   9.160
  224POPC   C1A 5811   8.904  11.417   8.765
  224POPC   D2A 5812   8.921  11.264   8.348
  224POPC   C3A 5813   8.789  11.521   7.981
  224POPC   C4A 5814   8.925  11.237   7.689
  224POPC   C1B 5815   9.401  11.450   8.847
  224POPC   C2B 5816   9.422  11.674   8.478
  224POPC   C3B 5817   9.292  11.552   8.070
  224POPC   C4B 5818   9.194  11.680   7.660
  225POPC   NC3 5819  35.135   5.983   9.474
  225POPC   PO4 5820  35.728   5.997   9.191
  225POPC   GL1 5821  35.329   5.910   9.013
  225POPC   GL2 5822  35.001   6.064   8.998
  225POPC   C1A 5823  35.334   5.832   8.622
  225POPC   D2A 5824  35.454   6.013   8.257
  225POPC   C3A 5825  35.270   5.764   7.961
  225POPC   C4A 5826  35.037   5.727   7.612
  225POPC   C1B 5827  34.822   5.923   8.618
  225POPC   C2B 5828  34.954   6.144   8.243
  225POPC   C3B 5829  35.182   6.245   7.858
  225POPC   C4B 5830  35.130   6.220   7.403
  226POPC   NC3 5831  23.169  42.263   9.447
  226POPC   PO4 5832  22.609  41.852   9.244
  226POPC   GL1 5833  22.804  42.258   9.073
  226POPC   GL2 5834  23.065  42.564   9.048
  226POPC   C1A 5835  22.728  42.406   8.656
  226POPC   D2A 5836  22.867  42.180   8.294
  226POPC   C3A 5837  22.710  42.277   7.885
  226POPC   C4A 5838  22.303  42.227   7.676
  226POPC   C1B 5839  23.223  42.354   8.735
  226POPC   C2B 5840  23.284  42.486   8.344
  226POPC   C3B 5841  23.232  42.304   7.952
  226POPC   C4B 5842  23.104  42.452   7.536
  227POPC   NC3 5843  33.453  21.069   9.458
  227POPC   PO4 5844  33.831  20.422   9.442
  227POPC   GL1 5845  33.559  20.626   9.154
  227POPC   GL2 5846  33.737  20.935   9.048
  227POPC   C1A 5847  33.627  20.537   8.719
  227POPC   D2A 5848  33.982  20.620   8.422
  227POPC   C3A 5849  33.820  20.499   8.039
  227POPC   C4A 5850  33.432  20.232   7.970
  227POPC   C1B 5851  33.463  21.055   8.693
  227POPC   C2B 5852  33.439  21.182   8.241
  227POPC   C3B 5853  33.466  21.059   7.785
  227POPC   C4B 5854  33.541  20.645   7.631
  228POPC   NC3 5855  26.509   9.324   9.392
  228POPC   PO4 5856  26.921   9.829   9.665
  228POPC   GL1 5857  26.878   9.946   9.213
  228POPC   GL2 5858  26.937   9.668   9.097
  228POPC   C1A 5859  26.624   9.916   8.809
  228POPC   D2A 5860  26.605  10.197   8.471
  228POPC   C3A 5861  26.522  10.084   8.060
  228POPC   C4A 5862  26.713   9.853   7.761
  228POPC   C1B 5863  27.111   9.844   8.689
  228POPC   C2B 5864  26.927   9.750   8.259
  228POPC   C3B 5865  26.911   9.427   7.908
  228POPC   C4B 5866  26.628   9.415   7.516
  229POPC   NC3 5867  33.298  32.573   9.612
  229POPC   PO4 5868  32.958  33.094   9.444
  229POPC   GL1 5869  33.247  33.010   9.163
  229POPC   GL2 5870  33.267  32.658   9.122
  229POPC   C1A 5871  33.163  33.186   8.749
  229POPC   D2A 5872  32.785  33.331   8.484
  229POPC   C3A 5873  32.924  33.226   8.089
  229POPC   C4A 5874  33.158  33.047   7.741
  229POPC   C1B 5875  33.008  32.672   8.795
  229POPC   C2B 5876  32.977  32.841   8.416
  229POPC   C3B 5877  32.819  32.697   8.071
  229POPC   C4B 5878  32.867  32.592   7.679
  230POPC   NC3 5879  35.426  16.688   9.503
  230POPC   PO4 5880  34.898  17.024   9.313
  230POPC   GL1 5881  35.202  16.843   9.061
  230POPC   GL2 5882  35.357  16.511   9.027
  230POPC   C1A 5883  35.068  16.875   8.667
  230POPC   D2A 5884  34.845  16.724   8.340
  230POPC   C3A 5885  35.148  16.844   8.064
  230POPC   C4A 5886  35.536  16.835   7.884
  230POPC   C1B 5887  35.386  16.501   8.570
  230POPC   C2B 5888  35.634  16.434   8.178
  230POPC   C3B 5889  35.638  16.361   7.725
  230POPC   C4B 5890  35.722  16.480   7.288
  231POPC   NC3 5891  42.069  20.222   9.423
  231POPC   PO4 5892  42.419  20.750   9.557
  231POPC   GL1 5893  42.365  20.642   9.145
  231POPC   GL2 5894  42.500  20.319   9.120
  231POPC   C1A 5895  42.435  20.805   8.736
  231POPC   D2A 5896  42.254  20.732   8.365
  231POPC   C3A 5897  42.460  20.764   7.993
  231POPC   C4A 5898  42.673  20.970   7.687
  231POPC   C1B 5899  42.627  20.153   8.725
  231POPC   C2B 5900  42.513  20.103   8.296
  231POPC   C3B 5901  42.573  20.273   7.894
  231POPC   C4B 5902  42.177  20.421   7.746
  232POPC   NC3 5903  16.241  22.285   9.501
  232POPC   PO4 5904  15.679  21.950   9.697
  232POPC   GL1 5905  15.633  21.926   9.242
  232POPC   GL2 5906  15.738  22.273   9.246
  232POPC   C1A 5907  15.517  21.893   8.784
  232POPC   D2A 5908  15.797  21.933   8.423
  232POPC   C3A 5909  16.016  22.192   8.099
  232POPC   C4A 5910  15.895  22.031   7.690
  232POPC   C1B 5911  15.879  22.267   8.825
  232POPC   C2B 5912  15.779  22.494   8.448
  232POPC   C3B 5913  15.827  22.703   8.045
  232POPC   C4B 5914  16.001  22.528   7.676
  233POPC   NC3 5915  10.272  13.711   9.523
  233POPC   PO4 5916  10.981  13.852   9.519
  233POPC   GL1 5917  10.665  13.829   9.211
  233POPC   GL2 5918  10.518  13.474   9.122
  233POPC   C1A 5919  10.636  13.860   8.785
  233POPC   D2A 5920  10.753  13.559   8.470
  233POPC   C3A 5921  10.603  13.751   8.097
  233POPC   C4A 5922  10.759  13.748   7.684
  233POPC   C1B 5923  10.282  13.476   8.711
  233POPC   C2B 5924  10.333  13.315   8.282
  233POPC   C3B 5925  10.626  13.261   7.928
  233POPC   C4B 5926  10.571  13.296   7.489
  234POPC   NC3 5927  43.001  32.886   9.846
  234POPC   PO4 5928  43.338  33.423   9.647
  234POPC   GL1 5929  43.104  33.217   9.242
  234POPC   GL2 5930  42.815  33.380   9.116
  234POPC   C1A 5931  42.921  32.986   8.805
  234POPC   D2A 5932  43.073  32.698   8.499
  234POPC   C3A 5933  43.014  32.671   8.069
  234POPC   C4A 5934  42.849  33.002   7.790
  234POPC   C1B 5935  43.172  33.411   8.776
  234POPC   C2B 5936  43.136  33.214   8.378
  234POPC   C3B 5937  43.189  33.344   7.951
  234POPC   C4B 5938  43.310  33.589   7.609
  235POPC   NC3 5939   1.107  11.159   9.324
  235POPC   PO4 5940   1.286  10.691   9.808
  235POPC   GL1 5941   1.341  10.626   9.305
  235POPC   GL2 5942   1.039  10.642   9.128
  235POPC   C1A 5943   1.395  10.494   8.815
  235POPC   D2A 5944   1.158  10.429   8.435
  235POPC   C3A 5945   1.364  10.238   8.106
  235POPC   C4A 5946   1.463  10.389   7.706
  235POPC   C1B 5947   0.974  10.218   8.890
  235POPC   C2B 5948   0.753  10.143   8.474
  235POPC   C3B 5949   0.832  10.175   8.028
  235POPC   C4B 5950   0.982  10.224   7.588
  236POPC   NC3 5951   9.554  16.716   9.345
  236POPC   PO4 5952  10.144  16.443   9.484
  236POPC   GL1 5953  10.033  16.619   9.089
  236POPC   GL2 5954   9.864  16.950   9.036
  236POPC   C1A 5955   9.847  16.509   8.722
  236POPC   D2A 5956   9.666  16.425   8.335
  236POPC   C3A 5957   9.850  16.653   8.011
  236POPC   C4A 5958   9.609  16.671   7.655
  236POPC   C1B 5959   9.657  16.989   8.606
  236POPC   C2B 5960   9.562  17.071   8.145
  236POPC   C3B 5961   9.791  17.119   7.772
  236POPC   C4B 5962   9.924  16.974   7.380
  237POPC   NC3 5963  29.528  33.276   9.371
  237POPC   PO4 5964  30.131  33.042   9.627
  237POPC   GL1 5965  30.135  32.834   9.220
  237POPC   GL2 5966  29.887  33.030   9.123
  237POPC   C1A 5967  30.136  32.803   8.738
  237POPC   D2A 5968  30.222  33.020   8.318
  237POPC   C3A 5969  30.003  32.890   7.932
  237POPC   C4A 5970  29.650  32.656   7.805
  237POPC   C1B 5971  30.114  33.293   8.837
  237POPC   C2B 5972  29.906  33.398   8.465
  237POPC   C3B 5973  29.958  33.408   8.024
  237POPC   C4B 5974  29.931  33.309   7.585
  238POPC   NC3 5975   5.025   8.463  10.212
  238POPC   PO4 5976   4.886   8.245   9.613
  238POPC   GL1 5977   4.980   8.258   9.175
  238POPC   GL2 5978   5.119   7.943   9.218
  238POPC   C1A 5979   4.952   8.425   8.752
  238POPC   D2A 5980   5.139   8.539   8.382
  238POPC   C3A 5981   5.013   8.382   8.012
  238POPC   C4A 5982   5.354   8.349   7.735
  238POPC   C1B 5983   5.020   7.899   8.786
  238POPC   C2B 5984   5.042   8.016   8.358
  238POPC   C3B 5985   5.193   7.901   7.932
  238POPC   C4B 5986   5.381   7.830   7.519
  239POPC   NC3 5987  25.911  34.006   9.436
  239POPC   PO4 5988  25.902  33.409   9.336
  239POPC   GL1 5989  26.113  33.633   9.053
  239POPC   GL2 5990  26.397  33.755   9.231
  239POPC   C1A 5991  26.081  34.017   8.794
  239POPC   D2A 5992  26.010  34.128   8.352
  239POPC   C3A 5993  26.054  33.749   8.057
  239POPC   C4A 5994  25.825  33.891   7.697
  239POPC   C1B 5995  26.530  33.751   8.765
  239POPC   C2B 5996  26.484  33.901   8.317
  239POPC   C3B 5997  26.541  33.686   7.899
  239POPC   C4B 5998  26.264  33.502   7.643
  240POPC   NC3 5999  28.699  18.196   9.458
  240POPC   PO4 6000  28.018  18.287   9.493
  240POPC   GL1 6001  28.281  18.222   9.169
  240POPC   GL2 6002  28.422  18.565   9.163
  240POPC   C1A 6003  28.444  17.999   8.809
  240POPC   D2A 6004  28.250  17.964   8.407
  240POPC   C3A 6005  28.452  18.100   8.040
  240POPC   C4A 6006  28.272  18.088   7.679
  240POPC   C1B 6007  28.283  18.476   8.728
  240POPC   C2B 6008  28.192  18.525   8.326
  240POPC   C3B 6009  28.141  18.564   7.936
  240POPC   C4B 6010  28.468  18.546   7.710
  241POPC   NC3 6011  35.657  30.462   9.431
  241POPC   PO4 6012  35.318  31.065   9.481
  241POPC   GL1 6013  35.467  30.858   9.103
  241POPC   GL2 6014  35.291  30.978   8.808
  241POPC   C1A 6015  35.570  30.525   8.774
  241POPC   D2A 6016  35.494  30.342   8.352
  241POPC   C3A 6017  35.388  30.631   8.055
  241POPC   C4A 6018  35.591  30.591   7.677
  241POPC   C1B 6019  35.721  31.017   8.680
  241POPC   C2B 6020  35.758  30.969   8.257
  241POPC   C3B 6021  35.627  31.105   7.858
  241POPC   C4B 6022  35.364  31.018   7.565
  242POPC   NC3 6023  35.026  12.546   9.392
  242POPC   PO4 6024  35.345  11.934   9.593
  242POPC   GL1 6025  35.424  12.233   9.267
  242POPC   GL2 6026  35.136  12.135   9.133
  242POPC   C1A 6027  35.504  12.247   8.800
  242POPC   D2A 6028  35.346  12.080   8.402
  242POPC   C3A 6029  35.388  12.147   7.987
  242POPC   C4A 6030  35.557  11.784   7.795
  242POPC   C1B 6031  35.029  11.953   8.763
  242POPC   C2B 6032  34.826  12.046   8.394
  242POPC   C3B 6033  34.863  11.951   7.971
  242POPC   C4B 6034  35.111  11.969   7.586
  243POPC   NC3 6035  18.143   2.342   9.530
  243POPC   PO4 6036  18.413   1.774   9.340
  243POPC   GL1 6037  18.187   2.114   9.068
  243POPC   GL2 6038  17.845   2.321   9.117
  243POPC   C1A 6039  18.292   2.102   8.620
  243POPC   D2A 6040  18.076   1.847   8.312
  243POPC   C3A 6041  18.073   1.964   7.871
  243POPC   C4A 6042  18.249   1.653   7.663
  243POPC   C1B 6043  17.982   2.475   8.730
  243POPC   C2B 6044  17.928   2.324   8.322
  243POPC   C3B 6045  18.035   2.501   7.934
  243POPC   C4B 6046  17.880   2.331   7.555
  244POPC   NC3 6047  27.866  19.371   9.517
  244POPC   PO4 6048  27.326  19.684   9.328
  244POPC   GL1 6049  27.527  19.624   8.991
  244POPC   GL2 6050  27.828  19.661   9.096
  244POPC   C1A 6051  27.490  19.684   8.570
  244POPC   D2A 6052  27.714  19.933   8.302
  244POPC   C3A 6053  27.693  19.785   7.920
  244POPC   C4A 6054  27.375  19.744   7.644
  244POPC   C1B 6055  27.979  19.872   8.741
  244POPC   C2B 6056  28.196  19.783   8.366
  244POPC   C3B 6057  28.191  19.572   7.984
  244POPC   C4B 6058  28.041  19.629   7.585
  245POPC   NC3 6059  24.212  35.644   9.510
  245POPC   PO4 6060  24.435  36.267   9.521
  245POPC   GL1 6061  24.404  36.042   9.184
  245POPC   GL2 6062  24.745  35.961   9.187
  245POPC   C1A 6063  24.471  36.200   8.788
  245POPC   D2A 6064  24.399  36.356   8.399
  245POPC   C3A 6065  24.372  36.055   8.109
  245POPC   C4A 6066  24.250  36.132   7.716
  245POPC   C1B 6067  24.956  36.075   8.834
  245POPC   C2B 6068  24.910  36.243   8.434
  245POPC   C3B 6069  24.885  36.194   8.003
  245POPC   C4B 6070  24.714  35.926   7.737
  246POPC   NC3 6071   7.505  32.887   9.603
  246POPC   PO4 6072   6.863  33.083   9.529
  246POPC   GL1 6073   7.153  32.899   9.174
  246POPC   GL2 6074   7.488  33.035   9.074
  246POPC   C1A 6075   7.189  32.758   8.730
  246POPC   D2A 6076   7.440  32.971   8.415
  246POPC   C3A 6077   7.542  32.815   8.012
  246POPC   C4A 6078   7.274  32.835   7.679
  246POPC   C1B 6079   7.697  33.296   8.725
  246POPC   C2B 6080   7.718  33.399   8.286
  246POPC   C3B 6081   7.865  33.221   7.917
  246POPC   C4B 6082   7.676  33.135   7.535
  247POPC   NC3 6083  27.308  20.149   9.331
  247POPC   PO4 6084  27.809  20.559   9.526
  247POPC   GL1 6085  27.636  20.507   9.147
  247POPC   GL2 6086  27.813  20.182   9.127
  247POPC   C1A 6087  27.585  20.751   8.763
  247POPC   D2A 6088  27.416  21.064   8.461
  247POPC   C3A 6089  27.208  20.911   8.123
  247POPC   C4A 6090  27.366  20.728   7.757
  247POPC   C1B 6091  27.585  20.216   8.726
  247POPC   C2B 6092  27.613  20.452   8.348
  247POPC   C3B 6093  27.608  20.303   7.966
  247POPC   C4B 6094  27.297  20.226   7.726
  248POPC   NC3 6095  12.415   8.641   9.433
  248POPC   PO4 6096  11.889   9.029   9.451
  248POPC   GL1 6097  11.985   8.813   9.126
  248POPC   GL2 6098  11.684   8.617   9.203
  248POPC   C1A 6099  12.204   8.851   8.723
  248POPC   D2A 6100  12.143   9.070   8.321
  248POPC   C3A 6101  12.309   8.927   7.917
  248POPC   C4A 6102  12.216   9.127   7.540
  248POPC   C1B 6103  11.730   8.577   8.758
  248POPC   C2B 6104  11.789   8.413   8.373
  248POPC   C3B 6105  11.937   8.608   8.028
  248POPC   C4B 6106  11.859   8.724   7.610
  249POPC   NC3 6107  10.061   3.981   9.379
  249POPC   PO4 6108   9.460   4.310   9.495
  249POPC   GL1 6109   9.769   4.468   9.165
  249POPC   GL2 6110  10.127   4.559   9.286
  249POPC   C1A 6111   9.708   4.509   8.716
  249POPC   D2A 6112   9.374   4.638   8.397
  249POPC   C3A 6113   9.529   4.568   7.973
  249POPC   C4A 6114   9.677   4.465   7.549
  249POPC   C1B 6115  10.241   4.671   8.843
  249POPC   C2B 6116  10.105   4.607   8.389
  249POPC   C3B 6117  10.037   4.465   7.958
  249POPC   C4B 6118  10.146   4.275   7.559
  250POPC   NC3 6119  34.399  19.038   9.483
  250POPC   PO4 6120  34.996  19.230   9.515
  250POPC   GL1 6121  34.793  19.007   9.143
  250POPC   GL2 6122  34.497  19.203   9.017
  250POPC   C1A 6123  34.812  19.012   8.673
  250POPC   D2A 6124  34.510  19.225   8.372
  250POPC   C3A 6125  34.529  19.217   7.904
  250POPC   C4A 6126  34.573  18.913   7.538
  250POPC   C1B 6127  34.241  18.864   8.813
  250POPC   C2B 6128  34.013  18.796   8.413
  250POPC   C3B 6129  34.130  18.924   8.006
  250POPC   C4B 6130  34.096  19.072   7.575
  251POPC   NC3 6131   1.576   7.711   9.300
  251POPC   PO4 6132   1.379   8.275   9.586
  251POPC   GL1 6133   1.280   8.234   9.169
  251POPC   GL2 6134   1.119   7.911   9.145
  251POPC   C1A 6135   1.355   8.459   8.788
  251POPC   D2A 6136   1.550   8.464   8.382
  251POPC   C3A 6137   1.231   8.451   8.072
  251POPC   C4A 6138   1.109   8.128   7.825
  251POPC   C1B 6139   1.008   7.795   8.711
  251POPC   C2B 6140   1.125   7.891   8.279
  251POPC   C3B 6141   1.301   7.673   7.897
  251POPC   C4B 6142   0.980   7.708   7.547
  252POPC   NC3 6143  40.476  18.880   9.249
  252POPC   PO4 6144  40.896  19.376   9.463
  252POPC   GL1 6145  40.855  19.120   9.037
  252POPC   GL2 6146  40.955  18.748   9.011
  252POPC   C1A 6147  40.735  19.222   8.591
  252POPC   D2A 6148  40.970  19.359   8.209
  252POPC   C3A 6149  40.798  19.272   7.786
  252POPC   C4A 6150  40.480  19.053   7.509
  252POPC   C1B 6151  40.651  18.699   8.648
  252POPC   C2B 6152  40.593  18.888   8.246
  252POPC   C3B 6153  40.660  18.772   7.879
  252POPC   C4B 6154  40.555  18.518   7.606
  253POPC   NC3 6155   1.643  28.805   9.497
  253POPC   PO4 6156   1.106  29.319   9.546
  253POPC   GL1 6157   1.148  29.148   9.185
  253POPC   GL2 6158   0.825  29.205   9.082
  253POPC   C1A 6159   1.339  29.196   8.764
  253POPC   D2A 6160   1.296  29.428   8.371
  253POPC   C3A 6161   1.338  29.220   7.944
  253POPC   C4A 6162   1.608  29.102   7.591
  253POPC   C1B 6163   0.954  28.891   8.800
  253POPC   C2B 6164   1.110  28.933   8.368
  253POPC   C3B 6165   0.861  29.007   8.014
  253POPC   C4B 6166   0.743  28.854   7.631
  254POPC   NC3 6167  43.094   6.224   9.642
  254POPC   PO4 6168  42.934   5.627   9.503
  254POPC   GL1 6169  42.978   5.930   9.208
  254POPC   GL2 6170  42.829   5.718   8.962
  254POPC   C1A 6171  43.123   6.087   8.806
  254POPC   D2A 6172  42.932   5.939   8.399
  254POPC   C3A 6173  43.105   6.161   8.051
  254POPC   C4A 6174  43.392   6.254   7.713
  254POPC   C1B 6175  43.175   5.561   8.674
  254POPC   C2B 6176  43.181   5.521   8.204
  254POPC   C3B 6177  43.278   5.758   7.808
  254POPC   C4B 6178  43.364   5.876   7.361
  255POPC   NC3 6179  23.996  20.146   9.473
  255POPC   PO4 6180  23.545  20.559   9.360
  255POPC   GL1 6181  23.821  20.655   9.043
  255POPC   GL2 6182  23.897  20.313   9.013
  255POPC   C1A 6183  23.699  20.634   8.610
  255POPC   D2A 6184  23.522  20.339   8.319
  255POPC   C3A 6185  23.526  20.577   7.962
  255POPC   C4A 6186  23.907  20.772   7.828
  255POPC   C1B 6187  24.160  20.408   8.704
  255POPC   C2B 6188  24.085  20.486   8.284
  255POPC   C3B 6189  23.919  20.278   7.960
  255POPC   C4B 6190  24.141  20.343   7.651
  256POPC   NC3 6191  33.666  44.240   9.587
  256POPC   PO4 6192  34.001  44.749   9.438
  256POPC   GL1 6193  33.648  44.652   9.205
  256POPC   GL2 6194  33.797  44.374   9.043
  256POPC   C1A 6195  33.487  44.684   8.777
  256POPC   D2A 6196  33.456  44.974   8.422
  256POPC   C3A 6197  33.637  44.730   8.064
  256POPC   C4A 6198  33.667  44.369   7.721
  256POPC   C1B 6199  34.062  44.637   8.725
  256POPC   C2B 6200  34.120  44.676   8.255
  256POPC   C3B 6201  34.105  44.616   7.803
  256POPC   C4B 6202  33.991  44.568   7.337
  257POPC   NC3 6203  10.424  41.782   9.681
  257POPC   PO4 6204  10.186  41.210   9.703
  257POPC   GL1 6205  10.434  41.479   9.272
  257POPC   GL2 6206  10.529  41.846   9.169
  257POPC   C1A 6207  10.445  41.503   8.783
  257POPC   D2A 6208  10.460  41.295   8.376
  257POPC   C3A 6209  10.452  41.526   8.001
  257POPC   C4A 6210  10.145  41.535   7.655
  257POPC   C1B 6211  10.823  41.843   8.774
  257POPC   C2B 6212  10.864  41.612   8.342
  257POPC   C3B 6213  10.954  41.718   7.905
  257POPC   C4B 6214  11.006  41.707   7.436
  258POPC   NC3 6215  33.909  17.232   9.407
  258POPC   PO4 6216  33.479  16.605   9.449
  258POPC   GL1 6217  33.781  16.673   9.124
  258POPC   GL2 6218  33.617  16.968   9.080
  258POPC   C1A 6219  33.849  16.792   8.672
  258POPC   D2A 6220  34.177  16.731   8.359
  258POPC   C3A 6221  33.890  16.805   8.023
  258POPC   C4A 6222  33.737  16.943   7.632
  258POPC   C1B 6223  33.355  17.009   8.754
  258POPC   C2B 6224  33.449  16.839   8.371
  258POPC   C3B 6225  33.399  16.992   8.008
  258POPC   C4B 6226  33.264  16.759   7.667
  259POPC   NC3 6227  29.419  21.369   9.606
  259POPC   PO4 6228  28.891  21.764   9.514
  259POPC   GL1 6229  29.074  21.451   9.189
  259POPC   GL2 6230  28.885  21.133   9.022
  259POPC   C1A 6231  29.329  21.344   8.809
  259POPC   D2A 6232  29.481  21.260   8.394
  259POPC   C3A 6233  29.285  21.074   8.062
  259POPC   C4A 6234  29.160  21.336   7.772
  259POPC   C1B 6235  29.060  20.941   8.675
  259POPC   C2B 6236  28.947  20.756   8.306
  259POPC   C3B 6237  28.799  20.940   7.907
  259POPC   C4B 6238  28.892  21.007   7.473
  260POPC   NC3 6239  12.453   3.541   9.341
  260POPC   PO4 6240  13.112   3.586   9.519
  260POPC   GL1 6241  13.020   3.486   9.094
  260POPC   GL2 6242  12.772   3.220   9.042
  260POPC   C1A 6243  12.982   3.720   8.700
  260POPC   D2A 6244  12.845   3.851   8.280
  260POPC   C3A 6245  12.965   3.516   7.999
  260POPC   C4A 6246  13.063   3.660   7.606
  260POPC   C1B 6247  12.540   3.442   8.688
  260POPC   C2B 6248  12.493   3.505   8.226
  260POPC   C3B 6249  12.493   3.331   7.819
  260POPC   C4B 6250  12.595   3.479   7.387
  261POPC   NC3 6251  35.753   0.986   9.562
  261POPC   PO4 6252  36.364   1.281   9.438
  261POPC   GL1 6253  36.249   1.376   9.038
  261POPC   GL2 6254  35.925   1.226   9.113
  261POPC   C1A 6255  36.341   1.617   8.694
  261POPC   D2A 6256  36.120   1.437   8.368
  261POPC   C3A 6257  36.201   1.127   8.044
  261POPC   C4A 6258  36.244   1.229   7.599
  261POPC   C1B 6259  35.776   1.422   8.752
  261POPC   C2B 6260  35.644   1.309   8.337
  261POPC   C3B 6261  35.819   1.455   7.941
  261POPC   C4B 6262  35.763   1.361   7.492
  262POPC   NC3 6263  16.338   9.330   9.288
  262POPC   PO4 6264  15.852   9.781   9.517
  262POPC   GL1 6265  15.984   9.670   9.151
  262POPC   GL2 6266  16.264   9.851   9.159
  262POPC   C1A 6267  15.995   9.527   8.752
  262POPC   D2A 6268  15.764   9.542   8.405
  262POPC   C3A 6269  15.980   9.754   8.122
  262POPC   C4A 6270  16.041   9.633   7.720
  262POPC   C1B 6271  16.153  10.027   8.792
  262POPC   C2B 6272  16.367  10.009   8.431
  262POPC   C3B 6273  16.226  10.214   8.110
  262POPC   C4B 6274  16.092  10.136   7.769
  263POPC   NC3 6275   3.502  31.753   9.464
  263POPC   PO4 6276   3.400  31.160   9.817
  263POPC   GL1 6277   3.402  31.287   9.313
  263POPC   GL2 6278   3.252  31.500   9.082
  263POPC   C1A 6279   3.623  31.270   8.869
  263POPC   D2A 6280   3.383  31.302   8.492
  263POPC   C3A 6281   3.571  31.231   8.090
  263POPC   C4A 6282   3.598  31.395   7.687
  263POPC   C1B 6283   3.461  31.775   8.745
  263POPC   C2B 6284   3.510  31.962   8.318
  263POPC   C3B 6285   3.653  31.870   7.894
  263POPC   C4B 6286   3.447  31.833   7.474
  264POPC   NC3 6287  32.715   5.638   9.372
  264POPC   PO4 6288  32.174   5.894   9.588
  264POPC   GL1 6289  32.162   5.978   9.179
  264POPC   GL2 6290  32.502   6.077   9.146
  264POPC   C1A 6291  32.220   5.835   8.765
  264POPC   D2A 6292  32.360   5.918   8.342
  264POPC   C3A 6293  32.108   5.858   7.974
  264POPC   C4A 6294  32.191   5.997   7.546
  264POPC   C1B 6295  32.643   6.135   8.751
  264POPC   C2B 6296  32.882   5.992   8.404
  264POPC   C3B 6297  32.782   6.001   7.962
  264POPC   C4B 6298  32.658   5.773   7.576
  265POPC   NC3 6299  43.048  30.005   9.526
  265POPC   PO4 6300  43.285  29.497   9.346
  265POPC   GL1 6301  43.083  29.776   9.079
  265POPC   GL2 6302  43.289  30.090   9.080
  265POPC   C1A 6303  43.230  29.759   8.667
  265POPC   D2A 6304  43.120  29.442   8.344
  265POPC   C3A 6305  43.122  29.697   8.004
  265POPC   C4A 6306  43.413  29.837   7.721
  265POPC   C1B 6307  43.250  30.412   8.752
  265POPC   C2B 6308  43.056  30.441   8.358
  265POPC   C3B 6309  43.111  30.426   7.909
  265POPC   C4B 6310  42.954  30.089   7.697
  266POPC   NC3 6311   6.859  33.543   9.555
  266POPC   PO4 6312   7.125  34.047   9.469
  266POPC   GL1 6313   7.204  33.725   9.175
  266POPC   GL2 6314   7.086  33.403   9.131
  266POPC   C1A 6315   7.156  33.788   8.755
  266POPC   D2A 6316   7.466  33.834   8.458
  266POPC   C3A 6317   7.276  33.902   8.090
  266POPC   C4A 6318   7.426  33.725   7.753
  266POPC   C1B 6319   7.191  33.289   8.723
  266POPC   C2B 6320   7.199  33.419   8.315
  266POPC   C3B 6321   7.330  33.275   7.928
  266POPC   C4B 6322   7.202  33.344   7.476
  267POPC   NC3 6323  26.056  16.522   9.524
  267POPC   PO4 6324  26.024  17.186   9.456
  267POPC   GL1 6325  26.022  16.887   9.146
  267POPC   GL2 6326  26.396  16.832   9.245
  267POPC   C1A 6327  25.842  16.653   8.777
  267POPC   D2A 6328  25.745  16.525   8.323
  267POPC   C3A 6329  25.868  16.847   8.010
  267POPC   C4A 6330  25.931  16.714   7.579
  267POPC   C1B 6331  26.375  16.644   8.840
  267POPC   C2B 6332  26.219  16.730   8.426
  267POPC   C3B 6333  26.248  16.531   8.045
  267POPC   C4B 6334  26.392  16.836   7.727
  268POPC   NC3 6335  40.856  15.986   9.446
  268POPC   PO4 6336  40.252  16.117   9.627
  268POPC   GL1 6337  40.384  16.123   9.192
  268POPC   GL2 6338  40.525  15.774   9.127
  268POPC   C1A 6339  40.635  16.172   8.801
  268POPC   D2A 6340  40.899  15.911   8.579
  268POPC   C3A 6341  40.866  15.906   8.141
  268POPC   C4A 6342  40.833  16.154   7.772
  268POPC   C1B 6343  40.603  15.528   8.712
  268POPC   C2B 6344  40.501  15.551   8.243
  268POPC   C3B 6345  40.516  15.733   7.799
  268POPC   C4B 6346  40.442  15.618   7.340
  269POPC   NC3 6347  40.902   2.981   9.504
  269POPC   PO4 6348  40.347   2.532   9.460
  269POPC   GL1 6349  40.651   2.722   9.136
  269POPC   GL2 6350  41.036   2.860   9.042
  269POPC   C1A 6351  40.659   2.808   8.699
  269POPC   D2A 6352  40.658   3.029   8.348
  269POPC   C3A 6353  40.686   2.880   7.932
  269POPC   C4A 6354  40.666   2.837   7.480
  269POPC   C1B 6355  41.124   3.014   8.605
  269POPC   C2B 6356  41.047   2.708   8.306
  269POPC   C3B 6357  41.172   2.464   8.001
  269POPC   C4B 6358  40.998   2.449   7.614
  270POPC   NC3 6359  44.875   3.947   9.363
  270POPC   PO4 6360  44.439   3.416   9.442
  270POPC   GL1 6361  44.488   3.704   9.109
  270POPC   GL2 6362  44.811   3.549   9.055
  270POPC   C1A 6363  44.654   3.799   8.654
  270POPC   D2A 6364  44.847   3.522   8.334
  270POPC   C3A 6365  44.661   3.653   7.957
  270POPC   C4A 6366  44.559   3.441   7.556
  270POPC   C1B 6367  44.673   3.289   8.760
  270POPC   C2B 6368  44.454   3.178   8.406
  270POPC   C3B 6369  44.522   3.128   7.974
  270POPC   C4B 6370  44.223   3.046   7.649
  271POPC   NC3 6371  19.171  33.251   9.462
  271POPC   PO4 6372  18.768  32.772   9.517
  271POPC   GL1 6373  18.953  32.925   9.119
  271POPC   GL2 6374  19.308  32.985   9.060
  271POPC   C1A 6375  19.001  32.917   8.678
  271POPC   D2A 6376  19.001  33.089   8.289
  271POPC   C3A 6377  19.204  33.007   7.937
  271POPC   C4A 6378  18.935  33.064   7.593
  271POPC   C1B 6379  19.501  32.808   8.695
  271POPC   C2B 6380  19.586  32.850   8.265
  271POPC   C3B 6381  19.569  32.659   7.851
  271POPC   C4B 6382  19.371  32.827   7.486
  272POPC   NC3 6383   4.711  24.324   9.612
  272POPC   PO4 6384   5.220  24.709   9.381
  272POPC   GL1 6385   4.941  24.574   9.091
  272POPC   GL2 6386   4.863  24.230   9.073
  272POPC   C1A 6387   4.895  24.559   8.646
  272POPC   D2A 6388   5.268  24.703   8.430
  272POPC   C3A 6389   5.220  24.689   7.996
  272POPC   C4A 6390   4.885  24.597   7.725
  272POPC   C1B 6391   5.266  24.219   8.734
  272POPC   C2B 6392   5.370  24.239   8.255
  272POPC   C3B 6393   5.262  24.188   7.799
  272POPC   C4B 6394   4.912  24.143   7.502
  273POPC   NC3 6395   7.800  12.048   9.491
  273POPC   PO4 6396   7.333  11.672   9.389
  273POPC   GL1 6397   7.645  11.728   9.074
  273POPC   GL2 6398   7.586  12.094   9.035
  273POPC   C1A 6399   7.612  11.798   8.622
  273POPC   D2A 6400   7.492  12.170   8.375
  273POPC   C3A 6401   7.331  12.034   7.974
  273POPC   C4A 6402   6.947  12.144   7.784
  273POPC   C1B 6403   7.887  12.228   8.750
  273POPC   C2B 6404   7.993  12.124   8.333
  273POPC   C3B 6405   7.804  12.240   7.942
  273POPC   C4B 6406   7.759  11.964   7.631
  274POPC   NC3 6407  34.975  44.032   9.550
  274POPC   PO4 6408  34.612  43.504   9.546
  274POPC   GL1 6409  34.680  43.742   9.168
  274POPC   GL2 6410  35.014  43.647   9.196
  274POPC   C1A 6411  34.554  43.852   8.711
  274POPC   D2A 6412  34.442  43.601   8.328
  274POPC   C3A 6413  34.314  43.842   7.948
  274POPC   C4A 6414  34.055  43.721   7.564
  274POPC   C1B 6415  35.035  43.996   8.883
  274POPC   C2B 6416  34.948  44.189   8.494
  274POPC   C3B 6417  35.048  44.126   8.054
  274POPC   C4B 6418  34.785  43.963   7.714
  275POPC   NC3 6419  18.245  24.281   9.544
  275POPC   PO4 6420  18.346  24.883   9.333
  275POPC   GL1 6421  18.383  24.499   9.074
  275POPC   GL2 6422  18.273  24.142   9.054
  275POPC   C1A 6423  18.361  24.489   8.605
  275POPC   D2A 6424  18.135  24.818   8.341
  275POPC   C3A 6425  18.004  24.697   7.956
  275POPC   C4A 6426  18.314  24.468   7.739
  275POPC   C1B 6427  18.068  24.012   8.723
  275POPC   C2B 6428  18.197  24.051   8.309
  275POPC   C3B 6429  17.967  24.172   7.961
  275POPC   C4B 6430  18.027  24.109   7.543
  276POPC   NC3 6431  25.557  34.910   9.438
  276POPC   PO4 6432  25.503  35.620   9.458
  276POPC   GL1 6433  25.336  35.302   9.182
  276POPC   GL2 6434  24.978  35.245   9.195
  276POPC   C1A 6435  25.426  35.321   8.755
  276POPC   D2A 6436  25.569  35.633   8.447
  276POPC   C3A 6437  25.544  35.522   8.006
  276POPC   C4A 6438  25.411  35.169   7.780
  276POPC   C1B 6439  25.012  35.579   8.879
  276POPC   C2B 6440  25.062  35.731   8.462
  276POPC   C3B 6441  25.021  35.643   8.038
  276POPC   C4B 6442  24.961  35.532   7.597
  277POPC   NC3 6443  19.520  44.065   9.596
  277POPC   PO4 6444  18.898  43.723   9.628
  277POPC   GL1 6445  19.015  44.088   9.308
  277POPC   GL2 6446  19.291  43.964   9.156
  277POPC   C1A 6447  18.947  44.220   8.829
  277POPC   D2A 6448  18.713  44.208   8.388
  277POPC   C3A 6449  19.006  44.162   7.986
  277POPC   C4A 6450  18.924  43.740   7.811
  277POPC   C1B 6451  19.267  43.797   8.776
  277POPC   C2B 6452  19.189  43.957   8.406
  277POPC   C3B 6453  19.384  43.783   8.051
  277POPC   C4B 6454  19.383  43.463   7.726
  278POPC   NC3 6455  24.025  11.801   9.514
  278POPC   PO4 6456  24.677  11.985   9.410
  278POPC   GL1 6457  24.390  11.805   9.107
  278POPC   GL2 6458  24.123  12.051   9.093
  278POPC   C1A 6459  24.494  11.854   8.657
  278POPC   D2A 6460  24.670  12.241   8.456
  278POPC   C3A 6461  24.779  12.221   8.013
  278POPC   C4A 6462  24.617  11.943   7.720
  278POPC   C1B 6463  23.989  11.874   8.699
  278POPC   C2B 6464  24.144  12.030   8.297
  278POPC   C3B 6465  24.078  12.140   7.853
  278POPC   C4B 6466  23.823  12.030   7.459
  279POPC   NC3 6467  21.201  41.996   9.442
  279POPC   PO4 6468  21.240  42.677   9.546
  279POPC   GL1 6469  21.280  42.445   9.175
  279POPC   GL2 6470  21.554  42.644   9.085
  279POPC   C1A 6471  21.205  42.177   8.787
  279POPC   D2A 6472  21.096  42.018   8.357
  279POPC   C3A 6473  21.308  42.102   7.941
  279POPC   C4A 6474  21.597  42.272   7.642
  279POPC   C1B 6475  21.270  42.678   8.728
  279POPC   C2B 6476  21.233  42.492   8.322
  279POPC   C3B 6477  21.256  42.609   7.893
  279POPC   C4B 6478  21.151  42.524   7.466
  280POPC   NC3 6479  21.703  17.112   9.550
  280POPC   PO4 6480  20.989  17.260   9.529
  280POPC   GL1 6481  21.303  17.224   9.196
  280POPC   GL2 6482  21.510  17.530   9.250
  280POPC   C1A 6483  21.356  17.284   8.748
  280POPC   D2A 6484  21.155  17.603   8.483
  280POPC   C3A 6485  21.299  17.449   8.100
  280POPC   C4A 6486  21.239  17.533   7.655
  280POPC   C1B 6487  21.482  17.765   8.862
  280POPC   C2B 6488  21.665  17.673   8.447
  280POPC   C3B 6489  21.631  17.803   7.977
  280POPC   C4B 6490  21.692  17.707   7.496
  281POPC   NC3 6491  22.002  31.382   9.462
  281POPC   PO4 6492  22.475  31.818   9.511
  281POPC   GL1 6493  22.526  31.644   9.086
  281POPC   GL2 6494  22.378  31.317   9.089
  281POPC   C1A 6495  22.398  31.615   8.652
  281POPC   D2A 6496  21.971  31.592   8.482
  281POPC   C3A 6497  21.962  31.572   8.058
  281POPC   C4A 6498  22.085  31.369   7.688
  281POPC   C1B 6499  22.187  31.149   8.714
  281POPC   C2B 6500  22.312  31.230   8.272
  281POPC   C3B 6501  22.448  30.960   7.947
  281POPC   C4B 6502  22.363  30.854   7.512
  282POPC   NC3 6503  37.980   6.605   9.443
  282POPC   PO4 6504  37.486   7.161   9.446
  282POPC   GL1 6505  37.649   6.855   9.141
  282POPC   GL2 6506  37.940   7.007   9.067
  282POPC   C1A 6507  37.887   6.585   8.797
  282POPC   D2A 6508  38.062   6.611   8.382
  282POPC   C3A 6509  37.831   6.631   8.003
  282POPC   C4A 6510  37.775   6.688   7.582
  282POPC   C1B 6511  37.698   7.043   8.669
  282POPC   C2B 6512  37.658   7.051   8.224
  282POPC   C3B 6513  37.448   6.991   7.826
  282POPC   C4B 6514  37.422   7.056   7.374
  283POPC   NC3 6515  19.116   7.082   9.524
  283POPC   PO4 6516  19.107   6.391   9.474
  283POPC   GL1 6517  19.173   6.732   9.150
  283POPC   GL2 6518  18.831   6.899   9.140
  283POPC   C1A 6519  19.116   6.861   8.705
  283POPC   D2A 6520  19.083   6.493   8.422
  283POPC   C3A 6521  19.041   6.543   7.978
  283POPC   C4A 6522  19.284   6.821   7.683
  283POPC   C1B 6523  18.661   6.678   8.774
  283POPC   C2B 6524  18.680   6.819   8.372
  283POPC   C3B 6525  18.792   7.034   8.037
  283POPC   C4B 6526  18.775   6.869   7.706
  284POPC   NC3 6527   8.607  43.419   9.390
  284POPC   PO4 6528   9.125  43.831   9.423
  284POPC   GL1 6529   9.074  43.662   9.041
  284POPC   GL2 6530   8.746  43.781   9.040
  284POPC   C1A 6531   9.023  43.801   8.611
  284POPC   D2A 6532   9.212  44.154   8.368
  284POPC   C3A 6533   9.275  44.037   7.914
  284POPC   C4A 6534   9.232  43.692   7.608
  284POPC   C1B 6535   8.555  43.556   8.703
  284POPC   C2B 6536   8.690  43.486   8.268
  284POPC   C3B 6537   8.800  43.761   7.910
  284POPC   C4B 6538   8.752  43.797   7.453
  285POPC   NC3 6539  21.624   3.452   9.454
  285POPC   PO4 6540  21.127   3.900   9.471
  285POPC   GL1 6541  21.153   3.522   9.220
  285POPC   GL2 6542  21.433   3.623   9.014
  285POPC   C1A 6543  21.051   3.314   8.819
  285POPC   D2A 6544  21.186   3.507   8.435
  285POPC   C3A 6545  20.980   3.481   8.029
  285POPC   C4A 6546  21.132   3.676   7.648
  285POPC   C1B 6547  21.580   3.267   8.784
  285POPC   C2B 6548  21.712   3.362   8.390
  285POPC   C3B 6549  21.502   3.455   8.009
  285POPC   C4B 6550  21.790   3.419   7.691
  286POPC   NC3 6551  10.281  11.197   9.493
  286POPC   PO4 6552   9.564  11.409   9.490
  286POPC   GL1 6553   9.843  11.289   9.178
  286POPC   GL2 6554  10.100  11.585   9.222
  286POPC   C1A 6555   9.804  11.119   8.748
  286POPC   D2A 6556   9.682  11.253   8.362
  286POPC   C3A 6557   9.720  11.035   7.992
  286POPC   C4A 6558   9.463  11.238   7.683
  286POPC   C1B 6559  10.243  11.341   8.834
  286POPC   C2B 6560  10.208  11.159   8.430
  286POPC   C3B 6561  10.180  11.402   8.059
  286POPC   C4B 6562   9.998  11.348   7.692
  287POPC   NC3 6563  14.013   8.576   9.444
  287POPC   PO4 6564  14.007   9.296   9.412
  287POPC   GL1 6565  13.685   9.202   9.146
  287POPC   GL2 6566  13.758   8.851   9.082
  287POPC   C1A 6567  13.506   9.214   8.739
  287POPC   D2A 6568  13.555   9.021   8.342
  287POPC   C3A 6569  13.595   9.129   7.923
  287POPC   C4A 6570  13.731   8.727   7.701
  287POPC   C1B 6571  13.581   8.660   8.719
  287POPC   C2B 6572  13.245   8.626   8.386
  287POPC   C3B 6573  13.307   8.667   7.962
  287POPC   C4B 6574  13.270   8.536   7.521
  288POPC   NC3 6575  17.030   7.864   9.293
  288POPC   PO4 6576  16.659   8.389   9.594
  288POPC   GL1 6577  16.718   8.251   9.156
  288POPC   GL2 6578  16.485   8.453   9.017
  288POPC   C1A 6579  16.953   8.145   8.740
  288POPC   D2A 6580  17.135   8.289   8.392
  288POPC   C3A 6581  17.104   8.077   7.981
  288POPC   C4A 6582  17.032   7.983   7.526
  288POPC   C1B 6583  16.562   8.399   8.555
  288POPC   C2B 6584  16.649   8.041   8.286
  288POPC   C3B 6585  16.640   7.938   7.849
  288POPC   C4B 6586  16.422   8.250   7.600
  289POPC   NC3 6587  15.450  15.969   9.652
  289POPC   PO4 6588  14.899  16.271   9.469
  289POPC   GL1 6589  15.178  16.050   9.186
  289POPC   GL2 6590  15.536  16.138   9.172
  289POPC   C1A 6591  15.115  15.865   8.771
  289POPC   D2A 6592  15.227  15.792   8.327
  289POPC   C3A 6593  14.901  15.751   8.017
  289POPC   C4A 6594  14.776  15.408   7.770
  289POPC   C1B 6595  15.608  15.982   8.754
  289POPC   C2B 6596  15.584  16.165   8.340
  289POPC   C3B 6597  15.354  16.124   7.929
  289POPC   C4B 6598  15.396  16.088   7.456
  290POPC   NC3 6599   9.284  31.526   9.895
  290POPC   PO4 6600   8.812  31.271   9.459
  290POPC   GL1 6601   9.014  31.418   9.097
  290POPC   GL2 6602   8.897  31.749   9.082
  290POPC   C1A 6603   9.158  31.252   8.682
  290POPC   D2A 6604   8.883  31.023   8.373
  290POPC   C3A 6605   8.808  31.202   7.963
  290POPC   C4A 6606   9.124  31.406   7.732
  290POPC   C1B 6607   8.897  31.679   8.668
  290POPC   C2B 6608   9.036  31.541   8.280
  290POPC   C3B 6609   8.866  31.755   7.979
  290POPC   C4B 6610   9.065  32.034   7.744
  291POPC   NC3 6611  24.197  10.045   9.559
  291POPC   PO4 6612  24.463   9.376   9.435
  291POPC   GL1 6613  24.463   9.681   9.141
  291POPC   GL2 6614  24.159   9.820   9.110
  291POPC   C1A 6615  24.483   9.720   8.691
  291POPC   D2A 6616  24.657   9.850   8.298
  291POPC   C3A 6617  24.483   9.633   7.962
  291POPC   C4A 6618  24.599   9.417   7.631
  291POPC   C1B 6619  24.151  10.125   8.728
  291POPC   C2B 6620  24.337  10.287   8.367
  291POPC   C3B 6621  24.337  10.126   7.980
  291POPC   C4B 6622  24.055   9.836   7.777
  292POPC   NC3 6623   8.334  21.670   9.516
  292POPC   PO4 6624   8.253  22.258   9.530
  292POPC   GL1 6625   8.116  22.034   9.164
  292POPC   GL2 6626   8.408  21.843   9.045
  292POPC   C1A 6627   8.066  22.103   8.716
  292POPC   D2A 6628   8.197  21.936   8.328
  292POPC   C3A 6629   8.039  22.110   7.930
  292POPC   C4A 6630   7.965  22.530   7.775
  292POPC   C1B 6631   8.579  22.086   8.706
  292POPC   C2B 6632   8.661  22.092   8.278
  292POPC   C3B 6633   8.530  21.862   7.914
  292POPC   C4B 6634   8.285  21.859   7.517
  293POPC   NC3 6635  22.101  30.401   9.418
  293POPC   PO4 6636  22.407  31.051   9.524
  293POPC   GL1 6637  22.203  30.838   9.182
  293POPC   GL2 6638  21.867  30.961   9.151
  293POPC   C1A 6639  22.109  30.611   8.797
  293POPC   D2A 6640  22.258  30.727   8.405
  293POPC   C3A 6641  22.299  30.408   8.132
  293POPC   C4A 6642  22.130  30.462   7.736
  293POPC   C1B 6643  21.705  30.908   8.719
  293POPC   C2B 6644  21.822  31.077   8.328
  293POPC   C3B 6645  21.953  30.899   7.927
  293POPC   C4B 6646  21.878  30.944   7.470
  294POPC   NC3 6647  35.041  41.298   9.430
  294POPC   PO4 6648  35.778  41.225   9.432
  294POPC   GL1 6649  35.444  41.363   9.110
  294POPC   GL2 6650  35.315  41.727   9.160
  294POPC   C1A 6651  35.306  41.492   8.691
  294POPC   D2A 6652  35.412  41.871   8.402
  294POPC   C3A 6653  35.384  41.730   7.959
  294POPC   C4A 6654  35.664  41.776   7.548
  294POPC   C1B 6655  35.080  41.927   8.794
  294POPC   C2B 6656  34.922  41.744   8.387
  294POPC   C3B 6657  34.831  41.598   7.983
  294POPC   C4B 6658  35.017  41.279   7.814
  295POPC   NC3 6659  30.293  38.359   9.491
  295POPC   PO4 6660  30.694  38.896   9.569
  295POPC   GL1 6661  30.546  38.670   9.172
  295POPC   GL2 6662  30.607  38.274   9.103
  295POPC   C1A 6663  30.453  38.588   8.720
  295POPC   D2A 6664  30.477  38.359   8.317
  295POPC   C3A 6665  30.389  38.615   7.925
  295POPC   C4A 6666  30.579  38.540   7.479
  295POPC   C1B 6667  30.952  38.427   8.868
  295POPC   C2B 6668  30.973  38.543   8.429
  295POPC   C3B 6669  30.868  38.463   7.977
  295POPC   C4B 6670  31.085  38.544   7.593
  296POPC   NC3 6671  38.905  17.142   9.501
  296POPC   PO4 6672  39.042  17.747   9.649
  296POPC   GL1 6673  38.998  17.555   9.202
  296POPC   GL2 6674  39.261  17.371   9.196
  296POPC   C1A 6675  39.080  17.486   8.730
  296POPC   D2A 6676  39.330  17.629   8.378
  296POPC   C3A 6677  39.164  17.439   8.058
  296POPC   C4A 6678  38.935  17.486   7.705
  296POPC   C1B 6679  39.456  17.178   8.870
  296POPC   C2B 6680  39.483  17.041   8.465
  296POPC   C3B 6681  39.506  17.054   8.041
  296POPC   C4B 6682  39.429  17.292   7.638
  297POPC   NC3 6683  31.631  13.539   9.489
  297POPC   PO4 6684  31.011  13.299   9.497
  297POPC   GL1 6685  31.232  13.610   9.179
  297POPC   GL2 6686  31.589  13.821   9.071
  297POPC   C1A 6687  31.353  13.499   8.759
  297POPC   D2A 6688  31.399  13.641   8.356
  297POPC   C3A 6689  31.212  13.408   8.005
  297POPC   C4A 6690  31.256  13.818   7.857
  297POPC   C1B 6691  31.858  13.523   8.799
  297POPC   C2B 6692  31.834  13.357   8.367
  297POPC   C3B 6693  31.707  13.501   7.973
  297POPC   C4B 6694  31.662  13.695   7.566
  298POPC   NC3 6695   2.036  43.436   9.235
  298POPC   PO4 6696   1.783  42.842   9.249
  298POPC   GL1 6697   1.596  43.091   8.974
  298POPC   GL2 6698   1.433  42.802   8.792
  298POPC   C1A 6699   1.737  43.381   8.633
  298POPC   D2A 6700   1.931  43.553   8.249
  298POPC   C3A 6701   2.314  43.360   8.115
  298POPC   C4A 6702   2.223  43.061   7.798
  298POPC   C1B 6703   1.873  42.844   8.618
  298POPC   C2B 6704   1.977  43.018   8.247
  298POPC   C3B 6705   1.726  43.074   7.873
  298POPC   C4B 6706   1.426  42.878   7.570
  299POPC   NC3 6707  37.633  40.907   9.384
  299POPC   PO4 6708  37.522  40.269   9.479
  299POPC   GL1 6709  37.458  40.528   9.106
  299POPC   GL2 6710  37.848  40.597   9.032
  299POPC   C1A 6711  37.434  40.797   8.730
  299POPC   D2A 6712  37.601  40.718   8.294
  299POPC   C3A 6713  37.305  40.764   7.943
  299POPC   C4A 6714  37.353  41.047   7.598
  299POPC   C1B 6715  37.903  40.982   8.786
  299POPC   C2B 6716  37.679  41.210   8.482
  299POPC   C3B 6717  37.580  41.221   8.058
  299POPC   C4B 6718  37.804  40.931   7.825
  300POPC   NC3 6719  26.913  39.568   9.316
  300POPC   PO4 6720  26.660  38.953   9.407
  300POPC   GL1 6721  26.749  39.232   8.973
  300POPC   GL2 6722  26.650  39.616   8.914
  300POPC   C1A 6723  26.573  39.365   8.517
  300POPC   D2A 6724  26.522  39.594   8.166
  300POPC   C3A 6725  26.747  39.370   7.838
  300POPC   C4A 6726  26.992  38.957   7.829
  300POPC   C1B 6727  27.059  39.452   8.641
  300POPC   C2B 6728  27.192  39.316   8.198
  300POPC   C3B 6729  27.216  39.561   7.819
  300POPC   C4B 6730  27.372  39.649   7.440
  301POPC   NC3 6731  38.482  40.448   9.645
  301POPC   PO4 6732  38.133  41.060   9.505
  301POPC   GL1 6733  38.457  40.858   9.194
  301POPC   GL2 6734  38.550  40.474   9.125
  301POPC   C1A 6735  38.375  40.803   8.750
  301POPC   D2A 6736  38.063  40.535   8.530
  301POPC   C3A 6737  38.105  40.632   8.098
  301POPC   C4A 6738  38.351  40.935   7.861
  301POPC   C1B 6739  38.761  40.490   8.697
  301POPC   C2B 6740  38.589  40.513   8.268
  301POPC   C3B 6741  38.545  40.453   7.808
  301POPC   C4B 6742  38.592  40.232   7.404
  302POPC   NC3 6743  26.618  39.720   9.734
  302POPC   PO4 6744  27.161  40.008   9.515
  302POPC   GL1 6745  27.005  40.025   9.105
  302POPC   GL2 6746  26.770  40.219   9.181
  302POPC   C1A 6747  26.936  39.948   8.671
  302POPC   D2A 6748  27.006  39.800   8.254
  302POPC   C3A 6749  26.818  39.879   7.857
  302POPC   C4A 6750  26.861  39.720   7.433
  302POPC   C1B 6751  26.577  40.279   8.796
  302POPC   C2B 6752  26.451  40.050   8.453
  302POPC   C3B 6753  26.393  40.109   8.048
  302POPC   C4B 6754  26.469  40.177   7.640
  303POPC   NC3 6755  40.692   9.810   9.431
  303POPC   PO4 6756  41.013   9.161   9.496
  303POPC   GL1 6757  40.942   9.446   9.154
  303POPC   GL2 6758  40.598   9.425   9.073
  303POPC   C1A 6759  40.893   9.724   8.774
  303POPC   D2A 6760  41.029   9.793   8.354
  303POPC   C3A 6761  40.701   9.792   8.040
  303POPC   C4A 6762  40.827   9.699   7.629
  303POPC   C1B 6763  40.455   9.464   8.633
  303POPC   C2B 6764  40.627   9.320   8.258
  303POPC   C3B 6765  40.553   9.295   7.818
  303POPC   C4B 6766  40.405   9.276   7.370
  304POPC   NC3 6767  44.503  31.922   9.419
  304POPC   PO4 6768  44.811  31.268   9.514
  304POPC   GL1 6769  44.739  31.490   9.164
  304POPC   GL2 6770  44.978  31.747   9.090
  304POPC   C1A 6771  44.528  31.368   8.783
  304POPC   D2A 6772  44.565  31.482   8.341
  304POPC   C3A 6773  44.571  31.125   8.072
  304POPC   C4A 6774  44.735  31.074   7.683
  304POPC   C1B 6775  44.707  31.852   8.767
  304POPC   C2B 6776  44.725  32.012   8.356
  304POPC   C3B 6777  44.645  31.905   7.958
  304POPC   C4B 6778  44.542  31.533   7.782
  305POPC   NC3 6779  36.586  42.324   9.521
  305POPC   PO4 6780  36.012  42.148   9.528
  305POPC   GL1 6781  36.225  42.265   9.135
  305POPC   GL2 6782  36.388  42.626   9.153
  305POPC   C1A 6783  36.027  42.161   8.720
  305POPC   D2A 6784  35.757  42.288   8.362
  305POPC   C3A 6785  35.789  42.035   7.992
  305POPC   C4A 6786  36.077  42.042   7.640
  305POPC   C1B 6787  36.389  42.530   8.712
  305POPC   C2B 6788  36.397  42.262   8.351
  305POPC   C3B 6789  36.185  42.379   8.003
  305POPC   C4B 6790  36.321  42.643   7.701
  306POPC   NC3 6791  23.327   6.067   9.394
  306POPC   PO4 6792  22.891   5.543   9.387
  306POPC   GL1 6793  22.861   5.740   9.022
  306POPC   GL2 6794  22.736   6.080   9.148
  306POPC   C1A 6795  22.607   5.655   8.653
  306POPC   D2A 6796  22.693   5.486   8.260
  306POPC   C3A 6797  23.038   5.641   8.075
  306POPC   C4A 6798  22.783   5.619   7.704
  306POPC   C1B 6799  22.872   6.141   8.718
  306POPC   C2B 6800  22.715   6.038   8.292
  306POPC   C3B 6801  22.739   6.116   7.828
  306POPC   C4B 6802  23.158   5.970   7.711
  307POPC   NC3 6803  42.189   0.994   9.446
  307POPC   PO4 6804  42.885   1.095   9.490
  307POPC   GL1 6805  42.526   1.257   9.149
  307POPC   GL2 6806  42.131   1.421   9.187
  307POPC   C1A 6807  42.369   1.197   8.722
  307POPC   D2A 6808  42.095   1.035   8.357
  307POPC   C3A 6809  42.346   1.070   7.966
  307POPC   C4A 6810  42.688   1.339   7.787
  307POPC   C1B 6811  41.963   1.502   8.776
  307POPC   C2B 6812  42.178   1.563   8.386
  307POPC   C3B 6813  42.282   1.629   7.967
  307POPC   C4B 6814  42.087   1.583   7.597
  308POPC   NC3 6815  24.205   8.258   9.405
  308POPC   PO4 6816  24.805   8.513   9.277
  308POPC   GL1 6817  24.548   8.338   9.042
  308POPC   GL2 6818  24.333   8.565   9.025
  308POPC   C1A 6819  24.394   8.139   8.720
  308POPC   D2A 6820  24.543   8.009   8.338
  308POPC   C3A 6821  24.335   8.162   8.003
  308POPC   C4A 6822  24.381   7.880   7.721
  308POPC   C1B 6823  24.279   8.666   8.638
  308POPC   C2B 6824  24.528   8.562   8.310
  308POPC   C3B 6825  24.642   8.574   7.885
  308POPC   C4B 6826  24.216   8.583   7.710
  309POPC   NC3 6827  23.453  40.714   9.349
  309POPC   PO4 6828  24.031  41.058   9.483
  309POPC   GL1 6829  23.805  41.009   9.104
  309POPC   GL2 6830  23.480  41.127   9.051
  309POPC   C1A 6831  23.766  40.746   8.677
  309POPC   D2A 6832  23.963  40.539   8.333
  309POPC   C3A 6833  23.716  40.602   7.978
  309POPC   C4A 6834  23.419  40.695   7.685
  309POPC   C1B 6835  23.724  41.243   8.673
  309POPC   C2B 6836  23.647  41.055   8.271
  309POPC   C3B 6837  23.685  41.094   7.878
  309POPC   C4B 6838  23.983  41.202   7.649
  310POPC   NC3 6839  33.179  33.488   9.367
  310POPC   PO4 6840  33.308  34.025   9.146
  310POPC   GL1 6841  32.933  33.873   8.979
  310POPC   GL2 6842  32.662  34.023   9.109
  310POPC   C1A 6843  32.920  33.880   8.532
  310POPC   D2A 6844  33.245  33.795   8.201
  310POPC   C3A 6845  33.067  33.620   7.815
  310POPC   C4A 6846  32.794  33.689   7.518
  310POPC   C1B 6847  32.555  34.251   8.756
  310POPC   C2B 6848  32.667  34.310   8.340
  310POPC   C3B 6849  32.794  34.019   8.053
  310POPC   C4B 6850  32.521  34.010   7.769
  311POPC   NC3 6851  30.658  18.152   9.143
  311POPC   PO4 6852  31.213  18.138   9.556
  311POPC   GL1 6853  31.086  18.432   9.083
  311POPC   GL2 6854  30.788  18.640   9.011
  311POPC   C1A 6855  30.977  18.376   8.609
  311POPC   D2A 6856  30.560  18.161   8.461
  311POPC   C3A 6857  30.497  18.185   8.017
  311POPC   C4A 6858  30.860  18.138   7.821
  311POPC   C1B 6859  30.529  18.657   8.625
  311POPC   C2B 6860  30.703  18.598   8.224
  311POPC   C3B 6861  30.680  18.629   7.802
  311POPC   C4B 6862  30.882  18.610   7.415
  312POPC   NC3 6863   7.125  42.569   9.786
  312POPC   PO4 6864   6.608  42.188   9.603
  312POPC   GL1 6865   6.573  42.297   9.187
  312POPC   GL2 6866   6.580  41.942   9.100
  312POPC   C1A 6867   6.541  42.569   8.806
  312POPC   D2A 6868   6.433  42.852   8.451
  312POPC   C3A 6869   6.550  42.628   8.081
  312POPC   C4A 6870   6.524  42.393   7.704
  312POPC   C1B 6871   6.882  42.131   8.829
  312POPC   C2B 6872   6.741  42.231   8.434
  312POPC   C3B 6873   6.840  42.130   8.027
  312POPC   C4B 6874   7.010  42.205   7.669
  313POPC   NC3 6875  15.240  28.683   9.489
  313POPC   PO4 6876  14.930  28.112   9.444
  313POPC   GL1 6877  15.134  28.275   9.100
  313POPC   GL2 6878  15.472  28.415   9.127
  313POPC   C1A 6879  15.323  28.191   8.710
  313POPC   D2A 6880  15.259  28.337   8.346
  313POPC   C3A 6881  15.254  28.060   8.020
  313POPC   C4A 6882  15.134  28.328   7.711
  313POPC   C1B 6883  15.346  28.691   8.725
  313POPC   C2B 6884  15.212  28.855   8.310
  313POPC   C3B 6885  15.172  28.805   7.863
  313POPC   C4B 6886  15.421  28.689   7.482
  314POPC   NC3 6887  11.004  35.661   9.747
  314POPC   PO4 6888  11.278  36.202   9.478
  314POPC   GL1 6889  11.433  36.180   9.028
  314POPC   GL2 6890  11.671  35.929   9.053
  314POPC   C1A 6891  11.468  36.304   8.567
  314POPC   D2A 6892  11.266  36.309   8.132
  314POPC   C3A 6893  11.424  36.176   7.709
  314POPC   C4A 6894  11.322  36.188   7.224
  314POPC   C1B 6895  11.816  35.919   8.630
  314POPC   C2B 6896  11.662  35.958   8.221
  314POPC   C3B 6897  11.279  35.810   8.042
  314POPC   C4B 6898  11.359  35.662   7.644
  315POPC   NC3 6899  24.163  16.501   9.499
  315POPC   PO4 6900  24.882  16.777   9.456
  315POPC   GL1 6901  24.624  16.855   9.090
  315POPC   GL2 6902  24.576  16.513   9.071
  315POPC   C1A 6903  24.686  17.052   8.660
  315POPC   D2A 6904  24.983  17.074   8.305
  315POPC   C3A 6905  24.876  17.010   7.862
  315POPC   C4A 6906  24.508  17.049   7.655
  315POPC   C1B 6907  24.405  16.641   8.651
  315POPC   C2B 6908  24.493  16.797   8.214
  315POPC   C3B 6909  24.473  16.559   7.824
  315POPC   C4B 6910  24.346  16.317   7.458
  316POPC   NC3 6911  30.543  13.282   9.606
  316POPC   PO4 6912  30.303  13.891   9.356
  316POPC   GL1 6913  30.632  13.619   9.226
  316POPC   GL2 6914  30.479  13.326   9.122
  316POPC   C1A 6915  30.850  13.585   8.852
  316POPC   D2A 6916  30.930  13.429   8.462
  316POPC   C3A 6917  30.838  13.722   8.159
  316POPC   C4A 6918  30.804  13.580   7.746
  316POPC   C1B 6919  30.337  13.536   8.783
  316POPC   C2B 6920  30.403  13.487   8.377
  316POPC   C3B 6921  30.367  13.610   7.983
  316POPC   C4B 6922  30.336  13.328   7.699
  317POPC   NC3 6923   4.494  33.371   9.574
  317POPC   PO4 6924   4.243  33.988   9.564
  317POPC   GL1 6925   4.312  33.734   9.245
  317POPC   GL2 6926   4.075  33.460   9.325
  317POPC   C1A 6927   4.498  33.760   8.829
  317POPC   D2A 6928   4.649  33.782   8.430
  317POPC   C3A 6929   4.324  33.969   8.171
  317POPC   C4A 6930   4.405  33.892   7.754
  317POPC   C1B 6931   4.092  33.480   8.878
  317POPC   C2B 6932   4.175  33.537   8.448
  317POPC   C3B 6933   4.069  33.539   8.005
  317POPC   C4B 6934   4.232  33.441   7.616
  318POPC   NC3 6935   0.057  10.652   9.478
  318POPC   PO4 6936  44.465  10.338   9.509
  318POPC   GL1 6937  44.554  10.456   9.105
  318POPC   GL2 6938  44.563  10.830   9.043
  318POPC   C1A 6939  44.714  10.464   8.683
  318POPC   D2A 6940  44.532  10.753   8.433
  318POPC   C3A 6941  44.469  10.707   8.041
  318POPC   C4A 6942  44.507  10.659   7.616
  318POPC   C1B 6943  44.845  11.007   8.726
  318POPC   C2B 6944  44.947  11.005   8.257
  318POPC   C3B 6945  44.835  10.990   7.809
  318POPC   C4B 6946  44.790  10.996   7.342
  319POPC   NC3 6947   2.275  20.285   9.295
  319POPC   PO4 6948   2.024  19.706   9.533
  319POPC   GL1 6949   2.168  19.781   9.152
  319POPC   GL2 6950   1.869  20.016   9.126
  319POPC   C1A 6951   2.097  19.629   8.740
  319POPC   D2A 6952   1.944  19.507   8.345
  319POPC   C3A 6953   2.190  19.715   8.049
  319POPC   C4A 6954   2.359  19.698   7.656
  319POPC   C1B 6955   1.692  20.117   8.734
  319POPC   C2B 6956   1.812  20.040   8.307
  319POPC   C3B 6957   1.680  19.823   7.936
  319POPC   C4B 6958   1.880  19.848   7.560
  320POPC   NC3 6959   6.296  18.309   9.541
  320POPC   PO4 6960   6.888  18.129   9.367
  320POPC   GL1 6961   6.746  18.436   9.042
  320POPC   GL2 6962   6.396  18.459   9.026
  320POPC   C1A 6963   6.795  18.416   8.602
  320POPC   D2A 6964   6.995  18.056   8.395
  320POPC   C3A 6965   6.801  18.073   7.984
  320POPC   C4A 6966   6.822  18.444   7.683
  320POPC   C1B 6967   6.500  18.041   8.825
  320POPC   C2B 6968   6.489  17.919   8.387
  320POPC   C3B 6969   6.335  17.898   7.928
  320POPC   C4B 6970   6.548  18.048   7.516
  321POPC   NC3 6971  23.268  36.088   9.454
  321POPC   PO4 6972  22.668  36.113   9.780
  321POPC   GL1 6973  22.849  36.285   9.266
  321POPC   GL2 6974  22.714  36.552   9.076
  321POPC   C1A 6975  22.982  36.167   8.821
  321POPC   D2A 6976  22.968  35.954   8.400
  321POPC   C3A 6977  23.009  36.166   7.993
  321POPC   C4A 6978  22.867  36.215   7.541
  321POPC   C1B 6979  22.719  36.569   8.648
  321POPC   C2B 6980  22.525  36.302   8.327
  321POPC   C3B 6981  22.563  36.427   7.904
  321POPC   C4B 6982  22.939  36.648   7.800
  322POPC   NC3 6983  13.107   4.838   9.497
  322POPC   PO4 6984  13.760   4.966   9.709
  322POPC   GL1 6985  13.559   4.999   9.297
  322POPC   GL2 6986  13.764   4.778   9.175
  322POPC   C1A 6987  13.294   5.088   8.888
  322POPC   D2A 6988  13.280   4.947   8.434
  322POPC   C3A 6989  13.486   5.179   8.060
  322POPC   C4A 6990  13.946   5.205   7.901
  322POPC   C1B 6991  13.687   4.767   8.749
  322POPC   C2B 6992  13.834   4.940   8.358
  322POPC   C3B 6993  13.702   4.725   7.981
  322POPC   C4B 6994  13.334   4.609   7.736
  323POPC   NC3 6995  13.382  36.526   9.513
  323POPC   PO4 6996  13.746  37.122   9.522
  323POPC   GL1 6997  13.520  36.904   9.192
  323POPC   GL2 6998  13.797  36.783   9.107
  323POPC   C1A 6999  13.418  36.668   8.794
  323POPC   D2A 7000  13.606  36.707   8.366
  323POPC   C3A 7001  13.438  36.579   7.944
  323POPC   C4A 7002  13.389  36.838   7.564
  323POPC   C1B 7003  13.753  37.041   8.750
  323POPC   C2B 7004  14.048  37.089   8.427
  323POPC   C3B 7005  14.038  37.238   7.991
  323POPC   C4B 7006  13.800  37.096   7.670
  324POPC   NC3 7007  36.390   1.995   9.756
  324POPC   PO4 7008  37.095   1.939   9.619
  324POPC   GL1 7009  37.044   1.987   9.198
  324POPC   GL2 7010  36.859   2.276   9.147
  324POPC   C1A 7011  36.807   1.859   8.837
  324POPC   D2A 7012  36.961   1.654   8.494
  324POPC   C3A 7013  36.804   1.764   8.078
  324POPC   C4A 7014  36.882   1.877   7.652
  324POPC   C1B 7015  36.829   2.388   8.754
  324POPC   C2B 7016  36.902   2.166   8.372
  324POPC   C3B 7017  36.905   2.295   7.937
  324POPC   C4B 7018  36.604   2.466   7.659
  325POPC   NC3 7019  12.489  40.811   9.566
  325POPC   PO4 7020  11.926  41.061   9.585
  325POPC   GL1 7021  12.109  40.916   9.208
  325POPC   GL2 7022  12.265  40.549   9.194
  325POPC   C1A 7023  11.989  41.004   8.783
  325POPC   D2A 7024  12.047  40.793   8.395
  325POPC   C3A 7025  12.191  41.021   8.070
  325POPC   C4A 7026  12.106  40.900   7.666
  325POPC   C1B 7027  12.084  40.446   8.788
  325POPC   C2B 7028  12.194  40.301   8.369
  325POPC   C3B 7029  12.163  40.489   7.962
  325POPC   C4B 7030  12.302  40.411   7.527
  326POPC   NC3 7031  23.151  21.403   9.522
  326POPC   PO4 7032  22.455  21.452   9.557
  326POPC   GL1 7033  22.603  21.626   9.175
  326POPC   GL2 7034  22.926  21.510   9.080
  326POPC   C1A 7035  22.544  21.512   8.733
  326POPC   D2A 7036  22.596  21.708   8.340
  326POPC   C3A 7037  22.612  21.437   8.035
  326POPC   C4A 7038  22.928  21.445   7.790
  326POPC   C1B 7039  22.991  21.244   8.694
  326POPC   C2B 7040  23.033  21.190   8.238
  326POPC   C3B 7041  23.227  21.053   7.858
  326POPC   C4B 7042  23.267  21.273   7.456
  327POPC   NC3 7043  34.825   8.437   9.437
  327POPC   PO4 7044  34.895   7.776   9.557
  327POPC   GL1 7045  34.678   7.927   9.193
  327POPC   GL2 7046  34.420   8.209   9.175
  327POPC   C1A 7047  34.663   7.977   8.755
  327POPC   D2A 7048  34.723   8.163   8.370
  327POPC   C3A 7049  34.661   7.953   7.967
  327POPC   C4A 7050  34.860   8.159   7.633
  327POPC   C1B 7051  34.508   8.485   8.816
  327POPC   C2B 7052  34.389   8.560   8.386
  327POPC   C3B 7053  34.572   8.479   7.994
  327POPC   C4B 7054  34.357   8.290   7.706
  328POPC   NC3 7055  11.801  32.973   9.476
  328POPC   PO4 7056  12.332  32.682   9.486
  328POPC   GL1 7057  12.285  32.903   9.119
  328POPC   GL2 7058  11.950  32.862   8.992
  328POPC   C1A 7059  12.383  33.060   8.718
  328POPC   D2A 7060  12.411  32.790   8.340
  328POPC   C3A 7061  12.149  32.945   8.023
  328POPC   C4A 7062  12.172  32.977   7.584
  328POPC   C1B 7063  11.950  32.897   8.531
  328POPC   C2B 7064  11.707  33.145   8.255
  328POPC   C3B 7065  11.647  32.970   7.841
  328POPC   C4B 7066  11.612  32.857   7.427
  329POPC   NC3 7067  36.483  26.773   9.554
  329POPC   PO4 7068  36.902  26.330   9.503
  329POPC   GL1 7069  36.776  26.553   9.181
  329POPC   GL2 7070  37.094  26.641   9.104
  329POPC   C1A 7071  36.701  26.693   8.770
  329POPC   D2A 7072  36.609  27.090   8.599
  329POPC   C3A 7073  36.445  27.058   8.191
  329POPC   C4A 7074  36.674  27.048   7.827
  329POPC   C1B 7075  37.170  26.847   8.706
  329POPC   C2B 7076  36.967  26.831   8.290
  329POPC   C3B 7077  37.059  26.727   7.853
  329POPC   C4B 7078  37.259  26.823   7.469
  330POPC   NC3 7079  22.080  22.674   9.473
  330POPC   PO4 7080  22.334  23.278   9.634
  330POPC   GL1 7081  22.255  23.129   9.238
  330POPC   GL2 7082  21.915  23.082   9.205
  330POPC   C1A 7083  22.382  22.966   8.838
  330POPC   D2A 7084  22.335  22.772   8.421
  330POPC   C3A 7085  22.380  22.960   7.999
  330POPC   C4A 7086  22.160  22.783   7.644
  330POPC   C1B 7087  21.892  22.895   8.781
  330POPC   C2B 7088  21.863  23.105   8.373
  330POPC   C3B 7089  21.877  23.105   7.916
  330POPC   C4B 7090  21.796  23.154   7.450
  331POPC   NC3 7091  38.224   9.226   9.887
  331POPC   PO4 7092  38.567   8.839   9.517
  331POPC   GL1 7093  38.645   8.924   9.132
  331POPC   GL2 7094  38.355   8.702   9.057
  331POPC   C1A 7095  38.584   9.091   8.735
  331POPC   D2A 7096  38.829   9.089   8.373
  331POPC   C3A 7097  38.580   9.146   8.032
  331POPC   C4A 7098  38.618   9.002   7.614
  331POPC   C1B 7099  38.140   8.805   8.689
  331POPC   C2B 7100  38.194   9.060   8.378
  331POPC   C3B 7101  38.159   8.857   8.011
  331POPC   C4B 7102  38.138   9.083   7.677
  332POPC   NC3 7103  15.052  44.270   9.575
  332POPC   PO4 7104  15.582  43.910   9.380
  332POPC   GL1 7105  15.292  44.112   9.139
  332POPC   GL2 7106  14.962  43.940   9.213
  332POPC   C1A 7107  15.352  44.044   8.719
  332POPC   D2A 7108  15.378  44.212   8.346
  332POPC   C3A 7109  15.320  43.927   8.019
  332POPC   C4A 7110  15.085  43.518   8.063
  332POPC   C1B 7111  14.839  44.025   8.817
  332POPC   C2B 7112  14.958  43.859   8.428
  332POPC   C3B 7113  14.822  43.999   8.052
  332POPC   C4B 7114  15.005  44.111   7.686
  333POPC   NC3 7115  44.553   9.234   9.358
  333POPC   PO4 7116  44.811   8.495   9.472
  333POPC   GL1 7117  44.797   8.711   9.043
  333POPC   GL2 7118  44.871   9.047   9.034
  333POPC   C1A 7119  44.524   8.977   8.711
  333POPC   D2A 7120  44.638   9.180   8.310
  333POPC   C3A 7121  44.428   8.913   8.021
  333POPC   C4A 7122  44.570   8.830   7.615
  333POPC   C1B 7123  44.964   9.310   8.712
  333POPC   C2B 7124   0.096   9.509   8.336
  333POPC   C3B 7125   0.039   9.263   7.945
  333POPC   C4B 7126  44.955   9.184   7.491
  334POPC   NC3 7127  33.190  16.991   9.429
  334POPC   PO4 7128  32.667  16.586   9.410
  334POPC   GL1 7129  32.766  16.900   9.162
  334POPC   GL2 7130  33.074  16.690   9.042
  334POPC   C1A 7131  32.783  17.037   8.773
  334POPC   D2A 7132  32.991  17.064   8.387
  334POPC   C3A 7133  32.993  16.703   8.110
  334POPC   C4A 7134  32.782  16.620   7.714
  334POPC   C1B 7135  33.418  16.481   8.797
  334POPC   C2B 7136  33.466  16.306   8.389
  334POPC   C3B 7137  33.498  16.447   7.999
  334POPC   C4B 7138  33.294  16.247   7.677
  335POPC   NC3 7139  14.275  21.112   9.628
  335POPC   PO4 7140  14.173  21.734   9.612
  335POPC   GL1 7141  14.141  21.423   9.221
  335POPC   GL2 7142  14.502  21.296   9.196
  335POPC   C1A 7143  14.087  21.396   8.751
  335POPC   D2A 7144  14.298  21.279   8.341
  335POPC   C3A 7145  14.194  21.555   7.962
  335POPC   C4A 7146  14.218  21.658   7.503
  335POPC   C1B 7147  14.537  21.057   8.808
  335POPC   C2B 7148  14.617  20.853   8.414
  335POPC   C3B 7149  14.725  21.026   8.009
  335POPC   C4B 7150  14.473  21.228   7.684
  336POPC   NC3 7151   1.469   4.151   9.519
  336POPC   PO4 7152   0.971   4.650   9.446
  336POPC   GL1 7153   1.219   4.428   9.144
  336POPC   GL2 7154   1.588   4.430   9.109
  336POPC   C1A 7155   1.327   4.583   8.726
  336POPC   D2A 7156   1.535   4.523   8.349
  336POPC   C3A 7157   1.259   4.590   8.026
  336POPC   C4A 7158   1.106   4.510   7.631
  336POPC   C1B 7159   1.471   4.080   8.840
  336POPC   C2B 7160   1.559   4.011   8.448
  336POPC   C3B 7161   1.427   4.094   8.062
  336POPC   C4B 7162   1.448   4.046   7.651
  337POPC   NC3 7163  26.602  14.167   9.428
  337POPC   PO4 7164  27.245  14.336   9.580
  337POPC   GL1 7165  26.983  14.437   9.181
  337POPC   GL2 7166  26.609  14.587   9.138
  337POPC   C1A 7167  26.943  14.679   8.785
  337POPC   D2A 7168  26.816  14.488   8.399
  337POPC   C3A 7169  27.013  14.555   8.004
  337POPC   C4A 7170  26.899  14.331   7.642
  337POPC   C1B 7171  26.378  14.351   8.792
  337POPC   C2B 7172  26.289  14.396   8.346
  337POPC   C3B 7173  26.491  14.468   7.958
  337POPC   C4B 7174  26.341  14.260   7.604
  338POPC   NC3 7175  34.989   3.424   9.535
  338POPC   PO4 7176  35.565   3.700   9.650
  338POPC   GL1 7177  35.420   3.573   9.252
  338POPC   GL2 7178  35.367   3.218   9.200
  338POPC   C1A 7179  35.203   3.646   8.859
  338POPC   D2A 7180  35.189   3.420   8.462
  338POPC   C3A 7181  35.078   3.690   8.124
  338POPC   C4A 7182  35.193   3.788   7.713
  338POPC   C1B 7183  35.616   3.340   8.818
  338POPC   C2B 7184  35.765   3.412   8.400
  338POPC   C3B 7185  35.575   3.516   8.004
  338POPC   C4B 7186  35.261   3.262   7.812
  339POPC   NC3 7187  20.118  18.197   9.525
  339POPC   PO4 7188  20.786  18.096   9.576
  339POPC   GL1 7189  20.594  18.166   9.224
  339POPC   GL2 7190  20.862  18.404   9.149
  339POPC   C1A 7191  20.629  18.131   8.784
  339POPC   D2A 7192  20.565  17.894   8.410
  339POPC   C3A 7193  20.660  18.108   8.037
  339POPC   C4A 7194  20.786  17.835   7.696
  339POPC   C1B 7195  20.883  18.620   8.773
  339POPC   C2B 7196  20.627  18.557   8.407
  339POPC   C3B 7197  20.612  18.629   7.963
  339POPC   C4B 7198  20.387  18.419   7.653
  340POPC   NC3 7199  16.594  18.688   9.212
  340POPC   PO4 7200  17.111  18.309   9.474
  340POPC   GL1 7201  16.785  18.128   9.172
  340POPC   GL2 7202  16.429  18.205   9.136
  340POPC   C1A 7203  16.667  18.039   8.730
  340POPC   D2A 7204  16.905  18.036   8.379
  340POPC   C3A 7205  16.786  18.414   8.201
  340POPC   C4A 7206  16.783  18.507   7.784
  340POPC   C1B 7207  16.242  18.381   8.721
  340POPC   C2B 7208  16.267  18.398   8.267
  340POPC   C3B 7209  16.421  18.157   7.929
  340POPC   C4B 7210  16.405  18.249   7.498
  341POPC   NC3 7211  19.520  41.528   9.319
  341POPC   PO4 7212  19.984  41.725   9.824
  341POPC   GL1 7213  19.992  41.785   9.341
  341POPC   GL2 7214  19.744  41.988   9.193
  341POPC   C1A 7215  20.050  41.689   8.870
  341POPC   D2A 7216  20.249  41.842   8.441
  341POPC   C3A 7217  19.998  41.788   8.011
  341POPC   C4A 7218  19.987  41.354   7.804
  341POPC   C1B 7219  19.737  42.056   8.758
  341POPC   C2B 7220  19.748  41.721   8.459
  341POPC   C3B 7221  19.583  41.481   8.145
  341POPC   C4B 7222  19.533  41.578   7.749
  342POPC   NC3 7223   0.093  44.089   9.611
  342POPC   PO4 7224   0.707  43.837   9.542
  342POPC   GL1 7225   0.391  43.863   9.224
  342POPC   GL2 7226   0.305  44.222   9.183
  342POPC   C1A 7227   0.416  43.931   8.769
  342POPC   D2A 7228   0.637  43.793   8.405
  342POPC   C3A 7229   0.513  43.971   8.014
  342POPC   C4A 7230   0.207  43.755   7.740
  342POPC   C1B 7231   0.063  44.285   8.811
  342POPC   C2B 7232   0.024  44.073   8.407
  342POPC   C3B 7233   0.080  44.241   7.989
  342POPC   C4B 7234   0.283  44.219   7.551
  343POPC   NC3 7235  28.323   5.312   9.566
  343POPC   PO4 7236  28.274   4.669   9.382
  343POPC   GL1 7237  28.381   4.984   9.091
  343POPC   GL2 7238  28.683   5.169   9.226
  343POPC   C1A 7239  28.314   4.878   8.633
  343POPC   D2A 7240  28.341   4.725   8.190
  343POPC   C3A 7241  28.243   4.996   7.854
  343POPC   C4A 7242  28.276   5.405   8.005
  343POPC   C1B 7243  28.757   5.129   8.777
  343POPC   C2B 7244  28.640   5.213   8.348
  343POPC   C3B 7245  28.741   5.040   7.943
  343POPC   C4B 7246  28.701   5.001   7.488
  344POPC   NC3 7247  39.955  15.764   9.586
  344POPC   PO4 7248  39.654  16.298   9.329
  344POPC   GL1 7249  39.881  16.175   8.989
  344POPC   GL2 7250  39.963  15.820   9.069
  344POPC   C1A 7251  39.822  16.039   8.551
  344POPC   D2A 7252  40.000  15.664   8.344
  344POPC   C3A 7253  40.018  15.784   7.967
  344POPC   C4A 7254  39.750  16.143   7.846
  344POPC   C1B 7255  40.249  15.870   8.726
  344POPC   C2B 7256  40.395  16.064   8.316
  344POPC   C3B 7257  40.296  16.202   7.874
  344POPC   C4B 7258  40.122  15.997   7.503
  345POPC   NC3 7259   1.378  19.989   9.435
  345POPC   PO4 7260   0.595  20.119   9.389
  345POPC   GL1 7261   0.957  20.049   9.148
  345POPC   GL2 7262   1.162  20.340   9.117
  345POPC   C1A 7263   1.162  19.849   8.799
  345POPC   D2A 7264   0.888  19.997   8.474
  345POPC   C3A 7265   0.897  19.876   8.051
  345POPC   C4A 7266   1.223  19.580   7.924
  345POPC   C1B 7267   1.228  20.339   8.682
  345POPC   C2B 7268   1.313  20.206   8.251
  345POPC   C3B 7269   1.217  20.190   7.824
  345POPC   C4B 7270   1.419  20.026   7.481
  346POPC   NC3 7271  42.886  12.013   9.636
  346POPC   PO4 7272  43.484  12.202   9.787
  346POPC   GL1 7273  43.247  12.045   9.305
  346POPC   GL2 7274  42.953  12.290   9.191
  346POPC   C1A 7275  43.260  11.911   8.841
  346POPC   D2A 7276  43.247  12.094   8.399
  346POPC   C3A 7277  43.207  11.948   7.991
  346POPC   C4A 7278  43.371  11.564   7.867
  346POPC   C1B 7279  43.015  12.372   8.751
  346POPC   C2B 7280  42.796  12.358   8.341
  346POPC   C3B 7281  42.910  12.369   7.920
  346POPC   C4B 7282  42.993  12.200   7.507
  347POPC   NC3 7283  18.813  27.310   9.432
  347POPC   PO4 7284  19.207  26.769   9.507
  347POPC   GL1 7285  19.092  26.699   9.104
  347POPC   GL2 7286  18.808  26.890   9.155
  347POPC   C1A 7287  19.117  26.806   8.675
  347POPC   D2A 7288  19.167  27.060   8.341
  347POPC   C3A 7289  19.110  26.790   8.054
  347POPC   C4A 7290  19.288  26.683   7.685
  347POPC   C1B 7291  18.639  26.792   8.793
  347POPC   C2B 7292  18.683  27.000   8.462
  347POPC   C3B 7293  18.713  27.128   8.089
  347POPC   C4B 7294  18.754  26.878   7.688
  348POPC   NC3 7295   6.068  43.774   9.363
  348POPC   PO4 7296   5.656  44.282   9.483
  348POPC   GL1 7297   5.762  44.076   9.088
  348POPC   GL2 7298   6.082  44.179   8.982
  348POPC   C1A 7299   5.847  43.755   8.749
  348POPC   D2A 7300   5.673  43.626   8.383
  348POPC   C3A 7301   5.676  43.916   8.062
  348POPC   C4A 7302   5.654  43.789   7.652
  348POPC   C1B 7303   6.323  43.918   8.675
  348POPC   C2B 7304   6.146  43.817   8.269
  348POPC   C3B 7305   6.155  43.917   7.831
  348POPC   C4B 7306   6.309  43.890   7.403
  349POPC   NC3 7307  41.178  44.826   9.581
  349POPC   PO4 7308  40.657  44.480   9.500
  349POPC   GL1 7309  40.666  44.697   9.118
  349POPC   GL2 7310  40.959  44.914   9.120
  349POPC   C1A 7311  40.618  44.477   8.708
  349POPC   D2A 7312  40.894  44.368   8.371
  349POPC   C3A 7313  40.761  44.494   8.009
  349POPC   C4A 7314  40.682  44.563   7.638
  349POPC   C1B 7315  40.800  44.945   8.696
  349POPC   C2B 7316  40.942  44.885   8.282
  349POPC   C3B 7317  40.929  44.960   7.822
  349POPC   C4B 7318  41.027  44.961   7.309
  350POPC   NC3 7319  42.690   8.138   9.543
  350POPC   PO4 7320  43.303   7.952   9.577
  350POPC   GL1 7321  43.112   8.186   9.189
  350POPC   GL2 7322  42.778   8.358   9.095
  350POPC   C1A 7323  43.147   8.216   8.731
  350POPC   D2A 7324  43.099   7.982   8.343
  350POPC   C3A 7325  42.949   8.213   8.005
  350POPC   C4A 7326  43.177   8.165   7.644
  350POPC   C1B 7327  42.689   7.996   8.812
  350POPC   C2B 7328  42.609   7.850   8.393
  350POPC   C3B 7329  42.730   7.759   7.972
  350POPC   C4B 7330  42.739   7.883   7.535
  351POPC   NC3 7331  11.477  41.159   9.540
  351POPC   PO4 7332  10.861  41.595   9.584
  351POPC   GL1 7333  10.979  41.556   9.167
  351POPC   GL2 7334  11.269  41.363   9.132
  351POPC   C1A 7335  11.322  41.794   8.864
  351POPC   D2A 7336  11.292  41.866   8.437
  351POPC   C3A 7337  11.534  41.726   8.112
  351POPC   C4A 7338  11.408  41.964   7.773
  351POPC   C1B 7339  11.094  41.366   8.731
  351POPC   C2B 7340  11.320  41.343   8.400
  351POPC   C3B 7341  11.213  41.240   8.041
  351POPC   C4B 7342  11.352  41.457   7.703
  352POPC   NC3 7343   0.474  25.479   9.488
  352POPC   PO4 7344   0.825  24.922   9.285
  352POPC   GL1 7345   0.539  25.177   9.067
  352POPC   GL2 7346   0.171  25.165   9.123
  352POPC   C1A 7347   0.400  25.130   8.671
  352POPC   D2A 7348   0.369  25.392   8.361
  352POPC   C3A 7349   0.408  25.244   7.984
  352POPC   C4A 7350   0.711  25.155   7.654
  352POPC   C1B 7351  44.995  25.429   8.775
  352POPC   C2B 7352  44.894  25.604   8.382
  352POPC   C3B 7353   0.036  25.636   7.965
  352POPC   C4B 7354   0.136  25.385   7.589
  353POPC   NC3 7355   9.454  10.953   9.522
  353POPC   PO4 7356  10.060  10.842   9.671
  353POPC   GL1 7357   9.900  10.671   9.216
  353POPC   GL2 7358   9.579  10.820   9.062
  353POPC   C1A 7359   9.731  10.420   8.814
  353POPC   D2A 7360   9.482  10.347   8.427
  353POPC   C3A 7361   9.561  10.503   8.038
  353POPC   C4A 7362   9.621  10.239   7.626
  353POPC   C1B 7363   9.285  10.960   8.716
  353POPC   C2B 7364   9.125  10.775   8.322
  353POPC   C3B 7365   9.188  10.820   7.871
  353POPC   C4B 7366   9.545  10.746   7.603
  354POPC   NC3 7367  19.958  19.372   9.395
  354POPC   PO4 7368  20.008  18.714   9.464
  354POPC   GL1 7369  19.782  18.959   9.138
  354POPC   GL2 7370  19.469  19.167   9.164
  354POPC   C1A 7371  19.823  19.245   8.757
  354POPC   D2A 7372  20.117  19.362   8.418
  354POPC   C3A 7373  20.109  19.435   7.953
  354POPC   C4A 7374  19.963  19.207   7.556
  354POPC   C1B 7375  19.452  18.869   8.774
  354POPC   C2B 7376  19.586  18.997   8.367
  354POPC   C3B 7377  19.645  19.154   7.961
  354POPC   C4B 7378  19.477  19.026   7.578
  355POPC   NC3 7379  19.617  30.738   9.393
  355POPC   PO4 7380  19.830  30.173   9.716
  355POPC   GL1 7381  19.994  30.389   9.203
  355POPC   GL2 7382  19.966  30.686   9.032
  355POPC   C1A 7383  19.690  30.489   8.694
  355POPC   D2A 7384  19.481  30.754   8.410
  355POPC   C3A 7385  19.627  30.692   7.989
  355POPC   C4A 7386  19.657  30.915   7.619
  355POPC   C1B 7387  20.170  30.771   8.649
  355POPC   C2B 7388  20.030  30.847   8.258
  355POPC   C3B 7389  20.105  30.978   7.847
  355POPC   C4B 7390  20.141  30.789   7.444
  356POPC   NC3 7391  39.018  34.005   9.521
  356POPC   PO4 7392  39.624  33.654   9.457
  356POPC   GL1 7393  39.385  33.906   9.176
  356POPC   GL2 7394  39.098  33.674   9.159
  356POPC   C1A 7395  39.248  33.933   8.746
  356POPC   D2A 7396  39.525  33.945   8.418
  356POPC   C3A 7397  39.355  33.820   8.024
  356POPC   C4A 7398  39.513  33.820   7.612
  356POPC   C1B 7399  38.911  33.519   8.796
  356POPC   C2B 7400  39.030  33.552   8.380
  356POPC   C3B 7401  38.870  33.647   7.988
  356POPC   C4B 7402  39.104  33.476   7.670
  357POPC   NC3 7403  12.341  18.146   9.349
  357POPC   PO4 7404  12.009  18.718   9.396
  357POPC   GL1 7405  11.942  18.439   9.038
  357POPC   GL2 7406  12.019  18.099   8.920
  357POPC   C1A 7407  11.666  18.373   8.668
  357POPC   D2A 7408  11.710  18.417   8.231
  357POPC   C3A 7409  11.934  18.133   7.969
  357POPC   C4A 7410  12.145  18.388   7.711
  357POPC   C1B 7411  12.378  18.128   8.633
  357POPC   C2B 7412  12.410  18.215   8.171
  357POPC   C3B 7413  12.391  17.954   7.787
  357POPC   C4B 7414  12.353  18.091   7.344
  358POPC   NC3 7415  25.420  18.000   9.437
  358POPC   PO4 7416  24.908  18.426   9.613
  358POPC   GL1 7417  25.027  18.333   9.191
  358POPC   GL2 7418  25.384  18.300   9.042
  358POPC   C1A 7419  24.996  18.528   8.788
  358POPC   D2A 7420  25.138  18.398   8.405
  358POPC   C3A 7421  25.045  18.518   7.998
  358POPC   C4A 7422  25.231  18.196   7.671
  358POPC   C1B 7423  25.429  18.072   8.658
  358POPC   C2B 7424  25.593  17.890   8.274
  358POPC   C3B 7425  25.489  17.817   7.859
  358POPC   C4B 7426  25.642  17.954   7.483
  359POPC   NC3 7427  34.043   6.971   9.590
  359POPC   PO4 7428  33.997   7.624   9.553
  359POPC   GL1 7429  33.860   7.416   9.192
  359POPC   GL2 7430  33.709   7.087   9.212
  359POPC   C1A 7431  33.752   7.604   8.796
  359POPC   D2A 7432  33.849   7.838   8.422
  359POPC   C3A 7433  33.703   7.676   8.055
  359POPC   C4A 7434  33.815   7.479   7.685
  359POPC   C1B 7435  33.965   7.100   8.818
  359POPC   C2B 7436  33.899   7.313   8.436
  359POPC   C3B 7437  33.803   7.155   8.068
  359POPC   C4B 7438  33.422   7.185   7.860
  360POPC   NC3 7439  38.434   2.549   9.352
  360POPC   PO4 7440  38.637   1.869   9.446
  360POPC   GL1 7441  38.359   2.064   9.164
  360POPC   GL2 7442  38.483   2.301   8.928
  360POPC   C1A 7443  38.200   1.932   8.760
  360POPC   D2A 7444  38.469   1.843   8.422
  360POPC   C3A 7445  38.356   2.079   8.063
  360POPC   C4A 7446  38.276   1.776   7.762
  360POPC   C1B 7447  38.791   1.989   8.806
  360POPC   C2B 7448  38.920   2.077   8.389
  360POPC   C3B 7449  38.835   1.926   7.977
  360POPC   C4B 7450  38.692   2.146   7.615
  361POPC   NC3 7451  14.397  14.711   9.502
  361POPC   PO4 7452  14.410  14.077   9.657
  361POPC   GL1 7453  14.344  14.186   9.211
  361POPC   GL2 7454  14.231  14.499   9.063
  361POPC   C1A 7455  14.532  14.197   8.788
  361POPC   D2A 7456  14.696  14.341   8.396
  361POPC   C3A 7457  14.482  14.199   8.025
  361POPC   C4A 7458  14.645  14.146   7.639
  361POPC   C1B 7459  14.334  14.690   8.633
  361POPC   C2B 7460  14.294  14.640   8.173
  361POPC   C3B 7461  14.254  14.537   7.676
  361POPC   C4B 7462  14.183  14.634   7.189
  362POPC   NC3 7463   1.748  10.694   9.604
  362POPC   PO4 7464   1.704  10.145   9.253
  362POPC   GL1 7465   1.825  10.564   9.099
  362POPC   GL2 7466   2.135  10.518   8.944
  362POPC   C1A 7467   1.778  10.789   8.676
  362POPC   D2A 7468   1.565  10.702   8.253
  362POPC   C3A 7469   1.889  10.548   7.948
  362POPC   C4A 7470   2.338  10.706   7.970
  362POPC   C1B 7471   2.231  10.133   8.695
  362POPC   C2B 7472   2.441  10.105   8.315
  362POPC   C3B 7473   2.247  10.166   7.947
  362POPC   C4B 7474   2.275  10.374   7.588
  363POPC   NC3 7475  23.071  39.343   9.389
  363POPC   PO4 7476  22.401  39.439   9.560
  363POPC   GL1 7477  22.613  39.436   9.176
  363POPC   GL2 7478  22.646  39.089   9.167
  363POPC   C1A 7479  22.857  39.420   8.779
  363POPC   D2A 7480  23.067  39.219   8.416
  363POPC   C3A 7481  22.915  39.431   8.044
  363POPC   C4A 7482  23.061  39.428   7.642
  363POPC   C1B 7483  22.584  38.990   8.733
  363POPC   C2B 7484  22.579  39.113   8.304
  363POPC   C3B 7485  22.676  38.987   7.876
  363POPC   C4B 7486  22.906  38.917   7.468
  364POPC   NC3 7487  31.846  15.325   9.330
  364POPC   PO4 7488  31.381  14.830   9.342
  364POPC   GL1 7489  31.395  15.172   9.055
  364POPC   GL2 7490  31.380  15.531   9.210
  364POPC   C1A 7491  31.713  15.143   8.719
  364POPC   D2A 7492  31.833  14.900   8.378
  364POPC   C3A 7493  31.484  14.778   8.081
  364POPC   C4A 7494  31.336  15.086   7.801
  364POPC   C1B 7495  31.489  15.600   8.763
  364POPC   C2B 7496  31.481  15.412   8.343
  364POPC   C3B 7497  31.348  15.585   7.958
  364POPC   C4B 7498  31.108  15.541   7.546
  365POPC   NC3 7499  33.934  11.450   9.672
  365POPC   PO4 7500  33.844  10.817   9.533
  365POPC   GL1 7501  33.987  11.143   9.202
  365POPC   GL2 7502  33.935  11.541   9.174
  365POPC   C1A 7503  33.813  11.237   8.781
  365POPC   D2A 7504  33.518  11.353   8.457
  365POPC   C3A 7505  33.657  11.270   8.038
  365POPC   C4A 7506  33.554  11.486   7.650
  365POPC   C1B 7507  34.089  11.679   8.766
  365POPC   C2B 7508  33.962  11.565   8.368
  365POPC   C3B 7509  33.993  11.668   7.965
  365POPC   C4B 7510  34.095  11.460   7.601
  366POPC   NC3 7511   8.813  27.295   9.421
  366POPC   PO4 7512   8.670  26.682   9.418
  366POPC   GL1 7513   8.844  26.916   9.079
  366POPC   GL2 7514   8.564  27.101   9.000
  366POPC   C1A 7515   9.094  26.898   8.693
  366POPC   D2A 7516   8.978  26.745   8.301
  366POPC   C3A 7517   9.149  26.709   7.861
  366POPC   C4A 7518   9.171  26.359   7.564
  366POPC   C1B 7519   8.545  26.844   8.667
  366POPC   C2B 7520   8.460  26.667   8.304
  366POPC   C3B 7521   8.650  26.776   7.931
  366POPC   C4B 7522   8.679  26.643   7.561
  367POPC   NC3 7523  12.970  41.827   9.755
  367POPC   PO4 7524  12.770  42.280   9.359
  367POPC   GL1 7525  12.841  42.295   8.967
  367POPC   GL2 7526  12.856  42.654   9.002
  367POPC   C1A 7527  12.585  42.392   8.641
  367POPC   D2A 7528  12.318  42.418   8.317
  367POPC   C3A 7529  12.676  42.393   8.034
  367POPC   C4A 7530  12.684  42.291   7.586
  367POPC   C1B 7531  13.147  42.611   8.707
  367POPC   C2B 7532  13.001  42.690   8.328
  367POPC   C3B 7533  13.146  42.675   7.939
  367POPC   C4B 7534  12.888  42.764   7.645
  368POPC   NC3 7535  17.906   9.775   9.496
  368POPC   PO4 7536  18.457  10.080   9.448
  368POPC   GL1 7537  18.369   9.863   9.098
  368POPC   GL2 7538  18.095   9.684   9.033
  368POPC   C1A 7539  18.499   9.775   8.705
  368POPC   D2A 7540  18.297   9.762   8.351
  368POPC   C3A 7541  18.477   9.946   8.040
  368POPC   C4A 7542  18.247  10.150   7.738
  368POPC   C1B 7543  18.014   9.463   8.661
  368POPC   C2B 7544  17.816   9.610   8.311
  368POPC   C3B 7545  17.950   9.765   7.963
  368POPC   C4B 7546  18.240   9.645   7.700
  369POPC   NC3 7547  13.469  22.486   9.340
  369POPC   PO4 7548  12.821  22.143   9.415
  369POPC   GL1 7549  13.081  22.241   9.112
  369POPC   GL2 7550  12.890  22.560   9.061
  369POPC   C1A 7551  13.186  21.982   8.760
  369POPC   D2A 7552  12.922  21.896   8.391
  369POPC   C3A 7553  12.932  22.212   8.055
  369POPC   C4A 7554  13.100  22.153   7.641
  369POPC   C1B 7555  12.702  22.229   8.741
  369POPC   C2B 7556  12.460  22.167   8.337
  369POPC   C3B 7557  12.456  22.171   7.861
  369POPC   C4B 7558  12.628  22.244   7.439
  370POPC   NC3 7559  12.625  30.665   9.470
  370POPC   PO4 7560  13.180  31.066   9.550
  370POPC   GL1 7561  13.038  30.864   9.205
  370POPC   GL2 7562  13.033  30.490   9.193
  370POPC   C1A 7563  13.134  30.793   8.802
  370POPC   D2A 7564  13.035  30.561   8.450
  370POPC   C3A 7565  13.122  30.686   8.094
  370POPC   C4A 7566  12.937  30.534   7.739
  370POPC   C1B 7567  12.696  30.542   8.845
  370POPC   C2B 7568  12.575  30.328   8.475
  370POPC   C3B 7569  12.580  30.517   8.098
  370POPC   C4B 7570  12.376  30.441   7.721
  371POPC   NC3 7571  11.012   7.531   9.609
  371POPC   PO4 7572  11.350   6.956   9.523
  371POPC   GL1 7573  11.102   7.189   9.211
  371POPC   GL2 7574  11.329   7.436   9.146
  371POPC   C1A 7575  11.038   7.364   8.757
  371POPC   D2A 7576  11.187   7.582   8.364
  371POPC   C3A 7577  11.283   7.419   7.961
  371POPC   C4A 7578  10.967   7.620   7.748
  371POPC   C1B 7579  11.405   7.749   8.785
  371POPC   C2B 7580  11.507   7.985   8.409
  371POPC   C3B 7581  11.327   7.944   8.002
  371POPC   C4B 7582  11.558   7.781   7.672
  372POPC   NC3 7583  34.331  21.540   9.542
  372POPC   PO4 7584  34.617  20.919   9.577
  372POPC   GL1 7585  34.541  21.164   9.218
  372POPC   GL2 7586  34.778  21.448   9.198
  372POPC   C1A 7587  34.385  21.269   8.800
  372POPC   D2A 7588  34.476  21.529   8.427
  372POPC   C3A 7589  34.389  21.433   8.024
  372POPC   C4A 7590  34.317  21.594   7.610
  372POPC   C1B 7591  34.733  21.733   8.815
  372POPC   C2B 7592  34.830  21.882   8.334
  372POPC   C3B 7593  34.762  21.736   7.875
  372POPC   C4B 7594  34.724  21.317   7.635
  373POPC   NC3 7595   4.498  23.523   9.568
  373POPC   PO4 7596   4.400  24.139   9.348
  373POPC   GL1 7597   4.467  23.816   9.126
  373POPC   GL2 7598   4.152  23.656   9.177
  373POPC   C1A 7599   4.443  23.594   8.759
  373POPC   D2A 7600   4.272  23.465   8.370
  373POPC   C3A 7601   4.525  23.488   7.952
  373POPC   C4A 7602   4.639  23.741   7.567
  373POPC   C1B 7603   4.053  23.950   8.824
  373POPC   C2B 7604   3.908  23.918   8.402
  373POPC   C3B 7605   4.202  23.896   8.085
  373POPC   C4B 7606   4.139  23.726   7.689
  374POPC   NC3 7607  20.224   1.125   9.580
  374POPC   PO4 7608  20.762   1.520   9.451
  374POPC   GL1 7609  20.516   1.342   9.108
  374POPC   GL2 7610  20.426   0.994   9.113
  374POPC   C1A 7611  20.523   1.495   8.663
  374POPC   D2A 7612  20.873   1.458   8.370
  374POPC   C3A 7613  20.768   1.455   7.930
  374POPC   C4A 7614  20.357   1.540   7.716
  374POPC   C1B 7615  20.613   1.000   8.679
  374POPC   C2B 7616  20.491   1.126   8.225
  374POPC   C3B 7617  20.469   1.026   7.764
  374POPC   C4B 7618  20.633   0.771   7.307
  375POPC   NC3 7619   3.123  40.101   9.542
  375POPC   PO4 7620   3.816  39.985   9.423
  375POPC   GL1 7621   3.455  40.031   9.131
  375POPC   GL2 7622   3.369  40.353   9.026
  375POPC   C1A 7623   3.288  40.044   8.666
  375POPC   D2A 7624   3.415  40.240   8.303
  375POPC   C3A 7625   3.311  39.917   8.028
  375POPC   C4A 7626   3.447  39.800   7.627
  375POPC   C1B 7627   3.760  40.235   8.738
  375POPC   C2B 7628   3.970  40.157   8.301
  375POPC   C3B 7629   3.744  40.160   7.892
  375POPC   C4B 7630   3.371  40.341   7.768
  376POPC   NC3 7631  12.408  15.459   9.547
  376POPC   PO4 7632  12.343  16.048   9.554
  376POPC   GL1 7633  12.027  15.987   9.221
  376POPC   GL2 7634  11.940  15.635   9.183
  376POPC   C1A 7635  12.058  15.992   8.772
  376POPC   D2A 7636  12.162  15.896   8.335
  376POPC   C3A 7637  12.182  16.226   8.004
  376POPC   C4A 7638  11.941  16.285   7.626
  376POPC   C1B 7639  12.138  15.465   8.816
  376POPC   C2B 7640  12.275  15.392   8.401
  376POPC   C3B 7641  12.169  15.495   7.984
  376POPC   C4B 7642  12.339  15.834   7.753
  377POPC   NC3 7643  17.838  23.574   9.297
  377POPC   PO4 7644  17.242  23.938   9.621
  377POPC   GL1 7645  17.415  23.951   9.213
  377POPC   GL2 7646  17.358  23.639   9.084
  377POPC   C1A 7647  17.543  24.005   8.773
  377POPC   D2A 7648  17.631  24.154   8.358
  377POPC   C3A 7649  17.524  23.901   7.953
  377POPC   C4A 7650  17.602  23.794   7.463
  377POPC   C1B 7651  17.482  23.489   8.696
  377POPC   C2B 7652  17.539  23.261   8.294
  377POPC   C3B 7653  17.566  23.388   7.879
  377POPC   C4B 7654  17.218  23.468   7.621
  378POPC   NC3 7655  38.637   8.347   9.608
  378POPC   PO4 7656  38.983   7.764   9.441
  378POPC   GL1 7657  38.743   8.067   9.199
  378POPC   GL2 7658  38.814   8.432   9.148
  378POPC   C1A 7659  38.479   8.097   8.849
  378POPC   D2A 7660  38.592   7.954   8.440
  378POPC   C3A 7661  38.276   7.867   8.132
  378POPC   C4A 7662  38.424   7.975   7.731
  378POPC   C1B 7663  38.772   8.614   8.750
  378POPC   C2B 7664  38.520   8.644   8.385
  378POPC   C3B 7665  38.598   8.606   7.964
  378POPC   C4B 7666  38.346   8.587   7.596
  379POPC   NC3 7667  12.701  39.053   9.331
  379POPC   PO4 7668  13.240  38.735   9.538
  379POPC   GL1 7669  13.165  38.987   9.114
  379POPC   GL2 7670  13.043  39.345   9.080
  379POPC   C1A 7671  12.931  39.073   8.678
  379POPC   D2A 7672  12.696  39.240   8.324
  379POPC   C3A 7673  12.955  39.517   8.117
  379POPC   C4A 7674  13.205  39.287   7.806
  379POPC   C1B 7675  12.670  39.516   8.782
  379POPC   C2B 7676  12.430  39.662   8.379
  379POPC   C3B 7677  12.340  39.473   7.981
  379POPC   C4B 7678  12.695  39.279   7.767
  380POPC   NC3 7679  15.138  36.117   9.591
  380POPC   PO4 7680  15.641  36.322   9.528
  380POPC   GL1 7681  15.375  36.212   9.148
  380POPC   GL2 7682  15.039  36.387   9.154
  380POPC   C1A 7683  15.354  36.267   8.702
  380POPC   D2A 7684  15.111  36.187   8.326
  380POPC   C3A 7685  15.218  36.321   7.912
  380POPC   C4A 7686  15.167  35.916   7.798
  380POPC   C1B 7687  14.847  36.219   8.773
  380POPC   C2B 7688  14.612  36.334   8.366
  380POPC   C3B 7689  14.732  36.180   7.943
  380POPC   C4B 7690  14.863  36.181   7.487
  381POPC   NC3 7691  40.381  13.462   9.890
  381POPC   PO4 7692  40.041  14.013   9.624
  381POPC   GL1 7693  40.065  13.669   9.323
  381POPC   GL2 7694  39.984  13.919   9.099
  381POPC   C1A 7695  39.957  13.443   8.900
  381POPC   D2A 7696  40.144  13.262   8.494
  381POPC   C3A 7697  40.028  13.473   8.070
  381POPC   C4A 7698  39.815  13.507   7.683
  381POPC   C1B 7699  40.106  14.038   8.733
  381POPC   C2B 7700  39.911  14.029   8.350
  381POPC   C3B 7701  40.053  14.073   7.945
  381POPC   C4B 7702  39.974  14.010   7.511
  382POPC   NC3 7703  21.188   1.775   9.431
  382POPC   PO4 7704  21.680   2.257   9.557
  382POPC   GL1 7705  21.629   1.948   9.183
  382POPC   GL2 7706  21.303   1.872   8.955
  382POPC   C1A 7707  21.740   1.768   8.783
  382POPC   D2A 7708  21.528   1.824   8.397
  382POPC   C3A 7709  21.787   1.941   8.082
  382POPC   C4A 7710  21.687   2.073   7.714
  382POPC   C1B 7711  21.477   2.233   8.739
  382POPC   C2B 7712  21.362   2.358   8.331
  382POPC   C3B 7713  21.251   2.263   7.885
  382POPC   C4B 7714  21.083   2.150   7.463
  383POPC   NC3 7715  42.374   4.047   9.430
  383POPC   PO4 7716  42.573   4.696   9.445
  383POPC   GL1 7717  42.295   4.515   9.107
  383POPC   GL2 7718  42.298   4.183   8.960
  383POPC   C1A 7719  42.237   4.633   8.692
  383POPC   D2A 7720  42.351   4.332   8.389
  383POPC   C3A 7721  42.186   4.455   7.989
  383POPC   C4A 7722  42.518   4.440   7.708
  383POPC   C1B 7723  42.259   3.858   8.661
  383POPC   C2B 7724  42.489   3.831   8.322
  383POPC   C3B 7725  42.388   3.978   7.928
  383POPC   C4B 7726  42.327   4.004   7.511
  384POPC   NC3 7727  17.800  41.425   9.447
  384POPC   PO4 7728  17.227  41.710   9.502
  384POPC   GL1 7729  17.380  41.479   9.128
  384POPC   GL2 7730  17.740  41.530   8.957
  384POPC   C1A 7731  17.343  41.401   8.682
  384POPC   D2A 7732  17.134  41.451   8.317
  384POPC   C3A 7733  17.384  41.561   8.024
  384POPC   C4A 7734  17.441  41.612   7.663
  384POPC   C1B 7735  17.797  41.209   8.624
  384POPC   C2B 7736  17.614  41.162   8.251
  384POPC   C3B 7737  17.735  41.222   7.801
  384POPC   C4B 7738  17.833  41.443   7.378
  385POPC   NC3 7739  34.060   3.608   9.214
  385POPC   PO4 7740  34.572   3.868   9.649
  385POPC   GL1 7741  34.544   3.853   9.216
  385POPC   GL2 7742  34.763   4.107   9.061
  385POPC   C1A 7743  34.660   3.580   8.841
  385POPC   D2A 7744  34.533   3.306   8.483
  385POPC   C3A 7745  34.815   3.229   8.134
  385POPC   C4A 7746  34.798   3.464   7.758
  385POPC   C1B 7747  34.383   4.027   8.770
  385POPC   C2B 7748  34.216   3.773   8.452
  385POPC   C3B 7749  34.496   3.698   8.111
  385POPC   C4B 7750  34.717   4.010   7.837
  386POPC   NC3 7751  44.276  14.024   9.437
  386POPC   PO4 7752  44.737  14.535   9.672
  386POPC   GL1 7753  44.683  14.351   9.289
  386POPC   GL2 7754   0.009  14.344   9.196
  386POPC   C1A 7755  44.549  14.491   8.892
  386POPC   D2A 7756  44.611  14.643   8.482
  386POPC   C3A 7757  44.585  14.354   8.125
  386POPC   C4A 7758  44.499  14.460   7.692
  386POPC   C1B 7759   0.053  14.435   8.811
  386POPC   C2B 7760   0.125  14.658   8.461
  386POPC   C3B 7761   0.088  14.644   8.024
  386POPC   C4B 7762  44.970  14.353   7.709
  387POPC   NC3 7763   2.686  15.571   9.686
  387POPC   PO4 7764   2.892  14.893   9.770
  387POPC   GL1 7765   2.735  14.945   9.312
  387POPC   GL2 7766   2.643  15.281   9.242
  387POPC   C1A 7767   2.835  14.967   8.847
  387POPC   D2A 7768   2.913  14.842   8.389
  387POPC   C3A 7769   3.066  15.187   8.104
  387POPC   C4A 7770   3.136  15.338   7.670
  387POPC   C1B 7771   2.348  15.078   8.951
  387POPC   C2B 7772   2.404  14.911   8.532
  387POPC   C3B 7773   2.514  14.935   8.090
  387POPC   C4B 7774   2.635  15.317   7.848
  388POPC   NC3 7775  21.619  44.441   9.549
  388POPC   PO4 7776  22.355  44.611   9.540
  388POPC   GL1 7777  22.163  44.705   9.141
  388POPC   GL2 7778  21.824  44.564   9.109
  388POPC   C1A 7779  22.127  44.624   8.709
  388POPC   D2A 7780  22.009  44.573   8.307
  388POPC   C3A 7781  22.259  44.280   8.079
  388POPC   C4A 7782  22.408  44.366   7.640
  388POPC   C1B 7783  21.659  44.835   8.811
  388POPC   C2B 7784  21.604  44.950   8.410
  388POPC   C3B 7785  21.767  44.910   8.020
  388POPC   C4B 7786  21.945  44.577   7.794
  389POPC   NC3 7787   9.353   3.903   9.739
  389POPC   PO4 7788   8.870   4.300   9.570
  389POPC   GL1 7789   9.056   4.393   9.183
  389POPC   GL2 7790   8.808   4.197   8.989
  389POPC   C1A 7791   9.236   4.299   8.761
  389POPC   D2A 7792   8.929   4.320   8.424
  389POPC   C3A 7793   9.045   4.342   8.005
  389POPC   C4A 7794   8.839   4.244   7.594
  389POPC   C1B 7795   8.859   4.659   8.800
  389POPC   C2B 7796   8.897   4.848   8.372
  389POPC   C3B 7797   8.884   4.829   7.911
  389POPC   C4B 7798   9.173   4.622   7.600
  390POPC   NC3 7799  34.664  23.335   9.454
  390POPC   PO4 7800  34.662  22.650   9.543
  390POPC   GL1 7801  34.519  22.827   9.185
  390POPC   GL2 7802  34.795  23.047   9.040
  390POPC   C1A 7803  34.481  22.756   8.749
  390POPC   D2A 7804  34.605  22.998   8.421
  390POPC   C3A 7805  34.506  22.820   8.087
  390POPC   C4A 7806  34.663  22.678   7.715
  390POPC   C1B 7807  35.014  23.223   8.684
  390POPC   C2B 7808  34.948  23.397   8.278
  390POPC   C3B 7809  34.887  23.130   7.931
  390POPC   C4B 7810  34.816  23.123   7.508
  391POPC   NC3 7811  33.520  10.467   9.497
  391POPC   PO4 7812  34.143  10.194   9.350
  391POPC   GL1 7813  33.887  10.433   9.086
  391POPC   GL2 7814  33.600  10.234   9.058
  391POPC   C1A 7815  33.904  10.728   8.741
  391POPC   D2A 7816  33.691  10.876   8.377
  391POPC   C3A 7817  33.792  10.704   7.973
  391POPC   C4A 7818  33.980  10.302   7.885
  391POPC   C1B 7819  33.495  10.422   8.675
  391POPC   C2B 7820  33.263  10.342   8.340
  391POPC   C3B 7821  33.430  10.340   7.972
  391POPC   C4B 7822  33.576  10.389   7.587
  392POPC   NC3 7823  17.665  33.644   9.405
  392POPC   PO4 7824  17.227  34.161   9.491
  392POPC   GL1 7825  17.582  34.129   9.128
  392POPC   GL2 7826  17.746  33.851   8.958
  392POPC   C1A 7827  17.686  34.257   8.671
  392POPC   D2A 7828  17.710  34.116   8.232
  392POPC   C3A 7829  17.808  33.888   7.850
  392POPC   C4A 7830  17.529  34.089   7.536
  392POPC   C1B 7831  17.502  33.794   8.622
  392POPC   C2B 7832  17.633  33.613   8.262
  392POPC   C3B 7833  17.340  33.787   7.962
  392POPC   C4B 7834  17.011  33.689   7.700
  393POPC   NC3 7835  12.610  36.053   9.461
  393POPC   PO4 7836  13.296  36.069   9.625
  393POPC   GL1 7837  13.048  36.176   9.224
  393POPC   GL2 7838  12.817  36.469   9.183
  393POPC   C1A 7839  12.800  36.034   8.835
  393POPC   D2A 7840  12.704  36.165   8.400
  393POPC   C3A 7841  12.752  35.890   8.036
  393POPC   C4A 7842  12.604  35.890   7.591
  393POPC   C1B 7843  12.914  36.562   8.742
  393POPC   C2B 7844  13.079  36.516   8.337
  393POPC   C3B 7845  12.855  36.446   7.949
  393POPC   C4B 7846  13.092  36.358   7.579
  394POPC   NC3 7847   0.041  22.230   9.594
  394POPC   PO4 7848  44.435  22.099   9.773
  394POPC   GL1 7849  44.570  22.180   9.320
  394POPC   GL2 7850  44.553  21.864   9.147
  394POPC   C1A 7851  44.780  22.260   8.883
  394POPC   D2A 7852  44.575  22.273   8.444
  394POPC   C3A 7853  44.828  22.257   8.080
  394POPC   C4A 7854  44.988  22.138   7.684
  394POPC   C1B 7855  44.285  22.105   8.854
  394POPC   C2B 7856  44.103  22.030   8.430
  394POPC   C3B 7857  44.202  22.020   7.990
  394POPC   C4B 7858  44.507  22.053   7.683
  395POPC   NC3 7859   7.251  26.103   9.501
  395POPC   PO4 7860   7.626  25.507   9.373
  395POPC   GL1 7861   7.476  25.863   9.108
  395POPC   GL2 7862   7.112  25.904   9.059
  395POPC   C1A 7863   7.523  26.245   8.865
  395POPC   D2A 7864   7.514  26.480   8.502
  395POPC   C3A 7865   7.625  26.311   8.091
  395POPC   C4A 7866   7.723  26.206   7.661
  395POPC   C1B 7867   7.193  25.931   8.637
  395POPC   C2B 7868   7.191  26.088   8.239
  395POPC   C3B 7869   7.395  25.888   7.900
  395POPC   C4B 7870   7.308  25.894   7.462
  396POPC   NC3 7871  36.791  33.562   9.352
  396POPC   PO4 7872  37.179  34.004   9.704
  396POPC   GL1 7873  37.090  33.988   9.228
  396POPC   GL2 7874  36.751  33.909   8.992
  396POPC   C1A 7875  37.229  33.848   8.832
  396POPC   D2A 7876  37.139  33.543   8.493
  396POPC   C3A 7877  37.124  33.682   8.061
  396POPC   C4A 7878  37.017  33.894   7.676
  396POPC   C1B 7879  36.616  33.525   8.713
  396POPC   C2B 7880  36.683  33.400   8.263
  396POPC   C3B 7881  36.616  33.667   7.889
  396POPC   C4B 7882  36.613  33.634   7.428
  397POPC   NC3 7883  30.661  34.915   9.601
  397POPC   PO4 7884  30.414  35.598   9.595
  397POPC   GL1 7885  30.484  35.590   9.133
  397POPC   GL2 7886  30.735  35.296   9.079
  397POPC   C1A 7887  30.514  35.540   8.671
  397POPC   D2A 7888  30.491  35.518   8.222
  397POPC   C3A 7889  30.786  35.559   7.897
  397POPC   C4A 7890  30.811  35.954   7.681
  397POPC   C1B 7891  30.511  35.046   8.726
  397POPC   C2B 7892  30.506  35.013   8.284
  397POPC   C3B 7893  30.432  35.163   7.853
  397POPC   C4B 7894  30.634  35.251   7.459
  398POPC   NC3 7895  43.674   4.692   9.559
  398POPC   PO4 7896  43.909   5.412   9.562
  398POPC   GL1 7897  43.981   5.237   9.192
  398POPC   GL2 7898  44.120   5.531   9.092
  398POPC   C1A 7899  43.761   4.984   8.878
  398POPC   D2A 7900  43.600   5.107   8.482
  398POPC   C3A 7901  43.849   5.025   8.147
  398POPC   C4A 7902  43.740   5.053   7.740
  398POPC   C1B 7903  44.173   5.297   8.704
  398POPC   C2B 7904  44.287   5.288   8.251
  398POPC   C3B 7905  44.115   5.376   7.842
  398POPC   C4B 7906  44.076   5.248   7.394
  399POPC   NC3 7907   8.460  20.732   9.481
  399POPC   PO4 7908   7.762  20.748   9.283
  399POPC   GL1 7909   8.134  20.588   9.096
  399POPC   GL2 7910   8.410  20.825   8.999
  399POPC   C1A 7911   8.178  20.478   8.677
  399POPC   D2A 7912   7.962  20.685   8.356
  399POPC   C3A 7913   8.059  20.567   7.973
  399POPC   C4A 7914   8.105  20.319   7.666
  399POPC   C1B 7915   8.609  20.737   8.616
  399POPC   C2B 7916   8.525  20.622   8.190
  399POPC   C3B 7917   8.490  20.830   7.773
  399POPC   C4B 7918   8.748  20.887   7.385
  400POPC   NC3 7919  37.736  41.897   9.289
  400POPC   PO4 7920  37.678  42.568   9.488
  400POPC   GL1 7921  37.686  42.391   9.118
  400POPC   GL2 7922  37.398  42.448   9.085
  400POPC   C1A 7923  37.693  42.187   8.709
  400POPC   D2A 7924  37.951  42.193   8.357
  400POPC   C3A 7925  37.761  42.311   7.992
  400POPC   C4A 7926  37.950  42.283   7.670
  400POPC   C1B 7927  37.229  42.487   8.730
  400POPC   C2B 7928  37.375  42.391   8.358
  400POPC   C3B 7929  37.253  42.447   7.987
  400POPC   C4B 7930  37.341  42.395   7.585
  401POPC   NC3 7931  28.387  25.762   9.659
  401POPC   PO4 7932  28.033  26.316   9.732
  401POPC   GL1 7933  28.318  26.103   9.278
  401POPC   GL2 7934  28.581  25.834   9.195
  401POPC   C1A 7935  28.371  26.188   8.799
  401POPC   D2A 7936  28.066  26.116   8.438
  401POPC   C3A 7937  28.239  26.067   8.027
  401POPC   C4A 7938  28.374  26.257   7.642
  401POPC   C1B 7939  28.772  25.879   8.781
  401POPC   C2B 7940  28.630  25.942   8.350
  401POPC   C3B 7941  28.749  26.087   7.927
  401POPC   C4B 7942  28.702  25.870   7.523
  402POPC   NC3 7943  33.042  28.573   9.448
  402POPC   PO4 7944  32.645  28.085   9.691
  402POPC   GL1 7945  32.721  28.260   9.215
  402POPC   GL2 7946  32.702  28.586   9.080
  402POPC   C1A 7947  32.905  28.215   8.783
  402POPC   D2A 7948  32.824  28.207   8.342
  402POPC   C3A 7949  33.184  28.127   8.086
  402POPC   C4A 7950  33.182  28.052   7.649
  402POPC   C1B 7951  32.748  28.686   8.666
  402POPC   C2B 7952  32.859  28.802   8.263
  402POPC   C3B 7953  32.875  28.506   7.929
  402POPC   C4B 7954  32.996  28.535   7.502
  403POPC   NC3 7955  34.661  12.949   9.654
  403POPC   PO4 7956  35.367  12.775   9.588
  403POPC   GL1 7957  35.322  12.988   9.223
  403POPC   GL2 7958  35.607  13.236   9.176
  403POPC   C1A 7959  35.272  12.819   8.790
  403POPC   D2A 7960  35.486  12.889   8.381
  403POPC   C3A 7961  35.274  12.802   7.966
  403POPC   C4A 7962  35.166  12.474   7.640
  403POPC   C1B 7963  35.681  13.273   8.742
  403POPC   C2B 7964  35.913  13.174   8.369
  403POPC   C3B 7965  35.821  12.990   7.957
  403POPC   C4B 7966  35.679  13.250   7.600
  404POPC   NC3 7967  42.859  15.781   9.361
  404POPC   PO4 7968  43.147  16.343   9.417
  404POPC   GL1 7969  43.112  16.086   9.029
  404POPC   GL2 7970  43.264  15.732   9.017
  404POPC   C1A 7971  43.068  15.998   8.602
  404POPC   D2A 7972  43.046  16.268   8.253
  404POPC   C3A 7973  43.174  16.072   7.902
  404POPC   C4A 7974  43.426  15.846   7.650
  404POPC   C1B 7975  42.981  15.472   8.756
  404POPC   C2B 7976  42.816  15.482   8.349
  404POPC   C3B 7977  42.542  15.521   8.008
  404POPC   C4B 7978  42.743  15.828   7.767
  405POPC   NC3 7979  36.278   7.828   9.694
  405POPC   PO4 7980  35.909   8.453   9.578
  405POPC   GL1 7981  36.225   8.234   9.269
  405POPC   GL2 7982  36.169   7.873   9.187
  405POPC   C1A 7983  36.112   8.265   8.825
  405POPC   D2A 7984  36.272   8.244   8.421
  405POPC   C3A 7985  36.174   8.511   8.096
  405POPC   C4A 7986  36.049   8.206   7.822
  405POPC   C1B 7987  36.345   7.787   8.794
  405POPC   C2B 7988  36.605   7.861   8.445
  405POPC   C3B 7989  36.414   7.905   8.044
  405POPC   C4B 7990  36.304   7.813   7.613
  406POPC   NC3 7991   7.406   3.849   9.843
  406POPC   PO4 7992   7.686   3.387   9.513
  406POPC   GL1 7993   7.800   3.321   9.072
  406POPC   GL2 7994   7.461   3.268   9.024
  406POPC   C1A 7995   7.721   3.528   8.657
  406POPC   D2A 7996   7.526   3.411   8.256
  406POPC   C3A 7997   7.493   3.779   7.965
  406POPC   C4A 7998   7.489   3.952   7.506
  406POPC   C1B 7999   7.156   3.255   8.698
  406POPC   C2B 8000   6.996   3.214   8.286
  406POPC   C3B 8001   7.121   3.375   7.900
  406POPC   C4B 8002   7.045   3.777   7.709
  407POPC   NC3 8003  36.950  27.579   9.400
  407POPC   PO4 8004  36.939  26.913   9.527
  407POPC   GL1 8005  36.825  27.083   9.107
  407POPC   GL2 8006  36.604  27.348   9.094
  407POPC   C1A 8007  37.028  27.338   8.764
  407POPC   D2A 8008  37.309  27.255   8.407
  407POPC   C3A 8009  37.102  27.256   8.017
  407POPC   C4A 8010  37.076  27.580   7.737
  407POPC   C1B 8011  36.538  27.589   8.702
  407POPC   C2B 8012  36.485  27.605   8.261
  407POPC   C3B 8013  36.372  27.945   7.986
  407POPC   C4B 8014  36.526  28.046   7.588
  408POPC   NC3 8015  33.050   2.492   9.562
  408POPC   PO4 8016  33.360   1.913   9.501
  408POPC   GL1 8017  33.097   1.814   9.149
  408POPC   GL2 8018  32.858   2.087   9.115
  408POPC   C1A 8019  33.006   1.665   8.737
  408POPC   D2A 8020  32.810   1.883   8.392
  408POPC   C3A 8021  32.661   1.755   8.002
  408POPC   C4A 8022  32.963   1.796   7.690
  408POPC   C1B 8023  33.105   2.162   8.731
  408POPC   C2B 8024  33.089   2.340   8.331
  408POPC   C3B 8025  33.173   2.210   7.895
  408POPC   C4B 8026  32.968   2.254   7.450
  409POPC   NC3 8027  12.152   4.622   9.541
  409POPC   PO4 8028  12.332   3.979   9.436
  409POPC   GL1 8029  12.072   4.210   9.110
  409POPC   GL2 8030  11.894   4.549   9.112
  409POPC   C1A 8031  12.103   4.288   8.666
  409POPC   D2A 8032  11.984   4.028   8.311
  409POPC   C3A 8033  11.974   4.224   7.901
  409POPC   C4A 8034  12.335   4.507   7.835
  409POPC   C1B 8035  11.668   4.565   8.729
  409POPC   C2B 8036  11.830   4.558   8.307
  409POPC   C3B 8037  11.879   4.729   7.914
  409POPC   C4B 8038  11.579   4.704   7.582
  410POPC   NC3 8039  31.816  10.401   9.607
  410POPC   PO4 8040  32.504  10.526   9.667
  410POPC   GL1 8041  32.273  10.612   9.222
  410POPC   GL2 8042  31.971  10.448   9.112
  410POPC   C1A 8043  32.286  10.624   8.741
  410POPC   D2A 8044  32.252  10.303   8.391
  410POPC   C3A 8045  32.379  10.444   7.970
  410POPC   C4A 8046  32.408  10.776   7.655
  410POPC   C1B 8047  31.819  10.303   8.696
  410POPC   C2B 8048  31.797  10.115   8.236
  410POPC   C3B 8049  31.909  10.279   7.796
  410POPC   C4B 8050  32.217  10.262   7.475
  411POPC   NC3 8051  14.120  39.744   9.661
  411POPC   PO4 8052  13.652  40.228   9.619
  411POPC   GL1 8053  13.509  40.220   9.175
  411POPC   GL2 8054  13.337  40.542   9.144
  411POPC   C1A 8055  13.617  40.033   8.769
  411POPC   D2A 8056  13.922  39.920   8.442
  411POPC   C3A 8057  13.708  39.880   8.073
  411POPC   C4A 8058  13.334  39.785   7.889
  411POPC   C1B 8059  13.607  40.532   8.745
  411POPC   C2B 8060  13.681  40.343   8.310
  411POPC   C3B 8061  13.784  40.331   7.843
  411POPC   C4B 8062  13.749  40.348   7.360
  412POPC   NC3 8063  43.476   5.582   9.502
  412POPC   PO4 8064  43.530   6.336   9.522
  412POPC   GL1 8065  43.761   5.973   9.249
  412POPC   GL2 8066  43.485   5.830   9.057
  412POPC   C1A 8067  43.961   5.912   8.813
  412POPC   D2A 8068  43.986   6.067   8.404
  412POPC   C3A 8069  44.120   5.845   8.053
  412POPC   C4A 8070  43.774   5.954   7.851
  412POPC   C1B 8071  43.678   5.496   8.820
  412POPC   C2B 8072  43.854   5.553   8.403
  412POPC   C3B 8073  43.659   5.484   8.023
  412POPC   C4B 8074  43.670   5.530   7.570
  413POPC   NC3 8075  35.613   8.828   9.650
  413POPC   PO4 8076  35.190   9.280   9.331
  413POPC   GL1 8077  35.292   8.902   9.163
  413POPC   GL2 8078  34.960   8.761   9.086
  413POPC   C1A 8079  35.322   8.817   8.725
  413POPC   D2A 8080  35.603   8.751   8.399
  413POPC   C3A 8081  35.376   8.891   8.058
  413POPC   C4A 8082  35.311   9.220   7.767
  413POPC   C1B 8083  35.008   8.409   8.753
  413POPC   C2B 8084  35.214   8.429   8.325
  413POPC   C3B 8085  35.151   8.473   7.885
  413POPC   C4B 8086  35.361   8.723   7.577
  414POPC   NC3 8087  31.593   6.398   9.482
  414POPC   PO4 8088  31.558   7.008   9.711
  414POPC   GL1 8089  31.382   6.857   9.242
  414POPC   GL2 8090  31.463   6.537   9.036
  414POPC   C1A 8091  31.398   6.954   8.775
  414POPC   D2A 8092  31.785   6.824   8.513
  414POPC   C3A 8093  31.681   6.741   8.077
  414POPC   C4A 8094  31.342   6.893   7.837
  414POPC   C1B 8095  31.628   6.349   8.677
  414POPC   C2B 8096  31.343   6.540   8.417
  414POPC   C3B 8097  31.105   6.483   8.080
  414POPC   C4B 8098  31.407   6.388   7.771
  415POPC   NC3 8099   8.111  38.893   9.715
  415POPC   PO4 8100   8.208  38.242   9.559
  415POPC   GL1 8101   8.261  38.402   9.162
  415POPC   GL2 8102   8.325  38.733   9.269
  415POPC   C1A 8103   8.238  38.317   8.721
  415POPC   D2A 8104   8.107  38.446   8.329
  415POPC   C3A 8105   8.471  38.394   8.062
  415POPC   C4A 8106   8.589  38.167   7.711
  415POPC   C1B 8107   8.373  38.804   8.829
  415POPC   C2B 8108   8.469  38.786   8.395
  415POPC   C3B 8109   8.192  38.838   8.012
  415POPC   C4B 8110   8.085  38.676   7.607
  416POPC   NC3 8111  40.939  35.707   9.440
  416POPC   PO4 8112  41.046  35.023   9.578
  416POPC   GL1 8113  40.850  35.194   9.225
  416POPC   GL2 8114  41.122  35.063   9.057
  416POPC   C1A 8115  40.624  35.378   8.846
  416POPC   D2A 8116  40.531  35.198   8.403
  416POPC   C3A 8117  40.653  35.415   8.027
  416POPC   C4A 8118  40.696  35.538   7.611
  416POPC   C1B 8119  40.872  34.962   8.728
  416POPC   C2B 8120  40.933  34.833   8.318
  416POPC   C3B 8121  40.901  34.960   7.868
  416POPC   C4B 8122  40.586  35.039   7.621
  417POPC   NC3 8123  29.937  43.026   9.594
  417POPC   PO4 8124  29.970  42.369   9.399
  417POPC   GL1 8125  29.729  42.771   9.175
  417POPC   GL2 8126  29.849  43.159   9.117
  417POPC   C1A 8127  29.706  42.901   8.716
  417POPC   D2A 8128  29.623  42.941   8.274
  417POPC   C3A 8129  29.798  43.167   7.895
  417POPC   C4A 8130  29.703  43.188   7.431
  417POPC   C1B 8131  30.119  43.194   8.718
  417POPC   C2B 8132  30.153  43.005   8.278
  417POPC   C3B 8133  30.171  42.851   7.844
  417POPC   C4B 8134  30.212  43.100   7.492
  418POPC   NC3 8135  42.102  11.851   9.468
  418POPC   PO4 8136  42.561  12.382   9.567
  418POPC   GL1 8137  42.515  12.035   9.232
  418POPC   GL2 8138  42.220  12.060   8.997
  418POPC   C1A 8139  42.645  11.870   8.815
  418POPC   D2A 8140  42.392  12.012   8.445
  418POPC   C3A 8141  42.569  11.978   8.036
  418POPC   C4A 8142  42.568  11.745   7.657
  418POPC   C1B 8143  42.004  12.305   8.673
  418POPC   C2B 8144  41.952  12.250   8.215
  418POPC   C3B 8145  42.079  12.057   7.816
  418POPC   C4B 8146  42.196  11.986   7.366
  419POPC   NC3 8147  13.455  10.229   9.660
  419POPC   PO4 8148  12.841  10.589   9.547
  419POPC   GL1 8149  12.743  10.567   9.107
  419POPC   GL2 8150  12.482  10.789   9.123
  419POPC   C1A 8151  12.781  10.285   8.700
  419POPC   D2A 8152  12.969  10.213   8.284
  419POPC   C3A 8153  12.832  10.265   7.860
  419POPC   C4A 8154  13.085  10.636   7.738
  419POPC   C1B 8155  12.408  10.636   8.719
  419POPC   C2B 8156  12.538  10.721   8.283
  419POPC   C3B 8157  12.539  10.696   7.826
  419POPC   C4B 8158  12.326  10.772   7.424
  420POPC   NC3 8159  27.742  42.595   9.458
  420POPC   PO4 8160  27.676  43.257   9.653
  420POPC   GL1 8161  27.648  43.035   9.239
  420POPC   GL2 8162  27.959  42.935   9.077
  420POPC   C1A 8163  27.536  43.138   8.830
  420POPC   D2A 8164  27.710  43.316   8.464
  420POPC   C3A 8165  27.815  43.163   8.106
  420POPC   C4A 8166  27.780  43.290   7.704
  420POPC   C1B 8167  27.888  42.856   8.604
  420POPC   C2B 8168  27.868  42.647   8.204
  420POPC   C3B 8169  27.921  42.801   7.767
  420POPC   C4B 8170  27.771  42.908   7.358
  421POPC   NC3 8171  12.239  17.431   9.468
  421POPC   PO4 8172  11.916  17.954   9.400
  421POPC   GL1 8173  11.895  17.628   9.108
  421POPC   GL2 8174  12.271  17.654   9.011
  421POPC   C1A 8175  11.916  17.560   8.650
  421POPC   D2A 8176  12.178  17.738   8.317
  421POPC   C3A 8177  12.004  17.604   7.941
  421POPC   C4A 8178  11.603  17.627   7.757
  421POPC   C1B 8179  12.279  17.233   8.802
  421POPC   C2B 8180  12.201  17.189   8.342
  421POPC   C3B 8181  12.338  17.212   7.895
  421POPC   C4B 8182  12.375  17.516   7.503
  422POPC   NC3 8183  27.745   9.233   9.295
  422POPC   PO4 8184  27.104   8.919   9.522
  422POPC   GL1 8185  27.357   8.856   9.121
  422POPC   GL2 8186  27.700   8.837   8.937
  422POPC   C1A 8187  27.272   8.911   8.676
  422POPC   D2A 8188  27.486   8.702   8.343
  422POPC   C3A 8189  27.703   8.913   8.047
  422POPC   C4A 8190  27.801   8.813   7.599
  422POPC   C1B 8191  27.715   9.186   8.593
  422POPC   C2B 8192  27.771   9.416   8.172
  422POPC   C3B 8193  27.943   9.274   7.733
  422POPC   C4B 8194  27.817   9.186   7.262
  423POPC   NC3 8195  17.708  35.921   9.503
  423POPC   PO4 8196  17.155  36.347   9.431
  423POPC   GL1 8197  17.416  36.150   9.141
  423POPC   GL2 8198  17.740  36.324   9.185
  423POPC   C1A 8199  17.524  36.036   8.733
  423POPC   D2A 8200  17.564  35.826   8.350
  423POPC   C3A 8201  17.571  36.103   7.994
  423POPC   C4A 8202  17.545  36.078   7.580
  423POPC   C1B 8203  17.947  36.344   8.801
  423POPC   C2B 8204  17.757  36.349   8.417
  423POPC   C3B 8205  17.914  36.473   8.066
  423POPC   C4B 8206  17.803  36.515   7.664
  424POPC   NC3 8207  30.465   0.311   9.893
  424POPC   PO4 8208  30.940   0.523   9.496
  424POPC   GL1 8209  30.726   0.367   9.113
  424POPC   GL2 8210  30.883   0.049   9.077
  424POPC   C1A 8211  30.541   0.585   8.722
  424POPC   D2A 8212  30.351   0.735   8.331
  424POPC   C3A 8213  30.605   0.647   7.991
  424POPC   C4A 8214  30.792   0.480   7.624
  424POPC   C1B 8215  30.770   0.119   8.651
  424POPC   C2B 8216  30.481   0.226   8.322
  424POPC   C3B 8217  30.561   0.130   7.910
  424POPC   C4B 8218  30.488   0.037   7.504
  425POPC   NC3 8219  27.024  37.810   9.452
  425POPC   PO4 8220  27.299  37.281   9.656
  425POPC   GL1 8221  27.073  37.363   9.205
  425POPC   GL2 8222  26.709  37.433   9.220
  425POPC   C1A 8223  26.942  37.677   8.815
  425POPC   D2A 8224  26.599  37.800   8.526
  425POPC   C3A 8225  26.653  37.824   8.087
  425POPC   C4A 8226  26.908  37.897   7.698
  425POPC   C1B 8227  26.790  37.199   8.797
  425POPC   C2B 8228  26.908  37.399   8.368
  425POPC   C3B 8229  26.848  37.376   7.910
  425POPC   C4B 8230  26.519  37.555   7.624
  426POPC   NC3 8231  13.673  23.221   9.590
  426POPC   PO4 8232  13.306  23.893   9.509
  426POPC   GL1 8233  13.559  23.938   9.163
  426POPC   GL2 8234  13.624  23.624   9.091
  426POPC   C1A 8235  13.764  24.051   8.766
  426POPC   D2A 8236  13.770  23.768   8.452
  426POPC   C3A 8237  13.531  23.841   8.124
  426POPC   C4A 8238  13.846  23.934   7.828
  426POPC   C1B 8239  13.457  23.351   8.783
  426POPC   C2B 8240  13.345  23.415   8.401
  426POPC   C3B 8241  13.130  23.454   8.044
  426POPC   C4B 8242  13.312  23.310   7.682
  427POPC   NC3 8243  21.408  33.603   9.700
  427POPC   PO4 8244  21.231  34.220   9.500
  427POPC   GL1 8245  21.466  33.874   9.224
  427POPC   GL2 8246  21.455  33.520   9.203
  427POPC   C1A 8247  21.404  33.856   8.775
  427POPC   D2A 8248  21.457  34.054   8.391
  427POPC   C3A 8249  21.299  33.885   8.021
  427POPC   C4A 8250  21.449  33.809   7.627
  427POPC   C1B 8251  21.744  33.501   8.840
  427POPC   C2B 8252  21.647  33.536   8.369
  427POPC   C3B 8253  21.804  33.644   7.930
  427POPC   C4B 8254  21.823  33.607   7.386
  428POPC   NC3 8255  31.135  38.835   9.424
  428POPC   PO4 8256  31.458  38.256   9.483
  428POPC   GL1 8257  31.425  38.452   9.119
  428POPC   GL2 8258  31.761  38.361   9.056
  428POPC   C1A 8259  31.505  38.656   8.720
  428POPC   D2A 8260  31.707  38.592   8.346
  428POPC   C3A 8261  31.362  38.632   8.101
  428POPC   C4A 8262  31.316  38.228   7.934
  428POPC   C1B 8263  31.947  38.186   8.698
  428POPC   C2B 8264  32.100  38.197   8.266
  428POPC   C3B 8265  31.853  38.236   7.887
  428POPC   C4B 8266  31.672  38.607   7.721
  429POPC   NC3 8267  44.756  42.131   9.572
  429POPC   PO4 8268  44.606  42.746   9.312
  429POPC   GL1 8269  44.593  42.424   9.034
  429POPC   GL2 8270  44.624  42.685   8.780
  429POPC   C1A 8271  44.723  42.209   8.657
  429POPC   D2A 8272  44.621  42.320   8.243
  429POPC   C3A 8273  44.722  42.022   7.913
  429POPC   C4A 8274  44.818  42.090   7.461
  429POPC   C1B 8275   0.020  42.608   8.542
  429POPC   C2B 8276   0.124  42.316   8.239
  429POPC   C3B 8277  44.961  42.471   7.852
  429POPC   C4B 8278  44.994  42.891   7.726
  430POPC   NC3 8279  17.573  18.575   9.381
  430POPC   PO4 8280  17.707  17.888   9.487
  430POPC   GL1 8281  17.532  18.121   9.140
  430POPC   GL2 8282  17.259  17.957   9.072
  430POPC   C1A 8283  17.646  18.385   8.744
  430POPC   D2A 8284  17.792  18.313   8.313
  430POPC   C3A 8285  17.689  18.464   7.879
  430POPC   C4A 8286  17.917  18.771   7.685
  430POPC   C1B 8287  17.138  18.269   8.794
  430POPC   C2B 8288  17.269  18.396   8.407
  430POPC   C3B 8289  17.230  18.309   8.002
  430POPC   C4B 8290  16.953  18.028   7.872
  431POPC   NC3 8291  23.315  33.656   9.824
  431POPC   PO4 8292  23.150  34.122   9.362
  431POPC   GL1 8293  22.884  33.832   9.101
  431POPC   GL2 8294  22.566  33.690   9.131
  431POPC   C1A 8295  23.002  33.809   8.693
  431POPC   D2A 8296  23.032  34.230   8.569
  431POPC   C3A 8297  23.023  34.226   8.145
  431POPC   C4A 8298  23.008  33.937   7.772
  431POPC   C1B 8299  22.577  33.531   8.696
  431POPC   C2B 8300  22.693  33.390   8.278
  431POPC   C3B 8301  22.706  33.517   7.832
  431POPC   C4B 8302  22.665  33.420   7.367
  432POPC   NC3 8303  16.961   6.379   9.392
  432POPC   PO4 8304  16.476   6.844   9.467
  432POPC   GL1 8305  16.684   6.695   9.098
  432POPC   GL2 8306  17.041   6.765   9.028
  432POPC   C1A 8307  16.629   6.836   8.699
  432POPC   D2A 8308  16.502   6.736   8.296
  432POPC   C3A 8309  16.757   6.825   7.956
  432POPC   C4A 8310  16.577   6.535   7.728
  432POPC   C1B 8311  17.012   6.484   8.671
  432POPC   C2B 8312  16.917   6.402   8.222
  432POPC   C3B 8313  17.043   6.363   7.792
  432POPC   C4B 8314  17.070   6.700   7.499
  433POPC   NC3 8315  37.285  17.695   9.258
  433POPC   PO4 8316  37.009  17.124   9.642
  433POPC   GL1 8317  36.963  17.203   9.154
  433POPC   GL2 8318  36.968  17.529   8.904
  433POPC   C1A 8319  36.719  17.136   8.769
  433POPC   D2A 8320  36.697  17.480   8.462
  433POPC   C3A 8321  36.804  17.341   8.055
  433POPC   C4A 8322  37.033  17.487   7.714
  433POPC   C1B 8323  37.094  17.813   8.607
  433POPC   C2B 8324  37.126  17.751   8.182
  433POPC   C3B 8325  37.249  17.965   7.828
  433POPC   C4B 8326  37.325  17.798   7.412
  434POPC   NC3 8327  13.929  22.302   9.621
  434POPC   PO4 8328  13.424  21.929   9.443
  434POPC   GL1 8329  13.658  22.068   9.110
  434POPC   GL2 8330  13.936  21.919   9.213
  434POPC   C1A 8331  13.649  22.212   8.683
  434POPC   D2A 8332  13.432  22.058   8.305
  434POPC   C3A 8333  13.424  22.377   8.001
  434POPC   C4A 8334  13.591  22.209   7.640
  434POPC   C1B 8335  14.088  21.927   8.812
  434POPC   C2B 8336  14.119  22.237   8.477
  434POPC   C3B 8337  13.922  22.243   8.084
  434POPC   C4B 8338  14.067  22.087   7.709
  435POPC   NC3 8339   7.850  44.170   9.213
  435POPC   PO4 8340   8.311  43.758   9.507
  435POPC   GL1 8341   8.241  43.776   9.098
  435POPC   GL2 8342   7.969  43.629   9.103
  435POPC   C1A 8343   8.211  43.976   8.683
  435POPC   D2A 8344   8.280  43.799   8.304
  435POPC   C3A 8345   8.361  44.037   7.932
  435POPC   C4A 8346   8.197  43.689   7.715
  435POPC   C1B 8347   8.044  43.485   8.669
  435POPC   C2B 8348   7.763  43.537   8.305
  435POPC   C3B 8349   7.720  43.525   7.822
  435POPC   C4B 8350   7.833  43.647   7.348
  436POPC   NC3 8351   0.663   4.299   9.495
  436POPC   PO4 8352   0.031   4.375   9.318
  436POPC   GL1 8353   0.324   4.164   9.104
  436POPC   GL2 8354   0.405   4.466   8.929
  436POPC   C1A 8355   0.547   4.034   8.729
  436POPC   D2A 8356   0.544   4.307   8.381
  436POPC   C3A 8357   0.420   4.191   7.973
  436POPC   C4A 8358   0.530   4.373   7.601
  436POPC   C1B 8359   0.846   4.417   8.808
  436POPC   C2B 8360   1.076   4.224   8.452
  436POPC   C3B 8361   0.927   4.191   8.029
  436POPC   C4B 8362   0.928   4.045   7.616
  437POPC   NC3 8363  44.143  24.266   9.505
  437POPC   PO4 8364  43.651  24.682   9.377
  437POPC   GL1 8365  43.874  24.406   9.046
  437POPC   GL2 8366  43.733  24.067   9.082
  437POPC   C1A 8367  43.953  24.154   8.618
  437POPC   D2A 8368  43.920  24.068   8.134
  437POPC   C3A 8369  44.000  24.443   7.900
  437POPC   C4A 8370  44.236  24.830   8.055
  437POPC   C1B 8371  43.491  24.300   8.716
  437POPC   C2B 8372  43.545  24.368   8.291
  437POPC   C3B 8373  43.459  24.226   7.878
  437POPC   C4B 8374  43.486  24.607   7.691
  438POPC   NC3 8375  14.971  18.576   9.568
  438POPC   PO4 8376  15.203  17.944   9.528
  438POPC   GL1 8377  15.329  18.195   9.173
  438POPC   GL2 8378  15.052  18.399   9.106
  438POPC   C1A 8379  15.245  18.117   8.708
  438POPC   D2A 8380  15.309  18.315   8.294
  438POPC   C3A 8381  15.004  18.256   7.964
  438POPC   C4A 8382  14.993  17.810   7.793
  438POPC   C1B 8383  15.291  18.619   8.813
  438POPC   C2B 8384  15.548  18.737   8.463
  438POPC   C3B 8385  15.399  18.760   8.042
  438POPC   C4B 8386  15.413  18.494   7.696
  439POPC   NC3 8387   4.011  26.616   9.459
  439POPC   PO4 8388   4.621  26.959   9.682
  439POPC   GL1 8389   4.498  26.820   9.285
  439POPC   GL2 8390   4.215  26.983   9.164
  439POPC   C1A 8391   4.495  26.712   8.857
  439POPC   D2A 8392   4.589  26.699   8.439
  439POPC   C3A 8393   4.308  26.667   8.124
  439POPC   C4A 8394   3.973  26.578   7.847
  439POPC   C1B 8395   4.026  27.184   8.808
  439POPC   C2B 8396   3.949  27.284   8.352
  439POPC   C3B 8397   4.050  27.083   7.935
  439POPC   C4B 8398   4.365  26.823   7.638
  440POPC   NC3 8399  34.940  31.330   9.602
  440POPC   PO4 8400  34.509  31.845   9.400
  440POPC   GL1 8401  34.669  31.602   9.112
  440POPC   GL2 8402  34.594  31.317   9.186
  440POPC   C1A 8403  34.535  31.559   8.686
  440POPC   D2A 8404  34.720  31.801   8.358
  440POPC   C3A 8405  34.673  31.616   7.964
  440POPC   C4A 8406  34.314  31.370   7.792
  440POPC   C1B 8407  34.749  31.104   8.818
  440POPC   C2B 8408  34.536  31.036   8.467
  440POPC   C3B 8409  34.640  31.102   8.071
  440POPC   C4B 8410  34.587  30.932   7.681
  441POPC   NC3 8411  31.043  17.692   9.464
  441POPC   PO4 8412  30.389  17.824   9.355
  441POPC   GL1 8413  30.602  17.632   9.022
  441POPC   GL2 8414  30.862  17.363   9.122
  441POPC   C1A 8415  30.341  17.644   8.633
  441POPC   D2A 8416  30.283  17.779   8.209
  441POPC   C3A 8417  30.632  17.671   7.921
  441POPC   C4A 8418  30.694  17.328   7.631
  441POPC   C1B 8419  31.151  17.350   8.778
  441POPC   C2B 8420  31.022  17.340   8.346
  441POPC   C3B 8421  31.113  17.408   7.937
  441POPC   C4B 8422  31.099  17.729   7.666
  442POPC   NC3 8423  16.816  16.915   9.832
  442POPC   PO4 8424  17.130  16.492   9.331
  442POPC   GL1 8425  16.786  16.699   9.137
  442POPC   GL2 8426  16.717  17.048   9.183
  442POPC   C1A 8427  16.869  16.821   8.698
  442POPC   D2A 8428  16.827  16.577   8.326
  442POPC   C3A 8429  16.866  16.691   7.897
  442POPC   C4A 8430  17.023  16.458   7.524
  442POPC   C1B 8431  16.432  17.051   8.802
  442POPC   C2B 8432  16.323  16.868   8.426
  442POPC   C3B 8433  16.077  16.946   8.077
  442POPC   C4B 8434  16.270  16.971   7.691
  443POPC   NC3 8435  31.505  29.351   9.478
  443POPC   PO4 8436  31.288  28.699   9.421
  443POPC   GL1 8437  31.495  29.002   9.065
  443POPC   GL2 8438  31.623  29.389   8.979
  443POPC   C1A 8439  31.428  29.091   8.618
  443POPC   D2A 8440  31.529  29.254   8.260
  443POPC   C3A 8441  31.341  29.008   7.945
  443POPC   C4A 8442  31.657  28.889   7.688
  443POPC   C1B 8443  31.214  29.477   8.849
  443POPC   C2B 8444  31.090  29.454   8.394
  443POPC   C3B 8445  31.236  29.511   7.957
  443POPC   C4B 8446  31.616  29.427   7.768
  444POPC   NC3 8447  14.156  27.146   9.521
  444POPC   PO4 8448  14.511  27.706   9.717
  444POPC   GL1 8449  14.477  27.544   9.324
  444POPC   GL2 8450  14.681  27.778   9.141
  444POPC   C1A 8451  14.259  27.574   8.933
  444POPC   D2A 8452  14.465  27.681   8.541
  444POPC   C3A 8453  14.191  27.703   8.188
  444POPC   C4A 8454  14.263  27.735   7.758
  444POPC   C1B 8455  14.692  28.109   8.807
  444POPC   C2B 8456  14.840  28.045   8.366
  444POPC   C3B 8457  14.741  28.043   7.903
  444POPC   C4B 8458  14.716  28.170   7.449
  445POPC   NC3 8459  10.042  36.949   9.532
  445POPC   PO4 8460  10.682  36.983   9.383
  445POPC   GL1 8461  10.622  36.998   8.987
  445POPC   GL2 8462  10.248  36.981   8.969
  445POPC   C1A 8463  10.597  36.867   8.577
  445POPC   D2A 8464  10.507  37.031   8.188
  445POPC   C3A 8465  10.814  36.859   7.929
  445POPC   C4A 8466  10.776  36.919   7.517
  445POPC   C1B 8467  10.144  36.658   8.644
  445POPC   C2B 8468  10.203  36.617   8.187
  445POPC   C3B 8469  10.214  36.834   7.787
  445POPC   C4B 8470   9.855  36.982   7.541
  446POPC   NC3 8471  13.444  26.123   9.338
  446POPC   PO4 8472  13.693  25.498   9.284
  446POPC   GL1 8473  13.608  25.798   8.945
  446POPC   GL2 8474  13.818  26.069   8.981
  446POPC   C1A 8475  13.348  26.113   8.679
  446POPC   D2A 8476  13.141  26.336   8.294
  446POPC   C3A 8477  13.371  26.147   7.949
  446POPC   C4A 8478  13.568  25.714   7.974
  446POPC   C1B 8479  13.849  26.148   8.556
  446POPC   C2B 8480  13.927  26.071   8.117
  446POPC   C3B 8481  14.132  26.246   7.769
  446POPC   C4B 8482  13.924  26.417   7.414
  447POPC   NC3 8483  32.627  31.786   9.315
  447POPC   PO4 8484  32.109  31.371   9.597
  447POPC   GL1 8485  32.300  31.241   9.200
  447POPC   GL2 8486  31.950  31.281   9.066
  447POPC   C1A 8487  32.631  31.309   8.843
  447POPC   D2A 8488  32.455  31.510   8.457
  447POPC   C3A 8489  32.561  31.746   8.053
  447POPC   C4A 8490  32.522  31.617   7.610
  447POPC   C1B 8491  31.935  31.502   8.645
  447POPC   C2B 8492  32.032  31.722   8.261
  447POPC   C3B 8493  32.094  31.541   7.872
  447POPC   C4B 8494  32.097  31.132   7.687
  448POPC   NC3 8495   5.457  37.315   9.470
  448POPC   PO4 8496   5.847  37.925   9.499
  448POPC   GL1 8497   5.683  37.710   9.178
  448POPC   GL2 8498   6.005  37.749   9.032
  448POPC   C1A 8499   5.583  37.496   8.790
  448POPC   D2A 8500   5.799  37.303   8.423
  448POPC   C3A 8501   5.723  37.588   8.101
  448POPC   C4A 8502   5.819  37.611   7.684
  448POPC   C1B 8503   6.182  37.521   8.711
  448POPC   C2B 8504   6.198  37.663   8.304
  448POPC   C3B 8505   6.293  37.518   7.921
  448POPC   C4B 8506   6.299  37.729   7.562
  449POPC   NC3 8507  23.856  32.858   9.558
  449POPC   PO4 8508  23.268  33.245   9.597
  449POPC   GL1 8509  23.472  33.180   9.152
  449POPC   GL2 8510  23.783  32.957   9.065
  449POPC   C1A 8511  23.504  33.137   8.673
  449POPC   D2A 8512  23.773  33.085   8.272
  449POPC   C3A 8513  23.497  32.973   7.909
  449POPC   C4A 8514  23.383  32.594   7.705
  449POPC   C1B 8515  24.009  33.153   8.728
  449POPC   C2B 8516  24.202  33.443   8.432
  449POPC   C3B 8517  24.167  33.375   7.984
  449POPC   C4B 8518  24.004  32.973   7.828
  450POPC   NC3 8519  15.295   6.150   9.435
  450POPC   PO4 8520  15.113   6.805   9.479
  450POPC   GL1 8521  15.460   6.747   9.232
  450POPC   GL2 8522  15.294   6.481   9.045
  450POPC   C1A 8523  15.469   6.937   8.831
  450POPC   D2A 8524  15.289   6.759   8.465
  450POPC   C3A 8525  15.500   6.952   8.111
  450POPC   C4A 8526  15.632   6.735   7.765
  450POPC   C1B 8527  14.889   6.483   8.802
  450POPC   C2B 8528  14.941   6.380   8.365
  450POPC   C3B 8529  15.165   6.568   7.986
  450POPC   C4B 8530  14.950   6.702   7.614
  451POPC   NC3 8531  24.628  33.100   9.520
  451POPC   PO4 8532  23.985  33.294   9.421
  451POPC   GL1 8533  24.315  33.014   9.107
  451POPC   GL2 8534  24.691  33.059   9.041
  451POPC   C1A 8535  24.459  32.982   8.619
  451POPC   D2A 8536  24.331  32.964   8.223
  451POPC   C3A 8537  24.546  33.071   7.823
  451POPC   C4A 8538  24.374  32.793   7.517
  451POPC   C1B 8539  24.676  32.598   8.869
  451POPC   C2B 8540  24.584  32.481   8.454
  451POPC   C3B 8541  24.720  32.662   8.061
  451POPC   C4B 8542  25.008  32.766   7.699
  452POPC   NC3 8543  29.993  35.494   9.765
  452POPC   PO4 8544  29.534  35.124   9.622
  452POPC   GL1 8545  29.852  35.342   9.296
  452POPC   GL2 8546  29.966  35.728   9.300
  452POPC   C1A 8547  30.059  35.360   8.897
  452POPC   D2A 8548  30.040  35.100   8.537
  452POPC   C3A 8549  30.044  35.273   8.154
  452POPC   C4A 8550  29.925  35.262   7.730
  452POPC   C1B 8551  30.064  35.873   8.881
  452POPC   C2B 8552  30.082  35.693   8.476
  452POPC   C3B 8553  30.093  35.785   8.047
  452POPC   C4B 8554  29.832  35.771   7.698
  453POPC   NC3 8555  34.792  30.412   9.437
  453POPC   PO4 8556  34.583  31.005   9.584
  453POPC   GL1 8557  34.581  30.810   9.202
  453POPC   GL2 8558  34.945  30.834   9.198
  453POPC   C1A 8559  34.414  30.619   8.824
  453POPC   D2A 8560  34.552  30.521   8.412
  453POPC   C3A 8561  34.320  30.682   8.061
  453POPC   C4A 8562  34.227  30.571   7.637
  453POPC   C1B 8563  34.946  30.598   8.810
  453POPC   C2B 8564  34.995  30.782   8.417
  453POPC   C3B 8565  34.865  30.647   8.019
  453POPC   C4B 8566  35.060  30.608   7.647
  454POPC   NC3 8567  27.297  10.984   9.431
  454POPC   PO4 8568  27.717  10.377   9.556
  454POPC   GL1 8569  27.555  10.359   9.153
  454POPC   GL2 8570  27.590  10.698   9.130
  454POPC   C1A 8571  27.485  10.235   8.737
  454POPC   D2A 8572  27.599  10.466   8.383
  454POPC   C3A 8573  27.578  10.273   8.013
  454POPC   C4A 8574  27.505  10.075   7.668
  454POPC   C1B 8575  27.267  10.705   8.811
  454POPC   C2B 8576  27.210  10.829   8.401
  454POPC   C3B 8577  27.307  10.691   8.005
  454POPC   C4B 8578  27.688  10.675   7.734
  455POPC   NC3 8579  22.378   9.283   9.805
  455POPC   PO4 8580  21.869   9.646   9.600
  455POPC   GL1 8581  21.911   9.707   9.170
  455POPC   GL2 8582  22.200   9.869   9.163
  455POPC   C1A 8583  22.063   9.548   8.765
  455POPC   D2A 8584  22.218   9.731   8.388
  455POPC   C3A 8585  21.967   9.705   8.043
  455POPC   C4A 8586  22.134   9.488   7.670
  455POPC   C1B 8587  22.429   9.972   8.791
  455POPC   C2B 8588  22.629  10.066   8.384
  455POPC   C3B 8589  22.575   9.840   7.972
  455POPC   C4B 8590  22.646   9.978   7.534
  456POPC   NC3 8591  36.681  32.479   9.302
  456POPC   PO4 8592  37.010  31.888   9.428
  456POPC   GL1 8593  36.982  32.114   9.091
  456POPC   GL2 8594  37.181  32.394   9.053
  456POPC   C1A 8595  36.838  32.012   8.702
  456POPC   D2A 8596  36.977  32.143   8.330
  456POPC   C3A 8597  36.673  32.141   8.028
  456POPC   C4A 8598  36.878  32.079   7.661
  456POPC   C1B 8599  36.942  32.600   8.726
  456POPC   C2B 8600  36.775  32.616   8.310
  456POPC   C3B 8601  36.955  32.569   7.893
  456POPC   C4B 8602  36.947  32.757   7.483
  457POPC   NC3 8603   2.621  40.719   9.495
  457POPC   PO4 8604   2.740  41.413   9.581
  457POPC   GL1 8605   2.879  41.010   9.165
  457POPC   GL2 8606   2.657  40.703   9.005
  457POPC   C1A 8607   2.843  40.983   8.668
  457POPC   D2A 8608   2.533  40.637   8.507
  457POPC   C3A 8609   2.490  40.656   8.094
  457POPC   C4A 8610   2.732  40.953   7.831
  457POPC   C1B 8611   2.986  40.490   8.694
  457POPC   C2B 8612   3.045  40.611   8.264
  457POPC   C3B 8613   2.902  40.465   7.866
  457POPC   C4B 8614   2.826  40.577   7.444
  458POPC   NC3 8615  19.281  39.403   9.472
  458POPC   PO4 8616  18.710  39.592   9.649
  458POPC   GL1 8617  18.806  39.394   9.176
  458POPC   GL2 8618  19.166  39.328   9.011
  458POPC   C1A 8619  18.810  39.112   8.770
  458POPC   D2A 8620  19.170  39.063   8.517
  458POPC   C3A 8621  19.088  38.842   8.165
  458POPC   C4A 8622  18.889  39.016   7.819
  458POPC   C1B 8623  19.484  39.396   8.742
  458POPC   C2B 8624  19.404  39.521   8.330
  458POPC   C3B 8625  19.265  39.669   7.974
  458POPC   C4B 8626  19.064  39.483   7.580
  459POPC   NC3 8627  11.608  14.892   9.450
  459POPC   PO4 8628  12.240  15.062   9.678
  459POPC   GL1 8629  12.126  15.108   9.216
  459POPC   GL2 8630  11.797  15.144   9.055
  459POPC   C1A 8631  12.157  14.925   8.786
  459POPC   D2A 8632  11.880  15.016   8.455
  459POPC   C3A 8633  12.053  14.977   8.041
  459POPC   C4A 8634  11.927  15.179   7.642
  459POPC   C1B 8635  11.637  15.443   8.761
  459POPC   C2B 8636  11.790  15.538   8.380
  459POPC   C3B 8637  11.641  15.460   7.974
  459POPC   C4B 8638  11.842  15.672   7.624
  460POPC   NC3 8639  43.754  25.101   9.572
  460POPC   PO4 8640  44.288  25.449   9.455
  460POPC   GL1 8641  43.899  25.502   9.190
  460POPC   GL2 8642  43.680  25.194   9.101
  460POPC   C1A 8643  43.893  25.447   8.733
  460POPC   D2A 8644  43.731  25.235   8.397
  460POPC   C3A 8645  44.024  25.295   8.067
  460POPC   C4A 8646  44.167  25.616   7.788
  460POPC   C1B 8647  43.909  24.916   8.813
  460POPC   C2B 8648  43.912  24.686   8.435
  460POPC   C3B 8649  43.715  24.843   8.069
  460POPC   C4B 8650  43.689  25.135   7.727
  461POPC   NC3 8651  30.861  20.105   9.396
  461POPC   PO4 8652  30.571  19.445   9.496
  461POPC   GL1 8653  30.675  19.671   9.143
  461POPC   GL2 8654  30.441  19.962   9.123
  461POPC   C1A 8655  30.835  19.664   8.733
  461POPC   D2A 8656  31.087  19.724   8.382
  461POPC   C3A 8657  30.865  19.528   8.074
  461POPC   C4A 8658  30.625  19.641   7.724
  461POPC   C1B 8659  30.507  20.101   8.698
  461POPC   C2B 8660  30.656  20.004   8.286
  461POPC   C3B 8661  30.952  20.006   7.946
  461POPC   C4B 8662  30.823  20.173   7.587
  462POPC   NC3 8663  14.543  42.614   9.444
  462POPC   PO4 8664  14.336  41.945   9.703
  462POPC   GL1 8665  14.498  42.140   9.283
  462POPC   GL2 8666  14.262  42.326   9.130
  462POPC   C1A 8667  14.644  42.215   8.820
  462POPC   D2A 8668  14.784  42.375   8.413
  462POPC   C3A 8669  14.641  42.223   8.023
  462POPC   C4A 8670  14.465  42.437   7.663
  462POPC   C1B 8671  14.128  42.225   8.715
  462POPC   C2B 8672  14.224  42.276   8.300
  462POPC   C3B 8673  14.041  42.301   7.911
  462POPC   C4B 8674  14.178  42.028   7.575
  463POPC   NC3 8675  20.099  16.602   9.411
  463POPC   PO4 8676  19.572  17.058   9.486
  463POPC   GL1 8677  19.667  16.735   9.147
  463POPC   GL2 8678  19.445  16.418   9.147
  463POPC   C1A 8679  19.905  16.805   8.746
  463POPC   D2A 8680  19.959  17.171   8.465
  463POPC   C3A 8681  20.048  17.142   8.011
  463POPC   C4A 8682  19.819  16.912   7.726
  463POPC   C1B 8683  19.614  16.401   8.737
  463POPC   C2B 8684  19.506  16.627   8.342
  463POPC   C3B 8685  19.561  16.513   7.902
  463POPC   C4B 8686  19.977  16.414   7.688
  464POPC   NC3 8687  43.639  18.243   9.491
  464POPC   PO4 8688  44.044  18.803   9.572
  464POPC   GL1 8689  44.123  18.477   9.173
  464POPC   GL2 8690  43.863  18.202   9.050
  464POPC   C1A 8691  44.139  18.425   8.700
  464POPC   D2A 8692  43.791  18.171   8.513
  464POPC   C3A 8693  43.696  18.222   8.100
  464POPC   C4A 8694  44.018  18.450   7.837
  464POPC   C1B 8695  44.068  17.867   8.807
  464POPC   C2B 8696  44.029  17.717   8.366
  464POPC   C3B 8697  44.089  17.931   7.957
  464POPC   C4B 8698  44.129  17.791   7.526
  465POPC   NC3 8699  25.821  15.669   9.569
  465POPC   PO4 8700  26.264  16.147   9.695
  465POPC   GL1 8701  26.107  15.994   9.321
  465POPC   GL2 8702  25.781  16.151   9.292
  465POPC   C1A 8703  26.101  15.939   8.892
  465POPC   D2A 8704  26.089  16.249   8.582
  465POPC   C3A 8705  26.046  16.071   8.213
  465POPC   C4A 8706  25.940  16.044   7.831
  465POPC   C1B 8707  25.638  16.200   8.875
  465POPC   C2B 8708  25.653  15.971   8.538
  465POPC   C3B 8709  25.565  15.889   8.142
  465POPC   C4B 8710  25.498  15.812   7.709
  466POPC   NC3 8711  31.722   8.742   9.430
  466POPC   PO4 8712  31.242   9.140   9.676
  466POPC   GL1 8713  31.396   9.089   9.245
  466POPC   GL2 8714  31.255   8.758   9.239
  466POPC   C1A 8715  31.553   8.947   8.814
  466POPC   D2A 8716  31.608   9.150   8.405
  466POPC   C3A 8717  31.760   9.022   8.022
  466POPC   C4A 8718  31.621   8.772   7.669
  466POPC   C1B 8719  31.162   8.574   8.887
  466POPC   C2B 8720  31.153   8.679   8.483
  466POPC   C3B 8721  31.306   8.792   8.100
  466POPC   C4B 8722  31.088   8.832   7.726
  467POPC   NC3 8723  12.317  35.298   9.519
  467POPC   PO4 8724  12.919  35.727   9.464
  467POPC   GL1 8725  12.967  35.307   9.234
  467POPC   GL2 8726  12.627  35.197   9.110
  467POPC   C1A 8727  13.127  35.233   8.801
  467POPC   D2A 8728  13.070  35.502   8.447
  467POPC   C3A 8729  13.004  35.368   8.029
  467POPC   C4A 8730  13.032  35.634   7.686
  467POPC   C1B 8731  12.641  35.318   8.680
  467POPC   C2B 8732  12.782  35.038   8.361
  467POPC   C3B 8733  12.600  35.038   7.956
  467POPC   C4B 8734  12.585  35.381   7.701
  468POPC   NC3 8735  44.616  32.739   9.439
  468POPC   PO4 8736  44.982  32.064   9.507
  468POPC   GL1 8737   0.052  32.285   9.163
  468POPC   GL2 8738  44.710  32.343   9.105
  468POPC   C1A 8739   0.050  32.256   8.718
  468POPC   D2A 8740  44.873  32.509   8.407
  468POPC   C3A 8741  44.792  32.408   7.990
  468POPC   C4A 8742  44.567  32.291   7.605
  468POPC   C1B 8743  44.495  32.316   8.708
  468POPC   C2B 8744  44.352  32.381   8.257
  468POPC   C3B 8745  44.191  32.538   7.846
  468POPC   C4B 8746  44.090  32.345   7.399
  469POPC   NC3 8747  20.263  12.169  10.162
  469POPC   PO4 8748  20.416  11.963   9.559
  469POPC   GL1 8749  20.545  11.977   9.106
  469POPC   GL2 8750  20.469  11.664   9.020
  469POPC   C1A 8751  20.544  11.965   8.616
  469POPC   D2A 8752  20.383  11.741   8.263
  469POPC   C3A 8753  20.604  11.936   7.881
  469POPC   C4A 8754  20.862  12.290   7.700
  469POPC   C1B 8755  20.926  11.687   8.770
  469POPC   C2B 8756  20.956  11.784   8.314
  469POPC   C3B 8757  21.101  11.824   7.882
  469POPC   C4B 8758  21.008  11.844   7.457
  470POPC   NC3 8759   4.564   3.653   9.565
  470POPC   PO4 8760   5.060   3.487   9.341
  470POPC   GL1 8761   4.861   3.371   8.984
  470POPC   GL2 8762   4.539   3.530   9.059
  470POPC   C1A 8763   4.950   3.318   8.535
  470POPC   D2A 8764   4.736   3.485   8.160
  470POPC   C3A 8765   5.014   3.378   7.851
  470POPC   C4A 8766   5.439   3.395   7.689
  470POPC   C1B 8767   4.608   3.677   8.628
  470POPC   C2B 8768   5.033   3.805   8.388
  470POPC   C3B 8769   4.989   3.897   7.922
  470POPC   C4B 8770   5.021   4.195   7.546
  471POPC   NC3 8771  36.128  10.999   9.527
  471POPC   PO4 8772  35.866  10.369   9.507
  471POPC   GL1 8773  36.062  10.593   9.145
  471POPC   GL2 8774  36.446  10.651   9.194
  471POPC   C1A 8775  35.925  10.501   8.694
  471POPC   D2A 8776  35.727  10.290   8.349
  471POPC   C3A 8777  35.969  10.379   7.997
  471POPC   C4A 8778  35.944  10.601   7.620
  471POPC   C1B 8779  36.400  10.648   8.750
  471POPC   C2B 8780  36.365  10.430   8.343
  471POPC   C3B 8781  36.428  10.585   7.896
  471POPC   C4B 8782  36.438  10.602   7.419
  472POPC   NC3 8783   3.988  30.227   9.359
  472POPC   PO4 8784   4.388  30.062   9.840
  472POPC   GL1 8785   4.487  29.893   9.394
  472POPC   GL2 8786   4.184  29.719   9.256
  472POPC   C1A 8787   4.630  29.837   8.931
  472POPC   D2A 8788   4.620  29.629   8.500
  472POPC   C3A 8789   4.616  29.905   8.108
  472POPC   C4A 8790   4.527  29.995   7.668
  472POPC   C1B 8791   4.169  29.675   8.801
  472POPC   C2B 8792   4.215  29.986   8.433
  472POPC   C3B 8793   4.130  30.086   7.987
  472POPC   C4B 8794   4.057  29.720   7.704
  473POPC   NC3 8795  15.799  23.875   9.677
  473POPC   PO4 8796  16.404  23.555   9.437
  473POPC   GL1 8797  16.122  23.864   9.179
  473POPC   GL2 8798  15.761  23.834   9.159
  473POPC   C1A 8799  16.055  23.843   8.721
  473POPC   D2A 8800  16.148  23.551   8.380
  473POPC   C3A 8801  16.070  23.726   7.979
  473POPC   C4A 8802  15.721  23.601   7.756
  473POPC   C1B 8803  15.640  24.124   8.828
  473POPC   C2B 8804  15.747  24.243   8.452
  473POPC   C3B 8805  15.669  24.050   8.083
  473POPC   C4B 8806  15.687  24.105   7.678
  474POPC   NC3 8807  29.336   9.079   9.592
  474POPC   PO4 8808  28.791   8.661   9.514
  474POPC   GL1 8809  29.039   8.842   9.201
  474POPC   GL2 8810  29.046   9.162   9.173
  474POPC   C1A 8811  29.202   8.861   8.777
  474POPC   D2A 8812  28.990   8.958   8.408
  474POPC   C3A 8813  29.224   8.880   8.086
  474POPC   C4A 8814  29.449   8.775   7.721
  474POPC   C1B 8815  28.914   9.313   8.765
  474POPC   C2B 8816  28.605   9.302   8.434
  474POPC   C3B 8817  28.747   9.194   8.011
  474POPC   C4B 8818  29.143   9.297   7.775
  475POPC   NC3 8819  34.184  39.002   9.460
  475POPC   PO4 8820  34.856  39.175   9.568
  475POPC   GL1 8821  34.853  39.212   9.141
  475POPC   GL2 8822  34.499  39.284   9.130
  475POPC   C1A 8823  34.778  39.254   8.684
  475POPC   D2A 8824  34.786  39.452   8.280
  475POPC   C3A 8825  34.782  39.179   7.965
  475POPC   C4A 8826  34.665  39.066   7.591
  475POPC   C1B 8827  34.355  39.515   8.770
  475POPC   C2B 8828  34.299  39.656   8.341
  475POPC   C3B 8829  34.361  39.488   7.907
  475POPC   C4B 8830  34.452  39.751   7.548
  476POPC   NC3 8831  17.699   7.613   9.560
  476POPC   PO4 8832  17.386   7.066   9.325
  476POPC   GL1 8833  17.383   7.491   9.131
  476POPC   GL2 8834  17.724   7.605   9.029
  476POPC   C1A 8835  17.315   7.639   8.708
  476POPC   D2A 8836  17.434   7.419   8.315
  476POPC   C3A 8837  17.344   7.624   7.901
  476POPC   C4A 8838  17.542   7.442   7.588
  476POPC   C1B 8839  17.703   7.228   8.736
  476POPC   C2B 8840  17.809   7.015   8.323
  476POPC   C3B 8841  17.891   7.206   7.898
  476POPC   C4B 8842  17.919   7.183   7.405
  477POPC   NC3 8843  31.899  21.659   9.443
  477POPC   PO4 8844  32.068  22.266   9.511
  477POPC   GL1 8845  32.195  22.044   9.113
  477POPC   GL2 8846  32.399  21.768   9.067
  477POPC   C1A 8847  32.422  22.093   8.688
  477POPC   D2A 8848  32.284  22.170   8.269
  477POPC   C3A 8849  32.549  22.134   7.931
  477POPC   C4A 8850  32.492  22.258   7.486
  477POPC   C1B 8851  32.051  21.732   8.732
  477POPC   C2B 8852  31.901  21.832   8.301
  477POPC   C3B 8853  32.108  21.827   7.903
  477POPC   C4B 8854  32.463  21.747   7.608
  478POPC   NC3 8855   5.125  31.972   9.492
  478POPC   PO4 8856   5.108  32.688   9.491
  478POPC   GL1 8857   4.952  32.395   9.186
  478POPC   GL2 8858   4.817  32.048   9.103
  478POPC   C1A 8859   5.071  32.473   8.765
  478POPC   D2A 8860   4.947  32.327   8.386
  478POPC   C3A 8861   5.074  32.534   7.993
  478POPC   C4A 8862   5.402  32.349   7.711
  478POPC   C1B 8863   4.737  31.898   8.670
  478POPC   C2B 8864   4.694  31.913   8.219
  478POPC   C3B 8865   4.730  31.927   7.768
  478POPC   C4B 8866   4.956  32.183   7.554
  479POPC   NC3 8867  26.411  25.888   9.394
  479POPC   PO4 8868  27.081  26.170   9.564
  479POPC   GL1 8869  26.919  25.868   9.237
  479POPC   GL2 8870  26.890  26.156   9.081
  479POPC   C1A 8871  26.736  25.699   8.833
  479POPC   D2A 8872  26.480  25.898   8.492
  479POPC   C3A 8873  26.569  25.866   8.041
  479POPC   C4A 8874  26.777  25.717   7.665
  479POPC   C1B 8875  27.106  26.051   8.758
  479POPC   C2B 8876  26.920  26.235   8.461
  479POPC   C3B 8877  26.927  26.268   8.066
  479POPC   C4B 8878  26.737  26.249   7.705
  480POPC   NC3 8879  32.985  35.348   9.568
  480POPC   PO4 8880  32.757  34.669   9.657
  480POPC   GL1 8881  32.994  34.933   9.269
  480POPC   GL2 8882  32.868  35.253   9.084
  480POPC   C1A 8883  33.151  34.963   8.816
  480POPC   D2A 8884  32.921  35.180   8.488
  480POPC   C3A 8885  33.187  35.414   8.199
  480POPC   C4A 8886  33.185  35.338   7.765
  480POPC   C1B 8887  32.632  35.539   8.805
  480POPC   C2B 8888  32.602  35.750   8.382
  480POPC   C3B 8889  32.702  35.494   7.994
  480POPC   C4B 8890  32.745  35.522   7.550
  481POPC   NC3 8891  10.681  39.642   9.444
  481POPC   PO4 8892  10.481  40.255   9.722
  481POPC   GL1 8893  10.541  40.153   9.193
  481POPC   GL2 8894  10.674  39.846   8.994
  481POPC   C1A 8895  10.414  40.220   8.740
  481POPC   D2A 8896  10.182  39.930   8.429
  481POPC   C3A 8897  10.426  39.773   8.062
  481POPC   C4A 8898  10.561  40.020   7.718
  481POPC   C1B 8899  10.661  39.802   8.565
  481POPC   C2B 8900  10.918  39.786   8.223
  481POPC   C3B 8901  10.976  39.735   7.837
  481POPC   C4B 8902  10.749  39.518   7.581
  482POPC   NC3 8903  36.777  34.215   9.595
  482POPC   PO4 8904  37.293  34.668   9.427
  482POPC   GL1 8905  36.952  34.484   9.189
  482POPC   GL2 8906  36.587  34.386   9.149
  482POPC   C1A 8907  36.964  34.296   8.775
  482POPC   D2A 8908  37.099  34.096   8.397
  482POPC   C3A 8909  36.805  34.164   8.077
  482POPC   C4A 8910  36.785  34.348   7.692
  482POPC   C1B 8911  36.668  34.706   8.832
  482POPC   C2B 8912  36.877  34.670   8.428
  482POPC   C3B 8913  36.864  34.741   8.012
  482POPC   C4B 8914  36.563  34.822   7.639
  483POPC   NC3 8915  44.070  41.404   9.551
  483POPC   PO4 8916  43.446  41.678   9.563
  483POPC   GL1 8917  43.601  41.658   9.173
  483POPC   GL2 8918  43.613  41.334   9.157
  483POPC   C1A 8919  43.598  41.802   8.728
  483POPC   D2A 8920  43.861  41.788   8.373
  483POPC   C3A 8921  43.727  41.595   8.015
  483POPC   C4A 8922  43.912  41.788   7.696
  483POPC   C1B 8923  43.913  41.397   8.863
  483POPC   C2B 8924  43.829  41.292   8.464
  483POPC   C3B 8925  44.110  41.297   8.152
  483POPC   C4B 8926  44.009  41.268   7.730
  484POPC   NC3 8927  43.592   7.820   9.252
  484POPC   PO4 8928  43.934   7.246   9.620
  484POPC   GL1 8929  43.808   7.324   9.244
  484POPC   GL2 8930  44.043   7.586   9.227
  484POPC   C1A 8931  43.692   7.285   8.825
  484POPC   D2A 8932  43.913   7.300   8.438
  484POPC   C3A 8933  43.729   7.509   8.097
  484POPC   C4A 8934  43.946   7.324   7.786
  484POPC   C1B 8935  44.030   7.703   8.804
  484POPC   C2B 8936  44.033   7.816   8.413
  484POPC   C3B 8937  44.229   7.680   8.061
  484POPC   C4B 8938  44.374   7.565   7.671
  485POPC   NC3 8939  36.508  38.180   9.745
  485POPC   PO4 8940  36.257  38.641   9.269
  485POPC   GL1 8941  36.137  38.468   8.920
  485POPC   GL2 8942  35.887  38.226   9.015
  485POPC   C1A 8943  35.866  38.501   8.594
  485POPC   D2A 8944  36.055  38.577   8.228
  485POPC   C3A 8945  35.812  38.553   7.877
  485POPC   C4A 8946  35.960  38.588   7.452
  485POPC   C1B 8947  36.087  38.029   8.676
  485POPC   C2B 8948  36.146  38.078   8.246
  485POPC   C3B 8949  36.268  38.262   7.874
  485POPC   C4B 8950  36.665  38.200   7.698
  486POPC   NC3 8951  39.147  14.826   9.394
  486POPC   PO4 8952  39.398  14.263   9.658
  486POPC   GL1 8953  39.244  14.343   9.199
  486POPC   GL2 8954  38.914  14.532   9.079
  486POPC   C1A 8955  39.200  14.197   8.770
  486POPC   D2A 8956  39.413  14.135   8.398
  486POPC   C3A 8957  39.159  14.070   8.027
  486POPC   C4A 8958  39.552  14.156   7.784
  486POPC   C1B 8959  38.801  14.668   8.678
  486POPC   C2B 8960  39.044  14.486   8.367
  486POPC   C3B 8961  39.306  14.542   8.067
  486POPC   C4B 8962  39.230  14.533   7.676
  487POPC   NC3 8963  25.115  16.308   9.263
  487POPC   PO4 8964  25.588  16.611   9.598
  487POPC   GL1 8965  25.408  16.815   9.226
  487POPC   GL2 8966  25.120  16.783   9.003
  487POPC   C1A 8967  25.543  17.043   8.868
  487POPC   D2A 8968  25.348  16.786   8.537
  487POPC   C3A 8969  25.366  16.824   8.083
  487POPC   C4A 8970  25.506  16.970   7.674
  487POPC   C1B 8971  24.907  16.535   8.682
  487POPC   C2B 8972  24.753  16.338   8.325
  487POPC   C3B 8973  24.922  16.551   8.037
  487POPC   C4B 8974  25.150  16.613   7.670
  488POPC   NC3 8975  23.054  43.403   9.619
  488POPC   PO4 8976  22.999  42.734   9.510
  488POPC   GL1 8977  22.936  43.080   9.214
  488POPC   GL2 8978  22.608  43.260   9.138
  488POPC   C1A 8979  23.093  43.169   8.801
  488POPC   D2A 8980  23.041  42.990   8.398
  488POPC   C3A 8981  23.160  43.148   7.981
  488POPC   C4A 8982  22.976  42.933   7.634
  488POPC   C1B 8983  22.679  43.483   8.719
  488POPC   C2B 8984  22.768  43.429   8.290
  488POPC   C3B 8985  22.655  43.085   8.041
  488POPC   C4B 8986  22.470  43.047   7.643
  489POPC   NC3 8987   1.564  41.854   9.472
  489POPC   PO4 8988   0.894  41.860   9.598
  489POPC   GL1 8989   1.123  41.679   9.250
  489POPC   GL2 8990   1.165  41.337   9.355
  489POPC   C1A 8991   1.202  41.770   8.804
  489POPC   D2A 8992   1.262  41.545   8.410
  489POPC   C3A 8993   1.335  41.767   8.022
  489POPC   C4A 8994   1.627  41.922   7.726
  489POPC   C1B 8995   1.271  41.266   8.924
  489POPC   C2B 8996   1.039  41.115   8.597
  489POPC   C3B 8997   1.093  41.136   8.149
  489POPC   C4B 8998   1.326  41.310   7.792
  490POPC   NC3 8999  19.114  43.306   9.629
  490POPC   PO4 9000  19.621  43.642   9.430
  490POPC   GL1 9001  19.216  43.450   9.158
  490POPC   GL2 9002  19.155  43.059   9.175
  490POPC   C1A 9003  19.071  43.309   8.726
  490POPC   D2A 9004  19.049  43.466   8.301
  490POPC   C3A 9005  18.985  43.236   7.928
  490POPC   C4A 9006  19.107  43.165   7.450
  490POPC   C1B 9007  19.396  42.890   8.803
  490POPC   C2B 9008  19.414  42.990   8.348
  490POPC   C3B 9009  19.423  42.976   7.890
  490POPC   C4B 9010  19.064  42.763   7.725
  491POPC   NC3 9011  34.349  34.710   9.386
  491POPC   PO4 9012  34.861  34.274   9.505
  491POPC   GL1 9013  34.648  34.246   9.123
  491POPC   GL2 9014  34.316  34.383   9.021
  491POPC   C1A 9015  34.712  34.369   8.705
  491POPC   D2A 9016  34.882  34.705   8.448
  491POPC   C3A 9017  34.860  34.546   8.036
  491POPC   C4A 9018  34.686  34.766   7.702
  491POPC   C1B 9019  34.329  34.702   8.669
  491POPC   C2B 9020  34.415  34.734   8.226
  491POPC   C3B 9021  34.208  34.878   7.873
  491POPC   C4B 9022  34.269  34.852   7.406
  492POPC   NC3 9023   3.525  42.945   9.651
  492POPC   PO4 9024   3.299  43.455   9.259
  492POPC   GL1 9025   3.388  43.137   8.986
  492POPC   GL2 9026   3.574  42.863   9.155
  492POPC   C1A 9027   3.313  43.124   8.554
  492POPC   D2A 9028   3.444  43.416   8.245
  492POPC   C3A 9029   3.322  43.521   7.829
  492POPC   C4A 9030   3.421  43.297   7.465
  492POPC   C1B 9031   3.750  42.840   8.757
  492POPC   C2B 9032   3.795  43.004   8.345
  492POPC   C3B 9033   3.552  42.963   7.970
  492POPC   C4B 9034   3.680  42.885   7.538
  493POPC   NC3 9035  31.217   7.881   9.497
  493POPC   PO4 9036  31.627   8.301   9.353
  493POPC   GL1 9037  31.448   8.159   9.036
  493POPC   GL2 9038  31.368   7.838   9.020
  493POPC   C1A 9039  31.511   8.289   8.645
  493POPC   D2A 9040  31.309   8.241   8.265
  493POPC   C3A 9041  31.456   8.339   7.876
  493POPC   C4A 9042  31.255   8.424   7.465
  493POPC   C1B 9043  31.090   7.973   8.683
  493POPC   C2B 9044  30.937   7.895   8.271
  493POPC   C3B 9045  31.032   8.038   7.853
  493POPC   C4B 9046  31.326   7.943   7.567
  494POPC   NC3 9047  10.589  16.277   9.499
  494POPC   PO4 9048  10.337  15.583   9.567
  494POPC   GL1 9049  10.408  15.803   9.167
  494POPC   GL2 9050  10.292  16.133   9.118
  494POPC   C1A 9051  10.628  15.922   8.762
  494POPC   D2A 9052  10.888  15.933   8.404
  494POPC   C3A 9053  10.651  15.999   8.029
  494POPC   C4A 9054  10.303  15.870   7.746
  494POPC   C1B 9055  10.362  16.370   8.768
  494POPC   C2B 9056  10.295  16.185   8.372
  494POPC   C3B 9057  10.292  16.367   7.955
  494POPC   C4B 9058  10.239  16.599   7.550
  495POPC   NC3 9059  18.704  11.240   9.165
  495POPC   PO4 9060  19.286  11.540   9.420
  495POPC   GL1 9061  19.185  11.353   9.055
  495POPC   GL2 9062  18.989  11.623   8.959
  495POPC   C1A 9063  19.062  11.220   8.636
  495POPC   D2A 9064  18.791  11.327   8.315
  495POPC   C3A 9065  19.047  11.240   7.957
  495POPC   C4A 9066  18.908  11.086   7.610
  495POPC   C1B 9067  18.672  11.674   8.666
  495POPC   C2B 9068  18.684  11.854   8.269
  495POPC   C3B 9069  18.792  11.702   7.887
  495POPC   C4B 9070  18.777  11.572   7.486
  496POPC   NC3 9071   6.971  22.748   9.426
  496POPC   PO4 9072   7.637  22.733   9.578
  496POPC   GL1 9073   7.469  22.681   9.123
  496POPC   GL2 9074   7.138  22.654   8.919
  496POPC   C1A 9075   7.639  22.612   8.680
  496POPC   D2A 9076   7.653  22.416   8.233
  496POPC   C3A 9077   7.482  22.671   7.892
  496POPC   C4A 9078   7.535  22.677   7.410
  496POPC   C1B 9079   6.997  23.097   8.759
  496POPC   C2B 9080   6.876  23.399   8.376
  496POPC   C3B 9081   6.990  23.355   7.914
  496POPC   C4B 9082   7.236  23.056   7.641
  497POPC   NC3 9083   2.098  19.256   9.535
  497POPC   PO4 9084   2.334  18.599   9.512
  497POPC   GL1 9085   2.140  18.908   9.151
  497POPC   GL2 9086   1.831  19.087   9.123
  497POPC   C1A 9087   2.141  19.094   8.719
  497POPC   D2A 9088   2.094  18.913   8.319
  497POPC   C3A 9089   2.185  19.188   8.021
  497POPC   C4A 9090   2.438  19.090   7.722
  497POPC   C1B 9091   1.733  18.789   8.771
  497POPC   C2B 9092   1.690  18.577   8.354
  497POPC   C3B 9093   1.573  18.709   7.950
  497POPC   C4B 9094   1.926  18.858   7.747
  498POPC   NC3 9095   3.230   7.001   9.391
  498POPC   PO4 9096   3.464   7.643   9.467
  498POPC   GL1 9097   3.417   7.439   9.110
  498POPC   GL2 9098   3.607   7.170   9.088
  498POPC   C1A 9099   3.291   7.350   8.681
  498POPC   D2A 9100   3.194   7.118   8.284
  498POPC   C3A 9101   3.368   7.367   7.930
  498POPC   C4A 9102   3.451   7.471   7.485
  498POPC   C1B 9103   3.819   7.455   8.798
  498POPC   C2B 9104   3.852   7.631   8.386
  498POPC   C3B 9105   3.845   7.286   8.086
  498POPC   C4B 9106   3.850   7.181   7.685
  499POPC   NC3 9107  23.502  37.075   9.483
  499POPC   PO4 9108  23.546  36.469   9.462
  499POPC   GL1 9109  23.731  36.725   9.138
  499POPC   GL2 9110  23.897  37.077   9.112
  499POPC   C1A 9111  23.788  36.755   8.716
  499POPC   D2A 9112  23.637  36.916   8.364
  499POPC   C3A 9113  23.767  36.798   7.997
  499POPC   C4A 9114  23.992  36.969   7.677
  499POPC   C1B 9115  23.509  37.154   8.828
  499POPC   C2B 9116  23.322  37.286   8.459
  499POPC   C3B 9117  23.478  37.446   8.096
  499POPC   C4B 9118  23.565  37.275   7.719
  500POPC   NC3 9119  39.168  35.517   9.666
  500POPC   PO4 9120  39.451  35.041   9.414
  500POPC   GL1 9121  39.133  35.294   9.184
  500POPC   GL2 9122  38.962  35.643   9.218
  500POPC   C1A 9123  39.157  35.430   8.755
  500POPC   D2A 9124  39.033  35.264   8.346
  500POPC   C3A 9125  39.274  35.135   7.990
  500POPC   C4A 9126  39.215  35.044   7.557
  500POPC   C1B 9127  38.780  35.779   8.825
  500POPC   C2B 9128  38.975  35.782   8.412
  500POPC   C3B 9129  38.918  35.639   8.004
  500POPC   C4B 9130  39.242  35.556   7.729
  501POPC   NC3 9131  18.615  25.024   9.668
  501POPC   PO4 9132  18.184  25.521   9.427
  501POPC   GL1 9133  18.395  25.332   9.097
  501POPC   GL2 9134  18.434  25.602   8.919
  501POPC   C1A 9135  18.377  25.072   8.704
  501POPC   D2A 9136  18.419  25.253   8.272
  501POPC   C3A 9137  18.432  24.988   7.832
  501POPC   C4A 9138  18.393  24.775   7.360
  501POPC   C1B 9139  18.035  25.436   8.720
  501POPC   C2B 9140  17.809  25.247   8.380
  501POPC   C3B 9141  17.974  25.226   7.971
  501POPC   C4B 9142  18.315  25.506   7.855
  502POPC   NC3 9143  29.707  34.815   9.317
  502POPC   PO4 9144  30.321  34.604   9.546
  502POPC   GL1 9145  30.126  34.537   9.173
  502POPC   GL2 9146  29.975  34.215   9.118
  502POPC   C1A 9147  30.139  34.619   8.757
  502POPC   D2A 9148  30.204  34.342   8.423
  502POPC   C3A 9149  30.274  34.609   8.092
  502POPC   C4A 9150  30.055  34.707   7.744
  502POPC   C1B 9151  29.779  34.228   8.689
  502POPC   C2B 9152  29.599  34.181   8.244
  502POPC   C3B 9153  29.654  34.325   7.817
  502POPC   C4B 9154  29.839  34.345   7.428
  503POPC   NC3 9155  41.155  37.438   9.378
  503POPC   PO4 9156  41.717  37.699   9.593
  503POPC   GL1 9157  41.681  37.522   9.167
  503POPC   GL2 9158  41.399  37.744   9.070
  503POPC   C1A 9159  41.716  37.649   8.695
  503POPC   D2A 9160  41.628  38.065   8.516
  503POPC   C3A 9161  41.702  38.060   8.079
  503POPC   C4A 9162  41.851  37.665   7.814
  503POPC   C1B 9163  41.128  37.778   8.722
  503POPC   C2B 9164  41.115  37.581   8.343
  503POPC   C3B 9165  41.376  37.636   8.023
  503POPC   C4B 9166  41.378  37.929   7.712
  504POPC   NC3 9167  12.561  44.984   9.878
  504POPC   PO4 9168  12.190  44.515   9.532
  504POPC   GL1 9169  12.191  44.562   9.085
  504POPC   GL2 9170  12.076  44.901   9.075
  504POPC   C1A 9171  12.125  44.607   8.660
  504POPC   D2A 9172  12.078  44.899   8.339
  504POPC   C3A 9173  12.072  44.626   8.005
  504POPC   C4A 9174  11.900  44.683   7.601
  504POPC   C1B 9175  12.362   0.053   8.783
  504POPC   C2B 9176  12.582  44.859   8.469
  504POPC   C3B 9177  12.525  44.989   8.059
  504POPC   C4B 9178  12.391  44.841   7.682
  505POPC   NC3 9179  37.180  20.137   9.384
  505POPC   PO4 9180  36.685  19.732   9.365
  505POPC   GL1 9181  36.792  19.931   9.029
  505POPC   GL2 9182  37.133  19.855   8.970
  505POPC   C1A 9183  36.716  19.973   8.590
  505POPC   D2A 9184  36.969  19.849   8.228
  505POPC   C3A 9185  36.706  19.891   7.901
  505POPC   C4A 9186  36.549  19.702   7.558
  505POPC   C1B 9187  37.212  20.121   8.612
  505POPC   C2B 9188  37.153  20.330   8.203
  505POPC   C3B 9189  37.128  20.114   7.780
  505POPC   C4B 9190  37.178  20.027   7.282
  506POPC   NC3 9191  23.750  34.404   9.532
  506POPC   PO4 9192  23.671  34.975   9.321
  506POPC   GL1 9193  23.661  34.641   9.071
  506POPC   GL2 9194  23.971  34.524   9.102
  506POPC   C1A 9195  23.686  34.491   8.663
  506POPC   D2A 9196  23.394  34.527   8.356
  506POPC   C3A 9197  23.470  34.404   7.978
  506POPC   C4A 9198  23.686  34.111   7.815
  506POPC   C1B 9199  24.065  34.867   8.792
  506POPC   C2B 9200  24.146  34.732   8.379
  506POPC   C3B 9201  23.956  34.554   8.014
  506POPC   C4B 9202  23.702  34.852   7.759
  507POPC   NC3 9203  27.999  10.767   9.525
  507POPC   PO4 9204  28.510  10.322   9.629
  507POPC   GL1 9205  28.386  10.530   9.242
  507POPC   GL2 9206  28.073  10.398   9.196
  507POPC   C1A 9207  28.372  10.787   8.837
  507POPC   D2A 9208  28.590  10.861   8.412
  507POPC   C3A 9209  28.382  10.826   7.987
  507POPC   C4A 9210  28.411  10.482   7.648
  507POPC   C1B 9211  27.930  10.533   8.810
  507POPC   C2B 9212  28.093  10.644   8.426
  507POPC   C3B 9213  28.053  10.446   8.059
  507POPC   C4B 9214  27.976  10.250   7.683
  508POPC   NC3 9215   1.821   6.265   9.511
  508POPC   PO4 9216   2.155   6.809   9.674
  508POPC   GL1 9217   1.978   6.722   9.261
  508POPC   GL2 9218   2.163   6.425   9.137
  508POPC   C1A 9219   1.856   6.738   8.807
  508POPC   D2A 9220   2.056   6.735   8.377
  508POPC   C3A 9221   1.884   6.727   7.938
  508POPC   C4A 9222   2.080   6.713   7.523
  508POPC   C1B 9223   2.124   6.305   8.686
  508POPC   C2B 9224   2.215   6.279   8.212
  508POPC   C3B 9225   2.035   6.261   7.764
  508POPC   C4B 9226   1.976   6.255   7.269
  509POPC   NC3 9227  16.195  29.370   9.994
  509POPC   PO4 9228  16.189  29.103   9.386
  509POPC   GL1 9229  16.002  29.172   9.058
  509POPC   GL2 9230  15.802  29.455   9.108
  509POPC   C1A 9231  15.960  28.956   8.726
  509POPC   D2A 9232  15.722  28.841   8.397
  509POPC   C3A 9233  15.973  28.792   8.049
  509POPC   C4A 9234  15.905  28.785   7.627
  509POPC   C1B 9235  15.904  29.476   8.651
  509POPC   C2B 9236  16.045  29.254   8.304
  509POPC   C3B 9237  15.987  29.279   7.882
  509POPC   C4B 9238  15.855  29.440   7.538
  510POPC   NC3 9239  22.894   8.949   9.608
  510POPC   PO4 9240  22.442   9.455   9.377
  510POPC   GL1 9241  22.819   9.220   9.167
  510POPC   GL2 9242  22.952   8.860   9.120
  510POPC   C1A 9243  22.895   9.217   8.730
  510POPC   D2A 9244  23.157   9.284   8.378
  510POPC   C3A 9245  22.946   9.195   7.990
  510POPC   C4A 9246  22.756   9.114   7.567
  510POPC   C1B 9247  22.762   8.694   8.765
  510POPC   C2B 9248  22.774   8.876   8.368
  510POPC   C3B 9249  22.864   8.692   7.989
  510POPC   C4B 9250  22.860   8.611   7.588
  511POPC   NC3 9251  23.265  43.930   9.295
  511POPC   PO4 9252  22.659  43.640   9.509
  511POPC   GL1 9253  22.734  43.798   9.129
  511POPC   GL2 9254  22.996  43.577   9.088
  511POPC   C1A 9255  22.844  44.053   8.772
  511POPC   D2A 9256  22.929  43.935   8.348
  511POPC   C3A 9257  22.789  44.141   7.966
  511POPC   C4A 9258  22.641  43.893   7.662
  511POPC   C1B 9259  23.183  43.658   8.704
  511POPC   C2B 9260  23.273  43.522   8.318
  511POPC   C3B 9261  23.079  43.659   7.935
  511POPC   C4B 9262  22.842  43.419   7.692
  512POPC   NC3 9263  10.816   0.288   9.552
  512POPC   PO4 9264  10.150   0.393   9.637
  512POPC   GL1 9265  10.377   0.671   9.288
  512POPC   GL2 9266  10.577   0.416   9.130
  512POPC   C1A 9267  10.467   0.762   8.802
  512POPC   D2A 9268  10.588   0.534   8.427
  512POPC   C3A 9269  10.528   0.669   8.013
  512POPC   C4A 9270  10.881   0.715   7.757
  512POPC   C1B 9271  10.711   0.176   8.790
  512POPC   C2B 9272  10.649   0.009   8.420
  512POPC   C3B 9273  10.618   0.111   7.999
  512POPC   C4B 9274  10.242  44.987   7.795
  513POPC   NC3 9275   5.919  28.025   9.596
  513POPC   PO4 9276   6.142  28.641   9.550
  513POPC   GL1 9277   5.886  28.438   9.250
  513POPC   GL2 9278   5.992  28.677   9.031
  513POPC   C1A 9279   5.587  28.348   8.913
  513POPC   D2A 9280   5.639  28.170   8.525
  513POPC   C3A 9281   5.642  28.404   8.114
  513POPC   C4A 9282   5.874  28.219   7.754
  513POPC   C1B 9283   6.100  28.327   8.766
  513POPC   C2B 9284   6.099  28.277   8.330
  513POPC   C3B 9285   6.154  28.585   8.021
  513POPC   C4B 9286   6.018  28.707   7.629
  514POPC   NC3 9287   3.262  28.457   9.487
  514POPC   PO4 9288   2.629  28.160   9.502
  514POPC   GL1 9289   2.764  28.259   9.066
  514POPC   GL2 9290   2.951  28.570   9.092
  514POPC   C1A 9291   2.585  28.396   8.645
  514POPC   D2A 9292   2.356  28.605   8.279
  514POPC   C3A 9293   2.511  28.486   7.867
  514POPC   C4A 9294   2.692  28.112   7.691
  514POPC   C1B 9295   3.041  28.619   8.689
  514POPC   C2B 9296   2.884  28.722   8.284
  514POPC   C3B 9297   3.024  28.456   7.940
  514POPC   C4B 9298   2.947  28.507   7.472
  515POPC   NC3 9299  33.125  12.890   9.384
  515POPC   PO4 9300  32.586  12.909   9.690
  515POPC   GL1 9301  32.733  12.591   9.241
  515POPC   GL2 9302  33.011  12.730   8.946
  515POPC   C1A 9303  32.715  12.378   8.829
  515POPC   D2A 9304  32.771  12.664   8.480
  515POPC   C3A 9305  33.082  12.689   8.163
  515POPC   C4A 9306  32.852  12.580   7.788
  515POPC   C1B 9307  33.285  13.100   8.795
  515POPC   C2B 9308  33.412  13.211   8.401
  515POPC   C3B 9309  33.166  13.218   8.021
  515POPC   C4B 9310  33.196  12.926   7.666
  516POPC   NC3 9311  36.077  34.260   9.314
  516POPC   PO4 9312  36.485  34.709   9.560
  516POPC   GL1 9313  36.246  34.775   9.152
  516POPC   GL2 9314  35.916  34.893   9.244
  516POPC   C1A 9315  36.205  34.558   8.744
  516POPC   D2A 9316  36.438  34.415   8.383
  516POPC   C3A 9317  36.265  34.553   7.990
  516POPC   C4A 9318  36.300  34.374   7.595
  516POPC   C1B 9319  35.841  34.946   8.806
  516POPC   C2B 9320  35.923  34.823   8.402
  516POPC   C3B 9321  35.810  34.862   8.007
  516POPC   C4B 9322  35.916  34.746   7.616
  517POPC   NC3 9323  43.524  40.342   9.445
  517POPC   PO4 9324  43.831  41.008   9.521
  517POPC   GL1 9325  43.884  40.903   9.118
  517POPC   GL2 9326  43.864  40.566   9.081
  517POPC   C1A 9327  43.633  40.921   8.766
  517POPC   D2A 9328  43.586  40.762   8.357
  517POPC   C3A 9329  43.707  40.999   8.032
  517POPC   C4A 9330  43.839  40.803   7.672
  517POPC   C1B 9331  44.220  40.478   8.779
  517POPC   C2B 9332  44.260  40.379   8.342
  517POPC   C3B 9333  43.942  40.445   8.032
  517POPC   C4B 9334  43.886  40.286   7.614
  518POPC   NC3 9335  43.089   8.749   9.651
  518POPC   PO4 9336  42.589   9.159   9.533
  518POPC   GL1 9337  42.843   8.854   9.244
  518POPC   GL2 9338  43.132   9.069   9.222
  518POPC   C1A 9339  43.113   8.719   8.871
  518POPC   D2A 9340  43.260   9.020   8.543
  518POPC   C3A 9341  43.192   8.922   8.097
  518POPC   C4A 9342  43.151   8.670   7.698
  518POPC   C1B 9343  42.804   9.156   8.858
  518POPC   C2B 9344  42.746   9.073   8.412
  518POPC   C3B 9345  42.730   9.179   7.989
  518POPC   C4B 9346  43.028   9.160   7.647
  519POPC   NC3 9347  37.069  25.544   9.660
  519POPC   PO4 9348  36.844  24.911   9.634
  519POPC   GL1 9349  36.782  25.230   9.271
  519POPC   GL2 9350  36.507  25.483   9.338
  519POPC   C1A 9351  36.951  25.511   8.929
  519POPC   D2A 9352  37.105  25.676   8.513
  519POPC   C3A 9353  37.113  25.326   8.201
  519POPC   C4A 9354  37.102  25.378   7.743
  519POPC   C1B 9355  36.442  25.412   8.890
  519POPC   C2B 9356  36.674  25.387   8.467
  519POPC   C3B 9357  36.635  25.149   8.078
  519POPC   C4B 9358  36.592  25.318   7.698
  520POPC   NC3 9359   3.751  34.016   9.547
  520POPC   PO4 9360   3.617  33.373   9.566
  520POPC   GL1 9361   3.491  33.654   9.193
  520POPC   GL2 9362   3.773  33.795   9.094
  520POPC   C1A 9363   3.360  33.899   8.790
  520POPC   D2A 9364   3.418  34.154   8.393
  520POPC   C3A 9365   3.237  34.011   8.012
  520POPC   C4A 9366   3.391  33.878   7.617
  520POPC   C1B 9367   3.878  33.939   8.695
  520POPC   C2B 9368   3.770  33.821   8.288
  520POPC   C3B 9369   3.833  33.967   7.870
  520POPC   C4B 9370   4.013  33.930   7.432
  521POPC   NC3 9371  41.218  20.183   9.639
  521POPC   PO4 9372  41.487  20.782   9.730
  521POPC   GL1 9373  41.494  20.654   9.269
  521POPC   GL2 9374  41.831  20.560   9.134
  521POPC   C1A 9375  41.505  20.735   8.808
  521POPC   D2A 9376  41.685  20.735   8.402
  521POPC   C3A 9377  41.347  20.804   8.063
  521POPC   C4A 9378  41.313  20.627   7.626
  521POPC   C1B 9379  42.046  20.453   8.746
  521POPC   C2B 9380  42.005  20.312   8.289
  521POPC   C3B 9381  41.731  20.474   7.960
  521POPC   C4B 9382  41.718  20.356   7.550
  522POPC   NC3 9383   3.050   4.912   9.849
  522POPC   PO4 9384   3.649   5.118   9.605
  522POPC   GL1 9385   3.701   5.083   9.134
  522POPC   GL2 9386   3.380   5.110   8.903
  522POPC   C1A 9387   3.751   4.823   8.751
  522POPC   D2A 9388   3.550   5.008   8.382
  522POPC   C3A 9389   3.769   5.036   7.970
  522POPC   C4A 9390   3.714   4.870   7.534
  522POPC   C1B 9391   3.274   5.412   8.613
  522POPC   C2B 9392   3.215   5.379   8.172
  522POPC   C3B 9393   3.461   5.460   7.826
  522POPC   C4B 9394   3.849   5.367   7.569
  523POPC   NC3 9395  42.336  28.530   9.447
  523POPC   PO4 9396  42.151  27.869   9.372
  523POPC   GL1 9397  42.304  28.173   9.097
  523POPC   GL2 9398  42.581  28.074   8.981
  523POPC   C1A 9399  42.419  28.508   8.755
  523POPC   D2A 9400  42.216  28.609   8.349
  523POPC   C3A 9401  42.435  28.665   7.942
  523POPC   C4A 9402  42.349  28.629   7.494
  523POPC   C1B 9403  42.313  27.995   8.632
  523POPC   C2B 9404  42.199  28.083   8.248
  523POPC   C3B 9405  42.242  27.918   7.871
  523POPC   C4B 9406  42.300  28.141   7.534
  524POPC   NC3 9407  19.314  34.757   9.710
  524POPC   PO4 9408  18.692  34.633   9.672
  524POPC   GL1 9409  18.838  34.416   9.213
  524POPC   GL2 9410  19.172  34.458   9.164
  524POPC   C1A 9411  18.842  34.459   8.734
  524POPC   D2A 9412  18.802  34.315   8.307
  524POPC   C3A 9413  18.930  34.619   8.008
  524POPC   C4A 9414  19.279  34.840   7.877
  524POPC   C1B 9415  19.332  34.360   8.752
  524POPC   C2B 9416  19.350  34.530   8.336
  524POPC   C3B 9417  19.350  34.339   7.927
  524POPC   C4B 9418  19.570  34.378   7.557
  525POPC   NC3 9419  43.576   2.229   9.533
  525POPC   PO4 9420  44.145   1.794   9.454
  525POPC   GL1 9421  43.927   2.110   9.209
  525POPC   GL2 9422  44.096   2.032   8.994
  525POPC   C1A 9423  43.742   2.340   8.836
  525POPC   D2A 9424  43.973   2.165   8.476
  525POPC   C3A 9425  43.779   2.162   8.112
  525POPC   C4A 9426  43.551   1.936   7.829
  525POPC   C1B 9427  44.163   1.740   8.700
  525POPC   C2B 9428  44.184   1.698   8.266
  525POPC   C3B 9429  43.980   1.633   7.868
  525POPC   C4B 9430  44.120   1.503   7.425
  526POPC   NC3 9431  18.642   1.364   9.434
  526POPC   PO4 9432  18.077   1.076   9.494
  526POPC   GL1 9433  18.298   1.136   9.139
  526POPC   GL2 9434  18.643   0.941   9.151
  526POPC   C1A 9435  18.118   1.245   8.771
  526POPC   D2A 9436  18.270   1.389   8.397
  526POPC   C3A 9437  18.048   1.330   8.038
  526POPC   C4A 9438  18.106   1.174   7.634
  526POPC   C1B 9439  18.641   1.234   8.749
  526POPC   C2B 9440  18.745   1.284   8.274
  526POPC   C3B 9441  18.606   1.307   7.797
  526POPC   C4B 9442  18.490   1.087   7.347
  527POPC   NC3 9443  43.081  10.197   9.609
  527POPC   PO4 9444  43.164  10.856   9.589
  527POPC   GL1 9445  43.031  10.747   9.195
  527POPC   GL2 9446  43.138  10.404   9.148
  527POPC   C1A 9447  42.698  10.745   8.884
  527POPC   D2A 9448  42.623  10.478   8.534
  527POPC   C3A 9449  42.689  10.634   8.118
  527POPC   C4A 9450  42.805  10.826   7.698
  527POPC   C1B 9451  43.096  10.458   8.721
  527POPC   C2B 9452  43.275  10.432   8.343
  527POPC   C3B 9453  43.179  10.548   7.957
  527POPC   C4B 9454  43.119  10.311   7.619
  528POPC   NC3 9455   2.085  12.416   9.473
  528POPC   PO4 9456   2.279  11.797   9.340
  528POPC   GL1 9457   2.236  12.078   9.022
  528POPC   GL2 9458   1.897  12.136   9.086
  528POPC   C1A 9459   2.278  12.072   8.578
  528POPC   D2A 9460   2.067  11.805   8.277
  528POPC   C3A 9461   2.019  11.955   7.908
  528POPC   C4A 9462   2.166  12.199   7.608
  528POPC   C1B 9463   1.785  11.956   8.673
  528POPC   C2B 9464   1.502  11.965   8.296
  528POPC   C3B 9465   1.510  12.203   7.914
  528POPC   C4B 9466   1.655  12.337   7.489
  529POPC   NC3 9467  37.355  32.181   9.555
  529POPC   PO4 9468  37.870  32.609   9.464
  529POPC   GL1 9469  37.684  32.306   9.138
  529POPC   GL2 9470  37.490  31.956   9.124
  529POPC   C1A 9471  37.788  32.349   8.693
  529POPC   D2A 9472  38.058  32.427   8.324
  529POPC   C3A 9473  37.900  32.133   8.037
  529POPC   C4A 9474  37.734  32.260   7.662
  529POPC   C1B 9475  37.358  32.037   8.726
  529POPC   C2B 9476  37.485  32.016   8.309
  529POPC   C3B 9477  37.320  32.008   7.909
  529POPC   C4B 9478  37.490  31.832   7.541
  530POPC   NC3 9479  16.858  41.783   9.768
  530POPC   PO4 9480  16.722  42.355   9.488
  530POPC   GL1 9481  16.602  42.265   9.080
  530POPC   GL2 9482  16.847  42.067   8.937
  530POPC   C1A 9483  16.637  42.427   8.653
  530POPC   D2A 9484  16.536  42.230   8.254
  530POPC   C3A 9485  16.585  42.533   7.909
  530POPC   C4A 9486  16.977  42.557   7.639
  530POPC   C1B 9487  17.016  42.083   8.535
  530POPC   C2B 9488  17.067  42.006   8.129
  530POPC   C3B 9489  16.780  42.074   7.789
  530POPC   C4B 9490  16.406  41.856   7.852
  531POPC   NC3 9491  15.629  12.507   9.380
  531POPC   PO4 9492  16.040  13.119   9.437
  531POPC   GL1 9493  15.930  12.826   9.123
  531POPC   GL2 9494  16.124  12.532   9.167
  531POPC   C1A 9495  15.703  12.770   8.732
  531POPC   D2A 9496  15.555  13.101   8.489
  531POPC   C3A 9497  15.808  13.128   8.144
  531POPC   C4A 9498  15.790  13.083   7.733
  531POPC   C1B 9499  16.225  12.730   8.736
  531POPC   C2B 9500  16.140  12.755   8.328
  531POPC   C3B 9501  16.239  12.874   7.931
  531POPC   C4B 9502  16.057  12.670   7.599
  532POPC   NC3 9503   0.416  29.822   9.413
  532POPC   PO4 9504   0.100  30.432   9.549
  532POPC   GL1 9505   0.444  30.283   9.173
  532POPC   GL2 9506   0.344  29.995   8.943
  532POPC   C1A 9507   0.795  30.131   8.783
  532POPC   D2A 9508   1.023  30.141   8.344
  532POPC   C3A 9509   0.688  30.103   8.012
  532POPC   C4A 9510   0.406  29.851   7.779
  532POPC   C1B 9511   0.176  30.334   8.742
  532POPC   C2B 9512   0.009  30.364   8.362
  532POPC   C3B 9513   0.054  30.104   8.055
  532POPC   C4B 9514  44.981  30.264   7.683
  533POPC   NC3 9515  32.697  38.047   9.206
  533POPC   PO4 9516  33.093  38.517   9.392
  533POPC   GL1 9517  33.177  38.392   9.007
  533POPC   GL2 9518  32.830  38.529   8.925
  533POPC   C1A 9519  33.295  38.565   8.610
  533POPC   D2A 9520  32.988  38.732   8.320
  533POPC   C3A 9521  33.011  38.598   7.909
  533POPC   C4A 9522  33.158  38.636   7.524
  533POPC   C1B 9523  32.902  38.236   8.561
  533POPC   C2B 9524  33.163  38.195   8.191
  533POPC   C3B 9525  33.057  38.115   7.751
  533POPC   C4B 9526  32.767  38.330   7.465
  534POPC   NC3 9527  14.494  41.490   9.626
  534POPC   PO4 9528  14.087  41.852   9.248
  534POPC   GL1 9529  14.457  41.658   9.130
  534POPC   GL2 9530  14.450  41.285   9.138
  534POPC   C1A 9531  14.550  41.714   8.715
  534POPC   D2A 9532  14.544  41.478   8.360
  534POPC   C3A 9533  14.452  41.744   8.039
  534POPC   C4A 9534  14.347  41.569   7.691
  534POPC   C1B 9535  14.145  41.388   8.797
  534POPC   C2B 9536  13.885  41.307   8.439
  534POPC   C3B 9537  14.122  41.280   8.053
  534POPC   C4B 9538  14.068  41.146   7.606
  535POPC   NC3 9539  41.221  11.471   9.304
  535POPC   PO4 9540  41.874  11.446   9.378
  535POPC   GL1 9541  41.647  11.320   9.028
  535POPC   GL2 9542  41.463  11.051   9.040
  535POPC   C1A 9543  41.557  11.450   8.638
  535POPC   D2A 9544  41.442  11.321   8.264
  535POPC   C3A 9545  41.693  11.281   7.936
  535POPC   C4A 9546  41.612  11.327   7.496
  535POPC   C1B 9547  41.248  10.950   8.666
  535POPC   C2B 9548  41.074  10.995   8.258
  535POPC   C3B 9549  41.234  11.030   7.853
  535POPC   C4B 9550  41.116  11.200   7.457
  536POPC   NC3 9551  20.489  32.414   9.355
  536POPC   PO4 9552  20.444  31.782   9.631
  536POPC   GL1 9553  20.434  31.907   9.200
  536POPC   GL2 9554  20.752  32.035   9.058
  536POPC   C1A 9555  20.381  31.820   8.752
  536POPC   D2A 9556  20.575  32.043   8.390
  536POPC   C3A 9557  20.337  32.154   8.020
  536POPC   C4A 9558  20.348  31.949   7.645
  536POPC   C1B 9559  20.816  32.358   8.711
  536POPC   C2B 9560  21.028  32.351   8.296
  536POPC   C3B 9561  20.840  32.331   7.885
  536POPC   C4B 9562  20.896  32.617   7.511
  537POPC   NC3 9563  29.541  27.814   9.514
  537POPC   PO4 9564  30.211  27.557   9.673
  537POPC   GL1 9565  29.925  27.403   9.208
  537POPC   GL2 9566  29.629  27.521   9.116
  537POPC   C1A 9567  29.918  27.588   8.706
  537POPC   D2A 9568  29.935  27.979   8.424
  537POPC   C3A 9569  30.026  27.861   7.991
  537POPC   C4A 9570  29.957  27.451   7.810
  537POPC   C1B 9571  29.554  27.897   8.847
  537POPC   C2B 9572  29.412  27.914   8.459
  537POPC   C3B 9573  29.550  27.693   8.104
  537POPC   C4B 9574  29.556  27.945   7.749
  538POPC   NC3 9575  29.919   6.207   9.542
  538POPC   PO4 9576  29.629   5.608   9.656
  538POPC   GL1 9577  29.845   5.789   9.228
  538POPC   GL2 9578  30.110   6.067   9.110
  538POPC   C1A 9579  29.851   5.800   8.761
  538POPC   D2A 9580  29.920   5.640   8.343
  538POPC   C3A 9581  29.758   5.833   7.957
  538POPC   C4A 9582  29.748   5.958   7.528
  538POPC   C1B 9583  30.128   6.237   8.740
  538POPC   C2B 9584  29.980   6.135   8.356
  538POPC   C3B 9585  30.212   6.061   7.984
  538POPC   C4B 9586  30.059   6.312   7.697
  539POPC   NC3 9587  33.731  19.310   9.515
  539POPC   PO4 9588  34.056  18.709   9.479
  539POPC   GL1 9589  33.849  18.946   9.168
  539POPC   GL2 9590  34.001  19.259   9.095
  539POPC   C1A 9591  33.665  18.924   8.771
  539POPC   D2A 9592  33.583  19.195   8.407
  539POPC   C3A 9593  33.472  18.988   8.038
  539POPC   C4A 9594  33.713  18.764   7.764
  539POPC   C1B 9595  34.028  19.290   8.658
  539POPC   C2B 9596  34.025  19.380   8.222
  539POPC   C3B 9597  33.803  19.365   7.853
  539POPC   C4B 9598  33.896  19.522   7.418
  540POPC   NC3 9599   4.746  37.317   9.606
  540POPC   PO4 9600   5.282  37.716   9.624
  540POPC   GL1 9601   5.162  37.688   9.219
  540POPC   GL2 9602   4.823  37.739   9.338
  540POPC   C1A 9603   5.297  37.943   8.854
  540POPC   D2A 9604   5.355  37.888   8.395
  540POPC   C3A 9605   5.025  37.715   8.105
  540POPC   C4A 9606   5.299  37.561   7.797
  540POPC   C1B 9607   4.811  37.942   8.954
  540POPC   C2B 9608   4.845  38.015   8.521
  540POPC   C3B 9609   5.005  38.215   8.184
  540POPC   C4B 9610   5.194  38.094   7.810
  541POPC   NC3 9611  16.837  20.500   9.523
  541POPC   PO4 9612  16.988  21.024   9.188
  541POPC   GL1 9613  16.641  20.722   9.082
  541POPC   GL2 9614  16.483  20.362   9.181
  541POPC   C1A 9615  16.398  20.813   8.710
  541POPC   D2A 9616  16.723  20.737   8.356
  541POPC   C3A 9617  16.631  20.749   7.908
  541POPC   C4A 9618  16.864  20.682   7.491
  541POPC   C1B 9619  16.526  20.334   8.731
  541POPC   C2B 9620  16.307  20.480   8.329
  541POPC   C3B 9621  16.340  20.331   7.916
  541POPC   C4B 9622  16.421  20.438   7.522
  542POPC   NC3 9623  17.768  30.708   9.359
  542POPC   PO4 9624  18.348  30.450   9.642
  542POPC   GL1 9625  18.302  30.561   9.190
  542POPC   GL2 9626  18.207  30.880   9.093
  542POPC   C1A 9627  18.163  30.433   8.755
  542POPC   D2A 9628  18.019  30.244   8.369
  542POPC   C3A 9629  18.118  30.522   8.042
  542POPC   C4A 9630  18.332  30.674   7.728
  542POPC   C1B 9631  18.038  30.917   8.674
  542POPC   C2B 9632  18.138  31.003   8.216
  542POPC   C3B 9633  18.293  31.171   7.804
  542POPC   C4B 9634  17.994  31.117   7.433
  543POPC   NC3 9635  26.076  34.664   9.731
  543POPC   PO4 9636  25.591  34.413   9.418
  543POPC   GL1 9637  25.937  34.441   9.153
  543POPC   GL2 9638  26.036  34.774   9.198
  543POPC   C1A 9639  25.980  34.536   8.727
  543POPC   D2A 9640  26.074  34.774   8.384
  543POPC   C3A 9641  26.012  34.573   7.992
  543POPC   C4A 9642  25.754  34.707   7.648
  543POPC   C1B 9643  26.342  34.986   8.890
  543POPC   C2B 9644  26.538  34.971   8.463
  543POPC   C3B 9645  26.391  34.974   8.031
  543POPC   C4B 9646  26.210  34.908   7.632
  544POPC   NC3 9647  27.680  15.630   9.674
  544POPC   PO4 9648  27.128  15.955   9.776
  544POPC   GL1 9649  27.534  15.981   9.335
  544POPC   GL2 9650  27.870  16.019   9.352
  544POPC   C1A 9651  27.459  15.955   8.804
  544POPC   D2A 9652  27.443  15.902   8.355
  544POPC   C3A 9653  27.409  15.986   7.961
  544POPC   C4A 9654  27.222  15.630   7.784
  544POPC   C1B 9655  27.832  15.709   9.023
  544POPC   C2B 9656  27.789  15.605   8.574
  544POPC   C3B 9657  27.937  15.754   8.154
  544POPC   C4B 9658  27.782  15.714   7.753
  545POPC   NC3 9659   3.402  17.749   9.358
  545POPC   PO4 9660   3.802  17.207   9.557
  545POPC   GL1 9661   3.612  17.312   9.178
  545POPC   GL2 9662   3.839  17.573   9.142
  545POPC   C1A 9663   3.691  17.281   8.733
  545POPC   D2A 9664   3.587  17.536   8.371
  545POPC   C3A 9665   3.558  17.322   8.018
  545POPC   C4A 9666   3.413  17.350   7.606
  545POPC   C1B 9667   3.739  17.819   8.782
  545POPC   C2B 9668   3.977  17.970   8.430
  545POPC   C3B 9669   3.928  17.793   8.029
  545POPC   C4B 9670   3.769  18.007   7.671
  546POPC   NC3 9671  29.983  11.859   9.521
  546POPC   PO4 9672  30.022  11.197   9.463
  546POPC   GL1 9673  30.103  11.489   9.135
  546POPC   GL2 9674  29.792  11.653   9.072
  546POPC   C1A 9675  30.075  11.286   8.724
  546POPC   D2A 9676  30.054  10.970   8.397
  546POPC   C3A 9677  29.802  11.080   8.043
  546POPC   C4A 9678  29.688  11.030   7.655
  546POPC   C1B 9679  29.639  11.670   8.658
  546POPC   C2B 9680  29.886  11.531   8.306
  546POPC   C3B 9681  29.927  11.608   7.886
  546POPC   C4B 9682  29.549  11.509   7.664
  547POPC   NC3 9683  31.200  12.882   9.518
  547POPC   PO4 9684  30.481  12.810   9.530
  547POPC   GL1 9685  30.649  12.834   9.165
  547POPC   GL2 9686  30.411  12.588   8.985
  547POPC   C1A 9687  30.830  13.068   8.838
  547POPC   D2A 9688  30.751  12.950   8.437
  547POPC   C3A 9689  30.702  13.175   8.061
  547POPC   C4A 9690  30.630  12.880   7.745
  547POPC   C1B 9691  30.813  12.514   8.808
  547POPC   C2B 9692  31.002  12.510   8.414
  547POPC   C3B 9693  31.076  12.769   8.078
  547POPC   C4B 9694  31.103  12.563   7.714
  548POPC   NC3 9695   7.365  41.007   9.320
  548POPC   PO4 9696   7.547  40.616   9.820
  548POPC   GL1 9697   7.474  40.533   9.243
  548POPC   GL2 9698   7.683  40.727   8.995
  548POPC   C1A 9699   7.254  40.703   8.782
  548POPC   D2A 9700   7.624  40.758   8.481
  548POPC   C3A 9701   7.534  40.680   8.106
  548POPC   C4A 9702   7.144  40.648   7.908
  548POPC   C1B 9703   7.746  40.367   8.782
  548POPC   C2B 9704   8.040  40.403   8.436
  548POPC   C3B 9705   7.959  40.370   8.010
  548POPC   C4B 9706   7.575  40.386   7.702
  549POPC   NC3 9707  38.230  11.808   9.431
  549POPC   PO4 9708  38.686  12.308   9.495
  549POPC   GL1 9709  38.557  12.185   9.077
  549POPC   GL2 9710  38.246  12.286   9.087
  549POPC   C1A 9711  38.541  12.277   8.612
  549POPC   D2A 9712  38.718  12.149   8.204
  549POPC   C3A 9713  38.616  12.212   7.764
  549POPC   C4A 9714  38.193  12.415   7.685
  549POPC   C1B 9715  38.218  11.916   8.800
  549POPC   C2B 9716  38.125  12.035   8.408
  549POPC   C3B 9717  38.230  12.020   8.011
  549POPC   C4B 9718  38.246  11.878   7.551
  550POPC   NC3 9719  17.325  40.459   9.569
  550POPC   PO4 9720  17.664  40.990   9.506
  550POPC   GL1 9721  17.606  41.031   9.095
  550POPC   GL2 9722  17.951  41.081   9.077
  550POPC   C1A 9723  17.415  40.892   8.696
  550POPC   D2A 9724  17.418  40.679   8.318
  550POPC   C3A 9725  17.316  40.897   7.952
  550POPC   C4A 9726  17.195  40.654   7.658
  550POPC   C1B 9727  17.902  40.717   8.820
  550POPC   C2B 9728  17.954  40.653   8.381
  550POPC   C3B 9729  17.808  40.743   7.975
  550POPC   C4B 9730  17.712  40.587   7.584
  551POPC   NC3 9731  30.063  20.141   9.419
  551POPC   PO4 9732  29.758  19.584   9.517
  551POPC   GL1 9733  29.903  19.755   9.136
  551POPC   GL2 9734  30.166  19.506   9.162
  551POPC   C1A 9735  29.986  20.028   8.764
  551POPC   D2A 9736  30.134  19.907   8.354
  551POPC   C3A 9737  30.007  20.081   7.972
  551POPC   C4A 9738  29.560  20.110   7.881
  551POPC   C1B 9739  30.306  19.619   8.766
  551POPC   C2B 9740  30.455  19.524   8.364
  551POPC   C3B 9741  30.214  19.490   8.002
  551POPC   C4B 9742  29.893  19.649   7.734
  552POPC   NC3 9743  22.056   4.177   9.560
  552POPC   PO4 9744  22.341   4.755   9.412
  552POPC   GL1 9745  22.160   4.415   9.118
  552POPC   GL2 9746  22.251   4.034   9.096
  552POPC   C1A 9747  21.946   4.293   8.751
  552POPC   D2A 9748  21.700   4.386   8.377
  552POPC   C3A 9749  21.904   4.262   7.998
  552POPC   C4A 9750  22.342   4.324   7.751
  552POPC   C1B 9751  22.308   3.947   8.632
  552POPC   C2B 9752  22.335   4.065   8.197
  552POPC   C3B 9753  22.544   3.860   7.825
  552POPC   C4B 9754  22.371   3.911   7.346
  553POPC   NC3 9755  22.653  36.564   9.607
  553POPC   PO4 9756  23.103  37.009   9.695
  553POPC   GL1 9757  23.099  36.912   9.206
  553POPC   GL2 9758  23.225  36.594   9.099
  553POPC   C1A 9759  22.961  37.079   8.783
  553POPC   D2A 9760  22.928  36.948   8.344
  553POPC   C3A 9761  22.678  37.067   7.993
  553POPC   C4A 9762  22.637  37.183   7.558
  553POPC   C1B 9763  23.266  36.667   8.673
  553POPC   C2B 9764  23.271  36.579   8.236
  553POPC   C3B 9765  23.294  36.938   7.962
  553POPC   C4B 9766  23.503  36.799   7.540
  554POPC   NC3 9767  17.114  44.577   9.508
  554POPC   PO4 9768  16.418  44.798   9.598
  554POPC   GL1 9769  16.721  44.776   9.242
  554POPC   GL2 9770  16.739  44.478   9.050
  554POPC   C1A 9771  16.702  44.937   8.810
  554POPC   D2A 9772  16.488  44.744   8.449
  554POPC   C3A 9773  16.482  44.922   8.045
  554POPC   C4A 9774  16.468  44.621   7.706
  554POPC   C1B 9775  16.926  44.514   8.640
  554POPC   C2B 9776  16.950  44.799   8.313
  554POPC   C3B 9777  16.898  44.633   7.976
  554POPC   C4B 9778  17.154  44.595   7.701
  555POPC   NC3 9779  16.334  31.694   9.447
  555POPC   PO4 9780  16.865  31.260   9.625
  555POPC   GL1 9781  16.741  31.394   9.222
  555POPC   GL2 9782  16.571  31.067   9.147
  555POPC   C1A 9783  16.625  31.423   8.782
  555POPC   D2A 9784  16.634  31.170   8.441
  555POPC   C3A 9785  16.554  31.379   8.066
  555POPC   C4A 9786  16.641  31.517   7.684
  555POPC   C1B 9787  16.985  31.039   8.896
  555POPC   C2B 9788  17.172  31.127   8.484
  555POPC   C3B 9789  17.009  31.122   8.080
  555POPC   C4B 9790  17.057  31.193   7.657
  556POPC   NC3 9791  38.152  39.071   9.375
  556POPC   PO4 9792  38.808  39.421   9.498
  556POPC   GL1 9793  38.631  39.217   9.144
  556POPC   GL2 9794  38.408  39.408   9.053
  556POPC   C1A 9795  38.533  39.029   8.725
  556POPC   D2A 9796  38.332  39.144   8.333
  556POPC   C3A 9797  38.518  38.968   7.963
  556POPC   C4A 9798  38.546  39.049   7.532
  556POPC   C1B 9799  38.327  39.663   8.723
  556POPC   C2B 9800  38.477  39.674   8.302
  556POPC   C3B 9801  38.470  39.464   7.910
  556POPC   C4B 9802  38.172  39.395   7.585
  557POPC   NC3 9803  27.549   4.962   9.630
  557POPC   PO4 9804  28.141   4.970   9.827
  557POPC   GL1 9805  27.919   5.005   9.313
  557POPC   GL2 9806  27.906   5.274   9.162
  557POPC   C1A 9807  27.551   5.035   8.912
  557POPC   D2A 9808  27.252   5.271   8.580
  557POPC   C3A 9809  27.218   5.094   8.143
  557POPC   C4A 9810  27.317   4.707   7.923
  557POPC   C1B 9811  27.971   5.272   8.717
  557POPC   C2B 9812  27.718   5.297   8.329
  557POPC   C3B 9813  27.677   5.170   7.877
  557POPC   C4B 9814  27.892   4.999   7.484
  558POPC   NC3 9815  42.584  13.484   9.444
  558POPC   PO4 9816  42.124  13.940   9.187
  558POPC   GL1 9817  42.384  13.667   9.001
  558POPC   GL2 9818  42.235  13.358   9.073
  558POPC   C1A 9819  42.322  13.591   8.586
  558POPC   D2A 9820  42.114  13.588   8.232
  558POPC   C3A 9821  42.418  13.819   8.053
  558POPC   C4A 9822  42.367  13.693   7.681
  558POPC   C1B 9823  42.540  13.192   8.785
  558POPC   C2B 9824  42.429  13.106   8.367
  558POPC   C3B 9825  42.408  13.268   7.965
  558POPC   C4B 9826  42.586  13.249   7.544
  559POPC   NC3 9827  11.105   9.120   9.305
  559POPC   PO4 9828  10.543   9.447   9.320
  559POPC   GL1 9829  10.637   9.084   9.063
  559POPC   GL2 9830  10.690   8.703   9.114
  559POPC   C1A 9831  10.689   8.971   8.648
  559POPC   D2A 9832  10.416   8.850   8.340
  559POPC   C3A 9833  10.572   8.862   7.925
  559POPC   C4A 9834  10.788   9.039   7.597
  559POPC   C1B 9835  10.827   8.485   8.710
  559POPC   C2B 9836  10.860   8.571   8.241
  559POPC   C3B 9837  10.972   8.569   7.788
  559POPC   C4B 9838  10.834   8.593   7.338
  560POPC   NC3 9839  21.954  18.016   9.562
  560POPC   PO4 9840  22.649  18.131   9.590
  560POPC   GL1 9841  22.334  18.131   9.245
  560POPC   GL2 9842  22.114  18.388   9.212
  560POPC   C1A 9843  22.272  18.068   8.799
  560POPC   D2A 9844  22.095  17.951   8.380
  560POPC   C3A 9845  22.354  18.128   8.062
  560POPC   C4A 9846  22.286  18.249   7.629
  560POPC   C1B 9847  22.126  18.556   8.801
  560POPC   C2B 9848  22.024  18.452   8.365
  560POPC   C3B 9849  22.074  18.600   7.939
  560POPC   C4B 9850  21.947  18.604   7.490
  561POPC   NC3 9851  27.139   8.464   9.405
  561POPC   PO4 9852  27.743   8.038   9.476
  561POPC   GL1 9853  27.607   8.332   9.182
  561POPC   GL2 9854  27.347   8.071   9.113
  561POPC   C1A 9855  27.436   8.428   8.774
  561POPC   D2A 9856  27.424   8.167   8.412
  561POPC   C3A 9857  27.713   8.108   8.104
  561POPC   C4A 9858  27.666   8.432   7.887
  561POPC   C1B 9859  27.345   7.795   8.748
  561POPC   C2B 9860  27.157   7.750   8.327
  561POPC   C3B 9861  27.271   7.871   7.921
  561POPC   C4B 9862  27.556   8.007   7.616
  562POPC   NC3 9863   4.547  13.238   9.864
  562POPC   PO4 9864   4.132  12.841   9.729
  562POPC   GL1 9865   4.158  12.784   9.270
  562POPC   GL2 9866   4.504  12.706   9.248
  562POPC   C1A 9867   4.160  12.607   8.844
  562POPC   D2A 9868   4.002  12.516   8.443
  562POPC   C3A 9869   3.969  12.678   8.031
  562POPC   C4A 9870   4.196  12.579   7.671
  562POPC   C1B 9871   4.667  12.750   8.836
  562POPC   C2B 9872   4.493  12.801   8.443
  562POPC   C3B 9873   4.426  12.893   8.005
  562POPC   C4B 9874   4.400  13.143   7.600
  563POPC   NC3 9875  19.504  25.638   9.272
  563POPC   PO4 9876  19.710  26.082   9.669
  563POPC   GL1 9877  19.592  26.174   9.201
  563POPC   GL2 9878  19.818  26.442   9.103
  563POPC   C1A 9879  19.532  26.067   8.729
  563POPC   D2A 9880  19.742  26.106   8.323
  563POPC   C3A 9881  19.551  25.994   7.942
  563POPC   C4A 9882  19.793  25.810   7.569
  563POPC   C1B 9883  19.532  26.569   8.799
  563POPC   C2B 9884  19.400  26.491   8.385
  563POPC   C3B 9885  19.628  26.507   8.008
  563POPC   C4B 9886  19.703  26.320   7.589
  564POPC   NC3 9887  12.801  19.103   9.318
  564POPC   PO4 9888  13.313  19.504   9.371
  564POPC   GL1 9889  13.210  19.217   9.015
  564POPC   GL2 9890  13.156  18.833   9.042
  564POPC   C1A 9891  13.001  19.392   8.659
  564POPC   D2A 9892  12.793  19.529   8.295
  564POPC   C3A 9893  12.993  19.358   7.960
  564POPC   C4A 9894  13.094  18.922   7.876
  564POPC   C1B 9895  12.820  18.895   8.712
  564POPC   C2B 9896  12.592  18.720   8.362
  564POPC   C3B 9897  12.600  18.990   8.010
  564POPC   C4B 9898  12.459  19.386   7.878
  565POPC   NC3 9899  24.705  17.968   9.494
  565POPC   PO4 9900  24.415  18.559   9.816
  565POPC   GL1 9901  24.383  18.339   9.372
  565POPC   GL2 9902  24.096  18.103   9.316
  565POPC   C1A 9903  24.525  18.311   8.917
  565POPC   D2A 9904  24.588  18.510   8.484
  565POPC   C3A 9905  24.565  18.322   8.066
  565POPC   C4A 9906  24.753  18.309   7.637
  565POPC   C1B 9907  24.029  18.166   8.878
  565POPC   C2B 9908  24.272  18.046   8.504
  565POPC   C3B 9909  24.372  17.846   8.087
  565POPC   C4B 9910  24.337  18.045   7.673
  566POPC   NC3 9911  10.521   2.054   9.448
  566POPC   PO4 9912  10.951   1.553   9.224
  566POPC   GL1 9913  10.700   1.822   9.029
  566POPC   GL2 9914  10.385   1.669   9.082
  566POPC   C1A 9915  10.796   2.086   8.661
  566POPC   D2A 9916  10.664   2.025   8.220
  566POPC   C3A 9917  10.783   2.255   7.836
  566POPC   C4A 9918  10.771   2.007   7.425
  566POPC   C1B 9919  10.313   1.980   8.733
  566POPC   C2B 9920  10.196   2.173   8.338
  566POPC   C3B 9921  10.278   2.109   7.864
  566POPC   C4B 9922  10.374   2.306   7.442
  567POPC   NC3 9923   3.734  34.879   9.344
  567POPC   PO4 9924   3.333  35.379   9.645
  567POPC   GL1 9925   3.447  35.333   9.218
  567POPC   GL2 9926   3.285  35.028   9.196
  567POPC   C1A 9927   3.614  35.498   8.804
  567POPC   D2A 9928   3.821  35.469   8.390
  567POPC   C3A 9929   3.641  35.513   7.977
  567POPC   C4A 9930   3.552  35.252   7.579
  567POPC   C1B 9931   3.494  35.007   8.786
  567POPC   C2B 9932   3.398  35.187   8.408
  567POPC   C3B 9933   3.477  35.025   8.035
  567POPC   C4B 9934   3.178  34.937   7.713
  568POPC   NC3 9935  32.223  11.377   9.508
  568POPC   PO4 9936  31.853  10.856   9.424
  568POPC   GL1 9937  32.043  11.101   9.103
  568POPC   GL2 9938  32.422  11.177   9.061
  568POPC   C1A 9939  32.063  11.254   8.689
  568POPC   D2A 9940  32.215  11.352   8.301
  568POPC   C3A 9941  31.943  11.350   7.952
  568POPC   C4A 9942  32.052  11.156   7.584
  568POPC   C1B 9943  32.600  11.411   8.659
  568POPC   C2B 9944  32.684  11.553   8.214
  568POPC   C3B 9945  32.489  11.339   7.834
  568POPC   C4B 9946  32.573  11.459   7.375
  569POPC   NC3 9947  39.781  34.126   9.478
  569POPC   PO4 9948  40.211  34.667   9.507
  569POPC   GL1 9949  40.047  34.439   9.169
  569POPC   GL2 9950  39.687  34.552   9.200
  569POPC   C1A 9951  40.005  34.551   8.760
  569POPC   D2A 9952  40.008  34.778   8.408
  569POPC   C3A 9953  40.035  34.524   8.043
  569POPC   C4A 9954  40.089  34.730   7.650
  569POPC   C1B 9955  39.527  34.362   8.819
  569POPC   C2B 9956  39.638  34.447   8.396
  569POPC   C3B 9957  39.609  34.266   7.992
  569POPC   C4B 9958  39.288  34.267   7.717
  570POPC   NC3 9959  18.851  18.510   9.218
  570POPC   PO4 9960  19.292  18.018   9.505
  570POPC   GL1 9961  19.099  18.062   9.099
  570POPC   GL2 9962  18.767  17.939   9.172
  570POPC   C1A 9963  19.177  18.274   8.671
  570POPC   D2A 9964  19.087  18.235   8.197
  570POPC   C3A 9965  19.212  18.362   7.766
  570POPC   C4A 9966  19.351  18.565   7.388
  570POPC   C1B 9967  18.690  18.113   8.735
  570POPC   C2B 9968  18.726  18.492   8.477
  570POPC   C3B 9969  18.721  18.538   7.998
  570POPC   C4B 9970  18.773  18.120   7.784
  571POPC   NC3 9971   2.153   1.197   9.482
  571POPC   PO4 9972   1.786   0.628   9.524
  571POPC   GL1 9973   1.725   0.958   9.155
  571POPC   GL2 9974   1.963   1.203   9.041
  571POPC   C1A 9975   1.908   0.895   8.688
  571POPC   D2A 9976   2.158   1.040   8.368
  571POPC   C3A 9977   1.887   1.115   8.057
  571POPC   C4A 9978   2.014   1.103   7.652
  571POPC   C1B 9979   2.150   1.405   8.718
  571POPC   C2B 9980   2.051   1.649   8.373
  571POPC   C3B 9981   2.083   1.573   7.954
  571POPC   C4B 9982   2.384   1.470   7.655
  572POPC   NC3 9983  44.527  12.429   9.400
  572POPC   PO4 9984  44.921  11.780   9.447
  572POPC   GL1 9985  44.745  11.847   9.061
  572POPC   GL2 9986  44.472  12.023   9.077
  572POPC   C1A 9987  44.635  11.902   8.615
  572POPC   D2A 9988  44.775  12.287   8.438
  572POPC   C3A 9989  44.780  12.221   8.012
  572POPC   C4A 9990  44.595  11.865   7.790
  572POPC   C1B 9991  44.387  12.328   8.774
  572POPC   C2B 9992  44.260  12.269   8.355
  572POPC   C3B 9993  44.299  12.395   7.938
  572POPC   C4B 9994  44.407  12.222   7.498
  573POPC   NC3 9995  33.581   8.081   9.904
  573POPC   PO4 9996  33.198   7.859   9.460
  573POPC   GL1 9997  33.042   7.876   9.068
  573POPC   GL2 9998  33.349   7.899   8.942
  573POPC   C1A 9999  32.919   8.216   8.785
  573POPC   D2A10000  32.864   8.483   8.416
  573POPC   C3A10001  32.853   8.198   8.064
  573POPC   C4A10002  32.901   8.327   7.669
  573POPC   C1B10003  33.351   7.801   8.536
  573POPC   C2B10004  33.413   8.084   8.222
  573POPC   C3B10005  33.323   8.154   7.820
  573POPC   C4B10006  33.185   8.022   7.375
  574POPC   NC310007   1.104  12.585   9.376
  574POPC   PO410008   1.235  13.164   9.608
  574POPC   GL110009   1.274  13.019   9.127
  574POPC   GL210010   1.521  13.292   9.069
  574POPC   C1A10011   1.128  12.825   8.705
  574POPC   D2A10012   1.119  13.013   8.275
  574POPC   C3A10013   0.937  12.789   7.953
  574POPC   C4A10014   1.095  12.434   7.717
  574POPC   C1B10015   1.625  12.974   8.733
  574POPC   C2B10016   1.570  12.726   8.344
  574POPC   C3B10017   1.463  12.747   7.925
  574POPC   C4B10018   1.315  13.132   7.759
  575POPC   NC310019  42.125   4.864   9.412
  575POPC   PO410020  42.264   5.469   9.449
  575POPC   GL110021  42.430   5.384   9.052
  575POPC   GL210022  42.497   5.016   9.054
  575POPC   C1A10023  42.248   5.192   8.655
  575POPC   D2A10024  41.866   5.007   8.499
  575POPC   C3A10025  41.913   4.941   8.052
  575POPC   C4A10026  42.030   4.844   7.639
  575POPC   C1B10027  42.726   4.779   8.736
  575POPC   C2B10028  42.635   4.761   8.288
  575POPC   C3B10029  42.474   4.921   7.875
  575POPC   C4B10030  42.482   4.852   7.389
  576POPC   NC310031  21.556  32.040   9.337
  576POPC   PO410032  20.915  32.305   9.493
  576POPC   GL110033  21.096  32.430   9.139
  576POPC   GL210034  21.424  32.541   9.180
  576POPC   C1A10035  21.291  32.229   8.763
  576POPC   D2A10036  21.626  32.128   8.494
  576POPC   C3A10037  21.458  32.073   8.092
  576POPC   C4A10038  21.592  31.789   7.752
  576POPC   C1B10039  21.638  32.594   8.767
  576POPC   C2B10040  21.489  32.628   8.362
  576POPC   C3B10041  21.641  32.533   7.969
  576POPC   C4B10042  21.318  32.377   7.684
  577POPC   NC310043  38.550  29.783   9.503
  577POPC   PO410044  38.082  30.149   9.458
  577POPC   GL110045  38.244  29.890   9.104
  577POPC   GL210046  38.100  29.604   9.020
  577POPC   C1A10047  38.505  29.944   8.732
  577POPC   D2A10048  38.421  30.074   8.312
  577POPC   C3A10049  38.740  30.025   7.984
  577POPC   C4A10050  38.721  30.083   7.510
  577POPC   C1B10051  38.188  29.484   8.618
  577POPC   C2B10052  38.075  29.553   8.224
  577POPC   C3B10053  38.296  29.754   7.910
  577POPC   C4B10054  38.277  29.814   7.489
  578POPC   NC310055  17.459   0.704   9.458
  578POPC   PO410056  17.320   0.001   9.454
  578POPC   GL110057  17.525   0.162   9.068
  578POPC   GL210058  17.584   0.522   9.009
  578POPC   C1A10059  17.729   0.198   8.665
  578POPC   D2A10060  17.596   0.508   8.361
  578POPC   C3A10061  17.684   0.317   7.984
  578POPC   C4A10062  17.417   0.494   7.713
  578POPC   C1B10063  17.883   0.712   8.723
  578POPC   C2B10064  18.027   0.936   8.376
  578POPC   C3B10065  17.865   0.805   7.974
  578POPC   C4B10066  17.720   0.875   7.586
  579POPC   NC310067  30.095  17.349   9.340
  579POPC   PO410068  29.693  17.821   9.629
  579POPC   GL110069  29.681  17.628   9.178
  579POPC   GL210070  29.508  17.367   8.919
  579POPC   C1A10071  29.831  17.730   8.755
  579POPC   D2A10072  29.640  17.608   8.353
  579POPC   C3A10073  29.852  17.693   7.958
  579POPC   C4A10074  30.223  17.845   7.655
  579POPC   C1B10075  29.860  17.225   8.639
  579POPC   C2B10076  30.111  17.296   8.257
  579POPC   C3B10077  30.197  17.345   7.810
  579POPC   C4B10078  29.863  17.462   7.499
  580POPC   NC310079   5.398  43.154   9.772
  580POPC   PO410080   6.018  42.994   9.566
  580POPC   GL110081   6.073  43.016   9.100
  580POPC   GL210082   5.921  43.352   9.110
  580POPC   C1A10083   5.944  42.763   8.692
  580POPC   D2A10084   5.558  42.762   8.385
  580POPC   C3A10085   5.634  42.956   7.952
  580POPC   C4A10086   5.560  43.287   7.633
  580POPC   C1B10087   5.732  43.229   8.726
  580POPC   C2B10088   5.922  43.171   8.331
  580POPC   C3B10089   5.932  43.435   7.970
  580POPC   C4B10090   6.034  43.490   7.545
  581POPC   NC310091  14.918  20.467   9.504
  581POPC   PO410092  15.436  20.928   9.527
  581POPC   GL110093  15.320  20.652   9.199
  581POPC   GL210094  14.964  20.721   9.057
  581POPC   C1A10095  15.505  20.466   8.834
  581POPC   D2A10096  15.309  20.548   8.446
  581POPC   C3A10097  15.448  20.789   8.099
  581POPC   C4A10098  15.222  20.767   7.716
  581POPC   C1B10099  14.994  20.373   8.829
  581POPC   C2B10100  14.839  20.373   8.416
  581POPC   C3B10101  14.958  20.525   8.057
  581POPC   C4B10102  15.057  20.287   7.677
  582POPC   NC310103  30.616  22.200   9.491
  582POPC   PO410104  31.124  22.596   9.510
  582POPC   GL110105  31.002  22.308   9.139
  582POPC   GL210106  30.875  21.946   9.120
  582POPC   C1A10107  30.702  22.295   8.780
  582POPC   D2A10108  30.542  22.259   8.349
  582POPC   C3A10109  30.746  22.380   7.948
  582POPC   C4A10110  30.738  22.520   7.491
  582POPC   C1B10111  30.564  21.815   8.781
  582POPC   C2B10112  30.692  21.718   8.391
  582POPC   C3B10113  30.661  21.881   7.987
  582POPC   C4B10114  30.768  22.001   7.593
  583POPC   NC310115  15.736  44.344   9.336
  583POPC   PO410116  16.181  43.844   9.496
  583POPC   GL110117  16.105  43.830   9.064
  583POPC   GL210118  15.837  44.054   8.940
  583POPC   C1A10119  16.158  43.831   8.615
  583POPC   D2A10120  15.949  43.788   8.234
  583POPC   C3A10121  16.224  43.991   7.971
  583POPC   C4A10122  16.419  44.116   7.604
  583POPC   C1B10123  15.697  43.660   8.764
  583POPC   C2B10124  15.471  43.630   8.395
  583POPC   C3B10125  15.590  43.506   7.972
  583POPC   C4B10126  15.867  43.701   7.666
  584POPC   NC310127  44.366  43.827   9.594
  584POPC   PO410128   0.038  43.597   9.609
  584POPC   GL110129  44.756  43.690   9.250
  584POPC   GL210130  44.527  43.974   9.130
  584POPC   C1A10131  44.643  43.575   8.822
  584POPC   D2A10132  44.835  43.550   8.437
  584POPC   C3A10133  44.748  43.793   8.077
  584POPC   C4A10134  44.490  43.680   7.733
  584POPC   C1B10135  44.589  44.066   8.699
  584POPC   C2B10136  44.464  44.187   8.307
  584POPC   C3B10137  44.547  44.227   7.889
  584POPC   C4B10138  44.812  44.034   7.608
  585POPC   NC310139   6.990  29.440   9.434
  585POPC   PO410140   6.400  29.765   9.706
  585POPC   GL110141   6.514  29.658   9.250
  585POPC   GL210142   6.703  29.887   9.035
  585POPC   C1A10143   6.339  29.614   8.802
  585POPC   D2A10144   6.411  29.835   8.400
  585POPC   C3A10145   6.490  29.627   8.000
  585POPC   C4A10146   6.652  29.788   7.587
  585POPC   C1B10147   6.951  30.178   8.799
  585POPC   C2B10148   6.927  30.343   8.379
  585POPC   C3B10149   6.751  30.140   8.023
  585POPC   C4B10150   6.944  30.210   7.657
  586POPC   NC310151   0.914  27.317   9.369
  586POPC   PO410152   0.392  27.525   9.744
  586POPC   GL110153   0.476  27.531   9.248
  586POPC   GL210154   0.693  27.715   9.115
  586POPC   C1A10155   0.300  27.563   8.814
  586POPC   D2A10156   0.190  27.368   8.437
  586POPC   C3A10157   0.259  27.594   8.053
  586POPC   C4A10158   0.238  27.431   7.651
  586POPC   C1B10159   0.728  27.925   8.741
  586POPC   C2B10160   0.657  28.080   8.333
  586POPC   C3B10161   0.784  27.936   7.950
  586POPC   C4B10162   0.559  27.825   7.602
  587POPC   NC310163  18.132  42.810   9.403
  587POPC   PO410164  18.736  43.085   9.486
  587POPC   GL110165  18.432  43.144   9.125
  587POPC   GL210166  18.609  43.401   8.989
  587POPC   C1A10167  18.089  43.329   8.830
  587POPC   D2A10168  18.019  43.428   8.390
  587POPC   C3A10169  18.127  43.052   8.125
  587POPC   C4A10170  18.162  43.096   7.636
  587POPC   C1B10171  18.533  43.321   8.549
  587POPC   C2B10172  18.633  43.000   8.261
  587POPC   C3B10173  18.591  42.942   7.839
  587POPC   C4B10174  18.636  43.298   7.553
  588POPC   NC310175  13.854  25.092   9.444
  588POPC   PO410176  13.356  24.588   9.525
  588POPC   GL110177  13.440  24.967   9.176
  588POPC   GL210178  13.731  25.114   8.954
  588POPC   C1A10179  13.289  25.290   8.819
  588POPC   D2A10180  13.556  25.159   8.477
  588POPC   C3A10181  13.653  25.200   8.038
  588POPC   C4A10182  13.755  25.018   7.638
  588POPC   C1B10183  13.919  25.460   8.674
  588POPC   C2B10184  14.150  25.559   8.270
  588POPC   C3B10185  14.096  25.671   7.829
  588POPC   C4B10186  13.899  25.492   7.468
  589POPC   NC310187   3.080  30.849   9.868
  589POPC   PO410188   2.618  30.552   9.675
  589POPC   GL110189   2.644  30.666   9.238
  589POPC   GL210190   2.612  30.341   9.128
  589POPC   C1A10191   2.543  30.744   8.783
  589POPC   D2A10192   2.710  30.790   8.380
  589POPC   C3A10193   2.428  30.727   8.077
  589POPC   C4A10194   2.274  30.724   7.690
  589POPC   C1B10195   2.922  30.357   8.793
  589POPC   C2B10196   3.048  30.399   8.373
  589POPC   C3B10197   2.815  30.362   7.998
  589POPC   C4B10198   2.810  30.740   7.721
  590POPC   NC310199  40.492   6.528   9.426
  590POPC   PO410200  41.108   6.703   9.420
  590POPC   GL110201  40.825   6.767   9.047
  590POPC   GL210202  40.455   6.848   9.049
  590POPC   C1A10203  40.997   6.791   8.617
  590POPC   D2A10204  41.179   6.627   8.250
  590POPC   C3A10205  40.969   6.653   7.895
  590POPC   C4A10206  40.544   6.677   7.818
  590POPC   C1B10207  40.474   6.680   8.642
  590POPC   C2B10208  40.666   6.472   8.295
  590POPC   C3B10209  40.449   6.216   8.001
  590POPC   C4B10210  40.297   6.317   7.589
  591POPC   NC310211  13.793  18.540  10.036
  591POPC   PO410212  14.391  18.438   9.625
  591POPC   GL110213  14.544  18.480   9.235
  591POPC   GL210214  14.601  18.129   9.163
  591POPC   C1A10215  14.661  18.510   8.797
  591POPC   D2A10216  14.677  18.237   8.437
  591POPC   C3A10217  14.531  18.479   8.099
  591POPC   C4A10218  14.493  18.611   7.706
  591POPC   C1B10219  14.293  18.167   8.800
  591POPC   C2B10220  14.142  18.368   8.422
  591POPC   C3B10221  13.902  18.268   8.064
  591POPC   C4B10222  14.085  18.223   7.680
  592POPC   NC310223  34.272  32.688  10.093
  592POPC   PO410224  34.424  32.827   9.439
  592POPC   GL110225  34.520  32.945   9.080
  592POPC   GL210226  34.350  33.269   9.115
  592POPC   C1A10227  34.675  32.839   8.667
  592POPC   D2A10228  34.846  32.806   8.276
  592POPC   C3A10229  34.571  32.891   7.915
  592POPC   C4A10230  34.650  32.822   7.469
  592POPC   C1B10231  34.562  33.321   8.755
  592POPC   C2B10232  34.472  33.196   8.331
  592POPC   C3B10233  34.444  33.426   7.941
  592POPC   C4B10234  34.781  33.546   7.650
  593POPC   NC310235   7.703  18.761   9.590
  593POPC   PO410236   8.259  19.225   9.515
  593POPC   GL110237   8.263  18.941   9.136
  593POPC   GL210238   7.944  18.820   9.087
  593POPC   C1A10239   8.264  18.766   8.702
  593POPC   D2A10240   8.258  19.015   8.353
  593POPC   C3A10241   8.456  18.858   8.002
  593POPC   C4A10242   8.614  18.817   7.617
  593POPC   C1B10243   7.842  19.074   8.698
  593POPC   C2B10244   7.802  19.213   8.232
  593POPC   C3B10245   7.956  18.944   7.891
  593POPC   C4B10246   8.164  19.030   7.527
  594POPC   NC310247  22.123  11.502   9.633
  594POPC   PO410248  22.698  11.369   9.385
  594POPC   GL110249  22.234  11.225   9.213
  594POPC   GL210250  21.938  11.474   9.156
  594POPC   C1A10251  22.119  11.048   8.808
  594POPC   D2A10252  22.462  11.024   8.499
  594POPC   C3A10253  22.380  10.994   8.056
  594POPC   C4A10254  22.269  11.016   7.645
  594POPC   C1B10255  21.987  11.539   8.707
  594POPC   C2B10256  22.065  11.319   8.316
  594POPC   C3B10257  22.145  11.472   7.885
  594POPC   C4B10258  22.165  11.855   7.602
  595POPC   NC310259  12.816  10.107   9.329
  595POPC   PO410260  13.269   9.741   9.686
  595POPC   GL110261  13.134   9.626   9.240
  595POPC   GL210262  12.767   9.627   9.147
  595POPC   C1A10263  13.140   9.653   8.774
  595POPC   D2A10264  13.229   9.780   8.347
  595POPC   C3A10265  13.031   9.543   7.976
  595POPC   C4A10266  12.872   9.754   7.586
  595POPC   C1B10267  12.622   9.734   8.736
  595POPC   C2B10268  12.713   9.774   8.308
  595POPC   C3B10269  12.494   9.856   7.923
  595POPC   C4B10270  12.379   9.682   7.526
  596POPC   NC310271  21.695   5.549   9.615
  596POPC   PO410272  21.564   6.227   9.712
  596POPC   GL110273  21.726   6.072   9.332
  596POPC   GL210274  21.485   5.815   9.201
  596POPC   C1A10275  21.728   6.090   8.854
  596POPC   D2A10276  21.627   5.984   8.419
  596POPC   C3A10277  21.788   6.188   8.048
  596POPC   C4A10278  21.748   6.118   7.616
  596POPC   C1B10279  21.334   5.700   8.763
  596POPC   C2B10280  21.169   5.787   8.330
  596POPC   C3B10281  21.380   5.873   7.936
  596POPC   C4B10282  21.372   5.793   7.495
  597POPC   NC310283  40.381  37.759   9.444
  597POPC   PO410284  39.755  37.494   9.534
  597POPC   GL110285  39.919  37.722   9.163
  597POPC   GL210286  39.911  37.432   9.019
  597POPC   C1A10287  40.100  37.745   8.697
  597POPC   D2A10288  40.281  37.618   8.292
  597POPC   C3A10289  40.039  37.682   7.891
  597POPC   C4A10290  40.193  37.835   7.464
  597POPC   C1B10291  39.834  37.187   8.658
  597POPC   C2B10292  39.819  37.396   8.290
  597POPC   C3B10293  39.721  37.277   7.904
  597POPC   C4B10294  39.923  37.330   7.518
  598POPC   NC310295  21.206  16.248   9.461
  598POPC   PO410296  21.481  15.645   9.645
  598POPC   GL110297  21.535  15.912   9.242
  598POPC   GL210298  21.671  16.265   9.175
  598POPC   C1A10299  21.324  15.930   8.824
  598POPC   D2A10300  21.516  15.843   8.418
  598POPC   C3A10301  21.343  15.884   7.993
  598POPC   C4A10302  21.239  15.926   7.551
  598POPC   C1B10303  21.586  16.344   8.715
  598POPC   C2B10304  21.510  16.330   8.241
  598POPC   C3B10305  21.593  16.276   7.781
  598POPC   C4B10306  21.723  16.243   7.355
  599POPC   NC310307   5.300  42.486   9.523
  599POPC   PO410308   4.770  42.315   9.210
  599POPC   GL110309   5.143  42.365   9.053
  599POPC   GL210310   5.281  42.054   9.160
  599POPC   C1A10311   5.126  42.522   8.670
  599POPC   D2A10312   4.855  42.556   8.360
  599POPC   C3A10313   5.131  42.649   8.043
  599POPC   C4A10314   5.013  42.586   7.649
  599POPC   C1B10315   5.196  41.956   8.730
  599POPC   C2B10316   4.878  42.035   8.431
  599POPC   C3B10317   4.881  42.189   8.015
  599POPC   C4B10318   5.232  42.146   7.755
  600POPC   NC310319  34.738  17.386   9.578
  600POPC   PO410320  34.102  17.710   9.488
  600POPC   GL110321  34.310  17.511   9.149
  600POPC   GL210322  34.674  17.425   9.083
  600POPC   C1A10323  34.352  17.462   8.706
  600POPC   D2A10324  34.315  17.686   8.332
  600POPC   C3A10325  34.433  17.500   7.924
  600POPC   C4A10326  34.662  17.357   7.532
  600POPC   C1B10327  34.863  17.631   8.733
  600POPC   C2B10328  34.854  17.724   8.287
  600POPC   C3B10329  34.965  17.475   7.926
  600POPC   C4B10330  35.101  17.610   7.506
  601POPC   NC310331  19.387  35.882   9.478
  601POPC   PO410332  18.847  36.224   9.413
  601POPC   GL110333  18.985  35.947   9.121
  601POPC   GL210334  19.278  36.178   9.061
  601POPC   C1A10335  18.986  35.970   8.693
  601POPC   D2A10336  19.261  36.126   8.406
  601POPC   C3A10337  19.077  36.206   8.029
  601POPC   C4A10338  18.758  36.016   7.793
  601POPC   C1B10339  19.518  35.883   8.810
  601POPC   C2B10340  19.661  35.769   8.395
  601POPC   C3B10341  19.361  35.754   8.058
  601POPC   C4B10342  19.231  35.886   7.667
  602POPC   NC310343  20.444  43.662   9.598
  602POPC   PO410344  19.992  44.104   9.730
  602POPC   GL110345  20.029  43.836   9.250
  602POPC   GL210346  20.180  43.546   9.144
  602POPC   C1A10347  19.745  43.940   8.877
  602POPC   D2A10348  19.697  43.970   8.421
  602POPC   C3A10349  19.907  43.883   8.025
  602POPC   C4A10350  20.198  44.027   7.717
  602POPC   C1B10351  20.157  43.740   8.728
  602POPC   C2B10352  20.064  43.550   8.378
  602POPC   C3B10353  20.223  43.457   7.959
  602POPC   C4B10354  20.321  43.533   7.533
  603POPC   NC310355  34.076  19.984   9.498
  603POPC   PO410356  33.470  19.703   9.485
  603POPC   GL110357  33.774  19.747   9.167
  603POPC   GL210358  33.697  20.106   9.063
  603POPC   C1A10359  33.818  19.767   8.714
  603POPC   D2A10360  33.751  20.089   8.402
  603POPC   C3A10361  33.797  19.846   8.057
  603POPC   C4A10362  33.581  19.809   7.697
  603POPC   C1B10363  34.068  20.232   8.792
  603POPC   C2B10364  34.257  20.151   8.363
  603POPC   C3B10365  34.172  20.142   7.932
  603POPC   C4B10366  33.879  20.219   7.613
  604POPC   NC310367  17.947  26.929   9.761
  604POPC   PO410368  18.376  27.259   9.478
  604POPC   GL110369  18.270  26.916   9.187
  604POPC   GL210370  18.397  26.563   9.163
  604POPC   C1A10371  18.135  26.798   8.764
  604POPC   D2A10372  18.299  26.686   8.352
  604POPC   C3A10373  18.231  26.927   7.961
  604POPC   C4A10374  18.190  27.011   7.508
  604POPC   C1B10375  18.393  26.349   8.735
  604POPC   C2B10376  18.325  26.178   8.313
  604POPC   C3B10377  18.222  26.404   7.929
  604POPC   C4B10378  18.402  26.539   7.560
  605POPC   NC310379  35.621   9.490   9.372
  605POPC   PO410380  35.293  10.108   9.424
  605POPC   GL110381  35.177   9.889   9.074
  605POPC   GL210382  35.524   9.833   8.988
  605POPC   C1A10383  35.168   9.781   8.628
  605POPC   D2A10384  35.471   9.827   8.284
  605POPC   C3A10385  35.321   9.749   7.861
  605POPC   C4A10386  35.046   9.602   7.512
  605POPC   C1B10387  35.553   9.436   8.735
  605POPC   C2B10388  35.547   9.285   8.331
  605POPC   C3B10389  35.729   9.428   7.966
  605POPC   C4B10390  35.653   9.540   7.537
  606POPC   NC310391  38.768   6.107   9.468
  606POPC   PO410392  39.161   5.525   9.582
  606POPC   GL110393  39.058   5.786   9.150
  606POPC   GL210394  39.243   6.105   9.136
  606POPC   C1A10395  39.154   5.806   8.711
  606POPC   D2A10396  39.285   5.944   8.316
  606POPC   C3A10397  39.252   5.664   7.942
  606POPC   C4A10398  39.032   5.600   7.510
  606POPC   C1B10399  39.470   6.235   8.726
  606POPC   C2B10400  39.534   6.399   8.285
  606POPC   C3B10401  39.507   6.122   7.900
  606POPC   C4B10402  39.145   6.071   7.651
  607POPC   NC310403  39.674   6.990   9.769
  607POPC   PO410404  39.845   7.700   9.669
  607POPC   GL110405  39.793   7.305   9.351
  607POPC   GL210406  40.124   7.231   9.212
  607POPC   C1A10407  39.672   7.260   8.887
  607POPC   D2A10408  39.871   7.553   8.578
  607POPC   C3A10409  39.900   7.520   8.116
  607POPC   C4A10410  39.681   7.837   7.889
  607POPC   C1B10411  40.299   7.525   8.877
  607POPC   C2B10412  40.363   7.491   8.429
  607POPC   C3B10413  40.413   7.607   8.018
  607POPC   C4B10414  40.201   7.439   7.701
  608POPC   NC310415  19.553   5.246   9.537
  608POPC   PO410416  20.251   5.126   9.565
  608POPC   GL110417  19.921   4.968   9.269
  608POPC   GL210418  19.890   5.323   9.130
  608POPC   C1A10419  19.693   4.933   8.863
  608POPC   D2A10420  19.825   5.151   8.498
  608POPC   C3A10421  19.822   4.879   8.127
  608POPC   C4A10422  19.576   4.850   7.750
  608POPC   C1B10423  19.592   5.500   8.815
  608POPC   C2B10424  19.460   5.513   8.390
  608POPC   C3B10425  19.591   5.318   8.033
  608POPC   C4B10426  19.505   5.344   7.616
  609POPC   NC310427  44.069  10.098   9.491
  609POPC   PO410428  43.871  10.666   9.528
  609POPC   GL110429  43.938  10.474   9.144
  609POPC   GL210430  43.595  10.636   9.082
  609POPC   C1A10431  44.160  10.567   8.755
  609POPC   D2A10432  44.017  10.675   8.330
  609POPC   C3A10433  44.045  10.462   7.904
  609POPC   C4A10434  44.046  10.592   7.447
  609POPC   C1B10435  43.654  10.399   8.698
  609POPC   C2B10436  43.779  10.219   8.298
  609POPC   C3B10437  43.600  10.180   7.903
  609POPC   C4B10438  43.588  10.533   7.652
  610POPC   NC310439  42.070  29.957   9.326
  610POPC   PO410440  42.668  29.739   9.461
  610POPC   GL110441  42.519  29.802   9.074
  610POPC   GL210442  42.577  30.138   9.160
  610POPC   C1A10443  42.361  29.830   8.638
  610POPC   D2A10444  42.084  29.601   8.328
  610POPC   C3A10445  42.079  29.788   7.959
  610POPC   C4A10446  42.181  30.187   7.765
  610POPC   C1B10447  42.822  30.113   8.793
  610POPC   C2B10448  42.835  29.948   8.393
  610POPC   C3B10449  42.557  29.977   8.071
  610POPC   C4B10450  42.522  29.807   7.681
  611POPC   NC310451  22.760  41.417   9.505
  611POPC   PO410452  23.358  41.797   9.512
  611POPC   GL110453  23.126  41.783   9.142
  611POPC   GL210454  23.042  41.418   9.092
  611POPC   C1A10455  22.987  41.900   8.724
  611POPC   D2A10456  22.963  41.668   8.350
  611POPC   C3A10457  22.982  41.807   7.926
  611POPC   C4A10458  22.779  41.416   7.803
  611POPC   C1B10459  23.270  41.473   8.741
  611POPC   C2B10460  23.444  41.507   8.358
  611POPC   C3B10461  23.270  41.394   8.027
  611POPC   C4B10462  23.209  41.161   7.715
  612POPC   NC310463  41.296   2.094   9.257
  612POPC   PO410464  41.740   1.718   9.557
  612POPC   GL110465  41.653   1.705   9.159
  612POPC   GL210466  41.903   1.933   9.079
  612POPC   C1A10467  41.520   1.750   8.742
  612POPC   D2A10468  41.649   1.719   8.343
  612POPC   C3A10469  41.410   2.036   8.149
  612POPC   C4A10470  41.319   2.055   7.706
  612POPC   C1B10471  42.077   1.997   8.658
  612POPC   C2B10472  42.032   2.041   8.211
  612POPC   C3B10473  41.800   1.899   7.865
  612POPC   C4B10474  41.744   2.050   7.444
  613POPC   NC310475   5.915  36.431   9.449
  613POPC   PO410476   5.410  36.002   9.471
  613POPC   GL110477   5.811  36.002   9.181
  613POPC   GL210478   5.656  36.245   9.001
  613POPC   C1A10479   6.096  36.116   8.770
  613POPC   D2A10480   5.836  36.213   8.373
  613POPC   C3A10481   5.977  36.268   7.934
  613POPC   C4A10482   6.287  36.072   7.654
  613POPC   C1B10483   5.464  36.461   8.666
  613POPC   C2B10484   5.333  36.375   8.246
  613POPC   C3B10485   5.543  36.572   7.922
  613POPC   C4B10486   5.752  36.551   7.538
  614POPC   NC310487  44.672  27.433   9.780
  614POPC   PO410488   0.092  27.802   9.389
  614POPC   GL110489  44.810  27.593   9.123
  614POPC   GL210490  44.638  27.311   9.265
  614POPC   C1A10491  44.691  27.692   8.700
  614POPC   D2A10492  44.741  27.580   8.286
  614POPC   C3A10493  44.746  27.897   8.036
  614POPC   C4A10494  44.941  27.858   7.696
  614POPC   C1B10495  44.446  27.278   8.872
  614POPC   C2B10496  44.308  27.387   8.501
  614POPC   C3B10497  44.269  27.358   8.098
  614POPC   C4B10498  44.517  27.493   7.811
  615POPC   NC310499  29.342  36.326   9.515
  615POPC   PO410500  28.974  35.883   9.289
  615POPC   GL110501  29.255  36.074   9.066
  615POPC   GL210502  29.122  36.404   9.045
  615POPC   C1A10503  29.213  35.999   8.651
  615POPC   D2A10504  28.862  36.066   8.367
  615POPC   C3A10505  28.968  36.054   7.957
  615POPC   C4A10506  29.315  35.840   7.817
  615POPC   C1B10507  29.060  36.475   8.606
  615POPC   C2B10508  29.303  36.350   8.234
  615POPC   C3B10509  29.354  36.351   7.765
  615POPC   C4B10510  29.426  36.513   7.326
  616POPC   NC310511  20.812  16.764   9.353
  616POPC   PO410512  21.473  16.642   9.574
  616POPC   GL110513  21.510  16.750   9.206
  616POPC   GL210514  21.249  16.573   9.041
  616POPC   C1A10515  21.635  16.843   8.835
  616POPC   D2A10516  21.393  16.782   8.465
  616POPC   C3A10517  21.616  16.810   8.065
  616POPC   C4A10518  21.504  17.108   7.787
  616POPC   C1B10519  21.099  16.370   8.639
  616POPC   C2B10520  21.009  16.187   8.268
  616POPC   C3B10521  21.085  16.310   7.846
  616POPC   C4B10522  21.223  16.407   7.408
  617POPC   NC310523  39.613  13.921   9.443
  617POPC   PO410524  39.351  13.290   9.534
  617POPC   GL110525  39.106  13.501   9.216
  617POPC   GL210526  39.242  13.820   9.117
  617POPC   C1A10527  38.954  13.541   8.809
  617POPC   D2A10528  39.114  13.741   8.441
  617POPC   C3A10529  38.991  13.526   8.059
  617POPC   C4A10530  38.869  13.227   7.703
  617POPC   C1B10531  39.569  13.805   8.793
  617POPC   C2B10532  39.691  13.565   8.455
  617POPC   C3B10533  39.575  13.740   8.083
  617POPC   C4B10534  39.328  13.699   7.738
  618POPC   NC310535  25.451   2.135   9.576
  618POPC   PO410536  25.072   1.640   9.477
  618POPC   GL110537  25.274   1.937   9.143
  618POPC   GL210538  25.143   2.267   9.164
  618POPC   C1A10539  25.554   2.069   8.781
  618POPC   D2A10540  25.364   2.041   8.352
  618POPC   C3A10541  25.388   2.009   7.934
  618POPC   C4A10542  25.168   1.729   7.685
  618POPC   C1B10543  25.067   2.231   8.714
  618POPC   C2B10544  25.038   2.430   8.296
  618POPC   C3B10545  25.034   2.361   7.839
  618POPC   C4B10546  25.324   2.250   7.488
  619POPC   NC310547  17.822  44.954   9.424
  619POPC   PO410548  17.546  44.372   9.465
  619POPC   GL110549  17.504  44.638   9.127
  619POPC   GL210550  17.191  44.722   9.032
  619POPC   C1A10551  17.609  44.677   8.710
  619POPC   D2A10552  17.402  44.555   8.341
  619POPC   C3A10553  17.569  44.699   7.964
  619POPC   C4A10554  17.641  44.515   7.525
  619POPC   C1B10555  17.212  44.974   8.706
  619POPC   C2B10556  17.371   0.064   8.308
  619POPC   C3B10557  17.215   0.063   7.890
  619POPC   C4B10558  17.529   0.008   7.548
  620POPC   NC310559  20.612  40.278   9.287
  620POPC   PO410560  20.967  40.755   9.466
  620POPC   GL110561  20.806  40.955   9.138
  620POPC   GL210562  20.761  41.302   9.151
  620POPC   C1A10563  20.559  40.925   8.775
  620POPC   D2A10564  20.336  40.769   8.441
  620POPC   C3A10565  20.594  40.594   8.137
  620POPC   C4A10566  20.615  40.658   7.710
  620POPC   C1B10567  20.948  41.264   8.754
  620POPC   C2B10568  20.893  41.044   8.377
  620POPC   C3B10569  20.695  41.101   7.991
  620POPC   C4B10570  20.441  41.155   7.658
  621POPC   NC310571  30.507  11.322   9.423
  621POPC   PO410572  31.198  11.429   9.568
  621POPC   GL110573  30.893  11.499   9.169
  621POPC   GL210574  30.868  11.156   9.055
  621POPC   C1A10575  30.564  11.488   8.790
  621POPC   D2A10576  30.400  11.536   8.358
  621POPC   C3A10577  30.277  11.257   8.033
  621POPC   C4A10578  30.207  10.921   7.719
  621POPC   C1B10579  31.035  11.316   8.656
  621POPC   C2B10580  31.017  11.228   8.192
  621POPC   C3B10581  30.727  11.198   7.820
  621POPC   C4B10582  30.458  11.545   7.629
  622POPC   NC310583  36.703  15.859   9.444
  622POPC   PO410584  37.191  16.330   9.616
  622POPC   GL110585  37.089  16.202   9.178
  622POPC   GL210586  37.067  15.823   9.057
  622POPC   C1A10587  37.280  16.165   8.758
  622POPC   D2A10588  37.065  15.891   8.449
  622POPC   C3A10589  37.211  15.942   8.031
  622POPC   C4A10590  37.026  15.844   7.623
  622POPC   C1B10591  36.681  15.700   8.806
  622POPC   C2B10592  36.477  15.676   8.383
  622POPC   C3B10593  36.751  15.675   8.032
  622POPC   C4B10594  36.635  15.429   7.651
  623POPC   NC310595   2.669  27.079   9.520
  623POPC   PO410596   2.915  26.535   9.482
  623POPC   GL110597   2.679  26.702   9.152
  623POPC   GL210598   2.953  26.908   9.116
  623POPC   C1A10599   2.740  26.660   8.711
  623POPC   D2A10600   2.840  26.399   8.353
  623POPC   C3A10601   2.684  26.615   7.994
  623POPC   C4A10602   2.637  26.683   7.587
  623POPC   C1B10603   3.064  27.055   8.738
  623POPC   C2B10604   2.976  26.909   8.312
  623POPC   C3B10605   3.096  26.898   7.871
  623POPC   C4B10606   3.075  27.235   7.559
  624POPC   NC310607  38.899  25.994   9.455
  624POPC   PO410608  39.562  26.109   9.459
  624POPC   GL110609  39.352  25.841   9.165
  624POPC   GL210610  39.249  26.132   9.025
  624POPC   C1A10611  39.057  25.650   8.842
  624POPC   D2A10612  38.902  25.702   8.385
  624POPC   C3A10613  39.168  25.778   7.981
  624POPC   C4A10614  38.953  25.972   7.586
  624POPC   C1B10615  39.345  25.999   8.615
  624POPC   C2B10616  39.108  26.180   8.288
  624POPC   C3B10617  39.205  26.304   7.878
  624POPC   C4B10618  39.370  26.203   7.446
  625POPC   NC310619  41.748  41.369   9.595
  625POPC   PO410620  41.417  40.787   9.484
  625POPC   GL110621  41.667  40.994   9.211
  625POPC   GL210622  41.374  41.213   9.173
  625POPC   C1A10623  41.826  40.770   8.832
  625POPC   D2A10624  41.594  40.622   8.467
  625POPC   C3A10625  41.767  40.681   8.071
  625POPC   C4A10626  41.685  40.432   7.708
  625POPC   C1B10627  41.320  40.969   8.811
  625POPC   C2B10628  41.264  41.051   8.406
  625POPC   C3B10629  41.313  40.883   8.063
  625POPC   C4B10630  41.452  40.903   7.693
  626POPC   NC310631  30.595   6.347   9.500
  626POPC   PO410632  30.835   6.896   9.374
  626POPC   GL110633  30.886   6.561   9.087
  626POPC   GL210634  30.535   6.422   9.016
  626POPC   C1A10635  30.880   6.604   8.643
  626POPC   D2A10636  30.618   6.857   8.381
  626POPC   C3A10637  30.861   6.954   8.037
  626POPC   C4A10638  30.898   6.725   7.652
  626POPC   C1B10639  30.650   6.156   8.697
  626POPC   C2B10640  30.466   6.340   8.349
  626POPC   C3B10641  30.550   6.495   7.959
  626POPC   C4B10642  30.517   6.413   7.526
  627POPC   NC310643  22.448   5.659   9.314
  627POPC   PO410644  22.220   6.280   9.464
  627POPC   GL110645  22.186   6.033   9.098
  627POPC   GL210646  21.985   5.691   9.119
  627POPC   C1A10647  22.310   6.090   8.688
  627POPC   D2A10648  22.131   5.877   8.360
  627POPC   C3A10649  22.367   5.809   8.011
  627POPC   C4A10650  22.305   5.828   7.597
  627POPC   C1B10651  21.847   5.614   8.722
  627POPC   C2B10652  21.881   5.427   8.309
  627POPC   C3B10653  21.884   5.680   7.918
  627POPC   C4B10654  21.866   5.628   7.474
  628POPC   NC310655  26.402   2.423   9.462
  628POPC   PO410656  27.143   2.584   9.512
  628POPC   GL110657  27.057   2.606   9.098
  628POPC   GL210658  26.737   2.675   9.156
  628POPC   C1A10659  27.020   2.818   8.697
  628POPC   D2A10660  26.792   2.877   8.291
  628POPC   C3A10661  26.979   2.833   7.859
  628POPC   C4A10662  26.974   2.812   7.393
  628POPC   C1B10663  26.537   2.738   8.789
  628POPC   C2B10664  26.391   2.531   8.418
  628POPC   C3B10665  26.582   2.493   7.985
  628POPC   C4B10666  26.503   2.706   7.575
  629POPC   NC310667  22.561  10.004   9.488
  629POPC   PO410668  22.827   9.417   9.776
  629POPC   GL110669  22.899   9.694   9.302
  629POPC   GL210670  23.204   9.867   9.210
  629POPC   C1A10671  22.887   9.723   8.827
  629POPC   D2A10672  22.749   9.581   8.400
  629POPC   C3A10673  23.060   9.690   8.058
  629POPC   C4A10674  22.913   9.585   7.664
  629POPC   C1B10675  23.241  10.102   8.843
  629POPC   C2B10676  23.171  10.005   8.441
  629POPC   C3B10677  23.329  10.172   8.054
  629POPC   C4B10678  23.129  10.103   7.680
  630POPC   NC310679   4.789   9.046   9.570
  630POPC   PO410680   5.250   8.661   9.856
  630POPC   GL110681   5.161   8.747   9.312
  630POPC   GL210682   5.029   9.090   9.146
  630POPC   C1A10683   5.263   8.823   8.804
  630POPC   D2A10684   5.183   9.051   8.378
  630POPC   C3A10685   5.120   8.864   7.947
  630POPC   C4A10686   5.050   8.690   7.513
  630POPC   C1B10687   5.013   9.336   8.787
  630POPC   C2B10688   4.834   9.442   8.403
  630POPC   C3B10689   4.744   9.248   8.018
  630POPC   C4B10690   4.823   9.130   7.607
  631POPC   NC310691   5.483  34.645   9.635
  631POPC   PO410692   5.742  35.086   9.247
  631POPC   GL110693   5.747  34.633   9.190
  631POPC   GL210694   6.084  34.509   9.247
  631POPC   C1A10695   5.732  34.392   8.815
  631POPC   D2A10696   5.947  34.492   8.424
  631POPC   C3A10697   5.719  34.543   8.047
  631POPC   C4A10698   5.838  34.870   7.762
  631POPC   C1B10699   6.245  34.315   8.848
  631POPC   C2B10700   6.400  34.242   8.425
  631POPC   C3B10701   6.197  34.206   8.039
  631POPC   C4B10702   6.075  34.426   7.665
  632POPC   NC310703  35.870   6.267   9.528
  632POPC   PO410704  36.021   5.550   9.519
  632POPC   GL110705  36.112   5.588   9.088
  632POPC   GL210706  36.179   5.898   9.015
  632POPC   C1A10707  35.935   5.539   8.659
  632POPC   D2A10708  36.101   5.599   8.223
  632POPC   C3A10709  35.803   5.783   7.956
  632POPC   C4A10710  35.710   6.226   7.822
  632POPC   C1B10711  36.451   5.898   8.697
  632POPC   C2B10712  36.637   6.022   8.318
  632POPC   C3B10713  36.495   5.919   7.920
  632POPC   C4B10714  36.511   5.935   7.486
  633POPC   NC310715  21.538  28.794   9.394
  633POPC   PO410716  21.511  28.125   9.569
  633POPC   GL110717  21.311  28.329   9.157
  633POPC   GL210718  21.102  28.641   9.094
  633POPC   C1A10719  21.311  28.431   8.680
  633POPC   D2A10720  21.450  28.568   8.259
  633POPC   C3A10721  21.544  28.353   7.855
  633POPC   C4A10722  21.871  28.432   7.493
  633POPC   C1B10723  20.881  28.725   8.677
  633POPC   C2B10724  20.956  28.678   8.230
  633POPC   C3B10725  21.042  28.439   7.875
  633POPC   C4B10726  21.085  28.111   7.542
  634POPC   NC310727   0.721  21.693   9.478
  634POPC   PO410728   0.473  22.366   9.447
  634POPC   GL110729   0.696  22.123   9.152
  634POPC   GL210730   0.814  22.386   8.923
  634POPC   C1A10731   0.492  21.876   8.860
  634POPC   D2A10732   0.344  21.958   8.471
  634POPC   C3A10733   0.579  21.751   8.180
  634POPC   C4A10734   0.421  21.962   7.842
  634POPC   C1B10735   0.353  22.379   8.803
  634POPC   C2B10736   0.141  22.479   8.425
  634POPC   C3B10737   0.270  22.494   7.966
  634POPC   C4B10738   0.359  22.434   7.526
  635POPC   NC310739  41.916  36.884   9.498
  635POPC   PO410740  42.479  37.161   9.626
  635POPC   GL110741  42.347  37.093   9.226
  635POPC   GL210742  42.595  37.370   9.152
  635POPC   C1A10743  42.270  36.796   8.837
  635POPC   D2A10744  42.119  36.952   8.451
  635POPC   C3A10745  42.218  36.812   8.048
  635POPC   C4A10746  42.008  36.959   7.691
  635POPC   C1B10747  42.650  37.121   8.825
  635POPC   C2B10748  42.631  36.961   8.429
  635POPC   C3B10749  42.621  37.114   8.030
  635POPC   C4B10750  42.547  36.911   7.640
  636POPC   NC310751  20.282  27.274  10.018
  636POPC   PO410752  19.864  27.736   9.646
  636POPC   GL110753  19.595  27.703   9.259
  636POPC   GL210754  19.731  27.405   9.129
  636POPC   C1A10755  19.519  27.724   8.787
  636POPC   D2A10756  19.624  27.519   8.379
  636POPC   C3A10757  19.664  27.748   7.990
  636POPC   C4A10758  19.835  27.649   7.579
  636POPC   C1B10759  19.956  27.384   8.737
  636POPC   C2B10760  20.066  27.247   8.299
  636POPC   C3B10761  19.997  27.264   7.849
  636POPC   C4B10762  20.046  27.234   7.381
  637POPC   NC310763  44.305  19.615   9.247
  637POPC   PO410764  44.890  19.828   9.592
  637POPC   GL110765  44.773  19.840   9.196
  637POPC   GL210766  44.548  20.132   9.270
  637POPC   C1A10767  44.809  19.598   8.793
  637POPC   D2A10768  44.635  19.487   8.385
  637POPC   C3A10769  44.874  19.441   8.004
  637POPC   C4A10770  44.595  19.585   7.694
  637POPC   C1B10771  44.583  20.091   8.816
  637POPC   C2B10772  44.379  19.940   8.489
  637POPC   C3B10773  44.415  19.885   8.066
  637POPC   C4B10774  44.507  20.095   7.690
  638POPC   NC310775   3.256  25.053   9.317
  638POPC   PO410776   3.507  24.477   9.620
  638POPC   GL110777   3.526  24.337   9.207
  638POPC   GL210778   3.363  24.617   9.061
  638POPC   C1A10779   3.651  24.297   8.763
  638POPC   D2A10780   3.601  24.585   8.401
  638POPC   C3A10781   3.553  24.385   8.014
  638POPC   C4A10782   3.864  24.146   7.780
  638POPC   C1B10783   3.231  24.826   8.673
  638POPC   C2B10784   3.196  24.883   8.199
  638POPC   C3B10785   3.176  24.666   7.786
  638POPC   C4B10786   3.197  24.620   7.290
  639POPC   NC310787   4.782  28.906   9.458
  639POPC   PO410788   5.350  29.242   9.437
  639POPC   GL110789   5.103  29.215   9.100
  639POPC   GL210790   5.024  28.873   9.032
  639POPC   C1A10791   5.223  29.177   8.678
  639POPC   D2A10792   5.034  29.315   8.353
  639POPC   C3A10793   5.119  29.121   7.997
  639POPC   C4A10794   4.849  29.142   7.678
  639POPC   C1B10795   5.203  28.653   8.710
  639POPC   C2B10796   5.331  28.768   8.328
  639POPC   C3B10797   5.142  28.615   7.978
  639POPC   C4B10798   5.206  28.777   7.609
  640POPC   NC310799  17.145   3.392   9.797
  640POPC   PO410800  16.559   3.482   9.516
  640POPC   GL110801  16.718   3.332   9.152
  640POPC   GL210802  17.072   3.377   9.186
  640POPC   C1A10803  16.781   3.334   8.709
  640POPC   D2A10804  16.733   3.210   8.291
  640POPC   C3A10805  16.837   3.526   7.993
  640POPC   C4A10806  16.489   3.659   7.759
  640POPC   C1B10807  17.183   3.663   8.847
  640POPC   C2B10808  17.072   3.699   8.440
  640POPC   C3B10809  17.231   3.861   8.076
  640POPC   C4B10810  17.300   3.709   7.677
  641POPC   NC310811  33.275  41.659   9.624
  641POPC   PO410812  33.818  41.436   9.461
  641POPC   GL110813  33.832  41.372   9.020
  641POPC   GL210814  33.540  41.184   8.962
  641POPC   C1A10815  34.013  41.602   8.662
  641POPC   D2A10816  34.012  41.520   8.231
  641POPC   C3A10817  33.811  41.645   7.824
  641POPC   C4A10818  33.931  41.504   7.397
  641POPC   C1B10819  33.663  41.085   8.516
  641POPC   C2B10820  33.612  41.239   8.082
  641POPC   C3B10821  33.541  41.236   7.637
  641POPC   C4B10822  33.442  41.456   7.251
  642POPC   NC310823   9.187  21.148   9.488
  642POPC   PO410824   8.423  21.210   9.540
  642POPC   GL110825   8.571  21.338   9.145
  642POPC   GL210826   8.933  21.446   9.118
  642POPC   C1A10827   8.571  21.266   8.715
  642POPC   D2A10828   8.519  21.534   8.340
  642POPC   C3A10829   8.557  21.338   7.917
  642POPC   C4A10830   8.612  21.465   7.474
  642POPC   C1B10831   9.000  21.540   8.661
  642POPC   C2B10832   8.989  21.679   8.225
  642POPC   C3B10833   8.999  21.589   7.791
  642POPC   C4B10834   9.246  21.752   7.414
  643POPC   NC310835  27.395  32.718   9.808
  643POPC   PO410836  27.696  32.120   9.537
  643POPC   GL110837  27.473  32.293   9.180
  643POPC   GL210838  27.496  31.970   9.078
  643POPC   C1A10839  27.609  32.286   8.713
  643POPC   D2A10840  27.532  32.045   8.336
  643POPC   C3A10841  27.607  32.363   8.041
  643POPC   C4A10842  27.377  32.485   7.681
  643POPC   C1B10843  27.798  31.807   8.727
  643POPC   C2B10844  28.042  31.968   8.361
  643POPC   C3B10845  27.978  31.997   7.910
  643POPC   C4B10846  27.919  32.050   7.425
  644POPC   NC310847   7.789  22.302   9.529
  644POPC   PO410848   7.112  22.319   9.302
  644POPC   GL110849   7.382  22.185   9.035
  644POPC   GL210850   7.599  21.979   9.192
  644POPC   C1A10851   7.343  22.212   8.623
  644POPC   D2A10852   7.194  21.989   8.309
  644POPC   C3A10853   7.230  22.150   7.944
  644POPC   C4A10854   7.532  22.216   7.660
  644POPC   C1B10855   7.668  21.819   8.806
  644POPC   C2B10856   7.699  21.935   8.395
  644POPC   C3B10857   7.612  21.804   8.021
  644POPC   C4B10858   7.791  21.776   7.634
  645POPC   NC310859  28.792  27.942   9.384
  645POPC   PO410860  29.233  27.455   9.586
  645POPC   GL110861  29.099  27.469   9.165
  645POPC   GL210862  29.186  27.777   9.136
  645POPC   C1A10863  29.298  27.395   8.736
  645POPC   D2A10864  29.102  27.510   8.325
  645POPC   C3A10865  29.134  27.480   7.861
  645POPC   C4A10866  29.479  27.471   7.577
  645POPC   C1B10867  28.993  27.811   8.763
  645POPC   C2B10868  28.881  27.986   8.415
  645POPC   C3B10869  29.100  27.951   8.040
  645POPC   C4B10870  28.911  27.917   7.608
  646POPC   NC310871  15.732  15.389   9.452
  646POPC   PO410872  16.189  14.940   9.725
  646POPC   GL110873  16.071  14.970   9.247
  646POPC   GL210874  16.115  15.283   9.117
  646POPC   C1A10875  15.998  14.900   8.771
  646POPC   D2A10876  16.049  15.215   8.398
  646POPC   C3A10877  15.975  15.139   7.971
  646POPC   C4A10878  16.262  15.282   7.643
  646POPC   C1B10879  15.791  15.382   8.805
  646POPC   C2B10880  15.688  15.594   8.432
  646POPC   C3B10881  15.733  15.772   8.041
  646POPC   C4B10882  15.818  15.538   7.687
  647POPC   NC310883  24.406  29.025   9.423
  647POPC   PO410884  24.933  29.521   9.324
  647POPC   GL110885  24.593  29.332   9.087
  647POPC   GL210886  24.705  28.983   8.981
  647POPC   C1A10887  24.241  29.174   8.815
  647POPC   D2A10888  24.153  29.199   8.410
  647POPC   C3A10889  24.450  28.997   8.149
  647POPC   C4A10890  24.447  28.870   7.730
  647POPC   C1B10891  24.739  29.307   8.614
  647POPC   C2B10892  24.550  29.520   8.263
  647POPC   C3B10893  24.456  29.395   7.848
  647POPC   C4B10894  24.784  29.225   7.547
  648POPC   NC310895  15.010  34.039   9.489
  648POPC   PO410896  15.475  33.533   9.564
  648POPC   GL110897  15.251  33.671   9.224
  648POPC   GL210898  14.952  33.548   9.250
  648POPC   C1A10899  15.267  33.821   8.784
  648POPC   D2A10900  15.481  33.748   8.375
  648POPC   C3A10901  15.362  33.920   7.983
  648POPC   C4A10902  15.060  34.005   7.678
  648POPC   C1B10903  15.128  33.335   8.874
  648POPC   C2B10904  15.048  33.475   8.445
  648POPC   C3B10905  15.231  33.395   8.045
  648POPC   C4B10906  15.240  33.510   7.631
  649POPC   NC310907  21.632  20.553   9.439
  649POPC   PO410908  20.968  20.682   9.473
  649POPC   GL110909  21.237  20.731   9.129
  649POPC   GL210910  21.106  20.448   9.027
  649POPC   C1A10911  21.260  20.935   8.698
  649POPC   D2A10912  21.454  20.770   8.322
  649POPC   C3A10913  21.458  20.867   7.879
  649POPC   C4A10914  21.652  20.500   7.672
  649POPC   C1B10915  21.304  20.428   8.696
  649POPC   C2B10916  21.098  20.390   8.336
  649POPC   C3B10917  21.250  20.403   7.966
  649POPC   C4B10918  21.221  20.189   7.603
  650POPC   NC310919   8.390  39.805  10.014
  650POPC   PO410920   7.956  39.962   9.488
  650POPC   GL110921   8.162  40.023   9.143
  650POPC   GL210922   8.394  39.737   9.130
  650POPC   C1A10923   8.033  39.946   8.722
  650POPC   D2A10924   8.215  39.729   8.381
  650POPC   C3A10925   8.200  39.900   7.980
  650POPC   C4A10926   8.191  39.694   7.577
  650POPC   C1B10927   8.530  39.912   8.775
  650POPC   C2B10928   8.507  40.162   8.444
  650POPC   C3B10929   8.683  40.217   8.049
  650POPC   C4B10930   8.563  40.067   7.646
  651POPC   NC310931  33.119  37.881   9.804
  651POPC   PO410932  32.578  37.660   9.423
  651POPC   GL110933  32.902  37.571   9.120
  651POPC   GL210934  33.165  37.836   9.240
  651POPC   C1A10935  32.873  37.465   8.653
  651POPC   D2A10936  33.032  37.706   8.290
  651POPC   C3A10937  33.054  37.592   7.840
  651POPC   C4A10938  33.159  37.726   7.418
  651POPC   C1B10939  33.281  37.769   8.803
  651POPC   C2B10940  33.396  37.401   8.525
  651POPC   C3B10941  33.383  37.256   8.091
  651POPC   C4B10942  33.542  37.526   7.732
  652POPC   NC310943  39.839  33.255   9.244
  652POPC   PO410944  40.144  33.816   9.536
  652POPC   GL110945  39.955  33.801   9.119
  652POPC   GL210946  39.692  33.599   8.904
  652POPC   C1A10947  39.918  34.044   8.780
  652POPC   D2A10948  40.080  34.163   8.414
  652POPC   C3A10949  39.962  33.889   8.137
  652POPC   C4A10950  40.025  34.041   7.760
  652POPC   C1B10951  40.149  33.547   8.743
  652POPC   C2B10952  40.319  33.290   8.421
  652POPC   C3B10953  40.254  33.450   8.008
  652POPC   C4B10954  39.890  33.513   7.798
  653POPC   NC310955  43.668   6.861   9.496
  653POPC   PO410956  44.231   6.873   9.189
  653POPC   GL110957  43.817   6.798   8.986
  653POPC   GL210958  43.770   6.437   9.021
  653POPC   C1A10959  43.616   6.670   8.562
  653POPC   D2A10960  43.596   6.368   8.184
  653POPC   C3A10961  43.785   6.562   7.821
  653POPC   C4A10962  44.138   6.858   7.832
  653POPC   C1B10963  44.189   6.368   8.785
  653POPC   C2B10964  44.421   6.313   8.403
  653POPC   C3B10965  44.209   6.367   8.030
  653POPC   C4B10966  44.249   6.209   7.643
  654POPC   NC310967  41.138   6.490   9.827
  654POPC   PO410968  41.711   6.769   9.564
  654POPC   GL110969  41.837   6.744   9.129
  654POPC   GL210970  41.766   6.421   8.967
  654POPC   C1A10971  41.722   6.909   8.703
  654POPC   D2A10972  41.468   7.064   8.350
  654POPC   C3A10973  41.528   6.878   7.976
  654POPC   C4A10974  41.853   6.672   7.808
  654POPC   C1B10975  41.475   6.463   8.637
  654POPC   C2B10976  41.635   6.398   8.227
  654POPC   C3B10977  41.576   6.246   7.826
  654POPC   C4B10978  41.737   6.303   7.398
  655POPC   NC310979  38.016   4.838   9.510
  655POPC   PO410980  37.593   5.456   9.488
  655POPC   GL110981  37.808   5.309   9.176
  655POPC   GL210982  37.496   5.096   9.084
  655POPC   C1A10983  37.872   5.215   8.770
  655POPC   D2A10984  37.555   5.083   8.500
  655POPC   C3A10985  37.722   4.969   8.096
  655POPC   C4A10986  37.832   5.335   7.900
  655POPC   C1B10987  37.384   4.711   8.829
  655POPC   C2B10988  37.189   4.732   8.404
  655POPC   C3B10989  37.227   5.084   8.100
  655POPC   C4B10990  37.360   4.912   7.706
  656POPC   NC310991  35.234  21.215   9.545
  656POPC   PO410992  35.013  21.834   9.494
  656POPC   GL110993  35.303  21.554   9.137
  656POPC   GL210994  35.391  21.157   9.083
  656POPC   C1A10995  35.545  21.473   8.731
  656POPC   D2A10996  35.454  21.197   8.400
  656POPC   C3A10997  35.564  21.370   8.029
  656POPC   C4A10998  35.765  21.400   7.671
  656POPC   C1B10999  35.067  21.258   8.816
  656POPC   C2B11000  34.971  21.407   8.470
  656POPC   C3B11001  35.037  21.348   8.058
  656POPC   C4B11002  35.229  21.411   7.661
  657POPC   NC311003  33.505  28.207   9.673
  657POPC   PO411004  34.191  28.284   9.573
  657POPC   GL111005  33.938  28.288   9.187
  657POPC   GL211006  33.598  28.340   9.173
  657POPC   C1A11007  33.905  28.556   8.795
  657POPC   D2A11008  33.717  28.712   8.429
  657POPC   C3A11009  33.646  28.343   8.199
  657POPC   C4A11010  33.888  28.266   7.870
  657POPC   C1B11011  33.363  28.606   8.879
  657POPC   C2B11012  33.224  28.529   8.471
  657POPC   C3B11013  33.326  28.711   8.072
  657POPC   C4B11014  33.450  28.483   7.711
  658POPC   NC311015  13.993  31.876   9.455
  658POPC   PO411016  14.673  32.141   9.549
  658POPC   GL111017  14.486  32.054   9.160
  658POPC   GL211018  14.818  31.889   9.099
  658POPC   C1A11019  14.264  32.269   8.795
  658POPC   D2A11020  14.427  32.439   8.417
  658POPC   C3A11021  14.291  32.251   8.033
  658POPC   C4A11022  14.398  32.361   7.615
  658POPC   C1B11023  14.719  32.068   8.682
  658POPC   C2B11024  14.801  32.090   8.220
  658POPC   C3B11025  14.852  32.078   7.749
  658POPC   C4B11026  14.918  32.223   7.306
  659POPC   NC311027  26.321  36.507   9.378
  659POPC   PO411028  25.822  36.980   9.479
  659POPC   GL111029  25.964  36.755   9.115
  659POPC   GL211030  26.280  36.925   9.019
  659POPC   C1A11031  26.074  36.628   8.670
  659POPC   D2A11032  26.198  36.862   8.307
  659POPC   C3A11033  26.040  36.738   7.902
  659POPC   C4A11034  26.246  36.716   7.512
  659POPC   C1B11035  25.990  37.151   8.798
  659POPC   C2B11036  25.819  37.263   8.453
  659POPC   C3B11037  25.856  37.231   8.057
  659POPC   C4B11038  25.693  37.288   7.641
  660POPC   NC311039  43.740  19.176   9.515
  660POPC   PO411040  44.463  19.205   9.387
  660POPC   GL111041  44.111  19.010   9.118
  660POPC   GL211042  43.734  18.819   9.153
  660POPC   C1A11043  43.927  19.056   8.729
  660POPC   D2A11044  43.727  19.223   8.370
  660POPC   C3A11045  43.913  19.078   8.000
  660POPC   C4A11046  43.817  18.986   7.594
  660POPC   C1B11047  43.647  18.610   8.758
  660POPC   C2B11048  43.797  18.679   8.320
  660POPC   C3B11049  43.551  18.669   7.902
  660POPC   C4B11050  43.480  18.646   7.428
  661POPC   NC311051   6.263  25.994   9.587
  661POPC   PO411052   5.627  26.223   9.739
  661POPC   GL111053   5.772  26.020   9.361
  661POPC   GL211054   6.014  26.248   9.207
  661POPC   C1A11055   5.699  25.940   8.918
  661POPC   D2A11056   5.827  26.062   8.531
  661POPC   C3A11057   5.861  26.019   8.096
  661POPC   C4A11058   5.632  26.049   7.755
  661POPC   C1B11059   5.983  26.500   8.829
  661POPC   C2B11060   6.034  26.506   8.402
  661POPC   C3B11061   6.260  26.340   8.068
  661POPC   C4B11062   6.170  26.252   7.643
  662POPC   NC311063  33.327  39.412   9.533
  662POPC   PO411064  33.727  38.921   9.472
  662POPC   GL111065  33.775  39.258   9.188
  662POPC   GL211066  34.001  39.100   9.016
  662POPC   C1A11067  33.851  39.460   8.728
  662POPC   D2A11068  33.885  39.248   8.340
  662POPC   C3A11069  33.856  39.266   7.906
  662POPC   C4A11070  33.932  39.478   7.524
  662POPC   C1B11071  34.304  38.995   8.745
  662POPC   C2B11072  34.388  39.142   8.359
  662POPC   C3B11073  34.320  38.953   7.993
  662POPC   C4B11074  34.159  39.006   7.599
  663POPC   NC311075  39.764  12.149   9.615
  663POPC   PO411076  40.413  12.077   9.590
  663POPC   GL111077  40.157  11.995   9.268
  663POPC   GL211078  40.276  12.285   9.110
  663POPC   C1A11079  39.811  11.899   8.985
  663POPC   D2A11080  39.685  11.982   8.550
  663POPC   C3A11081  39.829  11.843   8.148
  663POPC   C4A11082  40.042  12.017   7.798
  663POPC   C1B11083  40.259  11.989   8.752
  663POPC   C2B11084  40.276  12.123   8.324
  663POPC   C3B11085  40.469  12.265   7.948
  663POPC   C4B11086  40.526  12.033   7.578
  664POPC   NC311087  38.030  28.948   9.551
  664POPC   PO411088  37.474  29.370   9.492
  664POPC   GL111089  37.785  29.238   9.217
  664POPC   GL211090  37.759  28.896   9.117
  664POPC   C1A11091  37.752  29.273   8.768
  664POPC   D2A11092  37.466  29.173   8.434
  664POPC   C3A11093  37.663  29.247   8.063
  664POPC   C4A11094  37.606  29.204   7.615
  664POPC   C1B11095  37.568  28.775   8.732
  664POPC   C2B11096  37.456  28.661   8.312
  664POPC   C3B11097  37.594  28.776   7.906
  664POPC   C4B11098  37.977  28.775   7.658
  665POPC   NC311099   5.379   0.547   9.638
  665POPC   PO411100   4.748   0.314   9.703
  665POPC   GL111101   4.933   0.416   9.284
  665POPC   GL211102   5.252   0.559   9.155
  665POPC   C1A11103   5.028   0.172   8.903
  665POPC   D2A11104   4.897   0.213   8.470
  665POPC   C3A11105   5.109   0.298   8.072
  665POPC   C4A11106   4.944   0.427   7.673
  665POPC   C1B11107   5.041   0.651   8.766
  665POPC   C2B11108   5.292   0.604   8.438
  665POPC   C3B11109   5.418   0.715   8.039
  665POPC   C4B11110   5.204   0.844   7.687
  666POPC   NC311111  33.362   8.813   9.427
  666POPC   PO411112  32.863   9.180   9.623
  666POPC   GL111113  32.963   9.149   9.196
  666POPC   GL211114  32.690   9.344   9.111
  666POPC   C1A11115  33.104   8.977   8.773
  666POPC   D2A11116  33.168   9.106   8.334
  666POPC   C3A11117  33.146   8.768   7.968
  666POPC   C4A11118  33.521   8.630   7.751
  666POPC   C1B11119  32.619   9.144   8.731
  666POPC   C2B11120  32.689   8.960   8.313
  666POPC   C3B11121  32.783   9.087   7.864
  666POPC   C4B11122  32.833   9.124   7.388
  667POPC   NC311123  34.127   3.765   9.711
  667POPC   PO411124  33.775   3.302   9.438
  667POPC   GL111125  33.597   3.470   9.070
  667POPC   GL211126  33.455   3.166   9.073
  667POPC   C1A11127  33.746   3.565   8.656
  667POPC   D2A11128  33.728   3.794   8.266
  667POPC   C3A11129  33.871   3.614   7.894
  667POPC   C4A11130  33.549   3.692   7.601
  667POPC   C1B11131  33.603   3.061   8.688
  667POPC   C2B11132  33.662   3.221   8.300
  667POPC   C3B11133  33.452   3.382   7.993
  667POPC   C4B11134  33.501   3.182   7.617
  668POPC   NC311135   4.148  28.007   9.372
  668POPC   PO411136   4.387  28.658   9.520
  668POPC   GL111137   4.102  28.529   9.176
  668POPC   GL211138   4.276  28.288   8.968
  668POPC   C1A11139   4.052  28.659   8.719
  668POPC   D2A11140   4.160  28.461   8.318
  668POPC   C3A11141   4.188  28.528   7.835
  668POPC   C4A11142   4.364  28.296   7.445
  668POPC   C1B11143   3.894  28.119   8.755
  668POPC   C2B11144   3.960  27.886   8.384
  668POPC   C3B11145   4.109  28.051   8.037
  668POPC   C4B11146   3.984  28.034   7.676
  669POPC   NC311147  34.269  11.894   9.350
  669POPC   PO411148  33.616  11.790   9.528
  669POPC   GL111149  33.526  11.921   9.117
  669POPC   GL211150  33.844  12.069   9.065
  669POPC   C1A11151  33.616  11.853   8.663
  669POPC   D2A11152  33.882  12.064   8.359
  669POPC   C3A11153  33.691  12.100   7.980
  669POPC   C4A11154  33.951  12.074   7.663
  669POPC   C1B11155  33.900  12.383   8.750
  669POPC   C2B11156  34.118  12.539   8.375
  669POPC   C3B11157  34.035  12.487   7.959
  669POPC   C4B11158  33.928  12.661   7.575
  670POPC   NC311159  12.147  25.397   9.589
  670POPC   PO411160  11.724  24.918   9.465
  670POPC   GL111161  11.984  25.108   9.119
  670POPC   GL211162  12.156  25.451   9.068
  670POPC   C1A11163  11.845  25.182   8.720
  670POPC   D2A11164  11.863  25.510   8.461
  670POPC   C3A11165  11.989  25.331   8.084
  670POPC   C4A11166  12.015  25.051   7.742
  670POPC   C1B11167  12.362  25.184   8.742
  670POPC   C2B11168  12.405  25.051   8.313
  670POPC   C3B11169  12.462  25.256   7.899
  670POPC   C4B11170  12.429  25.327   7.451
  671POPC   NC311171   0.702  13.675   9.373
  671POPC   PO411172   0.227  13.267   9.548
  671POPC   GL111173   0.258  13.437   9.116
  671POPC   GL211174   0.503  13.668   8.917
  671POPC   C1A11175   0.178  13.363   8.683
  671POPC   D2A11176   0.318  13.615   8.343
  671POPC   C3A11177   0.325  13.547   7.914
  671POPC   C4A11178   0.651  13.745   7.712
  671POPC   C1B11179   0.147  13.905   8.730
  671POPC   C2B11180   0.001  14.143   8.393
  671POPC   C3B11181   0.038  13.962   8.017
  671POPC   C4B11182   0.048  13.847   7.583
  672POPC   NC311183  16.059  25.475   9.596
  672POPC   PO411184  15.376  25.321   9.588
  672POPC   GL111185  15.753  25.317   9.180
  672POPC   GL211186  16.146  25.330   9.135
  672POPC   C1A11187  15.924  25.141   8.739
  672POPC   D2A11188  15.982  25.341   8.326
  672POPC   C3A11189  15.921  25.051   7.928
  672POPC   C4A11190  15.894  25.070   7.453
  672POPC   C1B11191  16.396  25.368   8.762
  672POPC   C2B11192  16.474  25.491   8.360
  672POPC   C3B11193  16.335  25.357   7.966
  672POPC   C4B11194  16.370  25.074   7.639
  673POPC   NC311195  38.201   1.678   9.471
  673POPC   PO411196  38.492   1.077   9.564
  673POPC   GL111197  38.590   1.195   9.175
  673POPC   GL211198  38.769   0.868   9.139
  673POPC   C1A11199  38.383   1.410   8.814
  673POPC   D2A11200  38.183   1.191   8.454
  673POPC   C3A11201  38.317   1.328   8.041
  673POPC   C4A11202  38.468   1.323   7.601
  673POPC   C1B11203  38.615   0.950   8.714
  673POPC   C2B11204  38.591   0.889   8.276
  673POPC   C3B11205  38.532   0.872   7.828
  673POPC   C4B11206  38.848   1.003   7.524
  674POPC   NC311207  15.301   7.219   9.449
  674POPC   PO411208  14.867   7.774   9.516
  674POPC   GL111209  15.019   7.626   9.142
  674POPC   GL211210  15.395   7.598   9.099
  674POPC   C1A11211  15.065   7.290   8.840
  674POPC   D2A11212  15.262   7.263   8.460
  674POPC   C3A11213  15.004   7.075   8.151
  674POPC   C4A11214  15.154   7.133   7.765
  674POPC   C1B11215  15.251   7.749   8.712
  674POPC   C2B11216  14.918   7.632   8.415
  674POPC   C3B11217  14.978   7.573   7.983
  674POPC   C4B11218  15.069   7.688   7.546
  675POPC   NC311219   2.448  33.541   9.404
  675POPC   PO411220   3.047  33.812   9.393
  675POPC   GL111221   2.913  33.603   9.068
  675POPC   GL211222   2.651  33.834   9.040
  675POPC   C1A11223   3.112  33.441   8.703
  675POPC   D2A11224   3.283  33.615   8.336
  675POPC   C3A11225   2.998  33.525   7.988
  675POPC   C4A11226   2.551  33.519   7.820
  675POPC   C1B11227   2.481  33.942   8.702
  675POPC   C2B11228   2.745  33.766   8.414
  675POPC   C3B11229   2.686  33.929   8.058
  675POPC   C4B11230   2.378  34.005   7.760
  676POPC   NC311231  41.754  27.253   9.435
  676POPC   PO411232  41.324  27.787   9.725
  676POPC   GL111233  41.385  27.632   9.281
  676POPC   GL211234  41.709  27.691   9.153
  676POPC   C1A11235  41.404  27.411   8.856
  676POPC   D2A11236  41.196  27.491   8.477
  676POPC   C3A11237  41.423  27.414   8.139
  676POPC   C4A11238  41.430  27.597   7.778
  676POPC   C1B11239  41.614  27.920   8.780
  676POPC   C2B11240  41.689  27.816   8.350
  676POPC   C3B11241  41.712  27.987   7.943
  676POPC   C4B11242  41.847  27.948   7.506
  677POPC   NC311243  25.617  21.906   9.441
  677POPC   PO411244  26.175  22.099   9.625
  677POPC   GL111245  26.079  22.099   9.189
  677POPC   GL211246  26.151  22.455   9.110
  677POPC   C1A11247  26.138  21.943   8.760
  677POPC   D2A11248  25.984  21.895   8.350
  677POPC   C3A11249  26.229  21.917   7.968
  677POPC   C4A11250  26.130  21.996   7.523
  677POPC   C1B11251  26.230  22.453   8.667
  677POPC   C2B11252  26.126  22.400   8.239
  677POPC   C3B11253  26.197  22.406   7.811
  677POPC   C4B11254  26.220  22.486   7.343
  678POPC   NC311255  32.630  30.419   9.275
  678POPC   PO411256  33.137  30.661   9.703
  678POPC   GL111257  33.147  30.587   9.222
  678POPC   GL211258  33.154  30.949   9.119
  678POPC   C1A11259  33.329  30.424   8.758
  678POPC   D2A11260  33.081  30.329   8.363
  678POPC   C3A11261  33.314  30.236   7.971
  678POPC   C4A11262  33.360  30.252   7.478
  678POPC   C1B11263  32.963  30.786   8.742
  678POPC   C2B11264  32.641  30.720   8.429
  678POPC   C3B11265  32.862  30.769   8.046
  678POPC   C4B11266  33.275  30.738   7.897
  679POPC   NC311267  15.602  30.148   9.484
  679POPC   PO411268  16.099  29.693   9.660
  679POPC   GL111269  16.064  29.872   9.248
  679POPC   GL211270  16.066  30.211   9.222
  679POPC   C1A11271  16.222  29.824   8.824
  679POPC   D2A11272  16.087  29.927   8.416
  679POPC   C3A11273  16.210  29.714   8.063
  679POPC   C4A11274  16.007  29.875   7.742
  679POPC   C1B11275  15.943  30.264   8.788
  679POPC   C2B11276  15.770  30.359   8.382
  679POPC   C3B11277  15.557  30.187   8.037
  679POPC   C4B11278  15.607  30.161   7.625
  680POPC   NC311279  22.333  20.149   9.420
  680POPC   PO411280  22.076  19.550   9.282
  680POPC   GL111281  22.070  19.887   9.044
  680POPC   GL211282  21.873  20.195   9.148
  680POPC   C1A11283  22.313  19.813   8.687
  680POPC   D2A11284  22.170  19.671   8.286
  680POPC   C3A11285  22.343  19.850   7.921
  680POPC   C4A11286  22.045  19.866   7.612
  680POPC   C1B11287  22.122  20.311   8.778
  680POPC   C2B11288  22.253  20.187   8.353
  680POPC   C3B11289  22.109  20.311   7.970
  680POPC   C4B11290  22.334  20.265   7.605
  681POPC   NC311291  37.319  22.734   9.525
  681POPC   PO411292  37.991  22.830   9.470
  681POPC   GL111293  37.733  22.868   9.108
  681POPC   GL211294  37.455  23.083   9.186
  681POPC   C1A11295  37.659  22.699   8.689
  681POPC   D2A11296  37.591  22.586   8.255
  681POPC   C3A11297  37.964  22.581   7.987
  681POPC   C4A11298  38.075  22.996   7.796
  681POPC   C1B11299  37.357  23.147   8.770
  681POPC   C2B11300  37.539  23.256   8.372
  681POPC   C3B11301  37.529  23.082   7.966
  681POPC   C4B11302  37.237  23.116   7.620
  682POPC   NC311303  35.723  11.830   9.342
  682POPC   PO411304  36.180  12.322   9.472
  682POPC   GL111305  36.164  12.009   9.148
  682POPC   GL211306  36.464  11.858   9.095
  682POPC   C1A11307  35.939  11.933   8.733
  682POPC   D2A11308  35.785  11.805   8.318
  682POPC   C3A11309  35.907  12.091   7.988
  682POPC   C4A11310  36.003  11.952   7.578
  682POPC   C1B11311  36.440  12.011   8.707
  682POPC   C2B11312  36.278  12.045   8.330
  682POPC   C3B11313  36.405  11.970   7.931
  682POPC   C4B11314  36.441  12.218   7.593
  683POPC   NC311315  43.986  21.040   9.572
  683POPC   PO411316  44.090  20.415   9.719
  683POPC   GL111317  44.117  20.480   9.248
  683POPC   GL211318  43.752  20.528   9.199
  683POPC   C1A11319  44.034  20.484   8.760
  683POPC   D2A11320  43.651  20.517   8.447
  683POPC   C3A11321  43.618  20.496   7.978
  683POPC   C4A11322  43.930  20.606   7.650
  683POPC   C1B11323  43.633  20.821   8.862
  683POPC   C2B11324  43.598  21.049   8.436
  683POPC   C3B11325  43.727  21.002   7.950
  683POPC   C4B11326  43.734  21.081   7.491
  684POPC   NC311327  20.960  38.092   9.427
  684POPC   PO411328  20.821  37.383   9.608
  684POPC   GL111329  20.788  37.528   9.175
  684POPC   GL211330  20.650  37.853   9.077
  684POPC   C1A11331  20.761  37.470   8.731
  684POPC   D2A11332  20.916  37.638   8.302
  684POPC   C3A11333  20.579  37.787   8.026
  684POPC   C4A11334  20.573  37.695   7.568
  684POPC   C1B11335  20.904  37.952   8.704
  684POPC   C2B11336  20.942  38.139   8.256
  684POPC   C3B11337  20.922  38.028   7.778
  684POPC   C4B11338  21.022  37.812   7.336
  685POPC   NC311339  36.937   8.484   9.327
  685POPC   PO411340  36.629   7.924   9.414
  685POPC   GL111341  36.694   8.071   9.042
  685POPC   GL211342  37.039   8.086   8.947
  685POPC   C1A11343  36.618   8.395   8.766
  685POPC   D2A11344  36.710   8.524   8.370
  685POPC   C3A11345  36.866   8.197   8.121
  685POPC   C4A11346  36.755   8.104   7.705
  685POPC   C1B11347  37.152   8.426   8.640
  685POPC   C2B11348  37.276   8.511   8.192
  685POPC   C3B11349  37.133   8.468   7.744
  685POPC   C4B11350  37.390   8.469   7.322
  686POPC   NC311351  37.091  16.719   9.358
  686POPC   PO411352  37.743  16.641   9.411
  686POPC   GL111353  37.531  16.643   9.050
  686POPC   GL211354  37.445  16.987   9.092
  686POPC   C1A11355  37.442  16.720   8.613
  686POPC   D2A11356  37.149  16.444   8.341
  686POPC   C3A11357  37.303  16.439   7.914
  686POPC   C4A11358  37.665  16.593   7.713
  686POPC   C1B11359  37.350  17.244   8.750
  686POPC   C2B11360  37.445  17.274   8.334
  686POPC   C3B11361  37.493  16.907   8.108
  686POPC   C4B11362  37.349  16.977   7.705
  687POPC   NC311363  12.500  44.829   9.375
  687POPC   PO411364  13.028  44.984   9.817
  687POPC   GL111365  13.004  44.827   9.334
  687POPC   GL211366  12.828  44.485   9.201
  687POPC   C1A11367  12.993  44.852   8.855
  687POPC   D2A11368  13.064  44.540   8.507
  687POPC   C3A11369  13.152  44.670   8.071
  687POPC   C4A11370  12.937  44.923   7.758
  687POPC   C1B11371  12.622  44.457   8.789
  687POPC   C2B11372  12.624  44.305   8.337
  687POPC   C3B11373  12.704  44.471   7.891
  687POPC   C4B11374  12.730  44.605   7.399
  688POPC   NC311375  34.455  13.714   9.580
  688POPC   PO411376  34.947  13.284   9.522
  688POPC   GL111377  34.716  13.473   9.176
  688POPC   GL211378  34.388  13.568   9.105
  688POPC   C1A11379  34.813  13.618   8.767
  688POPC   D2A11380  34.759  13.440   8.377
  688POPC   C3A11381  34.964  13.609   8.030
  688POPC   C4A11382  34.641  13.691   7.744
  688POPC   C1B11383  34.240  13.504   8.707
  688POPC   C2B11384  34.246  13.563   8.268
  688POPC   C3B11385  34.108  13.554   7.850
  688POPC   C4B11386  34.236  13.605   7.448
  689POPC   NC311387   6.413   1.152   9.399
  689POPC   PO411388   6.971   1.596   9.437
  689POPC   GL111389   6.769   1.350   9.060
  689POPC   GL211390   6.405   1.186   8.916
  689POPC   C1A11391   6.700   1.471   8.652
  689POPC   D2A11392   6.532   1.258   8.361
  689POPC   C3A11393   6.638   1.357   7.999
  689POPC   C4A11394   6.860   1.216   7.741
  689POPC   C1B11395   6.634   0.881   8.708
  689POPC   C2B11396   6.380   0.740   8.394
  689POPC   C3B11397   6.348   0.929   8.000
  689POPC   C4B11398   6.603   0.798   7.649
  690POPC   NC311399  41.391  31.836   9.703
  690POPC   PO411400  41.805  31.307   9.561
  690POPC   GL111401  41.739  31.484   9.170
  690POPC   GL211402  41.435  31.649   9.215
  690POPC   C1A11403  41.884  31.324   8.780
  690POPC   D2A11404  41.771  31.198   8.372
  690POPC   C3A11405  41.831  31.488   8.018
  690POPC   C4A11406  41.737  31.440   7.563
  690POPC   C1B11407  41.373  31.607   8.782
  690POPC   C2B11408  41.286  31.420   8.373
  690POPC   C3B11409  41.293  31.495   7.938
  690POPC   C4B11410  41.065  31.827   7.697
  691POPC   NC311411  25.979  28.848   9.235
  691POPC   PO411412  26.327  28.434   9.684
  691POPC   GL111413  26.274  28.406   9.211
  691POPC   GL211414  25.985  28.423   8.985
  691POPC   C1A11415  26.405  28.245   8.784
  691POPC   D2A11416  26.460  28.372   8.361
  691POPC   C3A11417  26.252  28.295   7.976
  691POPC   C4A11418  26.091  28.606   7.709
  691POPC   C1B11419  25.904  28.113   8.711
  691POPC   C2B11420  25.899  28.323   8.349
  691POPC   C3B11421  25.732  28.364   7.969
  691POPC   C4B11422  25.843  28.141   7.632
  692POPC   NC311423   3.737  43.349   9.326
  692POPC   PO411424   3.293  43.826   9.638
  692POPC   GL111425   3.418  43.954   9.186
  692POPC   GL211426   3.745  43.820   9.120
  692POPC   C1A11427   3.481  44.082   8.762
  692POPC   D2A11428   3.808  44.071   8.427
  692POPC   C3A11429   3.614  43.874   8.084
  692POPC   C4A11430   3.591  43.948   7.648
  692POPC   C1B11431   3.740  43.598   8.695
  692POPC   C2B11432   3.940  43.515   8.289
  692POPC   C3B11433   3.846  43.481   7.822
  692POPC   C4B11434   4.005  43.722   7.467
  693POPC   NC311435  20.416  22.493   9.438
  693POPC   PO411436  20.670  23.050   9.605
  693POPC   GL111437  20.532  22.941   9.203
  693POPC   GL211438  20.668  22.644   9.018
  693POPC   C1A11439  20.381  23.023   8.812
  693POPC   D2A11440  20.590  23.076   8.457
  693POPC   C3A11441  20.386  23.168   8.101
  693POPC   C4A11442  20.519  23.008   7.751
  693POPC   C1B11443  20.494  22.525   8.618
  693POPC   C2B11444  20.546  22.644   8.181
  693POPC   C3B11445  20.674  22.508   7.788
  693POPC   C4B11446  20.790  22.400   7.388
  694POPC   NC311447   3.261  20.139   9.370
  694POPC   PO411448   3.444  20.813   9.521
  694POPC   GL111449   3.466  20.624   9.145
  694POPC   GL211450   3.727  20.350   9.175
  694POPC   C1A11451   3.650  20.759   8.752
  694POPC   D2A11452   3.877  20.679   8.372
  694POPC   C3A11453   3.620  20.512   8.069
  694POPC   C4A11454   3.672  20.429   7.659
  694POPC   C1B11455   3.500  20.261   8.783
  694POPC   C2B11456   3.249  20.483   8.491
  694POPC   C3B11457   3.114  20.254   8.143
  694POPC   C4B11458   3.256  20.136   7.716
  695POPC   NC311459  28.160  35.226   9.594
  695POPC   PO411460  28.757  35.033   9.595
  695POPC   GL111461  28.475  35.173   9.189
  695POPC   GL211462  28.136  35.406   9.102
  695POPC   C1A11463  28.355  35.083   8.747
  695POPC   D2A11464  28.223  34.903   8.344
  695POPC   C3A11465  28.457  35.034   8.006
  695POPC   C4A11466  28.438  35.341   7.729
  695POPC   C1B11467  28.294  35.577   8.693
  695POPC   C2B11468  28.295  35.459   8.255
  695POPC   C3B11469  28.029  35.561   7.914
  695POPC   C4B11470  28.153  35.867   7.625
  696POPC   NC311471  15.488  24.862   9.951
  696POPC   PO411472  15.041  24.808   9.474
  696POPC   GL111473  14.958  25.200   9.222
  696POPC   GL211474  15.237  25.408   9.124
  696POPC   C1A11475  14.916  25.291   8.761
  696POPC   D2A11476  15.069  24.974   8.461
  696POPC   C3A11477  15.109  25.083   8.026
  696POPC   C4A11478  14.938  25.233   7.634
  696POPC   C1B11479  15.421  25.198   8.765
  696POPC   C2B11480  15.545  25.094   8.360
  696POPC   C3B11481  15.556  25.375   8.034
  696POPC   C4B11482  15.454  25.266   7.641
  697POPC   NC311483  10.041  12.739   9.484
  697POPC   PO411484   9.349  12.963   9.629
  697POPC   GL111485   9.543  12.836   9.197
  697POPC   GL211486   9.816  12.585   9.058
  697POPC   C1A11487   9.524  12.844   8.730
  697POPC   D2A11488   9.807  12.842   8.366
  697POPC   C3A11489   9.858  12.842   7.937
  697POPC   C4A11490  10.108  13.193   7.781
  697POPC   C1B11491  10.114  12.643   8.714
  697POPC   C2B11492  10.132  12.414   8.302
  697POPC   C3B11493  10.172  12.427   7.840
  697POPC   C4B11494   9.940  12.632   7.476
  698POPC   NC311495  19.507  13.283   9.291
  698POPC   PO411496  19.894  13.753   9.509
  698POPC   GL111497  19.760  13.695   9.143
  698POPC   GL211498  19.528  13.893   9.108
  698POPC   C1A11499  19.907  13.637   8.770
  698POPC   D2A11500  19.982  13.777   8.389
  698POPC   C3A11501  20.076  13.511   8.120
  698POPC   C4A11502  19.874  13.548   7.747
  698POPC   C1B11503  19.418  13.737   8.721
  698POPC   C2B11504  19.475  13.807   8.304
  698POPC   C3B11505  19.402  13.587   7.924
  698POPC   C4B11506  19.386  13.795   7.540
  699POPC   NC311507  38.286  12.644   9.460
  699POPC   PO411508  38.646  13.229   9.444
  699POPC   GL111509  38.508  12.953   9.104
  699POPC   GL211510  38.693  12.670   9.128
  699POPC   C1A11511  38.271  12.729   8.748
  699POPC   D2A11512  38.221  12.554   8.292
  699POPC   C3A11513  38.214  12.881   7.957
  699POPC   C4A11514  38.405  12.883   7.542
  699POPC   C1B11515  38.958  12.466   8.841
  699POPC   C2B11516  39.006  12.544   8.379
  699POPC   C3B11517  38.700  12.650   8.021
  699POPC   C4B11518  38.839  12.638   7.573
  700POPC   NC311519  34.268  27.781   9.545
  700POPC   PO411520  33.611  27.776   9.794
  700POPC   GL111521  33.619  27.818   9.311
  700POPC   GL211522  33.757  27.516   9.174
  700POPC   C1A11523  33.446  27.794   8.850
  700POPC   D2A11524  33.473  27.646   8.398
  700POPC   C3A11525  33.607  27.823   7.970
  700POPC   C4A11526  34.031  27.791   7.756
  700POPC   C1B11527  33.642  27.307   8.778
  700POPC   C2B11528  33.779  27.185   8.376
  700POPC   C3B11529  33.989  27.209   8.022
  700POPC   C4B11530  33.738  27.345   7.772
  701POPC   NC311531  18.488  43.500   9.492
  701POPC   PO411532  18.217  44.113   9.465
  701POPC   GL111533  18.249  43.802   9.140
  701POPC   GL211534  18.598  43.896   9.084
  701POPC   C1A11535  18.260  43.785   8.687
  701POPC   D2A11536  18.147  44.017   8.338
  701POPC   C3A11537  18.238  43.927   7.931
  701POPC   C4A11538  18.549  44.149   7.799
  701POPC   C1B11539  18.771  43.765   8.662
  701POPC   C2B11540  18.617  43.729   8.230
  701POPC   C3B11541  18.375  43.451   7.966
  701POPC   C4B11542  17.881  43.420   7.899
  702POPC   NC311543  34.072  30.171   9.351
  702POPC   PO411544  33.431  29.894   9.442
  702POPC   GL111545  33.693  29.808   9.115
  702POPC   GL211546  33.792  29.448   9.130
  702POPC   C1A11547  33.808  30.005   8.751
  702POPC   D2A11548  33.615  30.142   8.383
  702POPC   C3A11549  33.702  29.878   8.034
  702POPC   C4A11550  33.446  29.802   7.730
  702POPC   C1B11551  34.060  29.545   8.770
  702POPC   C2B11552  34.076  29.805   8.376
  702POPC   C3B11553  34.242  29.733   7.974
  702POPC   C4B11554  34.066  29.624   7.602
  703POPC   NC311555  18.538  23.357   9.487
  703POPC   PO411556  19.013  22.775   9.506
  703POPC   GL111557  19.083  22.879   9.114
  703POPC   GL211558  18.980  23.205   9.152
  703POPC   C1A11559  18.866  22.791   8.749
  703POPC   D2A11560  18.765  22.630   8.365
  703POPC   C3A11561  19.052  22.622   8.110
  703POPC   C4A11562  19.185  22.878   7.820
  703POPC   C1B11563  18.997  23.276   8.743
  703POPC   C2B11564  19.160  23.104   8.348
  703POPC   C3B11565  19.311  23.337   7.987
  703POPC   C4B11566  19.398  23.247   7.529
  704POPC   NC311567   0.142   6.122   9.478
  704POPC   PO411568   0.553   5.590   9.521
  704POPC   GL111569   0.431   5.806   9.156
  704POPC   GL211570   0.332   5.442   9.081
  704POPC   C1A11571   0.485   6.073   8.763
  704POPC   D2A11572   0.453   6.343   8.373
  704POPC   C3A11573   0.400   6.082   8.011
  704POPC   C4A11574   0.050   5.856   7.880
  704POPC   C1B11575   0.518   5.541   8.694
  704POPC   C2B11576   0.301   5.622   8.317
  704POPC   C3B11577   0.492   5.567   7.945
  704POPC   C4B11578   0.366   5.589   7.543
  705POPC   NC311579  28.566   9.125   9.441
  705POPC   PO411580  27.963   8.830   9.372
  705POPC   GL111581  28.199   8.981   9.061
  705POPC   GL211582  28.430   9.243   8.958
  705POPC   C1A11583  28.151   8.858   8.663
  705POPC   D2A11584  28.142   9.075   8.296
  705POPC   C3A11585  28.201   8.847   7.949
  705POPC   C4A11586  28.452   8.951   7.653
  705POPC   C1B11587  28.654   8.871   8.802
  705POPC   C2B11588  28.559   8.656   8.409
  705POPC   C3B11589  28.694   8.663   8.007
  705POPC   C4B11590  28.945   8.835   7.675
  706POPC   NC311591  30.922   5.658   9.510
  706POPC   PO411592  30.332   5.956   9.548
  706POPC   GL111593  30.577   5.866   9.187
  706POPC   GL211594  30.881   6.041   9.162
  706POPC   C1A11595  30.518   5.680   8.800
  706POPC   D2A11596  30.388   5.814   8.408
  706POPC   C3A11597  30.468   5.599   8.029
  706POPC   C4A11598  30.840   5.545   7.785
  706POPC   C1B11599  31.158   6.174   8.841
  706POPC   C2B11600  31.121   6.072   8.425
  706POPC   C3B11601  30.790   6.039   8.093
  706POPC   C4B11602  30.930   6.179   7.706
  707POPC   NC311603   9.964  40.955   9.373
  707POPC   PO411604   9.408  40.610   9.518
  707POPC   GL111605   9.507  40.814   9.151
  707POPC   GL211606   9.494  41.162   9.219
  707POPC   C1A11607   9.697  40.770   8.749
  707POPC   D2A11608   9.524  40.675   8.360
  707POPC   C3A11609   9.803  40.737   8.030
  707POPC   C4A11610   9.578  40.675   7.673
  707POPC   C1B11611   9.350  41.184   8.803
  707POPC   C2B11612   9.371  41.190   8.368
  707POPC   C3B11613   9.392  41.068   7.976
  707POPC   C4B11614   9.457  41.154   7.570
  708POPC   NC311615  10.724  21.682   9.499
  708POPC   PO411616  10.364  21.151   9.666
  708POPC   GL111617  10.382  21.370   9.266
  708POPC   GL211618  10.687  21.311   9.136
  708POPC   C1A11619  10.309  21.383   8.814
  708POPC   D2A11620  10.311  21.142   8.442
  708POPC   C3A11621  10.331  21.372   8.092
  708POPC   C4A11622  10.404  21.294   7.707
  708POPC   C1B11623  10.847  21.282   8.706
  708POPC   C2B11624  10.808  21.142   8.276
  708POPC   C3B11625  10.890  21.342   7.872
  708POPC   C4B11626  10.820  21.568   7.466
  709POPC   NC311627  44.834  44.915   9.651
  709POPC   PO411628  44.642  44.211   9.556
  709POPC   GL111629  44.820  44.487   9.233
  709POPC   GL211630  44.912  44.868   9.161
  709POPC   C1A11631  44.650  44.573   8.814
  709POPC   D2A11632  44.804  44.559   8.403
  709POPC   C3A11633  44.480  44.688   8.122
  709POPC   C4A11634  44.411  44.689   7.687
  709POPC   C1B11635  44.500   0.022   9.008
  709POPC   C2B11636  44.476  44.992   8.556
  709POPC   C3B11637  44.814   0.070   8.264
  709POPC   C4B11638  44.807  44.978   7.839
  710POPC   NC311639  29.707  28.277   9.613
  710POPC   PO411640  30.086  27.857   9.253
  710POPC   GL111641  30.018  28.264   9.093
  710POPC   GL211642  29.728  28.437   9.138
  710POPC   C1A11643  30.133  28.507   8.740
  710POPC   D2A11644  30.294  28.447   8.336
  710POPC   C3A11645  30.132  28.473   7.939
  710POPC   C4A11646  29.992  28.190   7.584
  710POPC   C1B11647  29.641  28.369   8.709
  710POPC   C2B11648  29.752  28.455   8.294
  710POPC   C3B11649  29.629  28.466   7.860
  710POPC   C4B11650  29.375  28.737   7.536
  711POPC   NC311651   1.147  11.132   9.822
  711POPC   PO411652   1.350  11.545   9.291
  711POPC   GL111653   1.275  11.356   8.899
  711POPC   GL211654   1.380  10.991   8.938
  711POPC   C1A11655   0.973  11.381   8.577
  711POPC   D2A11656   1.086  11.514   8.195
  711POPC   C3A11657   1.144  11.284   7.816
  711POPC   C4A11658   1.350  11.453   7.462
  711POPC   C1B11659   1.111  10.891   8.646
  711POPC   C2B11660   1.111  10.971   8.241
  711POPC   C3B11661   1.072  10.651   7.963
  711POPC   C4B11662   1.090  10.710   7.574
  712POPC   NC311663  23.342   3.646   9.717
  712POPC   PO411664  22.777   3.917   9.551
  712POPC   GL111665  22.863   3.783   9.162
  712POPC   GL211666  23.107   3.514   9.206
  712POPC   C1A11667  22.775   3.767   8.743
  712POPC   D2A11668  22.687   3.742   8.337
  712POPC   C3A11669  23.011   3.882   8.105
  712POPC   C4A11670  23.050   3.723   7.732
  712POPC   C1B11671  22.956   3.292   8.838
  712POPC   C2B11672  22.741   3.252   8.441
  712POPC   C3B11673  22.701   3.367   7.999
  712POPC   C4B11674  22.955   3.222   7.701
  713POPC   NC311675  11.526   3.209   9.443
  713POPC   PO411676  11.166   3.751   9.565
  713POPC   GL111677  11.157   3.507   9.204
  713POPC   GL211678  11.188   3.808   9.024
  713POPC   C1A11679  11.025   3.328   8.806
  713POPC   D2A11680  11.023   3.580   8.394
  713POPC   C3A11681  10.999   3.397   7.971
  713POPC   C4A11682  11.216   3.332   7.569
  713POPC   C1B11683  11.414   3.623   8.726
  713POPC   C2B11684  11.620   3.687   8.400
  713POPC   C3B11685  11.422   3.802   8.049
  713POPC   C4B11686  11.306   3.829   7.656
  714POPC   NC311687   4.934  22.100   9.670
  714POPC   PO411688   5.352  22.558   9.708
  714POPC   GL111689   5.103  22.390   9.283
  714POPC   GL211690   5.227  21.993   9.211
  714POPC   C1A11691   4.878  22.162   8.906
  714POPC   D2A11692   4.840  22.065   8.453
  714POPC   C3A11693   4.895  22.323   8.061
  714POPC   C4A11694   5.031  22.432   7.634
  714POPC   C1B11695   5.383  22.092   8.743
  714POPC   C2B11696   5.323  21.995   8.294
  714POPC   C3B11697   5.266  22.027   7.836
  714POPC   C4B11698   5.411  21.914   7.429
  715POPC   NC311699  44.641   4.589   9.326
  715POPC   PO411700  44.782   5.285   9.511
  715POPC   GL111701  44.644   5.100   9.168
  715POPC   GL211702  44.968   4.918   9.111
  715POPC   C1A11703  44.669   5.119   8.727
  715POPC   D2A11704  44.975   5.102   8.418
  715POPC   C3A11705  44.771   4.937   8.062
  715POPC   C4A11706  44.566   5.199   7.761
  715POPC   C1B11707  44.971   4.666   8.711
  715POPC   C2B11708   0.055   4.505   8.271
  715POPC   C3B11709   0.114   4.620   7.842
  715POPC   C4B11710  44.784   4.790   7.556
  716POPC   NC311711  22.027  40.626   9.564
  716POPC   PO411712  22.610  40.932   9.505
  716POPC   GL111713  22.395  40.725   9.200
  716POPC   GL211714  22.090  40.960   9.201
  716POPC   C1A11715  22.343  40.825   8.781
  716POPC   D2A11716  22.409  41.018   8.433
  716POPC   C3A11717  22.455  40.724   8.084
  716POPC   C4A11718  22.360  40.632   7.676
  716POPC   C1B11719  21.846  40.854   8.847
  716POPC   C2B11720  22.002  40.708   8.401
  716POPC   C3B11721  21.973  40.831   7.985
  716POPC   C4B11722  21.864  41.058   7.675
  717POPC   NC311723  34.356   1.517   9.393
  717POPC   PO411724  34.837   1.116   9.552
  717POPC   GL111725  34.653   1.108   9.159
  717POPC   GL211726  34.596   1.422   8.965
  717POPC   C1A11727  34.547   0.958   8.772
  717POPC   D2A11728  34.372   1.174   8.442
  717POPC   C3A11729  34.404   0.967   8.059
  717POPC   C4A11730  34.283   1.056   7.635
  717POPC   C1B11731  34.740   1.570   8.579
  717POPC   C2B11732  34.736   1.467   8.154
  717POPC   C3B11733  34.604   1.412   7.779
  717POPC   C4B11734  34.669   1.329   7.360
  718POPC   NC311735  35.344   7.640   9.621
  718POPC   PO411736  35.375   6.903   9.615
  718POPC   GL111737  35.402   7.258   9.250
  718POPC   GL211738  35.501   7.642   9.148
  718POPC   C1A11739  35.371   7.315   8.785
  718POPC   D2A11740  35.401   7.043   8.430
  718POPC   C3A11741  35.300   7.249   8.079
  718POPC   C4A11742  35.525   7.443   7.790
  718POPC   C1B11743  35.607   7.814   8.748
  718POPC   C2B11744  35.526   7.653   8.328
  718POPC   C3B11745  35.651   7.916   7.997
  718POPC   C4B11746  35.806   7.815   7.613
  719POPC   NC311747  24.223  39.432   9.316
  719POPC   PO411748  23.523  39.415   9.393
  719POPC   GL111749  23.777  39.482   9.082
  719POPC   GL211750  23.906  39.141   9.023
  719POPC   C1A11751  23.659  39.576   8.681
  719POPC   D2A11752  23.735  39.319   8.342
  719POPC   C3A11753  23.430  39.350   8.022
  719POPC   C4A11754  23.199  38.993   7.893
  719POPC   C1B11755  24.206  39.092   8.690
  719POPC   C2B11756  24.151  38.982   8.263
  719POPC   C3B11757  23.829  39.005   7.951
  719POPC   C4B11758  23.891  39.426   7.798
  720POPC   NC311759  10.061  15.248   9.800
  720POPC   PO411760  10.500  15.002   9.319
  720POPC   GL111761  10.344  15.210   9.029
  720POPC   GL211762  10.067  15.406   9.153
  720POPC   C1A11763  10.376  15.153   8.579
  720POPC   D2A11764  10.254  15.067   8.190
  720POPC   C3A11765  10.631  14.970   8.058
  720POPC   C4A11766  10.707  14.913   7.682
  720POPC   C1B11767  10.244  15.607   8.743
  720POPC   C2B11768  10.463  15.635   8.345
  720POPC   C3B11769  10.522  15.463   7.939
  720POPC   C4B11770  10.211  15.280   7.729
  721POPC   NC311771  22.416  42.921   9.487
  721POPC   PO411772  21.856  43.308   9.558
  721POPC   GL111773  22.086  43.252   9.204
  721POPC   GL211774  22.006  42.924   9.108
  721POPC   C1A11775  22.221  43.245   8.780
  721POPC   D2A11776  22.250  43.396   8.384
  721POPC   C3A11777  22.131  43.114   8.070
  721POPC   C4A11778  22.005  43.250   7.691
  721POPC   C1B11779  21.774  42.916   8.723
  721POPC   C2B11780  21.817  42.772   8.316
  721POPC   C3B11781  21.673  42.894   7.915
  721POPC   C4B11782  21.647  42.749   7.496
  722POPC   NC311783  20.162  13.356   9.508
  722POPC   PO411784  20.778  13.297   9.538
  722POPC   GL111785  20.508  13.448   9.138
  722POPC   GL211786  20.273  13.744   9.131
  722POPC   C1A11787  20.382  13.485   8.676
  722POPC   D2A11788  20.504  13.726   8.295
  722POPC   C3A11789  20.567  13.477   7.917
  722POPC   C4A11790  20.619  13.272   7.510
  722POPC   C1B11791  20.310  13.996   8.720
  722POPC   C2B11792  20.264  14.186   8.288
  722POPC   C3B11793  20.183  13.956   7.908
  722POPC   C4B11794  20.310  13.705   7.546
  723POPC   NC311795   4.311  27.309   9.633
  723POPC   PO411796   3.915  27.797   9.710
  723POPC   GL111797   4.043  27.539   9.249
  723POPC   GL211798   4.414  27.438   9.151
  723POPC   C1A11799   4.163  27.680   8.810
  723POPC   D2A11800   4.400  27.620   8.456
  723POPC   C3A11801   4.263  27.578   8.045
  723POPC   C4A11802   4.439  27.783   7.689
  723POPC   C1B11803   4.534  27.209   8.731
  723POPC   C2B11804   4.462  27.153   8.256
  723POPC   C3B11805   4.561  27.260   7.803
  723POPC   C4B11806   4.177  27.319   7.509
  724POPC   NC311807  20.819  31.536   9.503
  724POPC   PO411808  21.525  31.514   9.442
  724POPC   GL111809  21.227  31.481   9.123
  724POPC   GL211810  21.426  31.224   9.000
  724POPC   C1A11811  21.312  31.682   8.723
  724POPC   D2A11812  21.061  31.873   8.430
  724POPC   C3A11813  21.064  31.788   7.988
  724POPC   C4A11814  21.194  31.476   7.733
  724POPC   C1B11815  21.224  31.184   8.623
  724POPC   C2B11816  21.370  31.416   8.252
  724POPC   C3B11817  21.596  31.251   7.901
  724POPC   C4B11818  21.404  30.976   7.622
  725POPC   NC311819  29.306  39.584   9.563
  725POPC   PO411820  28.968  39.059   9.371
  725POPC   GL111821  29.007  39.429   9.126
  725POPC   GL211822  29.359  39.468   9.066
  725POPC   C1A11823  28.932  39.279   8.712
  725POPC   D2A11824  29.027  38.847   8.471
  725POPC   C3A11825  28.966  38.917   8.014
  725POPC   C4A11826  28.931  39.286   7.742
  725POPC   C1B11827  29.392  39.088   8.794
  725POPC   C2B11828  29.335  39.232   8.375
  725POPC   C3B11829  29.391  39.269   7.966
  725POPC   C4B11830  29.369  39.006   7.640
  726POPC   NC311831  22.470  33.911   9.583
  726POPC   PO411832  21.853  33.614   9.556
  726POPC   GL111833  22.000  33.832   9.175
  726POPC   GL211834  22.249  34.100   9.142
  726POPC   C1A11835  22.157  33.818   8.743
  726POPC   D2A11836  22.077  33.789   8.341
  726POPC   C3A11837  22.278  33.812   8.003
  726POPC   C4A11838  22.068  33.973   7.648
  726POPC   C1B11839  22.577  34.100   8.802
  726POPC   C2B11840  22.620  33.960   8.356
  726POPC   C3B11841  22.585  34.180   7.917
  726POPC   C4B11842  22.554  33.938   7.535
  727POPC   NC311843  44.042   8.515   9.459
  727POPC   PO411844  43.510   8.930   9.568
  727POPC   GL111845  43.852   8.978   9.250
  727POPC   GL211846  44.001   8.734   9.013
  727POPC   C1A11847  43.928   9.225   8.867
  727POPC   D2A11848  44.173   9.295   8.494
  727POPC   C3A11849  44.032   9.312   8.070
  727POPC   C4A11850  44.086   9.105   7.661
  727POPC   C1B11851  44.045   8.785   8.583
  727POPC   C2B11852  43.743   8.931   8.284
  727POPC   C3B11853  43.652   8.849   7.854
  727POPC   C4B11854  43.707   8.801   7.412
  728POPC   NC311855  28.412   3.876   9.362
  728POPC   PO411856  28.577   3.216   9.465
  728POPC   GL111857  28.336   3.424   9.095
  728POPC   GL211858  28.474   3.695   8.887
  728POPC   C1A11859  28.262   3.304   8.660
  728POPC   D2A11860  28.634   3.357   8.402
  728POPC   C3A11861  28.542   3.353   7.975
  728POPC   C4A11862  28.227   3.372   7.674
  728POPC   C1B11863  28.042   3.809   8.794
  728POPC   C2B11864  27.962   3.825   8.377
  728POPC   C3B11865  28.224   3.740   8.055
  728POPC   C4B11866  28.126   3.863   7.656
  729POPC   NC311867  35.714  43.420   9.572
  729POPC   PO411868  35.293  42.877   9.658
  729POPC   GL111869  35.247  43.146   9.282
  729POPC   GL211870  35.569  43.051   9.172
  729POPC   C1A11871  35.206  43.104   8.809
  729POPC   D2A11872  35.272  43.281   8.382
  729POPC   C3A11873  35.127  43.064   8.001
  729POPC   C4A11874  35.202  42.668   7.799
  729POPC   C1B11875  35.689  43.244   8.773
  729POPC   C2B11876  35.791  43.216   8.358
  729POPC   C3B11877  35.604  43.229   7.938
  729POPC   C4B11878  35.599  42.917   7.599
  730POPC   NC311879  20.142  28.102   9.599
  730POPC   PO411880  20.090  28.694   9.465
  730POPC   GL111881  19.977  28.481   9.138
  730POPC   GL211882  19.785  28.187   9.214
  730POPC   C1A11883  20.154  28.419   8.751
  730POPC   D2A11884  19.939  28.466   8.389
  730POPC   C3A11885  20.106  28.405   8.015
  730POPC   C4A11886  20.173  28.466   7.607
  730POPC   C1B11887  19.650  28.279   8.789
  730POPC   C2B11888  19.544  28.131   8.396
  730POPC   C3B11889  19.589  28.366   8.029
  730POPC   C4B11890  19.744  28.164   7.679
  731POPC   NC311891   0.873  20.452   9.540
  731POPC   PO411892   1.534  20.452   9.459
  731POPC   GL111893   1.422  20.791   9.169
  731POPC   GL211894   1.056  20.871   9.250
  731POPC   C1A11895   1.494  20.800   8.701
  731POPC   D2A11896   1.188  20.703   8.340
  731POPC   C3A11897   1.338  20.683   7.922
  731POPC   C4A11898   1.428  20.521   7.480
  731POPC   C1B11899   1.009  20.776   8.829
  731POPC   C2B11900   0.714  20.708   8.517
  731POPC   C3B11901   0.780  20.411   8.173
  731POPC   C4B11902   0.857  20.581   7.783
  732POPC   NC311903  26.160  40.472   9.410
  732POPC   PO411904  25.705  40.958   9.526
  732POPC   GL111905  25.998  40.928   9.156
  732POPC   GL211906  25.934  40.602   8.978
  732POPC   C1A11907  26.136  40.971   8.719
  732POPC   D2A11908  25.925  40.842   8.372
  732POPC   C3A11909  26.090  40.945   7.997
  732POPC   C4A11910  26.342  41.064   7.668
  732POPC   C1B11911  26.135  40.448   8.622
  732POPC   C2B11912  26.403  40.562   8.305
  732POPC   C3B11913  26.444  40.608   7.923
  732POPC   C4B11914  26.156  40.600   7.602
  733POPC   NC311915  40.199  23.162   9.541
  733POPC   PO411916  40.892  23.298   9.662
  733POPC   GL111917  40.742  23.063   9.241
  733POPC   GL211918  40.410  23.059   9.089
  733POPC   C1A11919  40.837  22.976   8.767
  733POPC   D2A11920  41.076  23.094   8.377
  733POPC   C3A11921  40.932  22.934   7.971
  733POPC   C4A11922  40.700  22.560   7.802
  733POPC   C1B11923  40.302  22.840   8.719
  733POPC   C2B11924  40.561  22.867   8.363
  733POPC   C3B11925  40.620  23.273   8.216
  733POPC   C4B11926  40.407  23.242   7.844
  734POPC   NC311927  16.168  24.356   9.420
  734POPC   PO411928  15.893  24.964   9.537
  734POPC   GL111929  15.866  24.705   9.129
  734POPC   GL211930  16.056  24.428   8.939
  734POPC   C1A11931  15.670  24.691   8.719
  734POPC   D2A11932  15.901  24.724   8.343
  734POPC   C3A11933  15.808  24.542   7.935
  734POPC   C4A11934  15.605  24.667   7.543
  734POPC   C1B11935  16.284  24.419   8.548
  734POPC   C2B11936  16.168  24.242   8.151
  734POPC   C3B11937  16.182  24.173   7.707
  734POPC   C4B11938  16.297  24.126   7.252
  735POPC   NC311939  36.796  18.351   9.548
  735POPC   PO411940  36.823  17.704   9.330
  735POPC   GL111941  36.709  18.013   9.074
  735POPC   GL211942  37.002  18.212   9.081
  735POPC   C1A11943  36.761  18.191   8.648
  735POPC   D2A11944  36.948  18.246   8.262
  735POPC   C3A11945  36.737  18.285   7.886
  735POPC   C4A11946  36.755  17.917   7.681
  735POPC   C1B11947  37.183  18.503   8.764
  735POPC   C2B11948  37.250  18.677   8.341
  735POPC   C3B11949  37.207  18.517   7.913
  735POPC   C4B11950  36.963  18.626   7.527
  736POPC   NC311951  41.183   4.719   9.495
  736POPC   PO411952  41.121   4.028   9.365
  736POPC   GL111953  41.391   4.138   9.017
  736POPC   GL211954  41.776   4.137   9.078
  736POPC   C1A11955  41.420   4.090   8.576
  736POPC   D2A11956  41.587   4.387   8.261
  736POPC   C3A11957  41.408   4.383   7.857
  736POPC   C4A11958  41.677   4.491   7.542
  736POPC   C1B11959  41.904   4.230   8.654
  736POPC   C2B11960  41.965   4.021   8.257
  736POPC   C3B11961  41.835   4.084   7.839
  736POPC   C4B11962  41.845   4.030   7.391
  737POPC   NC311963  27.045  35.946   9.486
  737POPC   PO411964  26.348  36.038   9.481
  737POPC   GL111965  26.647  35.890   9.162
  737POPC   GL211966  26.803  36.200   9.119
  737POPC   C1A11967  26.942  35.830   8.785
  737POPC   D2A11968  27.066  35.840   8.313
  737POPC   C3A11969  26.851  36.093   7.967
  737POPC   C4A11970  26.737  35.992   7.515
  737POPC   C1B11971  26.939  36.329   8.711
  737POPC   C2B11972  26.621  36.260   8.399
  737POPC   C3B11973  26.425  36.406   8.031
  737POPC   C4B11974  26.671  36.476   7.659
  738POPC   NC311975   1.843  23.308   9.529
  738POPC   PO411976   2.362  22.931   9.582
  738POPC   GL111977   2.118  23.044   9.176
  738POPC   GL211978   1.752  22.930   9.179
  738POPC   C1A11979   2.014  22.936   8.736
  738POPC   D2A11980   2.112  22.703   8.331
  738POPC   C3A11981   2.445  22.785   8.023
  738POPC   C4A11982   2.258  23.007   7.688
  738POPC   C1B11983   1.601  22.658   8.798
  738POPC   C2B11984   1.621  22.852   8.378
  738POPC   C3B11985   1.732  22.720   7.960
  738POPC   C4B11986   1.708  22.972   7.608
  739POPC   NC311987  39.863   1.529   9.452
  739POPC   PO411988  40.323   1.118   9.484
  739POPC   GL111989  40.088   1.180   9.153
  739POPC   GL211990  39.804   0.995   9.228
  739POPC   C1A11991  40.106   1.295   8.737
  739POPC   D2A11992  40.311   1.097   8.403
  739POPC   C3A11993  40.227   1.299   8.006
  739POPC   C4A11994  39.789   1.459   7.868
  739POPC   C1B11995  39.608   1.145   8.832
  739POPC   C2B11996  39.672   1.268   8.409
  739POPC   C3B11997  39.847   0.994   8.111
  739POPC   C4B11998  39.745   0.961   7.707
  740POPC   NC311999  26.042  38.983   9.379
  740POPC   PO412000  26.371  39.570   9.378
  740POPC   GL112001  26.203  39.323   9.003
  740POPC   GL212002  26.330  38.968   8.972
  740POPC   C1A12003  25.851  39.263   8.650
  740POPC   D2A12004  25.593  39.009   8.327
  740POPC   C3A12005  25.715  38.996   7.925
  740POPC   C4A12006  25.798  39.398   7.788
  740POPC   C1B12007  26.264  38.985   8.549
  740POPC   C2B12008  26.124  39.240   8.188
  740POPC   C3B12009  26.275  39.157   7.758
  740POPC   C4B12010  26.553  39.290   7.366
  741POPC   NC312011   1.007  34.137   9.377
  741POPC   PO412012   1.560  34.026   9.668
  741POPC   GL112013   1.358  33.761   9.267
  741POPC   GL212014   1.007  33.645   9.239
  741POPC   C1A12015   1.505  33.656   8.824
  741POPC   D2A12016   1.373  33.604   8.381
  741POPC   C3A12017   1.250  33.989   8.156
  741POPC   C4A12018   1.212  34.073   7.715
  741POPC   C1B12019   0.986  33.594   8.793
  741POPC   C2B12020   0.813  33.704   8.376
  741POPC   C3B12021   0.853  33.727   7.949
  741POPC   C4B12022   1.244  33.562   7.837
  742POPC   NC312023   6.513   2.749   9.503
  742POPC   PO412024   7.110   2.586   9.417
  742POPC   GL112025   6.768   2.541   9.108
  742POPC   GL212026   6.627   2.894   9.031
  742POPC   C1A12027   6.561   2.528   8.702
  742POPC   D2A12028   6.334   2.547   8.280
  742POPC   C3A12029   6.572   2.585   7.892
  742POPC   C4A12030   6.678   2.909   7.581
  742POPC   C1B12031   6.608   3.031   8.578
  742POPC   C2B12032   6.531   3.054   8.103
  742POPC   C3B12033   6.308   3.225   7.722
  742POPC   C4B12034   6.319   3.090   7.263
  743POPC   NC312035  13.228  28.944   9.383
  743POPC   PO412036  12.708  29.414   9.542
  743POPC   GL112037  12.798  29.541   9.157
  743POPC   GL212038  12.949  29.222   9.054
  743POPC   C1A12039  12.657  29.451   8.720
  743POPC   D2A12040  12.784  29.165   8.375
  743POPC   C3A12041  12.743  29.207   7.945
  743POPC   C4A12042  12.694  29.460   7.569
  743POPC   C1B12043  13.118  28.949   8.716
  743POPC   C2B12044  13.131  28.786   8.282
  743POPC   C3B12045  13.042  28.731   7.846
  743POPC   C4B12046  12.773  28.929   7.507
  744POPC   NC312047  24.095  32.125   9.494
  744POPC   PO412048  24.554  32.636   9.471
  744POPC   GL112049  24.554  32.235   9.231
  744POPC   GL212050  24.271  32.022   9.050
  744POPC   C1A12051  24.745  32.085   8.862
  744POPC   D2A12052  24.887  32.064   8.396
  744POPC   C3A12053  24.634  32.163   8.022
  744POPC   C4A12054  24.655  32.378   7.633
  744POPC   C1B12055  24.334  31.971   8.625
  744POPC   C2B12056  24.211  32.135   8.313
  744POPC   C3B12057  23.995  32.026   7.999
  744POPC   C4B12058  24.157  32.078   7.636
  745POPC   NC312059  26.564  10.164   9.678
  745POPC   PO412060  26.818  10.814   9.528
  745POPC   GL112061  26.862  10.712   9.143
  745POPC   GL212062  27.053  10.451   9.218
  745POPC   C1A12063  26.619  10.655   8.800
  745POPC   D2A12064  26.721  10.693   8.412
  745POPC   C3A12065  26.386  10.574   8.179
  745POPC   C4A12066  26.653  10.581   7.815
  745POPC   C1B12067  26.969  10.299   8.827
  745POPC   C2B12068  27.103  10.303   8.389
  745POPC   C3B12069  27.063  10.184   7.959
  745POPC   C4B12070  27.113  10.437   7.590
  746POPC   NC312071  28.817  32.282   9.345
  746POPC   PO412072  29.250  31.843   9.433
  746POPC   GL112073  29.162  32.035   9.068
  746POPC   GL212074  29.270  32.374   9.145
  746POPC   C1A12075  28.963  32.211   8.716
  746POPC   D2A12076  29.130  32.269   8.344
  746POPC   C3A12077  28.974  31.964   8.069
  746POPC   C4A12078  28.833  31.910   7.656
  746POPC   C1B12079  29.333  32.557   8.742
  746POPC   C2B12080  29.578  32.620   8.376
  746POPC   C3B12081  29.252  32.694   8.086
  746POPC   C4B12082  29.068  32.386   7.799
  747POPC   NC312083  11.707  10.107   9.535
  747POPC   PO412084  11.430   9.424   9.492
  747POPC   GL112085  11.291   9.561   9.109
  747POPC   GL212086  11.470   9.819   9.030
  747POPC   C1A12087  11.091   9.662   8.719
  747POPC   D2A12088  10.957   9.591   8.297
  747POPC   C3A12089  10.939   9.893   7.955
  747POPC   C4A12090  11.016   9.922   7.476
  747POPC   C1B12091  11.678   9.601   8.733
  747POPC   C2B12092  11.747   9.430   8.353
  747POPC   C3B12093  11.437   9.452   8.069
  747POPC   C4B12094  11.433   9.835   7.847
  748POPC   NC312095  29.582   2.350   9.424
  748POPC   PO412096  29.624   1.658   9.500
  748POPC   GL112097  29.822   1.838   9.143
  748POPC   GL212098  30.122   1.672   9.048
  748POPC   C1A12099  29.938   2.194   8.859
  748POPC   D2A12100  30.106   2.284   8.463
  748POPC   C3A12101  29.946   2.030   8.147
  748POPC   C4A12102  29.995   2.091   7.742
  748POPC   C1B12103  29.981   1.762   8.621
  748POPC   C2B12104  29.915   1.540   8.286
  748POPC   C3B12105  30.202   1.600   7.943
  748POPC   C4B12106  30.244   1.727   7.502
  749POPC   NC312107  36.398  25.014   9.541
  749POPC   PO412108  36.092  25.595   9.636
  749POPC   GL112109  36.009  25.276   9.330
  749POPC   GL212110  35.966  25.476   9.099
  749POPC   C1A12111  36.090  25.039   8.917
  749POPC   D2A12112  36.272  25.097   8.510
  749POPC   C3A12113  36.110  25.155   8.099
  749POPC   C4A12114  36.159  25.083   7.668
  749POPC   C1B12115  35.814  25.422   8.698
  749POPC   C2B12116  35.629  25.659   8.395
  749POPC   C3B12117  35.830  25.567   8.020
  749POPC   C4B12118  35.687  25.594   7.575
  750POPC   NC312119  42.038  39.724   9.500
  750POPC   PO412120  42.351  40.399   9.433
  750POPC   GL112121  42.437  40.118   9.058
  750POPC   GL212122  42.666  39.827   9.049
  750POPC   C1A12123  42.477  40.041   8.600
  750POPC   D2A12124  42.343  40.085   8.185
  750POPC   C3A12125  42.165  40.079   7.760
  750POPC   C4A12126  42.219  39.794   7.395
  750POPC   C1B12127  42.896  39.724   8.670
  750POPC   C2B12128  42.810  39.707   8.227
  750POPC   C3B12129  42.572  39.791   7.833
  750POPC   C4B12130  42.618  40.102   7.476
  751POPC   NC312131  14.970  27.708   9.669
  751POPC   PO412132  15.611  27.732   9.861
  751POPC   GL112133  15.341  27.775   9.330
  751POPC   GL212134  15.122  27.495   9.228
  751POPC   C1A12135  15.087  27.776   8.832
  751POPC   D2A12136  15.042  27.557   8.390
  751POPC   C3A12137  14.990  27.600   7.906
  751POPC   C4A12138  15.119  27.857   7.535
  751POPC   C1B12139  15.312  27.312   8.837
  751POPC   C2B12140  15.393  27.185   8.413
  751POPC   C3B12141  15.462  27.437   8.032
  751POPC   C4B12142  15.624  27.256   7.660
  752POPC   NC312143   8.545  37.880   9.601
  752POPC   PO412144   8.206  37.258   9.495
  752POPC   GL112145   8.209  37.601   9.178
  752POPC   GL212146   8.556  37.564   9.150
  752POPC   C1A12147   8.117  37.811   8.738
  752POPC   D2A12148   8.266  37.959   8.297
  752POPC   C3A12149   8.025  37.760   7.956
  752POPC   C4A12150   7.755  37.425   7.818
  752POPC   C1B12151   8.412  37.410   8.743
  752POPC   C2B12152   8.523  37.535   8.356
  752POPC   C3B12153   8.584  37.687   7.920
  752POPC   C4B12154   8.626  37.513   7.504
  753POPC   NC312155  30.843  28.691   9.554
  753POPC   PO412156  30.820  29.261   9.398
  753POPC   GL112157  30.906  28.935   9.100
  753POPC   GL212158  30.572  28.787   9.131
  753POPC   C1A12159  30.894  29.073   8.688
  753POPC   D2A12160  30.604  29.352   8.432
  753POPC   C3A12161  30.794  29.233   8.032
  753POPC   C4A12162  30.886  29.362   7.643
  753POPC   C1B12163  30.407  28.935   8.735
  753POPC   C2B12164  30.572  28.859   8.319
  753POPC   C3B12165  30.349  28.999   7.966
  753POPC   C4B12166  30.214  29.017   7.564
  754POPC   NC312167  36.458  26.229   9.444
  754POPC   PO412168  36.073  26.939   9.411
  754POPC   GL112169  36.328  26.872   9.067
  754POPC   GL212170  36.275  26.532   9.091
  754POPC   C1A12171  36.200  26.779   8.634
  754POPC   D2A12172  35.897  26.735   8.314
  754POPC   C3A12173  36.072  26.824   7.889
  754POPC   C4A12174  35.902  27.006   7.509
  754POPC   C1B12175  36.392  26.299   8.709
  754POPC   C2B12176  36.544  26.491   8.309
  754POPC   C3B12177  36.531  26.567   7.854
  754POPC   C4B12178  36.271  26.615   7.452
  755POPC   NC312179  13.173  34.627   9.461
  755POPC   PO412180  12.515  34.850   9.473
  755POPC   GL112181  12.730  34.676   9.146
  755POPC   GL212182  12.785  34.340   9.218
  755POPC   C1A12183  12.937  34.751   8.765
  755POPC   D2A12184  13.138  34.603   8.369
  755POPC   C3A12185  13.092  34.819   7.991
  755POPC   C4A12186  12.841  34.685   7.682
  755POPC   C1B12187  13.001  34.246   8.810
  755POPC   C2B12188  12.913  34.111   8.403
  755POPC   C3B12189  12.908  34.245   7.967
  755POPC   C4B12190  12.935  34.191   7.508
  756POPC   NC312191  26.225   1.677   9.351
  756POPC   PO412192  25.897   2.244   9.472
  756POPC   GL112193  26.033   2.187   9.062
  756POPC   GL212194  26.333   2.304   8.987
  756POPC   C1A12195  26.054   2.163   8.600
  756POPC   D2A12196  25.853   1.945   8.343
  756POPC   C3A12197  25.861   2.161   8.025
  756POPC   C4A12198  25.832   1.927   7.689
  756POPC   C1B12199  26.448   1.895   8.777
  756POPC   C2B12200  26.312   1.730   8.376
  756POPC   C3B12201  26.331   1.945   7.968
  756POPC   C4B12202  26.556   1.957   7.565
  757POPC   NC312203  11.182  16.826   9.423
  757POPC   PO412204  11.642  16.346   9.399
  757POPC   GL112205  11.342  16.408   9.085
  757POPC   GL212206  10.989  16.414   9.203
  757POPC   C1A12207  11.251  16.748   8.791
  757POPC   D2A12208  11.086  16.882   8.419
  757POPC   C3A12209  11.348  16.774   8.111
  757POPC   C4A12210  11.148  16.828   7.755
  757POPC   C1B12211  10.911  16.342   8.772
  757POPC   C2B12212  10.777  16.434   8.347
  757POPC   C3B12213  11.042  16.335   7.983
  757POPC   C4B12214  11.091  16.386   7.545
  758POPC   NC312215  27.895  27.638   9.726
  758POPC   PO412216  27.445  27.426   9.157
  758POPC   GL112217  27.575  27.695   8.957
  758POPC   GL212218  27.561  27.925   9.249
  758POPC   C1A12219  27.600  27.565   8.523
  758POPC   D2A12220  27.393  27.450   8.179
  758POPC   C3A12221  27.602  27.552   7.818
  758POPC   C4A12222  27.373  27.785   7.507
  758POPC   C1B12223  27.435  28.150   8.856
  758POPC   C2B12224  27.450  28.060   8.418
  758POPC   C3B12225  27.790  27.912   8.165
  758POPC   C4B12226  27.771  28.086   7.748
  759POPC   NC312227   4.477  10.507   9.495
  759POPC   PO412228   3.912  10.914   9.672
  759POPC   GL112229   4.075  10.690   9.222
  759POPC   GL212230   4.403  10.790   9.014
  759POPC   C1A12231   4.200  10.393   8.825
  759POPC   D2A12232   4.426  10.253   8.443
  759POPC   C3A12233   4.344  10.472   8.049
  759POPC   C4A12234   4.412  10.398   7.602
  759POPC   C1B12235   4.619  10.687   8.628
  759POPC   C2B12236   4.732  10.840   8.199
  759POPC   C3B12237   4.626  10.831   7.763
  759POPC   C4B12238   4.619  10.823   7.298
  760POPC   NC312239  19.611  26.530   9.583
  760POPC   PO412240  19.961  27.044   9.776
  760POPC   GL112241  19.888  26.937   9.312
  760POPC   GL212242  19.569  26.908   9.182
  760POPC   C1A12243  19.951  26.868   8.831
  760POPC   D2A12244  19.950  26.568   8.459
  760POPC   C3A12245  20.067  26.774   8.053
  760POPC   C4A12246  19.896  26.796   7.642
  760POPC   C1B12247  19.504  27.119   8.767
  760POPC   C2B12248  19.650  26.963   8.386
  760POPC   C3B12249  19.558  27.039   7.976
  760POPC   C4B12250  19.561  27.163   7.551
  761POPC   NC312251  16.609   4.853   9.439
  761POPC   PO412252  16.370   5.501   9.401
  761POPC   GL112253  16.620   5.244   9.099
  761POPC   GL212254  16.618   4.882   8.943
  761POPC   C1A12255  16.699   5.321   8.704
  761POPC   D2A12256  16.653   5.076   8.348
  761POPC   C3A12257  16.731   5.290   7.964
  761POPC   C4A12258  16.719   5.139   7.548
  761POPC   C1B12259  16.990   4.772   8.706
  761POPC   C2B12260  17.138   4.870   8.271
  761POPC   C3B12261  17.018   4.859   7.824
  761POPC   C4B12262  17.073   4.853   7.321
  762POPC   NC312263  36.328  24.223   9.321
  762POPC   PO412264  35.890  24.615   9.692
  762POPC   GL112265  35.931  24.571   9.210
  762POPC   GL212266  35.889  24.221   9.055
  762POPC   C1A12267  36.087  24.566   8.748
  762POPC   D2A12268  36.003  24.704   8.347
  762POPC   C3A12269  36.295  24.681   8.051
  762POPC   C4A12270  36.110  24.576   7.691
  762POPC   C1B12271  36.139  24.047   8.731
  762POPC   C2B12272  36.244  24.224   8.356
  762POPC   C3B12273  35.935  24.273   8.064
  762POPC   C4B12274  35.841  24.027   7.721
  763POPC   NC312275   1.010  16.085   9.466
  763POPC   PO412276   1.481  15.556   9.458
  763POPC   GL112277   1.391  15.925   9.174
  763POPC   GL212278   1.661  16.138   9.033
  763POPC   C1A12279   1.177  16.116   8.806
  763POPC   D2A12280   0.966  16.029   8.414
  763POPC   C3A12281   1.190  16.167   8.045
  763POPC   C4A12282   1.096  16.067   7.638
  763POPC   C1B12283   1.572  15.778   8.730
  763POPC   C2B12284   1.405  15.771   8.316
  763POPC   C3B12285   1.533  15.818   7.901
  763POPC   C4B12286   1.537  15.864   7.480
  764POPC   NC312287  37.699   0.904   9.419
  764POPC   PO412288  37.674   1.603   9.508
  764POPC   GL112289  37.639   1.343   9.159
  764POPC   GL212290  37.998   1.278   9.141
  764POPC   C1A12291  37.657   1.074   8.771
  764POPC   D2A12292  37.562   1.005   8.354
  764POPC   C3A12293  37.903   0.967   8.064
  764POPC   C4A12294  37.999   1.161   7.676
  764POPC   C1B12295  37.897   1.525   8.747
  764POPC   C2B12296  38.004   1.667   8.330
  764POPC   C3B12297  37.835   1.558   7.961
  764POPC   C4B12298  37.537   1.287   7.943
  765POPC   NC312299  19.668   2.433   9.338
  765POPC   PO412300  19.576   3.077   9.559
  765POPC   GL112301  19.469   2.889   9.172
  765POPC   GL212302  19.844   2.866   9.105
  765POPC   C1A12303  19.530   2.652   8.771
  765POPC   D2A12304  19.697   2.282   8.565
  765POPC   C3A12305  19.900   2.454   8.209
  765POPC   C4A12306  19.743   2.732   7.886
  765POPC   C1B12307  20.066   2.633   8.748
  765POPC   C2B12308  20.349   2.653   8.384
  765POPC   C3B12309  20.240   2.851   8.019
  765POPC   C4B12310  20.062   3.046   7.620
  766POPC   NC312311  30.600   0.807   9.338
  766POPC   PO412312  30.508   1.483   9.482
  766POPC   GL112313  30.803   1.267   9.188
  766POPC   GL212314  30.951   1.515   9.024
  766POPC   C1A12315  30.987   1.090   8.771
  766POPC   D2A12316  30.794   1.017   8.374
  766POPC   C3A12317  30.921   1.228   8.008
  766POPC   C4A12318  30.878   0.975   7.686
  766POPC   C1B12319  30.523   1.450   8.791
  766POPC   C2B12320  30.351   1.289   8.389
  766POPC   C3B12321  30.439   1.131   7.979
  766POPC   C4B12322  30.560   1.364   7.650
  767POPC   NC312323   1.151  18.572   9.405
  767POPC   PO412324   1.306  17.909   9.414
  767POPC   GL112325   1.195  18.164   9.063
  767POPC   GL212326   1.499  18.413   9.070
  767POPC   C1A12327   1.068  18.092   8.619
  767POPC   D2A12328   1.433  18.127   8.356
  767POPC   C3A12329   1.397  18.211   7.921
  767POPC   C4A12330   1.010  18.073   7.734
  767POPC   C1B12331   1.297  18.539   8.689
  767POPC   C2B12332   1.138  18.577   8.248
  767POPC   C3B12333   1.088  18.596   7.781
  767POPC   C4B12334   1.390  18.517   7.472
  768POPC   NC312335  44.145  13.352   9.450
  768POPC   PO412336  43.826  13.944   9.623
  768POPC   GL112337  43.875  13.705   9.211
  768POPC   GL212338  44.237  13.705   9.053
  768POPC   C1A12339  43.674  13.599   8.808
  768POPC   D2A12340  43.825  13.692   8.399
  768POPC   C3A12341  43.788  13.594   7.978
  768POPC   C4A12342  43.658  13.963   7.767
  768POPC   C1B12343  44.138  13.377   8.799
  768POPC   C2B12344  44.101  13.244   8.400
  768POPC   C3B12345  44.339  13.257   8.047
  768POPC   C4B12346  44.238  13.445   7.674
  769POPC   NC312347  37.450  38.363   9.465
  769POPC   PO412348  37.317  38.966   9.394
  769POPC   GL112349  37.403  38.653   9.041
  769POPC   GL212350  37.758  38.488   9.033
  769POPC   C1A12351  37.394  38.540   8.578
  769POPC   D2A12352  37.828  38.399   8.422
  769POPC   C3A12353  37.866  38.637   8.025
  769POPC   C4A12354  37.488  38.757   7.781
  769POPC   C1B12355  37.564  38.128   8.798
  769POPC   C2B12356  37.353  38.073   8.397
  769POPC   C3B12357  37.468  38.325   8.071
  769POPC   C4B12358  37.680  38.261   7.720
  770POPC   NC312359  28.587  23.741   9.578
  770POPC   PO412360  28.023  24.059   9.504
  770POPC   GL112361  28.185  23.690   9.196
  770POPC   GL212362  28.553  23.554   9.103
  770POPC   C1A12363  28.160  23.449   8.790
  770POPC   D2A12364  28.416  23.472   8.405
  770POPC   C3A12365  28.259  23.505   7.973
  770POPC   C4A12366  28.546  23.551   7.633
  770POPC   C1B12367  28.465  23.873   8.786
  770POPC   C2B12368  28.349  24.030   8.384
  770POPC   C3B12369  28.542  23.936   8.000
  770POPC   C4B12370  28.819  24.010   7.666
  771POPC   NC312371  21.674   6.670   9.464
  771POPC   PO412372  20.994   6.640   9.451
  771POPC   GL112373  21.273   6.721   9.142
  771POPC   GL212374  21.357   6.374   9.176
  771POPC   C1A12375  21.536   6.655   8.790
  771POPC   D2A12376  21.485   6.821   8.407
  771POPC   C3A12377  21.457   6.618   8.020
  771POPC   C4A12378  21.434   6.842   7.624
  771POPC   C1B12379  21.247   6.220   8.775
  771POPC   C2B12380  21.215   6.318   8.379
  771POPC   C3B12381  21.032   6.251   8.008
  771POPC   C4B12382  21.266   6.304   7.648
  772POPC   NC312383  37.920  25.876   9.400
  772POPC   PO412384  38.506  26.191   9.665
  772POPC   GL112385  38.489  26.096   9.190
  772POPC   GL212386  38.209  26.195   9.041
  772POPC   C1A12387  38.701  26.099   8.752
  772POPC   D2A12388  38.479  26.160   8.362
  772POPC   C3A12389  38.680  26.228   7.975
  772POPC   C4A12390  38.488  26.453   7.664
  772POPC   C1B12391  38.237  25.849   8.756
  772POPC   C2B12392  38.057  25.861   8.354
  772POPC   C3B12393  38.241  25.731   7.995
  772POPC   C4B12394  38.665  25.709   7.908
  773POPC   NC312395  25.287  22.848   9.512
  773POPC   PO412396  24.613  22.791   9.384
  773POPC   GL112397  24.976  23.000   9.122
  773POPC   GL212398  25.355  23.125   9.106
  773POPC   C1A12399  25.080  22.970   8.705
  773POPC   D2A12400  25.275  22.936   8.325
  773POPC   C3A12401  24.908  22.892   8.069
  773POPC   C4A12402  24.967  22.603   7.796
  773POPC   C1B12403  25.570  22.838   8.821
  773POPC   C2B12404  25.787  22.741   8.449
  773POPC   C3B12405  25.715  22.624   8.046
  773POPC   C4B12406  25.460  22.737   7.757
  774POPC   NC312407  37.716  10.019   9.549
  774POPC   PO412408  37.474   9.463   9.568
  774POPC   GL112409  37.391   9.723   9.203
  774POPC   GL212410  37.737   9.746   9.134
  774POPC   C1A12411  37.464   9.765   8.727
  774POPC   D2A12412  37.728   9.642   8.384
  774POPC   C3A12413  37.514   9.613   7.976
  774POPC   C4A12414  37.900   9.608   7.715
  774POPC   C1B12415  37.800  10.129   8.840
  774POPC   C2B12416  37.745  10.172   8.427
  774POPC   C3B12417  37.823  10.026   8.036
  774POPC   C4B12418  37.595  10.011   7.673
  775POPC   NC312419  28.299  30.221   9.707
  775POPC   PO412420  28.535  29.680   9.600
  775POPC   GL112421  28.384  29.923   9.267
  775POPC   GL212422  28.694  29.821   9.129
  775POPC   C1A12423  28.152  29.929   8.862
  775POPC   D2A12424  28.296  29.963   8.427
  775POPC   C3A12425  28.138  30.069   8.024
  775POPC   C4A12426  28.179  29.859   7.647
  775POPC   C1B12427  28.688  30.036   8.774
  775POPC   C2B12428  28.814  29.926   8.360
  775POPC   C3B12429  28.637  29.987   7.928
  775POPC   C4B12430  28.554  30.299   7.573
  776POPC   NC312431  26.851  17.129   9.501
  776POPC   PO412432  26.734  16.482   9.451
  776POPC   GL112433  26.931  16.748   9.127
  776POPC   GL212434  27.283  16.835   9.242
  776POPC   C1A12435  26.815  16.986   8.723
  776POPC   D2A12436  26.713  17.203   8.313
  776POPC   C3A12437  26.813  16.856   8.039
  776POPC   C4A12438  26.706  16.452   7.842
  776POPC   C1B12439  27.336  16.789   8.781
  776POPC   C2B12440  27.398  16.413   8.506
  776POPC   C3B12441  27.393  16.500   8.083
  776POPC   C4B12442  27.331  16.841   7.826
  777POPC   NC312443   9.350   9.668   9.416
  777POPC   PO412444   8.760  10.081   9.536
  777POPC   GL112445   8.867   9.798   9.259
  777POPC   GL212446   9.102  10.034   9.116
  777POPC   C1A12447   8.933   9.580   8.881
  777POPC   D2A12448   8.849   9.766   8.481
  777POPC   C3A12449   8.982   9.549   8.117
  777POPC   C4A12450   8.870   9.613   7.697
  777POPC   C1B12451   9.280   9.960   8.720
  777POPC   C2B12452   9.369   9.856   8.287
  777POPC   C3B12453   9.367   9.819   7.839
  777POPC   C4B12454   9.166   9.934   7.426
  778POPC   NC312455  25.106  16.459   9.749
  778POPC   PO412456  25.360  15.896   9.427
  778POPC   GL112457  25.260  15.869   9.030
  778POPC   GL212458  25.043  15.625   8.990
  778POPC   C1A12459  25.148  16.046   8.654
  778POPC   D2A12460  25.269  16.307   8.350
  778POPC   C3A12461  25.246  16.195   7.940
  778POPC   C4A12462  25.595  16.417   7.806
  778POPC   C1B12463  24.843  15.638   8.603
  778POPC   C2B12464  24.960  15.843   8.223
  778POPC   C3B12465  24.989  15.755   7.807
  778POPC   C4B12466  24.998  15.766   7.368
  779POPC   NC312467  30.299  36.045   9.580
  779POPC   PO412468  29.789  36.378   9.590
  779POPC   GL112469  29.773  36.279   9.182
  779POPC   GL212470  30.118  36.293   9.175
  779POPC   C1A12471  29.631  36.281   8.770
  779POPC   D2A12472  29.671  35.985   8.430
  779POPC   C3A12473  29.719  36.124   8.024
  779POPC   C4A12474  29.836  36.289   7.589
  779POPC   C1B12475  30.144  36.367   8.753
  779POPC   C2B12476  30.177  36.186   8.363
  779POPC   C3B12477  30.215  36.298   7.934
  779POPC   C4B12478  30.346  36.120   7.537
  780POPC   NC312479   4.722  39.416   9.696
  780POPC   PO412480   4.201  39.063   9.558
  780POPC   GL112481   4.243  39.135   9.144
  780POPC   GL212482   3.931  38.936   9.065
  780POPC   C1A12483   4.463  39.331   8.770
  780POPC   D2A12484   4.729  39.359   8.373
  780POPC   C3A12485   4.488  39.292   7.990
  780POPC   C4A12486   4.272  39.520   7.713
  780POPC   C1B12487   3.936  39.271   8.761
  780POPC   C2B12488   4.103  39.342   8.371
  780POPC   C3B12489   4.011  39.072   8.036
  780POPC   C4B12490   4.130  39.035   7.626
  781POPC   NC312491  21.410  22.461   9.535
  781POPC   PO412492  21.215  21.775   9.551
  781POPC   GL112493  21.473  22.018   9.216
  781POPC   GL212494  21.261  22.295   9.088
  781POPC   C1A12495  21.651  22.197   8.793
  781POPC   D2A12496  21.365  22.289   8.425
  781POPC   C3A12497  21.557  22.436   8.032
  781POPC   C4A12498  21.578  22.070   7.732
  781POPC   C1B12499  21.146  22.583   8.805
  781POPC   C2B12500  20.966  22.700   8.464
  781POPC   C3B12501  21.079  22.579   8.080
  781POPC   C4B12502  21.203  22.447   7.685
  782POPC   NC312503  23.329  10.534   9.644
  782POPC   PO412504  23.963  10.680   9.624
  782POPC   GL112505  23.678  10.603   9.272
  782POPC   GL212506  23.551  10.248   9.294
  782POPC   C1A12507  23.631  10.522   8.837
  782POPC   D2A12508  23.902  10.576   8.477
  782POPC   C3A12509  23.654  10.650   8.096
  782POPC   C4A12510  23.757  10.788   7.694
  782POPC   C1B12511  23.716  10.021   8.972
  782POPC   C2B12512  23.679  10.043   8.515
  782POPC   C3B12513  23.858  10.174   8.145
  782POPC   C4B12514  23.745  10.262   7.735
  783POPC   NC312515  15.805  27.919   9.499
  783POPC   PO412516  15.721  28.675   9.549
  783POPC   GL112517  15.924  28.651   9.165
  783POPC   GL212518  16.049  28.313   9.204
  783POPC   C1A12519  15.823  28.476   8.761
  783POPC   D2A12520  15.771  28.320   8.366
  783POPC   C3A12521  15.578  28.489   7.987
  783POPC   C4A12522  15.693  28.295   7.625
  783POPC   C1B12523  16.021  28.015   8.847
  783POPC   C2B12524  16.131  27.959   8.410
  783POPC   C3B12525  16.163  28.235   8.029
  783POPC   C4B12526  16.126  28.026   7.623
  784POPC   NC312527  37.378  23.559   9.472
  784POPC   PO412528  37.989  23.829   9.451
  784POPC   GL112529  37.810  23.822   9.064
  784POPC   GL212530  37.659  23.519   9.012
  784POPC   C1A12531  37.786  24.092   8.747
  784POPC   D2A12532  37.907  23.858   8.401
  784POPC   C3A12533  37.689  23.973   8.069
  784POPC   C4A12534  37.825  23.902   7.684
  784POPC   C1B12535  37.452  23.693   8.644
  784POPC   C2B12536  37.268  23.691   8.224
  784POPC   C3B12537  37.436  23.593   7.805
  784POPC   C4B12538  37.443  23.730   7.363
  785POPC   NC312539  41.884  29.140   9.487
  785POPC   PO412540  42.510  28.955   9.359
  785POPC   GL112541  42.443  29.270   9.059
  785POPC   GL212542  42.107  29.420   9.082
  785POPC   C1A12543  42.459  29.114   8.660
  785POPC   D2A12544  42.125  29.106   8.396
  785POPC   C3A12545  42.288  29.149   8.044
  785POPC   C4A12546  42.228  29.376   7.701
  785POPC   C1B12547  42.031  28.968   8.887
  785POPC   C2B12548  41.765  28.796   8.577
  785POPC   C3B12549  41.780  28.815   8.118
  785POPC   C4B12550  41.998  28.901   7.718
  786POPC   NC312551  25.112  23.940   9.487
  786POPC   PO412552  25.122  23.283   9.537
  786POPC   GL112553  25.038  23.541   9.168
  786POPC   GL212554  25.355  23.644   9.121
  786POPC   C1A12555  24.975  23.840   8.841
  786POPC   D2A12556  25.220  23.946   8.474
  786POPC   C3A12557  25.055  23.895   8.040
  786POPC   C4A12558  25.316  23.684   7.743
  786POPC   C1B12559  25.262  23.450   8.698
  786POPC   C2B12560  25.223  23.455   8.242
  786POPC   C3B12561  25.241  23.202   7.862
  786POPC   C4B12562  25.094  23.328   7.430
  787POPC   NC312563   0.729  39.042   9.532
  787POPC   PO412564   1.357  39.341   9.606
  787POPC   GL112565   1.377  39.218   9.209
  787POPC   GL212566   1.044  39.319   9.168
  787POPC   C1A12567   1.556  39.187   8.794
  787POPC   D2A12568   1.454  39.348   8.394
  787POPC   C3A12569   1.515  39.149   7.995
  787POPC   C4A12570   1.119  39.078   7.813
  787POPC   C1B12571   0.796  39.632   8.917
  787POPC   C2B12572   0.820  39.768   8.473
  787POPC   C3B12573   1.006  39.515   8.151
  787POPC   C4B12574   0.850  39.489   7.717
  788POPC   NC312575  28.956  29.500   9.484
  788POPC   PO412576  29.204  30.223   9.500
  788POPC   GL112577  29.143  30.071   9.126
  788POPC   GL212578  29.268  29.760   9.163
  788POPC   C1A12579  29.182  30.168   8.709
  788POPC   D2A12580  29.362  29.972   8.385
  788POPC   C3A12581  29.155  29.973   7.986
  788POPC   C4A12582  29.018  30.111   7.585
  788POPC   C1B12583  29.075  29.684   8.777
  788POPC   C2B12584  28.926  29.424   8.500
  788POPC   C3B12585  29.089  29.486   8.151
  788POPC   C4B12586  28.927  29.555   7.773
  789POPC   NC312587  16.287  44.332   9.581
  789POPC   PO412588  15.890  44.777   9.283
  789POPC   GL112589  16.238  44.695   9.099
  789POPC   GL212590  16.250  44.337   9.087
  789POPC   C1A12591  16.182  44.968   8.760
  789POPC   D2A12592  16.001  44.839   8.379
  789POPC   C3A12593  16.129  44.544   8.079
  789POPC   C4A12594  15.979  44.714   7.695
  789POPC   C1B12595  16.193  44.387   8.668
  789POPC   C2B12596  15.866  44.273   8.426
  789POPC   C3B12597  15.743  44.206   7.994
  789POPC   C4B12598  15.927  44.228   7.631
  790POPC   NC312599  32.673  39.840   9.500
  790POPC   PO412600  33.389  39.892   9.501
  790POPC   GL112601  33.120  39.785   9.196
  790POPC   GL212602  32.945  40.085   9.111
  790POPC   C1A12603  33.101  39.792   8.758
  790POPC   D2A12604  32.896  39.869   8.416
  790POPC   C3A12605  33.158  39.885   8.086
  790POPC   C4A12606  33.093  39.722   7.715
  790POPC   C1B12607  33.106  40.340   8.760
  790POPC   C2B12608  32.942  40.380   8.338
  790POPC   C3B12609  32.733  40.152   8.022
  790POPC   C4B12610  32.989  40.226   7.723
  791POPC   NC312611   6.077   0.251   9.673
  791POPC   PO412612   5.720   0.864   9.659
  791POPC   GL112613   5.748   0.504   9.300
  791POPC   GL212614   6.057   0.548   9.209
  791POPC   C1A12615   5.648   0.413   8.814
  791POPC   D2A12616   5.610   0.220   8.341
  791POPC   C3A12617   5.598   0.288   7.863
  791POPC   C4A12618   5.660   0.628   7.573
  791POPC   C1B12619   6.035   0.795   8.807
  791POPC   C2B12620   5.849   0.681   8.408
  791POPC   C3B12621   5.974   0.577   8.005
  791POPC   C4B12622   6.090   0.269   7.666
  792POPC   NC312623  26.675  32.740   9.759
  792POPC   PO412624  26.466  33.332   9.585
  792POPC   GL112625  26.670  32.999   9.274
  792POPC   GL212626  26.555  33.278   9.074
  792POPC   C1A12627  26.803  32.900   8.809
  792POPC   D2A12628  26.960  33.015   8.391
  792POPC   C3A12629  26.859  32.711   8.062
  792POPC   C4A12630  26.994  32.863   7.702
  792POPC   C1B12631  26.387  33.256   8.701
  792POPC   C2B12632  26.416  33.379   8.300
  792POPC   C3B12633  26.592  33.166   7.971
  792POPC   C4B12634  26.684  33.240   7.571
  793POPC   NC312635   0.756  28.948   9.540
  793POPC   PO412636   0.230  29.444   9.634
  793POPC   GL112637   0.335  29.188   9.285
  793POPC   GL212638   0.371  29.454   9.049
  793POPC   C1A12639   0.416  28.934   8.892
  793POPC   D2A12640   0.585  29.013   8.483
  793POPC   C3A12641   0.327  29.084   8.167
  793POPC   C4A12642   0.437  29.233   7.783
  793POPC   C1B12643   0.239  29.390   8.626
  793POPC   C2B12644  44.897  29.330   8.339
  793POPC   C3B12645  44.954  29.308   7.896
  793POPC   C4B12646   0.009  29.129   7.481
  794POPC   NC312647   4.546  43.438   9.500
  794POPC   PO412648   5.028  42.893   9.662
  794POPC   GL112649   4.980  42.876   9.210
  794POPC   GL212650   4.927  43.257   9.171
  794POPC   C1A12651   5.218  43.007   8.812
  794POPC   D2A12652   5.258  43.377   8.557
  794POPC   C3A12653   5.297  43.341   8.105
  794POPC   C4A12654   5.131  43.078   7.760
  794POPC   C1B12655   4.757  43.388   8.782
  794POPC   C2B12656   4.817  43.544   8.356
  794POPC   C3B12657   4.787  43.419   7.947
  794POPC   C4B12658   4.793  43.365   7.501
  795POPC   NC312659   1.399  21.483   9.583
  795POPC   PO412660   0.821  21.231   9.539
  795POPC   GL112661   1.027  21.427   9.180
  795POPC   GL212662   1.325  21.307   9.089
  795POPC   C1A12663   0.923  21.618   8.792
  795POPC   D2A12664   1.051  21.678   8.373
  795POPC   C3A12665   1.278  21.541   8.060
  795POPC   C4A12666   1.081  21.407   7.722
  795POPC   C1B12667   1.215  21.226   8.639
  795POPC   C2B12668   1.451  21.112   8.246
  795POPC   C3B12669   1.516  21.146   7.779
  795POPC   C4B12670   1.641  20.950   7.358
  796POPC   NC312671  39.976  26.349   9.376
  796POPC   PO412672  40.163  25.679   9.517
  796POPC   GL112673  40.205  25.932   9.142
  796POPC   GL212674  39.846  25.960   9.031
  796POPC   C1A12675  40.251  26.073   8.710
  796POPC   D2A12676  40.009  25.964   8.353
  796POPC   C3A12677  40.243  26.068   7.986
  796POPC   C4A12678  40.162  26.099   7.555
  796POPC   C1B12679  39.773  26.302   8.714
  796POPC   C2B12680  39.622  26.291   8.273
  796POPC   C3B12681  39.731  26.174   7.841
  796POPC   C4B12682  39.807  26.436   7.459
  797POPC   NC312683   3.571  27.508   9.560
  797POPC   PO412684   3.665  28.162   9.422
  797POPC   GL112685   3.610  27.774   9.103
  797POPC   GL212686   3.478  27.368   9.094
  797POPC   C1A12687   3.688  27.580   8.693
  797POPC   D2A12688   3.485  27.571   8.308
  797POPC   C3A12689   3.769  27.629   7.977
  797POPC   C4A12690   3.755  27.604   7.542
  797POPC   C1B12691   3.198  27.567   8.780
  797POPC   C2B12692   2.943  27.437   8.432
  797POPC   C3B12693   3.060  27.366   8.057
  797POPC   C4B12694   3.287  27.637   7.819
  798POPC   NC312695  32.766  30.444   9.871
  798POPC   PO412696  32.755  29.998   9.410
  798POPC   GL112697  33.077  30.089   9.109
  798POPC   GL212698  32.892  30.261   8.882
  798POPC   C1A12699  33.303  29.910   8.747
  798POPC   D2A12700  33.287  29.732   8.318
  798POPC   C3A12701  33.011  29.807   7.991
  798POPC   C4A12702  32.931  29.691   7.571
  798POPC   C1B12703  32.811  29.913   8.629
  798POPC   C2B12704  32.638  30.016   8.249
  798POPC   C3B12705  32.665  30.304   7.972
  798POPC   C4B12706  32.901  30.199   7.681
  799POPC   NC312707   6.382  41.018   9.503
  799POPC   PO412708   7.011  40.670   9.401
  799POPC   GL112709   6.651  40.757   9.132
  799POPC   GL212710   6.296  40.596   9.204
  799POPC   C1A12711   6.753  40.941   8.734
  799POPC   D2A12712   7.023  40.910   8.355
  799POPC   C3A12713   6.738  40.943   7.990
  799POPC   C4A12714   6.598  40.607   7.720
  799POPC   C1B12715   6.224  40.906   8.867
  799POPC   C2B12716   6.302  41.061   8.463
  799POPC   C3B12717   6.321  41.250   8.065
  799POPC   C4B12718   6.401  41.185   7.635
  800POPC   NC312719  35.789  35.989   9.508
  800POPC   PO412720  36.294  36.325   9.457
  800POPC   GL112721  36.138  36.077   9.126
  800POPC   GL212722  35.845  36.275   9.096
  800POPC   C1A12723  36.180  36.170   8.689
  800POPC   D2A12724  36.424  36.469   8.510
  800POPC   C3A12725  36.442  36.422   8.070
  800POPC   C4A12726  36.390  36.081   7.795
  800POPC   C1B12727  35.734  35.967   8.790
  800POPC   C2B12728  35.726  36.191   8.426
  800POPC   C3B12729  35.984  36.117   8.097
  800POPC   C4B12730  35.887  35.926   7.724
  801POPC   NC312731  29.741  22.681   9.438
  801POPC   PO412732  30.277  22.967   9.477
  801POPC   GL112733  29.990  22.944   9.078
  801POPC   GL212734  30.020  22.608   9.007
  801POPC   C1A12735  29.870  22.891   8.617
  801POPC   D2A12736  30.085  23.011   8.251
  801POPC   C3A12737  29.823  23.051   7.904
  801POPC   C4A12738  29.754  23.421   7.627
  801POPC   C1B12739  30.291  22.601   8.675
  801POPC   C2B12740  30.089  22.492   8.308
  801POPC   C3B12741  30.117  22.646   7.874
  801POPC   C4B12742  30.186  22.672   7.417
  802POPC   NC312743  20.909   0.245   9.425
  802POPC   PO412744  20.384   0.683   9.539
  802POPC   GL112745  20.354   0.486   9.118
  802POPC   GL212746  20.700   0.559   9.047
  802POPC   C1A12747  20.337   0.577   8.659
  802POPC   D2A12748  20.587   0.620   8.279
  802POPC   C3A12749  20.381   0.519   7.878
  802POPC   C4A12750  20.172   0.725   7.500
  802POPC   C1B12751  20.683   0.231   8.758
  802POPC   C2B12752  20.820   0.151   8.351
  802POPC   C3B12753  20.833   0.299   7.944
  802POPC   C4B12754  20.855   0.703   7.757
  803POPC   NC312755  38.015  13.905   9.581
  803POPC   PO412756  37.426  13.564   9.414
  803POPC   GL112757  37.556  13.687   9.054
  803POPC   GL212758  37.560  13.358   8.919
  803POPC   C1A12759  37.444  13.870   8.665
  803POPC   D2A12760  37.690  13.890   8.291
  803POPC   C3A12761  37.563  13.691   7.893
  803POPC   C4A12762  37.477  13.881   7.482
  803POPC   C1B12763  37.908  13.628   8.720
  803POPC   C2B12764  38.117  13.591   8.355
  803POPC   C3B12765  38.011  13.471   7.962
  803POPC   C4B12766  37.930  13.615   7.535
  804POPC   NC312767   8.293   0.593   9.708
  804POPC   PO412768   7.768   0.232   9.486
  804POPC   GL112769   8.027   0.262   9.104
  804POPC   GL212770   8.254   0.528   9.154
  804POPC   C1A12771   8.085   0.411   8.651
  804POPC   D2A12772   7.939   0.720   8.357
  804POPC   C3A12773   8.104   0.616   7.973
  804POPC   C4A12774   8.444   0.694   7.694
  804POPC   C1B12775   8.510   0.262   8.851
  804POPC   C2B12776   8.561   0.421   8.420
  804POPC   C3B12777   8.488   0.256   8.005
  804POPC   C4B12778   8.722   0.281   7.648
  805POPC   NC312779  34.046  25.841   9.535
  805POPC   PO412780  33.572  26.289   9.652
  805POPC   GL112781  33.814  26.092   9.172
  805POPC   GL212782  34.143  26.141   9.125
  805POPC   C1A12783  33.799  26.227   8.663
  805POPC   D2A12784  33.592  26.143   8.273
  805POPC   C3A12785  33.775  26.277   7.873
  805POPC   C4A12786  34.219  26.249   7.761
  805POPC   C1B12787  34.222  25.962   8.704
  805POPC   C2B12788  34.078  25.945   8.245
  805POPC   C3B12789  34.207  25.733   7.832
  805POPC   C4B12790  34.311  25.871   7.396
  806POPC   NC312791  20.392  44.358   9.795
  806POPC   PO412792  20.781  44.816   9.558
  806POPC   GL112793  20.465  44.623   9.227
  806POPC   GL212794  20.419  44.963   9.125
  806POPC   C1A12795  20.166  44.616   8.776
  806POPC   D2A12796  20.129  44.273   8.432
  806POPC   C3A12797  20.435  44.313   8.077
  806POPC   C4A12798  20.513  44.505   7.693
  806POPC   C1B12799  20.655  44.738   8.776
  806POPC   C2B12800  20.558  44.703   8.381
  806POPC   C3B12801  20.822  44.685   8.051
  806POPC   C4B12802  20.897  44.875   7.669
  807POPC   NC312803  21.180   2.515   9.552
  807POPC   PO412804  21.557   3.004   9.554
  807POPC   GL112805  21.495   2.786   9.182
  807POPC   GL212806  21.824   2.920   9.115
  807POPC   C1A12807  21.285   2.836   8.742
  807POPC   D2A12808  21.315   3.022   8.339
  807POPC   C3A12809  21.283   2.752   8.003
  807POPC   C4A12810  21.104   2.680   7.588
  807POPC   C1B12811  21.763   2.676   8.768
  807POPC   C2B12812  21.827   2.853   8.391
  807POPC   C3B12813  21.738   3.008   8.008
  807POPC   C4B12814  21.575   2.899   7.625
  808POPC   NC312815  21.873  23.294   9.731
  808POPC   PO412816  22.027  24.077   9.698
  808POPC   GL112817  21.973  23.971   9.207
  808POPC   GL212818  21.940  23.595   9.152
  808POPC   C1A12819  22.256  23.873   8.827
  808POPC   D2A12820  22.154  23.761   8.401
  808POPC   C3A12821  22.289  23.980   8.022
  808POPC   C4A12822  22.249  24.157   7.589
  808POPC   C1B12823  22.099  23.383   8.790
  808POPC   C2B12824  22.333  23.290   8.402
  808POPC   C3B12825  22.230  23.460   7.985
  808POPC   C4B12826  22.262  23.281   7.581
  809POPC   NC312827  16.029   6.785   9.368
  809POPC   PO412828  15.748   6.173   9.333
  809POPC   GL112829  15.838   6.448   9.007
  809POPC   GL212830  16.200   6.535   8.954
  809POPC   C1A12831  15.787   6.618   8.595
  809POPC   D2A12832  15.977   6.784   8.217
  809POPC   C3A12833  15.982   6.400   7.954
  809POPC   C4A12834  16.182   6.186   7.611
  809POPC   C1B12835  16.136   6.969   8.744
  809POPC   C2B12836  16.319   7.193   8.396
  809POPC   C3B12837  16.322   7.111   7.953
  809POPC   C4B12838  16.148   6.808   7.707
  810POPC   NC312839  11.816  12.067   9.747
  810POPC   PO412840  11.147  12.078   9.611
  810POPC   GL112841  11.267  11.976   9.167
  810POPC   GL212842  11.422  11.619   9.196
  810POPC   C1A12843  11.331  12.224   8.753
  810POPC   D2A12844  11.571  12.369   8.380
  810POPC   C3A12845  11.489  12.178   7.967
  810POPC   C4A12846  11.053  12.164   7.876
  810POPC   C1B12847  11.408  11.716   8.755
  810POPC   C2B12848  11.390  11.870   8.364
  810POPC   C3B12849  11.207  11.702   8.018
  810POPC   C4B12850  11.376  11.674   7.655
  811POPC   NC312851  14.154  13.744   9.441
  811POPC   PO412852  14.812  13.620   9.542
  811POPC   GL112853  14.557  13.501   9.157
  811POPC   GL212854  14.283  13.720   8.970
  811POPC   C1A12855  14.708  13.657   8.745
  811POPC   D2A12856  14.488  13.842   8.422
  811POPC   C3A12857  14.640  13.719   8.047
  811POPC   C4A12858  14.637  13.441   7.753
  811POPC   C1B12859  14.271  13.359   8.701
  811POPC   C2B12860  14.136  13.467   8.323
  811POPC   C3B12861  14.119  13.820   8.040
  811POPC   C4B12862  14.276  13.809   7.663
  812POPC   NC312863  42.633   9.599   9.376
  812POPC   PO412864  43.339   9.820   9.521
  812POPC   GL112865  43.042   9.888   9.203
  812POPC   GL212866  43.072   9.563   9.119
  812POPC   C1A12867  43.225   9.994   8.833
  812POPC   D2A12868  43.392   9.922   8.451
  812POPC   C3A12869  43.144  10.008   8.082
  812POPC   C4A12870  43.274   9.834   7.695
  812POPC   C1B12871  43.122   9.508   8.703
  812POPC   C2B12872  42.955   9.611   8.376
  812POPC   C3B12873  43.100   9.501   8.024
  812POPC   C4B12874  42.774   9.613   7.737
  813POPC   NC312875  13.850  41.499   9.414
  813POPC   PO412876  13.338  41.860   9.472
  813POPC   GL112877  13.318  41.539   9.094
  813POPC   GL212878  13.645  41.418   8.967
  813POPC   C1A12879  13.289  41.502   8.623
  813POPC   D2A12880  13.370  41.821   8.302
  813POPC   C3A12881  13.454  41.723   7.887
  813POPC   C4A12882  13.639  41.290   7.879
  813POPC   C1B12883  13.750  41.758   8.700
  813POPC   C2B12884  14.081  41.782   8.400
  813POPC   C3B12885  13.948  41.786   7.967
  813POPC   C4B12886  13.837  41.608   7.545
  814POPC   NC312887  42.051  12.552   9.532
  814POPC   PO412888  42.469  13.038   9.426
  814POPC   GL112889  42.296  12.844   9.100
  814POPC   GL212890  42.351  12.527   9.132
  814POPC   C1A12891  42.058  12.940   8.743
  814POPC   D2A12892  41.885  13.153   8.410
  814POPC   C3A12893  42.041  12.901   8.065
  814POPC   C4A12894  42.268  12.866   7.669
  814POPC   C1B12895  42.500  12.430   8.766
  814POPC   C2B12896  42.338  12.597   8.393
  814POPC   C3B12897  42.364  12.469   7.980
  814POPC   C4B12898  42.507  12.289   7.608
  815POPC   NC312899  19.661  42.473   9.550
  815POPC   PO412900  20.299  42.522   9.453
  815POPC   GL112901  19.941  42.459   9.085
  815POPC   GL212902  19.541  42.444   9.056
  815POPC   C1A12903  19.783  42.540   8.619
  815POPC   D2A12904  19.875  42.243   8.296
  815POPC   C3A12905  19.891  42.446   7.935
  815POPC   C4A12906  19.930  42.266   7.528
  815POPC   C1B12907  19.307  42.323   8.645
  815POPC   C2B12908  19.400  42.039   8.272
  815POPC   C3B12909  19.560  42.063   7.852
  815POPC   C4B12910  19.493  42.033   7.402
  816POPC   NC312911   8.777   4.732   9.460
  816POPC   PO412912   9.248   5.223   9.492
  816POPC   GL112913   9.113   5.036   9.100
  816POPC   GL212914   9.342   4.764   8.972
  816POPC   C1A12915   8.916   5.240   8.715
  816POPC   D2A12916   8.958   5.562   8.353
  816POPC   C3A12917   8.951   5.386   7.912
  816POPC   C4A12918   8.639   5.240   7.596
  816POPC   C1B12919   9.394   5.097   8.659
  816POPC   C2B12920   9.279   5.183   8.263
  816POPC   C3B12921   9.342   5.033   7.883
  816POPC   C4B12922   9.588   4.962   7.555
  817POPC   NC312923  41.354  23.244   9.589
  817POPC   PO412924  41.369  23.914   9.545
  817POPC   GL112925  41.329  23.762   9.126
  817POPC   GL212926  41.092  23.462   9.150
  817POPC   C1A12927  41.611  23.796   8.741
  817POPC   D2A12928  41.871  23.812   8.361
  817POPC   C3A12929  41.726  23.674   7.952
  817POPC   C4A12930  41.786  23.259   7.804
  817POPC   C1B12931  41.319  23.364   8.753
  817POPC   C2B12932  41.538  23.346   8.348
  817POPC   C3B12933  41.286  23.393   7.976
  817POPC   C4B12934  41.348  23.495   7.545
  818POPC   NC312935  15.793  33.954   9.529
  818POPC   PO412936  16.417  33.691   9.488
  818POPC   GL112937  16.105  33.683   9.116
  818POPC   GL212938  15.736  33.666   9.095
  818POPC   C1A12939  16.006  33.738   8.667
  818POPC   D2A12940  15.951  33.975   8.292
  818POPC   C3A12941  16.161  33.778   7.947
  818POPC   C4A12942  16.079  33.846   7.511
  818POPC   C1B12943  15.622  33.400   8.709
  818POPC   C2B12944  15.846  33.422   8.272
  818POPC   C3B12945  15.712  33.550   7.843
  818POPC   C4B12946  15.682  33.254   7.490
  819POPC   NC312947  34.354  15.229   9.736
  819POPC   PO412948  34.768  14.777   9.372
  819POPC   GL112949  34.530  14.958   9.059
  819POPC   GL212950  34.481  15.242   9.236
  819POPC   C1A12951  34.283  14.908   8.697
  819POPC   D2A12952  34.271  14.906   8.233
  819POPC   C3A12953  34.584  15.197   8.101
  819POPC   C4A12954  34.904  15.269   7.817
  819POPC   C1B12955  34.523  15.397   8.824
  819POPC   C2B12956  34.256  15.397   8.496
  819POPC   C3B12957  34.106  15.385   8.120
  819POPC   C4B12958  34.203  15.155   7.755
  820POPC   NC312959  25.292  41.690   9.301
  820POPC   PO412960  24.872  41.148   9.568
  820POPC   GL112961  25.102  41.231   9.141
  820POPC   GL212962  25.486  41.259   9.159
  820POPC   C1A12963  25.061  41.185   8.707
  820POPC   D2A12964  25.041  41.467   8.343
  820POPC   C3A12965  25.285  41.396   7.982
  820POPC   C4A12966  25.112  41.519   7.610
  820POPC   C1B12967  25.486  41.483   8.741
  820POPC   C2B12968  25.526  41.665   8.360
  820POPC   C3B12969  25.689  41.780   7.987
  820POPC   C4B12970  25.630  41.594   7.606
  821POPC   NC312971  18.802  38.339   9.949
  821POPC   PO412972  19.403  38.476   9.566
  821POPC   GL112973  19.071  38.480   9.203
  821POPC   GL212974  19.013  38.149   8.991
  821POPC   C1A12975  18.955  38.611   8.756
  821POPC   D2A12976  19.056  38.295   8.458
  821POPC   C3A12977  19.268  38.356   8.124
  821POPC   C4A12978  19.147  38.142   7.773
  821POPC   C1B12979  19.397  38.366   8.817
  821POPC   C2B12980  19.496  38.673   8.500
  821POPC   C3B12981  19.601  38.750   8.067
  821POPC   C4B12982  19.314  38.656   7.722
  822POPC   NC312983  23.404  28.849   9.363
  822POPC   PO412984  23.984  29.222   9.429
  822POPC   GL112985  23.741  29.124   9.088
  822POPC   GL212986  23.454  29.307   9.060
  822POPC   C1A12987  23.742  28.925   8.696
  822POPC   D2A12988  23.693  28.935   8.271
  822POPC   C3A12989  23.957  29.179   7.952
  822POPC   C4A12990  23.915  29.035   7.564
  822POPC   C1B12991  23.280  29.394   8.653
  822POPC   C2B12992  23.189  29.321   8.218
  822POPC   C3B12993  23.443  29.137   7.877
  822POPC   C4B12994  23.437  29.152   7.382
  823POPC   NC312995  18.976  13.873   9.521
  823POPC   PO412996  19.059  13.218   9.380
  823POPC   GL112997  19.109  13.579   9.111
  823POPC   GL212998  19.016  13.951   9.031
  823POPC   C1A12999  18.995  13.477   8.723
  823POPC   D2A13000  19.144  13.411   8.354
  823POPC   C3A13001  18.855  13.244   8.093
  823POPC   C4A13002  18.896  13.509   7.732
  823POPC   C1B13003  18.658  13.851   8.781
  823POPC   C2B13004  18.690  13.666   8.367
  823POPC   C3B13005  19.005  13.854   8.101
  823POPC   C4B13006  18.956  14.008   7.667
  824POPC   NC313007   1.622  27.492   9.348
  824POPC   PO413008   2.265  27.323   9.540
  824POPC   GL113009   2.127  27.592   9.194
  824POPC   GL213010   1.943  27.901   9.224
  824POPC   C1A13011   2.141  27.528   8.765
  824POPC   D2A13012   1.996  27.655   8.367
  824POPC   C3A13013   2.255  27.508   8.039
  824POPC   C4A13014   2.050  27.681   7.709
  824POPC   C1B13015   1.798  28.144   8.827
  824POPC   C2B13016   1.664  28.069   8.396
  824POPC   C3B13017   1.689  27.876   7.995
  824POPC   C4B13018   1.691  28.007   7.533
  825POPC   NC313019  20.663  17.653   9.520
  825POPC   PO413020  20.426  17.033   9.428
  825POPC   GL113021  20.641  17.262   9.132
  825POPC   GL213022  20.682  17.644   9.017
  825POPC   C1A13023  20.861  17.194   8.775
  825POPC   D2A13024  20.957  17.147   8.352
  825POPC   C3A13025  20.794  17.505   8.092
  825POPC   C4A13026  20.513  17.310   7.776
  825POPC   C1B13027  20.415  17.455   8.707
  825POPC   C2B13028  20.328  17.462   8.277
  825POPC   C3B13029  20.330  17.749   7.931
  825POPC   C4B13030  20.130  17.922   7.557
  826POPC   NC313031  41.732  35.902   9.454
  826POPC   PO413032  41.109  36.141   9.562
  826POPC   GL113033  41.305  36.002   9.185
  826POPC   GL213034  41.519  36.248   9.133
  826POPC   C1A13035  41.496  35.881   8.754
  826POPC   D2A13036  41.412  36.076   8.314
  826POPC   C3A13037  41.351  35.875   7.894
  826POPC   C4A13038  41.520  36.016   7.475
  826POPC   C1B13039  41.385  36.384   8.713
  826POPC   C2B13040  41.336  36.585   8.294
  826POPC   C3B13041  41.294  36.391   7.871
  826POPC   C4B13042  41.284  36.514   7.423
  827POPC   NC313043  25.238  40.891   9.471
  827POPC   PO413044  25.704  40.315   9.365
  827POPC   GL113045  25.356  40.485   9.106
  827POPC   GL213046  25.480  40.766   9.074
  827POPC   C1A13047  25.209  40.653   8.681
  827POPC   D2A13048  25.011  40.810   8.336
  827POPC   C3A13049  25.167  40.674   7.977
  827POPC   C4A13050  25.198  40.996   7.653
  827POPC   C1B13051  25.619  40.989   8.755
  827POPC   C2B13052  25.446  41.100   8.378
  827POPC   C3B13053  25.585  40.978   7.991
  827POPC   C4B13054  25.657  40.629   7.723
  828POPC   NC313055  15.045  25.660   9.542
  828POPC   PO413056  15.218  26.312   9.724
  828POPC   GL113057  15.028  26.282   9.285
  828POPC   GL213058  15.043  25.934   9.089
  828POPC   C1A13059  15.139  26.376   8.848
  828POPC   D2A13060  15.162  26.132   8.470
  828POPC   C3A13061  15.369  26.197   8.085
  828POPC   C4A13062  15.123  26.104   7.710
  828POPC   C1B13063  15.276  25.715   8.739
  828POPC   C2B13064  15.171  25.501   8.347
  828POPC   C3B13065  15.141  25.628   7.895
  828POPC   C4B13066  15.487  25.770   7.582
  829POPC   NC313067  29.207   1.457   9.556
  829POPC   PO413068  28.900   2.192   9.491
  829POPC   GL113069  28.953   1.803   9.235
  829POPC   GL213070  29.296   1.911   9.201
  829POPC   C1A13071  29.049   1.744   8.775
  829POPC   D2A13072  28.981   2.118   8.519
  829POPC   C3A13073  28.906   2.086   8.071
  829POPC   C4A13074  29.089   1.869   7.729
  829POPC   C1B13075  29.428   2.110   8.815
  829POPC   C2B13076  29.558   2.253   8.413
  829POPC   C3B13077  29.436   2.160   7.978
  829POPC   C4B13078  29.559   1.928   7.567
  830POPC   NC313079  32.693  12.447   9.714
  830POPC   PO413080  32.077  12.253   9.813
  830POPC   GL113081  32.279  12.208   9.385
  830POPC   GL213082  32.257  11.845   9.301
  830POPC   C1A13083  32.259  12.192   8.908
  830POPC   D2A13084  32.340  12.362   8.472
  830POPC   C3A13085  32.098  12.276   8.089
  830POPC   C4A13086  32.231  12.148   7.666
  830POPC   C1B13087  32.244  11.684   8.897
  830POPC   C2B13088  32.335  11.842   8.475
  830POPC   C3B13089  32.256  11.782   8.029
  830POPC   C4B13090  32.157  11.656   7.598
  831POPC   NC313091   5.659  26.585   9.447
  831POPC   PO413092   5.025  26.197   9.572
  831POPC   GL113093   5.152  26.029   9.195
  831POPC   GL213094   5.384  26.282   9.130
  831POPC   C1A13095   5.210  25.921   8.759
  831POPC   D2A13096   5.039  25.950   8.379
  831POPC   C3A13097   5.191  25.861   7.986
  831POPC   C4A13098   4.900  26.041   7.698
  831POPC   C1B13099   5.441  26.385   8.694
  831POPC   C2B13100   5.439  26.244   8.247
  831POPC   C3B13101   5.258  26.376   7.831
  831POPC   C4B13102   5.290  26.170   7.382
  832POPC   NC313103  31.594  22.388   9.578
  832POPC   PO413104  31.516  21.702   9.692
  832POPC   GL113105  31.375  21.950   9.298
  832POPC   GL213106  31.687  22.079   9.194
  832POPC   C1A13107  31.256  21.981   8.801
  832POPC   D2A13108  31.022  22.114   8.395
  832POPC   C3A13109  31.157  22.073   7.942
  832POPC   C4A13110  31.212  22.412   7.639
  832POPC   C1B13111  31.743  22.122   8.759
  832POPC   C2B13112  31.526  22.192   8.367
  832POPC   C3B13113  31.652  22.255   7.942
  832POPC   C4B13114  32.067  22.324   7.765
  833POPC   NC313115  27.520  41.874   9.359
  833POPC   PO413116  27.295  42.578   9.369
  833POPC   GL113117  27.524  42.317   9.088
  833POPC   GL213118  27.599  42.597   8.941
  833POPC   C1A13119  27.395  42.171   8.677
  833POPC   D2A13120  27.316  42.337   8.257
  833POPC   C3A13121  27.639  42.250   8.003
  833POPC   C4A13122  27.837  41.937   7.830
  833POPC   C1B13123  27.372  42.707   8.619
  833POPC   C2B13124  27.430  42.881   8.260
  833POPC   C3B13125  27.418  42.702   7.862
  833POPC   C4B13126  27.202  42.307   7.711
  834POPC   NC313127  27.822  40.888   9.283
  834POPC   PO413128  27.238  41.002   9.594
  834POPC   GL113129  27.346  40.842   9.108
  834POPC   GL213130  27.576  41.024   8.871
  834POPC   C1A13131  27.552  40.561   8.741
  834POPC   D2A13132  27.386  40.731   8.376
  834POPC   C3A13133  27.541  40.542   8.021
  834POPC   C4A13134  27.599  40.417   7.631
  834POPC   C1B13135  27.691  41.293   8.573
  834POPC   C2B13136  27.364  41.260   8.291
  834POPC   C3B13137  27.329  41.023   7.938
  834POPC   C4B13138  27.743  41.004   7.864
  835POPC   NC313139  20.747  21.801   9.526
  835POPC   PO413140  20.907  22.444   9.439
  835POPC   GL113141  20.700  22.154   9.161
  835POPC   GL213142  20.931  21.919   9.079
  835POPC   C1A13143  20.442  22.015   8.814
  835POPC   D2A13144  20.228  21.984   8.394
  835POPC   C3A13145  20.344  22.184   8.004
  835POPC   C4A13146  20.562  22.003   7.646
  835POPC   C1B13147  20.928  22.137   8.696
  835POPC   C2B13148  20.812  22.193   8.291
  835POPC   C3B13149  21.112  22.063   7.995
  835POPC   C4B13150  21.066  21.976   7.574
  836POPC   NC313151  13.835  19.801   9.183
  836POPC   PO413152  13.391  20.150   9.470
  836POPC   GL113153  13.366  19.965   9.097
  836POPC   GL213154  13.416  19.675   8.917
  836POPC   C1A13155  13.516  20.123   8.678
  836POPC   D2A13156  13.320  20.286   8.305
  836POPC   C3A13157  13.575  20.115   7.920
  836POPC   C4A13158  13.548  19.963   7.477
  836POPC   C1B13159  13.528  19.417   8.612
  836POPC   C2B13160  13.738  19.593   8.274
  836POPC   C3B13161  13.554  19.597   7.860
  836POPC   C4B13162  13.716  19.468   7.466
  837POPC   NC313163  27.356   6.958   9.405
  837POPC   PO413164  27.443   6.290   9.501
  837POPC   GL113165  27.573   6.563   9.130
  837POPC   GL213166  27.785   6.899   9.106
  837POPC   C1A13167  27.831   6.528   8.747
  837POPC   D2A13168  27.885   6.817   8.396
  837POPC   C3A13169  27.808   6.575   8.017
  837POPC   C4A13170  27.434   6.560   7.809
  837POPC   C1B13171  27.486   6.901   8.731
  837POPC   C2B13172  27.357   6.859   8.297
  837POPC   C3B13173  27.602   7.045   7.968
  837POPC   C4B13174  27.572   7.020   7.534
  838POPC   NC313175   1.485   9.734   9.429
  838POPC   PO413176   0.819   9.859   9.510
  838POPC   GL113177   1.024   9.584   9.184
  838POPC   GL213178   1.389   9.458   9.029
  838POPC   C1A13179   0.977   9.699   8.767
  838POPC   D2A13180   1.151   9.843   8.389
  838POPC   C3A13181   1.018   9.696   7.992
  838POPC   C4A13182   1.330   9.889   7.738
  838POPC   C1B13183   1.413   9.437   8.604
  838POPC   C2B13184   1.419   9.440   8.172
  838POPC   C3B13185   1.371   9.387   7.744
  838POPC   C4B13186   1.490   9.616   7.350
  839POPC   NC313187  42.613  27.765   9.410
  839POPC   PO413188  43.188  27.333   9.489
  839POPC   GL113189  42.940  27.450   9.127
  839POPC   GL213190  42.642  27.207   9.191
  839POPC   C1A13191  43.169  27.498   8.701
  839POPC   D2A13192  43.359  27.784   8.395
  839POPC   C3A13193  43.128  27.920   8.033
  839POPC   C4A13194  43.162  27.710   7.598
  839POPC   C1B13195  42.767  27.174   8.743
  839POPC   C2B13196  42.809  27.338   8.325
  839POPC   C3B13197  43.121  27.397   8.022
  839POPC   C4B13198  43.029  27.230   7.609
  840POPC   NC313199  40.026  43.523   9.452
  840POPC   PO413200  40.338  42.913   9.488
  840POPC   GL113201  40.176  42.728   9.097
  840POPC   GL213202  39.972  42.985   9.092
  840POPC   C1A13203  40.048  42.845   8.635
  840POPC   D2A13204  39.950  42.890   8.220
  840POPC   C3A13205  40.161  43.199   8.117
  840POPC   C4A13206  40.358  43.243   7.758
  840POPC   C1B13207  39.824  43.300   8.792
  840POPC   C2B13208  39.703  43.350   8.357
  840POPC   C3B13209  39.526  43.146   8.023
  840POPC   C4B13210  39.830  43.057   7.728
  841POPC   NC313211   9.793  27.065   9.507
  841POPC   PO413212   9.649  26.450   9.601
  841POPC   GL113213   9.870  26.661   9.174
  841POPC   GL213214  10.050  27.017   9.080
  841POPC   C1A13215   9.734  26.781   8.717
  841POPC   D2A13216   9.485  26.871   8.287
  841POPC   C3A13217   9.660  26.679   7.881
  841POPC   C4A13218   9.704  26.347   7.526
  841POPC   C1B13219  10.032  27.222   8.712
  841POPC   C2B13220   9.976  27.016   8.328
  841POPC   C3B13221  10.124  26.882   7.939
  841POPC   C4B13222  10.317  27.177   7.738
  842POPC   NC313223   5.111   2.167   9.502
  842POPC   PO413224   4.948   1.483   9.517
  842POPC   GL113225   5.130   1.771   9.204
  842POPC   GL213226   4.810   1.934   9.105
  842POPC   C1A13227   5.243   1.998   8.821
  842POPC   D2A13228   4.912   2.082   8.514
  842POPC   C3A13229   5.067   2.065   8.125
  842POPC   C4A13230   5.048   2.212   7.749
  842POPC   C1B13231   4.871   1.628   8.766
  842POPC   C2B13232   5.060   1.584   8.356
  842POPC   C3B13233   4.843   1.639   7.992
  842POPC   C4B13234   4.520   1.530   7.805
  843POPC   NC313235   1.249  24.839   9.437
  843POPC   PO413236   1.054  24.194   9.455
  843POPC   GL113237   1.087  24.475   9.115
  843POPC   GL213238   1.449  24.548   9.062
  843POPC   C1A13239   1.011  24.591   8.704
  843POPC   D2A13240   1.213  24.759   8.339
  843POPC   C3A13241   1.076  24.606   7.933
  843POPC   C4A13242   1.257  24.441   7.532
  843POPC   C1B13243   1.482  24.330   8.653
  843POPC   C2B13244   1.475  24.308   8.197
  843POPC   C3B13245   1.687  24.437   7.819
  843POPC   C4B13246   1.778  24.443   7.365
  844POPC   NC313247  37.102   9.726   9.655
  844POPC   PO413248  36.587  10.168   9.633
  844POPC   GL113249  36.732   9.820   9.285
  844POPC   GL213250  36.911   9.457   9.279
  844POPC   C1A13251  36.976   9.800   8.885
  844POPC   D2A13252  37.076   9.950   8.461
  844POPC   C3A13253  36.947   9.819   8.063
  844POPC   C4A13254  37.115   9.901   7.660
  844POPC   C1B13255  36.704   9.353   8.892
  844POPC   C2B13256  36.766   9.490   8.495
  844POPC   C3B13257  36.848   9.322   8.113
  844POPC   C4B13258  37.046   9.409   7.715
  845POPC   NC313259  42.343  30.414   9.594
  845POPC   PO413260  42.509  31.023   9.331
  845POPC   GL113261  42.159  30.831   9.237
  845POPC   GL213262  42.316  30.564   9.121
  845POPC   C1A13263  42.079  30.848   8.789
  845POPC   D2A13264  42.384  30.916   8.466
  845POPC   C3A13265  42.214  31.082   8.094
  845POPC   C4A13266  42.311  30.958   7.696
  845POPC   C1B13267  42.295  30.330   8.771
  845POPC   C2B13268  42.513  30.380   8.417
  845POPC   C3B13269  42.370  30.553   8.057
  845POPC   C4B13270  42.600  30.464   7.691
  846POPC   NC313271  19.207   0.651   9.850
  846POPC   PO413272  19.058   1.173   9.474
  846POPC   GL113273  19.080   1.256   9.073
  846POPC   GL213274  19.377   1.482   9.074
  846POPC   C1A13275  19.130   1.232   8.656
  846POPC   D2A13276  19.333   1.397   8.340
  846POPC   C3A13277  19.136   1.330   7.957
  846POPC   C4A13278  19.100   1.583   7.633
  846POPC   C1B13279  19.592   1.182   8.820
  846POPC   C2B13280  19.564   0.933   8.455
  846POPC   C3B13281  19.567   1.058   8.027
  846POPC   C4B13282  19.459   1.123   7.589
  847POPC   NC313283  44.780  24.016   9.305
  847POPC   PO413284  44.500  24.499   9.683
  847POPC   GL113285  44.502  24.467   9.183
  847POPC   GL213286  44.343  24.178   9.041
  847POPC   C1A13287  44.817  24.424   8.790
  847POPC   D2A13288  44.798  24.566   8.381
  847POPC   C3A13289   0.097  24.469   8.056
  847POPC   C4A13290  44.925  24.491   7.639
  847POPC   C1B13291  44.317  24.494   8.715
  847POPC   C2B13292  44.332  24.343   8.304
  847POPC   C3B13293  44.530  24.449   7.938
  847POPC   C4B13294  44.436  24.605   7.521
  848POPC   NC313295  34.059  33.112   9.493
  848POPC   PO413296  33.703  32.557   9.840
  848POPC   GL113297  33.706  32.787   9.350
  848POPC   GL213298  34.022  32.746   9.139
  848POPC   C1A13299  33.630  32.915   8.861
  848POPC   D2A13300  33.646  33.232   8.502
  848POPC   C3A13301  33.579  33.075   8.056
  848POPC   C4A13302  33.659  32.997   7.607
  848POPC   C1B13303  34.132  32.991   8.741
  848POPC   C2B13304  34.023  32.949   8.306
  848POPC   C3B13305  34.094  33.029   7.869
  848POPC   C4B13306  34.155  32.778   7.486
  849POPC   NC313307  43.790  12.421   9.505
  849POPC   PO413308  44.300  12.908   9.448
  849POPC   GL113309  44.129  12.627   9.111
  849POPC   GL213310  43.784  12.739   9.067
  849POPC   C1A13311  44.002  12.627   8.645
  849POPC   D2A13312  43.803  12.836   8.311
  849POPC   C3A13313  44.022  12.882   7.923
  849POPC   C4A13314  44.287  12.768   7.598
  849POPC   C1B13315  43.717  13.087   8.748
  849POPC   C2B13316  43.527  13.255   8.321
  849POPC   C3B13317  43.584  13.135   7.850
  849POPC   C4B13318  43.459  13.146   7.381
  850POPC   NC313319  24.977  42.702   9.477
  850POPC   PO413320  25.319  42.129   9.490
  850POPC   GL113321  25.118  42.324   9.132
  850POPC   GL213322  24.985  42.051   9.040
  850POPC   C1A13323  25.188  42.358   8.653
  850POPC   D2A13324  25.421  42.422   8.228
  850POPC   C3A13325  25.180  42.398   7.855
  850POPC   C4A13326  24.876  42.644   7.634
  850POPC   C1B13327  25.100  41.847   8.681
  850POPC   C2B13328  25.159  41.993   8.290
  850POPC   C3B13329  25.191  41.892   7.939
  850POPC   C4B13330  24.988  42.003   7.596
  851POPC   NC313331   3.766  44.942   9.449
  851POPC   PO413332   3.303  44.433   9.469
  851POPC   GL113333   3.609  44.492   9.186
  851POPC   GL213334   3.427  44.796   9.083
  851POPC   C1A13335   3.774  44.514   8.769
  851POPC   D2A13336   3.643  44.648   8.357
  851POPC   C3A13337   3.615  44.387   7.981
  851POPC   C4A13338   3.606  44.502   7.545
  851POPC   C1B13339   3.160  44.906   8.728
  851POPC   C2B13340   3.196   0.008   8.280
  851POPC   C3B13341   3.493  44.910   7.933
  851POPC   C4B13342   3.904  44.876   7.707
  852POPC   NC313343  18.038  14.586   9.415
  852POPC   PO413344  18.573  14.092   9.398
  852POPC   GL113345  18.297  14.272   9.112
  852POPC   GL213346  18.392  14.567   8.934
  852POPC   C1A13347  18.193  14.108   8.739
  852POPC   D2A13348  18.343  14.027   8.370
  852POPC   C3A13349  18.352  14.341   8.100
  852POPC   C4A13350  18.319  14.265   7.666
  852POPC   C1B13351  17.936  14.550   8.752
  852POPC   C2B13352  17.741  14.690   8.348
  852POPC   C3B13353  17.914  14.743   7.908
  852POPC   C4B13354  17.953  14.565   7.474
  853POPC   NC313355   5.661  28.861   9.443
  853POPC   PO413356   6.148  29.354   9.435
  853POPC   GL113357   5.800  29.218   9.083
  853POPC   GL213358   5.555  28.923   8.963
  853POPC   C1A13359   5.771  29.233   8.602
  853POPC   D2A13360   6.113  29.397   8.314
  853POPC   C3A13361   6.187  29.194   7.889
  853POPC   C4A13362   6.053  29.178   7.441
  853POPC   C1B13363   5.773  28.717   8.576
  853POPC   C2B13364   5.802  28.928   8.156
  853POPC   C3B13365   5.628  29.019   7.740
  853POPC   C4B13366   5.582  29.053   7.261
  854POPC   NC313367  34.387  24.532   9.544
  854POPC   PO413368  34.942  24.222   9.594
  854POPC   GL113369  34.754  24.357   9.161
  854POPC   GL213370  34.562  24.685   9.095
  854POPC   C1A13371  34.831  24.478   8.697
  854POPC   D2A13372  35.057  24.404   8.301
  854POPC   C3A13373  34.895  24.489   7.925
  854POPC   C4A13374  34.498  24.279   7.752
  854POPC   C1B13375  34.334  24.566   8.721
  854POPC   C2B13376  34.476  24.467   8.288
  854POPC   C3B13377  34.470  24.743   7.933
  854POPC   C4B13378  34.207  24.933   7.667
  855POPC   NC313379  10.684  39.156   9.711
  855POPC   PO413380  10.209  39.550   9.437
  855POPC   GL113381  10.467  39.250   9.187
  855POPC   GL213382  10.812  39.120   9.231
  855POPC   C1A13383  10.333  39.138   8.784
  855POPC   D2A13384  10.350  39.403   8.428
  855POPC   C3A13385  10.228  39.237   8.055
  855POPC   C4A13386  10.370  39.047   7.704
  855POPC   C1B13387  10.950  39.335   8.903
  855POPC   C2B13388  10.858  39.341   8.493
  855POPC   C3B13389  10.755  39.305   8.063
  855POPC   C4B13390  10.968  39.060   7.755
  856POPC   NC313391  21.124   9.378   9.534
  856POPC   PO413392  21.631   8.917   9.492
  856POPC   GL113393  21.491   8.888   9.117
  856POPC   GL213394  21.191   9.061   9.124
  856POPC   C1A13395  21.407   8.776   8.731
  856POPC   D2A13396  21.349   9.065   8.438
  856POPC   C3A13397  21.456   8.924   8.077
  856POPC   C4A13398  21.587   8.672   7.758
  856POPC   C1B13399  21.063   9.309   8.795
  856POPC   C2B13400  21.068   9.522   8.392
  856POPC   C3B13401  21.114   9.310   7.998
  856POPC   C4B13402  21.120   8.964   7.696
  857POPC   NC313403  43.449   3.009   9.537
  857POPC   PO413404  43.961   2.540   9.495
  857POPC   GL113405  43.842   2.778   9.165
  857POPC   GL213406  44.148   2.637   9.023
  857POPC   C1A13407  43.793   3.016   8.797
  857POPC   D2A13408  43.681   2.883   8.352
  857POPC   C3A13409  43.780   3.104   7.974
  857POPC   C4A13410  43.725   2.798   7.686
  857POPC   C1B13411  44.082   2.659   8.588
  857POPC   C2B13412  44.175   2.814   8.171
  857POPC   C3B13413  44.353   2.598   7.830
  857POPC   C4B13414  44.026   2.352   7.726
  858POPC   NC313415   7.193   7.951   9.485
  858POPC   PO413416   7.635   8.425   9.469
  858POPC   GL113417   7.471   8.242   9.140
  858POPC   GL213418   7.548   7.908   9.106
  858POPC   C1A13419   7.594   8.320   8.726
  858POPC   D2A13420   7.395   8.342   8.353
  858POPC   C3A13421   7.534   8.117   8.019
  858POPC   C4A13422   7.466   7.992   7.605
  858POPC   C1B13423   7.199   8.005   8.778
  858POPC   C2B13424   7.219   7.861   8.342
  858POPC   C3B13425   7.066   7.932   7.927
  858POPC   C4B13426   7.006   7.749   7.538
  859POPC   NC313427   0.649  24.497   9.425
  859POPC   PO413428  44.942  24.467   9.398
  859POPC   GL113429   0.248  24.375   9.119
  859POPC   GL213430   0.339  24.692   9.062
  859POPC   C1A13431   0.580  24.292   8.802
  859POPC   D2A13432   0.417  24.209   8.394
  859POPC   C3A13433   0.589  24.263   8.010
  859POPC   C4A13434   0.398  24.331   7.633
  859POPC   C1B13435   0.258  24.648   8.633
  859POPC   C2B13436   0.620  24.691   8.372
  859POPC   C3B13437   0.578  24.763   7.966
  859POPC   C4B13438   0.265  24.862   7.680
  860POPC   NC313439  22.443  32.336   9.576
  860POPC   PO413440  21.882  32.350   9.299
  860POPC   GL113441  22.239  32.161   9.134
  860POPC   GL213442  22.438  32.462   9.087
  860POPC   C1A13443  22.116  32.016   8.754
  860POPC   D2A13444  22.265  32.080   8.363
  860POPC   C3A13445  21.960  32.097   8.089
  860POPC   C4A13446  22.080  31.961   7.729
  860POPC   C1B13447  22.266  32.501   8.680
  860POPC   C2B13448  22.098  32.575   8.261
  860POPC   C3B13449  22.265  32.426   7.848
  860POPC   C4B13450  22.353  32.626   7.440
  861POPC   NC313451   0.279   5.215   9.546
  861POPC   PO413452   0.438   4.610   9.768
  861POPC   GL113453   0.460   4.786   9.325
  861POPC   GL213454   0.726   5.060   9.255
  861POPC   C1A13455   0.404   4.973   8.881
  861POPC   D2A13456   0.423   4.803   8.484
  861POPC   C3A13457   0.395   5.063   8.138
  861POPC   C4A13458   0.390   5.104   7.717
  861POPC   C1B13459   0.910   4.926   8.813
  861POPC   C2B13460   0.903   4.704   8.382
  861POPC   C3B13461   0.718   4.689   7.960
  861POPC   C4B13462   0.741   4.839   7.506
  862POPC   NC313463  37.162  44.523   9.278
  862POPC   PO413464  37.004   0.100   9.541
  862POPC   GL113465  36.718   0.015   9.146
  862POPC   GL213466  36.672  44.652   9.108
  862POPC   C1A13467  36.690  44.913   8.646
  862POPC   D2A13468  36.716  44.932   8.142
  862POPC   C3A13469  37.069  44.760   7.893
  862POPC   C4A13470  37.463  44.940   7.768
  862POPC   C1B13471  36.620  44.403   8.699
  862POPC   C2B13472  36.701  44.240   8.303
  862POPC   C3B13473  36.654  44.453   7.947
  862POPC   C4B13474  36.648  44.715   7.614
  863POPC   NC313475   9.230  31.038   9.378
  863POPC   PO413476   9.707  31.513   9.699
  863POPC   GL113477   9.499  31.470   9.294
  863POPC   GL213478   9.408  31.753   9.125
  863POPC   C1A13479   9.640  31.303   8.870
  863POPC   D2A13480   9.981  31.186   8.572
  863POPC   C3A13481   9.932  31.370   8.164
  863POPC   C4A13482   9.833  31.407   7.768
  863POPC   C1B13483   9.389  31.738   8.726
  863POPC   C2B13484   9.525  31.542   8.405
  863POPC   C3B13485   9.450  31.694   8.001
  863POPC   C4B13486   9.507  31.764   7.554
  864POPC   NC313487  18.781  31.967   9.271
  864POPC   PO413488  18.333  32.339   9.609
  864POPC   GL113489  18.308  32.223   9.220
  864POPC   GL213490  18.288  31.874   9.227
  864POPC   C1A13491  18.207  32.400   8.847
  864POPC   D2A13492  18.216  32.242   8.415
  864POPC   C3A13493  18.402  32.432   8.034
  864POPC   C4A13494  18.199  32.447   7.638
  864POPC   C1B13495  18.312  31.892   8.813
  864POPC   C2B13496  18.488  31.818   8.433
  864POPC   C3B13497  18.353  31.924   8.027
  864POPC   C4B13498  18.547  31.746   7.721
  865POPC   NC313499  24.695   4.958   9.290
  865POPC   PO413500  25.231   5.166   9.597
  865POPC   GL113501  25.177   5.152   9.170
  865POPC   GL213502  25.550   5.100   9.092
  865POPC   C1A13503  25.096   5.313   8.752
  865POPC   D2A13504  25.282   5.137   8.383
  865POPC   C3A13505  25.434   5.312   8.049
  865POPC   C4A13506  25.150   5.239   7.773
  865POPC   C1B13507  25.421   4.865   8.773
  865POPC   C2B13508  25.500   4.657   8.384
  865POPC   C3B13509  25.339   4.783   7.985
  865POPC   C4B13510  25.370   4.830   7.535
  866POPC   NC313511  41.186   7.791   9.340
  866POPC   PO413512  41.552   8.322   9.571
  866POPC   GL113513  41.508   8.153   9.160
  866POPC   GL213514  41.138   8.225   9.087
  866POPC   C1A13515  41.755   8.187   8.758
  866POPC   D2A13516  41.937   8.367   8.355
  866POPC   C3A13517  41.838   8.238   7.913
  866POPC   C4A13518  41.612   8.513   7.605
  866POPC   C1B13519  41.274   7.983   8.705
  866POPC   C2B13520  41.495   8.082   8.321
  866POPC   C3B13521  41.341   8.228   7.940
  866POPC   C4B13522  41.244   7.872   7.739
  867POPC   NC313523   3.289  26.813   9.494
  867POPC   PO413524   3.881  27.140   9.509
  867POPC   GL113525   3.712  26.885   9.155
  867POPC   GL213526   3.430  26.695   9.020
  867POPC   C1A13527   3.906  26.645   8.792
  867POPC   D2A13528   3.865  26.764   8.345
  867POPC   C3A13529   3.511  26.617   8.072
  867POPC   C4A13530   3.513  26.684   7.637
  867POPC   C1B13531   3.559  27.027   8.696
  867POPC   C2B13532   3.450  27.079   8.283
  867POPC   C3B13533   3.537  27.177   7.873
  867POPC   C4B13534   3.556  27.159   7.437
  868POPC   NC313535  14.559  23.660   9.557
  868POPC   PO413536  13.854  23.720   9.534
  868POPC   GL113537  14.182  23.735   9.162
  868POPC   GL213538  14.511  23.597   9.067
  868POPC   C1A13539  14.276  23.891   8.730
  868POPC   D2A13540  14.270  24.086   8.315
  868POPC   C3A13541  14.380  23.726   8.055
  868POPC   C4A13542  14.186  23.507   7.723
  868POPC   C1B13543  14.889  23.343   8.891
  868POPC   C2B13544  15.022  23.430   8.471
  868POPC   C3B13545  14.803  23.396   8.079
  868POPC   C4B13546  14.631  23.266   7.704
  869POPC   NC313547   0.911   1.864   9.638
  869POPC   PO413548   1.483   2.170   9.551
  869POPC   GL113549   1.297   1.873   9.270
  869POPC   GL213550   1.056   2.136   9.207
  869POPC   C1A13551   1.089   1.719   8.888
  869POPC   D2A13552   1.154   1.545   8.482
  869POPC   C3A13553   1.150   1.838   8.144
  869POPC   C4A13554   1.223   1.738   7.734
  869POPC   C1B13555   0.835   2.180   8.814
  869POPC   C2B13556   0.853   2.359   8.396
  869POPC   C3B13557   0.780   2.183   8.002
  869POPC   C4B13558   1.032   2.204   7.654
  870POPC   NC313559  23.233  17.892   9.338
  870POPC   PO413560  22.927  17.428   9.758
  870POPC   GL113561  22.790  17.606   9.326
  870POPC   GL213562  22.800  17.278   9.178
  870POPC   C1A13563  22.834  17.632   8.824
  870POPC   D2A13564  22.591  17.831   8.476
  870POPC   C3A13565  22.721  17.747   8.067
  870POPC   C4A13566  22.902  17.499   7.757
  870POPC   C1B13567  22.599  17.150   8.804
  870POPC   C2B13568  22.685  17.318   8.394
  870POPC   C3B13569  22.663  17.100   7.986
  870POPC   C4B13570  22.766  17.056   7.539
  871POPC   NC313571   9.468   8.014   9.631
  871POPC   PO413572   9.932   8.524   9.473
  871POPC   GL113573   9.676   8.317   9.217
  871POPC   GL213574   9.616   7.965   9.165
  871POPC   C1A13575   9.665   8.287   8.782
  871POPC   D2A13576   9.484   8.439   8.420
  871POPC   C3A13577   9.718   8.307   8.073
  871POPC   C4A13578   9.628   8.487   7.712
  871POPC   C1B13579   9.489   7.806   8.781
  871POPC   C2B13580   9.679   7.566   8.471
  871POPC   C3B13581   9.693   7.782   8.101
  871POPC   C4B13582   9.439   7.969   7.806
  872POPC   NC313583  30.366  18.964   9.345
  872POPC   PO413584  31.046  18.880   9.375
  872POPC   GL113585  30.777  19.141   9.101
  872POPC   GL213586  31.049  19.206   8.931
  872POPC   C1A13587  30.573  19.176   8.705
  872POPC   D2A13588  30.400  19.018   8.282
  872POPC   C3A13589  30.564  19.138   7.858
  872POPC   C4A13590  30.689  19.169   7.422
  872POPC   C1B13591  30.985  18.905   8.623
  872POPC   C2B13592  30.932  19.041   8.202
  872POPC   C3B13593  31.054  18.957   7.770
  872POPC   C4B13594  31.153  19.021   7.300
  873POPC   NC313595  18.599  44.420   9.757
  873POPC   PO413596  18.320   0.006   9.457
  873POPC   GL113597  18.194  44.759   9.131
  873POPC   GL213598  17.983  44.475   9.184
  873POPC   C1A13599  18.102  44.819   8.721
  873POPC   D2A13600  18.248  44.963   8.313
  873POPC   C3A13601  18.059  44.839   7.934
  873POPC   C4A13602  18.290  44.567   7.687
  873POPC   C1B13603  17.962  44.308   8.764
  873POPC   C2B13604  17.942  44.509   8.341
  873POPC   C3B13605  17.912  44.332   7.947
  873POPC   C4B13606  18.001  44.167   7.548
  874POPC   NC313607  37.787  39.969   9.706
  874POPC   PO413608  37.966  39.500   9.305
  874POPC   GL113609  37.730  39.900   9.175
  874POPC   GL213610  37.425  39.813   8.982
  874POPC   C1A13611  37.657  40.204   8.780
  874POPC   D2A13612  37.735  40.115   8.354
  874POPC   C3A13613  37.416  40.258   8.072
  874POPC   C4A13614  37.553  40.431   7.668
  874POPC   C1B13615  37.824  39.738   8.713
  874POPC   C2B13616  37.937  39.475   8.389
  874POPC   C3B13617  38.025  39.663   8.026
  874POPC   C4B13618  37.812  40.032   7.841
  875POPC   NC313619  17.758  35.273   9.295
  875POPC   PO413620  17.236  35.655   9.479
  875POPC   GL113621  17.401  35.604   9.061
  875POPC   GL213622  17.741  35.700   9.020
  875POPC   C1A13623  17.379  35.259   8.734
  875POPC   D2A13624  17.537  35.235   8.320
  875POPC   C3A13625  17.518  35.111   7.916
  875POPC   C4A13626  17.159  35.319   7.808
  875POPC   C1B13627  17.857  35.477   8.628
  875POPC   C2B13628  17.910  35.519   8.152
  875POPC   C3B13629  17.623  35.613   7.807
  875POPC   C4B13630  17.735  35.666   7.363
  876POPC   NC313631   0.115  27.265   9.473
  876POPC   PO413632   0.749  26.858   9.470
  876POPC   GL113633   0.542  26.707   9.130
  876POPC   GL213634   0.455  27.058   9.094
  876POPC   C1A13635   0.638  26.791   8.695
  876POPC   D2A13636   0.587  27.041   8.317
  876POPC   C3A13637   0.539  26.737   8.001
  876POPC   C4A13638   0.751  26.436   7.771
  876POPC   C1B13639   0.159  26.978   8.805
  876POPC   C2B13640   0.129  26.835   8.391
  876POPC   C3B13641   0.149  27.065   8.009
  876POPC   C4B13642   0.101  26.752   7.711
  877POPC   NC313643  14.060  25.750   9.392
  877POPC   PO413644  14.684  25.933   9.454
  877POPC   GL113645  14.480  25.806   9.093
  877POPC   GL213646  14.307  26.128   9.113
  877POPC   C1A13647  14.258  25.864   8.699
  877POPC   D2A13648  14.335  26.185   8.404
  877POPC   C3A13649  14.473  25.961   8.053
  877POPC   C4A13650  14.612  25.808   7.652
  877POPC   C1B13651  14.630  26.387   8.933
  877POPC   C2B13652  14.750  26.458   8.508
  877POPC   C3B13653  14.866  26.357   8.101
  877POPC   C4B13654  14.648  26.321   7.729
  878POPC   NC313655  28.110  33.111   9.419
  878POPC   PO413656  28.555  32.633   9.506
  878POPC   GL113657  28.569  32.761   9.072
  878POPC   GL213658  28.590  33.121   9.097
  878POPC   C1A13659  28.312  32.943   8.714
  878POPC   D2A13660  28.136  33.167   8.353
  878POPC   C3A13661  28.292  33.008   7.967
  878POPC   C4A13662  28.520  32.638   7.779
  878POPC   C1B13663  28.653  33.347   8.742
  878POPC   C2B13664  28.544  33.502   8.343
  878POPC   C3B13665  28.647  33.421   7.928
  878POPC   C4B13666  28.563  33.179   7.554
  879POPC   NC313667   1.930  27.001   9.679
  879POPC   PO413668   1.815  26.380   9.459
  879POPC   GL113669   2.059  26.700   9.205
  879POPC   GL213670   1.984  27.074   9.173
  879POPC   C1A13671   2.243  26.780   8.794
  879POPC   D2A13672   2.347  26.606   8.371
  879POPC   C3A13673   2.211  26.829   7.964
  879POPC   C4A13674   1.799  26.788   7.791
  879POPC   C1B13675   1.819  27.122   8.761
  879POPC   C2B13676   1.975  27.143   8.331
  879POPC   C3B13677   1.805  27.281   7.928
  879POPC   C4B13678   1.822  27.179   7.462
  880POPC   NC313679  20.978  39.712   9.854
  880POPC   PO413680  21.549  39.958   9.624
  880POPC   GL113681  21.349  39.992   9.218
  880POPC   GL213682  21.127  40.283   9.086
  880POPC   C1A13683  21.319  39.875   8.803
  880POPC   D2A13684  21.367  40.115   8.422
  880POPC   C3A13685  21.514  39.870   8.099
  880POPC   C4A13686  21.476  39.792   7.669
  880POPC   C1B13687  20.914  40.179   8.692
  880POPC   C2B13688  20.884  40.086   8.230
  880POPC   C3B13689  21.218  40.253   7.917
  880POPC   C4B13690  21.659  40.247   7.786
  881POPC   NC313691  41.193  10.481   9.444
  881POPC   PO413692  40.450  10.258   9.414
  881POPC   GL113693  40.793  10.349   9.147
  881POPC   GL213694  40.742  10.704   9.145
  881POPC   C1A13695  41.058  10.466   8.775
  881POPC   D2A13696  41.234  10.510   8.351
  881POPC   C3A13697  41.010  10.226   8.079
  881POPC   C4A13698  40.801  10.217   7.671
  881POPC   C1B13699  40.729  10.869   8.726
  881POPC   C2B13700  40.723  10.656   8.346
  881POPC   C3B13701  40.807  10.690   7.913
  881POPC   C4B13702  40.494  10.629   7.589
  882POPC   NC313703  28.104   3.185   9.471
  882POPC   PO413704  28.306   2.464   9.450
  882POPC   GL113705  28.344   2.684   9.081
  882POPC   GL213706  28.561   2.951   9.035
  882POPC   C1A13707  28.279   2.784   8.649
  882POPC   D2A13708  28.387   2.933   8.278
  882POPC   C3A13709  28.143   2.674   8.083
  882POPC   C4A13710  28.029   2.610   7.689
  882POPC   C1B13711  28.766   2.679   8.724
  882POPC   C2B13712  28.632   2.477   8.325
  882POPC   C3B13713  28.621   2.544   7.901
  882POPC   C4B13714  28.433   2.916   7.752
  883POPC   NC313715   5.564  32.616   9.321
  883POPC   PO413716   5.764  33.216   9.559
  883POPC   GL113717   5.889  33.030   9.205
  883POPC   GL213718   6.101  33.337   9.166
  883POPC   C1A13719   5.920  32.816   8.786
  883POPC   D2A13720   5.869  32.625   8.411
  883POPC   C3A13721   5.999  32.867   8.104
  883POPC   C4A13722   5.957  33.010   7.711
  883POPC   C1B13723   5.827  33.371   8.839
  883POPC   C2B13724   5.837  33.502   8.442
  883POPC   C3B13725   5.721  33.315   8.076
  883POPC   C4B13726   5.626  33.603   7.781
  884POPC   NC313727  18.291  21.582   9.425
  884POPC   PO413728  18.315  22.231   9.666
  884POPC   GL113729  18.153  22.209   9.215
  884POPC   GL213730  18.050  21.885   9.104
  884POPC   C1A13731  18.272  22.250   8.803
  884POPC   D2A13732  18.410  22.258   8.408
  884POPC   C3A13733  18.112  22.269   8.119
  884POPC   C4A13734  18.072  22.319   7.717
  884POPC   C1B13735  18.258  21.720   8.766
  884POPC   C2B13736  18.142  21.799   8.381
  884POPC   C3B13737  18.408  21.846   8.094
  884POPC   C4B13738  18.441  21.803   7.717
  885POPC   NC313739   9.246  20.151   9.538
  885POPC   PO413740   8.922  20.703   9.491
  885POPC   GL113741   8.865  20.605   9.075
  885POPC   GL213742   8.908  20.941   9.037
  885POPC   C1A13743   9.074  20.484   8.688
  885POPC   D2A13744   9.120  20.191   8.339
  885POPC   C3A13745   9.230  20.413   7.955
  885POPC   C4A13746   8.894  20.503   7.676
  885POPC   C1B13747   9.027  21.023   8.649
  885POPC   C2B13748   8.834  21.073   8.259
  885POPC   C3B13749   8.985  21.037   7.829
  885POPC   C4B13750   9.248  20.845   7.510
  886POPC   NC313751  42.023  23.630   9.653
  886POPC   PO413752  42.651  23.457   9.511
  886POPC   GL113753  42.303  23.716   9.242
  886POPC   GL213754  41.912  23.892   9.230
  886POPC   C1A13755  42.094  23.579   8.874
  886POPC   D2A13756  42.311  23.585   8.509
  886POPC   C3A13757  42.140  23.407   8.174
  886POPC   C4A13758  42.288  23.397   7.804
  886POPC   C1B13759  42.049  24.082   8.837
  886POPC   C2B13760  42.275  24.111   8.466
  886POPC   C3B13761  42.312  23.894   8.086
  886POPC   C4B13762  42.142  23.866   7.723
  887POPC   NC313763  36.457  29.101   9.459
  887POPC   PO413764  35.781  29.209   9.464
  887POPC   GL113765  35.963  29.181   9.108
  887POPC   GL213766  35.909  29.506   8.933
  887POPC   C1A13767  36.269  29.103   8.816
  887POPC   D2A13768  36.378  29.439   8.593
  887POPC   C3A13769  36.282  29.348   8.164
  887POPC   C4A13770  36.161  29.316   7.749
  887POPC   C1B13771  35.795  29.236   8.626
  887POPC   C2B13772  36.016  28.976   8.371
  887POPC   C3B13773  35.993  28.884   7.959
  887POPC   C4B13774  35.670  29.058   7.719
  888POPC   NC313775  42.941  25.192   9.560
  888POPC   PO413776  43.517  25.497   9.634
  888POPC   GL113777  43.364  25.604   9.196
  888POPC   GL213778  42.997  25.509   9.124
  888POPC   C1A13779  43.369  25.384   8.771
  888POPC   D2A13780  43.126  25.288   8.430
  888POPC   C3A13781  43.327  25.257   8.075
  888POPC   C4A13782  43.287  25.548   7.789
  888POPC   C1B13783  42.991  25.083   8.900
  888POPC   C2B13784  42.778  24.935   8.483
  888POPC   C3B13785  42.808  25.071   8.024
  888POPC   C4B13786  42.662  24.997   7.572
  889POPC   NC313787   3.931  28.243   9.897
  889POPC   PO413788   3.567  28.808   9.593
  889POPC   GL113789   3.582  28.588   9.127
  889POPC   GL213790   3.343  28.249   9.045
  889POPC   C1A13791   3.559  28.503   8.684
  889POPC   D2A13792   3.395  28.564   8.319
  889POPC   C3A13793   3.704  28.569   8.038
  889POPC   C4A13794   3.459  28.577   7.702
  889POPC   C1B13795   3.196  28.106   8.669
  889POPC   C2B13796   3.496  28.072   8.348
  889POPC   C3B13797   3.535  28.093   7.914
  889POPC   C4B13798   3.207  28.099   7.616
  890POPC   NC313799  25.790  26.085   9.497
  890POPC   PO413800  26.387  26.228   9.093
  890POPC   GL113801  26.019  26.046   9.026
  890POPC   GL213802  25.801  26.320   9.053
  890POPC   C1A13803  25.925  26.110   8.594
  890POPC   D2A13804  26.171  26.224   8.237
  890POPC   C3A13805  26.078  25.957   7.918
  890POPC   C4A13806  26.157  25.902   7.498
  890POPC   C1B13807  25.913  26.615   8.724
  890POPC   C2B13808  25.860  26.630   8.289
  890POPC   C3B13809  25.710  26.339   8.020
  890POPC   C4B13810  25.816  26.281   7.624
  891POPC   NC313811  37.067  17.651   9.720
  891POPC   PO413812  37.715  17.803   9.437
  891POPC   GL113813  37.733  17.599   9.036
  891POPC   GL213814  37.886  17.321   9.197
  891POPC   C1A13815  37.594  17.700   8.602
  891POPC   D2A13816  37.652  17.769   8.151
  891POPC   C3A13817  37.517  17.482   7.845
  891POPC   C4A13818  37.676  17.443   7.424
  891POPC   C1B13819  38.082  17.237   8.808
  891POPC   C2B13820  37.931  17.077   8.428
  891POPC   C3B13821  38.134  17.109   8.041
  891POPC   C4B13822  37.844  17.077   7.766
  892POPC   NC313823   7.489   2.948   9.417
  892POPC   PO413824   7.984   2.538   9.223
  892POPC   GL113825   7.715   2.802   8.994
  892POPC   GL213826   7.372   2.705   8.983
  892POPC   C1A13827   7.605   3.016   8.625
  892POPC   D2A13828   7.372   2.889   8.304
  892POPC   C3A13829   7.534   3.008   7.905
  892POPC   C4A13830   7.495   2.644   7.663
  892POPC   C1B13831   7.032   2.757   8.706
  892POPC   C2B13832   6.871   2.687   8.298
  892POPC   C3B13833   7.040   2.845   7.916
  892POPC   C4B13834   7.171   3.055   7.515
  893POPC   NC313835   7.016  18.582   9.435
  893POPC   PO413836   7.517  18.379   9.801
  893POPC   GL113837   7.393  18.242   9.292
  893POPC   GL213838   7.578  17.893   9.298
  893POPC   C1A13839   7.249  18.357   8.839
  893POPC   D2A13840   7.291  18.497   8.395
  893POPC   C3A13841   7.254  18.288   7.980
  893POPC   C4A13842   7.309  18.361   7.524
  893POPC   C1B13843   7.340  17.875   8.921
  893POPC   C2B13844   7.596  18.071   8.579
  893POPC   C3B13845   7.690  18.070   8.146
  893POPC   C4B13846   7.549  17.944   7.714
  894POPC   NC313847  13.075  21.575   9.457
  894POPC   PO413848  12.502  21.248   9.729
  894POPC   GL113849  12.681  21.258   9.280
  894POPC   GL213850  12.756  21.600   9.063
  894POPC   C1A13851  12.737  21.151   8.841
  894POPC   D2A13852  12.661  21.468   8.545
  894POPC   C3A13853  12.695  21.344   8.140
  894POPC   C4A13854  12.850  21.314   7.744
  894POPC   C1B13855  13.143  21.469   8.787
  894POPC   C2B13856  13.301  21.532   8.360
  894POPC   C3B13857  13.162  21.679   7.984
  894POPC   C4B13858  13.260  21.681   7.577
  895POPC   NC313859  29.603   8.249   9.467
  895POPC   PO413860  30.109   7.850   9.442
  895POPC   GL113861  30.122   8.001   9.061
  895POPC   GL213862  29.768   8.039   9.045
  895POPC   C1A13863  30.046   8.177   8.639
  895POPC   D2A13864  30.061   8.415   8.255
  895POPC   C3A13865  29.973   8.239   7.835
  895POPC   C4A13866  29.772   8.452   7.488
  895POPC   C1B13867  29.571   7.983   8.679
  895POPC   C2B13868  29.718   7.962   8.270
  895POPC   C3B13869  29.579   7.732   7.935
  895POPC   C4B13870  29.780   7.824   7.591
  896POPC   NC313871   3.555  16.058   9.600
  896POPC   PO413872   3.982  15.587   9.440
  896POPC   GL113873   3.772  15.916   9.130
  896POPC   GL213874   3.399  15.992   9.114
  896POPC   C1A13875   3.678  15.984   8.670
  896POPC   D2A13876   3.583  15.699   8.313
  896POPC   C3A13877   3.559  15.837   7.882
  896POPC   C4A13878   3.732  16.023   7.490
  896POPC   C1B13879   3.178  16.079   8.714
  896POPC   C2B13880   3.349  16.198   8.289
  896POPC   C3B13881   3.248  16.250   7.841
  896POPC   C4B13882   3.218  15.932   7.494
  897POPC   NC313883  27.926  38.112   9.549
  897POPC   PO413884  27.555  38.706   9.550
  897POPC   GL113885  27.551  38.420   9.133
  897POPC   GL213886  27.884  38.230   9.054
  897POPC   C1A13887  27.633  38.585   8.722
  897POPC   D2A13888  27.276  38.586   8.475
  897POPC   C3A13889  27.388  38.795   8.108
  897POPC   C4A13890  27.595  38.585   7.759
  897POPC   C1B13891  27.676  38.085   8.704
  897POPC   C2B13892  27.575  38.179   8.274
  897POPC   C3B13893  27.878  38.182   7.935
  897POPC   C4B13894  28.117  38.548   7.735
  898POPC   NC313895  16.414  29.504   9.352
  898POPC   PO413896  16.449  29.013   9.853
  898POPC   GL113897  16.644  28.861   9.342
  898POPC   GL213898  16.412  28.752   9.079
  898POPC   C1A13899  16.902  28.853   8.917
  898POPC   D2A13900  17.064  28.844   8.464
  898POPC   C3A13901  17.037  29.128   8.113
  898POPC   C4A13902  16.849  29.026   7.738
  898POPC   C1B13903  16.455  29.104   8.787
  898POPC   C2B13904  16.593  29.123   8.384
  898POPC   C3B13905  16.483  29.263   7.998
  898POPC   C4B13906  16.351  29.053   7.631
  899POPC   NC313907  16.083  36.433   9.498
  899POPC   PO413908  16.412  35.786   9.549
  899POPC   GL113909  16.164  35.924   9.203
  899POPC   GL213910  15.801  35.920   9.223
  899POPC   C1A13911  16.057  36.091   8.804
  899POPC   D2A13912  16.172  35.925   8.406
  899POPC   C3A13913  16.169  36.175   8.079
  899POPC   C4A13914  16.128  36.042   7.695
  899POPC   C1B13915  15.602  35.822   8.803
  899POPC   C2B13916  15.621  35.973   8.360
  899POPC   C3B13917  15.664  36.086   7.928
  899POPC   C4B13918  15.785  36.443   7.668
  900POPC   NC313919  15.073   5.579   9.632
  900POPC   PO413920  14.819   6.209   9.509
  900POPC   GL113921  14.929   6.008   9.121
  900POPC   GL213922  15.179   5.754   9.132
  900POPC   C1A13923  15.176   6.064   8.742
  900POPC   D2A13924  15.377   5.890   8.410
  900POPC   C3A13925  15.187   6.043   8.058
  900POPC   C4A13926  15.097   5.968   7.652
  900POPC   C1B13927  15.081   5.534   8.712
  900POPC   C2B13928  15.084   5.476   8.240
  900POPC   C3B13929  15.356   5.594   7.892
  900POPC   C4B13930  15.397   5.638   7.426
  901POPC   NC313931  24.385  10.894   9.639
  901POPC   PO413932  24.659  10.277   9.551
  901POPC   GL113933  24.362  10.448   9.258
  901POPC   GL213934  24.519  10.190   9.058
  901POPC   C1A13935  24.351  10.595   8.801
  901POPC   D2A13936  24.646  10.719   8.461
  901POPC   C3A13937  24.537  10.615   8.011
  901POPC   C4A13938  24.197  10.530   7.699
  901POPC   C1B13939  24.753  10.218   8.666
  901POPC   C2B13940  24.906  10.328   8.238
  901POPC   C3B13941  24.856  10.104   7.863
  901POPC   C4B13942  24.558   9.961   7.564
  902POPC   NC313943  10.789  28.709   9.625
  902POPC   PO413944  10.338  29.244   9.499
  902POPC   GL113945  10.466  29.087   9.150
  902POPC   GL213946  10.782  29.031   9.228
  902POPC   C1A13947  10.386  28.862   8.787
  902POPC   D2A13948  10.533  28.975   8.396
  902POPC   C3A13949  10.323  28.845   8.052
  902POPC   C4A13950  10.416  29.125   7.742
  902POPC   C1B13951  10.809  29.226   8.789
  902POPC   C2B13952  10.990  29.163   8.382
  902POPC   C3B13953  10.902  29.350   8.011
  902POPC   C4B13954  10.951  29.087   7.682
  903POPC   NC313955  34.654   4.337   9.522
  903POPC   PO413956  34.068   4.058   9.350
  903POPC   GL113957  34.316   4.392   9.114
  903POPC   GL213958  34.624   4.617   9.090
  903POPC   C1A13959  34.300   4.527   8.680
  903POPC   D2A13960  34.481   4.271   8.326
  903POPC   C3A13961  34.365   4.451   7.962
  903POPC   C4A13962  34.366   4.662   7.599
  903POPC   C1B13963  34.828   4.477   8.701
  903POPC   C2B13964  34.885   4.598   8.257
  903POPC   C3B13965  34.821   4.553   7.798
  903POPC   C4B13966  34.917   4.766   7.400
  904POPC   NC313967  14.782  17.701   9.423
  904POPC   PO413968  14.104  17.543   9.330
  904POPC   GL113969  14.483  17.375   9.115
  904POPC   GL213970  14.639  17.652   8.929
  904POPC   C1A13971  14.532  17.213   8.685
  904POPC   D2A13972  14.659  17.512   8.333
  904POPC   C3A13973  14.580  17.435   7.881
  904POPC   C4A13974  14.629  17.648   7.449
  904POPC   C1B13975  14.243  17.664   8.678
  904POPC   C2B13976  14.194  17.853   8.272
  904POPC   C3B13977  14.530  17.965   8.008
  904POPC   C4B13978  14.618  18.131   7.627
  905POPC   NC313979  27.686  11.579   9.244
  905POPC   PO413980  27.684  12.220   9.543
  905POPC   GL113981  27.740  12.084   9.146
  905POPC   GL213982  28.060  11.965   9.206
  905POPC   C1A13983  27.716  11.993   8.689
  905POPC   D2A13984  27.732  11.886   8.238
  905POPC   C3A13985  27.462  12.070   7.883
  905POPC   C4A13986  27.362  11.948   7.436
  905POPC   C1B13987  28.133  12.293   8.881
  905POPC   C2B13988  28.102  12.227   8.426
  905POPC   C3B13989  27.948  12.263   7.968
  905POPC   C4B13990  27.884  12.069   7.532
  906POPC   NC313991  24.775  19.762   9.695
  906POPC   PO413992  25.402  19.845   9.376
  906POPC   GL113993  25.461  19.793   9.017
  906POPC   GL213994  25.237  20.038   8.924
  906POPC   C1A13995  25.491  19.456   8.760
  906POPC   D2A13996  25.407  19.304   8.362
  906POPC   C3A13997  25.495  19.564   8.044
  906POPC   C4A13998  25.326  19.661   7.677
  906POPC   C1B13999  24.872  20.012   8.672
  906POPC   C2B14000  24.862  20.126   8.251
  906POPC   C3B14001  24.991  19.990   7.869
  906POPC   C4B14002  25.012  19.984   7.393
  907POPC   NC314003  37.292   0.486   9.512
  907POPC   PO414004  37.944   0.516   9.502
  907POPC   GL114005  37.771   0.259   9.197
  907POPC   GL214006  37.574   0.537   9.049
  907POPC   C1A14007  37.861   0.239   8.747
  907POPC   D2A14008  37.781   0.536   8.391
  907POPC   C3A14009  37.782   0.338   7.975
  907POPC   C4A14010  37.691   0.360   7.552
  907POPC   C1B14011  37.325   0.660   8.671
  907POPC   C2B14012  37.147   0.731   8.284
  907POPC   C3B14013  37.393   0.665   7.942
  907POPC   C4B14014  37.578   0.873   7.653
  908POPC   NC314015  44.234   2.978   9.456
  908POPC   PO414016  43.712   3.464   9.531
  908POPC   GL114017  43.949   3.399   9.171
  908POPC   GL214018  44.229   3.190   9.007
  908POPC   C1A14019  43.733   3.525   8.817
  908POPC   D2A14020  43.835   3.366   8.425
  908POPC   C3A14021  43.754   3.606   8.107
  908POPC   C4A14022  43.688   3.543   7.692
  908POPC   C1B14023  44.224   3.529   8.720
  908POPC   C2B14024  44.257   3.667   8.290
  908POPC   C3B14025  44.171   3.505   7.864
  908POPC   C4B14026  44.102   3.577   7.395
  909POPC   NC314027  24.123  43.583   9.462
  909POPC   PO414028  23.417  43.483   9.356
  909POPC   GL114029  23.714  43.673   9.124
  909POPC   GL214030  23.802  43.981   9.260
  909POPC   C1A14031  23.643  43.863   8.745
  909POPC   D2A14032  23.452  44.007   8.372
  909POPC   C3A14033  23.561  43.822   7.987
  909POPC   C4A14034  23.514  43.630   7.582
  909POPC   C1B14035  24.082  44.063   8.890
  909POPC   C2B14036  23.997  44.026   8.421
  909POPC   C3B14037  24.069  43.848   8.021
  909POPC   C4B14038  23.857  44.003   7.600
  910POPC   NC314039  40.271  22.215   9.228
  910POPC   PO414040  39.676  22.195   9.237
  910POPC   GL114041  39.810  22.375   8.945
  910POPC   GL214042  39.507  22.567   8.904
  910POPC   C1A14043  40.014  22.195   8.603
  910POPC   D2A14044  40.011  22.316   8.189
  910POPC   C3A14045  39.864  22.027   7.896
  910POPC   C4A14046  40.179  21.741   7.804
  910POPC   C1B14047  39.760  22.668   8.533
  910POPC   C2B14048  39.662  22.652   8.102
  910POPC   C3B14049  39.855  22.542   7.720
  910POPC   C4B14050  39.890  22.582   7.279
  911POPC   NC314051  25.796  42.122   9.503
  911POPC   PO414052  26.316  42.389   9.292
  911POPC   GL114053  25.977  42.325   8.998
  911POPC   GL214054  25.611  42.202   9.052
  911POPC   C1A14055  26.168  42.435   8.611
  911POPC   D2A14056  26.359  42.228   8.275
  911POPC   C3A14057  26.306  42.454   7.910
  911POPC   C4A14058  26.020  42.707   7.659
  911POPC   C1B14059  25.624  42.041   8.674
  911POPC   C2B14060  25.851  42.141   8.305
  911POPC   C3B14061  25.804  42.275   7.874
  911POPC   C4B14062  25.508  42.103   7.612
  912POPC   NC314063   4.663  25.859   9.435
  912POPC   PO414064   4.098  26.180   9.334
  912POPC   GL114065   4.462  26.251   9.088
  912POPC   GL214066   4.667  25.960   8.941
  912POPC   C1A14067   4.353  26.273   8.658
  912POPC   D2A14068   4.569  26.139   8.335
  912POPC   C3A14069   4.315  26.173   8.004
  912POPC   C4A14070   4.349  26.247   7.625
  912POPC   C1B14071   4.267  25.785   8.793
  912POPC   C2B14072   4.114  25.868   8.378
  912POPC   C3B14073   4.329  25.670   8.026
  912POPC   C4B14074   4.530  25.722   7.607
  913POPC   NC314075  25.310  40.371   9.594
  913POPC   PO414076  25.129  39.716   9.646
  913POPC   GL114077  25.181  39.821   9.183
  913POPC   GL214078  25.500  39.937   9.112
  913POPC   C1A14079  24.919  39.813   8.785
  913POPC   D2A14080  25.018  39.520   8.442
  913POPC   C3A14081  24.889  39.642   8.036
  913POPC   C4A14082  25.047  40.010   7.843
  913POPC   C1B14083  25.298  40.134   8.762
  913POPC   C2B14084  25.268  40.047   8.345
  913POPC   C3B14085  25.478  40.219   7.992
  913POPC   C4B14086  25.566  39.845   7.825
  914POPC   NC314087   8.291  17.956   9.505
  914POPC   PO414088   7.853  18.392   9.353
  914POPC   GL114089   7.846  18.291   8.994
  914POPC   GL214090   8.227  18.347   8.992
  914POPC   C1A14091   7.701  18.574   8.697
  914POPC   D2A14092   7.825  18.703   8.319
  914POPC   C3A14093   8.127  18.461   8.085
  914POPC   C4A14094   8.050  18.094   7.785
  914POPC   C1B14095   8.101  18.281   8.560
  914POPC   C2B14096   8.206  17.987   8.263
  914POPC   C3B14097   8.518  17.953   7.962
  914POPC   C4B14098   8.591  18.364   7.847
  915POPC   NC314099   6.116  31.955   9.361
  915POPC   PO414100   5.978  31.257   9.480
  915POPC   GL114101   6.172  31.477   9.179
  915POPC   GL214102   5.837  31.583   9.099
  915POPC   C1A14103   6.210  31.463   8.766
  915POPC   D2A14104   5.903  31.463   8.468
  915POPC   C3A14105   5.998  31.522   8.063
  915POPC   C4A14106   5.789  31.353   7.719
  915POPC   C1B14107   5.766  31.857   8.776
  915POPC   C2B14108   5.861  32.020   8.394
  915POPC   C3B14109   5.647  31.896   8.037
  915POPC   C4B14110   5.773  31.866   7.621
  916POPC   NC314111   6.437  29.313   9.792
  916POPC   PO414112   6.949  28.964   9.812
  916POPC   GL114113   6.609  29.158   9.349
  916POPC   GL214114   6.369  28.971   9.193
  916POPC   C1A14115   6.699  29.257   8.881
  916POPC   D2A14116   6.641  29.334   8.441
  916POPC   C3A14117   6.954  29.198   8.138
  916POPC   C4A14118   6.762  29.255   7.743
  916POPC   C1B14119   6.219  29.090   8.800
  916POPC   C2B14120   6.255  28.915   8.418
  916POPC   C3B14121   6.559  28.897   8.103
  916POPC   C4B14122   6.532  28.795   7.698
  917POPC   NC314123  31.991  18.624   9.619
  917POPC   PO414124  32.484  19.011   9.489
  917POPC   GL114125  32.253  18.802   9.181
  917POPC   GL214126  31.987  19.028   9.084
  917POPC   C1A14127  32.379  18.956   8.768
  917POPC   D2A14128  32.265  19.008   8.359
  917POPC   C3A14129  32.363  19.317   8.046
  917POPC   C4A14130  32.454  19.118   7.689
  917POPC   C1B14131  31.914  19.226   8.680
  917POPC   C2B14132  31.815  19.142   8.226
  917POPC   C3B14133  31.961  19.176   7.775
  917POPC   C4B14134  31.854  19.346   7.338
  918POPC   NC314135  41.136  24.681   9.395
  918POPC   PO414136  40.599  24.235   9.473
  918POPC   GL114137  40.739  24.356   9.069
  918POPC   GL214138  41.050  24.207   8.973
  918POPC   C1A14139  40.555  24.617   8.769
  918POPC   D2A14140  40.316  24.783   8.434
  918POPC   C3A14141  40.507  24.596   8.092
  918POPC   C4A14142  40.402  24.769   7.741
  918POPC   C1B14143  41.082  24.615   8.728
  918POPC   C2B14144  40.952  24.773   8.288
  918POPC   C3B14145  40.933  24.744   7.792
  918POPC   C4B14146  41.168  24.775   7.356
  919POPC   NC314147  27.948  31.786   9.339
  919POPC   PO414148  27.456  31.286   9.465
  919POPC   GL114149  27.548  31.479   9.127
  919POPC   GL214150  27.856  31.342   9.119
  919POPC   C1A14151  27.315  31.651   8.741
  919POPC   D2A14152  27.155  31.517   8.355
  919POPC   C3A14153  27.276  31.710   7.987
  919POPC   C4A14154  27.500  31.977   7.728
  919POPC   C1B14155  27.698  31.276   8.703
  919POPC   C2B14156  27.663  31.479   8.328
  919POPC   C3B14157  27.634  31.349   7.915
  919POPC   C4B14158  27.834  31.588   7.618
  920POPC   NC314159  38.820   4.250   9.525
  920POPC   PO414160  38.878   4.835   9.398
  920POPC   GL114161  38.706   4.497   9.086
  920POPC   GL214162  38.474   4.197   9.139
  920POPC   C1A14163  38.622   4.328   8.666
  920POPC   D2A14164  38.613   4.584   8.318
  920POPC   C3A14165  38.464   4.402   7.976
  920POPC   C4A14166  38.715   4.263   7.686
  920POPC   C1B14167  38.165   4.121   8.781
  920POPC   C2B14168  38.130   4.314   8.364
  920POPC   C3B14169  37.997   4.168   7.947
  920POPC   C4B14170  38.018   4.061   7.500
  921POPC   NC314171  29.366  33.939   9.444
  921POPC   PO414172  28.862  33.492   9.453
  921POPC   GL114173  28.973  33.769   9.103
  921POPC   GL214174  29.276  33.785   8.974
  921POPC   C1A14175  28.876  33.787   8.637
  921POPC   D2A14176  29.063  33.867   8.225
  921POPC   C3A14177  28.884  33.855   7.804
  921POPC   C4A14178  28.981  33.923   7.384
  921POPC   C1B14179  29.222  33.447   8.659
  921POPC   C2B14180  29.032  33.348   8.306
  921POPC   C3B14181  29.148  33.428   7.903
  921POPC   C4B14182  29.000  33.419   7.502
  922POPC   NC314183   6.287  32.193   9.837
  922POPC   PO414184   5.683  32.186   9.443
  922POPC   GL114185   5.824  32.271   9.051
  922POPC   GL214186   6.090  32.466   9.130
  922POPC   C1A14187   5.567  32.342   8.693
  922POPC   D2A14188   5.470  32.335   8.256
  922POPC   C3A14189   5.823  32.382   7.974
  922POPC   C4A14190   6.206  32.516   7.800
  922POPC   C1B14191   6.193  32.336   8.708
  922POPC   C2B14192   6.282  32.304   8.269
  922POPC   C3B14193   6.153  32.011   7.958
  922POPC   C4B14194   6.264  31.940   7.551
  923POPC   NC314195  13.778   6.255   9.274
  923POPC   PO414196  13.320   6.692   9.386
  923POPC   GL114197  13.585   6.690   9.067
  923POPC   GL214198  13.465   6.400   8.895
  923POPC   C1A14199  13.908   6.672   8.754
  923POPC   D2A14200  13.868   6.574   8.331
  923POPC   C3A14201  13.652   6.911   8.140
  923POPC   C4A14202  13.642   7.090   7.725
  923POPC   C1B14203  13.219   6.211   8.575
  923POPC   C2B14204  13.081   6.135   8.152
  923POPC   C3B14205  12.997   6.366   7.829
  923POPC   C4B14206  13.355   6.595   7.793
  924POPC   NC314207   7.928  27.535   9.565
  924POPC   PO414208   8.547  27.671   9.511
  924POPC   GL114209   8.497  27.588   9.103
  924POPC   GL214210   8.206  27.438   9.149
  924POPC   C1A14211   8.449  27.495   8.674
  924POPC   D2A14212   8.497  27.738   8.308
  924POPC   C3A14213   8.328  27.560   7.928
  924POPC   C4A14214   8.568  27.235   7.721
  924POPC   C1B14215   7.938  27.631   8.867
  924POPC   C2B14216   7.955  27.586   8.431
  924POPC   C3B14217   7.833  27.238   8.181
  924POPC   C4B14218   7.880  27.263   7.737
  925POPC   NC314219  39.443  29.592   9.169
  925POPC   PO414220  39.067  29.999   9.548
  925POPC   GL114221  38.943  29.792   9.149
  925POPC   GL214222  38.853  29.439   9.261
  925POPC   C1A14223  39.009  29.810   8.676
  925POPC   D2A14224  39.075  30.185   8.400
  925POPC   C3A14225  39.285  30.106   8.030
  925POPC   C4A14226  39.148  29.875   7.701
  925POPC   C1B14227  38.611  29.482   8.895
  925POPC   C2B14228  38.668  29.482   8.444
  925POPC   C3B14229  38.943  29.580   8.108
  925POPC   C4B14230  38.736  29.594   7.681
  926POPC   NC314231   8.698  41.869   9.656
  926POPC   PO414232   9.202  41.449   9.572
  926POPC   GL114233   9.107  41.498   9.161
  926POPC   GL214234   8.943  41.804   9.196
  926POPC   C1A14235   9.184  41.672   8.770
  926POPC   D2A14236   9.010  41.874   8.427
  926POPC   C3A14237   9.223  41.666   8.070
  926POPC   C4A14238   9.127  41.526   7.641
  926POPC   C1B14239   8.658  41.716   8.824
  926POPC   C2B14240   8.495  41.684   8.389
  926POPC   C3B14241   8.718  41.769   7.998
  926POPC   C4B14242   8.660  41.758   7.561
  927POPC   NC314243   1.159  23.163   9.634
  927POPC   PO414244   1.435  22.583   9.445
  927POPC   GL114245   1.236  22.859   9.136
  927POPC   GL214246   1.318  23.216   9.163
  927POPC   C1A14247   1.090  22.849   8.704
  927POPC   D2A14248   1.142  22.610   8.310
  927POPC   C3A14249   1.084  22.794   7.915
  927POPC   C4A14250   1.237  22.715   7.496
  927POPC   C1B14251   1.514  23.156   8.776
  927POPC   C2B14252   1.338  23.273   8.410
  927POPC   C3B14253   1.423  23.161   8.006
  927POPC   C4B14254   1.211  23.194   7.622
  928POPC   NC314255  42.205  32.120   9.810
  928POPC   PO414256  42.645  32.598   9.661
  928POPC   GL114257  42.527  32.423   9.186
  928POPC   GL214258  42.187  32.537   9.026
  928POPC   C1A14259  42.420  32.131   8.806
  928POPC   D2A14260  42.194  32.009   8.405
  928POPC   C3A14261  42.069  32.016   7.939
  928POPC   C4A14262  42.384  32.024   7.608
  928POPC   C1B14263  42.488  32.667   8.744
  928POPC   C2B14264  42.544  32.837   8.328
  928POPC   C3B14265  42.520  32.635   7.929
  928POPC   C4B14266  42.188  32.484   7.722
  929POPC   NC314267  39.035  13.006   9.342
  929POPC   PO414268  39.494  12.520   9.590
  929POPC   GL114269  39.367  12.659   9.187
  929POPC   GL214270  39.512  13.002   9.134
  929POPC   C1A14271  39.392  12.721   8.745
  929POPC   D2A14272  39.534  12.473   8.438
  929POPC   C3A14273  39.508  12.661   8.055
  929POPC   C4A14274  39.151  12.865   7.922
  929POPC   C1B14275  39.427  13.294   8.824
  929POPC   C2B14276  39.266  13.250   8.417
  929POPC   C3B14277  39.503  13.237   8.052
  929POPC   C4B14278  39.394  13.214   7.661
  930POPC   NC314279   6.240  11.974   9.520
  930POPC   PO414280   5.626  11.926   9.722
  930POPC   GL114281   5.739  11.902   9.274
  930POPC   GL214282   5.469  11.700   9.181
  930POPC   C1A14283   5.935  12.129   8.864
  930POPC   D2A14284   6.142  12.162   8.427
  930POPC   C3A14285   6.006  12.178   7.981
  930POPC   C4A14286   6.078  12.203   7.529
  930POPC   C1B14287   5.469  11.932   8.792
  930POPC   C2B14288   5.625  12.072   8.375
  930POPC   C3B14289   5.574  11.910   7.966
  930POPC   C4B14290   5.668  11.925   7.555
  931POPC   NC314291  18.314  20.857   9.569
  931POPC   PO414292  18.751  20.353   9.481
  931POPC   GL114293  18.515  20.424   9.118
  931POPC   GL214294  18.459  20.769   9.093
  931POPC   C1A14295  18.096  20.481   8.900
  931POPC   D2A14296  18.044  20.677   8.508
  931POPC   C3A14297  18.305  20.496   8.193
  931POPC   C4A14298  18.340  20.438   7.732
  931POPC   C1B14299  18.464  20.920   8.681
  931POPC   C2B14300  18.648  20.924   8.284
  931POPC   C3B14301  18.398  20.906   7.905
  931POPC   C4B14302  18.083  21.005   7.644
  932POPC   NC314303  35.458  28.114   9.413
  932POPC   PO414304  35.069  28.530   9.638
  932POPC   GL114305  35.168  28.577   9.193
  932POPC   GL214306  35.520  28.652   9.104
  932POPC   C1A14307  35.181  28.447   8.753
  932POPC   D2A14308  35.288  28.351   8.319
  932POPC   C3A14309  35.092  28.563   7.959
  932POPC   C4A14310  35.210  28.482   7.554
  932POPC   C1B14311  35.848  28.756   8.831
  932POPC   C2B14312  35.736  28.576   8.469
  932POPC   C3B14313  35.530  28.784   8.142
  932POPC   C4B14314  35.650  28.550   7.777
  933POPC   NC314315  28.042  35.894   9.441
  933POPC   PO414316  27.365  36.307   9.440
  933POPC   GL114317  27.332  36.124   9.073
  933POPC   GL214318  27.665  35.948   9.093
  933POPC   C1A14319  27.406  36.051   8.659
  933POPC   D2A14320  27.593  36.276   8.353
  933POPC   C3A14321  27.318  36.246   8.043
  933POPC   C4A14322  27.275  36.137   7.634
  933POPC   C1B14323  27.798  35.716   8.728
  933POPC   C2B14324  27.935  35.873   8.311
  933POPC   C3B14325  27.742  35.994   7.893
  933POPC   C4B14326  27.668  35.763   7.465
  934POPC   NC314327  12.318  32.190   9.507
  934POPC   PO414328  12.962  32.041   9.577
  934POPC   GL114329  12.922  32.324   9.210
  934POPC   GL214330  12.608  32.461   9.114
  934POPC   C1A14331  12.935  32.250   8.758
  934POPC   D2A14332  12.626  32.151   8.420
  934POPC   C3A14333  12.740  32.078   7.965
  934POPC   C4A14334  12.834  32.080   7.500
  934POPC   C1B14335  12.749  32.716   8.757
  934POPC   C2B14336  12.888  32.610   8.322
  934POPC   C3B14337  12.823  32.585   7.860
  934POPC   C4B14338  12.991  32.561   7.415
  935POPC   NC314339  19.471  29.933   9.527
  935POPC   PO414340  18.811  30.030   9.604
  935POPC   GL114341  19.041  30.084   9.198
  935POPC   GL214342  19.169  29.738   9.151
  935POPC   C1A14343  19.128  30.100   8.729
  935POPC   D2A14344  18.889  30.062   8.348
  935POPC   C3A14345  19.013  29.907   7.968
  935POPC   C4A14346  18.945  29.490   7.848
  935POPC   C1B14347  19.412  29.674   8.778
  935POPC   C2B14348  19.535  29.950   8.432
  935POPC   C3B14349  19.518  29.879   7.989
  935POPC   C4B14350  19.517  29.815   7.530
  936POPC   NC314351  16.200   7.654   9.506
  936POPC   PO414352  15.754   7.171   9.389
  936POPC   GL114353  16.090   7.303   9.136
  936POPC   GL214354  15.899   7.581   9.098
  936POPC   C1A14355  16.244   7.538   8.755
  936POPC   D2A14356  16.081   7.665   8.364
  936POPC   C3A14357  15.879   7.310   8.149
  936POPC   C4A14358  15.817   7.213   7.718
  936POPC   C1B14359  15.716   7.418   8.698
  936POPC   C2B14360  15.557   7.657   8.319
  936POPC   C3B14361  15.486   7.587   7.878
  936POPC   C4B14362  15.554   7.841   7.509
  937POPC   NC314363   8.156  19.676   9.522
  937POPC   PO414364   8.005  20.304   9.520
  937POPC   GL114365   8.068  20.005   9.126
  937POPC   GL214366   7.946  19.632   9.036
  937POPC   C1A14367   8.157  19.956   8.679
  937POPC   D2A14368   8.033  20.151   8.287
  937POPC   C3A14369   8.168  19.887   7.970
  937POPC   C4A14370   8.499  19.750   7.739
  937POPC   C1B14371   8.254  19.413   8.754
  937POPC   C2B14372   8.433  19.521   8.337
  937POPC   C3B14373   8.294  19.344   7.957
  937POPC   C4B14374   7.957  19.455   7.750
  938POPC   NC314375  29.073  41.738   9.679
  938POPC   PO414376  29.646  41.770   9.486
  938POPC   GL114377  29.347  41.660   9.177
  938POPC   GL214378  29.059  41.394   9.197
  938POPC   C1A14379  29.079  41.852   8.869
  938POPC   D2A14380  29.117  41.957   8.436
  938POPC   C3A14381  28.916  41.747   8.107
  938POPC   C4A14382  29.115  41.586   7.727
  938POPC   C1B14383  29.257  41.367   8.762
  938POPC   C2B14384  29.223  41.378   8.290
  938POPC   C3B14385  29.517  41.326   7.887
  938POPC   C4B14386  29.407  41.278   7.456
  939POPC   NC314387  12.590  26.386   9.548
  939POPC   PO414388  13.108  26.805   9.423
  939POPC   GL114389  12.892  26.580   9.137
  939POPC   GL214390  13.228  26.475   9.031
  939POPC   C1A14391  12.634  26.740   8.811
  939POPC   D2A14392  12.765  26.997   8.446
  939POPC   C3A14393  12.574  26.838   8.110
  939POPC   C4A14394  12.618  26.867   7.705
  939POPC   C1B14395  13.169  26.840   8.761
  939POPC   C2B14396  13.277  26.860   8.345
  939POPC   C3B14397  13.072  26.828   7.975
  939POPC   C4B14398  13.113  26.986   7.570
  940POPC   NC314399  27.680  33.534   9.633
  940POPC   PO414400  27.223  33.975   9.469
  940POPC   GL114401  27.427  33.660   9.170
  940POPC   GL214402  27.775  33.690   9.116
  940POPC   C1A14403  27.457  33.544   8.717
  940POPC   D2A14404  27.351  33.824   8.358
  940POPC   C3A14405  27.460  33.791   7.903
  940POPC   C4A14406  27.427  33.994   7.488
  940POPC   C1B14407  27.700  33.990   8.766
  940POPC   C2B14408  27.759  34.142   8.312
  940POPC   C3B14409  27.910  34.093   7.874
  940POPC   C4B14410  27.869  33.758   7.535
  941POPC   NC314411  20.953   1.096   9.374
  941POPC   PO414412  21.583   1.471   9.480
  941POPC   GL114413  21.348   1.375   9.125
  941POPC   GL214414  21.436   1.031   9.152
  941POPC   C1A14415  21.143   1.198   8.741
  941POPC   D2A14416  21.200   1.053   8.299
  941POPC   C3A14417  21.285   1.442   8.056
  941POPC   C4A14418  21.238   1.766   7.766
  941POPC   C1B14419  21.515   0.842   8.725
  941POPC   C2B14420  21.709   0.813   8.326
  941POPC   C3B14421  21.702   0.945   7.919
  941POPC   C4B14422  21.320   1.043   7.736
  942POPC   NC314423  42.978  31.978   9.595
  942POPC   PO414424  43.236  31.319   9.575
  942POPC   GL114425  43.256  31.382   9.164
  942POPC   GL214426  43.208  31.726   9.176
  942POPC   C1A14427  43.376  31.487   8.750
  942POPC   D2A14428  43.368  31.682   8.359
  942POPC   C3A14429  43.184  31.347   8.138
  942POPC   C4A14430  43.140  31.317   7.714
  942POPC   C1B14431  42.891  31.818   8.857
  942POPC   C2B14432  42.749  31.847   8.452
  942POPC   C3B14433  42.932  31.771   8.059
  942POPC   C4B14434  42.746  31.690   7.688
  943POPC   NC314435   2.853  10.327   9.576
  943POPC   PO414436   2.231  10.602   9.491
  943POPC   GL114437   2.582  10.509   9.189
  943POPC   GL214438   2.793  10.783   9.303
  943POPC   C1A14439   2.706  10.389   8.750
  943POPC   D2A14440   2.924  10.253   8.375
  943POPC   C3A14441   2.744  10.387   7.979
  943POPC   C4A14442   2.713  10.635   7.605
  943POPC   C1B14443   2.872  10.853   8.860
  943POPC   C2B14444   2.985  10.755   8.424
  943POPC   C3B14445   2.881  10.884   8.017
  943POPC   C4B14446   3.161  10.895   7.674
  944POPC   NC314447  44.515  16.830   9.493
  944POPC   PO414448  44.932  17.339   9.479
  944POPC   GL114449  44.867  16.997   9.156
  944POPC   GL214450  44.725  16.670   9.064
  944POPC   C1A14451  44.828  17.004   8.705
  944POPC   D2A14452   0.132  16.940   8.387
  944POPC   C3A14453  44.919  16.827   8.018
  944POPC   C4A14454  44.866  17.081   7.655
  944POPC   C1B14455  44.363  16.651   8.776
  944POPC   C2B14456  44.378  16.531   8.328
  944POPC   C3B14457  44.425  16.679   7.887
  944POPC   C4B14458  44.392  16.960   7.496
  945POPC   NC314459  38.845   6.862   9.469
  945POPC   PO414460  38.394   6.380   9.476
  945POPC   GL114461  38.329   6.632   9.082
  945POPC   GL214462  38.550   6.908   9.033
  945POPC   C1A14463  38.485   6.517   8.677
  945POPC   D2A14464  38.552   6.500   8.235
  945POPC   C3A14465  38.230   6.269   8.014
  945POPC   C4A14466  38.147   6.336   7.625
  945POPC   C1B14467  38.250   7.003   8.685
  945POPC   C2B14468  38.183   7.117   8.255
  945POPC   C3B14469  38.477   6.973   7.956
  945POPC   C4B14470  38.853   6.779   7.809
  946POPC   NC314471  43.303  26.861   9.504
  946POPC   PO414472  42.713  26.614   9.662
  946POPC   GL114473  42.993  26.580   9.198
  946POPC   GL214474  43.403  26.628   9.079
  946POPC   C1A14475  43.052  26.719   8.735
  946POPC   D2A14476  43.196  27.007   8.387
  946POPC   C3A14477  42.932  26.893   8.027
  946POPC   C4A14478  42.897  26.427   7.959
  946POPC   C1B14479  43.579  26.859   8.753
  946POPC   C2B14480  43.610  26.656   8.401
  946POPC   C3B14481  43.380  26.619   8.056
  946POPC   C4B14482  43.412  27.010   7.858
  947POPC   NC314483  40.203  21.025   9.469
  947POPC   PO414484  39.852  21.593   9.591
  947POPC   GL114485  39.764  21.495   9.176
  947POPC   GL214486  39.756  21.150   9.242
  947POPC   C1A14487  39.781  21.642   8.744
  947POPC   D2A14488  39.984  21.743   8.336
  947POPC   C3A14489  39.779  21.510   8.018
  947POPC   C4A14490  39.760  21.590   7.554
  947POPC   C1B14491  40.053  21.204   8.878
  947POPC   C2B14492  40.073  21.252   8.462
  947POPC   C3B14493  40.259  21.310   8.084
  947POPC   C4B14494  40.144  21.244   7.746
  948POPC   NC314495  38.426  22.680   9.668
  948POPC   PO414496  38.753  23.267   9.647
  948POPC   GL114497  38.561  23.004   9.264
  948POPC   GL214498  38.411  22.652   9.155
  948POPC   C1A14499  38.585  22.957   8.793
  948POPC   D2A14500  38.764  23.011   8.374
  948POPC   C3A14501  38.492  23.212   8.064
  948POPC   C4A14502  38.549  23.175   7.624
  948POPC   C1B14503  38.186  22.622   8.758
  948POPC   C2B14504  38.323  22.729   8.325
  948POPC   C3B14505  38.472  22.672   7.875
  948POPC   C4B14506  38.186  22.566   7.520
  949POPC   NC314507   8.992   2.945   9.600
  949POPC   PO414508   8.783   2.370   9.444
  949POPC   GL114509   8.942   2.628   9.105
  949POPC   GL214510   9.223   2.881   9.094
  949POPC   C1A14511   8.868   2.873   8.732
  949POPC   D2A14512   8.975   2.904   8.302
  949POPC   C3A14513   8.685   3.030   7.988
  949POPC   C4A14514   8.781   2.873   7.618
  949POPC   C1B14515   9.336   2.623   8.705
  949POPC   C2B14516   9.208   2.432   8.282
  949POPC   C3B14517   9.001   2.453   7.873
  949POPC   C4B14518   9.174   2.460   7.462
  950POPC   NC314519  12.320   2.902   9.478
  950POPC   PO414520  11.835   2.418   9.386
  950POPC   GL114521  12.044   2.750   9.065
  950POPC   GL214522  12.228   3.115   9.023
  950POPC   C1A14523  11.940   2.856   8.642
  950POPC   D2A14524  11.640   2.679   8.328
  950POPC   C3A14525  11.931   2.505   8.014
  950POPC   C4A14526  12.316   2.718   7.858
  950POPC   C1B14527  12.465   2.927   8.725
  950POPC   C2B14528  12.344   2.997   8.315
  950POPC   C3B14529  11.982   3.016   8.130
  950POPC   C4B14530  12.024   3.147   7.780
  951POPC   NC314531  17.953   1.522   9.445
  951POPC   PO414532  17.305   1.265   9.515
  951POPC   GL114533  17.396   1.042   9.109
  951POPC   GL214534  17.753   1.014   9.105
  951POPC   C1A14535  17.396   0.874   8.695
  951POPC   D2A14536  17.539   1.022   8.317
  951POPC   C3A14537  17.338   0.959   7.908
  951POPC   C4A14538  17.335   1.188   7.490
  951POPC   C1B14539  17.645   1.409   8.865
  951POPC   C2B14540  17.693   1.510   8.435
  951POPC   C3B14541  17.537   1.434   8.026
  951POPC   C4B14542  17.736   1.498   7.663
  952POPC   NC314543  22.579  39.858   9.584
  952POPC   PO414544  23.151  40.093   9.453
  952POPC   GL114545  22.882  39.897   9.156
  952POPC   GL214546  22.631  40.140   9.158
  952POPC   C1A14547  22.774  39.932   8.714
  952POPC   D2A14548  22.976  40.210   8.427
  952POPC   C3A14549  23.139  39.919   8.137
  952POPC   C4A14550  22.983  39.946   7.727
  952POPC   C1B14551  22.585  40.391   8.815
  952POPC   C2B14552  22.463  40.309   8.382
  952POPC   C3B14553  22.600  40.245   7.901
  952POPC   C4B14554  22.588  40.261   7.382
  953POPC   NC314555  18.595   6.313   9.425
  953POPC   PO414556  18.254   6.911   9.533
  953POPC   GL114557  18.297   6.815   9.122
  953POPC   GL214558  18.312   6.441   9.034
  953POPC   C1A14559  18.109   6.844   8.737
  953POPC   D2A14560  18.214   6.597   8.421
  953POPC   C3A14561  18.241   6.779   8.028
  953POPC   C4A14562  17.959   6.751   7.657
  953POPC   C1B14563  18.475   6.219   8.670
  953POPC   C2B14564  18.628   6.307   8.230
  953POPC   C3B14565  18.537   6.426   7.796
  953POPC   C4B14566  18.287   6.447   7.415
  954POPC   NC314567  32.760  21.168   9.539
  954POPC   PO414568  33.297  21.512   9.560
  954POPC   GL114569  32.977  21.487   9.211
  954POPC   GL214570  33.027  21.125   9.092
  954POPC   C1A14571  32.889  21.501   8.759
  954POPC   D2A14572  33.037  21.512   8.323
  954POPC   C3A14573  32.822  21.686   7.963
  954POPC   C4A14574  32.973  21.649   7.529
  954POPC   C1B14575  32.713  20.979   8.814
  954POPC   C2B14576  32.533  21.029   8.396
  954POPC   C3B14577  32.685  20.946   8.002
  954POPC   C4B14578  32.976  21.229   7.830
  955POPC   NC314579  11.808  13.143   9.523
  955POPC   PO414580  11.892  12.449   9.500
  955POPC   GL114581  12.054  12.672   9.128
  955POPC   GL214582  12.070  13.040   9.106
  955POPC   C1A14583  12.215  12.749   8.710
  955POPC   D2A14584  12.000  12.639   8.339
  955POPC   C3A14585  12.176  12.747   7.983
  955POPC   C4A14586  11.975  13.038   7.769
  955POPC   C1B14587  12.153  13.284   8.738
  955POPC   C2B14588  12.329  13.471   8.386
  955POPC   C3B14589  12.428  13.216   8.023
  955POPC   C4B14590  12.515  13.010   7.641
  956POPC   NC314591  26.186  30.361   9.491
  956POPC   PO414592  25.908  31.008   9.476
  956POPC   GL114593  26.150  30.821   9.177
  956POPC   GL214594  25.961  30.506   9.056
  956POPC   C1A14595  26.034  30.937   8.769
  956POPC   D2A14596  25.988  30.775   8.367
  956POPC   C3A14597  26.189  30.898   7.971
  956POPC   C4A14598  26.036  30.843   7.534
  956POPC   C1B14599  26.366  30.531   8.792
  956POPC   C2B14600  26.377  30.430   8.319
  956POPC   C3B14601  26.052  30.427   7.986
  956POPC   C4B14602  26.183  30.309   7.600
  957POPC   NC314603   5.497  22.799   9.319
  957POPC   PO414604   5.952  23.337   9.511
  957POPC   GL114605   5.917  23.061   9.165
  957POPC   GL214606   5.996  22.678   9.181
  957POPC   C1A14607   5.733  23.139   8.757
  957POPC   D2A14608   5.791  22.960   8.357
  957POPC   C3A14609   5.803  23.171   7.959
  957POPC   C4A14610   5.761  23.159   7.496
  957POPC   C1B14611   5.802  22.584   8.736
  957POPC   C2B14612   5.497  22.487   8.414
  957POPC   C3B14613   5.528  22.675   8.025
  957POPC   C4B14614   5.915  22.697   7.805
  958POPC   NC314615  14.118  30.221   9.408
  958POPC   PO414616  13.526  29.921   9.639
  958POPC   GL114617  13.660  30.004   9.247
  958POPC   GL214618  13.806  29.726   9.094
  958POPC   C1A14619  13.497  30.008   8.843
  958POPC   D2A14620  13.637  29.768   8.514
  958POPC   C3A14621  13.436  29.766   8.152
  958POPC   C4A14622  13.371  30.019   7.771
  958POPC   C1B14623  14.016  29.998   8.784
  958POPC   C2B14624  14.154  29.869   8.428
  958POPC   C3B14625  13.963  29.747   8.051
  958POPC   C4B14626  13.868  29.892   7.655
  959POPC   NC314627  29.251  26.265   9.669
  959POPC   PO414628  28.846  25.673   9.656
  959POPC   GL114629  29.093  25.895   9.308
  959POPC   GL214630  28.945  26.205   9.192
  959POPC   C1A14631  29.280  25.967   8.862
  959POPC   D2A14632  29.118  26.083   8.434
  959POPC   C3A14633  29.124  25.792   8.076
  959POPC   C4A14634  29.204  25.937   7.644
  959POPC   C1B14635  29.072  26.449   8.812
  959POPC   C2B14636  29.385  26.514   8.440
  959POPC   C3B14637  29.443  26.673   8.013
  959POPC   C4B14638  29.268  26.473   7.647
  960POPC   NC314639   5.137  34.121   9.787
  960POPC   PO414640   4.859  33.626   9.448
  960POPC   GL114641   5.037  33.739   9.061
  960POPC   GL214642   4.914  33.495   8.891
  960POPC   C1A14643   5.080  33.979   8.651
  960POPC   D2A14644   5.273  34.253   8.318
  960POPC   C3A14645   5.218  34.084   7.891
  960POPC   C4A14646   5.370  33.954   7.462
  960POPC   C1B14647   5.329  33.511   8.673
  960POPC   C2B14648   5.331  33.643   8.241
  960POPC   C3B14649   4.955  33.636   7.992
  960POPC   C4B14650   4.554  33.434   8.052
  961POPC   NC314651  38.305  24.348   9.495
  961POPC   PO414652  38.806  24.755   9.409
  961POPC   GL114653  38.698  24.395   9.146
  961POPC   GL214654  38.310  24.387   8.998
  961POPC   C1A14655  38.716  24.186   8.761
  961POPC   D2A14656  38.440  24.422   8.495
  961POPC   C3A14657  38.423  24.403   8.068
  961POPC   C4A14658  38.684  24.202   7.803
  961POPC   C1B14659  38.123  24.725   8.752
  961POPC   C2B14660  38.267  24.873   8.340
  961POPC   C3B14661  38.237  24.869   7.881
  961POPC   C4B14662  38.167  24.606   7.499
  962POPC   NC314663  41.689  13.885   9.243
  962POPC   PO414664  41.179  13.566   9.437
  962POPC   GL114665  41.367  13.544   9.025
  962POPC   GL214666  41.703  13.388   9.047
  962POPC   C1A14667  41.343  13.464   8.574
  962POPC   D2A14668  41.561  13.696   8.238
  962POPC   C3A14669  41.541  13.629   7.815
  962POPC   C4A14670  41.254  13.355   7.635
  962POPC   C1B14671  41.822  13.631   8.669
  962POPC   C2B14672  41.918  14.026   8.409
  962POPC   C3B14673  41.948  14.006   7.935
  962POPC   C4B14674  41.941  13.865   7.475
  963POPC   NC314675  28.202  32.145   9.662
  963POPC   PO414676  28.611  31.888   9.205
  963POPC   GL114677  28.345  32.262   9.133
  963POPC   GL214678  27.988  32.234   9.113
  963POPC   C1A14679  28.318  32.429   8.704
  963POPC   D2A14680  28.615  32.454   8.340
  963POPC   C3A14681  28.484  32.154   8.025
  963POPC   C4A14682  28.393  32.161   7.609
  963POPC   C1B14683  27.903  32.649   8.947
  963POPC   C2B14684  27.890  32.704   8.499
  963POPC   C3B14685  28.113  32.522   8.156
  963POPC   C4B14686  28.019  32.461   7.734
  964POPC   NC314687  11.929  31.582   9.302
  964POPC   PO414688  11.854  32.203   9.444
  964POPC   GL114689  12.093  32.366   9.099
  964POPC   GL214690  12.319  32.049   9.009
  964POPC   C1A14691  12.264  32.490   8.728
  964POPC   D2A14692  12.144  32.284   8.356
  964POPC   C3A14693  12.316  32.423   7.971
  964POPC   C4A14694  12.011  32.483   7.646
  964POPC   C1B14695  11.956  31.980   8.759
  964POPC   C2B14696  11.771  31.887   8.357
  964POPC   C3B14697  11.962  31.972   7.977
  964POPC   C4B14698  11.733  32.047   7.638
  965POPC   NC314699  43.325  41.181   9.537
  965POPC   PO414700  43.054  40.530   9.477
  965POPC   GL114701  43.140  40.667   9.072
  965POPC   GL214702  43.198  41.011   9.068
  965POPC   C1A14703  43.249  40.539   8.650
  965POPC   D2A14704  43.109  40.601   8.201
  965POPC   C3A14705  43.414  40.610   7.882
  965POPC   C4A14706  43.375  40.954   7.556
  965POPC   C1B14707  42.927  40.979   8.683
  965POPC   C2B14708  42.801  41.060   8.222
  965POPC   C3B14709  42.922  40.925   7.785
  965POPC   C4B14710  42.941  41.174   7.363
  966POPC   NC314711  29.530  37.982   9.485
  966POPC   PO414712  29.049  37.503   9.547
  966POPC   GL114713  29.184  37.748   9.207
  966POPC   GL214714  29.493  37.511   9.234
  966POPC   C1A14715  29.131  37.823   8.748
  966POPC   D2A14716  29.325  37.768   8.334
  966POPC   C3A14717  29.179  37.899   7.913
  966POPC   C4A14718  28.890  38.100   7.655
  966POPC   C1B14719  29.192  37.339   8.934
  966POPC   C2B14720  29.129  37.308   8.503
  966POPC   C3B14721  29.035  37.416   8.098
  966POPC   C4B14722  29.284  37.390   7.790
  967POPC   NC314723  40.372  26.867   9.497
  967POPC   PO414724  39.726  26.751   9.479
  967POPC   GL114725  39.963  26.783   9.092
  967POPC   GL214726  40.242  26.990   9.011
  967POPC   C1A14727  39.844  26.952   8.705
  967POPC   D2A14728  39.797  26.837   8.313
  967POPC   C3A14729  39.906  27.077   7.938
  967POPC   C4A14730  39.818  26.927   7.529
  967POPC   C1B14731  40.303  26.714   8.621
  967POPC   C2B14732  40.119  26.449   8.314
  967POPC   C3B14733  40.118  26.596   7.897
  967POPC   C4B14734  40.444  26.965   7.910
  968POPC   NC314735  42.805  11.155   9.533
  968POPC   PO414736  42.504  11.773   9.694
  968POPC   GL114737  42.508  11.507   9.282
  968POPC   GL214738  42.241  11.558   9.052
  968POPC   C1A14739  42.607  11.286   8.846
  968POPC   D2A14740  42.511  11.464   8.427
  968POPC   C3A14741  42.541  11.201   8.031
  968POPC   C4A14742  42.465  11.225   7.592
  968POPC   C1B14743  42.082  11.278   8.736
  968POPC   C2B14744  42.004  11.339   8.338
  968POPC   C3B14745  42.180  11.588   8.028
  968POPC   C4B14746  42.075  11.554   7.614
  969POPC   NC314747  24.144  21.507   9.463
  969POPC   PO414748  24.711  21.158   9.580
  969POPC   GL114749  24.573  21.324   9.208
  969POPC   GL214750  24.581  21.686   9.181
  969POPC   C1A14751  24.587  21.372   8.783
  969POPC   D2A14752  24.424  21.476   8.412
  969POPC   C3A14753  24.662  21.421   8.044
  969POPC   C4A14754  24.616  21.237   7.635
  969POPC   C1B14755  24.220  21.763   8.839
  969POPC   C2B14756  24.135  21.896   8.396
  969POPC   C3B14757  24.226  21.693   7.991
  969POPC   C4B14758  24.504  21.725   7.670
  970POPC   NC314759  31.895   7.180   9.441
  970POPC   PO414760  32.330   7.686   9.499
  970POPC   GL114761  32.310   7.432   9.174
  970POPC   GL214762  32.008   7.602   9.059
  970POPC   C1A14763  32.430   7.509   8.761
  970POPC   D2A14764  32.186   7.702   8.437
  970POPC   C3A14765  32.166   7.486   8.053
  970POPC   C4A14766  32.468   7.182   7.903
  970POPC   C1B14767  31.783   7.838   8.732
  970POPC   C2B14768  31.803   8.046   8.309
  970POPC   C3B14769  31.778   7.853   7.913
  970POPC   C4B14770  32.117   7.751   7.622
  971POPC   NC314771   6.874  11.674   9.548
  971POPC   PO414772   6.560  12.298   9.500
  971POPC   GL114773   6.458  12.074   9.073
  971POPC   GL214774   6.666  11.806   9.105
  971POPC   C1A14775   6.450  11.830   8.644
  971POPC   D2A14776   6.631  11.912   8.224
  971POPC   C3A14777   6.469  11.973   7.810
  971POPC   C4A14778   6.533  12.403   7.615
  971POPC   C1B14779   6.972  11.730   8.783
  971POPC   C2B14780   7.133  11.764   8.362
  971POPC   C3B14781   6.969  11.638   7.948
  971POPC   C4B14782   6.889  11.728   7.492
  972POPC   NC314783  24.631  27.539   9.824
  972POPC   PO414784  24.157  27.950   9.636
  972POPC   GL114785  24.250  27.763   9.176
  972POPC   GL214786  24.557  27.549   9.209
  972POPC   C1A14787  24.507  27.865   8.776
  972POPC   D2A14788  24.582  27.696   8.349
  972POPC   C3A14789  24.493  27.913   7.977
  972POPC   C4A14790  24.550  27.769   7.566
  972POPC   C1B14791  24.415  27.368   8.784
  972POPC   C2B14792  24.342  27.255   8.336
  972POPC   C3B14793  24.490  27.397   7.918
  972POPC   C4B14794  24.230  27.366   7.514
  973POPC   NC314795   3.703   0.758   9.437
  973POPC   PO414796   3.324   0.228   9.396
  973POPC   GL114797   3.560   0.452   9.065
  973POPC   GL214798   3.324   0.719   9.044
  973POPC   C1A14799   3.652   0.712   8.668
  973POPC   D2A14800   3.608   0.544   8.252
  973POPC   C3A14801   3.662   0.735   7.847
  973POPC   C4A14802   3.813   0.375   7.540
  973POPC   C1B14803   3.213   0.444   8.687
  973POPC   C2B14804   3.094   0.544   8.262
  973POPC   C3B14805   3.229   0.373   7.875
  973POPC   C4B14806   3.025   0.328   7.486
  974POPC   NC314807  41.392   1.331   9.439
  974POPC   PO414808  41.869   0.930   9.123
  974POPC   GL114809  41.416   0.929   9.075
  974POPC   GL214810  41.466   1.266   8.947
  974POPC   C1A14811  41.254   0.924   8.641
  974POPC   D2A14812  41.393   1.249   8.334
  974POPC   C3A14813  41.525   1.092   7.935
  974POPC   C4A14814  41.899   1.036   7.695
  974POPC   C1B14815  41.122   1.428   8.729
  974POPC   C2B14816  41.107   1.684   8.364
  974POPC   C3B14817  41.260   1.580   7.937
  974POPC   C4B14818  41.580   1.501   7.615
  975POPC   NC314819  36.441  28.298   9.414
  975POPC   PO414820  35.767  28.459   9.501
  975POPC   GL114821  36.002  28.444   9.189
  975POPC   GL214822  36.200  28.726   9.219
  975POPC   C1A14823  35.997  28.239   8.824
  975POPC   D2A14824  36.261  28.100   8.508
  975POPC   C3A14825  36.154  28.384   8.173
  975POPC   C4A14826  36.153  28.405   7.730
  975POPC   C1B14827  36.367  28.594   8.822
  975POPC   C2B14828  36.452  28.726   8.423
  975POPC   C3B14829  36.471  28.749   7.977
  975POPC   C4B14830  36.313  28.848   7.518
  976POPC   NC314831  42.745  26.198   9.450
  976POPC   PO414832  43.418  26.322   9.475
  976POPC   GL114833  43.266  26.133   9.072
  976POPC   GL214834  42.924  26.038   8.993
  976POPC   C1A14835  43.327  26.250   8.609
  976POPC   D2A14836  43.614  26.177   8.229
  976POPC   C3A14837  43.416  26.116   7.824
  976POPC   C4A14838  43.163  26.325   7.496
  976POPC   C1B14839  43.026  25.753   8.649
  976POPC   C2B14840  43.006  25.740   8.173
  976POPC   C3B14841  42.937  25.929   7.747
  976POPC   C4B14842  42.766  25.900   7.331
  977POPC   NC314843  27.704  40.846   9.807
  977POPC   PO414844  28.346  40.731   9.522
  977POPC   GL114845  28.346  40.895   9.140
  977POPC   GL214846  28.191  40.601   9.046
  977POPC   C1A14847  28.565  40.859   8.750
  977POPC   D2A14848  28.436  40.805   8.338
  977POPC   C3A14849  28.647  40.786   7.937
  977POPC   C4A14850  28.502  40.468   7.653
  977POPC   C1B14851  28.043  40.818   8.695
  977POPC   C2B14852  27.889  40.765   8.323
  977POPC   C3B14853  28.108  40.661   7.975
  977POPC   C4B14854  28.245  41.105   7.925
  978POPC   NC314855  39.058  28.490   9.801
  978POPC   PO414856  38.411  28.646   9.521
  978POPC   GL114857  38.454  28.461   9.084
  978POPC   GL214858  38.738  28.545   8.950
  978POPC   C1A14859  38.301  28.287   8.663
  978POPC   D2A14860  38.332  28.455   8.233
  978POPC   C3A14861  38.311  28.203   7.842
  978POPC   C4A14862  38.174  28.328   7.426
  978POPC   C1B14863  38.792  28.204   8.688
  978POPC   C2B14864  38.646  28.064   8.286
  978POPC   C3B14865  38.780  28.331   7.980
  978POPC   C4B14866  38.980  28.425   7.627
  979POPC   NC314867  32.340  34.849   9.540
  979POPC   PO414868  32.257  34.223   9.428
  979POPC   GL114869  32.148  34.454   9.095
  979POPC   GL214870  32.046  34.788   9.146
  979POPC   C1A14871  32.200  34.634   8.708
  979POPC   D2A14872  32.031  34.557   8.360
  979POPC   C3A14873  32.238  34.357   8.037
  979POPC   C4A14874  32.351  34.718   7.836
  979POPC   C1B14875  31.826  35.056   8.848
  979POPC   C2B14876  31.858  35.195   8.414
  979POPC   C3B14877  31.824  34.928   8.057
  979POPC   C4B14878  31.910  34.886   7.650
  980POPC   NC314879   4.115   6.553   9.522
  980POPC   PO414880   4.709   6.506   9.501
  980POPC   GL114881   4.412   6.678   9.130
  980POPC   GL214882   4.155   6.960   9.187
  980POPC   C1A14883   4.222   6.563   8.724
  980POPC   D2A14884   4.367   6.708   8.326
  980POPC   C3A14885   4.422   6.479   7.939
  980POPC   C4A14886   4.139   6.332   7.592
  980POPC   C1B14887   3.931   6.957   8.787
  980POPC   C2B14888   3.866   6.853   8.372
  980POPC   C3B14889   4.007   6.764   7.957
  980POPC   C4B14890   4.269   6.831   7.581
  981POPC   NC314891  12.250  23.941   9.633
  981POPC   PO414892  11.831  23.459   9.632
  981POPC   GL114893  12.000  23.662   9.224
  981POPC   GL214894  12.335  23.767   9.130
  981POPC   C1A14895  12.099  23.535   8.769
  981POPC   D2A14896  12.193  23.374   8.388
  981POPC   C3A14897  12.000  23.531   8.058
  981POPC   C4A14898  12.141  23.584   7.692
  981POPC   C1B14899  12.343  24.003   8.731
  981POPC   C2B14900  12.177  23.919   8.339
  981POPC   C3B14901  12.185  24.058   7.911
  981POPC   C4B14902  12.288  24.032   7.472
  982POPC   NC314903   9.307  15.799   9.582
  982POPC   PO414904   8.585  16.087   9.589
  982POPC   GL114905   8.816  15.976   9.172
  982POPC   GL214906   9.120  15.886   9.139
  982POPC   C1A14907   8.985  16.179   8.764
  982POPC   D2A14908   9.239  16.115   8.382
  982POPC   C3A14909   9.051  16.166   7.960
  982POPC   C4A14910   9.374  16.231   7.683
  982POPC   C1B14911   8.866  15.696   8.766
  982POPC   C2B14912   8.766  15.869   8.374
  982POPC   C3B14913   8.926  15.674   8.018
  982POPC   C4B14914   8.895  15.585   7.599
  983POPC   NC314915  32.653  38.681   9.427
  983POPC   PO414916  32.839  39.360   9.606
  983POPC   GL114917  33.015  39.042   9.245
  983POPC   GL214918  33.352  38.941   9.128
  983POPC   C1A14919  32.999  39.005   8.768
  983POPC   D2A14920  33.026  39.362   8.474
  983POPC   C3A14921  32.873  39.376   8.066
  983POPC   C4A14922  33.074  39.092   7.803
  983POPC   C1B14923  33.368  39.368   8.871
  983POPC   C2B14924  33.468  39.623   8.450
  983POPC   C3B14925  33.402  39.447   8.042
  983POPC   C4B14926  33.443  39.382   7.599
  984POPC   NC314927  19.569  12.575   9.568
  984POPC   PO414928  18.911  12.463   9.341
  984POPC   GL114929  19.083  12.782   9.098
  984POPC   GL214930  19.402  12.814   9.149
  984POPC   C1A14931  18.986  12.965   8.718
  984POPC   D2A14932  18.806  12.756   8.372
  984POPC   C3A14933  18.976  12.713   7.949
  984POPC   C4A14934  18.860  13.002   7.622
  984POPC   C1B14935  19.482  12.842   8.710
  984POPC   C2B14936  19.302  12.945   8.308
  984POPC   C3B14937  19.305  13.085   7.899
  984POPC   C4B14938  19.501  12.709   7.806
  985POPC   NC314939  30.194  21.802   9.302
  985POPC   PO414940  29.862  21.217   9.478
  985POPC   GL114941  29.782  21.347   9.081
  985POPC   GL214942  29.563  21.633   9.146
  985POPC   C1A14943  29.849  21.085   8.692
  985POPC   D2A14944  30.105  20.899   8.347
  985POPC   C3A14945  30.016  21.076   7.922
  985POPC   C4A14946  29.673  21.326   7.713
  985POPC   C1B14947  29.732  21.639   8.675
  985POPC   C2B14948  29.958  21.441   8.321
  985POPC   C3B14949  29.951  21.663   7.946
  985POPC   C4B14950  29.821  21.957   7.669
  986POPC   NC314951  37.213  28.962   9.474
  986POPC   PO414952  36.745  29.475   9.467
  986POPC   GL114953  37.048  29.416   9.112
  986POPC   GL214954  37.315  29.160   9.021
  986POPC   C1A14955  36.920  29.250   8.710
  986POPC   D2A14956  36.715  29.153   8.351
  986POPC   C3A14957  36.756  29.353   7.986
  986POPC   C4A14958  36.649  29.137   7.725
  986POPC   C1B14959  37.068  28.786   8.848
  986POPC   C2B14960  36.972  28.716   8.436
  986POPC   C3B14961  37.110  28.967   8.071
  986POPC   C4B14962  37.138  28.996   7.632
  987POPC   NC314963  24.141  42.165   9.586
  987POPC   PO414964  23.584  42.501   9.444
  987POPC   GL114965  23.574  42.302   9.115
  987POPC   GL214966  23.810  42.065   9.213
  987POPC   C1A14967  23.714  42.408   8.734
  987POPC   D2A14968  23.762  42.246   8.401
  987POPC   C3A14969  23.749  42.474   8.094
  987POPC   C4A14970  23.700  42.290   7.742
  987POPC   C1B14971  24.041  42.050   8.847
  987POPC   C2B14972  24.225  42.104   8.451
  987POPC   C3B14973  24.081  42.030   8.047
  987POPC   C4B14974  24.182  42.171   7.623
  988POPC   NC314975   9.890  14.269   9.695
  988POPC   PO414976   9.527  14.798   9.425
  988POPC   GL114977   9.742  14.579   9.107
  988POPC   GL214978   9.877  14.262   9.169
  988POPC   C1A14979   9.673  14.529   8.695
  988POPC   D2A14980   9.548  14.590   8.304
  988POPC   C3A14981   9.882  14.558   8.031
  988POPC   C4A14982   9.887  14.719   7.636
  988POPC   C1B14983  10.100  14.258   8.768
  988POPC   C2B14984  10.230  13.973   8.442
  988POPC   C3B14985  10.202  14.100   8.010
  988POPC   C4B14986   9.868  14.167   7.708
  989POPC   NC314987   6.226  38.252   9.516
  989POPC   PO414988   5.892  38.847   9.447
  989POPC   GL114989   5.964  38.521   9.157
  989POPC   GL214990   5.732  38.246   9.122
  989POPC   C1A14991   6.114  38.396   8.770
  989POPC   D2A14992   5.964  38.578   8.406
  989POPC   C3A14993   6.070  38.453   8.012
  989POPC   C4A14994   5.788  38.557   7.729
  989POPC   C1B14995   5.760  38.042   8.712
  989POPC   C2B14996   5.860  38.062   8.303
  989POPC   C3B14997   5.692  38.079   7.908
  989POPC   C4B14998   5.924  38.101   7.537
  990POPC   NC314999   5.742  17.153   9.751
  990POPC   PO415000   5.915  17.822   9.741
  990POPC   GL115001   6.017  17.771   9.296
  990POPC   GL215002   5.861  17.473   9.196
  990POPC   C1A15003   6.067  17.772   8.813
  990POPC   D2A15004   6.157  17.533   8.389
  990POPC   C3A15005   5.805  17.509   8.143
  990POPC   C4A15006   5.831  17.737   7.799
  990POPC   C1B15007   5.890  17.287   8.746
  990POPC   C2B15008   5.971  17.046   8.332
  990POPC   C3B15009   5.854  17.067   7.870
  990POPC   C4B15010   5.942  17.238   7.436
  991POPC   NC315011   5.481  23.595   9.446
  991POPC   PO415012   4.798  23.863   9.704
  991POPC   GL115013   4.958  23.738   9.261
  991POPC   GL215014   5.257  23.908   9.132
  991POPC   C1A15015   4.912  23.808   8.772
  991POPC   D2A15016   4.646  23.837   8.371
  991POPC   C3A15017   4.811  23.982   8.008
  991POPC   C4A15018   5.073  23.687   7.865
  991POPC   C1B15019   5.451  23.688   8.778
  991POPC   C2B15020   5.310  23.747   8.368
  991POPC   C3B15021   5.546  23.795   8.007
  991POPC   C4B15022   5.522  23.564   7.663
  992POPC   NC315023  13.730   9.662   9.471
  992POPC   PO415024  13.269  10.116   9.254
  992POPC   GL115025  13.527   9.909   9.032
  992POPC   GL215026  13.858   9.981   9.108
  992POPC   C1A15027  13.626   9.999   8.616
  992POPC   D2A15028  13.876   9.911   8.279
  992POPC   C3A15029  13.590   9.702   8.010
  992POPC   C4A15030  13.267   9.955   7.836
  992POPC   C1B15031  13.863   9.594   8.828
  992POPC   C2B15032  13.908   9.408   8.428
  992POPC   C3B15033  14.099   9.505   8.040
  992POPC   C4B15034  13.879   9.560   7.640
  993POPC   NC315035  20.429  42.049   9.482
  993POPC   PO415036  20.930  41.620   9.515
  993POPC   GL115037  20.820  41.830   9.132
  993POPC   GL215038  20.487  41.732   9.099
  993POPC   C1A15039  20.743  41.897   8.703
  993POPC   D2A15040  20.801  41.601   8.368
  993POPC   C3A15041  20.895  41.779   7.959
  993POPC   C4A15042  20.870  41.503   7.650
  993POPC   C1B15043  20.472  41.439   8.744
  993POPC   C2B15044  20.356  41.297   8.339
  993POPC   C3B15045  20.441  41.548   7.989
  993POPC   C4B15046  20.384  41.660   7.565
  994POPC   NC315047  43.095  23.415   9.361
  994POPC   PO415048  43.134  22.861   9.587
  994POPC   GL115049  42.870  22.889   9.224
  994POPC   GL215050  43.073  22.628   9.108
  994POPC   C1A15051  42.899  23.043   8.804
  994POPC   D2A15052  43.132  23.174   8.433
  994POPC   C3A15053  42.987  23.123   8.038
  994POPC   C4A15054  43.179  23.015   7.636
  994POPC   C1B15055  42.987  22.549   8.704
  994POPC   C2B15056  42.872  22.723   8.353
  994POPC   C3B15057  43.000  22.632   7.953
  994POPC   C4B15058  42.869  22.596   7.563
  995POPC   NC315059  28.458  44.320   9.552
  995POPC   PO415060  28.078  43.831   9.651
  995POPC   GL115061  28.385  43.795   9.286
  995POPC   GL215062  28.532  44.099   9.102
  995POPC   C1A15063  28.467  43.670   8.838
  995POPC   D2A15064  28.454  43.858   8.454
  995POPC   C3A15065  28.600  43.699   8.080
  995POPC   C4A15066  28.451  43.890   7.747
  995POPC   C1B15067  28.317  44.262   8.752
  995POPC   C2B15068  28.120  44.257   8.345
  995POPC   C3B15069  28.159  44.291   7.900
  995POPC   C4B15070  28.173  44.229   7.462
  996POPC   NC315071  37.418   4.069   9.596
  996POPC   PO415072  38.033   4.302   9.428
  996POPC   GL115073  37.714   4.036   9.143
  996POPC   GL215074  37.324   3.918   9.132
  996POPC   C1A15075  37.661   4.243   8.751
  996POPC   D2A15076  37.671   4.558   8.420
  996POPC   C3A15077  37.534   4.470   8.000
  996POPC   C4A15078  37.785   4.506   7.628
  996POPC   C1B15079  37.378   3.819   8.710
  996POPC   C2B15080  37.407   4.066   8.358
  996POPC   C3B15081  37.378   3.958   7.993
  996POPC   C4B15082  37.540   4.027   7.641
  997POPC   NC315083  38.670  21.340   9.493
  997POPC   PO415084  38.209  21.749   9.350
  997POPC   GL115085  38.422  21.453   9.053
  997POPC   GL215086  38.815  21.390   9.023
  997POPC   C1A15087  38.473  21.471   8.634
  997POPC   D2A15088  38.599  21.566   8.260
  997POPC   C3A15089  38.303  21.699   7.990
  997POPC   C4A15090  38.340  21.341   7.751
  997POPC   C1B15091  38.670  21.039   8.793
  997POPC   C2B15092  38.553  21.034   8.370
  997POPC   C3B15093  38.787  21.157   8.014
  997POPC   C4B15094  38.859  21.420   7.683
  998POPC   NC315095  14.633  34.495   9.685
  998POPC   PO415096  14.401  35.060   9.385
  998POPC   GL115097  14.460  34.640   9.208
  998POPC   GL215098  14.798  34.468   9.220
  998POPC   C1A15099  14.376  34.517   8.790
  998POPC   D2A15100  14.400  34.814   8.450
  998POPC   C3A15101  14.152  34.757   8.076
  998POPC   C4A15102  14.256  34.504   7.720
  998POPC   C1B15103  14.870  34.640   8.838
  998POPC   C2B15104  14.786  34.443   8.444
  998POPC   C3B15105  14.624  34.373   8.056
  998POPC   C4B15106  14.835  34.461   7.694
  999POPC   NC315107  44.435   6.515   9.397
  999POPC   PO415108  44.903   7.068   9.448
  999POPC   GL115109  44.784   6.779   9.127
  999POPC   GL215110  44.881   6.422   9.150
  999POPC   C1A15111  44.638   6.640   8.724
  999POPC   D2A15112  44.382   6.813   8.382
  999POPC   C3A15113  44.594   6.702   7.990
  999POPC   C4A15114  44.513   6.661   7.527
  999POPC   C1B15115   0.079   6.389   8.740
  999POPC   C2B15116  44.972   6.555   8.327
  999POPC   C3B15117  44.981   6.374   7.932
  999POPC   C4B15118  44.752   6.214   7.577
 1000POPC   NC315119  39.112   3.666   9.593
 1000POPC   PO415120  39.569   3.225   9.404
 1000POPC   GL115121  39.430   3.523   9.111
 1000POPC   GL215122  39.432   3.862   9.208
 1000POPC   C1A15123  39.347   3.578   8.685
 1000POPC   D2A15124  39.080   3.422   8.374
 1000POPC   C3A15125  39.286   3.322   7.989
 1000POPC   C4A15126  39.647   3.503   7.817
 1000POPC   C1B15127  39.084   3.965   8.929
 1000POPC   C2B15128  38.985   3.937   8.473
 1000POPC   C3B15129  39.127   3.823   8.043
 1000POPC   C4B15130  38.955   3.829   7.616
 1001POPC   NC315131  12.098  21.432   9.618
 1001POPC   PO415132  11.554  21.568   9.336
 1001POPC   GL115133  11.865  21.471   9.091
 1001POPC   GL215134  12.228  21.509   9.119
 1001POPC   C1A15135  11.878  21.354   8.680
 1001POPC   D2A15136  11.757  21.126   8.319
 1001POPC   C3A15137  12.115  21.233   8.085
 1001POPC   C4A15138  12.327  21.586   7.859
 1001POPC   C1B15139  12.240  21.082   8.916
 1001POPC   C2B15140  12.404  20.900   8.517
 1001POPC   C3B15141  12.525  20.852   8.083
 1001POPC   C4B15142  12.402  21.083   7.701
 1002POPC   NC315143  11.412  23.305   9.738
 1002POPC   PO415144  11.235  22.656   9.606
 1002POPC   GL115145  11.294  22.626   9.168
 1002POPC   GL215146  10.931  22.527   9.109
 1002POPC   C1A15147  11.571  22.748   8.786
 1002POPC   D2A15148  11.589  22.690   8.323
 1002POPC   C3A15149  11.409  23.020   7.959
 1002POPC   C4A15150  11.428  23.153   7.485
 1002POPC   C1B15151  11.118  22.518   8.710
 1002POPC   C2B15152  11.188  22.371   8.311
 1002POPC   C3B15153  11.111  22.576   7.920
 1002POPC   C4B15154  11.281  22.684   7.530
 1003POPC   NC315155  38.363  39.535   9.546
 1003POPC   PO415156  38.206  40.119   9.838
 1003POPC   GL115157  38.218  40.018   9.372
 1003POPC   GL215158  38.516  39.887   9.185
 1003POPC   C1A15159  38.153  40.136   8.924
 1003POPC   D2A15160  38.395  40.138   8.542
 1003POPC   C3A15161  38.222  40.139   8.145
 1003POPC   C4A15162  38.304  39.978   7.748
 1003POPC   C1B15163  38.770  39.988   8.844
 1003POPC   C2B15164  38.925  40.056   8.446
 1003POPC   C3B15165  38.731  40.048   8.061
 1003POPC   C4B15166  38.758  39.804   7.690
 1004POPC   NC315167  27.047   4.185   9.540
 1004POPC   PO415168  26.529   4.624   9.499
 1004POPC   GL115169  26.691   4.342   9.204
 1004POPC   GL215170  26.588   4.001   9.332
 1004POPC   C1A15171  26.877   4.389   8.787
 1004POPC   D2A15172  27.071   4.332   8.367
 1004POPC   C3A15173  26.816   4.503   8.002
 1004POPC   C4A15174  26.939   4.621   7.569
 1004POPC   C1B15175  26.550   3.993   8.877
 1004POPC   C2B15176  26.606   4.100   8.431
 1004POPC   C3B15177  26.779   3.983   8.012
 1004POPC   C4B15178  26.749   4.160   7.582
 1005POPC   NC315179  41.071  20.827   9.519
 1005POPC   PO415180  40.631  20.292   9.564
 1005POPC   GL115181  40.671  20.562   9.191
 1005POPC   GL215182  41.006  20.417   9.213
 1005POPC   C1A15183  40.508  20.851   8.804
 1005POPC   D2A15184  40.577  21.038   8.362
 1005POPC   C3A15185  40.416  20.800   7.987
 1005POPC   C4A15186  40.460  20.500   7.656
 1005POPC   C1B15187  41.015  20.563   8.786
 1005POPC   C2B15188  41.148  20.419   8.367
 1005POPC   C3B15189  40.941  20.450   7.945
 1005POPC   C4B15190  40.931  20.290   7.528
 1006POPC   NC315191  11.740  37.250   9.483
 1006POPC   PO415192  12.073  36.624   9.473
 1006POPC   GL115193  11.922  36.897   9.165
 1006POPC   GL215194  12.159  36.800   8.962
 1006POPC   C1A15195  11.863  37.173   8.808
 1006POPC   D2A15196  12.003  37.051   8.406
 1006POPC   C3A15197  11.790  36.939   8.092
 1006POPC   C4A15198  11.899  36.807   7.693
 1006POPC   C1B15199  12.406  36.551   8.712
 1006POPC   C2B15200  12.503  36.621   8.335
 1006POPC   C3B15201  12.271  36.756   8.044
 1006POPC   C4B15202  12.401  36.711   7.647
 1007POPC   NC315203  22.239  23.711   9.536
 1007POPC   PO415204  22.882  23.829   9.541
 1007POPC   GL115205  22.914  23.628   9.173
 1007POPC   GL215206  22.552  23.542   9.173
 1007POPC   C1A15207  23.134  23.686   8.786
 1007POPC   D2A15208  23.168  23.579   8.366
 1007POPC   C3A15209  23.159  23.864   8.036
 1007POPC   C4A15210  23.024  23.699   7.605
 1007POPC   C1B15211  22.661  23.420   8.781
 1007POPC   C2B15212  22.670  23.668   8.441
 1007POPC   C3B15213  22.707  23.641   8.022
 1007POPC   C4B15214  22.518  23.723   7.638
 1008POPC   NC315215   1.886  18.547   9.396
 1008POPC   PO415216   2.094  17.927   9.375
 1008POPC   GL115217   1.968  18.158   9.080
 1008POPC   GL215218   2.205  18.410   9.045
 1008POPC   C1A15219   1.799  18.218   8.703
 1008POPC   D2A15220   1.979  18.116   8.312
 1008POPC   C3A15221   1.929  18.324   7.910
 1008POPC   C4A15222   1.798  18.189   7.492
 1008POPC   C1B15223   2.186  18.552   8.680
 1008POPC   C2B15224   2.371  18.427   8.330
 1008POPC   C3B15225   2.375  18.630   7.975
 1008POPC   C4B15226   2.312  18.613   7.566
 1009POPC   NC315227   0.576  12.957   9.425
 1009POPC   PO415228   0.675  12.373   9.573
 1009POPC   GL115229   0.478  12.561   9.105
 1009POPC   GL215230   0.332  12.913   9.001
 1009POPC   C1A15231   0.210  12.537   8.692
 1009POPC   D2A15232   0.106  12.619   8.261
 1009POPC   C3A15233   0.397  12.789   8.030
 1009POPC   C4A15234   0.525  12.676   7.627
 1009POPC   C1B15235   0.539  12.988   8.604
 1009POPC   C2B15236   0.621  13.207   8.213
 1009POPC   C3B15237   0.643  13.158   7.765
 1009POPC   C4B15238   0.488  13.306   7.403
 1010POPC   NC315239  42.954   0.610   9.449
 1010POPC   PO415240  43.541   0.340   9.523
 1010POPC   GL115241  43.285   0.321   9.149
 1010POPC   GL215242  43.010   0.078   9.178
 1010POPC   C1A15243  43.006   0.520   8.804
 1010POPC   D2A15244  43.033   0.791   8.444
 1010POPC   C3A15245  42.919   0.586   8.050
 1010POPC   C4A15246  43.229   0.462   7.762
 1010POPC   C1B15247  43.189   0.050   8.740
 1010POPC   C2B15248  43.073   0.190   8.338
 1010POPC   C3B15249  43.084   0.015   7.942
 1010POPC   C4B15250  43.108   0.048   7.452
 1011POPC   NC315251  14.281  33.453   9.628
 1011POPC   PO415252  14.550  34.081   9.519
 1011POPC   GL115253  14.309  33.810   9.224
 1011POPC   GL215254  14.463  33.502   9.165
 1011POPC   C1A15255  14.224  33.867   8.779
 1011POPC   D2A15256  14.326  34.145   8.429
 1011POPC   C3A15257  14.295  33.951   8.017
 1011POPC   C4A15258  14.555  34.022   7.643
 1011POPC   C1B15259  14.685  33.611   8.819
 1011POPC   C2B15260  14.597  33.724   8.429
 1011POPC   C3B15261  14.821  33.882   8.117
 1011POPC   C4B15262  14.768  33.602   7.809
 1012POPC   NC315263  19.729  17.494   9.414
 1012POPC   PO415264  20.245  17.770   9.692
 1012POPC   GL115265  20.200  17.553   9.203
 1012POPC   GL215266  20.042  17.202   9.092
 1012POPC   C1A15267  19.936  17.591   8.755
 1012POPC   D2A15268  19.908  17.770   8.334
 1012POPC   C3A15269  19.854  17.625   7.906
 1012POPC   C4A15270  20.047  17.357   7.536
 1012POPC   C1B15271  19.604  17.205   8.858
 1012POPC   C2B15272  19.441  17.347   8.496
 1012POPC   C3B15273  19.553  17.183   8.114
 1012POPC   C4B15274  19.524  17.333   7.708
 1013POPC   NC315275  44.901  24.218   9.783
 1013POPC   PO415276  44.909  23.588   9.467
 1013POPC   GL115277  44.868  23.612   9.030
 1013POPC   GL215278  44.504  23.668   8.961
 1013POPC   C1A15279  44.883  23.595   8.596
 1013POPC   D2A15280  44.576  23.437   8.395
 1013POPC   C3A15281  44.669  23.274   8.042
 1013POPC   C4A15282  44.893  23.532   7.782
 1013POPC   C1B15283  44.596  24.000   8.646
 1013POPC   C2B15284  44.909  24.054   8.327
 1013POPC   C3B15285  44.809  24.033   7.889
 1013POPC   C4B15286  44.430  24.046   7.640
 1014POPC   NC315287  13.417  16.756   9.529
 1014POPC   PO415288  13.972  16.556   9.237
 1014POPC   GL115289  13.564  16.591   9.066
 1014POPC   GL215290  13.607  16.946   9.088
 1014POPC   C1A15291  13.548  16.558   8.633
 1014POPC   D2A15292  13.851  16.525   8.321
 1014POPC   C3A15293  13.664  16.543   7.937
 1014POPC   C4A15294  13.960  16.483   7.628
 1014POPC   C1B15295  13.415  17.060   8.712
 1014POPC   C2B15296  13.491  16.935   8.267
 1014POPC   C3B15297  13.490  17.153   7.872
 1014POPC   C4B15298  13.681  16.890   7.551
 1015POPC   NC315299  35.810   0.161   9.270
 1015POPC   PO415300  35.276   0.524   9.520
 1015POPC   GL115301  35.232   0.406   9.124
 1015POPC   GL215302  35.295   0.081   9.154
 1015POPC   C1A15303  35.320   0.490   8.686
 1015POPC   D2A15304  35.579   0.406   8.337
 1015POPC   C3A15305  35.415   0.557   7.958
 1015POPC   C4A15306  35.598   0.479   7.568
 1015POPC   C1B15307  35.019   0.072   8.793
 1015POPC   C2B15308  34.953   0.159   8.382
 1015POPC   C3B15309  35.037   0.094   7.948
 1015POPC   C4B15310  35.065   0.434   7.611
 1016POPC   NC315311  29.231  26.997   9.667
 1016POPC   PO415312  28.849  26.488   9.616
 1016POPC   GL115313  28.969  26.745   9.280
 1016POPC   GL215314  28.680  26.633   9.111
 1016POPC   C1A15315  28.964  27.011   8.906
 1016POPC   D2A15316  29.018  26.854   8.501
 1016POPC   C3A15317  29.065  27.040   8.120
 1016POPC   C4A15318  29.120  26.990   7.691
 1016POPC   C1B15319  28.578  26.668   8.721
 1016POPC   C2B15320  28.714  26.441   8.400
 1016POPC   C3B15321  28.949  26.538   8.071
 1016POPC   C4B15322  28.769  26.589   7.684
 1017POPC   NC315323  37.990   5.716   9.472
 1017POPC   PO415324  38.659   5.633   9.396
 1017POPC   GL115325  38.361   5.795   9.150
 1017POPC   GL215326  38.449   6.119   9.044
 1017POPC   C1A15327  38.070   5.873   8.818
 1017POPC   D2A15328  38.239   6.068   8.470
 1017POPC   C3A15329  38.372   5.710   8.206
 1017POPC   C4A15330  38.361   5.350   7.892
 1017POPC   C1B15331  38.639   5.872   8.735
 1017POPC   C2B15332  38.777   6.009   8.349
 1017POPC   C3B15333  38.783   5.840   7.939
 1017POPC   C4B15334  38.408   5.830   7.706
 1018POPC   NC315335  11.920  44.225   9.766
 1018POPC   PO415336  12.190  43.609   9.767
 1018POPC   GL115337  12.182  43.780   9.331
 1018POPC   GL215338  12.402  44.087   9.243
 1018POPC   C1A15339  11.939  43.723   8.951
 1018POPC   D2A15340  11.888  43.661   8.511
 1018POPC   C3A15341  11.899  43.788   8.079
 1018POPC   C4A15342  11.956  43.947   7.647
 1018POPC   C1B15343  12.249  44.102   8.799
 1018POPC   C2B15344  12.096  44.185   8.371
 1018POPC   C3B15345  12.296  44.132   7.976
 1018POPC   C4B15346  12.309  44.334   7.596
 1019POPC   NC315347   9.935   3.095   9.825
 1019POPC   PO415348   9.427   2.732   9.522
 1019POPC   GL115349   9.750   2.720   9.118
 1019POPC   GL215350  10.074   3.018   9.123
 1019POPC   C1A15351   9.810   2.886   8.724
 1019POPC   D2A15352  10.008   2.754   8.380
 1019POPC   C3A15353   9.598   2.778   8.201
 1019POPC   C4A15354   9.476   2.661   7.820
 1019POPC   C1B15355  10.271   3.129   8.728
 1019POPC   C2B15356  10.170   3.352   8.347
 1019POPC   C3B15357   9.924   3.149   8.056
 1019POPC   C4B15358   9.483   3.186   7.887
 1020POPC   NC315359  25.170  13.255   9.745
 1020POPC   PO415360  25.362  12.665   9.506
 1020POPC   GL115361  25.441  12.770   9.109
 1020POPC   GL215362  25.773  12.739   9.081
 1020POPC   C1A15363  25.223  12.891   8.737
 1020POPC   D2A15364  25.035  12.755   8.382
 1020POPC   C3A15365  25.168  12.916   8.019
 1020POPC   C4A15366  24.963  12.756   7.670
 1020POPC   C1B15367  25.704  13.045   8.762
 1020POPC   C2B15368  25.503  13.146   8.363
 1020POPC   C3B15369  25.629  13.165   7.924
 1020POPC   C4B15370  25.394  13.058   7.579
 1021POPC   NC315371  34.879  42.199   9.436
 1021POPC   PO415372  34.747  42.668   9.013
 1021POPC   GL115373  34.660  42.182   8.969
 1021POPC   GL215374  34.395  41.924   9.116
 1021POPC   C1A15375  34.728  42.189   8.537
 1021POPC   D2A15376  34.773  42.607   8.314
 1021POPC   C3A15377  34.745  42.489   7.911
 1021POPC   C4A15378  34.861  42.074   7.833
 1021POPC   C1B15379  34.222  42.089   8.710
 1021POPC   C2B15380  34.293  42.356   8.345
 1021POPC   C3B15381  34.275  42.264   7.923
 1021POPC   C4B15382  33.990  42.385   7.579
 1022POPC   NC315383   6.052  27.348   9.961
 1022POPC   PO415384   5.589  27.688   9.568
 1022POPC   GL115385   5.772  27.774   9.143
 1022POPC   GL215386   5.552  27.494   9.068
 1022POPC   C1A15387   5.824  27.691   8.675
 1022POPC   D2A15388   6.010  27.447   8.331
 1022POPC   C3A15389   5.988  27.651   7.942
 1022POPC   C4A15390   6.168  27.828   7.570
 1022POPC   C1B15391   5.339  27.792   8.855
 1022POPC   C2B15392   5.320  27.777   8.429
 1022POPC   C3B15393   5.561  27.888   8.092
 1022POPC   C4B15394   5.424  27.785   7.699
 1023POPC   NC315395  39.732  37.090   9.808
 1023POPC   PO415396  39.691  36.654   9.256
 1023POPC   GL115397  40.100  36.913   9.181
 1023POPC   GL215398  40.238  37.194   9.332
 1023POPC   C1A15399  40.158  36.785   8.800
 1023POPC   D2A15400  39.842  36.637   8.541
 1023POPC   C3A15401  39.857  36.860   8.175
 1023POPC   C4A15402  39.873  36.774   7.752
 1023POPC   C1B15403  40.335  37.266   8.839
 1023POPC   C2B15404  40.250  37.097   8.400
 1023POPC   C3B15405  40.219  37.186   7.972
 1023POPC   C4B15406  40.402  37.401   7.653
 1024POPC   NC315407  34.971  11.259   9.421
 1024POPC   PO415408  34.383  11.508   9.575
 1024POPC   GL115409  34.462  11.480   9.121
 1024POPC   GL215410  34.732  11.261   8.988
 1024POPC   C1A15411  34.600  11.679   8.737
 1024POPC   D2A15412  34.646  11.407   8.404
 1024POPC   C3A15413  34.473  11.468   7.996
 1024POPC   C4A15414  34.571  11.133   7.680
 1024POPC   C1B15415  35.074  11.391   8.749
 1024POPC   C2B15416  35.136  11.605   8.373
 1024POPC   C3B15417  35.000  11.442   8.009
 1024POPC   C4B15418  34.843  11.551   7.650
 1025POPC   NC315419  18.387   3.112   9.437
 1025POPC   PO415420  17.866   2.708   9.464
 1025POPC   GL115421  18.159   2.748   9.121
 1025POPC   GL215422  18.001   3.066   9.080
 1025POPC   C1A15423  18.477   2.616   8.756
 1025POPC   D2A15424  18.451   2.501   8.278
 1025POPC   C3A15425  18.489   2.756   7.861
 1025POPC   C4A15426  18.167   2.723   7.477
 1025POPC   C1B15427  18.174   3.018   8.670
 1025POPC   C2B15428  18.263   3.187   8.223
 1025POPC   C3B15429  18.077   3.075   7.816
 1025POPC   C4B15430  17.902   3.127   7.331
 1026POPC   NC315431  41.804  21.145   9.702
 1026POPC   PO415432  41.384  21.518   9.367
 1026POPC   GL115433  41.740  21.432   9.129
 1026POPC   GL215434  41.801  21.082   9.196
 1026POPC   C1A15435  41.910  21.554   8.700
 1026POPC   D2A15436  41.829  21.655   8.228
 1026POPC   C3A15437  41.535  21.395   7.930
 1026POPC   C4A15438  41.239  21.153   7.636
 1026POPC   C1B15439  41.967  21.012   8.789
 1026POPC   C2B15440  42.030  21.182   8.371
 1026POPC   C3B15441  41.958  20.946   8.015
 1026POPC   C4B15442  41.694  20.944   7.728
 1027POPC   NC315443  38.953   1.077   9.579
 1027POPC   PO415444  39.469   1.314   9.471
 1027POPC   GL115445  39.286   0.993   9.199
 1027POPC   GL215446  39.099   1.280   9.118
 1027POPC   C1A15447  39.136   0.916   8.778
 1027POPC   D2A15448  39.126   1.127   8.399
 1027POPC   C3A15449  39.351   1.099   8.019
 1027POPC   C4A15450  39.336   1.284   7.610
 1027POPC   C1B15451  38.883   1.424   8.789
 1027POPC   C2B15452  38.690   1.381   8.393
 1027POPC   C3B15453  38.842   1.265   7.988
 1027POPC   C4B15454  38.912   1.539   7.664
 1028POPC   NC315455   7.428   1.536   9.533
 1028POPC   PO415456   7.879   1.976   9.611
 1028POPC   GL115457   7.573   2.003   9.250
 1028POPC   GL215458   7.305   1.812   9.120
 1028POPC   C1A15459   7.621   2.014   8.773
 1028POPC   D2A15460   7.823   1.853   8.371
 1028POPC   C3A15461   7.518   1.842   7.994
 1028POPC   C4A15462   7.269   2.181   7.801
 1028POPC   C1B15463   7.153   1.676   8.726
 1028POPC   C2B15464   6.977   1.680   8.280
 1028POPC   C3B15465   6.967   1.722   7.831
 1028POPC   C4B15466   7.101   1.900   7.416
 1029POPC   NC315467   9.996   8.117   9.657
 1029POPC   PO415468  10.687   7.889   9.635
 1029POPC   GL115469  10.478   8.077   9.288
 1029POPC   GL215470  10.156   7.939   9.217
 1029POPC   C1A15471  10.403   8.220   8.862
 1029POPC   D2A15472  10.496   8.096   8.448
 1029POPC   C3A15473  10.401   8.388   8.136
 1029POPC   C4A15474  10.516   8.376   7.716
 1029POPC   C1B15475   9.995   7.876   8.832
 1029POPC   C2B15476   9.978   8.060   8.443
 1029POPC   C3B15477  10.154   7.972   8.049
 1029POPC   C4B15478  10.039   8.163   7.681
 1030POPC   NC315479  18.144  12.094   9.501
 1030POPC   PO415480  18.671  11.652   9.365
 1030POPC   GL115481  18.541  11.986   9.076
 1030POPC   GL215482  18.206  12.126   9.005
 1030POPC   C1A15483  18.619  12.196   8.670
 1030POPC   D2A15484  18.501  12.358   8.248
 1030POPC   C3A15485  18.369  12.063   7.924
 1030POPC   C4A15486  18.409  11.943   7.471
 1030POPC   C1B15487  18.193  11.825   8.681
 1030POPC   C2B15488  18.211  11.665   8.309
 1030POPC   C3B15489  17.904  11.788   8.033
 1030POPC   C4B15490  17.748  11.601   7.659
 1031POPC   NC315491  17.946  19.269   9.425
 1031POPC   PO415492  17.272  19.013   9.498
 1031POPC   GL115493  17.415  19.293   9.128
 1031POPC   GL215494  17.747  19.155   8.963
 1031POPC   C1A15495  17.326  19.189   8.697
 1031POPC   D2A15496  17.473  18.839   8.524
 1031POPC   C3A15497  17.361  18.794   8.109
 1031POPC   C4A15498  17.447  18.943   7.744
 1031POPC   C1B15499  17.968  18.910   8.636
 1031POPC   C2B15500  17.881  18.815   8.218
 1031POPC   C3B15501  17.813  19.180   8.006
 1031POPC   C4B15502  17.816  19.260   7.578
 1032POPC   NC315503  11.684  20.372   9.575
 1032POPC   PO415504  11.980  20.988   9.507
 1032POPC   GL115505  12.031  20.634   9.213
 1032POPC   GL215506  12.375  20.477   9.166
 1032POPC   C1A15507  11.990  20.625   8.769
 1032POPC   D2A15508  11.963  20.645   8.332
 1032POPC   C3A15509  12.072  20.692   7.913
 1032POPC   C4A15510  11.860  20.973   7.682
 1032POPC   C1B15511  12.297  20.229   8.784
 1032POPC   C2B15512  12.396  20.400   8.384
 1032POPC   C3B15513  12.342  20.262   8.001
 1032POPC   C4B15514  12.245  20.297   7.610
 1033POPC   NC315515  12.624  43.661   9.593
 1033POPC   PO415516  13.057  44.109   9.475
 1033POPC   GL115517  12.868  43.872   9.140
 1033POPC   GL215518  12.613  43.607   9.102
 1033POPC   C1A15519  12.750  43.956   8.730
 1033POPC   D2A15520  12.925  43.827   8.379
 1033POPC   C3A15521  12.779  43.854   7.979
 1033POPC   C4A15522  12.891  43.544   7.677
 1033POPC   C1B15523  12.389  43.597   8.729
 1033POPC   C2B15524  12.391  43.774   8.338
 1033POPC   C3B15525  12.345  43.591   7.925
 1033POPC   C4B15526  12.442  43.806   7.568
 1034POPC   NC315527  39.613   6.688   9.305
 1034POPC   PO415528  39.091   6.458   9.523
 1034POPC   GL115529  39.123   6.604   9.126
 1034POPC   GL215530  38.810   6.473   9.100
 1034POPC   C1A15531  39.323   6.731   8.748
 1034POPC   D2A15532  39.591   6.909   8.461
 1034POPC   C3A15533  39.323   6.891   8.107
 1034POPC   C4A15534  39.349   6.602   7.790
 1034POPC   C1B15535  38.951   6.290   8.756
 1034POPC   C2B15536  39.048   6.486   8.401
 1034POPC   C3B15537  39.008   6.340   8.039
 1034POPC   C4B15538  38.671   6.297   7.753
 1035POPC   NC315539  36.834  14.869   9.406
 1035POPC   PO415540  37.069  15.523   9.476
 1035POPC   GL115541  37.032  15.269   9.126
 1035POPC   GL215542  37.237  14.971   9.033
 1035POPC   C1A15543  36.781  15.158   8.815
 1035POPC   D2A15544  36.854  15.362   8.467
 1035POPC   C3A15545  36.747  15.188   8.133
 1035POPC   C4A15546  36.771  14.962   7.814
 1035POPC   C1B15547  37.216  15.001   8.560
 1035POPC   C2B15548  37.213  14.939   8.100
 1035POPC   C3B15549  37.251  14.846   7.652
 1035POPC   C4B15550  37.215  14.695   7.188
 1036POPC   NC315551  30.722  34.400   9.725
 1036POPC   PO415552  31.097  34.908   9.429
 1036POPC   GL115553  30.818  34.571   9.243
 1036POPC   GL215554  30.583  34.782   9.128
 1036POPC   C1A15555  30.617  34.423   8.794
 1036POPC   D2A15556  30.701  34.277   8.345
 1036POPC   C3A15557  30.677  34.380   7.891
 1036POPC   C4A15558  30.561  34.735   7.651
 1036POPC   C1B15559  30.954  34.802   8.812
 1036POPC   C2B15560  30.989  34.814   8.383
 1036POPC   C3B15561  30.928  34.974   7.966
 1036POPC   C4B15562  31.063  34.716   7.660
 1037POPC   NC315563  13.844  42.226   9.436
 1037POPC   PO415564  14.189  42.827   9.257
 1037POPC   GL115565  13.824  42.559   9.043
 1037POPC   GL215566  13.471  42.387   9.119
 1037POPC   C1A15567  13.672  42.477   8.649
 1037POPC   D2A15568  13.729  42.161   8.355
 1037POPC   C3A15569  13.502  42.287   8.025
 1037POPC   C4A15570  13.638  42.632   7.756
 1037POPC   C1B15571  13.316  42.110   8.759
 1037POPC   C2B15572  12.993  42.151   8.420
 1037POPC   C3B15573  13.042  42.058   7.967
 1037POPC   C4B15574  13.198  42.300   7.584
 1038POPC   NC315575  24.988  19.667   9.236
 1038POPC   PO415576  24.414  19.481   9.600
 1038POPC   GL115577  24.420  19.698   9.194
 1038POPC   GL215578  24.591  19.590   8.884
 1038POPC   C1A15579  24.185  19.888   8.828
 1038POPC   D2A15580  24.409  20.057   8.447
 1038POPC   C3A15581  24.305  19.962   8.038
 1038POPC   C4A15582  24.286  19.731   7.678
 1038POPC   C1B15583  24.954  19.492   8.616
 1038POPC   C2B15584  25.024  19.643   8.272
 1038POPC   C3B15585  24.686  19.629   8.043
 1038POPC   C4B15586  24.799  19.562   7.670
 1039POPC   NC315587  38.278  42.248   9.706
 1039POPC   PO415588  38.448  42.804   9.517
 1039POPC   GL115589  38.451  42.470   9.206
 1039POPC   GL215590  38.162  42.223   9.208
 1039POPC   C1A15591  38.599  42.364   8.774
 1039POPC   D2A15592  38.669  42.081   8.431
 1039POPC   C3A15593  38.453  42.225   8.074
 1039POPC   C4A15594  38.474  42.438   7.666
 1039POPC   C1B15595  38.107  42.476   8.825
 1039POPC   C2B15596  38.259  42.624   8.436
 1039POPC   C3B15597  38.155  42.620   8.000
 1039POPC   C4B15598  38.082  42.788   7.587
 1040POPC   NC315599  28.960  27.928   9.910
 1040POPC   PO415600  29.284  28.206   9.387
 1040POPC   GL115601  29.207  28.378   9.069
 1040POPC   GL215602  29.335  28.758   9.086
 1040POPC   C1A15603  28.867  28.334   8.803
 1040POPC   D2A15604  28.713  28.479   8.419
 1040POPC   C3A15605  28.723  28.279   8.026
 1040POPC   C4A15606  28.754  28.507   7.664
 1040POPC   C1B15607  29.239  28.670   8.682
 1040POPC   C2B15608  29.221  28.410   8.367
 1040POPC   C3B15609  29.137  28.592   8.003
 1040POPC   C4B15610  29.199  28.301   7.705
 1041POPC   NC315611  26.419  32.077   9.470
 1041POPC   PO415612  27.020  32.447   9.649
 1041POPC   GL115613  26.816  32.344   9.275
 1041POPC   GL215614  26.968  32.030   9.200
 1041POPC   C1A15615  26.615  32.280   8.875
 1041POPC   D2A15616  26.766  32.458   8.518
 1041POPC   C3A15617  26.580  32.286   8.175
 1041POPC   C4A15618  26.538  32.269   7.748
 1041POPC   C1B15619  27.114  32.158   8.789
 1041POPC   C2B15620  27.022  32.037   8.364
 1041POPC   C3B15621  27.036  32.173   7.935
 1041POPC   C4B15622  26.998  31.913   7.562
 1042POPC   NC315623  15.369  12.070   9.657
 1042POPC   PO415624  15.445  11.779   9.181
 1042POPC   GL115625  15.300  12.181   9.128
 1042POPC   GL215626  14.979  12.107   9.261
 1042POPC   C1A15627  15.298  12.428   8.738
 1042POPC   D2A15628  15.354  12.481   8.295
 1042POPC   C3A15629  15.485  12.108   8.048
 1042POPC   C4A15630  15.360  11.883   7.661
 1042POPC   C1B15631  14.900  12.085   8.787
 1042POPC   C2B15632  15.098  11.970   8.367
 1042POPC   C3B15633  14.969  12.091   7.934
 1042POPC   C4B15634  14.874  12.103   7.471
 1043POPC   NC315635   9.491  38.587   9.608
 1043POPC   PO415636   9.940  38.145   9.546
 1043POPC   GL115637   9.967  38.349   9.149
 1043POPC   GL215638   9.713  38.617   9.168
 1043POPC   C1A15639  10.058  38.629   8.797
 1043POPC   D2A15640  10.071  38.879   8.407
 1043POPC   C3A15641   9.915  38.775   7.990
 1043POPC   C4A15642   9.598  38.733   7.613
 1043POPC   C1B15643   9.524  38.439   8.848
 1043POPC   C2B15644   9.652  38.530   8.468
 1043POPC   C3B15645   9.464  38.563   8.088
 1043POPC   C4B15646   9.564  38.247   7.810
 1044POPC   NC315647  41.815  44.393   9.444
 1044POPC   PO415648  41.536   0.094   9.560
 1044POPC   GL115649  41.510  44.769   9.200
 1044POPC   GL215650  41.269  44.463   9.217
 1044POPC   C1A15651  41.716  44.715   8.808
 1044POPC   D2A15652  41.769  44.957   8.422
 1044POPC   C3A15653  41.770  44.691   8.068
 1044POPC   C4A15654  41.773  44.711   7.651
 1044POPC   C1B15655  41.128  44.554   8.812
 1044POPC   C2B15656  41.359  44.637   8.441
 1044POPC   C3B15657  41.264  44.600   8.031
 1044POPC   C4B15658  41.283  44.657   7.625
 1045POPC   NC315659  17.110  42.142   9.347
 1045POPC   PO415660  17.691  42.592   9.423
 1045POPC   GL115661  17.645  42.294   9.061
 1045POPC   GL215662  17.595  41.949   9.213
 1045POPC   C1A15663  17.464  42.345   8.611
 1045POPC   D2A15664  17.160  42.508   8.273
 1045POPC   C3A15665  17.409  42.553   7.909
 1045POPC   C4A15666  17.807  42.427   7.751
 1045POPC   C1B15667  17.391  41.888   8.829
 1045POPC   C2B15668  17.487  41.837   8.431
 1045POPC   C3B15669  17.571  42.049   8.046
 1045POPC   C4B15670  17.300  42.101   7.695
 1046POPC   NC315671  44.301   1.366   9.304
 1046POPC   PO415672  44.981   1.246   9.439
 1046POPC   GL115673  44.770   1.429   9.129
 1046POPC   GL215674  44.728   1.112   8.992
 1046POPC   C1A15675  44.596   1.491   8.711
 1046POPC   D2A15676  44.706   1.406   8.316
 1046POPC   C3A15677  44.425   1.368   7.957
 1046POPC   C4A15678  44.620   1.463   7.579
 1046POPC   C1B15679  44.686   0.933   8.608
 1046POPC   C2B15680  44.598   0.939   8.188
 1046POPC   C3B15681  44.831   1.066   7.822
 1046POPC   C4B15682  44.829   1.046   7.361
 1047POPC   NC315683  29.899  29.169   9.506
 1047POPC   PO415684  30.134  28.543   9.528
 1047POPC   GL115685  30.057  28.843   9.146
 1047POPC   GL215686  30.266  29.200   9.157
 1047POPC   C1A15687  29.781  28.877   8.763
 1047POPC   D2A15688  30.019  28.902   8.360
 1047POPC   C3A15689  29.834  28.913   7.926
 1047POPC   C4A15690  29.722  29.138   7.525
 1047POPC   C1B15691  30.041  29.318   8.784
 1047POPC   C2B15692  30.093  29.425   8.355
 1047POPC   C3B15693  29.961  29.396   7.946
 1047POPC   C4B15694  29.903  29.632   7.610
 1048POPC   NC315695  37.045  37.449   9.475
 1048POPC   PO415696  36.394  37.716   9.623
 1048POPC   GL115697  36.587  37.561   9.234
 1048POPC   GL215698  36.827  37.813   9.170
 1048POPC   C1A15699  36.740  37.418   8.800
 1048POPC   D2A15700  36.848  37.321   8.361
 1048POPC   C3A15701  36.694  37.472   7.968
 1048POPC   C4A15702  36.854  37.675   7.595
 1048POPC   C1B15703  37.048  37.975   8.820
 1048POPC   C2B15704  36.896  37.838   8.466
 1048POPC   C3B15705  36.828  37.934   8.080
 1048POPC   C4B15706  37.176  38.033   7.782
 1049POPC   NC315707  44.611  39.496   9.349
 1049POPC   PO415708  44.622  38.842   9.583
 1049POPC   GL115709  44.837  39.020   9.182
 1049POPC   GL215710   0.022  39.372   9.121
 1049POPC   C1A15711  44.711  39.161   8.744
 1049POPC   D2A15712  44.460  39.472   8.497
 1049POPC   C3A15713  44.508  39.432   8.038
 1049POPC   C4A15714  44.432  39.077   7.702
 1049POPC   C1B15715  44.972  39.606   8.751
 1049POPC   C2B15716   0.048  39.432   8.365
 1049POPC   C3B15717   0.007  39.572   7.967
 1049POPC   C4B15718  44.878  39.324   7.655
 1050POPC   NC315719  32.489  14.743   9.748
 1050POPC   PO415720  32.162  14.222   9.484
 1050POPC   GL115721  32.117  14.441   9.113
 1050POPC   GL215722  32.440  14.556   9.068
 1050POPC   C1A15723  32.082  14.488   8.678
 1050POPC   D2A15724  32.347  14.256   8.392
 1050POPC   C3A15725  32.192  14.299   7.997
 1050POPC   C4A15726  31.963  14.348   7.606
 1050POPC   C1B15727  32.540  14.711   8.663
 1050POPC   C2B15728  32.303  14.757   8.278
 1050POPC   C3B15729  32.450  14.764   7.865
 1050POPC   C4B15730  32.478  14.444   7.616
 1051POPC   NC315731  19.240  38.051   9.435
 1051POPC   PO415732  18.860  37.606   9.738
 1051POPC   GL115733  18.948  37.653   9.255
 1051POPC   GL215734  19.319  37.643   9.114
 1051POPC   C1A15735  18.891  37.677   8.789
 1051POPC   D2A15736  19.080  37.435   8.453
 1051POPC   C3A15737  18.984  37.511   7.997
 1051POPC   C4A15738  18.920  37.713   7.597
 1051POPC   C1B15739  19.353  37.870   8.680
 1051POPC   C2B15740  19.329  37.855   8.209
 1051POPC   C3B15741  19.423  37.716   7.761
 1051POPC   C4B15742  19.310  37.818   7.297
 1052POPC   NC315743  17.628  21.034   9.822
 1052POPC   PO415744  17.824  21.531   9.398
 1052POPC   GL115745  17.710  21.470   9.020
 1052POPC   GL215746  17.435  21.718   9.055
 1052POPC   C1A15747  17.563  21.148   8.697
 1052POPC   D2A15748  17.673  20.949   8.305
 1052POPC   C3A15749  17.419  21.012   7.960
 1052POPC   C4A15750  17.608  21.181   7.613
 1052POPC   C1B15751  17.519  21.672   8.618
 1052POPC   C2B15752  17.758  21.474   8.344
 1052POPC   C3B15753  17.584  21.505   7.996
 1052POPC   C4B15754  17.207  21.458   7.803
 1053POPC   NC315755   7.099  31.866   9.524
 1053POPC   PO415756   7.370  32.501   9.417
 1053POPC   GL115757   7.276  32.219   9.120
 1053POPC   GL215758   6.984  32.004   9.073
 1053POPC   C1A15759   7.548  32.208   8.776
 1053POPC   D2A15760   7.652  32.495   8.468
 1053POPC   C3A15761   7.664  32.325   8.088
 1053POPC   C4A15762   7.568  32.193   7.706
 1053POPC   C1B15763   7.127  31.948   8.700
 1053POPC   C2B15764   7.160  32.307   8.406
 1053POPC   C3B15765   7.147  32.205   7.975
 1053POPC   C4B15766   7.078  31.766   7.803
 1054POPC   NC315767  20.873  20.209   9.410
 1054POPC   PO415768  20.345  19.655   9.436
 1054POPC   GL115769  20.577  19.808   9.115
 1054POPC   GL215770  20.414  20.113   9.047
 1054POPC   C1A15771  20.440  19.744   8.691
 1054POPC   D2A15772  20.586  19.531   8.354
 1054POPC   C3A15773  20.558  19.739   8.004
 1054POPC   C4A15774  20.473  19.713   7.593
 1054POPC   C1B15775  20.763  20.152   8.760
 1054POPC   C2B15776  20.835  19.965   8.387
 1054POPC   C3B15777  21.142  19.898   8.075
 1054POPC   C4B15778  20.966  19.759   7.671
 1055POPC   NC315779   0.074  40.655   9.513
 1055POPC   PO415780   0.644  41.014   9.518
 1055POPC   GL115781   0.398  40.917   9.184
 1055POPC   GL215782   0.504  40.576   9.190
 1055POPC   C1A15783   0.425  41.058   8.764
 1055POPC   D2A15784   0.615  40.992   8.369
 1055POPC   C3A15785   0.424  40.919   8.049
 1055POPC   C4A15786   0.166  41.006   7.760
 1055POPC   C1B15787   0.258  40.575   8.818
 1055POPC   C2B15788   0.167  40.684   8.403
 1055POPC   C3B15789   0.135  40.518   7.960
 1055POPC   C4B15790   0.470  40.597   7.658
 1056POPC   NC315791  26.713  11.268   9.613
 1056POPC   PO415792  27.264  11.429   9.308
 1056POPC   GL115793  26.952  11.216   9.139
 1056POPC   GL215794  26.777  11.496   9.149
 1056POPC   C1A15795  26.892  11.095   8.734
 1056POPC   D2A15796  26.841  11.341   8.376
 1056POPC   C3A15797  27.052  11.168   8.048
 1056POPC   C4A15798  27.013  10.952   7.701
 1056POPC   C1B15799  26.567  11.559   8.789
 1056POPC   C2B15800  26.353  11.612   8.434
 1056POPC   C3B15801  26.491  11.547   8.057
 1056POPC   C4B15802  26.749  11.443   7.743
 1057POPC   NC315803  19.938  24.814   9.472
 1057POPC   PO415804  19.379  24.364   9.446
 1057POPC   GL115805  19.675  24.358   9.049
 1057POPC   GL215806  19.956  24.553   9.045
 1057POPC   C1A15807  19.984  24.125   8.767
 1057POPC   D2A15808  19.838  23.962   8.363
 1057POPC   C3A15809  19.643  24.296   8.080
 1057POPC   C4A15810  19.865  24.426   7.742
 1057POPC   C1B15811  20.118  24.608   8.645
 1057POPC   C2B15812  20.008  24.636   8.218
 1057POPC   C3B15813  20.173  24.835   7.837
 1057POPC   C4B15814  20.205  24.628   7.425
 1058POPC   NC315815  11.758  36.251   9.457
 1058POPC   PO415816  12.223  35.792   9.474
 1058POPC   GL115817  12.177  36.007   9.116
 1058POPC   GL215818  12.298  36.321   9.140
 1058POPC   C1A15819  12.310  36.028   8.699
 1058POPC   D2A15820  12.184  36.204   8.322
 1058POPC   C3A15821  12.351  36.217   7.921
 1058POPC   C4A15822  12.114  35.855   7.749
 1058POPC   C1B15823  11.930  36.374   8.840
 1058POPC   C2B15824  11.885  36.570   8.446
 1058POPC   C3B15825  11.777  36.430   8.046
 1058POPC   C4B15826  11.913  36.303   7.649
 1059POPC   NC315827  12.815  16.078   9.575
 1059POPC   PO415828  12.872  15.425   9.534
 1059POPC   GL115829  12.831  15.725   9.175
 1059POPC   GL215830  12.470  15.734   9.126
 1059POPC   C1A15831  12.721  16.159   8.960
 1059POPC   D2A15832  12.499  16.305   8.613
 1059POPC   C3A15833  12.613  16.086   8.245
 1059POPC   C4A15834  12.700  16.198   7.821
 1059POPC   C1B15835  12.541  15.768   8.693
 1059POPC   C2B15836  12.780  15.599   8.400
 1059POPC   C3B15837  12.673  15.427   8.032
 1059POPC   C4B15838  12.742  15.529   7.626
 1060POPC   NC315839  36.114   2.511   9.634
 1060POPC   PO415840  35.781   3.051   9.573
 1060POPC   GL115841  36.066   2.925   9.235
 1060POPC   GL215842  36.163   2.594   9.088
 1060POPC   C1A15843  36.078   3.070   8.824
 1060POPC   D2A15844  35.965   2.896   8.445
 1060POPC   C3A15845  36.122   3.100   8.061
 1060POPC   C4A15846  36.153   2.783   7.733
 1060POPC   C1B15847  35.876   2.443   8.759
 1060POPC   C2B15848  35.589   2.485   8.391
 1060POPC   C3B15849  35.774   2.513   7.979
 1060POPC   C4B15850  36.127   2.276   7.773
 1061POPC   NC315851   3.178  33.296   9.410
 1061POPC   PO415852   2.512  33.114   9.564
 1061POPC   GL115853   2.661  33.153   9.126
 1061POPC   GL215854   2.988  33.042   8.999
 1061POPC   C1A15855   2.595  33.375   8.728
 1061POPC   D2A15856   2.436  33.352   8.296
 1061POPC   C3A15857   2.711  33.076   8.026
 1061POPC   C4A15858   3.089  33.028   7.775
 1061POPC   C1B15859   3.033  32.690   8.684
 1061POPC   C2B15860   2.940  32.660   8.234
 1061POPC   C3B15861   3.165  32.533   7.890
 1061POPC   C4B15862   3.184  32.584   7.458
 1062POPC   NC315863   1.000   8.646   9.514
 1062POPC   PO415864   1.339   9.265   9.494
 1062POPC   GL115865   1.379   8.937   9.205
 1062POPC   GL215866   1.072   8.807   9.041
 1062POPC   C1A15867   1.523   8.940   8.802
 1062POPC   D2A15868   1.270   8.917   8.467
 1062POPC   C3A15869   1.463   8.929   8.115
 1062POPC   C4A15870   1.298   8.828   7.725
 1062POPC   C1B15871   1.009   9.187   8.829
 1062POPC   C2B15872   0.966   9.327   8.391
 1062POPC   C3B15873   0.980   9.145   7.989
 1062POPC   C4B15874   0.938   9.128   7.532
 1063POPC   NC315875  40.301  44.175   9.479
 1063POPC   PO415876  39.704  43.857   9.464
 1063POPC   GL115877  39.965  43.953   9.173
 1063POPC   GL215878  39.928  44.250   9.080
 1063POPC   C1A15879  40.038  43.809   8.798
 1063POPC   D2A15880  39.948  43.806   8.388
 1063POPC   C3A15881  40.252  43.704   8.102
 1063POPC   C4A15882  39.967  43.560   7.809
 1063POPC   C1B15883  40.111  44.349   8.690
 1063POPC   C2B15884  39.912  44.296   8.300
 1063POPC   C3B15885  39.988  44.101   7.922
 1063POPC   C4B15886  40.285  44.243   7.671
 1064POPC   NC315887  11.527  26.973   9.618
 1064POPC   PO415888  10.908  27.071   9.433
 1064POPC   GL115889  11.268  27.052   9.173
 1064POPC   GL215890  11.468  26.755   9.148
 1064POPC   C1A15891  11.346  27.035   8.746
 1064POPC   D2A15892  11.092  26.767   8.535
 1064POPC   C3A15893  11.162  26.796   8.102
 1064POPC   C4A15894  11.092  26.979   7.710
 1064POPC   C1B15895  11.547  26.515   8.771
 1064POPC   C2B15896  11.728  26.540   8.343
 1064POPC   C3B15897  11.532  26.498   7.893
 1064POPC   C4B15898  11.469  26.267   7.482
 1065POPC   NC315899   5.685  41.567   9.524
 1065POPC   PO415900   6.360  41.460   9.389
 1065POPC   GL115901   6.050  41.319   9.151
 1065POPC   GL215902   5.947  41.648   9.109
 1065POPC   C1A15903   5.934  41.324   8.736
 1065POPC   D2A15904   6.120  41.569   8.477
 1065POPC   C3A15905   5.981  41.609   8.088
 1065POPC   C4A15906   5.973  41.461   7.698
 1065POPC   C1B15907   5.682  41.779   8.796
 1065POPC   C2B15908   5.791  41.973   8.400
 1065POPC   C3B15909   5.579  41.898   8.016
 1065POPC   C4B15910   5.534  41.763   7.596
 1066POPC   NC315911   8.552  10.522   9.566
 1066POPC   PO415912   8.073  10.051   9.599
 1066POPC   GL115913   8.313  10.223   9.225
 1066POPC   GL215914   8.157  10.567   9.173
 1066POPC   C1A15915   8.431  10.364   8.789
 1066POPC   D2A15916   8.176  10.418   8.418
 1066POPC   C3A15917   8.292  10.261   8.039
 1066POPC   C4A15918   8.319  10.461   7.641
 1066POPC   C1B15919   8.092  10.793   8.750
 1066POPC   C2B15920   8.144  10.933   8.343
 1066POPC   C3B15921   8.067  10.762   7.967
 1066POPC   C4B15922   7.914  10.835   7.525
 1067POPC   NC315923  26.736  15.570   9.496
 1067POPC   PO415924  26.868  14.839   9.532
 1067POPC   GL115925  26.674  15.129   9.185
 1067POPC   GL215926  26.498  15.469   9.069
 1067POPC   C1A15927  26.872  15.215   8.778
 1067POPC   D2A15928  27.077  14.991   8.403
 1067POPC   C3A15929  27.105  15.139   7.989
 1067POPC   C4A15930  26.777  14.967   7.758
 1067POPC   C1B15931  26.565  15.634   8.680
 1067POPC   C2B15932  26.826  15.514   8.352
 1067POPC   C3B15933  26.644  15.402   8.020
 1067POPC   C4B15934  26.763  15.484   7.665
 1068POPC   NC315935   0.577  15.340   9.385
 1068POPC   PO415936   0.074  14.966   9.357
 1068POPC   GL115937   0.231  15.181   9.045
 1068POPC   GL215938   0.188  15.534   9.126
 1068POPC   C1A15939   0.313  15.095   8.645
 1068POPC   D2A15940   0.612  15.110   8.331
 1068POPC   C3A15941   0.528  14.990   7.912
 1068POPC   C4A15942   0.779  15.252   7.655
 1068POPC   C1B15943   0.452  15.581   8.751
 1068POPC   C2B15944   0.276  15.507   8.348
 1068POPC   C3B15945   0.452  15.487   7.960
 1068POPC   C4B15946   0.347  15.494   7.500
 1069POPC   NC315947  30.623   3.576   9.556
 1069POPC   PO415948  31.059   3.410   9.114
 1069POPC   GL115949  30.698   3.683   9.047
 1069POPC   GL215950  30.395   3.487   9.116
 1069POPC   C1A15951  30.760   3.767   8.624
 1069POPC   D2A15952  31.146   3.786   8.359
 1069POPC   C3A15953  31.043   3.596   8.008
 1069POPC   C4A15954  30.673   3.612   7.806
 1069POPC   C1B15955  30.477   3.333   8.722
 1069POPC   C2B15956  30.460   3.496   8.323
 1069POPC   C3B15957  30.265   3.350   7.992
 1069POPC   C4B15958  30.214   3.554   7.630
 1070POPC   NC315959  28.921  35.427   9.395
 1070POPC   PO415960  29.243  34.772   9.287
 1070POPC   GL115961  29.337  35.239   9.133
 1070POPC   GL215962  29.406  35.581   9.331
 1070POPC   C1A15963  29.150  35.482   8.747
 1070POPC   D2A15964  29.162  35.648   8.290
 1070POPC   C3A15965  28.878  35.538   7.942
 1070POPC   C4A15966  28.918  35.219   7.617
 1070POPC   C1B15967  29.587  35.695   8.935
 1070POPC   C2B15968  29.635  35.478   8.548
 1070POPC   C3B15969  29.626  35.552   8.109
 1070POPC   C4B15970  29.411  35.344   7.754
 1071POPC   NC315971  44.910  37.762   9.346
 1071POPC   PO415972   0.540  37.550   9.574
 1071POPC   GL115973   0.671  37.690   9.186
 1071POPC   GL215974   0.337  37.777   9.084
 1071POPC   C1A15975   0.690  37.690   8.759
 1071POPC   D2A15976   0.600  37.775   8.363
 1071POPC   C3A15977   0.736  37.478   8.070
 1071POPC   C4A15978   0.573  37.611   7.700
 1071POPC   C1B15979   0.140  37.749   8.649
 1071POPC   C2B15980   0.142  37.588   8.201
 1071POPC   C3B15981   0.042  37.504   7.754
 1071POPC   C4B15982   0.068  37.234   7.389
 1072POPC   NC315983   5.412  38.144   9.518
 1072POPC   PO415984   5.133  38.704   9.597
 1072POPC   GL115985   5.247  38.621   9.174
 1072POPC   GL215986   5.518  38.824   9.099
 1072POPC   C1A15987   5.064  38.426   8.796
 1072POPC   D2A15988   4.708  38.514   8.534
 1072POPC   C3A15989   4.848  38.688   8.170
 1072POPC   C4A15990   4.891  38.521   7.761
 1072POPC   C1B15991   5.584  38.563   8.758
 1072POPC   C2B15992   5.455  38.395   8.385
 1072POPC   C3B15993   5.352  38.561   7.992
 1072POPC   C4B15994   5.347  38.860   7.658
 1073POPC   NC315995  25.471  24.621   9.608
 1073POPC   PO415996  25.587  23.971   9.488
 1073POPC   GL115997  25.425  24.161   9.117
 1073POPC   GL215998  25.410  24.537   9.116
 1073POPC   C1A15999  25.556  24.289   8.702
 1073POPC   D2A16000  25.458  24.396   8.304
 1073POPC   C3A16001  25.508  24.129   7.974
 1073POPC   C4A16002  25.240  24.183   7.635
 1073POPC   C1B16003  25.304  24.739   8.713
 1073POPC   C2B16004  25.253  24.848   8.270
 1073POPC   C3B16005  25.308  24.691   7.874
 1073POPC   C4B16006  25.230  24.929   7.501
 1074POPC   NC316007   4.929  35.872   9.569
 1074POPC   PO416008   4.802  36.489   9.275
 1074POPC   GL116009   4.891  36.173   8.988
 1074POPC   GL216010   5.162  35.945   9.046
 1074POPC   C1A16011   4.883  36.261   8.539
 1074POPC   D2A16012   4.985  35.996   8.196
 1074POPC   C3A16013   5.002  36.141   7.792
 1074POPC   C4A16014   5.261  36.395   7.547
 1074POPC   C1B16015   5.290  35.976   8.626
 1074POPC   C2B16016   5.483  35.867   8.237
 1074POPC   C3B16017   5.497  36.041   7.847
 1074POPC   C4B16018   5.303  35.918   7.429
 1075POPC   NC316019  17.343  43.070   9.486
 1075POPC   PO416020  18.043  43.262   9.462
 1075POPC   GL116021  17.756  43.058   9.159
 1075POPC   GL216022  17.602  43.331   9.045
 1075POPC   C1A16023  17.485  42.854   8.832
 1075POPC   D2A16024  17.218  42.990   8.486
 1075POPC   C3A16025  17.544  43.032   8.197
 1075POPC   C4A16026  17.726  42.939   7.826
 1075POPC   C1B16027  17.560  43.360   8.627
 1075POPC   C2B16028  17.424  43.530   8.244
 1075POPC   C3B16029  17.369  43.332   7.826
 1075POPC   C4B16030  17.237  43.471   7.427
 1076POPC   NC316031  28.546  12.539   9.423
 1076POPC   PO416032  27.961  12.785   9.528
 1076POPC   GL116033  28.102  12.851   9.119
 1076POPC   GL216034  28.424  13.011   9.143
 1076POPC   C1A16035  28.029  12.802   8.676
 1076POPC   D2A16036  28.054  13.040   8.321
 1076POPC   C3A16037  28.303  12.966   7.961
 1076POPC   C4A16038  28.535  13.318   7.797
 1076POPC   C1B16039  28.493  12.671   8.803
 1076POPC   C2B16040  28.471  12.580   8.367
 1076POPC   C3B16041  28.708  12.619   7.983
 1076POPC   C4B16042  28.591  12.714   7.563
 1077POPC   NC316043   4.222  34.490   9.624
 1077POPC   PO416044   4.733  34.510   9.310
 1077POPC   GL116045   4.350  34.322   9.135
 1077POPC   GL216046   4.197  34.652   9.116
 1077POPC   C1A16047   4.319  34.227   8.692
 1077POPC   D2A16048   4.352  34.619   8.474
 1077POPC   C3A16049   4.238  34.651   8.048
 1077POPC   C4A16050   4.163  34.344   7.745
 1077POPC   C1B16051   4.099  34.970   8.786
 1077POPC   C2B16052   3.899  34.948   8.387
 1077POPC   C3B16053   3.992  35.110   7.991
 1077POPC   C4B16054   4.219  34.950   7.616
 1078POPC   NC316055  39.757  31.722   9.559
 1078POPC   PO416056  40.222  31.186   9.626
 1078POPC   GL116057  40.090  31.362   9.173
 1078POPC   GL216058  39.806  31.547   9.100
 1078POPC   C1A16059  40.145  31.637   8.739
 1078POPC   D2A16060  40.163  31.878   8.355
 1078POPC   C3A16061  40.271  31.584   8.023
 1078POPC   C4A16062  39.990  31.273   7.829
 1078POPC   C1B16063  39.734  31.327   8.723
 1078POPC   C2B16064  39.853  31.454   8.319
 1078POPC   C3B16065  39.788  31.718   7.955
 1078POPC   C4B16066  39.632  31.556   7.538
 1079POPC   NC316067  10.995  44.488   9.493
 1079POPC   PO416068  10.496  44.983   9.399
 1079POPC   GL116069  10.752  44.798   9.181
 1079POPC   GL216070  10.553  44.463   9.230
 1079POPC   C1A16071  10.749  44.644   8.801
 1079POPC   D2A16072  10.911  44.526   8.472
 1079POPC   C3A16073  10.670  44.580   8.130
 1079POPC   C4A16074  10.676  44.620   7.729
 1079POPC   C1B16075  10.288  44.377   8.872
 1079POPC   C2B16076  10.330  44.302   8.412
 1079POPC   C3B16077  10.163  44.474   8.021
 1079POPC   C4B16078  10.204  44.508   7.575
 1080POPC   NC316079  35.575  33.030   9.559
 1080POPC   PO416080  36.252  33.108   9.654
 1080POPC   GL116081  36.149  33.026   9.208
 1080POPC   GL216082  36.236  32.681   9.147
 1080POPC   C1A16083  36.057  33.192   8.777
 1080POPC   D2A16084  35.902  33.279   8.359
 1080POPC   C3A16085  36.187  33.445   8.069
 1080POPC   C4A16086  36.298  33.330   7.662
 1080POPC   C1B16087  36.036  32.665   8.732
 1080POPC   C2B16088  35.885  32.779   8.308
 1080POPC   C3B16089  36.051  32.952   7.915
 1080POPC   C4B16090  35.952  32.976   7.450
 1081POPC   NC316091  44.434  40.019   9.584
 1081POPC   PO416092  44.302  39.625   9.049
 1081POPC   GL116093  44.571  39.977   9.055
 1081POPC   GL216094  44.500  40.315   9.173
 1081POPC   C1A16095  44.539  40.043   8.628
 1081POPC   D2A16096  44.769  39.860   8.315
 1081POPC   C3A16097  44.658  39.941   7.902
 1081POPC   C4A16098  44.493  39.660   7.575
 1081POPC   C1B16099  44.742  40.468   8.794
 1081POPC   C2B16100  44.792  40.368   8.346
 1081POPC   C3B16101  44.621  40.454   7.976
 1081POPC   C4B16102  44.795  40.340   7.589
 1082POPC   NC316103  32.569   5.872   9.846
 1082POPC   PO416104  33.137   5.626   9.557
 1082POPC   GL116105  33.099   5.907   9.167
 1082POPC   GL216106  32.887   5.743   8.915
 1082POPC   C1A16107  33.247   6.084   8.791
 1082POPC   D2A16108  33.379   5.843   8.444
 1082POPC   C3A16109  33.291   6.028   8.075
 1082POPC   C4A16110  33.481   6.074   7.707
 1082POPC   C1B16111  33.249   5.504   8.842
 1082POPC   C2B16112  33.131   5.357   8.470
 1082POPC   C3B16113  33.062   5.568   8.112
 1082POPC   C4B16114  33.355   5.593   7.770
 1083POPC   NC316115  20.535  28.731   9.596
 1083POPC   PO416116  21.133  29.039   9.415
 1083POPC   GL116117  20.917  29.119   9.046
 1083POPC   GL216118  20.603  28.904   9.084
 1083POPC   C1A16119  20.776  29.234   8.645
 1083POPC   D2A16120  20.692  29.094   8.240
 1083POPC   C3A16121  20.436  29.230   7.873
 1083POPC   C4A16122  20.677  29.336   7.471
 1083POPC   C1B16123  20.355  28.915   8.686
 1083POPC   C2B16124  20.241  28.861   8.259
 1083POPC   C3B16125  20.509  28.718   7.915
 1083POPC   C4B16126  20.476  28.872   7.505
 1084POPC   NC316127   0.199  14.586   9.578
 1084POPC   PO416128   0.407  14.026   9.279
 1084POPC   GL116129   0.520  14.332   9.017
 1084POPC   GL216130   0.444  14.681   9.106
 1084POPC   C1A16131   0.494  14.253   8.599
 1084POPC   D2A16132   0.510  14.066   8.218
 1084POPC   C3A16133   0.436  14.257   7.856
 1084POPC   C4A16134   0.653  14.241   7.505
 1084POPC   C1B16135   0.643  14.723   8.690
 1084POPC   C2B16136   0.575  14.608   8.249
 1084POPC   C3B16137   0.835  14.553   7.929
 1084POPC   C4B16138   0.811  14.742   7.570
 1085POPC   NC316139   8.673  44.099   9.432
 1085POPC   PO416140   9.155  44.568   9.582
 1085POPC   GL116141   8.958  44.471   9.211
 1085POPC   GL216142   9.140  44.182   9.066
 1085POPC   C1A16143   8.993  44.737   8.850
 1085POPC   D2A16144   8.876   0.035   8.536
 1085POPC   C3A16145   8.891  44.942   8.111
 1085POPC   C4A16146   8.909  44.809   7.663
 1085POPC   C1B16147   8.806  44.258   8.764
 1085POPC   C2B16148   8.815  44.510   8.390
 1085POPC   C3B16149   8.929  44.404   7.978
 1085POPC   C4B16150   8.721  44.296   7.591
 1086POPC   NC316151  27.310  14.721   9.867
 1086POPC   PO416152  27.837  14.601   9.457
 1086POPC   GL116153  27.718  14.479   9.093
 1086POPC   GL216154  27.500  14.232   9.143
 1086POPC   C1A16155  27.853  14.398   8.724
 1086POPC   D2A16156  27.891  14.521   8.338
 1086POPC   C3A16157  28.057  14.201   8.100
 1086POPC   C4A16158  27.866  14.108   7.684
 1086POPC   C1B16159  27.334  14.361   8.758
 1086POPC   C2B16160  27.380  14.555   8.372
 1086POPC   C3B16161  27.505  14.364   7.978
 1086POPC   C4B16162  27.406  14.260   7.530
 1087POPC   NC316163   8.404   9.681   9.530
 1087POPC   PO416164   7.965   9.319   9.166
 1087POPC   GL116165   8.082   9.753   9.150
 1087POPC   GL216166   7.821  10.042   9.155
 1087POPC   C1A16167   8.457   9.834   8.881
 1087POPC   D2A16168   8.308   9.691   8.469
 1087POPC   C3A16169   8.496   9.777   8.076
 1087POPC   C4A16170   8.340   9.548   7.742
 1087POPC   C1B16171   8.013  10.032   8.746
 1087POPC   C2B16172   7.867  10.009   8.348
 1087POPC   C3B16173   7.955   9.819   8.012
 1087POPC   C4B16174   8.081   9.996   7.653
 1088POPC   NC316175  30.855  20.589   9.906
 1088POPC   PO416176  30.439  20.400   9.456
 1088POPC   GL116177  30.721  20.575   9.204
 1088POPC   GL216178  30.630  20.912   9.171
 1088POPC   C1A16179  30.816  20.508   8.791
 1088POPC   D2A16180  30.670  20.693   8.419
 1088POPC   C3A16181  30.784  20.478   8.062
 1088POPC   C4A16182  30.807  20.656   7.672
 1088POPC   C1B16183  30.849  21.020   8.795
 1088POPC   C2B16184  31.146  20.815   8.522
 1088POPC   C3B16185  31.129  20.850   8.086
 1088POPC   C4B16186  31.042  21.092   7.703
 1089POPC   NC316187  43.128  42.683   9.296
 1089POPC   PO416188  42.703  42.051   9.277
 1089POPC   GL116189  42.987  42.214   9.024
 1089POPC   GL216190  43.235  41.987   9.044
 1089POPC   C1A16191  43.248  42.402   8.691
 1089POPC   D2A16192  43.359  42.680   8.336
 1089POPC   C3A16193  43.277  42.497   7.914
 1089POPC   C4A16194  42.841  42.423   7.855
 1089POPC   C1B16195  43.087  41.909   8.634
 1089POPC   C2B16196  43.221  42.087   8.270
 1089POPC   C3B16197  43.560  42.069   8.020
 1089POPC   C4B16198  43.533  42.082   7.593
 1090POPC   NC316199  12.660   7.756   9.381
 1090POPC   PO416200  12.799   7.175   9.738
 1090POPC   GL116201  12.936   7.356   9.265
 1090POPC   GL216202  13.240   7.515   9.178
 1090POPC   C1A16203  12.915   7.287   8.789
 1090POPC   D2A16204  12.882   7.467   8.336
 1090POPC   C3A16205  12.745   7.268   7.906
 1090POPC   C4A16206  12.644   7.187   7.435
 1090POPC   C1B16207  13.192   7.729   8.755
 1090POPC   C2B16208  13.354   7.811   8.352
 1090POPC   C3B16209  13.085   7.768   7.980
 1090POPC   C4B16210  12.850   7.650   7.592
 1091POPC   NC316211  12.393  36.950   9.390
 1091POPC   PO416212  13.043  36.868   9.477
 1091POPC   GL116213  13.020  36.963   9.089
 1091POPC   GL216214  12.687  36.942   8.977
 1091POPC   C1A16215  13.110  37.060   8.700
 1091POPC   D2A16216  12.847  36.982   8.367
 1091POPC   C3A16217  13.071  36.941   7.986
 1091POPC   C4A16218  12.886  36.832   7.589
 1091POPC   C1B16219  12.418  37.111   8.674
 1091POPC   C2B16220  12.428  37.277   8.264
 1091POPC   C3B16221  12.612  37.131   7.889
 1091POPC   C4B16222  12.599  37.297   7.452
 1092POPC   NC316223  38.135  10.820   9.310
 1092POPC   PO416224  38.706  10.568   9.574
 1092POPC   GL116225  38.564  10.577   9.165
 1092POPC   GL216226  38.636  10.940   9.178
 1092POPC   C1A16227  38.498  10.342   8.759
 1092POPC   D2A16228  38.746  10.148   8.392
 1092POPC   C3A16229  38.785  10.336   7.957
 1092POPC   C4A16230  38.665  10.276   7.503
 1092POPC   C1B16231  38.511  10.880   8.745
 1092POPC   C2B16232  38.451  10.667   8.352
 1092POPC   C3B16233  38.171  10.725   8.017
 1092POPC   C4B16234  38.340  10.632   7.652
 1093POPC   NC316235  23.411  42.924   9.385
 1093POPC   PO416236  23.927  43.217   9.648
 1093POPC   GL116237  23.812  43.167   9.167
 1093POPC   GL216238  23.788  42.794   9.066
 1093POPC   C1A16239  23.623  43.340   8.744
 1093POPC   D2A16240  23.779  43.542   8.362
 1093POPC   C3A16241  23.653  43.322   8.007
 1093POPC   C4A16242  23.650  43.150   7.599
 1093POPC   C1B16243  23.488  42.849   8.705
 1093POPC   C2B16244  23.519  42.912   8.252
 1093POPC   C3B16245  23.440  42.751   7.806
 1093POPC   C4B16246  23.405  42.807   7.333
 1094POPC   NC316247  37.231  13.986   9.297
 1094POPC   PO416248  36.766  13.638   9.630
 1094POPC   GL116249  36.738  13.626   9.166
 1094POPC   GL216250  37.062  13.527   9.055
 1094POPC   C1A16251  36.621  13.572   8.708
 1094POPC   D2A16252  36.378  13.434   8.319
 1094POPC   C3A16253  36.680  13.507   7.994
 1094POPC   C4A16254  36.647  13.973   8.001
 1094POPC   C1B16255  37.161  13.444   8.617
 1094POPC   C2B16256  37.176  13.720   8.258
 1094POPC   C3B16257  37.134  13.936   7.887
 1094POPC   C4B16258  37.056  13.619   7.642
 1095POPC   NC316259  16.620  24.021   9.948
 1095POPC   PO416260  16.791  24.525   9.517
 1095POPC   GL116261  16.928  24.605   9.112
 1095POPC   GL216262  16.595  24.499   9.009
 1095POPC   C1A16263  17.023  24.335   8.760
 1095POPC   D2A16264  16.789  24.233   8.390
 1095POPC   C3A16265  17.041  24.253   8.005
 1095POPC   C4A16266  17.071  24.484   7.576
 1095POPC   C1B16267  16.359  24.856   8.858
 1095POPC   C2B16268  16.331  24.979   8.421
 1095POPC   C3B16269  16.307  24.734   8.035
 1095POPC   C4B16270  16.633  24.540   7.842
 1096POPC   NC316271   4.220  40.241   9.437
 1096POPC   PO416272   4.424  39.631   9.427
 1096POPC   GL116273   4.310  39.872   9.078
 1096POPC   GL216274   4.577  40.127   9.073
 1096POPC   C1A16275   4.147  39.818   8.656
 1096POPC   D2A16276   4.352  39.764   8.246
 1096POPC   C3A16277   4.237  39.998   7.874
 1096POPC   C4A16278   3.940  39.846   7.529
 1096POPC   C1B16279   4.732  40.312   8.693
 1096POPC   C2B16280   4.524  40.259   8.288
 1096POPC   C3B16281   4.722  40.251   7.923
 1096POPC   C4B16282   4.599  40.116   7.530
 1097POPC   NC316283  30.296  37.394   9.749
 1097POPC   PO416284  30.668  37.903   9.457
 1097POPC   GL116285  30.820  37.713   9.111
 1097POPC   GL216286  30.884  37.368   9.209
 1097POPC   C1A16287  30.666  37.849   8.723
 1097POPC   D2A16288  30.487  37.716   8.346
 1097POPC   C3A16289  30.663  37.929   7.988
 1097POPC   C4A16290  30.655  38.058   7.562
 1097POPC   C1B16291  30.683  37.312   8.767
 1097POPC   C2B16292  30.783  37.274   8.338
 1097POPC   C3B16293  30.661  37.389   7.928
 1097POPC   C4B16294  30.871  37.290   7.544
 1098POPC   NC316295  17.563  20.206   9.460
 1098POPC   PO416296  17.960  19.739   9.484
 1098POPC   GL116297  17.822  19.641   9.089
 1098POPC   GL216298  17.561  19.870   9.055
 1098POPC   C1A16299  17.692  19.571   8.651
 1098POPC   D2A16300  17.527  19.823   8.314
 1098POPC   C3A16301  17.520  19.599   7.928
 1098POPC   C4A16302  17.931  19.696   7.767
 1098POPC   C1B16303  17.328  20.127   8.754
 1098POPC   C2B16304  17.187  20.215   8.312
 1098POPC   C3B16305  17.287  20.047   7.877
 1098POPC   C4B16306  17.080  19.872   7.483
 1099POPC   NC316307  15.072   0.079   9.397
 1099POPC   PO416308  15.460  44.519   9.655
 1099POPC   GL116309  15.372  44.647   9.178
 1099POPC   GL216310  15.477  44.979   9.067
 1099POPC   C1A16311  15.144  44.500   8.785
 1099POPC   D2A16312  14.906  44.361   8.425
 1099POPC   C3A16313  15.091  44.473   8.035
 1099POPC   C4A16314  14.988  44.687   7.687
 1099POPC   C1B16315  15.583  44.742   8.654
 1099POPC   C2B16316  15.573  44.668   8.168
 1099POPC   C3B16317  15.493  44.587   7.721
 1099POPC   C4B16318  15.681  44.531   7.300
 1100POPC   NC316319  35.127   0.892   9.283
 1100POPC   PO416320  35.598   1.414   9.454
 1100POPC   GL116321  35.411   1.265   9.093
 1100POPC   GL216322  35.087   1.411   9.154
 1100POPC   C1A16323  35.517   0.985   8.733
 1100POPC   D2A16324  35.330   0.895   8.327
 1100POPC   C3A16325  35.491   1.060   7.913
 1100POPC   C4A16326  35.444   0.964   7.468
 1100POPC   C1B16327  35.029   1.183   8.733
 1100POPC   C2B16328  34.848   1.014   8.359
 1100POPC   C3B16329  34.950   1.031   7.932
 1100POPC   C4B16330  35.106   1.337   7.657
 1101POPC   NC316331  15.060  26.722   9.579
 1101POPC   PO416332  15.453  27.264   9.524
 1101POPC   GL116333  15.320  26.979   9.212
 1101POPC   GL216334  14.941  27.020   9.184
 1101POPC   C1A16335  15.410  26.801   8.798
 1101POPC   D2A16336  15.217  26.673   8.424
 1101POPC   C3A16337  15.446  26.764   8.096
 1101POPC   C4A16338  15.256  26.595   7.776
 1101POPC   C1B16339  14.878  26.867   8.788
 1101POPC   C2B16340  14.728  26.943   8.364
 1101POPC   C3B16341  14.828  26.849   7.968
 1101POPC   C4B16342  15.151  27.089   7.828
 1102POPC   NC316343   0.193  17.609   9.730
 1102POPC   PO416344   0.647  17.163   9.502
 1102POPC   GL116345   0.356  17.239   9.152
 1102POPC   GL216346   0.292  17.578   9.187
 1102POPC   C1A16347   0.253  17.302   8.726
 1102POPC   D2A16348   0.356  17.544   8.375
 1102POPC   C3A16349   0.179  17.329   8.036
 1102POPC   C4A16350   0.344  17.258   7.653
 1102POPC   C1B16351   0.644  17.587   8.854
 1102POPC   C2B16352   0.860  17.395   8.494
 1102POPC   C3B16353   0.707  17.312   8.062
 1102POPC   C4B16354   0.660  17.659   7.778
 1103POPC   NC316355  25.602  33.285   9.649
 1103POPC   PO416356  25.049  32.940   9.577
 1103POPC   GL116357  25.113  32.797   9.084
 1103POPC   GL216358  25.384  32.789   8.842
 1103POPC   C1A16359  24.964  32.910   8.618
 1103POPC   D2A16360  25.162  32.854   8.236
 1103POPC   C3A16361  25.136  33.196   7.970
 1103POPC   C4A16362  24.982  33.269   7.544
 1103POPC   C1B16363  25.370  33.211   8.672
 1103POPC   C2B16364  25.540  33.212   8.309
 1103POPC   C3B16365  25.604  32.940   7.969
 1103POPC   C4B16366  25.471  33.108   7.601
 1104POPC   NC316367  33.487  31.054   9.542
 1104POPC   PO416368  32.976  31.508   9.462
 1104POPC   GL116369  33.243  31.473   9.129
 1104POPC   GL216370  32.993  31.693   8.964
 1104POPC   C1A16371  33.186  31.294   8.696
 1104POPC   D2A16372  32.887  31.198   8.346
 1104POPC   C3A16373  32.949  31.397   7.906
 1104POPC   C4A16374  32.934  31.395   7.417
 1104POPC   C1B16375  33.381  31.795   8.757
 1104POPC   C2B16376  33.519  31.688   8.340
 1104POPC   C3B16377  33.404  31.726   7.899
 1104POPC   C4B16378  33.036  31.833   7.652
 1105POPC   NC316379  39.921  39.614   9.419
 1105POPC   PO416380  40.260  38.964   9.479
 1105POPC   GL116381  40.067  39.006   9.096
 1105POPC   GL216382  39.779  39.235   9.095
 1105POPC   C1A16383  39.953  39.049   8.665
 1105POPC   D2A16384  40.083  39.322   8.378
 1105POPC   C3A16385  39.936  39.068   8.061
 1105POPC   C4A16386  39.880  39.178   7.654
 1105POPC   C1B16387  39.694  39.480   8.708
 1105POPC   C2B16388  39.699  39.637   8.238
 1105POPC   C3B16389  39.629  39.581   7.803
 1105POPC   C4B16390  39.640  39.679   7.301
 1106POPC   NC316391  26.924  21.646   9.462
 1106POPC   PO416392  26.408  21.171   9.671
 1106POPC   GL116393  26.638  21.219   9.268
 1106POPC   GL216394  27.018  21.200   9.191
 1106POPC   C1A16395  26.658  21.217   8.811
 1106POPC   D2A16396  26.931  21.256   8.450
 1106POPC   C3A16397  26.762  21.219   8.074
 1106POPC   C4A16398  27.119  21.337   7.834
 1106POPC   C1B16399  27.059  21.537   8.863
 1106POPC   C2B16400  26.767  21.710   8.589
 1106POPC   C3B16401  26.759  21.719   8.131
 1106POPC   C4B16402  26.957  21.817   7.754
 1107POPC   NC316403  13.491  44.159   9.593
 1107POPC   PO416404  13.816  43.517   9.520
 1107POPC   GL116405  13.744  43.832   9.207
 1107POPC   GL216406  13.397  43.853   9.188
 1107POPC   C1A16407  13.776  43.754   8.752
 1107POPC   D2A16408  13.781  43.528   8.324
 1107POPC   C3A16409  13.682  43.795   7.958
 1107POPC   C4A16410  13.816  43.934   7.551
 1107POPC   C1B16411  13.258  43.733   8.790
 1107POPC   C2B16412  13.421  43.896   8.385
 1107POPC   C3B16413  13.209  44.133   8.071
 1107POPC   C4B16414  13.322  44.103   7.655
 1108POPC   NC316415  44.771  29.107   9.606
 1108POPC   PO416416  44.559  29.723   9.780
 1108POPC   GL116417  44.622  29.420   9.259
 1108POPC   GL216418  44.475  29.099   9.061
 1108POPC   C1A16419  44.939  29.137   8.949
 1108POPC   D2A16420  44.736  28.871   8.590
 1108POPC   C3A16421  44.864  28.833   8.137
 1108POPC   C4A16422  44.660  28.842   7.732
 1108POPC   C1B16423  44.550  29.384   8.736
 1108POPC   C2B16424  44.381  29.288   8.361
 1108POPC   C3B16425  44.473  29.209   8.008
 1108POPC   C4B16426  44.554  29.394   7.610
 1109POPC   NC316427  24.548  22.353   9.578
 1109POPC   PO416428  25.183  22.032   9.511
 1109POPC   GL116429  25.330  22.306   9.163
 1109POPC   GL216430  25.635  22.518   9.232
 1109POPC   C1A16431  25.230  22.457   8.723
 1109POPC   D2A16432  25.024  22.422   8.296
 1109POPC   C3A16433  25.280  22.245   7.965
 1109POPC   C4A16434  25.378  21.902   7.692
 1109POPC   C1B16435  25.740  22.330   8.814
 1109POPC   C2B16436  25.607  22.240   8.379
 1109POPC   C3B16437  25.769  22.129   7.950
 1109POPC   C4B16438  25.755  22.335   7.567
 1110POPC   NC316439  10.647   1.289   9.449
 1110POPC   PO416440  10.071   1.093   9.416
 1110POPC   GL116441  10.299   1.158   9.066
 1110POPC   GL216442  10.652   1.245   8.936
 1110POPC   C1A16443  10.213   1.257   8.660
 1110POPC   D2A16444  10.474   1.077   8.382
 1110POPC   C3A16445  10.307   1.137   7.997
 1110POPC   C4A16446  10.652   1.170   7.747
 1110POPC   C1B16447  10.623   1.568   8.593
 1110POPC   C2B16448  10.657   1.509   8.147
 1110POPC   C3B16449  10.866   1.628   7.763
 1110POPC   C4B16450  10.731   1.467   7.315
 1111POPC   NC316451  23.537   3.062   9.648
 1111POPC   PO416452  23.803   2.509   9.423
 1111POPC   GL116453  23.725   2.649   9.070
 1111POPC   GL216454  23.669   3.004   9.156
 1111POPC   C1A16455  23.659   2.504   8.661
 1111POPC   D2A16456  23.616   2.742   8.281
 1111POPC   C3A16457  23.708   2.637   7.849
 1111POPC   C4A16458  23.588   2.583   7.394
 1111POPC   C1B16459  23.811   3.009   8.719
 1111POPC   C2B16460  23.694   3.243   8.364
 1111POPC   C3B16461  23.703   3.136   7.923
 1111POPC   C4B16462  23.430   3.036   7.593
 1112POPC   NC316463  35.638  25.658   9.456
 1112POPC   PO416464  35.336  26.265   9.367
 1112POPC   GL116465  35.298  25.882   9.142
 1112POPC   GL216466  35.625  25.845   8.980
 1112POPC   C1A16467  35.165  25.722   8.766
 1112POPC   D2A16468  35.095  25.769   8.305
 1112POPC   C3A16469  35.050  26.109   7.988
 1112POPC   C4A16470  35.293  26.304   7.668
 1112POPC   C1B16471  35.455  26.117   8.679
 1112POPC   C2B16472  35.460  26.152   8.256
 1112POPC   C3B16473  35.516  25.937   7.929
 1112POPC   C4B16474  35.875  26.021   7.764
 1113POPC   NC316475  11.369  12.430   9.395
 1113POPC   PO416476  11.311  13.064   9.519
 1113POPC   GL116477  11.562  12.859   9.186
 1113POPC   GL216478  11.259  12.795   9.026
 1113POPC   C1A16479  11.682  12.729   8.763
 1113POPC   D2A16480  11.419  12.892   8.438
 1113POPC   C3A16481  11.571  12.785   8.039
 1113POPC   C4A16482  11.292  12.603   7.772
 1113POPC   C1B16483  11.059  13.103   8.758
 1113POPC   C2B16484  10.909  13.072   8.340
 1113POPC   C3B16485  11.133  13.092   7.974
 1113POPC   C4B16486  11.035  13.042   7.547
 1114POPC   NC316487   1.876  15.788   9.333
 1114POPC   PO416488   2.251  15.653   9.871
 1114POPC   GL116489   2.161  15.388   9.371
 1114POPC   GL216490   1.855  15.160   9.263
 1114POPC   C1A16491   1.999  15.419   8.850
 1114POPC   D2A16492   1.949  15.145   8.478
 1114POPC   C3A16493   2.133  15.298   8.076
 1114POPC   C4A16494   1.937  15.503   7.732
 1114POPC   C1B16495   1.572  15.117   8.871
 1114POPC   C2B16496   1.432  15.295   8.489
 1114POPC   C3B16497   1.597  15.328   8.081
 1114POPC   C4B16498   1.648  15.025   7.753
 1115POPC   NC316499  43.693  31.353   9.565
 1115POPC   PO416500  44.032  31.886   9.362
 1115POPC   GL116501  43.739  31.625   9.093
 1115POPC   GL216502  43.740  31.226   9.083
 1115POPC   C1A16503  43.840  31.691   8.646
 1115POPC   D2A16504  44.182  31.819   8.327
 1115POPC   C3A16505  44.053  31.561   7.972
 1115POPC   C4A16506  43.606  31.599   7.854
 1115POPC   C1B16507  43.776  31.160   8.660
 1115POPC   C2B16508  43.682  31.263   8.239
 1115POPC   C3B16509  43.778  31.125   7.822
 1115POPC   C4B16510  44.210  31.127   7.693
 1116POPC   NC316511  32.135  40.284   9.387
 1116POPC   PO416512  32.242  39.699   9.630
 1116POPC   GL116513  32.169  39.812   9.181
 1116POPC   GL216514  32.449  39.966   9.057
 1116POPC   C1A16515  32.092  39.877   8.708
 1116POPC   D2A16516  32.385  39.887   8.321
 1116POPC   C3A16517  32.383  39.791   7.853
 1116POPC   C4A16518  32.118  39.987   7.525
 1116POPC   C1B16519  32.606  40.200   8.707
 1116POPC   C2B16520  32.432  40.426   8.345
 1116POPC   C3B16521  32.260  40.311   7.941
 1116POPC   C4B16522  32.490  40.327   7.557
 1117POPC   NC316523  16.509  13.946   9.516
 1117POPC   PO416524  16.953  13.522   9.502
 1117POPC   GL116525  16.665  13.593   9.163
 1117POPC   GL216526  16.704  13.949   9.040
 1117POPC   C1A16527  16.673  13.350   8.787
 1117POPC   D2A16528  16.934  13.442   8.428
 1117POPC   C3A16529  16.719  13.456   8.009
 1117POPC   C4A16530  16.707  13.584   7.550
 1117POPC   C1B16531  16.566  13.826   8.612
 1117POPC   C2B16532  16.286  13.806   8.233
 1117POPC   C3B16533  16.448  13.898   7.845
 1117POPC   C4B16534  16.869  14.063   7.771
 1118POPC   NC316535  35.378   2.835   9.546
 1118POPC   PO416536  35.077   2.258   9.579
 1118POPC   GL116537  35.289   2.454   9.206
 1118POPC   GL216538  35.674   2.546   9.244
 1118POPC   C1A16539  35.190   2.572   8.783
 1118POPC   D2A16540  35.004   2.477   8.391
 1118POPC   C3A16541  35.120   2.792   8.111
 1118POPC   C4A16542  35.364   2.740   7.760
 1118POPC   C1B16543  35.608   2.844   8.912
 1118POPC   C2B16544  35.444   2.966   8.508
 1118POPC   C3B16545  35.605   3.007   8.106
 1118POPC   C4B16546  35.757   3.115   7.693
 1119POPC   NC316547  13.560   3.949   9.427
 1119POPC   PO416548  13.645   3.240   9.508
 1119POPC   GL116549  13.546   3.494   9.173
 1119POPC   GL216550  13.876   3.624   9.182
 1119POPC   C1A16551  13.515   3.723   8.771
 1119POPC   D2A16552  13.346   3.867   8.359
 1119POPC   C3A16553  13.479   3.687   7.964
 1119POPC   C4A16554  13.404   3.310   7.755
 1119POPC   C1B16555  14.006   3.859   8.814
 1119POPC   C2B16556  13.837   3.951   8.419
 1119POPC   C3B16557  13.980   3.805   8.054
 1119POPC   C4B16558  13.874   3.846   7.645
 1120POPC   NC316559   3.162   4.174   9.685
 1120POPC   PO416560   2.645   3.813   9.539
 1120POPC   GL116561   2.710   4.213   9.279
 1120POPC   GL216562   3.060   4.297   9.195
 1120POPC   C1A16563   2.709   4.378   8.847
 1120POPC   D2A16564   2.833   4.513   8.442
 1120POPC   C3A16565   2.561   4.472   8.074
 1120POPC   C4A16566   2.611   4.296   7.702
 1120POPC   C1B16567   3.152   4.160   8.764
 1120POPC   C2B16568   3.066   4.051   8.374
 1120POPC   C3B16569   3.052   4.266   8.015
 1120POPC   C4B16570   3.080   3.992   7.677
 1121POPC   NC316571   2.381  21.512   9.400
 1121POPC   PO416572   1.813  21.304   9.645
 1121POPC   GL116573   1.831  21.352   9.216
 1121POPC   GL216574   1.681  21.694   9.189
 1121POPC   C1A16575   1.725  21.270   8.770
 1121POPC   D2A16576   1.936  21.127   8.404
 1121POPC   C3A16577   1.910  21.340   8.016
 1121POPC   C4A16578   2.010  21.056   7.679
 1121POPC   C1B16579   2.000  21.686   8.860
 1121POPC   C2B16580   1.988  21.718   8.433
 1121POPC   C3B16581   2.115  21.829   8.024
 1121POPC   C4B16582   2.256  21.595   7.686
 1122POPC   NC316583   3.268  41.835   9.446
 1122POPC   PO416584   3.470  42.504   9.515
 1122POPC   GL116585   3.450  42.284   9.162
 1122POPC   GL216586   3.081  42.286   9.142
 1122POPC   C1A16587   3.686  42.323   8.759
 1122POPC   D2A16588   3.894  42.473   8.368
 1122POPC   C3A16589   3.679  42.403   7.959
 1122POPC   C4A16590   3.509  42.055   7.669
 1122POPC   C1B16591   3.256  42.621   8.840
 1122POPC   C2B16592   3.397  42.641   8.407
 1122POPC   C3B16593   3.193  42.581   8.015
 1122POPC   C4B16594   3.332  42.545   7.589
 1123POPC   NC316595   9.552  27.816   9.364
 1123POPC   PO416596  10.039  27.456   9.456
 1123POPC   GL116597   9.905  27.551   9.081
 1123POPC   GL216598   9.630  27.348   9.086
 1123POPC   C1A16599   9.735  27.679   8.683
 1123POPC   D2A16600   9.955  27.555   8.340
 1123POPC   C3A16601   9.871  27.381   7.978
 1123POPC   C4A16602   9.891  27.716   7.702
 1123POPC   C1B16603   9.490  27.232   8.690
 1123POPC   C2B16604   9.418  27.392   8.296
 1123POPC   C3B16605   9.460  27.694   7.981
 1123POPC   C4B16606   9.435  27.568   7.534
 1124POPC   NC316607  20.727   7.952   9.519
 1124POPC   PO416608  20.289   8.459   9.501
 1124POPC   GL116609  20.596   8.396   9.188
 1124POPC   GL216610  20.812   8.108   9.040
 1124POPC   C1A16611  20.485   8.415   8.781
 1124POPC   D2A16612  20.625   8.483   8.390
 1124POPC   C3A16613  20.607   8.209   8.063
 1124POPC   C4A16614  20.383   8.461   7.793
 1124POPC   C1B16615  20.705   7.977   8.609
 1124POPC   C2B16616  20.843   7.761   8.226
 1124POPC   C3B16617  21.050   7.994   7.870
 1124POPC   C4B16618  20.946   8.065   7.429
 1125POPC   NC316619  15.131  14.951   9.498
 1125POPC   PO416620  15.381  15.512   9.729
 1125POPC   GL116621  15.238  15.379   9.226
 1125POPC   GL216622  15.076  15.025   9.012
 1125POPC   C1A16623  15.284  15.390   8.753
 1125POPC   D2A16624  15.263  15.066   8.443
 1125POPC   C3A16625  15.198  15.271   8.054
 1125POPC   C4A16626  15.325  15.610   7.794
 1125POPC   C1B16627  14.910  14.741   8.649
 1125POPC   C2B16628  14.937  14.750   8.162
 1125POPC   C3B16629  15.013  14.922   7.718
 1125POPC   C4B16630  15.057  14.826   7.248
 1126POPC   NC316631  39.511  37.979   9.494
 1126POPC   PO416632  38.859  37.921   9.414
 1126POPC   GL116633  39.043  37.584   9.116
 1126POPC   GL216634  39.410  37.572   9.120
 1126POPC   C1A16635  39.060  37.601   8.633
 1126POPC   D2A16636  38.905  37.916   8.329
 1126POPC   C3A16637  39.057  37.842   7.907
 1126POPC   C4A16638  39.288  37.468   7.757
 1126POPC   C1B16639  39.571  37.630   8.691
 1126POPC   C2B16640  39.406  37.775   8.278
 1126POPC   C3B16641  39.557  37.862   7.886
 1126POPC   C4B16642  39.352  38.084   7.530
 1127POPC   NC316643  22.808  10.831   9.349
 1127POPC   PO416644  23.040  10.191   9.570
 1127POPC   GL116645  23.058  10.410   9.198
 1127POPC   GL216646  22.788  10.221   9.057
 1127POPC   C1A16647  23.074  10.579   8.756
 1127POPC   D2A16648  22.991  10.478   8.296
 1127POPC   C3A16649  23.149  10.710   7.892
 1127POPC   C4A16650  23.038  10.903   7.433
 1127POPC   C1B16651  22.543  10.475   8.732
 1127POPC   C2B16652  22.480  10.543   8.290
 1127POPC   C3B16653  22.654  10.350   7.922
 1127POPC   C4B16654  22.673  10.688   7.720
 1128POPC   NC316655   0.922   7.651   9.577
 1128POPC   PO416656   1.421   7.297   9.423
 1128POPC   GL116657   1.130   7.396   9.152
 1128POPC   GL216658   1.385   7.516   8.894
 1128POPC   C1A16659   0.991   7.253   8.777
 1128POPC   D2A16660   1.226   7.390   8.385
 1128POPC   C3A16661   1.063   7.236   7.993
 1128POPC   C4A16662   1.232   7.272   7.557
 1128POPC   C1B16663   1.532   7.143   8.723
 1128POPC   C2B16664   1.583   6.937   8.332
 1128POPC   C3B16665   1.568   7.140   7.930
 1128POPC   C4B16666   1.728   7.067   7.513
 1129POPC   NC316667  29.520  17.304   9.650
 1129POPC   PO416668  28.899  17.660   9.569
 1129POPC   GL116669  29.149  17.740   9.189
 1129POPC   GL216670  28.871  17.900   9.074
 1129POPC   C1A16671  29.323  17.783   8.764
 1129POPC   D2A16672  29.212  17.361   8.510
 1129POPC   C3A16673  29.338  17.314   8.055
 1129POPC   C4A16674  29.404  17.618   7.726
 1129POPC   C1B16675  28.849  17.723   8.660
 1129POPC   C2B16676  29.122  17.799   8.288
 1129POPC   C3B16677  28.985  17.855   7.918
 1129POPC   C4B16678  28.651  17.667   7.719
 1130POPC   NC316679  39.121  42.751   9.461
 1130POPC   PO416680  39.707  43.166   9.464
 1130POPC   GL116681  39.457  43.033   9.117
 1130POPC   GL216682  39.181  43.212   9.035
 1130POPC   C1A16683  39.423  42.998   8.642
 1130POPC   D2A16684  39.073  43.046   8.369
 1130POPC   C3A16685  39.072  42.895   7.944
 1130POPC   C4A16686  39.343  42.873   7.597
 1130POPC   C1B16687  38.857  43.351   8.757
 1130POPC   C2B16688  38.690  43.536   8.388
 1130POPC   C3B16689  38.796  43.322   8.015
 1130POPC   C4B16690  39.120  43.387   7.688
 1131POPC   NC316691  43.634  27.508   9.457
 1131POPC   PO416692  44.263  27.301   9.639
 1131POPC   GL116693  44.109  27.290   9.232
 1131POPC   GL216694  44.209  27.617   9.163
 1131POPC   C1A16695  43.913  27.283   8.796
 1131POPC   D2A16696  43.856  27.579   8.420
 1131POPC   C3A16697  43.640  27.513   8.038
 1131POPC   C4A16698  43.590  27.868   7.810
 1131POPC   C1B16699  44.184  27.828   8.765
 1131POPC   C2B16700  44.323  27.888   8.352
 1131POPC   C3B16701  44.085  27.825   7.994
 1131POPC   C4B16702  43.994  27.625   7.610
 1132POPC   NC316703  32.148  13.018   9.559
 1132POPC   PO416704  32.723  13.095   9.178
 1132POPC   GL116705  32.323  12.877   9.104
 1132POPC   GL216706  32.039  13.125   9.084
 1132POPC   C1A16707  32.026  12.663   8.801
 1132POPC   D2A16708  31.991  12.771   8.347
 1132POPC   C3A16709  32.378  12.722   8.099
 1132POPC   C4A16710  32.259  12.657   7.703
 1132POPC   C1B16711  32.197  13.123   8.668
 1132POPC   C2B16712  32.308  13.213   8.245
 1132POPC   C3B16713  32.066  13.119   7.881
 1132POPC   C4B16714  32.044  13.367   7.519
 1133POPC   NC316715  17.100   1.689   9.530
 1133POPC   PO416716  17.772   2.027   9.540
 1133POPC   GL116717  17.624   1.855   9.166
 1133POPC   GL216718  17.260   1.912   9.066
 1133POPC   C1A16719  17.763   1.938   8.751
 1133POPC   D2A16720  17.461   1.988   8.432
 1133POPC   C3A16721  17.625   1.926   8.086
 1133POPC   C4A16722  17.568   1.963   7.683
 1133POPC   C1B16723  17.038   2.142   8.726
 1133POPC   C2B16724  17.027   2.252   8.305
 1133POPC   C3B16725  17.162   2.078   7.945
 1133POPC   C4B16726  17.086   2.040   7.487
 1134POPC   NC316727  25.690   6.851   9.399
 1134POPC   PO416728  25.156   6.397   9.400
 1134POPC   GL116729  25.339   6.678   9.088
 1134POPC   GL216730  25.683   6.498   9.029
 1134POPC   C1A16731  25.316   6.834   8.654
 1134POPC   D2A16732  25.068   6.743   8.288
 1134POPC   C3A16733  25.371   6.658   7.960
 1134POPC   C4A16734  25.452   6.909   7.619
 1134POPC   C1B16735  25.392   6.313   8.756
 1134POPC   C2B16736  25.318   6.287   8.339
 1134POPC   C3B16737  25.018   6.279   8.021
 1134POPC   C4B16738  24.910   6.589   7.740
 1135POPC   NC316739  21.212   8.697   9.519
 1135POPC   PO416740  21.185   8.028   9.389
 1135POPC   GL116741  21.339   8.325   9.090
 1135POPC   GL216742  21.065   8.564   9.068
 1135POPC   C1A16743  21.513   8.263   8.665
 1135POPC   D2A16744  21.582   8.440   8.255
 1135POPC   C3A16745  21.582   8.184   7.917
 1135POPC   C4A16746  21.655   8.198   7.507
 1135POPC   C1B16747  21.026   8.392   8.684
 1135POPC   C2B16748  21.115   8.607   8.340
 1135POPC   C3B16749  21.152   8.501   7.953
 1135POPC   C4B16750  20.867   8.488   7.677
 1136POPC   NC316751   6.702  41.725   9.532
 1136POPC   PO416752   6.760  41.117   9.753
 1136POPC   GL116753   6.809  41.254   9.230
 1136POPC   GL216754   6.516  41.353   8.932
 1136POPC   C1A16755   6.981  41.401   8.775
 1136POPC   D2A16756   6.731  41.339   8.371
 1136POPC   C3A16757   6.774  41.462   7.928
 1136POPC   C4A16758   6.894  41.228   7.540
 1136POPC   C1B16759   6.571  41.737   8.643
 1136POPC   C2B16760   6.476  41.816   8.203
 1136POPC   C3B16761   6.498  41.869   7.748
 1136POPC   C4B16762   6.419  41.651   7.382
 1137POPC   NC316763  38.155   3.857   9.374
 1137POPC   PO416764  37.484   3.566   9.500
 1137POPC   GL116765  37.549   3.460   9.083
 1137POPC   GL216766  37.190   3.405   9.029
 1137POPC   C1A16767  37.848   3.633   8.756
 1137POPC   D2A16768  37.887   3.860   8.353
 1137POPC   C3A16769  37.820   3.677   7.914
 1137POPC   C4A16770  37.796   3.396   7.560
 1137POPC   C1B16771  37.308   3.319   8.630
 1137POPC   C2B16772  37.469   3.510   8.270
 1137POPC   C3B16773  37.440   3.272   7.911
 1137POPC   C4B16774  37.443   3.024   7.524
 1138POPC   NC316775  12.087  16.427   9.490
 1138POPC   PO416776  12.388  17.009   9.456
 1138POPC   GL116777  12.258  16.745   9.093
 1138POPC   GL216778  11.967  16.481   9.005
 1138POPC   C1A16779  12.212  16.744   8.645
 1138POPC   D2A16780  12.029  16.435   8.448
 1138POPC   C3A16781  11.827  16.566   8.089
 1138POPC   C4A16782  12.140  16.733   7.805
 1138POPC   C1B16783  11.785  16.896   8.890
 1138POPC   C2B16784  11.722  17.019   8.457
 1138POPC   C3B16785  11.807  17.081   8.007
 1138POPC   C4B16786  11.649  16.814   7.664
 1139POPC   NC316787  37.209  44.533   9.802
 1139POPC   PO416788  37.821  44.526   9.573
 1139POPC   GL116789  37.767  44.682   9.187
 1139POPC   GL216790  37.614  44.377   9.065
 1139POPC   C1A16791  37.845  44.699   8.750
 1139POPC   D2A16792  37.689  44.590   8.353
 1139POPC   C3A16793  37.862  44.821   8.045
 1139POPC   C4A16794  37.990  44.938   7.649
 1139POPC   C1B16795  37.338  44.379   8.686
 1139POPC   C2B16796  37.197  44.424   8.274
 1139POPC   C3B16797  37.444  44.416   7.911
 1139POPC   C4B16798  37.414  44.518   7.484
 1140POPC   NC316799  42.436  24.690   9.476
 1140POPC   PO416800  42.181  24.079   9.634
 1140POPC   GL116801  42.335  24.231   9.243
 1140POPC   GL216802  42.022  24.412   9.231
 1140POPC   C1A16803  42.459  24.426   8.844
 1140POPC   D2A16804  42.685  24.436   8.465
 1140POPC   C3A16805  42.550  24.590   8.071
 1140POPC   C4A16806  42.496  24.256   7.767
 1140POPC   C1B16807  41.979  24.592   8.833
 1140POPC   C2B16808  42.160  24.612   8.439
 1140POPC   C3B16809  42.091  24.368   8.071
 1140POPC   C4B16810  42.107  24.591   7.693
 1141POPC   NC316811  35.706  15.872   9.379
 1141POPC   PO416812  36.339  15.562   9.421
 1141POPC   GL116813  36.249  15.949   9.140
 1141POPC   GL216814  35.888  16.059   8.967
 1141POPC   C1A16815  36.299  16.026   8.703
 1141POPC   D2A16816  35.969  15.832   8.487
 1141POPC   C3A16817  36.005  15.814   8.068
 1141POPC   C4A16818  36.341  15.830   7.783
 1141POPC   C1B16819  35.883  16.336   8.615
 1141POPC   C2B16820  36.139  16.283   8.249
 1141POPC   C3B16821  36.125  16.278   7.800
 1141POPC   C4B16822  36.223  16.428   7.364
 1142POPC   NC316823  43.064  44.089   9.523
 1142POPC   PO416824  43.243  43.450   9.627
 1142POPC   GL116825  43.259  43.720   9.222
 1142POPC   GL216826  42.884  43.698   9.195
 1142POPC   C1A16827  43.100  43.990   8.823
 1142POPC   D2A16828  43.201  44.178   8.396
 1142POPC   C3A16829  43.099  44.055   7.976
 1142POPC   C4A16830  42.971  44.218   7.577
 1142POPC   C1B16831  42.738  43.558   8.795
 1142POPC   C2B16832  42.863  43.736   8.428
 1142POPC   C3B16833  42.731  43.697   8.026
 1142POPC   C4B16834  42.889  43.521   7.667
 1143POPC   NC316835   1.642   5.672   9.353
 1143POPC   PO416836   2.249   6.000   9.478
 1143POPC   GL116837   2.022   5.911   9.124
 1143POPC   GL216838   2.078   5.532   9.116
 1143POPC   C1A16839   1.944   5.820   8.704
 1143POPC   D2A16840   2.264   5.740   8.424
 1143POPC   C3A16841   2.147   5.807   8.009
 1143POPC   C4A16842   1.701   5.885   7.885
 1143POPC   C1B16843   1.846   5.328   8.781
 1143POPC   C2B16844   1.611   5.400   8.422
 1143POPC   C3B16845   1.801   5.414   8.034
 1143POPC   C4B16846   2.065   5.408   7.690
 1144POPC   NC316847  32.789   7.627   9.459
 1144POPC   PO416848  32.826   6.933   9.394
 1144POPC   GL116849  33.003   7.306   9.128
 1144POPC   GL216850  33.333   7.441   9.179
 1144POPC   C1A16851  32.972   7.507   8.720
 1144POPC   D2A16852  32.726   7.380   8.354
 1144POPC   C3A16853  32.960   7.124   8.070
 1144POPC   C4A16854  32.933   7.319   7.684
 1144POPC   C1B16855  33.414   7.205   8.792
 1144POPC   C2B16856  33.363   7.287   8.371
 1144POPC   C3B16857  33.178   7.597   8.092
 1144POPC   C4B16858  33.329   7.661   7.695
 1145POPC   NC316859  29.490  40.363   9.514
 1145POPC   PO416860  28.889  39.927   9.515
 1145POPC   GL116861  29.208  39.948   9.193
 1145POPC   GL216862  29.187  40.287   9.124
 1145POPC   C1A16863  29.098  39.857   8.760
 1145POPC   D2A16864  28.834  40.063   8.422
 1145POPC   C3A16865  29.020  40.050   8.001
 1145POPC   C4A16866  29.245  39.716   7.762
 1145POPC   C1B16867  29.401  40.294   8.738
 1145POPC   C2B16868  29.382  40.334   8.315
 1145POPC   C3B16869  29.541  40.096   7.967
 1145POPC   C4B16870  29.446  40.294   7.575
 1146POPC   NC316871  35.042   4.989   9.453
 1146POPC   PO416872  34.345   4.767   9.501
 1146POPC   GL116873  34.451   5.096   9.186
 1146POPC   GL216874  34.785   5.190   9.081
 1146POPC   C1A16875  34.475   5.024   8.737
 1146POPC   D2A16876  34.632   5.218   8.376
 1146POPC   C3A16877  34.545   4.939   8.066
 1146POPC   C4A16878  34.246   5.123   7.792
 1146POPC   C1B16879  34.991   5.468   8.790
 1146POPC   C2B16880  35.041   5.523   8.355
 1146POPC   C3B16881  34.950   5.354   7.949
 1146POPC   C4B16882  34.726   5.147   7.656
 1147POPC   NC316883  20.213   5.783   9.453
 1147POPC   PO416884  19.632   5.701   9.426
 1147POPC   GL116885  19.843   5.859   9.107
 1147POPC   GL216886  19.748   6.182   9.182
 1147POPC   C1A16887  20.072   5.739   8.736
 1147POPC   D2A16888  19.919   5.699   8.316
 1147POPC   C3A16889  20.138   5.762   7.934
 1147POPC   C4A16890  19.959   5.577   7.512
 1147POPC   C1B16891  19.907   6.257   8.796
 1147POPC   C2B16892  19.683   6.163   8.441
 1147POPC   C3B16893  19.828   6.152   8.034
 1147POPC   C4B16894  19.633   5.793   7.855
 1148POPC   NC316895  11.414  29.503   9.523
 1148POPC   PO416896  11.253  28.839   9.505
 1148POPC   GL116897  11.286  29.128   9.179
 1148POPC   GL216898  11.056  29.449   9.170
 1148POPC   C1A16899  11.298  28.996   8.763
 1148POPC   D2A16900  11.487  28.976   8.380
 1148POPC   C3A16901  11.324  28.919   8.023
 1148POPC   C4A16902  11.464  29.004   7.606
 1148POPC   C1B16903  11.336  29.506   8.842
 1148POPC   C2B16904  11.225  29.585   8.460
 1148POPC   C3B16905  11.428  29.415   8.110
 1148POPC   C4B16906  11.323  29.472   7.715
 1149POPC   NC316907  26.352  18.637   9.519
 1149POPC   PO416908  25.879  18.077   9.403
 1149POPC   GL116909  26.224  18.253   9.168
 1149POPC   GL216910  26.104  18.585   9.086
 1149POPC   C1A16911  26.359  18.288   8.732
 1149POPC   D2A16912  26.084  18.054   8.416
 1149POPC   C3A16913  25.986  18.199   7.988
 1149POPC   C4A16914  26.262  18.466   7.760
 1149POPC   C1B16915  25.856  18.352   8.774
 1149POPC   C2B16916  25.681  18.407   8.348
 1149POPC   C3B16917  25.559  18.499   7.920
 1149POPC   C4B16918  25.755  18.446   7.537
 1150POPC   NC316919  19.565   6.552   9.469
 1150POPC   PO416920  20.183   6.244   9.451
 1150POPC   GL116921  20.091   6.598   9.151
 1150POPC   GL216922  19.743   6.724   9.049
 1150POPC   C1A16923  20.123   6.731   8.716
 1150POPC   D2A16924  19.961   6.567   8.355
 1150POPC   C3A16925  20.049   6.693   7.963
 1150POPC   C4A16926  20.234   6.485   7.616
 1150POPC   C1B16927  19.549   6.606   8.704
 1150POPC   C2B16928  19.488   6.807   8.331
 1150POPC   C3B16929  19.553   6.572   8.018
 1150POPC   C4B16930  19.717   6.539   7.619
 1151POPC   NC316931  18.454  19.921   9.575
 1151POPC   PO416932  18.362  19.339   9.616
 1151POPC   GL116933  18.357  19.647   9.176
 1151POPC   GL216934  18.192  20.019   9.147
 1151POPC   C1A16935  18.455  19.853   8.759
 1151POPC   D2A16936  18.591  19.795   8.343
 1151POPC   C3A16937  18.472  20.032   8.009
 1151POPC   C4A16938  18.335  19.952   7.576
 1151POPC   C1B16939  17.965  19.994   8.759
 1151POPC   C2B16940  18.055  19.861   8.347
 1151POPC   C3B16941  17.977  20.132   8.015
 1151POPC   C4B16942  17.877  20.185   7.605
 1152POPC   NC316943  40.627  15.024   9.593
 1152POPC   PO416944  41.311  15.285   9.637
 1152POPC   GL116945  41.007  15.068   9.257
 1152POPC   GL216946  40.752  15.305   9.168
 1152POPC   C1A16947  40.751  14.895   8.836
 1152POPC   D2A16948  40.671  15.087   8.412
 1152POPC   C3A16949  40.581  14.995   7.965
 1152POPC   C4A16950  40.695  15.223   7.574
 1152POPC   C1B16951  41.035  15.309   8.811
 1152POPC   C2B16952  41.061  15.452   8.395
 1152POPC   C3B16953  40.944  15.397   7.985
 1152POPC   C4B16954  40.998  15.666   7.644
 1153POPC   NC316955  39.024  34.795   9.472
 1153POPC   PO416956  39.362  34.300   9.531
 1153POPC   GL116957  39.135  34.381   9.142
 1153POPC   GL216958  39.230  34.730   9.022
 1153POPC   C1A16959  39.005  34.392   8.695
 1153POPC   D2A16960  39.170  34.299   8.283
 1153POPC   C3A16961  39.109  34.644   8.004
 1153POPC   C4A16962  38.848  34.584   7.663
 1153POPC   C1B16963  39.594  34.881   8.789
 1153POPC   C2B16964  39.558  35.020   8.401
 1153POPC   C3B16965  39.732  34.929   8.019
 1153POPC   C4B16966  39.571  34.709   7.701
 1154POPC   NC316967   3.969  37.928   9.567
 1154POPC   PO416968   4.377  37.391   9.350
 1154POPC   GL116969   4.360  37.717   9.072
 1154POPC   GL216970   4.387  38.016   9.244
 1154POPC   C1A16971   4.475  37.686   8.659
 1154POPC   D2A16972   4.225  37.585   8.347
 1154POPC   C3A16973   4.206  37.771   7.994
 1154POPC   C4A16974   4.150  37.606   7.585
 1154POPC   C1B16975   4.404  38.198   8.823
 1154POPC   C2B16976   4.353  38.141   8.383
 1154POPC   C3B16977   4.527  38.203   7.974
 1154POPC   C4B16978   4.692  37.911   7.688
 1155POPC   NC316979  18.692  24.093   9.311
 1155POPC   PO416980  19.032  23.557   9.506
 1155POPC   GL116981  19.159  23.822   9.158
 1155POPC   GL216982  19.325  23.553   9.013
 1155POPC   C1A16983  19.004  23.868   8.738
 1155POPC   D2A16984  18.783  24.091   8.362
 1155POPC   C3A16985  19.007  24.153   7.964
 1155POPC   C4A16986  18.919  23.965   7.534
 1155POPC   C1B16987  19.371  23.547   8.556
 1155POPC   C2B16988  18.976  23.581   8.329
 1155POPC   C3B16989  18.916  23.669   7.964
 1155POPC   C4B16990  18.933  23.452   7.610
 1156POPC   NC316991   3.745   1.582   9.273
 1156POPC   PO416992   3.305   1.047   9.447
 1156POPC   GL116993   3.416   1.230   9.092
 1156POPC   GL216994   3.750   1.082   9.047
 1156POPC   C1A16995   3.353   1.130   8.684
 1156POPC   D2A16996   3.534   1.055   8.298
 1156POPC   C3A16997   3.239   1.142   8.001
 1156POPC   C4A16998   3.316   1.151   7.559
 1156POPC   C1B16999   3.877   1.239   8.661
 1156POPC   C2B17000   3.988   1.370   8.255
 1156POPC   C3B17001   3.703   1.346   7.897
 1156POPC   C4B17002   3.626   1.593   7.536
 1157POPC   NC317003  12.973  14.206   9.594
 1157POPC   PO417004  12.375  14.351   9.324
 1157POPC   GL117005  12.726  14.211   9.123
 1157POPC   GL217006  12.952  14.495   9.158
 1157POPC   C1A17007  12.888  14.209   8.712
 1157POPC   D2A17008  13.134  14.175   8.340
 1157POPC   C3A17009  12.750  14.200   8.090
 1157POPC   C4A17010  12.745  14.185   7.683
 1157POPC   C1B17011  12.844  14.735   8.798
 1157POPC   C2B17012  12.868  14.610   8.375
 1157POPC   C3B17013  13.079  14.566   7.985
 1157POPC   C4B17014  12.921  14.673   7.618
 1158POPC   NC317015  32.661   2.987   9.279
 1158POPC   PO417016  33.281   2.909   9.560
 1158POPC   GL117017  33.112   2.823   9.166
 1158POPC   GL217018  33.136   2.521   9.063
 1158POPC   C1A17019  33.117   2.949   8.747
 1158POPC   D2A17020  33.321   2.804   8.350
 1158POPC   C3A17021  33.179   2.963   7.953
 1158POPC   C4A17022  33.255   2.654   7.649
 1158POPC   C1B17023  32.791   2.581   8.745
 1158POPC   C2B17024  32.800   2.806   8.355
 1158POPC   C3B17025  32.837   2.610   7.955
 1158POPC   C4B17026  32.740   2.696   7.544
 1159POPC   NC317027   3.698  12.813   9.550
 1159POPC   PO417028   3.114  12.421   9.444
 1159POPC   GL117029   3.301  12.741   9.108
 1159POPC   GL217030   3.587  12.977   9.099
 1159POPC   C1A17031   3.252  13.023   8.711
 1159POPC   D2A17032   3.080  13.066   8.266
 1159POPC   C3A17033   3.332  12.894   7.901
 1159POPC   C4A17034   3.742  12.939   7.633
 1159POPC   C1B17035   3.751  12.878   8.724
 1159POPC   C2B17036   3.595  12.925   8.329
 1159POPC   C3B17037   3.703  13.251   8.028
 1159POPC   C4B17038   3.881  13.462   7.663
 1160POPC   NC317039   0.236   1.665   9.468
 1160POPC   PO417040   0.684   2.252   9.555
 1160POPC   GL117041   0.517   2.059   9.224
 1160POPC   GL217042   0.676   1.782   9.195
 1160POPC   C1A17043   0.329   2.139   8.855
 1160POPC   D2A17044   0.367   2.236   8.451
 1160POPC   C3A17045   0.311   1.997   8.082
 1160POPC   C4A17046   0.270   2.245   7.686
 1160POPC   C1B17047   0.567   1.675   8.798
 1160POPC   C2B17048   0.703   1.829   8.419
 1160POPC   C3B17049   0.686   1.656   8.022
 1160POPC   C4B17050   0.571   1.826   7.628
 1161POPC   NC317051  23.130   0.653   9.567
 1161POPC   PO417052  22.739   0.156   9.626
 1161POPC   GL117053  22.655   0.355   9.191
 1161POPC   GL217054  22.815   0.689   9.130
 1161POPC   C1A17055  22.550   0.430   8.736
 1161POPC   D2A17056  22.739   0.627   8.340
 1161POPC   C3A17057  22.919   0.376   8.006
 1161POPC   C4A17058  22.944   0.380   7.541
 1161POPC   C1B17059  23.063   0.579   8.748
 1161POPC   C2B17060  23.262   0.641   8.315
 1161POPC   C3B17061  23.305   0.692   7.831
 1161POPC   C4B17062  23.185   0.828   7.413
 1162POPC   NC317063  38.931  30.486   9.523
 1162POPC   PO417064  39.345  30.940   9.342
 1162POPC   GL117065  39.112  30.709   9.098
 1162POPC   GL217066  39.273  30.383   9.133
 1162POPC   C1A17067  39.169  30.689   8.671
 1162POPC   D2A17068  39.476  30.921   8.408
 1162POPC   C3A17069  39.339  30.781   8.008
 1162POPC   C4A17070  39.472  30.495   7.723
 1162POPC   C1B17071  38.923  30.264   8.894
 1162POPC   C2B17072  38.682  30.456   8.599
 1162POPC   C3B17073  38.673  30.509   8.150
 1162POPC   C4B17074  38.955  30.445   7.782
 1163POPC   NC317075   1.626  12.976   9.468
 1163POPC   PO417076   2.301  12.999   9.522
 1163POPC   GL117077   2.036  13.075   9.154
 1163POPC   GL217078   1.931  12.734   9.091
 1163POPC   C1A17079   2.132  13.008   8.719
 1163POPC   D2A17080   2.068  12.781   8.374
 1163POPC   C3A17081   2.149  12.958   7.998
 1163POPC   C4A17082   1.829  13.127   7.761
 1163POPC   C1B17083   1.843  12.479   8.728
 1163POPC   C2B17084   1.892  12.304   8.312
 1163POPC   C3B17085   1.917  12.502   7.941
 1163POPC   C4B17086   2.024  12.696   7.565
 1164POPC   NC317087  28.381  26.536   9.500
 1164POPC   PO417088  28.109  27.160   9.579
 1164POPC   GL117089  28.240  26.947   9.188
 1164POPC   GL217090  28.561  27.122   9.198
 1164POPC   C1A17091  28.106  26.882   8.738
 1164POPC   D2A17092  28.098  26.932   8.296
 1164POPC   C3A17093  28.339  26.628   8.047
 1164POPC   C4A17094  28.263  26.757   7.625
 1164POPC   C1B17095  28.512  27.183   8.744
 1164POPC   C2B17096  28.585  27.026   8.322
 1164POPC   C3B17097  28.612  27.043   7.879
 1164POPC   C4B17098  28.661  27.065   7.424
 1165POPC   NC317099  22.735  24.276   9.616
 1165POPC   PO417100  23.179  24.777   9.513
 1165POPC   GL117101  23.237  24.475   9.127
 1165POPC   GL217102  23.133  24.107   9.138
 1165POPC   C1A17103  23.078  24.427   8.675
 1165POPC   D2A17104  22.832  24.696   8.389
 1165POPC   C3A17105  22.922  24.673   7.949
 1165POPC   C4A17106  23.074  24.553   7.551
 1165POPC   C1B17107  22.774  24.038   8.803
 1165POPC   C2B17108  22.780  24.148   8.315
 1165POPC   C3B17109  22.772  24.176   7.846
 1165POPC   C4B17110  22.583  24.524   7.541
 1166POPC   NC317111  30.029   9.149   9.374
 1166POPC   PO417112  29.600   8.707   9.524
 1166POPC   GL117113  29.562   8.940   9.140
 1166POPC   GL217114  29.567   9.294   9.175
 1166POPC   C1A17115  29.825   8.975   8.780
 1166POPC   D2A17116  30.161   8.883   8.497
 1166POPC   C3A17117  30.131   9.038   8.095
 1166POPC   C4A17118  29.941   8.781   7.826
 1166POPC   C1B17119  29.444   9.310   8.756
 1166POPC   C2B17120  29.694   9.261   8.382
 1166POPC   C3B17121  29.631   9.160   8.003
 1166POPC   C4B17122  29.637   9.317   7.623
 1167POPC   NC317123  23.756  37.951   9.454
 1167POPC   PO417124  23.318  37.472   9.348
 1167POPC   GL117125  23.572  37.647   9.077
 1167POPC   GL217126  23.373  37.948   9.119
 1167POPC   C1A17127  23.894  37.593   8.766
 1167POPC   D2A17128  23.922  37.354   8.382
 1167POPC   C3A17129  23.991  37.593   7.997
 1167POPC   C4A17130  24.006  37.468   7.561
 1167POPC   C1B17131  23.551  38.002   8.722
 1167POPC   C2B17132  23.676  37.848   8.359
 1167POPC   C3B17133  23.682  38.011   7.970
 1167POPC   C4B17134  23.539  37.770   7.674
 1168POPC   NC317135  24.370  19.016   9.676
 1168POPC   PO417136  24.785  19.253   9.198
 1168POPC   GL117137  24.400  19.139   9.151
 1168POPC   GL217138  24.325  18.809   9.201
 1168POPC   C1A17139  24.269  19.201   8.752
 1168POPC   D2A17140  24.498  19.309   8.410
 1168POPC   C3A17141  24.215  19.418   8.112
 1168POPC   C4A17142  24.414  19.251   7.765
 1168POPC   C1B17143  24.202  18.697   8.783
 1168POPC   C2B17144  24.243  18.836   8.319
 1168POPC   C3B17145  24.569  18.838   8.035
 1168POPC   C4B17146  24.685  18.814   7.615
 1169POPC   NC317147  22.414  28.952   9.266
 1169POPC   PO417148  22.141  29.350   9.704
 1169POPC   GL117149  22.169  29.416   9.214
 1169POPC   GL217150  21.885  29.549   9.034
 1169POPC   C1A17151  22.250  29.331   8.727
 1169POPC   D2A17152  22.359  28.967   8.448
 1169POPC   C3A17153  22.286  28.986   7.992
 1169POPC   C4A17154  22.298  28.638   7.698
 1169POPC   C1B17155  21.719  29.411   8.648
 1169POPC   C2B17156  21.983  29.307   8.288
 1169POPC   C3B17157  22.169  29.488   7.953
 1169POPC   C4B17158  22.044  29.572   7.556
 1170POPC   NC317159  27.133  30.960   9.376
 1170POPC   PO417160  26.560  30.633   9.491
 1170POPC   GL117161  26.695  30.763   9.158
 1170POPC   GL217162  26.663  31.108   9.230
 1170POPC   C1A17163  26.880  30.689   8.788
 1170POPC   D2A17164  27.063  30.535   8.433
 1170POPC   C3A17165  26.833  30.652   8.081
 1170POPC   C4A17166  27.043  30.708   7.695
 1170POPC   C1B17167  26.515  31.092   8.823
 1170POPC   C2B17168  26.494  30.910   8.446
 1170POPC   C3B17169  26.601  31.135   8.099
 1170POPC   C4B17170  26.634  31.006   7.722
 1171POPC   NC317171  14.799  40.545   9.746
 1171POPC   PO417172  14.291  40.949   9.626
 1171POPC   GL117173  14.304  40.676   9.249
 1171POPC   GL217174  13.972  40.522   9.119
 1171POPC   C1A17175  14.455  40.787   8.844
 1171POPC   D2A17176  14.345  41.021   8.480
 1171POPC   C3A17177  14.555  40.934   8.139
 1171POPC   C4A17178  14.552  41.089   7.770
 1171POPC   C1B17179  14.109  40.410   8.669
 1171POPC   C2B17180  14.178  40.305   8.205
 1171POPC   C3B17181  14.491  40.453   7.910
 1171POPC   C4B17182  14.666  40.504   7.485
 1172POPC   NC317183  27.755  16.997   9.429
 1172POPC   PO417184  28.489  16.748   9.574
 1172POPC   GL117185  28.545  16.621   9.201
 1172POPC   GL217186  28.848  16.788   9.133
 1172POPC   C1A17187  28.278  16.555   8.886
 1172POPC   D2A17188  28.323  16.332   8.543
 1172POPC   C3A17189  28.222  16.623   8.223
 1172POPC   C4A17190  28.206  16.600   7.777
 1172POPC   C1B17191  28.720  16.756   8.694
 1172POPC   C2B17192  28.734  16.526   8.312
 1172POPC   C3B17193  28.688  16.652   7.910
 1172POPC   C4B17194  28.642  17.111   7.818
 1173POPC   NC317195  33.440  21.816   9.881
 1173POPC   PO417196  33.852  21.421   9.466
 1173POPC   GL117197  33.780  21.452   9.059
 1173POPC   GL217198  33.457  21.407   9.059
 1173POPC   C1A17199  33.859  21.372   8.671
 1173POPC   D2A17200  34.076  21.187   8.356
 1173POPC   C3A17201  33.877  21.363   8.001
 1173POPC   C4A17202  33.903  21.227   7.586
 1173POPC   C1B17203  33.414  21.687   8.715
 1173POPC   C2B17204  33.522  21.714   8.282
 1173POPC   C3B17205  33.375  21.557   7.893
 1173POPC   C4B17206  33.480  21.469   7.445
 1174POPC   NC317207  31.756   1.667   9.555
 1174POPC   PO417208  31.286   1.217   9.401
 1174POPC   GL117209  31.577   1.084   9.102
 1174POPC   GL217210  31.881   1.282   9.204
 1174POPC   C1A17211  31.555   0.985   8.652
 1174POPC   D2A17212  31.319   1.172   8.309
 1174POPC   C3A17213  31.339   0.983   7.872
 1174POPC   C4A17214  31.272   0.986   7.404
 1174POPC   C1B17215  31.806   1.426   8.797
 1174POPC   C2B17216  31.767   1.521   8.360
 1174POPC   C3B17217  31.736   1.252   8.017
 1174POPC   C4B17218  31.628   1.287   7.579
 1175POPC   NC317219  14.372  30.951   9.487
 1175POPC   PO417220  14.552  30.304   9.600
 1175POPC   GL117221  14.626  30.560   9.249
 1175POPC   GL217222  14.327  30.585   9.111
 1175POPC   C1A17223  14.761  30.593   8.828
 1175POPC   D2A17224  14.676  30.561   8.392
 1175POPC   C3A17225  14.828  30.286   8.075
 1175POPC   C4A17226  14.650  30.284   7.652
 1175POPC   C1B17227  14.241  30.567   8.698
 1175POPC   C2B17228  14.209  30.835   8.338
 1175POPC   C3B17229  14.391  30.676   7.973
 1175POPC   C4B17230  14.137  30.423   7.699
 1176POPC   NC317231   3.590   1.668   9.838
 1176POPC   PO417232   3.857   2.059   9.383
 1176POPC   GL117233   3.801   2.189   8.981
 1176POPC   GL217234   3.526   1.939   8.977
 1176POPC   C1A17235   3.554   2.273   8.600
 1176POPC   D2A17236   3.143   2.104   8.423
 1176POPC   C3A17237   3.140   2.361   8.044
 1176POPC   C4A17238   3.552   2.459   7.859
 1176POPC   C1B17239   3.371   1.641   8.729
 1176POPC   C2B17240   3.531   1.574   8.352
 1176POPC   C3B17241   3.513   1.829   7.996
 1176POPC   C4B17242   3.187   1.636   7.827
 1177POPC   NC317243  20.238  23.236   9.523
 1177POPC   PO417244  20.847  23.682   9.496
 1177POPC   GL117245  20.589  23.488   9.212
 1177POPC   GL217246  20.456  23.824   9.147
 1177POPC   C1A17247  20.642  23.476   8.764
 1177POPC   D2A17248  20.822  23.642   8.359
 1177POPC   C3A17249  20.742  23.501   7.950
 1177POPC   C4A17250  20.342  23.500   7.717
 1177POPC   C1B17251  20.654  23.982   8.763
 1177POPC   C2B17252  20.679  24.143   8.337
 1177POPC   C3B17253  20.705  23.991   7.908
 1177POPC   C4B17254  20.617  23.837   7.465
 1178POPC   NC317255  27.057   6.359   9.731
 1178POPC   PO417256  26.882   6.941   9.449
 1178POPC   GL117257  26.720   6.629   9.183
 1178POPC   GL217258  27.044   6.477   9.239
 1178POPC   C1A17259  26.633   6.616   8.739
 1178POPC   D2A17260  26.798   6.789   8.343
 1178POPC   C3A17261  26.680   6.742   7.894
 1178POPC   C4A17262  27.090   6.905   7.754
 1178POPC   C1B17263  27.130   6.573   8.835
 1178POPC   C2B17264  27.028   6.353   8.483
 1178POPC   C3B17265  27.025   6.400   8.053
 1178POPC   C4B17266  26.971   6.422   7.610
 1179POPC   NC317267  17.860   3.961   9.396
 1179POPC   PO417268  18.487   4.229   9.633
 1179POPC   GL117269  18.316   4.224   9.226
 1179POPC   GL217270  18.379   4.579   9.209
 1179POPC   C1A17271  18.198   4.031   8.804
 1179POPC   D2A17272  17.995   4.228   8.424
 1179POPC   C3A17273  18.248   4.164   8.055
 1179POPC   C4A17274  18.160   4.092   7.634
 1179POPC   C1B17275  18.190   4.551   8.804
 1179POPC   C2B17276  18.393   4.590   8.394
 1179POPC   C3B17277  18.278   4.661   7.958
 1179POPC   C4B17278  18.304   4.598   7.513
 1180POPC   NC317279  10.475  28.164   9.524
 1180POPC   PO417280  11.111  28.348   9.692
 1180POPC   GL117281  10.900  28.366   9.254
 1180POPC   GL217282  10.570  28.563   9.185
 1180POPC   C1A17283  10.709  28.231   8.823
 1180POPC   D2A17284  10.580  28.479   8.464
 1180POPC   C3A17285  10.481  28.347   8.047
 1180POPC   C4A17286  10.174  28.457   7.714
 1180POPC   C1B17287  10.876  28.714   8.854
 1180POPC   C2B17288  11.054  28.659   8.435
 1180POPC   C3B17289  10.836  28.743   8.052
 1180POPC   C4B17290  10.641  28.676   7.638
 1181POPC   NC317291  35.298  37.053   9.551
 1181POPC   PO417292  35.186  36.297   9.424
 1181POPC   GL117293  35.163  36.692   9.106
 1181POPC   GL217294  35.442  36.957   9.077
 1181POPC   C1A17295  35.133  36.876   8.680
 1181POPC   D2A17296  35.182  37.143   8.294
 1181POPC   C3A17297  35.182  36.831   7.951
 1181POPC   C4A17298  35.036  36.394   8.009
 1181POPC   C1B17299  35.587  37.120   8.665
 1181POPC   C2B17300  35.685  37.210   8.212
 1181POPC   C3B17301  35.533  37.178   7.771
 1181POPC   C4B17302  35.671  37.177   7.306
 1182POPC   NC317303   6.179  42.546   9.543
 1182POPC   PO417304   5.613  42.107   9.544
 1182POPC   GL117305   5.786  42.171   9.152
 1182POPC   GL217306   6.117  42.088   9.291
 1182POPC   C1A17307   5.594  42.307   8.739
 1182POPC   D2A17308   5.362  42.260   8.307
 1182POPC   C3A17309   5.637  42.412   7.954
 1182POPC   C4A17310   6.007  42.572   7.715
 1182POPC   C1B17311   6.156  42.024   8.829
 1182POPC   C2B17312   6.232  42.277   8.481
 1182POPC   C3B17313   6.185  42.227   8.061
 1182POPC   C4B17314   6.003  41.991   7.755
 1183POPC   NC317315  19.198  19.410   9.542
 1183POPC   PO417316  19.166  18.794   9.380
 1183POPC   GL117317  18.884  19.026   9.127
 1183POPC   GL217318  18.764  19.319   9.291
 1183POPC   C1A17319  18.967  18.985   8.685
 1183POPC   D2A17320  19.134  18.756   8.331
 1183POPC   C3A17321  19.119  18.911   7.923
 1183POPC   C4A17322  18.923  18.807   7.531
 1183POPC   C1B17323  18.715  19.426   8.856
 1183POPC   C2B17324  18.899  19.428   8.458
 1183POPC   C3B17325  18.738  19.164   8.176
 1183POPC   C4B17326  18.732  19.223   7.749
 1184POPC   NC317327  28.671  15.533   9.513
 1184POPC   PO417328  29.171  16.018   9.531
 1184POPC   GL117329  29.137  16.004   9.123
 1184POPC   GL217330  28.893  16.250   9.118
 1184POPC   C1A17331  29.213  15.821   8.727
 1184POPC   D2A17332  29.444  15.932   8.357
 1184POPC   C3A17333  29.349  15.718   8.006
 1184POPC   C4A17334  29.143  15.870   7.665
 1184POPC   C1B17335  28.923  16.283   8.724
 1184POPC   C2B17336  28.912  16.042   8.368
 1184POPC   C3B17337  28.956  16.210   7.977
 1184POPC   C4B17338  29.054  16.366   7.567
 1185POPC   NC317339   9.032   6.426   9.510
 1185POPC   PO417340   8.436   6.905   9.467
 1185POPC   GL117341   8.853   6.876   9.254
 1185POPC   GL217342   8.790   6.540   9.079
 1185POPC   C1A17343   9.028   6.955   8.835
 1185POPC   D2A17344   8.765   6.706   8.552
 1185POPC   C3A17345   8.859   6.697   8.121
 1185POPC   C4A17346   8.834   6.561   7.691
 1185POPC   C1B17347   9.184   6.467   8.847
 1185POPC   C2B17348   9.267   6.577   8.421
 1185POPC   C3B17349   9.254   6.403   7.967
 1185POPC   C4B17350   9.286   6.469   7.481
 1186POPC   NC317351  25.773   2.711   9.529
 1186POPC   PO417352  26.384   2.931   9.439
 1186POPC   GL117353  26.127   2.767   9.103
 1186POPC   GL217354  25.844   2.974   9.094
 1186POPC   C1A17355  26.125   2.949   8.639
 1186POPC   D2A17356  26.283   2.962   8.176
 1186POPC   C3A17357  26.093   2.624   7.975
 1186POPC   C4A17358  26.187   2.309   7.653
 1186POPC   C1B17359  25.641   3.026   8.721
 1186POPC   C2B17360  25.758   2.907   8.288
 1186POPC   C3B17361  25.668   3.008   7.895
 1186POPC   C4B17362  26.065   3.050   7.683
 1187POPC   NC317363   6.779  39.868   9.543
 1187POPC   PO417364   6.166  40.181   9.619
 1187POPC   GL117365   6.421  40.088   9.260
 1187POPC   GL217366   6.386  39.718   9.264
 1187POPC   C1A17367   6.602  40.257   8.873
 1187POPC   D2A17368   6.805  40.474   8.517
 1187POPC   C3A17369   6.701  40.295   8.103
 1187POPC   C4A17370   6.655  40.054   7.690
 1187POPC   C1B17371   6.699  39.733   8.887
 1187POPC   C2B17372   6.884  39.970   8.510
 1187POPC   C3B17373   6.800  39.798   8.106
 1187POPC   C4B17374   6.889  39.585   7.735
 1188POPC   NC317375  41.263  14.054   9.611
 1188POPC   PO417376  40.654  13.731   9.647
 1188POPC   GL117377  40.809  13.889   9.277
 1188POPC   GL217378  40.496  13.884   9.149
 1188POPC   C1A17379  40.923  13.790   8.866
 1188POPC   D2A17380  40.859  13.599   8.495
 1188POPC   C3A17381  41.035  13.823   8.181
 1188POPC   C4A17382  40.957  13.775   7.754
 1188POPC   C1B17383  40.428  13.641   8.793
 1188POPC   C2B17384  40.339  13.717   8.389
 1188POPC   C3B17385  40.530  13.596   8.047
 1188POPC   C4B17386  40.371  13.757   7.696
 1189POPC   NC317387  23.561  21.918   9.573
 1189POPC   PO417388  23.646  22.542   9.439
 1189POPC   GL117389  23.837  22.203   9.149
 1189POPC   GL217390  23.769  21.835   9.104
 1189POPC   C1A17391  23.839  22.181   8.695
 1189POPC   D2A17392  23.996  22.488   8.373
 1189POPC   C3A17393  23.843  22.511   7.975
 1189POPC   C4A17394  23.490  22.254   7.908
 1189POPC   C1B17395  23.709  21.687   8.667
 1189POPC   C2B17396  23.640  21.870   8.247
 1189POPC   C3B17397  23.804  21.887   7.813
 1189POPC   C4B17398  24.045  21.823   7.441
 1190POPC   NC317399  25.605  20.146   9.654
 1190POPC   PO417400  26.097  20.577   9.473
 1190POPC   GL117401  25.861  20.618   9.128
 1190POPC   GL217402  25.663  20.295   9.126
 1190POPC   C1A17403  26.049  20.767   8.741
 1190POPC   D2A17404  26.078  20.597   8.317
 1190POPC   C3A17405  26.090  20.906   7.983
 1190POPC   C4A17406  25.917  21.157   7.659
 1190POPC   C1B17407  26.038  20.248   8.815
 1190POPC   C2B17408  26.213  20.105   8.412
 1190POPC   C3B17409  26.147  20.231   7.967
 1190POPC   C4B17410  25.801  20.483   7.839
 1191POPC   NC317411  27.277  31.785   9.536
 1191POPC   PO417412  26.623  31.631   9.472
 1191POPC   GL117413  26.711  31.598   9.106
 1191POPC   GL217414  27.042  31.495   9.166
 1191POPC   C1A17415  26.785  31.751   8.741
 1191POPC   D2A17416  26.662  31.500   8.435
 1191POPC   C3A17417  26.745  31.710   8.058
 1191POPC   C4A17418  26.552  31.693   7.672
 1191POPC   C1B17419  27.005  31.244   8.802
 1191POPC   C2B17420  26.980  31.044   8.428
 1191POPC   C3B17421  27.091  31.133   8.009
 1191POPC   C4B17422  26.974  31.393   7.712
 1192POPC   NC317423  20.717   3.907   9.684
 1192POPC   PO417424  20.265   3.414   9.610
 1192POPC   GL117425  20.488   3.462   9.212
 1192POPC   GL217426  20.681   3.749   9.164
 1192POPC   C1A17427  20.511   3.333   8.777
 1192POPC   D2A17428  20.269   3.191   8.407
 1192POPC   C3A17429  20.453   3.315   8.007
 1192POPC   C4A17430  20.557   3.448   7.595
 1192POPC   C1B17431  20.426   3.839   8.777
 1192POPC   C2B17432  20.562   3.676   8.355
 1192POPC   C3B17433  20.633   3.846   7.919
 1192POPC   C4B17434  20.714   3.907   7.451
 1193POPC   NC317435  29.014  42.893   9.625
 1193POPC   PO417436  29.546  43.259   9.567
 1193POPC   GL117437  29.329  43.149   9.170
 1193POPC   GL217438  28.962  43.151   9.182
 1193POPC   C1A17439  29.229  43.035   8.713
 1193POPC   D2A17440  29.124  43.121   8.284
 1193POPC   C3A17441  29.313  43.032   7.889
 1193POPC   C4A17442  29.206  43.096   7.493
 1193POPC   C1B17443  28.778  43.271   8.807
 1193POPC   C2B17444  28.660  43.277   8.404
 1193POPC   C3B17445  28.719  43.193   7.995
 1193POPC   C4B17446  29.018  43.443   7.833
 1194POPC   NC317447   9.133  10.356   9.538
 1194POPC   PO417448   9.069  10.962   9.753
 1194POPC   GL117449   9.102  10.731   9.220
 1194POPC   GL217450   8.809  10.484   9.138
 1194POPC   C1A17451   9.181  10.468   8.812
 1194POPC   D2A17452   8.959  10.285   8.404
 1194POPC   C3A17453   9.119  10.275   7.933
 1194POPC   C4A17454   9.163  10.441   7.474
 1194POPC   C1B17455   8.774  10.794   8.783
 1194POPC   C2B17456   8.606  10.742   8.395
 1194POPC   C3B17457   8.703  10.591   7.994
 1194POPC   C4B17458   8.770  10.733   7.581
 1195POPC   NC317459   7.633  13.019   9.776
 1195POPC   PO417460   7.965  12.463   9.599
 1195POPC   GL117461   7.764  12.561   9.191
 1195POPC   GL217462   7.707  12.915   9.177
 1195POPC   C1A17463   7.520  12.586   8.786
 1195POPC   D2A17464   7.364  12.851   8.422
 1195POPC   C3A17465   7.466  12.791   7.981
 1195POPC   C4A17466   7.356  12.469   7.711
 1195POPC   C1B17467   7.677  13.092   8.748
 1195POPC   C2B17468   7.802  13.116   8.283
 1195POPC   C3B17469   7.618  13.284   7.897
 1195POPC   C4B17470   7.240  13.203   7.658
 1196POPC   NC317471   9.375  30.282   9.288
 1196POPC   PO417472   9.864  29.912   9.639
 1196POPC   GL117473   9.813  29.934   9.181
 1196POPC   GL217474   9.602  30.092   8.886
 1196POPC   C1A17475   9.861  29.676   8.813
 1196POPC   D2A17476   9.993  29.755   8.397
 1196POPC   C3A17477   9.733  29.683   8.034
 1196POPC   C4A17478   9.507  29.906   7.707
 1196POPC   C1B17479   9.374  29.760   8.615
 1196POPC   C2B17480   9.251  29.826   8.169
 1196POPC   C3B17481   9.159  30.221   7.903
 1196POPC   C4B17482   9.207  30.438   7.493
 1197POPC   NC317483  27.266  10.087   9.497
 1197POPC   PO417484  27.365   9.485   9.272
 1197POPC   GL117485  27.484   9.817   9.070
 1197POPC   GL217486  27.755   9.909   9.304
 1197POPC   C1A17487  27.618   9.728   8.631
 1197POPC   D2A17488  27.425   9.900   8.292
 1197POPC   C3A17489  27.365   9.666   7.935
 1197POPC   C4A17490  27.402   9.232   7.807
 1197POPC   C1B17491  27.918  10.028   8.912
 1197POPC   C2B17492  27.966  10.124   8.498
 1197POPC   C3B17493  27.919   9.926   8.154
 1197POPC   C4B17494  27.911   9.771   7.800
 1198POPC   NC317495   4.635  36.924   9.192
 1198POPC   PO417496   4.112  36.772   9.526
 1198POPC   GL117497   4.094  36.822   9.066
 1198POPC   GL217498   4.216  37.159   8.926
 1198POPC   C1A17499   3.940  36.851   8.625
 1198POPC   D2A17500   4.110  37.104   8.337
 1198POPC   C3A17501   4.397  36.901   8.098
 1198POPC   C4A17502   4.178  36.628   7.802
 1198POPC   C1B17503   4.532  37.139   8.600
 1198POPC   C2B17504   4.709  37.366   8.304
 1198POPC   C3B17505   4.599  37.428   7.888
 1198POPC   C4B17506   4.510  37.081   7.637
 1199POPC   NC317507  20.091  21.599   9.541
 1199POPC   PO417508  19.657  21.135   9.438
 1199POPC   GL117509  19.859  21.394   9.110
 1199POPC   GL217510  20.088  21.689   9.043
 1199POPC   C1A17511  19.758  21.500   8.701
 1199POPC   D2A17512  19.590  21.316   8.350
 1199POPC   C3A17513  19.649  21.559   8.003
 1199POPC   C4A17514  19.648  21.313   7.686
 1199POPC   C1B17515  20.258  21.549   8.659
 1199POPC   C2B17516  20.122  21.337   8.271
 1199POPC   C3B17517  20.132  21.450   7.830
 1199POPC   C4B17518  20.007  21.849   7.666
 1200POPC   NC317519  28.687  36.239   9.346
 1200POPC   PO417520  28.415  35.607   9.480
 1200POPC   GL117521  28.423  35.882   9.087
 1200POPC   GL217522  28.718  36.062   8.870
 1200POPC   C1A17523  28.186  36.072   8.739
 1200POPC   D2A17524  28.373  36.171   8.372
 1200POPC   C3A17525  28.458  35.914   8.030
 1200POPC   C4A17526  28.557  36.185   7.680
 1200POPC   C1B17527  28.549  36.494   8.740
 1200POPC   C2B17528  28.124  36.580   8.557
 1200POPC   C3B17529  28.017  36.401   8.111
 1200POPC   C4B17530  28.118  36.456   7.675
 1201POPC   NC317531  29.593  20.905   9.256
 1201POPC   PO417532  29.590  20.196   9.395
 1201POPC   GL117533  29.851  20.485   9.111
 1201POPC   GL217534  30.111  20.784   9.186
 1201POPC   C1A17535  29.846  20.526   8.690
 1201POPC   D2A17536  29.738  20.293   8.347
 1201POPC   C3A17537  29.836  20.574   8.010
 1201POPC   C4A17538  29.588  20.824   7.723
 1201POPC   C1B17539  30.322  20.610   8.796
 1201POPC   C2B17540  30.262  20.408   8.342
 1201POPC   C3B17541  30.316  20.488   7.865
 1201POPC   C4B17542  30.011  20.558   7.516
 1202POPC   NC317543  31.839  30.990   9.496
 1202POPC   PO417544  31.203  30.732   9.524
 1202POPC   GL117545  31.426  30.875   9.183
 1202POPC   GL217546  31.720  30.818   8.998
 1202POPC   C1A17547  31.325  31.055   8.791
 1202POPC   D2A17548  31.623  31.105   8.496
 1202POPC   C3A17549  31.455  30.876   8.152
 1202POPC   C4A17550  31.347  30.968   7.753
 1202POPC   C1B17551  31.379  30.555   8.766
 1202POPC   C2B17552  31.331  30.392   8.334
 1202POPC   C3B17553  31.535  30.412   7.888
 1202POPC   C4B17554  31.507  30.337   7.418
 1203POPC   NC317555  11.459  32.043   9.611
 1203POPC   PO417556  10.927  32.461   9.526
 1203POPC   GL117557  11.230  32.309   9.207
 1203POPC   GL217558  11.452  32.601   9.148
 1203POPC   C1A17559  11.344  32.178   8.760
 1203POPC   D2A17560  11.196  31.967   8.354
 1203POPC   C3A17561  11.274  32.104   7.906
 1203POPC   C4A17562  11.258  32.031   7.444
 1203POPC   C1B17563  11.103  32.632   8.815
 1203POPC   C2B17564  11.209  32.549   8.367
 1203POPC   C3B17565  11.050  32.552   7.929
 1203POPC   C4B17566  11.147  32.520   7.457
 1204POPC   NC317567  16.451  37.189   9.495
 1204POPC   PO417568  17.033  37.299   9.449
 1204POPC   GL117569  16.806  37.151   9.074
 1204POPC   GL217570  16.736  36.784   9.033
 1204POPC   C1A17571  16.888  37.042   8.617
 1204POPC   D2A17572  16.590  37.007   8.254
 1204POPC   C3A17573  16.771  36.886   7.879
 1204POPC   C4A17574  17.001  37.139   7.603
 1204POPC   C1B17575  16.972  36.560   8.722
 1204POPC   C2B17576  16.887  36.585   8.284
 1204POPC   C3B17577  17.136  36.512   7.895
 1204POPC   C4B17578  17.019  36.647   7.479
 1205POPC   NC317579  37.023   4.937   9.574
 1205POPC   PO417580  36.839   5.564   9.485
 1205POPC   GL117581  37.022   5.287   9.194
 1205POPC   GL217582  37.178   5.541   9.017
 1205POPC   C1A17583  37.070   5.106   8.769
 1205POPC   D2A17584  36.800   5.080   8.419
 1205POPC   C3A17585  36.797   4.868   7.985
 1205POPC   C4A17586  36.911   5.173   7.639
 1205POPC   C1B17587  36.718   5.491   8.836
 1205POPC   C2B17588  36.383   5.320   8.561
 1205POPC   C3B17589  36.412   5.201   8.110
 1205POPC   C4B17590  36.478   5.444   7.717
 1206POPC   NC317591   8.141   3.293   9.454
 1206POPC   PO417592   8.575   3.847   9.395
 1206POPC   GL117593   8.409   3.543   9.090
 1206POPC   GL217594   8.631   3.216   9.116
 1206POPC   C1A17595   8.392   3.630   8.649
 1206POPC   D2A17596   8.498   3.488   8.228
 1206POPC   C3A17597   8.342   3.743   7.951
 1206POPC   C4A17598   8.452   3.908   7.579
 1206POPC   C1B17599   8.445   3.139   8.670
 1206POPC   C2B17600   8.069   3.265   8.391
 1206POPC   C3B17601   7.954   3.377   7.953
 1206POPC   C4B17602   8.115   3.478   7.525
 1207POPC   NC317603   8.980  39.381   9.634
 1207POPC   PO417604   9.342  39.774   9.349
 1207POPC   GL117605   9.191  39.400   9.168
 1207POPC   GL217606   8.883  39.251   9.146
 1207POPC   C1A17607   9.278  39.242   8.793
 1207POPC   D2A17608   9.135  39.256   8.389
 1207POPC   C3A17609   9.088  39.450   8.018
 1207POPC   C4A17610   9.006  39.275   7.643
 1207POPC   C1B17611   8.792  39.079   8.730
 1207POPC   C2B17612   8.645  39.241   8.307
 1207POPC   C3B17613   8.640  39.073   7.918
 1207POPC   C4B17614   8.596  38.712   7.666
 1208POPC   NC317615  31.591   4.630   9.458
 1208POPC   PO417616  31.509   5.312   9.682
 1208POPC   GL117617  31.619   5.159   9.247
 1208POPC   GL217618  31.385   4.925   9.119
 1208POPC   C1A17619  31.788   5.009   8.820
 1208POPC   D2A17620  31.569   4.987   8.426
 1208POPC   C3A17621  31.775   4.947   8.019
 1208POPC   C4A17622  31.823   5.261   7.700
 1208POPC   C1B17623  31.359   5.277   8.815
 1208POPC   C2B17624  31.419   5.505   8.432
 1208POPC   C3B17625  31.417   5.321   8.040
 1208POPC   C4B17626  31.366   5.049   7.694
 1209POPC   NC317627  17.498   2.410   9.507
 1209POPC   PO417628  17.175   3.020   9.530
 1209POPC   GL117629  17.436   2.792   9.157
 1209POPC   GL217630  17.286   2.461   9.074
 1209POPC   C1A17631  17.655   2.855   8.754
 1209POPC   D2A17632  17.871   2.824   8.341
 1209POPC   C3A17633  17.620   2.924   8.058
 1209POPC   C4A17634  17.653   2.839   7.666
 1209POPC   C1B17635  17.490   2.375   8.751
 1209POPC   C2B17636  17.458   2.523   8.362
 1209POPC   C3B17637  17.540   2.418   7.970
 1209POPC   C4B17638  17.371   2.433   7.588
 1210POPC   NC317639  35.495  28.847   9.561
 1210POPC   PO417640  35.173  29.465   9.451
 1210POPC   GL117641  35.239  29.101   9.168
 1210POPC   GL217642  35.457  29.259   9.024
 1210POPC   C1A17643  35.368  28.907   8.706
 1210POPC   D2A17644  35.082  28.839   8.395
 1210POPC   C3A17645  35.036  29.120   8.030
 1210POPC   C4A17646  35.170  28.998   7.641
 1210POPC   C1B17647  35.104  29.333   8.721
 1210POPC   C2B17648  35.366  29.291   8.357
 1210POPC   C3B17649  35.745  29.373   8.121
 1210POPC   C4B17650  35.745  29.605   7.737
 1211POPC   NC317651   5.926  33.658   9.534
 1211POPC   PO417652   5.585  34.193   9.675
 1211POPC   GL117653   5.793  34.082   9.263
 1211POPC   GL217654   6.166  33.961   9.200
 1211POPC   C1A17655   5.748  33.873   8.873
 1211POPC   D2A17656   5.942  34.002   8.517
 1211POPC   C3A17657   5.711  33.983   8.180
 1211POPC   C4A17658   5.718  34.100   7.796
 1211POPC   C1B17659   6.252  33.726   8.815
 1211POPC   C2B17660   6.339  33.736   8.368
 1211POPC   C3B17661   6.107  33.698   7.983
 1211POPC   C4B17662   6.142  33.926   7.594
 1212POPC   NC317663  18.278   5.525   9.542
 1212POPC   PO417664  18.126   6.193   9.470
 1212POPC   GL117665  18.156   5.925   9.104
 1212POPC   GL217666  18.469   5.884   9.168
 1212POPC   C1A17667  18.110   5.848   8.650
 1212POPC   D2A17668  18.148   6.113   8.280
 1212POPC   C3A17669  18.347   5.971   7.903
 1212POPC   C4A17670  18.145   5.944   7.496
 1212POPC   C1B17671  18.584   5.727   8.783
 1212POPC   C2B17672  18.560   5.800   8.372
 1212POPC   C3B17673  18.635   5.584   8.027
 1212POPC   C4B17674  18.612   5.622   7.606
 1213POPC   NC317675   4.027  35.620   9.657
 1213POPC   PO417676   4.152  34.972   9.520
 1213POPC   GL117677   4.398  35.149   9.172
 1213POPC   GL217678   4.322  35.472   9.263
 1213POPC   C1A17679   4.564  35.238   8.740
 1213POPC   D2A17680   4.403  35.104   8.313
 1213POPC   C3A17681   4.515  35.257   7.888
 1213POPC   C4A17682   4.480  35.339   7.415
 1213POPC   C1B17683   4.139  35.503   8.855
 1213POPC   C2B17684   4.295  35.583   8.455
 1213POPC   C3B17685   4.172  35.599   8.011
 1213POPC   C4B17686   4.020  35.437   7.603
 1214POPC   NC317687   6.891  20.891   9.436
 1214POPC   PO417688   7.008  20.227   9.502
 1214POPC   GL117689   6.747  20.397   9.167
 1214POPC   GL217690   6.633  20.713   9.023
 1214POPC   C1A17691   6.689  20.252   8.757
 1214POPC   D2A17692   6.519  20.185   8.370
 1214POPC   C3A17693   6.642  20.343   7.967
 1214POPC   C4A17694   6.324  20.633   7.819
 1214POPC   C1B17695   6.777  20.943   8.676
 1214POPC   C2B17696   6.962  21.044   8.292
 1214POPC   C3B17697   6.795  20.837   7.932
 1214POPC   C4B17698   6.589  21.035   7.598
 1215POPC   NC317699  37.766  18.326   9.483
 1215POPC   PO417700  37.166  18.065   9.536
 1215POPC   GL117701  37.506  18.122   9.108
 1215POPC   GL217702  37.927  18.080   9.070
 1215POPC   C1A17703  37.628  18.247   8.705
 1215POPC   D2A17704  37.423  18.170   8.365
 1215POPC   C3A17705  37.628  18.267   8.024
 1215POPC   C4A17706  37.880  18.530   7.808
 1215POPC   C1B17707  38.147  18.297   8.708
 1215POPC   C2B17708  38.145  18.341   8.250
 1215POPC   C3B17709  38.079  18.061   7.922
 1215POPC   C4B17710  37.749  17.934   7.647
 1216POPC   NC317711  25.150  26.556   9.732
 1216POPC   PO417712  25.609  27.001   9.590
 1216POPC   GL117713  25.359  26.774   9.308
 1216POPC   GL217714  25.123  27.026   9.184
 1216POPC   C1A17715  25.408  26.619   8.904
 1216POPC   D2A17716  25.447  26.827   8.517
 1216POPC   C3A17717  25.332  26.683   8.104
 1216POPC   C4A17718  25.511  26.700   7.694
 1216POPC   C1B17719  25.030  27.132   8.729
 1216POPC   C2B17720  24.901  27.252   8.273
 1216POPC   C3B17721  25.125  27.118   7.870
 1216POPC   C4B17722  25.046  26.806   7.501
 1217POPC   NC317723  33.935  25.023   9.537
 1217POPC   PO417724  33.664  25.562   9.604
 1217POPC   GL117725  33.839  25.398   9.195
 1217POPC   GL217726  34.012  25.638   9.038
 1217POPC   C1A17727  33.665  25.266   8.769
 1217POPC   D2A17728  33.567  25.101   8.312
 1217POPC   C3A17729  33.766  25.079   7.879
 1217POPC   C4A17730  33.692  24.849   7.460
 1217POPC   C1B17731  34.126  25.459   8.623
 1217POPC   C2B17732  33.942  25.446   8.220
 1217POPC   C3B17733  33.731  25.602   7.832
 1217POPC   C4B17734  33.873  25.555   7.399
 1218POPC   NC317735  42.516  21.921   9.559
 1218POPC   PO417736  42.238  22.550   9.593
 1218POPC   GL117737  42.062  22.406   9.196
 1218POPC   GL217738  42.383  22.248   9.179
 1218POPC   C1A17739  42.116  22.305   8.748
 1218POPC   D2A17740  42.179  22.110   8.339
 1218POPC   C3A17741  42.091  22.257   7.936
 1218POPC   C4A17742  42.121  22.179   7.516
 1218POPC   C1B17743  42.728  22.167   8.924
 1218POPC   C2B17744  42.664  22.201   8.494
 1218POPC   C3B17745  42.656  22.023   8.099
 1218POPC   C4B17746  42.606  22.147   7.700
 1219POPC   NC317747  18.511  35.901   9.429
 1219POPC   PO417748  18.029  36.252   9.603
 1219POPC   GL117749  18.266  36.296   9.210
 1219POPC   GL217750  18.144  35.990   9.094
 1219POPC   C1A17751  18.524  36.172   8.807
 1219POPC   D2A17752  18.550  36.039   8.371
 1219POPC   C3A17753  18.401  36.289   8.013
 1219POPC   C4A17754  18.285  36.659   7.799
 1219POPC   C1B17755  18.122  35.894   8.654
 1219POPC   C2B17756  18.049  35.992   8.217
 1219POPC   C3B17757  18.039  36.015   7.746
 1219POPC   C4B17758  18.203  35.847   7.334
 1220POPC   NC317759  43.412  22.485   9.549
 1220POPC   PO417760  42.980  21.884   9.508
 1220POPC   GL117761  43.184  21.888   9.105
 1220POPC   GL217762  43.356  22.206   9.098
 1220POPC   C1A17763  43.155  21.994   8.657
 1220POPC   D2A17764  43.126  22.259   8.294
 1220POPC   C3A17765  43.107  22.139   7.878
 1220POPC   C4A17766  42.966  21.794   7.677
 1220POPC   C1B17767  43.467  22.421   8.721
 1220POPC   C2B17768  43.410  22.674   8.335
 1220POPC   C3B17769  43.487  22.475   7.936
 1220POPC   C4B17770  43.416  22.499   7.490
 1221POPC   NC317771  35.048  22.653   9.288
 1221POPC   PO417772  35.117  23.300   9.378
 1221POPC   GL117773  35.360  23.082   9.125
 1221POPC   GL217774  35.307  22.829   8.902
 1221POPC   C1A17775  35.589  23.234   8.789
 1221POPC   D2A17776  35.433  23.453   8.472
 1221POPC   C3A17777  35.413  23.197   8.092
 1221POPC   C4A17778  35.297  23.287   7.673
 1221POPC   C1B17779  34.994  22.717   8.655
 1221POPC   C2B17780  35.056  22.834   8.296
 1221POPC   C3B17781  35.144  22.668   7.954
 1221POPC   C4B17782  35.233  22.807   7.573
 1222POPC   NC317783  44.464  23.364   9.418
 1222POPC   PO417784  44.824  22.680   9.523
 1222POPC   GL117785  44.722  22.929   9.185
 1222POPC   GL217786  44.973  22.763   8.944
 1222POPC   C1A17787  44.718  23.173   8.811
 1222POPC   D2A17788   0.003  23.097   8.448
 1222POPC   C3A17789  44.861  22.798   8.124
 1222POPC   C4A17790  44.686  22.872   7.716
 1222POPC   C1B17791  44.534  22.700   8.747
 1222POPC   C2B17792  44.376  22.748   8.316
 1222POPC   C3B17793  44.405  22.498   7.934
 1222POPC   C4B17794  44.445  22.491   7.443
 1223POPC   NC317795   0.668  10.293   9.565
 1223POPC   PO417796   0.437  10.923   9.472
 1223POPC   GL117797   0.548  10.695   9.170
 1223POPC   GL217798   0.385  10.424   9.158
 1223POPC   C1A17799   0.657  10.572   8.736
 1223POPC   D2A17800   0.702  10.669   8.322
 1223POPC   C3A17801   0.367  10.757   8.038
 1223POPC   C4A17802   0.556  10.502   7.736
 1223POPC   C1B17803   0.173  10.654   8.847
 1223POPC   C2B17804   0.166  10.559   8.455
 1223POPC   C3B17805  44.910  10.478   8.137
 1223POPC   C4B17806  44.992  10.527   7.723
 1224POPC   NC317807  41.430  15.528  10.024
 1224POPC   PO417808  41.334  16.003   9.510
 1224POPC   GL117809  41.453  16.067   9.096
 1224POPC   GL217810  41.101  16.108   9.023
 1224POPC   C1A17811  41.714  16.078   8.694
 1224POPC   D2A17812  41.818  16.013   8.248
 1224POPC   C3A17813  41.824  15.996   7.829
 1224POPC   C4A17814  41.745  15.991   7.387
 1224POPC   C1B17815  41.240  16.333   8.689
 1224POPC   C2B17816  41.318  16.074   8.352
 1224POPC   C3B17817  41.344  15.887   7.953
 1224POPC   C4B17818  41.294  16.102   7.561
 1225POPC   NC317819   9.406  43.423   9.497
 1225POPC   PO417820   8.887  43.094   9.689
 1225POPC   GL117821   9.059  43.189   9.235
 1225POPC   GL217822   9.320  43.027   9.096
 1225POPC   C1A17823   8.951  43.222   8.768
 1225POPC   D2A17824   9.124  42.994   8.415
 1225POPC   C3A17825   8.870  43.058   8.035
 1225POPC   C4A17826   8.875  43.322   7.647
 1225POPC   C1B17827   9.427  43.358   8.752
 1225POPC   C2B17828   9.283  43.472   8.304
 1225POPC   C3B17829   9.325  43.246   7.895
 1225POPC   C4B17830   9.302  43.216   7.387
 1226POPC   NC317831  19.715  28.998   9.525
 1226POPC   PO417832  20.365  29.238   9.817
 1226POPC   GL117833  20.096  29.311   9.350
 1226POPC   GL217834  20.053  29.014   9.088
 1226POPC   C1A17835  19.843  29.422   8.923
 1226POPC   D2A17836  19.950  29.233   8.522
 1226POPC   C3A17837  19.912  29.206   8.069
 1226POPC   C4A17838  20.041  28.933   7.762
 1226POPC   C1B17839  19.807  28.800   8.748
 1226POPC   C2B17840  19.613  28.858   8.323
 1226POPC   C3B17841  19.534  28.867   7.896
 1226POPC   C4B17842  19.688  28.652   7.546
 1227POPC   NC317843  15.132  23.146   9.625
 1227POPC   PO417844  15.126  22.583   9.365
 1227POPC   GL117845  15.115  22.927   9.097
 1227POPC   GL217846  15.421  23.122   9.180
 1227POPC   C1A17847  14.982  22.876   8.654
 1227POPC   D2A17848  14.971  22.595   8.274
 1227POPC   C3A17849  14.753  22.823   7.948
 1227POPC   C4A17850  14.883  22.866   7.542
 1227POPC   C1B17851  15.435  23.131   8.724
 1227POPC   C2B17852  15.418  22.841   8.372
 1227POPC   C3B17853  15.254  22.915   7.967
 1227POPC   C4B17854  15.179  23.300   7.746
 1228POPC   NC317855   2.705  31.194   9.434
 1228POPC   PO417856   3.000  31.864   9.289
 1228POPC   GL117857   2.673  31.569   9.104
 1228POPC   GL217858   2.835  31.234   8.949
 1228POPC   C1A17859   2.426  31.422   8.745
 1228POPC   D2A17860   2.689  31.313   8.404
 1228POPC   C3A17861   2.637  31.553   8.060
 1228POPC   C4A17862   2.754  31.266   7.755
 1228POPC   C1B17863   2.961  31.614   8.690
 1228POPC   C2B17864   3.091  31.674   8.292
 1228POPC   C3B17865   3.165  31.529   7.891
 1228POPC   C4B17866   3.060  31.529   7.441
 1229POPC   NC317867   3.975  24.226   9.492
 1229POPC   PO417868   4.469  24.751   9.629
 1229POPC   GL117869   4.453  24.608   9.182
 1229POPC   GL217870   4.123  24.645   9.102
 1229POPC   C1A17871   4.436  24.323   8.768
 1229POPC   D2A17872   4.154  24.364   8.437
 1229POPC   C3A17873   4.448  24.360   8.120
 1229POPC   C4A17874   4.425  24.183   7.725
 1229POPC   C1B17875   4.315  24.800   8.714
 1229POPC   C2B17876   4.040  24.868   8.372
 1229POPC   C3B17877   4.014  24.644   7.988
 1229POPC   C4B17878   4.373  24.698   7.752
 1230POPC   NC317879   0.664  36.153   9.427
 1230POPC   PO417880   0.242  35.719   9.501
 1230POPC   GL117881   0.226  35.928   9.110
 1230POPC   GL217882   0.223  36.279   9.162
 1230POPC   C1A17883   0.503  36.059   8.784
 1230POPC   D2A17884   0.614  35.895   8.432
 1230POPC   C3A17885   0.644  36.165   8.124
 1230POPC   C4A17886   0.582  36.033   7.741
 1230POPC   C1B17887   0.138  36.409   8.774
 1230POPC   C2B17888   0.204  36.233   8.374
 1230POPC   C3B17889   0.165  36.261   7.956
 1230POPC   C4B17890  44.938  36.541   7.812
 1231POPC   NC317891  31.087  21.530   9.660
 1231POPC   PO417892  31.673  21.241   9.432
 1231POPC   GL117893  31.404  21.435   9.184
 1231POPC   GL217894  31.633  21.616   9.010
 1231POPC   C1A17895  31.354  21.200   8.808
 1231POPC   D2A17896  31.551  21.117   8.396
 1231POPC   C3A17897  31.388  21.286   8.033
 1231POPC   C4A17898  31.489  21.320   7.647
 1231POPC   C1B17899  31.547  21.612   8.596
 1231POPC   C2B17900  31.340  21.727   8.266
 1231POPC   C3B17901  31.574  21.759   7.891
 1231POPC   C4B17902  31.585  21.782   7.450
 1232POPC   NC317903   1.403  29.691   9.522
 1232POPC   PO417904   0.905  30.148   9.414
 1232POPC   GL117905   1.183  29.922   9.118
 1232POPC   GL217906   1.580  29.907   9.100
 1232POPC   C1A17907   1.255  29.836   8.709
 1232POPC   D2A17908   1.511  29.912   8.382
 1232POPC   C3A17909   1.333  29.784   8.013
 1232POPC   C4A17910   1.007  29.833   7.731
 1232POPC   C1B17911   1.693  30.179   8.784
 1232POPC   C2B17912   1.543  30.422   8.391
 1232POPC   C3B17913   1.399  30.304   7.958
 1232POPC   C4B17914   1.516  30.002   7.599
 1233POPC   NC317915  35.288   1.839   9.559
 1233POPC   PO417916  35.953   2.066   9.597
 1233POPC   GL117917  35.609   2.046   9.246
 1233POPC   GL217918  35.572   1.755   9.093
 1233POPC   C1A17919  35.454   2.148   8.806
 1233POPC   D2A17920  35.320   2.034   8.385
 1233POPC   C3A17921  35.259   2.260   7.998
 1233POPC   C4A17922  35.504   2.248   7.625
 1233POPC   C1B17923  35.292   1.655   8.756
 1233POPC   C2B17924  35.193   1.511   8.367
 1233POPC   C3B17925  35.339   1.632   8.006
 1233POPC   C4B17926  35.402   1.747   7.582
 1234POPC   NC317927  21.240  40.392   9.564
 1234POPC   PO417928  21.669  40.946   9.528
 1234POPC   GL117929  21.408  40.761   9.185
 1234POPC   GL217930  21.624  40.460   9.221
 1234POPC   C1A17931  21.105  40.742   8.793
 1234POPC   D2A17932  21.062  40.549   8.363
 1234POPC   C3A17933  21.063  40.755   7.951
 1234POPC   C4A17934  21.073  40.570   7.503
 1234POPC   C1B17935  21.528  40.445   8.791
 1234POPC   C2B17936  21.507  40.763   8.476
 1234POPC   C3B17937  21.540  40.605   8.117
 1234POPC   C4B17938  21.493  40.733   7.706
 1235POPC   NC317939  20.119   0.286   9.540
 1235POPC   PO417940  19.434   0.373   9.544
 1235POPC   GL117941  19.577   0.367   9.140
 1235POPC   GL217942  19.892   0.195   9.101
 1235POPC   C1A17943  19.602   0.327   8.706
 1235POPC   D2A17944  19.864   0.476   8.408
 1235POPC   C3A17945  19.700   0.338   8.058
 1235POPC   C4A17946  19.977   0.218   7.744
 1235POPC   C1B17947  20.133   0.127   8.730
 1235POPC   C2B17948  20.301   0.176   8.295
 1235POPC   C3B17949  20.420  44.986   7.883
 1235POPC   C4B17950  20.197  44.845   7.488
 1236POPC   NC317951  13.362  32.261   9.487
 1236POPC   PO417952  14.006  32.338   9.388
 1236POPC   GL117953  13.701  32.143   9.096
 1236POPC   GL217954  13.407  32.401   9.003
 1236POPC   C1A17955  13.818  32.017   8.657
 1236POPC   D2A17956  13.890  31.941   8.194
 1236POPC   C3A17957  13.536  31.940   7.908
 1236POPC   C4A17958  13.241  32.286   7.783
 1236POPC   C1B17959  13.781  32.546   8.792
 1236POPC   C2B17960  13.929  32.485   8.402
 1236POPC   C3B17961  13.715  32.447   8.038
 1236POPC   C4B17962  13.883  32.376   7.670
 1237POPC   NC317963  29.016   4.374   9.547
 1237POPC   PO417964  28.843   3.873   9.173
 1237POPC   GL117965  29.096   4.220   9.057
 1237POPC   GL217966  29.308   4.488   9.135
 1237POPC   C1A17967  29.141   4.304   8.653
 1237POPC   D2A17968  29.012   4.039   8.330
 1237POPC   C3A17969  29.146   4.132   7.924
 1237POPC   C4A17970  29.044   4.401   7.628
 1237POPC   C1B17971  29.583   4.547   8.759
 1237POPC   C2B17972  29.400   4.588   8.321
 1237POPC   C3B17973  29.485   4.536   7.875
 1237POPC   C4B17974  29.458   4.533   7.386
 1238POPC   NC317975  20.729  34.168   9.419
 1238POPC   PO417976  20.528  33.535   9.526
 1238POPC   GL117977  20.918  33.639   9.197
 1238POPC   GL217978  21.005  33.989   9.054
 1238POPC   C1A17979  20.929  33.609   8.716
 1238POPC   D2A17980  20.567  33.618   8.438
 1238POPC   C3A17981  20.569  33.676   7.987
 1238POPC   C4A17982  20.432  34.002   7.704
 1238POPC   C1B17983  20.725  34.073   8.700
 1238POPC   C2B17984  20.851  34.055   8.251
 1238POPC   C3B17985  20.854  34.247   7.816
 1238POPC   C4B17986  20.865  34.364   7.328
 1239POPC   NC317987  16.907   9.009   9.730
 1239POPC   PO417988  16.360   8.894   9.437
 1239POPC   GL117989  16.632   8.936   9.140
 1239POPC   GL217990  16.868   8.739   9.273
 1239POPC   C1A17991  16.702   9.137   8.746
 1239POPC   D2A17992  16.936   9.279   8.424
 1239POPC   C3A17993  16.696   9.243   8.053
 1239POPC   C4A17994  16.749   9.008   7.686
 1239POPC   C1B17995  16.917   8.647   8.834
 1239POPC   C2B17996  16.907   8.755   8.420
 1239POPC   C3B17997  16.787   8.515   8.078
 1239POPC   C4B17998  16.856   8.498   7.661
 1240POPC   NC317999  20.537  11.471   9.501
 1240POPC   PO418000  21.152  11.510   9.353
 1240POPC   GL118001  20.811  11.293   9.082
 1240POPC   GL218002  20.466  11.142   9.108
 1240POPC   C1A18003  20.589  11.344   8.658
 1240POPC   D2A18004  20.778  11.312   8.284
 1240POPC   C3A18005  20.607  11.424   7.936
 1240POPC   C4A18006  20.926  11.388   7.688
 1240POPC   C1B18007  20.219  11.018   8.772
 1240POPC   C2B18008  20.356  11.025   8.334
 1240POPC   C3B18009  20.209  11.107   7.944
 1240POPC   C4B18010  20.417  11.161   7.520
 1241POPC   NC318011   8.265   6.468   9.535
 1241POPC   PO418012   7.657   6.783   9.622
 1241POPC   GL118013   7.959   6.805   9.242
 1241POPC   GL218014   7.826   7.029   8.993
 1241POPC   C1A18015   8.112   6.637   8.808
 1241POPC   D2A18016   7.926   6.522   8.375
 1241POPC   C3A18017   8.039   6.631   7.935
 1241POPC   C4A18018   8.340   6.452   7.587
 1241POPC   C1B18019   8.255   7.110   8.712
 1241POPC   C2B18020   8.409   7.044   8.267
 1241POPC   C3B18021   8.464   6.879   7.853
 1241POPC   C4B18022   8.296   6.926   7.410
 1242POPC   NC318023  33.865   1.913   9.533
 1242POPC   PO418024  34.121   2.548   9.625
 1242POPC   GL118025  34.013   2.327   9.197
 1242POPC   GL218026  33.693   2.111   9.098
 1242POPC   C1A18027  34.017   2.282   8.717
 1242POPC   D2A18028  33.870   1.925   8.464
 1242POPC   C3A18029  33.882   1.929   8.028
 1242POPC   C4A18030  34.102   2.101   7.671
 1242POPC   C1B18031  33.503   1.807   8.795
 1242POPC   C2B18032  33.341   1.872   8.364
 1242POPC   C3B18033  33.413   1.712   7.949
 1242POPC   C4B18034  33.665   1.800   7.568
 1243POPC   NC318035  36.238   7.197   9.555
 1243POPC   PO418036  35.814   7.685   9.553
 1243POPC   GL118037  35.920   7.377   9.189
 1243POPC   GL218038  36.245   7.379   9.089
 1243POPC   C1A18039  35.923   7.426   8.714
 1243POPC   D2A18040  36.015   7.773   8.405
 1243POPC   C3A18041  35.992   7.557   8.038
 1243POPC   C4A18042  36.040   7.351   7.690
 1243POPC   C1B18043  36.434   7.269   8.730
 1243POPC   C2B18044  36.371   7.405   8.356
 1243POPC   C3B18045  36.488   7.399   7.962
 1243POPC   C4B18046  36.512   7.153   7.646
 1244POPC   NC318047  23.751  35.242   9.678
 1244POPC   PO418048  23.479  35.704   9.314
 1244POPC   GL118049  23.746  35.406   9.069
 1244POPC   GL218050  24.077  35.267   9.178
 1244POPC   C1A18051  23.672  35.209   8.665
 1244POPC   D2A18052  23.678  35.490   8.311
 1244POPC   C3A18053  23.537  35.332   7.937
 1244POPC   C4A18054  23.578  35.434   7.513
 1244POPC   C1B18055  24.128  35.419   8.734
 1244POPC   C2B18056  24.141  35.264   8.300
 1244POPC   C3B18057  24.047  35.258   7.828
 1244POPC   C4B18058  24.130  35.148   7.357
 1245POPC   NC318059  20.992   7.125   9.352
 1245POPC   PO418060  20.594   7.534   9.651
 1245POPC   GL118061  20.609   7.639   9.158
 1245POPC   GL218062  20.343   7.925   9.166
 1245POPC   C1A18063  20.804   7.504   8.741
 1245POPC   D2A18064  20.797   7.200   8.406
 1245POPC   C3A18065  20.632   7.312   7.995
 1245POPC   C4A18066  20.763   7.608   7.688
 1245POPC   C1B18067  20.255   7.712   8.794
 1245POPC   C2B18068  20.390   7.559   8.408
 1245POPC   C3B18069  20.333   7.735   8.019
 1245POPC   C4B18070  20.185   7.555   7.654
 1246POPC   NC318071  15.410  10.570   9.422
 1246POPC   PO418072  14.876  10.388   9.704
 1246POPC   GL118073  14.876  10.661   9.227
 1246POPC   GL218074  15.181  10.877   9.104
 1246POPC   C1A18075  14.978  10.572   8.720
 1246POPC   D2A18076  15.113  10.208   8.419
 1246POPC   C3A18077  15.184  10.275   7.952
 1246POPC   C4A18078  14.978  10.424   7.558
 1246POPC   C1B18079  15.048  11.072   8.718
 1246POPC   C2B18080  15.051  10.940   8.310
 1246POPC   C3B18081  15.168  11.092   7.930
 1246POPC   C4B18082  15.356  10.734   7.762
 1247POPC   NC318083  23.321   5.270   9.484
 1247POPC   PO418084  24.026   5.134   9.534
 1247POPC   GL118085  23.757   5.189   9.164
 1247POPC   GL218086  23.739   4.878   8.958
 1247POPC   C1A18087  23.480   5.328   8.797
 1247POPC   D2A18088  23.465   5.545   8.385
 1247POPC   C3A18089  23.548   5.265   8.066
 1247POPC   C4A18090  23.700   5.145   7.687
 1247POPC   C1B18091  24.032   4.648   8.726
 1247POPC   C2B18092  23.858   4.745   8.382
 1247POPC   C3B18093  23.972   4.932   8.058
 1247POPC   C4B18094  24.044   4.773   7.687
 1248POPC   NC318095   9.036   3.910   9.342
 1248POPC   PO418096   9.263   3.336   9.611
 1248POPC   GL118097   9.149   3.391   9.174
 1248POPC   GL218098   8.900   3.612   8.969
 1248POPC   C1A18099   9.215   3.257   8.751
 1248POPC   D2A18100   8.936   3.402   8.453
 1248POPC   C3A18101   9.017   3.407   8.001
 1248POPC   C4A18102   8.659   3.449   7.708
 1248POPC   C1B18103   9.195   3.784   8.705
 1248POPC   C2B18104   9.132   3.876   8.290
 1248POPC   C3B18105   8.840   3.877   7.972
 1248POPC   C4B18106   9.024   3.770   7.587
 1249POPC   NC318107   4.132  16.872   9.658
 1249POPC   PO418108   4.734  16.787   9.423
 1249POPC   GL118109   4.304  16.786   9.182
 1249POPC   GL218110   4.076  17.077   9.163
 1249POPC   C1A18111   4.041  16.691   8.788
 1249POPC   D2A18112   4.104  16.895   8.375
 1249POPC   C3A18113   4.231  16.709   7.965
 1249POPC   C4A18114   4.558  16.664   7.641
 1249POPC   C1B18115   4.270  17.154   8.799
 1249POPC   C2B18116   4.546  17.184   8.442
 1249POPC   C3B18117   4.597  17.080   8.010
 1249POPC   C4B18118   4.416  17.156   7.630
 1250POPC   NC318119  22.275  43.890   9.431
 1250POPC   PO418120  21.589  43.993   9.433
 1250POPC   GL118121  21.894  44.046   9.074
 1250POPC   GL218122  22.110  43.740   8.957
 1250POPC   C1A18123  21.952  44.147   8.622
 1250POPC   D2A18124  21.887  43.772   8.430
 1250POPC   C3A18125  21.953  43.667   8.027
 1250POPC   C4A18126  22.141  43.924   7.736
 1250POPC   C1B18127  22.383  43.877   8.604
 1250POPC   C2B18128  22.446  43.817   8.173
 1250POPC   C3B18129  22.401  43.506   7.884
 1250POPC   C4B18130  22.359  43.514   7.421
 1251POPC   NC318131  36.562   4.250   9.458
 1251POPC   PO418132  37.241   4.525   9.604
 1251POPC   GL118133  37.032   4.409   9.235
 1251POPC   GL218134  36.967   4.730   9.129
 1251POPC   C1A18135  37.134   4.260   8.811
 1251POPC   D2A18136  36.925   4.170   8.446
 1251POPC   C3A18137  37.022   4.359   8.062
 1251POPC   C4A18138  36.968   4.105   7.719
 1251POPC   C1B18139  36.830   4.650   8.766
 1251POPC   C2B18140  36.690   4.596   8.404
 1251POPC   C3B18141  36.503   4.377   8.163
 1251POPC   C4B18142  36.569   4.419   7.762
 1252POPC   NC318143  44.214  17.710   9.468
 1252POPC   PO418144  43.535  17.785   9.533
 1252POPC   GL118145  43.763  17.669   9.167
 1252POPC   GL218146  43.955  17.375   9.179
 1252POPC   C1A18147  43.720  17.477   8.731
 1252POPC   D2A18148  43.632  17.363   8.304
 1252POPC   C3A18149  43.771  17.541   7.890
 1252POPC   C4A18150  43.667  17.646   7.402
 1252POPC   C1B18151  44.114  17.130   8.828
 1252POPC   C2B18152  44.233  17.221   8.390
 1252POPC   C3B18153  44.117  17.119   7.960
 1252POPC   C4B18154  43.972  17.242   7.539
 1253POPC   NC318155  26.797  28.526   9.599
 1253POPC   PO418156  26.373  29.043   9.376
 1253POPC   GL118157  26.641  28.773   9.125
 1253POPC   GL218158  26.785  28.424   9.120
 1253POPC   C1A18159  26.712  28.681   8.691
 1253POPC   D2A18160  26.917  28.720   8.313
 1253POPC   C3A18161  26.804  28.455   7.995
 1253POPC   C4A18162  26.990  28.535   7.663
 1253POPC   C1B18163  26.919  28.195   8.791
 1253POPC   C2B18164  26.907  28.111   8.376
 1253POPC   C3B18165  26.628  27.959   8.064
 1253POPC   C4B18166  26.755  28.062   7.647
 1254POPC   NC318167   0.205  16.941   9.526
 1254POPC   PO418168   0.728  16.481   9.532
 1254POPC   GL118169   0.572  16.741   9.205
 1254POPC   GL218170   0.241  16.616   9.152
 1254POPC   C1A18171   0.482  16.852   8.775
 1254POPC   D2A18172   0.699  16.914   8.389
 1254POPC   C3A18173   0.471  16.825   8.021
 1254POPC   C4A18174   0.256  16.755   7.645
 1254POPC   C1B18175   0.148  16.428   8.799
 1254POPC   C2B18176  44.984  16.453   8.404
 1254POPC   C3B18177   0.195  16.389   8.015
 1254POPC   C4B18178   0.108  16.274   7.628
 1255POPC   NC318179   8.623   7.334   9.423
 1255POPC   PO418180   9.157   7.714   9.447
 1255POPC   GL118181   9.151   7.532   9.034
 1255POPC   GL218182   8.812   7.410   8.953
 1255POPC   C1A18183   9.162   7.463   8.581
 1255POPC   D2A18184   8.915   7.165   8.367
 1255POPC   C3A18185   8.874   7.197   7.952
 1255POPC   C4A18186   9.208   6.914   7.791
 1255POPC   C1B18187   8.835   7.826   8.723
 1255POPC   C2B18188   8.795   7.884   8.257
 1255POPC   C3B18189   8.971   7.705   7.870
 1255POPC   C4B18190   8.752   7.573   7.487
 1256POPC   NC318191   2.628   5.748   9.499
 1256POPC   PO418192   3.230   5.562   9.429
 1256POPC   GL118193   2.978   5.837   9.112
 1256POPC   GL218194   2.587   5.981   9.049
 1256POPC   C1A18195   2.912   5.776   8.665
 1256POPC   D2A18196   2.753   5.475   8.392
 1256POPC   C3A18197   2.777   5.576   7.968
 1256POPC   C4A18198   2.564   5.508   7.617
 1256POPC   C1B18199   2.616   6.190   8.633
 1256POPC   C2B18200   2.645   6.000   8.250
 1256POPC   C3B18201   2.588   6.053   7.844
 1256POPC   C4B18202   2.882   6.321   7.669
 1257POPC   NC318203  40.175  36.042   9.558
 1257POPC   PO418204  39.975  36.712   9.717
 1257POPC   GL118205  40.133  36.430   9.271
 1257POPC   GL218206  39.864  36.169   9.147
 1257POPC   C1A18207  40.318  36.302   8.878
 1257POPC   D2A18208  40.325  36.458   8.433
 1257POPC   C3A18209  39.972  36.342   8.120
 1257POPC   C4A18210  40.003  36.009   7.807
 1257POPC   C1B18211  39.949  35.884   8.785
 1257POPC   C2B18212  39.868  35.836   8.324
 1257POPC   C3B18213  39.548  35.904   7.994
 1257POPC   C4B18214  39.603  35.829   7.526
 1258POPC   NC318215  17.915  12.772   9.453
 1258POPC   PO418216  17.392  13.153   9.583
 1258POPC   GL118217  17.439  12.867   9.228
 1258POPC   GL218218  17.716  13.090   9.119
 1258POPC   C1A18219  17.458  12.605   8.837
 1258POPC   D2A18220  17.707  12.683   8.478
 1258POPC   C3A18221  17.501  12.679   8.105
 1258POPC   C4A18222  17.555  12.476   7.760
 1258POPC   C1B18223  17.441  13.105   8.770
 1258POPC   C2B18224  17.291  13.057   8.390
 1258POPC   C3B18225  17.439  13.202   8.020
 1258POPC   C4B18226  17.267  12.953   7.704
 1259POPC   NC318227  20.010  36.658   9.428
 1259POPC   PO418228  19.849  35.954   9.450
 1259POPC   GL118229  19.823  36.219   9.100
 1259POPC   GL218230  19.639  36.570   9.106
 1259POPC   C1A18231  19.977  36.113   8.685
 1259POPC   D2A18232  20.300  36.118   8.370
 1259POPC   C3A18233  20.105  36.001   7.987
 1259POPC   C4A18234  19.812  35.691   7.884
 1259POPC   C1B18235  19.565  36.420   8.703
 1259POPC   C2B18236  19.729  36.319   8.280
 1259POPC   C3B18237  19.599  36.184   7.881
 1259POPC   C4B18238  19.417  36.392   7.529
 1260POPC   NC318239   0.122   4.291   9.764
 1260POPC   PO418240  44.467   4.193   9.490
 1260POPC   GL118241  44.385   4.208   9.068
 1260POPC   GL218242  44.718   4.207   8.960
 1260POPC   C1A18243  44.361   4.253   8.615
 1260POPC   D2A18244  44.548   4.115   8.233
 1260POPC   C3A18245  44.541   4.454   7.919
 1260POPC   C4A18246  44.579   4.350   7.494
 1260POPC   C1B18247   0.042   4.153   8.666
 1260POPC   C2B18248   0.059   3.979   8.270
 1260POPC   C3B18249  44.925   4.128   7.867
 1260POPC   C4B18250   0.071   4.230   7.442
 1261POPC   NC318251   8.112  43.260   9.536
 1261POPC   PO418252   8.622  42.979   9.257
 1261POPC   GL118253   8.338  43.196   9.017
 1261POPC   GL218254   8.001  43.113   9.058
 1261POPC   C1A18255   8.286  43.048   8.609
 1261POPC   D2A18256   7.898  43.033   8.373
 1261POPC   C3A18257   8.077  43.242   8.041
 1261POPC   C4A18258   8.425  43.229   7.833
 1261POPC   C1B18259   7.941  42.745   8.827
 1261POPC   C2B18260   8.120  42.569   8.491
 1261POPC   C3B18261   8.306  42.756   8.152
 1261POPC   C4B18262   8.158  42.785   7.761
 1262POPC   NC318263   5.494  17.864   9.938
 1262POPC   PO418264   5.830  18.330   9.517
 1262POPC   GL118265   5.932  18.237   9.108
 1262POPC   GL218266   5.698  18.439   9.022
 1262POPC   C1A18267   6.062  18.273   8.665
 1262POPC   D2A18268   5.989  18.011   8.328
 1262POPC   C3A18269   5.945  18.214   7.975
 1262POPC   C4A18270   6.309  18.421   7.850
 1262POPC   C1B18271   5.549  18.289   8.664
 1262POPC   C2B18272   5.617  18.430   8.270
 1262POPC   C3B18273   5.409  18.323   7.889
 1262POPC   C4B18274   5.545  18.083   7.563
 1263POPC   NC318275  10.205  19.872   9.494
 1263POPC   PO418276  10.850  19.649   9.419
 1263POPC   GL118277  10.708  19.952   9.078
 1263POPC   GL218278  10.357  19.872   8.983
 1263POPC   C1A18279  10.816  20.325   8.797
 1263POPC   D2A18280  10.997  20.345   8.378
 1263POPC   C3A18281  10.879  19.930   8.213
 1263POPC   C4A18282  10.684  19.822   7.837
 1263POPC   C1B18283  10.346  19.558   8.617
 1263POPC   C2B18284  10.366  19.515   8.159
 1263POPC   C3B18285  10.227  19.586   7.735
 1263POPC   C4B18286  10.185  19.703   7.288
 1264POPC   NC318287  39.222  16.323   9.520
 1264POPC   PO418288  39.353  16.979   9.502
 1264POPC   GL118289  39.316  16.677   9.154
 1264POPC   GL218290  38.963  16.547   9.109
 1264POPC   C1A18291  39.288  16.466   8.733
 1264POPC   D2A18292  39.184  16.634   8.331
 1264POPC   C3A18293  39.403  16.540   7.988
 1264POPC   C4A18294  39.508  16.739   7.626
 1264POPC   C1B18295  39.011  16.917   8.803
 1264POPC   C2B18296  38.974  17.086   8.381
 1264POPC   C3B18297  39.026  16.963   7.909
 1264POPC   C4B18298  38.996  16.666   7.560
 1265POPC   NC318299   7.201  39.245   9.497
 1265POPC   PO418300   7.848  39.097   9.412
 1265POPC   GL118301   7.537  39.138   9.126
 1265POPC   GL218302   7.523  39.490   9.141
 1265POPC   C1A18303   7.405  38.937   8.757
 1265POPC   D2A18304   7.369  39.130   8.371
 1265POPC   C3A18305   7.715  39.042   8.136
 1265POPC   C4A18306   7.718  38.990   7.732
 1265POPC   C1B18307   7.157  39.406   8.869
 1265POPC   C2B18308   7.024  39.497   8.472
 1265POPC   C3B18309   7.273  39.624   8.121
 1265POPC   C4B18310   7.303  39.290   7.875
 1266POPC   NC318311   9.543  11.872   9.508
 1266POPC   PO418312  10.067  12.270   9.561
 1266POPC   GL118313   9.894  12.074   9.163
 1266POPC   GL218314   9.580  11.909   9.011
 1266POPC   C1A18315   9.937  12.165   8.736
 1266POPC   D2A18316   9.695  12.100   8.412
 1266POPC   C3A18317   9.641  12.405   8.118
 1266POPC   C4A18318   9.735  12.221   7.750
 1266POPC   C1B18319   9.846  11.663   8.806
 1266POPC   C2B18320   9.996  11.654   8.457
 1266POPC   C3B18321   9.776  11.712   8.090
 1266POPC   C4B18322   9.672  11.714   7.708
 1267POPC   NC318323  27.980  14.159   9.395
 1267POPC   PO418324  27.735  13.571   9.625
 1267POPC   GL118325  27.632  13.751   9.232
 1267POPC   GL218326  27.466  13.499   9.077
 1267POPC   C1A18327  27.780  13.884   8.813
 1267POPC   D2A18328  27.624  14.070   8.415
 1267POPC   C3A18329  27.706  13.829   8.081
 1267POPC   C4A18330  27.569  13.690   7.719
 1267POPC   C1B18331  27.155  13.354   8.778
 1267POPC   C2B18332  27.016  13.504   8.416
 1267POPC   C3B18333  27.278  13.532   8.114
 1267POPC   C4B18334  27.378  13.233   7.825
 1268POPC   NC318335  16.119   3.635   9.564
 1268POPC   PO418336  15.596   3.235   9.424
 1268POPC   GL118337  15.836   3.546   9.130
 1268POPC   GL218338  16.230   3.587   9.086
 1268POPC   C1A18339  15.906   3.642   8.683
 1268POPC   D2A18340  15.895   3.605   8.212
 1268POPC   C3A18341  15.765   3.736   7.800
 1268POPC   C4A18342  15.672   3.847   7.356
 1268POPC   C1B18343  16.295   3.253   8.824
 1268POPC   C2B18344  16.278   3.356   8.439
 1268POPC   C3B18345  16.272   3.268   8.009
 1268POPC   C4B18346  16.151   2.910   7.781
 1269POPC   NC318347  25.320  38.295   9.448
 1269POPC   PO418348  24.811  38.831   9.514
 1269POPC   GL118349  25.028  38.838   9.135
 1269POPC   GL218350  25.396  38.715   9.134
 1269POPC   C1A18351  25.049  38.557   8.782
 1269POPC   D2A18352  25.320  38.556   8.429
 1269POPC   C3A18353  25.197  38.257   8.117
 1269POPC   C4A18354  25.109  38.404   7.721
 1269POPC   C1B18355  25.621  38.404   8.839
 1269POPC   C2B18356  25.684  38.184   8.429
 1269POPC   C3B18357  25.669  38.453   8.052
 1269POPC   C4B18358  25.638  38.300   7.650
 1270POPC   NC318359   6.150   1.878   9.602
 1270POPC   PO418360   5.457   1.828   9.610
 1270POPC   GL118361   5.750   1.767   9.215
 1270POPC   GL218362   5.982   2.066   9.164
 1270POPC   C1A18363   5.791   1.828   8.737
 1270POPC   D2A18364   5.509   1.980   8.372
 1270POPC   C3A18365   5.536   2.114   7.932
 1270POPC   C4A18366   5.654   1.945   7.541
 1270POPC   C1B18367   6.190   2.168   8.782
 1270POPC   C2B18368   6.032   2.114   8.350
 1270POPC   C3B18369   6.012   1.950   7.936
 1270POPC   C4B18370   6.243   2.206   7.650
 1271POPC   NC318371  21.377  39.422   9.399
 1271POPC   PO418372  21.831  38.873   9.501
 1271POPC   GL118373  21.596  39.002   9.119
 1271POPC   GL218374  21.234  38.980   9.164
 1271POPC   C1A18375  21.611  39.181   8.704
 1271POPC   D2A18376  21.453  38.940   8.372
 1271POPC   C3A18377  21.303  39.167   8.035
 1271POPC   C4A18378  21.048  39.205   7.700
 1271POPC   C1B18379  21.142  39.323   8.817
 1271POPC   C2B18380  21.247  39.548   8.401
 1271POPC   C3B18381  21.065  39.653   7.965
 1271POPC   C4B18382  21.042  39.650   7.477
 1272POPC   NC318383  41.304  33.925   9.294
 1272POPC   PO418384  41.905  33.716   9.482
 1272POPC   GL118385  41.748  33.717   9.097
 1272POPC   GL218386  41.879  34.023   8.983
 1272POPC   C1A18387  41.533  33.754   8.692
 1272POPC   D2A18388  41.498  34.021   8.312
 1272POPC   C3A18389  41.420  33.826   7.934
 1272POPC   C4A18390  41.611  33.478   7.771
 1272POPC   C1B18391  41.953  34.021   8.554
 1272POPC   C2B18392  41.996  34.064   8.113
 1272POPC   C3B18393  41.859  33.918   7.729
 1272POPC   C4B18394  41.536  34.044   7.435
 1273POPC   NC318395  23.120  22.541   9.379
 1273POPC   PO418396  23.093  21.889   9.596
 1273POPC   GL118397  22.973  22.036   9.233
 1273POPC   GL218398  23.320  22.131   9.141
 1273POPC   C1A18399  22.836  22.194   8.853
 1273POPC   D2A18400  22.874  22.114   8.440
 1273POPC   C3A18401  23.040  22.401   8.123
 1273POPC   C4A18402  23.080  22.387   7.673
 1273POPC   C1B18403  23.233  21.836   8.821
 1273POPC   C2B18404  23.178  21.659   8.417
 1273POPC   C3B18405  23.086  21.882   8.047
 1273POPC   C4B18406  23.180  21.870   7.636
 1274POPC   NC318407  20.264  10.829   9.474
 1274POPC   PO418408  19.583  10.598   9.461
 1274POPC   GL118409  19.839  10.816   9.181
 1274POPC   GL218410  20.024  10.540   9.109
 1274POPC   C1A18411  19.790  10.764   8.734
 1274POPC   D2A18412  19.982  10.708   8.371
 1274POPC   C3A18413  19.862  10.476   8.055
 1274POPC   C4A18414  19.595  10.476   7.729
 1274POPC   C1B18415  20.295  10.513   8.783
 1274POPC   C2B18416  20.457  10.498   8.384
 1274POPC   C3B18417  20.347  10.582   7.979
 1274POPC   C4B18418  20.051  10.758   7.631
 1275POPC   NC318419  29.841  44.829   9.524
 1275POPC   PO418420  29.807  44.211   9.537
 1275POPC   GL118421  29.774  44.507   9.122
 1275POPC   GL218422  30.035  44.759   9.024
 1275POPC   C1A18423  29.588  44.799   8.774
 1275POPC   D2A18424  29.469  44.724   8.358
 1275POPC   C3A18425  29.808  44.657   8.080
 1275POPC   C4A18426  30.008  44.948   7.772
 1275POPC   C1B18427  30.066  44.770   8.543
 1275POPC   C2B18428  30.305  44.734   8.134
 1275POPC   C3B18429  30.181  44.450   7.758
 1275POPC   C4B18430  29.980  44.104   7.479
 1276POPC   NC318431  40.699  39.068   9.400
 1276POPC   PO418432  41.149  39.506   9.514
 1276POPC   GL118433  40.879  39.429   9.095
 1276POPC   GL218434  40.489  39.433   9.114
 1276POPC   C1A18435  40.926  39.223   8.657
 1276POPC   D2A18436  40.859  39.056   8.267
 1276POPC   C3A18437  40.829  39.327   7.923
 1276POPC   C4A18438  40.817  39.075   7.573
 1276POPC   C1B18439  40.449  39.109   8.761
 1276POPC   C2B18440  40.383  38.908   8.341
 1276POPC   C3B18441  40.403  39.027   7.884
 1276POPC   C4B18442  40.425  39.394   7.601
 1277POPC   NC318443  33.206   9.514   9.562
 1277POPC   PO418444  32.631   9.731   9.438
 1277POPC   GL118445  32.984   9.768   9.176
 1277POPC   GL218446  33.101  10.121   9.170
 1277POPC   C1A18447  33.146   9.500   8.820
 1277POPC   D2A18448  33.313   9.607   8.382
 1277POPC   C3A18449  33.127   9.469   7.976
 1277POPC   C4A18450  32.902   9.557   7.608
 1277POPC   C1B18451  33.130  10.000   8.731
 1277POPC   C2B18452  32.852  10.018   8.373
 1277POPC   C3B18453  32.852   9.944   7.942
 1277POPC   C4B18454  33.156  10.078   7.635
 1278POPC   NC318455  21.162  15.292   9.751
 1278POPC   PO418456  20.501  15.460   9.594
 1278POPC   GL118457  20.504  15.288   9.168
 1278POPC   GL218458  20.199  15.388   9.061
 1278POPC   C1A18459  20.442  15.110   8.730
 1278POPC   D2A18460  20.337  15.117   8.287
 1278POPC   C3A18461  20.578  14.858   7.951
 1278POPC   C4A18462  20.957  14.941   7.678
 1278POPC   C1B18463  20.308  15.628   8.674
 1278POPC   C2B18464  20.473  15.614   8.250
 1278POPC   C3B18465  20.678  15.358   7.945
 1278POPC   C4B18466  20.545  15.186   7.537
 1279POPC   NC318467  37.033  24.494   9.549
 1279POPC   PO418468  36.452  24.648   9.277
 1279POPC   GL118469  36.757  24.470   9.080
 1279POPC   GL218470  36.988  24.756   9.112
 1279POPC   C1A18471  36.643  24.327   8.678
 1279POPC   D2A18472  36.914  24.353   8.339
 1279POPC   C3A18473  36.769  24.521   7.952
 1279POPC   C4A18474  36.979  24.412   7.595
 1279POPC   C1B18475  36.765  24.951   8.761
 1279POPC   C2B18476  36.955  24.861   8.350
 1279POPC   C3B18477  37.147  24.873   7.923
 1279POPC   C4B18478  36.895  24.941   7.558
 1280POPC   NC318479  24.756  11.527   9.369
 1280POPC   PO418480  24.161  11.335   9.579
 1280POPC   GL118481  24.301  11.280   9.192
 1280POPC   GL218482  24.447  10.960   9.146
 1280POPC   C1A18483  24.219  11.428   8.792
 1280POPC   D2A18484  24.099  11.489   8.349
 1280POPC   C3A18485  24.417  11.632   8.083
 1280POPC   C4A18486  24.667  11.444   7.759
 1280POPC   C1B18487  24.670  11.152   8.827
 1280POPC   C2B18488  24.629  11.369   8.476
 1280POPC   C3B18489  24.575  11.130   8.138
 1280POPC   C4B18490  24.890  10.987   7.892
 1281POPC   NC318491  17.316  33.012   9.524
 1281POPC   PO418492  17.865  32.740   9.305
 1281POPC   GL118493  17.561  32.868   9.048
 1281POPC   GL218494  17.594  33.207   9.143
 1281POPC   C1A18495  17.619  32.821   8.605
 1281POPC   D2A18496  17.660  33.089   8.285
 1281POPC   C3A18497  17.586  32.879   7.937
 1281POPC   C4A18498  17.755  32.702   7.599
 1281POPC   C1B18499  17.525  33.307   8.739
 1281POPC   C2B18500  17.207  33.378   8.422
 1281POPC   C3B18501  17.270  33.295   8.009
 1281POPC   C4B18502  17.673  33.370   7.819
 1282POPC   NC318503  25.018  15.499   9.484
 1282POPC   PO418504  25.472  15.015   9.728
 1282POPC   GL118505  25.292  15.095   9.285
 1282POPC   GL218506  25.468  15.412   9.232
 1282POPC   C1A18507  25.276  15.120   8.804
 1282POPC   D2A18508  25.549  15.061   8.388
 1282POPC   C3A18509  25.358  14.942   7.967
 1282POPC   C4A18510  24.928  15.111   7.981
 1282POPC   C1B18511  25.572  15.542   8.815
 1282POPC   C2B18512  25.332  15.557   8.466
 1282POPC   C3B18513  25.346  15.443   8.049
 1282POPC   C4B18514  25.245  15.341   7.635
 1283POPC   NC318515  37.223  43.689   9.511
 1283POPC   PO418516  36.838  44.343   9.573
 1283POPC   GL118517  36.860  44.149   9.097
 1283POPC   GL218518  36.875  43.766   9.089
 1283POPC   C1A18519  36.975  44.006   8.662
 1283POPC   D2A18520  37.200  43.914   8.248
 1283POPC   C3A18521  37.014  44.078   7.908
 1283POPC   C4A18522  36.620  44.006   7.727
 1283POPC   C1B18523  37.153  43.514   8.835
 1283POPC   C2B18524  37.287  43.437   8.416
 1283POPC   C3B18525  37.109  43.443   8.019
 1283POPC   C4B18526  36.989  43.292   7.641
 1284POPC   NC318527   1.126  26.625   9.302
 1284POPC   PO418528   1.333  27.225   9.585
 1284POPC   GL118529   1.355  27.077   9.140
 1284POPC   GL218530   1.554  26.755   9.040
 1284POPC   C1A18531   1.139  26.996   8.738
 1284POPC   D2A18532   1.071  27.194   8.331
 1284POPC   C3A18533   1.004  26.990   7.974
 1284POPC   C4A18534   1.338  27.099   7.716
 1284POPC   C1B18535   1.414  26.490   8.651
 1284POPC   C2B18536   1.230  26.489   8.204
 1284POPC   C3B18537   1.214  26.595   7.747
 1284POPC   C4B18538   0.986  26.594   7.329
 1285POPC   NC318539   2.516  23.926   9.449
 1285POPC   PO418540   3.076  23.577   9.556
 1285POPC   GL118541   2.836  23.656   9.161
 1285POPC   GL218542   2.501  23.458   9.158
 1285POPC   C1A18543   2.679  23.966   8.818
 1285POPC   D2A18544   2.819  23.985   8.408
 1285POPC   C3A18545   2.840  23.629   8.162
 1285POPC   C4A18546   3.039  23.643   7.771
 1285POPC   C1B18547   2.641  23.470   8.724
 1285POPC   C2B18548   2.371  23.692   8.446
 1285POPC   C3B18549   2.302  23.786   8.040
 1285POPC   C4B18550   2.529  23.642   7.722
 1286POPC   NC318551   0.178  31.621   9.538
 1286POPC   PO418552   0.745  31.454   9.293
 1286POPC   GL118553   0.444  31.473   9.055
 1286POPC   GL218554   0.223  31.245   9.171
 1286POPC   C1A18555   0.528  31.576   8.651
 1286POPC   D2A18556   0.716  31.676   8.243
 1286POPC   C3A18557   0.506  31.521   7.892
 1286POPC   C4A18558   0.279  31.218   7.668
 1286POPC   C1B18559   0.048  31.323   8.773
 1286POPC   C2B18560   0.057  31.610   8.453
 1286POPC   C3B18561   0.002  31.473   8.050
 1286POPC   C4B18562   0.061  31.709   7.713
 1287POPC   NC318563  43.607  11.043   9.523
 1287POPC   PO418564  43.165  11.575   9.547
 1287POPC   GL118565  43.182  11.270   9.199
 1287POPC   GL218566  43.502  11.188   9.055
 1287POPC   C1A18567  43.107  11.399   8.767
 1287POPC   D2A18568  43.237  11.563   8.378
 1287POPC   C3A18569  42.897  11.560   8.084
 1287POPC   C4A18570  42.930  11.344   7.707
 1287POPC   C1B18571  43.275  10.920   8.788
 1287POPC   C2B18572  42.945  10.935   8.490
 1287POPC   C3B18573  43.035  11.045   8.107
 1287POPC   C4B18574  43.323  11.015   7.783
 1288POPC   NC318575   1.695  16.747   9.540
 1288POPC   PO418576   2.377  16.749   9.509
 1288POPC   GL118577   2.194  16.934   9.136
 1288POPC   GL218578   1.801  16.935   9.099
 1288POPC   C1A18579   2.084  16.957   8.699
 1288POPC   D2A18580   2.048  16.710   8.335
 1288POPC   C3A18581   2.250  16.807   7.951
 1288POPC   C4A18582   1.916  16.979   7.727
 1288POPC   C1B18583   1.759  16.575   8.808
 1288POPC   C2B18584   1.783  16.275   8.453
 1288POPC   C3B18585   1.820  16.388   8.014
 1288POPC   C4B18586   1.543  16.327   7.697
 1289POPC   NC318587  18.281  38.155   9.427
 1289POPC   PO418588  18.422  38.696   9.692
 1289POPC   GL118589  18.288  38.614   9.229
 1289POPC   GL218590  18.569  38.434   9.086
 1289POPC   C1A18591  18.127  38.351   8.822
 1289POPC   D2A18592  18.141  38.137   8.381
 1289POPC   C3A18593  18.195  38.436   8.009
 1289POPC   C4A18594  17.920  38.666   7.677
 1289POPC   C1B18595  18.596  38.233   8.666
 1289POPC   C2B18596  18.624  38.164   8.216
 1289POPC   C3B18597  18.715  38.403   7.868
 1289POPC   C4B18598  18.727  38.174   7.485
 1290POPC   NC318599  12.011  14.083   9.247
 1290POPC   PO418600  12.157  13.435   9.471
 1290POPC   GL118601  11.941  13.558   9.134
 1290POPC   GL218602  12.234  13.690   9.023
 1290POPC   C1A18603  11.804  13.729   8.724
 1290POPC   D2A18604  11.732  13.698   8.281
 1290POPC   C3A18605  12.038  13.556   7.965
 1290POPC   C4A18606  12.230  13.421   7.574
 1290POPC   C1B18607  12.427  13.946   8.734
 1290POPC   C2B18608  12.322  14.010   8.303
 1290POPC   C3B18609  12.282  13.995   7.858
 1290POPC   C4B18610  12.477  13.835   7.452
 1291POPC   NC318611  36.255  16.751   9.371
 1291POPC   PO418612  35.700  16.330   9.378
 1291POPC   GL118613  35.878  16.582   9.063
 1291POPC   GL218614  36.232  16.466   8.954
 1291POPC   C1A18615  35.712  16.869   8.763
 1291POPC   D2A18616  35.861  17.095   8.390
 1291POPC   C3A18617  36.034  16.767   8.108
 1291POPC   C4A18618  35.996  16.755   7.656
 1291POPC   C1B18619  36.239  16.877   8.713
 1291POPC   C2B18620  36.402  17.085   8.334
 1291POPC   C3B18621  36.405  17.057   7.893
 1291POPC   C4B18622  36.494  16.620   7.810
 1292POPC   NC318623  44.683  26.305   9.581
 1292POPC   PO418624  44.776  27.000   9.651
 1292POPC   GL118625  44.762  26.792   9.257
 1292POPC   GL218626   0.033  26.552   9.213
 1292POPC   C1A18627  44.673  26.846   8.823
 1292POPC   D2A18628  44.723  27.105   8.463
 1292POPC   C3A18629  44.669  26.913   8.065
 1292POPC   C4A18630  44.334  26.932   7.791
 1292POPC   C1B18631  44.997  26.470   8.754
 1292POPC   C2B18632  44.640  26.520   8.437
 1292POPC   C3B18633  44.445  26.413   8.051
 1292POPC   C4B18634  44.636  26.536   7.688
 1293POPC   NC318635  41.220  19.042   9.404
 1293POPC   PO418636  41.870  19.150   9.430
 1293POPC   GL118637  41.645  18.966   9.064
 1293POPC   GL218638  41.502  19.296   9.036
 1293POPC   C1A18639  41.564  18.862   8.612
 1293POPC   D2A18640  41.452  19.142   8.264
 1293POPC   C3A18641  41.627  19.172   7.902
 1293POPC   C4A18642  41.588  18.861   7.676
 1293POPC   C1B18643  41.221  19.217   8.715
 1293POPC   C2B18644  41.076  18.864   8.415
 1293POPC   C3B18645  41.132  18.911   7.942
 1293POPC   C4B18646  41.141  19.034   7.491
 1294POPC   NC318647  31.483  11.128   9.324
 1294POPC   PO418648  31.416  10.624   9.804
 1294POPC   GL118649  31.369  10.413   9.346
 1294POPC   GL218650  31.503  10.661   9.105
 1294POPC   C1A18651  31.254  10.301   8.865
 1294POPC   D2A18652  31.387  10.368   8.418
 1294POPC   C3A18653  31.508  10.522   7.990
 1294POPC   C4A18654  31.406  10.475   7.540
 1294POPC   C1B18655  31.776  10.808   8.752
 1294POPC   C2B18656  31.890  10.675   8.324
 1294POPC   C3B18657  31.951  10.772   7.887
 1294POPC   C4B18658  31.924  10.673   7.407
 1295POPC   NC318659  13.308  20.617   9.423
 1295POPC   PO418660  13.847  21.025   9.492
 1295POPC   GL118661  13.680  20.739   9.093
 1295POPC   GL218662  13.701  20.364   9.102
 1295POPC   C1A18663  13.574  20.657   8.640
 1295POPC   D2A18664  13.551  20.808   8.203
 1295POPC   C3A18665  13.331  20.555   7.879
 1295POPC   C4A18666  13.145  20.242   7.633
 1295POPC   C1B18667  13.974  20.357   8.746
 1295POPC   C2B18668  13.834  20.348   8.317
 1295POPC   C3B18669  13.910  20.512   7.922
 1295POPC   C4B18670  13.907  20.346   7.520
 1296POPC   NC318671   3.183   3.219   9.388
 1296POPC   PO418672   3.433   3.909   9.408
 1296POPC   GL118673   3.442   3.592   9.072
 1296POPC   GL218674   3.173   3.660   8.824
 1296POPC   C1A18675   3.643   3.461   8.685
 1296POPC   D2A18676   3.804   3.319   8.287
 1296POPC   C3A18677   3.778   3.584   7.926
 1296POPC   C4A18678   3.648   3.445   7.503
 1296POPC   C1B18679   3.189   3.242   8.706
 1296POPC   C2B18680   3.316   3.261   8.295
 1296POPC   C3B18681   3.273   3.578   7.962
 1296POPC   C4B18682   3.133   3.449   7.559
 1297POPC   NC318683  36.028   5.008   9.617
 1297POPC   PO418684  36.609   4.716   9.517
 1297POPC   GL118685  36.427   5.059   9.274
 1297POPC   GL218686  36.590   5.045   8.990
 1297POPC   C1A18687  36.067   5.112   8.965
 1297POPC   D2A18688  35.832   4.926   8.632
 1297POPC   C3A18689  35.882   5.116   8.218
 1297POPC   C4A18690  36.004   5.263   7.816
 1297POPC   C1B18691  36.360   4.829   8.689
 1297POPC   C2B18692  36.207   4.749   8.334
 1297POPC   C3B18693  36.183   4.750   7.935
 1297POPC   C4B18694  36.426   4.929   7.648
 1298POPC   NC318695   4.720  34.927   9.503
 1298POPC   PO418696   5.073  35.438   9.510
 1298POPC   GL118697   4.885  35.328   9.168
 1298POPC   GL218698   4.760  35.632   9.075
 1298POPC   C1A18699   5.090  35.254   8.781
 1298POPC   D2A18700   5.429  35.430   8.531
 1298POPC   C3A18701   5.416  35.382   8.083
 1298POPC   C4A18702   5.148  35.629   7.834
 1298POPC   C1B18703   4.854  35.700   8.645
 1298POPC   C2B18704   4.760  35.546   8.242
 1298POPC   C3B18705   4.648  35.764   7.858
 1298POPC   C4B18706   4.835  35.710   7.438
 1299POPC   NC318707  20.902  43.661   9.291
 1299POPC   PO418708  20.429  44.094   9.416
 1299POPC   GL118709  20.528  43.897   9.052
 1299POPC   GL218710  20.352  44.166   8.906
 1299POPC   C1A18711  20.642  43.704   8.628
 1299POPC   D2A18712  20.456  43.830   8.223
 1299POPC   C3A18713  20.652  43.819   7.802
 1299POPC   C4A18714  20.929  43.923   7.446
 1299POPC   C1B18715  20.804  44.256   8.835
 1299POPC   C2B18716  21.027  44.271   8.460
 1299POPC   C3B18717  20.981  44.127   8.063
 1299POPC   C4B18718  20.992  44.346   7.712
 1300POPC   NC318719   5.782  39.870   9.625
 1300POPC   PO418720   5.406  40.460   9.374
 1300POPC   GL118721   5.565  40.087   9.181
 1300POPC   GL218722   5.921  40.057   9.169
 1300POPC   C1A18723   5.657  39.890   8.784
 1300POPC   D2A18724   5.907  40.057   8.437
 1300POPC   C3A18725   5.777  39.924   8.058
 1300POPC   C4A18726   5.650  40.116   7.701
 1300POPC   C1B18727   6.183  39.909   8.845
 1300POPC   C2B18728   6.390  39.857   8.466
 1300POPC   C3B18729   6.298  39.923   8.045
 1300POPC   C4B18730   6.105  39.795   7.686
 1301POPC   NC318731  30.580   4.573   9.504
 1301POPC   PO418732  30.364   3.936   9.429
 1301POPC   GL118733  30.354   4.243   9.140
 1301POPC   GL218734  30.340   4.646   9.079
 1301POPC   C1A18735  30.565   4.211   8.775
 1301POPC   D2A18736  30.908   4.222   8.491
 1301POPC   C3A18737  30.821   4.114   8.052
 1301POPC   C4A18738  31.015   4.425   7.760
 1301POPC   C1B18739  30.477   4.695   8.665
 1301POPC   C2B18740  30.454   4.412   8.300
 1301POPC   C3B18741  30.516   4.508   7.854
 1301POPC   C4B18742  30.341   4.737   7.501
 1302POPC   NC318743  36.315  44.858   9.493
 1302POPC   PO418744  36.370  44.274   9.253
 1302POPC   GL118745  36.112  44.487   9.001
 1302POPC   GL218746  36.190  44.834   9.020
 1302POPC   C1A18747  36.047  44.437   8.572
 1302POPC   D2A18748  36.334  44.674   8.347
 1302POPC   C3A18749  36.259  44.808   7.955
 1302POPC   C4A18750  36.193  44.500   7.729
 1302POPC   C1B18751  36.012  44.937   8.687
 1302POPC   C2B18752  35.899  44.970   8.297
 1302POPC   C3B18753  35.797  44.617   8.069
 1302POPC   C4B18754  35.777  44.734   7.655
 1303POPC   NC318755  13.600  28.567   9.635
 1303POPC   PO418756  13.231  28.072   9.355
 1303POPC   GL118757  13.692  28.232   9.174
 1303POPC   GL218758  14.012  27.991   9.197
 1303POPC   C1A18759  13.782  28.438   8.731
 1303POPC   D2A18760  13.481  28.390   8.334
 1303POPC   C3A18761  13.543  28.487   7.884
 1303POPC   C4A18762  13.943  28.572   7.679
 1303POPC   C1B18763  14.142  28.052   8.754
 1303POPC   C2B18764  13.982  28.159   8.321
 1303POPC   C3B18765  13.825  28.041   7.914
 1303POPC   C4B18766  13.371  27.996   7.832
 1304POPC   NC318767  18.178  10.459   9.476
 1304POPC   PO418768  18.288  11.084   9.326
 1304POPC   GL118769  18.503  10.762   9.100
 1304POPC   GL218770  18.402  10.391   9.031
 1304POPC   C1A18771  18.533  10.709   8.658
 1304POPC   D2A18772  18.462  10.322   8.445
 1304POPC   C3A18773  18.393  10.488   8.079
 1304POPC   C4A18774  18.565  10.769   7.782
 1304POPC   C1B18775  18.056  10.622   8.846
 1304POPC   C2B18776  18.031  10.636   8.428
 1304POPC   C3B18777  17.898  10.768   8.034
 1304POPC   C4B18778  18.093  10.637   7.700
 1305POPC   NC318779  16.782  27.904   9.505
 1305POPC   PO418780  16.507  27.317   9.705
 1305POPC   GL118781  16.572  27.505   9.262
 1305POPC   GL218782  16.942  27.508   9.235
 1305POPC   C1A18783  16.478  27.739   8.837
 1305POPC   D2A18784  16.639  27.875   8.418
 1305POPC   C3A18785  16.450  27.803   7.984
 1305POPC   C4A18786  16.620  27.918   7.553
 1305POPC   C1B18787  16.976  27.670   8.820
 1305POPC   C2B18788  16.892  27.420   8.468
 1305POPC   C3B18789  16.848  27.507   8.068
 1305POPC   C4B18790  17.035  27.669   7.713
 1306POPC   NC318791   4.160   2.471   9.444
 1306POPC   PO418792   4.425   3.188   9.548
 1306POPC   GL118793   4.493   2.805   9.258
 1306POPC   GL218794   4.489   3.021   9.063
 1306POPC   C1A18795   4.429   2.576   8.817
 1306POPC   D2A18796   4.114   2.305   8.556
 1306POPC   C3A18797   4.106   2.382   8.090
 1306POPC   C4A18798   4.261   2.761   7.897
 1306POPC   C1B18799   4.537   3.099   8.698
 1306POPC   C2B18800   4.508   2.860   8.366
 1306POPC   C3B18801   4.668   3.019   8.016
 1306POPC   C4B18802   4.559   3.127   7.619
 1307POPC   NC318803  28.570  42.537   9.352
 1307POPC   PO418804  27.965  42.174   9.454
 1307POPC   GL118805  28.058  42.420   9.074
 1307POPC   GL218806  28.386  42.480   8.888
 1307POPC   C1A18807  27.961  42.350   8.635
 1307POPC   D2A18808  28.323  42.416   8.356
 1307POPC   C3A18809  28.346  42.073   8.059
 1307POPC   C4A18810  28.128  42.360   7.862
 1307POPC   C1B18811  28.721  42.257   8.634
 1307POPC   C2B18812  28.811  42.271   8.175
 1307POPC   C3B18813  28.652  42.347   7.752
 1307POPC   C4B18814  28.689  42.244   7.339
 1308POPC   NC318815  24.202   7.488   9.604
 1308POPC   PO418816  24.788   7.868   9.547
 1308POPC   GL118817  24.552   7.832   9.171
 1308POPC   GL218818  24.422   7.503   9.095
 1308POPC   C1A18819  24.702   7.738   8.753
 1308POPC   D2A18820  24.618   7.435   8.440
 1308POPC   C3A18821  24.652   7.570   8.024
 1308POPC   C4A18822  24.687   7.518   7.565
 1308POPC   C1B18823  24.170   7.262   8.793
 1308POPC   C2B18824  24.161   7.181   8.338
 1308POPC   C3B18825  24.516   7.049   8.074
 1308POPC   C4B18826  24.644   7.010   7.658
 1309POPC   NC318827   9.640   3.115   9.386
 1309POPC   PO418828   9.680   3.723   9.470
 1309POPC   GL118829   9.920   3.512   9.181
 1309POPC   GL218830   9.628   3.493   8.973
 1309POPC   C1A18831  10.089   3.636   8.777
 1309POPC   D2A18832  10.048   3.895   8.388
 1309POPC   C3A18833   9.839   3.687   8.051
 1309POPC   C4A18834   9.860   3.451   7.676
 1309POPC   C1B18835   9.671   3.955   8.789
 1309POPC   C2B18836   9.567   4.154   8.364
 1309POPC   C3B18837   9.471   4.055   7.920
 1309POPC   C4B18838   9.747   3.935   7.588
 1310POPC   NC318839  27.081  40.492   9.524
 1310POPC   PO418840  26.502  40.914   9.430
 1310POPC   GL118841  26.501  40.681   9.092
 1310POPC   GL218842  26.866  40.702   9.098
 1310POPC   C1A18843  26.603  40.782   8.691
 1310POPC   D2A18844  26.890  40.821   8.393
 1310POPC   C3A18845  26.723  41.003   8.096
 1310POPC   C4A18846  26.839  41.014   7.734
 1310POPC   C1B18847  27.048  40.460   8.756
 1310POPC   C2B18848  26.865  40.319   8.342
 1310POPC   C3B18849  26.891  40.376   7.927
 1310POPC   C4B18850  27.137  40.613   7.691
 1311POPC   NC318851  12.082  31.427   9.789
 1311POPC   PO418852  11.614  31.244   9.295
 1311POPC   GL118853  11.921  31.187   8.989
 1311POPC   GL218854  12.282  31.248   9.169
 1311POPC   C1A18855  11.873  31.366   8.545
 1311POPC   D2A18856  11.899  31.464   8.083
 1311POPC   C3A18857  11.930  31.195   7.723
 1311POPC   C4A18858  12.217  31.214   7.315
 1311POPC   C1B18859  12.309  31.481   8.784
 1311POPC   C2B18860  12.274  31.742   8.410
 1311POPC   C3B18861  12.394  31.680   7.990
 1311POPC   C4B18862  12.439  31.313   7.770
 1312POPC   NC318863  25.773  20.955   9.524
 1312POPC   PO418864  25.247  20.471   9.679
 1312POPC   GL118865  25.160  20.463   9.235
 1312POPC   GL218866  25.319  20.768   9.153
 1312POPC   C1A18867  25.040  20.503   8.776
 1312POPC   D2A18868  25.146  20.722   8.362
 1312POPC   C3A18869  25.123  20.480   7.986
 1312POPC   C4A18870  25.387  20.218   7.691
 1312POPC   C1B18871  25.525  20.712   8.744
 1312POPC   C2B18872  25.701  20.938   8.382
 1312POPC   C3B18873  25.529  20.904   7.973
 1312POPC   C4B18874  25.133  20.908   7.722
 1313POPC   NC318875  16.930  16.162   9.575
 1313POPC   PO418876  16.344  15.925   9.644
 1313POPC   GL118877  16.537  16.093   9.231
 1313POPC   GL218878  16.812  15.928   9.127
 1313POPC   C1A18879  16.479  16.009   8.761
 1313POPC   D2A18880  16.754  16.005   8.391
 1313POPC   C3A18881  16.654  15.868   7.992
 1313POPC   C4A18882  16.634  16.176   7.675
 1313POPC   C1B18883  16.950  16.228   8.796
 1313POPC   C2B18884  17.216  16.259   8.432
 1313POPC   C3B18885  17.047  16.211   8.006
 1313POPC   C4B18886  17.095  15.850   7.698
 1314POPC   NC318887  33.755   2.864   9.573
 1314POPC   PO418888  34.284   3.207   9.292
 1314POPC   GL118889  33.999   3.105   9.007
 1314POPC   GL218890  33.805   2.781   9.058
 1314POPC   C1A18891  34.097   3.023   8.584
 1314POPC   D2A18892  33.871   2.717   8.361
 1314POPC   C3A18893  33.678   2.824   7.976
 1314POPC   C4A18894  33.944   3.121   7.833
 1314POPC   C1B18895  33.546   2.520   8.724
 1314POPC   C2B18896  33.593   2.317   8.272
 1314POPC   C3B18897  33.672   2.344   7.812
 1314POPC   C4B18898  33.500   2.278   7.408
 1315POPC   NC318899   7.504  42.991   9.662
 1315POPC   PO418900   7.818  43.543   9.725
 1315POPC   GL118901   7.607  43.354   9.317
 1315POPC   GL218902   7.312  43.119   9.221
 1315POPC   C1A18903   7.597  43.334   8.853
 1315POPC   D2A18904   7.398  43.126   8.525
 1315POPC   C3A18905   7.336  43.318   8.131
 1315POPC   C4A18906   7.195  43.203   7.740
 1315POPC   C1B18907   7.457  42.818   8.935
 1315POPC   C2B18908   7.552  42.630   8.508
 1315POPC   C3B18909   7.478  42.810   8.107
 1315POPC   C4B18910   7.678  43.014   7.808
 1316POPC   NC318911  26.616  12.259   9.523
 1316POPC   PO418912  26.964  11.621   9.773
 1316POPC   GL118913  27.027  11.908   9.353
 1316POPC   GL218914  26.751  12.018   9.087
 1316POPC   C1A18915  27.247  12.113   8.962
 1316POPC   D2A18916  27.292  12.288   8.508
 1316POPC   C3A18917  26.998  12.217   8.152
 1316POPC   C4A18918  26.947  11.913   7.817
 1316POPC   C1B18919  26.497  12.287   8.790
 1316POPC   C2B18920  26.537  12.363   8.351
 1316POPC   C3B18921  26.477  12.062   8.021
 1316POPC   C4B18922  26.423  11.818   7.648
 1317POPC   NC318923  26.547  22.270   9.394
 1317POPC   PO418924  27.170  22.070   9.525
 1317POPC   GL118925  26.959  22.100   9.130
 1317POPC   GL218926  26.968  22.458   9.100
 1317POPC   C1A18927  26.681  22.189   8.754
 1317POPC   D2A18928  26.480  22.073   8.382
 1317POPC   C3A18929  26.655  22.193   7.975
 1317POPC   C4A18930  26.592  22.155   7.535
 1317POPC   C1B18931  27.175  22.355   8.730
 1317POPC   C2B18932  27.052  22.092   8.389
 1317POPC   C3B18933  27.182  22.189   7.998
 1317POPC   C4B18934  27.062  22.315   7.597
 1318POPC   NC318935  30.158  19.462   9.700
 1318POPC   PO418936  29.940  18.851   9.526
 1318POPC   GL118937  29.908  19.058   9.119
 1318POPC   GL218938  29.655  19.305   9.084
 1318POPC   C1A18939  30.063  19.163   8.700
 1318POPC   D2A18940  29.885  19.049   8.298
 1318POPC   C3A18941  30.056  19.013   7.884
 1318POPC   C4A18942  29.967  18.937   7.457
 1318POPC   C1B18943  29.741  19.560   8.683
 1318POPC   C2B18944  29.736  19.546   8.208
 1318POPC   C3B18945  29.583  19.264   7.818
 1318POPC   C4B18946  29.214  19.313   7.490
 1319POPC   NC318947  30.883  35.798   9.417
 1319POPC   PO418948  30.584  36.405   9.509
 1319POPC   GL118949  30.597  36.109   9.161
 1319POPC   GL218950  30.957  36.138   9.033
 1319POPC   C1A18951  30.533  36.038   8.755
 1319POPC   D2A18952  30.645  36.358   8.528
 1319POPC   C3A18953  30.719  36.265   8.102
 1319POPC   C4A18954  30.673  36.459   7.719
 1319POPC   C1B18955  30.960  35.743   8.777
 1319POPC   C2B18956  30.892  35.840   8.359
 1319POPC   C3B18957  31.187  35.912   8.036
 1319POPC   C4B18958  31.236  35.648   7.657
 1320POPC   NC318959  28.767   2.643   9.421
 1320POPC   PO418960  29.456   2.802   9.431
 1320POPC   GL118961  29.173   2.781   9.101
 1320POPC   GL218962  29.017   3.077   9.234
 1320POPC   C1A18963  29.267   2.606   8.689
 1320POPC   D2A18964  29.134   2.538   8.265
 1320POPC   C3A18965  29.306   2.673   7.894
 1320POPC   C4A18966  29.063   2.392   7.678
 1320POPC   C1B18967  28.948   3.220   8.822
 1320POPC   C2B18968  29.056   3.020   8.443
 1320POPC   C3B18969  28.870   2.957   8.065
 1320POPC   C4B18970  28.924   2.887   7.640
 1321POPC   NC318971   4.611  42.551   9.566
 1321POPC   PO418972   3.995  42.881   9.492
 1321POPC   GL118973   4.102  43.038   9.112
 1321POPC   GL218974   4.463  43.035   9.105
 1321POPC   C1A18975   4.114  43.210   8.708
 1321POPC   D2A18976   4.428  43.240   8.431
 1321POPC   C3A18977   4.312  43.275   8.047
 1321POPC   C4A18978   4.038  43.018   7.877
 1321POPC   C1B18979   4.723  42.886   8.747
 1321POPC   C2B18980   4.900  43.046   8.336
 1321POPC   C3B18981   4.679  42.925   7.943
 1321POPC   C4B18982   4.650  42.895   7.473
 1322POPC   NC318983   1.610  22.148   9.438
 1322POPC   PO418984   2.217  21.945   9.497
 1322POPC   GL118985   2.027  22.113   9.129
 1322POPC   GL218986   1.951  22.464   9.158
 1322POPC   C1A18987   1.772  22.147   8.748
 1322POPC   D2A18988   1.698  22.365   8.360
 1322POPC   C3A18989   1.720  22.180   7.947
 1322POPC   C4A18990   1.923  22.000   7.590
 1322POPC   C1B18991   2.214  22.441   8.769
 1322POPC   C2B18992   2.207  22.207   8.363
 1322POPC   C3B18993   2.231  22.317   7.907
 1322POPC   C4B18994   2.172  22.545   7.514
 1323POPC   NC318995  21.662   7.862   9.259
 1323POPC   PO418996  21.666   7.153   9.449
 1323POPC   GL118997  21.430   7.266   9.103
 1323POPC   GL218998  21.175   7.568   9.118
 1323POPC   C1A18999  21.238   7.191   8.725
 1323POPC   D2A19000  21.265   7.429   8.370
 1323POPC   C3A19001  21.468   7.188   8.060
 1323POPC   C4A19002  21.139   7.232   7.833
 1323POPC   C1B19003  21.190   7.853   8.740
 1323POPC   C2B19004  21.316   7.947   8.315
 1323POPC   C3B19005  21.519   7.691   7.984
 1323POPC   C4B19006  21.324   7.657   7.592
 1324POPC   NC319007  22.700   2.591   9.453
 1324POPC   PO419008  23.085   3.182   9.602
 1324POPC   GL119009  22.982   2.962   9.219
 1324POPC   GL219010  23.231   2.697   9.254
 1324POPC   C1A19011  22.790   2.795   8.783
 1324POPC   D2A19012  22.692   2.573   8.371
 1324POPC   C3A19013  22.703   2.834   7.979
 1324POPC   C4A19014  22.492   2.726   7.588
 1324POPC   C1B19015  23.312   2.886   8.836
 1324POPC   C2B19016  23.214   3.046   8.451
 1324POPC   C3B19017  23.208   2.932   8.038
 1324POPC   C4B19018  23.199   2.600   7.735
 1325POPC   NC319019   2.294   2.762   9.354
 1325POPC   PO419020   1.695   2.844   9.392
 1325POPC   GL119021   1.862   2.658   9.039
 1325POPC   GL219022   2.072   2.325   9.141
 1325POPC   C1A19023   1.916   2.869   8.632
 1325POPC   D2A19024   2.016   3.129   8.287
 1325POPC   C3A19025   1.762   3.139   7.946
 1325POPC   C4A19026   1.566   2.810   7.712
 1325POPC   C1B19027   2.274   2.503   8.766
 1325POPC   C2B19028   2.284   2.675   8.337
 1325POPC   C3B19029   2.028   2.668   7.985
 1325POPC   C4B19030   1.996   2.446   7.618
 1326POPC   NC319031  10.825   6.791   9.474
 1326POPC   PO419032  10.270   6.364   9.317
 1326POPC   GL119033  10.562   6.569   9.029
 1326POPC   GL219034  10.829   6.820   8.982
 1326POPC   C1A19035  10.495   6.710   8.599
 1326POPC   D2A19036  10.316   6.735   8.211
 1326POPC   C3A19037  10.416   6.625   7.814
 1326POPC   C4A19038  10.198   6.254   7.736
 1326POPC   C1B19039  10.970   6.583   8.647
 1326POPC   C2B19040  10.862   6.691   8.205
 1326POPC   C3B19041  10.891   6.793   7.760
 1326POPC   C4B19042  10.922   6.707   7.316
 1327POPC   NC319043  21.898  41.349   9.503
 1327POPC   PO419044  22.387  41.632   9.702
 1327POPC   GL119045  22.322  41.430   9.243
 1327POPC   GL219046  22.562  41.206   9.083
 1327POPC   C1A19047  22.132  41.305   8.827
 1327POPC   D2A19048  21.886  41.199   8.458
 1327POPC   C3A19049  21.947  41.503   8.152
 1327POPC   C4A19050  22.005  41.528   7.719
 1327POPC   C1B19051  22.678  41.399   8.695
 1327POPC   C2B19052  22.499  41.487   8.267
 1327POPC   C3B19053  22.330  41.214   7.977
 1327POPC   C4B19054  22.358  41.136   7.603
 1328POPC   NC319055  29.040  14.779   9.626
 1328POPC   PO419056  29.106  15.453   9.669
 1328POPC   GL119057  29.091  15.213   9.264
 1328POPC   GL219058  29.311  14.925   9.222
 1328POPC   C1A19059  29.098  15.270   8.822
 1328POPC   D2A19060  29.241  15.417   8.412
 1328POPC   C3A19061  29.134  15.213   8.056
 1328POPC   C4A19062  29.102  15.374   7.676
 1328POPC   C1B19063  29.440  14.860   8.811
 1328POPC   C2B19064  29.500  14.975   8.398
 1328POPC   C3B19065  29.430  14.780   8.001
 1328POPC   C4B19066  29.154  14.868   7.658
 1329POPC   NC319067  16.774  11.376   9.557
 1329POPC   PO419068  16.811  10.671   9.540
 1329POPC   GL119069  16.864  10.998   9.198
 1329POPC   GL219070  16.602  11.270   9.083
 1329POPC   C1A19071  16.937  11.048   8.752
 1329POPC   D2A19072  16.568  11.035   8.466
 1329POPC   C3A19073  16.667  11.225   8.077
 1329POPC   C4A19074  16.550  11.480   7.742
 1329POPC   C1B19075  16.922  11.546   8.865
 1329POPC   C2B19076  17.031  11.555   8.433
 1329POPC   C3B19077  17.001  11.745   8.060
 1329POPC   C4B19078  17.052  11.437   7.775
 1330POPC   NC319079  38.000  31.417   9.579
 1330POPC   PO419080  38.524  31.853   9.503
 1330POPC   GL119081  38.520  31.514   9.188
 1330POPC   GL219082  38.843  31.559   9.101
 1330POPC   C1A19083  38.540  31.374   8.717
 1330POPC   D2A19084  38.347  31.500   8.295
 1330POPC   C3A19085  38.391  31.441   7.834
 1330POPC   C4A19086  38.189  31.174   7.566
 1330POPC   C1B19087  38.967  31.734   8.748
 1330POPC   C2B19088  38.828  31.677   8.363
 1330POPC   C3B19089  38.861  31.558   7.949
 1330POPC   C4B19090  38.797  31.544   7.510
 1331POPC   NC319091  39.754   9.863   9.339
 1331POPC   PO419092  40.322   9.433   9.512
 1331POPC   GL119093  40.224   9.731   9.213
 1331POPC   GL219094  40.095   9.470   9.025
 1331POPC   C1A19095  40.370   9.921   8.831
 1331POPC   D2A19096  40.291   9.908   8.377
 1331POPC   C3A19097  40.171   9.540   8.162
 1331POPC   C4A19098  40.085   9.487   7.736
 1331POPC   C1B19099  39.949   9.662   8.666
 1331POPC   C2B19100  39.688   9.557   8.341
 1331POPC   C3B19101  39.671   9.738   7.948
 1331POPC   C4B19102  39.605   9.586   7.538
 1332POPC   NC319103  24.688  25.962   9.793
 1332POPC   PO419104  25.307  26.105   9.588
 1332POPC   GL119105  25.332  26.102   9.140
 1332POPC   GL219106  25.540  25.841   9.085
 1332POPC   C1A19107  25.169  25.893   8.729
 1332POPC   D2A19108  25.112  25.640   8.326
 1332POPC   C3A19109  25.032  25.880   7.951
 1332POPC   C4A19110  25.240  26.269   7.758
 1332POPC   C1B19111  25.634  25.693   8.698
 1332POPC   C2B19112  25.533  25.932   8.316
 1332POPC   C3B19113  25.540  25.862   7.897
 1332POPC   C4B19114  25.787  25.570   7.780
 1333POPC   NC319115  10.908   9.741   9.415
 1333POPC   PO419116  10.299   9.968   9.562
 1333POPC   GL119117  10.465   9.907   9.132
 1333POPC   GL219118  10.277   9.669   8.911
 1333POPC   C1A19119  10.651  10.001   8.730
 1333POPC   D2A19120  10.481  10.317   8.430
 1333POPC   C3A19121  10.358  10.098   8.049
 1333POPC   C4A19122  10.513   9.887   7.682
 1333POPC   C1B19123  10.584   9.477   8.667
 1333POPC   C2B19124  10.483   9.347   8.271
 1333POPC   C3B19125  10.673   9.425   7.898
 1333POPC   C4B19126  11.087   9.445   7.701
 1334POPC   NC319127   2.438   3.498   9.821
 1334POPC   PO419128   1.887   3.613   9.476
 1334POPC   GL119129   2.009   3.323   9.149
 1334POPC   GL219130   1.722   3.178   8.990
 1334POPC   C1A19131   2.187   3.335   8.727
 1334POPC   D2A19132   2.373   3.592   8.383
 1334POPC   C3A19133   2.177   3.566   7.988
 1334POPC   C4A19134   2.175   3.426   7.577
 1334POPC   C1B19135   1.684   3.560   8.762
 1334POPC   C2B19136   1.784   3.570   8.339
 1334POPC   C3B19137   1.654   3.644   7.925
 1334POPC   C4B19138   1.691   3.473   7.507
 1335POPC   NC319139   3.087   2.918   9.865
 1335POPC   PO419140   2.627   2.491   9.528
 1335POPC   GL119141   2.726   2.559   9.113
 1335POPC   GL219142   2.797   2.909   9.138
 1335POPC   C1A19143   2.975   2.608   8.735
 1335POPC   D2A19144   2.975   2.883   8.395
 1335POPC   C3A19145   2.791   2.775   8.015
 1335POPC   C4A19146   2.846   3.000   7.639
 1335POPC   C1B19147   2.558   2.916   8.740
 1335POPC   C2B19148   2.518   3.117   8.347
 1335POPC   C3B19149   2.365   3.050   7.919
 1335POPC   C4B19150   2.426   2.710   7.630
 1336POPC   NC319151  43.090  42.023   9.528
 1336POPC   PO419152  42.866  41.257   9.446
 1336POPC   GL119153  43.091  41.516   9.194
 1336POPC   GL219154  42.841  41.642   8.980
 1336POPC   C1A19155  43.262  41.421   8.775
 1336POPC   D2A19156  43.351  41.548   8.348
 1336POPC   C3A19157  43.285  41.290   7.964
 1336POPC   C4A19158  43.537  41.424   7.574
 1336POPC   C1B19159  42.731  41.463   8.595
 1336POPC   C2B19160  42.869  41.671   8.248
 1336POPC   C3B19161  42.871  41.923   7.923
 1336POPC   C4B19162  43.218  41.753   7.777
 1337POPC   NC319163  12.371  12.359   9.401
 1337POPC   PO419164  12.087  11.740   9.556
 1337POPC   GL119165  12.022  12.060   9.196
 1337POPC   GL219166  11.767  11.959   9.017
 1337POPC   C1A19167  11.993  12.294   8.735
 1337POPC   D2A19168  12.018  12.098   8.289
 1337POPC   C3A19169  11.990  12.287   7.863
 1337POPC   C4A19170  11.713  12.457   7.513
 1337POPC   C1B19171  12.187  11.835   8.785
 1337POPC   C2B19172  12.434  11.840   8.455
 1337POPC   C3B19173  12.452  11.655   8.066
 1337POPC   C4B19174  12.207  11.800   7.771
 1338POPC   NC319175  18.983  34.275   9.665
 1338POPC   PO419176  18.943  33.650   9.535
 1338POPC   GL119177  18.943  33.727   9.099
 1338POPC   GL219178  19.286  33.631   9.004
 1338POPC   C1A19179  19.030  33.955   8.695
 1338POPC   D2A19180  19.238  34.018   8.303
 1338POPC   C3A19181  18.955  33.995   7.940
 1338POPC   C4A19182  18.663  33.668   7.787
 1338POPC   C1B19183  19.093  33.438   8.667
 1338POPC   C2B19184  18.940  33.594   8.265
 1338POPC   C3B19185  19.127  33.510   7.861
 1338POPC   C4B19186  19.339  33.339   7.524
 1339POPC   NC319187   1.103  31.720   9.414
 1339POPC   PO419188   1.714  31.564   9.514
 1339POPC   GL119189   1.458  31.538   9.109
 1339POPC   GL219190   1.212  31.298   9.126
 1339POPC   C1A19191   1.473  31.438   8.674
 1339POPC   D2A19192   1.208  31.629   8.335
 1339POPC   C3A19193   1.400  31.640   7.924
 1339POPC   C4A19194   1.542  31.211   7.849
 1339POPC   C1B19195   0.990  31.329   8.715
 1339POPC   C2B19196   0.988  31.135   8.330
 1339POPC   C3B19197   0.991  31.324   7.947
 1339POPC   C4B19198   0.932  31.708   7.674
 1340POPC   NC319199  23.576  29.380   9.559
 1340POPC   PO419200  23.562  30.030   9.380
 1340POPC   GL119201  23.637  29.784   9.046
 1340POPC   GL219202  23.951  29.592   9.074
 1340POPC   C1A19203  23.676  29.915   8.630
 1340POPC   D2A19204  23.820  30.149   8.302
 1340POPC   C3A19205  23.636  30.091   7.904
 1340POPC   C4A19206  23.906  30.143   7.566
 1340POPC   C1B19207  23.803  29.432   8.694
 1340POPC   C2B19208  23.674  29.461   8.277
 1340POPC   C3B19209  23.643  29.590   7.837
 1340POPC   C4B19210  23.794  29.515   7.394
 1341POPC   NC319211  22.016   9.255   9.388
 1341POPC   PO419212  22.414   8.813   9.750
 1341POPC   GL119213  22.444   8.909   9.306
 1341POPC   GL219214  22.140   8.807   9.198
 1341POPC   C1A19215  22.423   9.091   8.851
 1341POPC   D2A19216  22.243   9.185   8.439
 1341POPC   C3A19217  22.440   9.154   8.039
 1341POPC   C4A19218  22.407   8.795   7.772
 1341POPC   C1B19219  21.907   8.996   8.816
 1341POPC   C2B19220  21.846   8.830   8.427
 1341POPC   C3B19221  21.967   8.947   8.019
 1341POPC   C4B19222  21.940   9.022   7.587
 1342POPC   NC319223  20.197  31.386   9.623
 1342POPC   PO419224  20.816  31.071   9.511
 1342POPC   GL119225  20.678  31.294   9.104
 1342POPC   GL219226  20.344  31.404   9.141
 1342POPC   C1A19227  20.809  31.514   8.756
 1342POPC   D2A19228  20.833  31.417   8.322
 1342POPC   C3A19229  20.580  31.674   8.029
 1342POPC   C4A19230  20.725  31.619   7.599
 1342POPC   C1B19231  20.286  31.277   8.729
 1342POPC   C2B19232  20.327  31.274   8.281
 1342POPC   C3B19233  20.564  31.187   7.922
 1342POPC   C4B19234  20.435  31.197   7.498
 1343POPC   NC319235  26.331  27.996   9.528
 1343POPC   PO419236  25.991  27.466   9.614
 1343POPC   GL119237  26.065  27.325   9.197
 1343POPC   GL219238  26.417  27.391   9.146
 1343POPC   C1A19239  26.061  27.476   8.763
 1343POPC   D2A19240  25.749  27.671   8.475
 1343POPC   C3A19241  25.843  27.876   8.096
 1343POPC   C4A19242  25.854  27.653   7.698
 1343POPC   C1B19243  26.508  27.731   8.813
 1343POPC   C2B19244  26.275  27.844   8.431
 1343POPC   C3B19245  26.244  27.588   8.051
 1343POPC   C4B19246  26.424  27.673   7.661
 1344POPC   NC319247   0.352   6.977   9.491
 1344POPC   PO419248   0.570   6.323   9.413
 1344POPC   GL119249   0.493   6.514   9.026
 1344POPC   GL219250   0.285   6.731   9.065
 1344POPC   C1A19251   0.621   6.761   8.639
 1344POPC   D2A19252   0.695   6.786   8.172
 1344POPC   C3A19253   0.456   6.585   7.875
 1344POPC   C4A19254   0.669   6.475   7.504
 1344POPC   C1B19255   0.123   6.895   8.697
 1344POPC   C2B19256   0.256   6.989   8.298
 1344POPC   C3B19257   0.060   6.907   7.905
 1344POPC   C4B19258   0.012   6.663   7.509
 1345POPC   NC319259  41.853  35.194   9.542
 1345POPC   PO419260  41.374  35.645   9.585
 1345POPC   GL119261  41.465  35.464   9.196
 1345POPC   GL219262  41.174  35.557   9.010
 1345POPC   C1A19263  41.603  35.368   8.768
 1345POPC   D2A19264  41.537  35.557   8.351
 1345POPC   C3A19265  41.623  35.313   7.989
 1345POPC   C4A19266  41.732  35.582   7.648
 1345POPC   C1B19267  41.113  35.385   8.626
 1345POPC   C2B19268  41.118  35.287   8.212
 1345POPC   C3B19269  41.146  35.421   7.822
 1345POPC   C4B19270  41.176  35.221   7.455
 1346POPC   NC319271  39.263  20.741   9.550
 1346POPC   PO419272  38.977  20.107   9.606
 1346POPC   GL119273  39.022  20.440   9.237
 1346POPC   GL219274  39.374  20.527   9.124
 1346POPC   C1A19275  38.962  20.617   8.815
 1346POPC   D2A19276  39.077  20.909   8.469
 1346POPC   C3A19277  39.062  20.741   8.050
 1346POPC   C4A19278  39.138  20.891   7.633
 1346POPC   C1B19279  39.466  20.655   8.728
 1346POPC   C2B19280  39.543  20.715   8.313
 1346POPC   C3B19281  39.521  20.632   7.870
 1346POPC   C4B19282  39.267  20.405   7.570
 1347POPC   NC319283  23.598  41.363   9.527
 1347POPC   PO419284  24.193  41.718   9.674
 1347POPC   GL119285  23.994  41.530   9.261
 1347POPC   GL219286  23.654  41.606   9.083
 1347POPC   C1A19287  24.098  41.542   8.823
 1347POPC   D2A19288  23.885  41.725   8.469
 1347POPC   C3A19289  23.918  41.504   8.093
 1347POPC   C4A19290  24.083  41.668   7.705
 1347POPC   C1B19291  23.515  41.922   8.783
 1347POPC   C2B19292  23.348  41.990   8.367
 1347POPC   C3B19293  23.555  41.865   7.996
 1347POPC   C4B19294  23.578  41.549   7.653
 1348POPC   NC319295  24.896  41.945   9.607
 1348POPC   PO419296  24.566  42.541   9.628
 1348POPC   GL119297  24.593  42.322   9.274
 1348POPC   GL219298  24.247  42.403   9.164
 1348POPC   C1A19299  24.657  42.369   8.836
 1348POPC   D2A19300  24.732  42.175   8.469
 1348POPC   C3A19301  24.782  42.418   8.165
 1348POPC   C4A19302  24.633  42.254   7.830
 1348POPC   C1B19303  24.186  42.561   8.783
 1348POPC   C2B19304  24.364  42.568   8.413
 1348POPC   C3B19305  24.240  42.510   8.007
 1348POPC   C4B19306  24.360  42.643   7.589
 1349POPC   NC319307  30.135   5.493   9.544
 1349POPC   PO419308  29.615   5.129   9.296
 1349POPC   GL119309  29.902   4.937   9.082
 1349POPC   GL219310  30.181   5.146   9.150
 1349POPC   C1A19311  29.984   4.878   8.669
 1349POPC   D2A19312  29.728   4.982   8.329
 1349POPC   C3A19313  29.922   4.853   7.955
 1349POPC   C4A19314  29.677   4.949   7.620
 1349POPC   C1B19315  30.122   5.356   8.742
 1349POPC   C2B19316  30.172   5.223   8.293
 1349POPC   C3B19317  29.962   5.358   7.907
 1349POPC   C4B19318  30.116   5.631   7.595
 1350POPC   NC319319  25.562  14.660   9.448
 1350POPC   PO419320  26.216  14.410   9.444
 1350POPC   GL119321  25.919  14.355   9.124
 1350POPC   GL219322  25.919  14.717   9.081
 1350POPC   C1A19323  25.869  14.095   8.743
 1350POPC   D2A19324  25.708  14.160   8.321
 1350POPC   C3A19325  25.910  14.152   7.911
 1350POPC   C4A19326  25.787  14.278   7.486
 1350POPC   C1B19327  25.923  14.613   8.641
 1350POPC   C2B19328  25.826  14.650   8.189
 1350POPC   C3B19329  26.025  14.640   7.797
 1350POPC   C4B19330  26.366  14.784   7.524
 1351POPC   NC319331   7.154  40.873   9.797
 1351POPC   PO419332   7.380  41.461   9.430
 1351POPC   GL119333   7.529  41.495   9.035
 1351POPC   GL219334   7.807  41.261   8.949
 1351POPC   C1A19335   7.375  41.719   8.675
 1351POPC   D2A19336   7.014  41.779   8.360
 1351POPC   C3A19337   7.203  41.726   7.934
 1351POPC   C4A19338   7.419  41.932   7.595
 1351POPC   C1B19339   7.447  41.186   8.664
 1351POPC   C2B19340   7.264  41.351   8.310
 1351POPC   C3B19341   7.217  41.177   7.932
 1351POPC   C4B19342   7.566  41.032   7.738
 1352POPC   NC319343  31.783  38.619   9.503
 1352POPC   PO419344  32.404  38.261   9.488
 1352POPC   GL119345  32.282  38.381   9.116
 1352POPC   GL219346  32.182  38.719   9.185
 1352POPC   C1A19347  32.411  38.340   8.706
 1352POPC   D2A19348  32.510  38.589   8.424
 1352POPC   C3A19349  32.602  38.359   8.087
 1352POPC   C4A19350  32.350  38.298   7.741
 1352POPC   C1B19351  32.035  38.694   8.773
 1352POPC   C2B19352  32.101  38.905   8.404
 1352POPC   C3B19353  32.128  38.678   8.052
 1352POPC   C4B19354  32.160  38.758   7.661
 1353POPC   NC319355  11.252  41.831   9.494
 1353POPC   PO419356  11.143  42.536   9.385
 1353POPC   GL119357  11.358  42.247   9.121
 1353POPC   GL219358  11.735  42.229   9.090
 1353POPC   C1A19359  11.198  42.283   8.714
 1353POPC   D2A19360  11.041  42.504   8.368
 1353POPC   C3A19361  11.044  42.246   8.016
 1353POPC   C4A19362  10.903  42.176   7.597
 1353POPC   C1B19363  11.704  42.401   8.675
 1353POPC   C2B19364  11.523  42.302   8.282
 1353POPC   C3B19365  11.494  42.463   7.884
 1353POPC   C4B19366  11.779  42.301   7.624
 1354POPC   NC319367  30.231  36.722   9.485
 1354POPC   PO419368  29.842  37.313   9.610
 1354POPC   GL119369  29.896  37.136   9.196
 1354POPC   GL219370  29.989  36.787   9.056
 1354POPC   C1A19371  30.049  37.225   8.783
 1354POPC   D2A19372  30.264  37.239   8.393
 1354POPC   C3A19373  30.013  37.070   8.077
 1354POPC   C4A19374  29.767  37.233   7.764
 1354POPC   C1B19375  29.881  36.776   8.620
 1354POPC   C2B19376  29.784  36.520   8.342
 1354POPC   C3B19377  29.794  36.623   7.964
 1354POPC   C4B19378  29.991  36.784   7.605
 1355POPC   NC319379  37.030   3.359   9.508
 1355POPC   PO419380  36.561   3.792   9.611
 1355POPC   GL119381  36.731   3.650   9.202
 1355POPC   GL219382  36.692   3.273   9.106
 1355POPC   C1A19383  36.874   3.784   8.802
 1355POPC   D2A19384  37.002   3.682   8.362
 1355POPC   C3A19385  36.995   3.637   7.906
 1355POPC   C4A19386  36.822   3.674   7.439
 1355POPC   C1B19387  36.781   3.296   8.639
 1355POPC   C2B19388  37.005   3.189   8.212
 1355POPC   C3B19389  36.973   3.194   7.711
 1355POPC   C4B19390  36.992   3.196   7.251
 1356POPC   NC319391  32.437   9.012   9.650
 1356POPC   PO419392  31.878   9.267   9.408
 1356POPC   GL119393  32.034   8.997   9.102
 1356POPC   GL219394  32.385   8.920   9.139
 1356POPC   C1A19395  32.101   9.039   8.667
 1356POPC   D2A19396  32.288   9.284   8.370
 1356POPC   C3A19397  32.283   9.031   8.023
 1356POPC   C4A19398  32.130   8.848   7.681
 1356POPC   C1B19399  32.459   8.637   8.791
 1356POPC   C2B19400  32.307   8.594   8.384
 1356POPC   C3B19401  32.493   8.563   7.984
 1356POPC   C4B19402  32.609   8.705   7.580
 1357POPC   NC319403   6.974   9.615   9.652
 1357POPC   PO419404   6.381   9.957   9.457
 1357POPC   GL119405   6.549   9.879   9.042
 1357POPC   GL219406   6.580   9.545   9.040
 1357POPC   C1A19407   6.397   9.850   8.618
 1357POPC   D2A19408   6.507  10.124   8.292
 1357POPC   C3A19409   6.413  10.044   7.922
 1357POPC   C4A19410   6.652   9.736   7.740
 1357POPC   C1B19411   6.821   9.566   8.631
 1357POPC   C2B19412   6.852   9.613   8.197
 1357POPC   C3B19413   7.138   9.637   7.832
 1357POPC   C4B19414   7.064   9.897   7.462
 1358POPC   NC319415   7.861  44.002   9.712
 1358POPC   PO419416   7.379  44.222   9.275
 1358POPC   GL119417   7.469  43.812   9.087
 1358POPC   GL219418   7.176  43.578   9.039
 1358POPC   C1A19419   7.689  43.834   8.711
 1358POPC   D2A19420   7.745  44.141   8.443
 1358POPC   C3A19421   7.869  43.979   8.069
 1358POPC   C4A19422   7.775  44.022   7.680
 1358POPC   C1B19423   7.258  43.628   8.587
 1358POPC   C2B19424   7.357  43.853   8.191
 1358POPC   C3B19425   7.194  44.101   7.848
 1358POPC   C4B19426   7.063  44.117   7.409
 1359POPC   NC319427  25.078   8.248   9.512
 1359POPC   PO419428  25.743   8.107   9.371
 1359POPC   GL119429  25.377   8.180   9.087
 1359POPC   GL219430  24.999   8.086   9.034
 1359POPC   C1A19431  25.382   8.187   8.664
 1359POPC   D2A19432  25.641   8.143   8.325
 1359POPC   C3A19433  25.363   8.107   7.999
 1359POPC   C4A19434  25.521   8.057   7.620
 1359POPC   C1B19435  24.876   8.290   8.652
 1359POPC   C2B19436  24.946   8.293   8.235
 1359POPC   C3B19437  24.840   8.063   7.900
 1359POPC   C4B19438  25.040   8.291   7.617
 1360POPC   NC319439  31.664  32.736   9.432
 1360POPC   PO419440  31.622  33.452   9.378
 1360POPC   GL119441  31.395  33.125   9.151
 1360POPC   GL219442  31.028  33.047   9.272
 1360POPC   C1A19443  31.595  32.912   8.781
 1360POPC   D2A19444  31.854  33.036   8.429
 1360POPC   C3A19445  31.568  33.085   8.105
 1360POPC   C4A19446  31.542  32.768   7.808
 1360POPC   C1B19447  31.082  32.786   8.883
 1360POPC   C2B19448  31.143  32.937   8.469
 1360POPC   C3B19449  31.093  32.847   8.046
 1360POPC   C4B19450  31.191  33.104   7.704
 1361POPC   NC319451  29.412  15.604   9.343
 1361POPC   PO419452  29.939  16.003   9.593
 1361POPC   GL119453  29.744  15.955   9.194
 1361POPC   GL219454  29.898  15.621   9.182
 1361POPC   C1A19455  29.738  15.849   8.761
 1361POPC   D2A19456  30.071  15.891   8.449
 1361POPC   C3A19457  29.886  15.908   8.035
 1361POPC   C4A19458  29.741  15.653   7.685
 1361POPC   C1B19459  30.105  15.501   8.808
 1361POPC   C2B19460  30.244  15.382   8.430
 1361POPC   C3B19461  30.113  15.436   8.012
 1361POPC   C4B19462  30.120  15.277   7.596
 1362POPC   NC319463  30.522   2.314   9.380
 1362POPC   PO419464  30.986   2.720   9.607
 1362POPC   GL119465  30.749   2.746   9.159
 1362POPC   GL219466  30.463   2.582   8.959
 1362POPC   C1A19467  30.845   2.913   8.725
 1362POPC   D2A19468  30.952   3.294   8.461
 1362POPC   C3A19469  30.768   3.176   8.062
 1362POPC   C4A19470  30.564   2.866   7.854
 1362POPC   C1B19471  30.748   2.377   8.681
 1362POPC   C2B19472  30.804   2.210   8.296
 1362POPC   C3B19473  30.946   2.504   8.015
 1362POPC   C4B19474  30.806   2.356   7.657
 1363POPC   NC319475  21.290  31.091   9.470
 1363POPC   PO419476  21.674  30.578   9.467
 1363POPC   GL119477  21.669  30.488   9.066
 1363POPC   GL219478  21.376  30.713   9.063
 1363POPC   C1A19479  21.639  30.349   8.671
 1363POPC   D2A19480  21.787  30.558   8.328
 1363POPC   C3A19481  21.486  30.741   8.076
 1363POPC   C4A19482  21.622  30.530   7.690
 1363POPC   C1B19483  21.132  30.598   8.715
 1363POPC   C2B19484  21.027  30.380   8.335
 1363POPC   C3B19485  21.026  30.549   7.926
 1363POPC   C4B19486  21.093  30.603   7.485
 1364POPC   NC319487  42.686   5.222   9.484
 1364POPC   PO419488  43.268   4.894   9.554
 1364POPC   GL119489  43.010   4.895   9.180
 1364POPC   GL219490  42.978   5.240   9.063
 1364POPC   C1A19491  43.225   4.880   8.785
 1364POPC   D2A19492  43.110   5.049   8.395
 1364POPC   C3A19493  43.338   4.867   8.071
 1364POPC   C4A19494  42.979   4.668   7.917
 1364POPC   C1B19495  42.746   5.295   8.672
 1364POPC   C2B19496  42.671   5.278   8.241
 1364POPC   C3B19497  42.911   5.179   7.890
 1364POPC   C4B19498  43.279   5.254   7.743
 1365POPC   NC319499  23.111   6.965   9.555
 1365POPC   PO419500  22.985   7.611   9.456
 1365POPC   GL119501  22.838   7.477   9.113
 1365POPC   GL219502  23.047   7.184   9.091
 1365POPC   C1A19503  22.724   7.752   8.797
 1365POPC   D2A19504  22.819   7.824   8.397
 1365POPC   C3A19505  23.133   7.600   8.155
 1365POPC   C4A19506  23.256   7.694   7.719
 1365POPC   C1B19507  23.042   7.346   8.661
 1365POPC   C2B19508  22.745   7.284   8.332
 1365POPC   C3B19509  22.586   7.234   7.957
 1365POPC   C4B19510  23.008   7.268   7.782
 1366POPC   NC319511  16.991  19.387   9.432
 1366POPC   PO419512  17.013  20.066   9.474
 1366POPC   GL119513  16.886  20.032   9.065
 1366POPC   GL219514  17.072  19.742   9.061
 1366POPC   C1A19515  16.704  19.864   8.680
 1366POPC   D2A19516  16.674  20.108   8.295
 1366POPC   C3A19517  16.515  19.860   7.988
 1366POPC   C4A19518  16.574  19.873   7.552
 1366POPC   C1B19519  17.170  19.661   8.650
 1366POPC   C2B19520  17.029  19.728   8.238
 1366POPC   C3B19521  16.931  19.578   7.855
 1366POPC   C4B19522  16.530  19.393   7.765
 1367POPC   NC319523  42.859  29.317   9.353
 1367POPC   PO419524  43.492  28.915   9.484
 1367POPC   GL119525  43.197  28.982   9.107
 1367POPC   GL219526  43.164  29.296   8.895
 1367POPC   C1A19527  42.972  28.882   8.677
 1367POPC   D2A19528  42.748  28.945   8.259
 1367POPC   C3A19529  43.022  29.006   7.896
 1367POPC   C4A19530  43.199  28.976   7.459
 1367POPC   C1B19531  42.782  29.516   8.731
 1367POPC   C2B19532  42.588  29.487   8.327
 1367POPC   C3B19533  42.709  29.412   7.934
 1367POPC   C4B19534  42.976  29.456   7.575
 1368POPC   NC319535  39.411  29.704   9.750
 1368POPC   PO419536  39.323  29.033   9.505
 1368POPC   GL119537  39.233  29.137   9.108
 1368POPC   GL219538  39.563  29.095   9.029
 1368POPC   C1A19539  39.054  29.287   8.750
 1368POPC   D2A19540  39.034  29.115   8.372
 1368POPC   C3A19541  39.359  29.249   8.122
 1368POPC   C4A19542  39.195  29.327   7.746
 1368POPC   C1B19543  39.496  29.074   8.619
 1368POPC   C2B19544  39.448  28.773   8.314
 1368POPC   C3B19545  39.584  28.828   7.944
 1368POPC   C4B19546  39.676  29.159   7.655
 1369POPC   NC319547  30.652  27.572   9.503
 1369POPC   PO419548  30.466  26.948   9.429
 1369POPC   GL119549  30.417  27.377   9.101
 1369POPC   GL219550  30.568  27.769   9.060
 1369POPC   C1A19551  30.428  27.537   8.641
 1369POPC   D2A19552  30.742  27.552   8.306
 1369POPC   C3A19553  30.583  27.585   7.884
 1369POPC   C4A19554  30.581  27.332   7.509
 1369POPC   C1B19555  30.875  27.978   8.745
 1369POPC   C2B19556  31.070  27.943   8.313
 1369POPC   C3B19557  30.933  27.997   7.880
 1369POPC   C4B19558  30.777  27.834   7.455
 1370POPC   NC319559  12.373  10.568   9.570
 1370POPC   PO419560  11.700  10.603   9.597
 1370POPC   GL119561  11.972  10.530   9.212
 1370POPC   GL219562  12.277  10.314   9.139
 1370POPC   C1A19563  11.880  10.616   8.781
 1370POPC   D2A19564  12.058  10.526   8.380
 1370POPC   C3A19565  12.058  10.775   8.037
 1370POPC   C4A19566  11.667  10.791   7.945
 1370POPC   C1B19567  12.290  10.124   8.733
 1370POPC   C2B19568  12.423  10.190   8.320
 1370POPC   C3B19569  12.227  10.295   7.940
 1370POPC   C4B19570  12.374  10.209   7.553
 1371POPC   NC319571  36.613  43.944   9.476
 1371POPC   PO419572  36.040  43.741   9.517
 1371POPC   GL119573  36.267  43.785   9.140
 1371POPC   GL219574  36.459  43.493   9.158
 1371POPC   C1A19575  36.472  43.891   8.758
 1371POPC   D2A19576  36.340  43.841   8.367
 1371POPC   C3A19577  36.213  44.183   8.147
 1371POPC   C4A19578  36.122  44.025   7.783
 1371POPC   C1B19579  36.655  43.418   8.769
 1371POPC   C2B19580  36.787  43.604   8.396
 1371POPC   C3B19581  36.604  43.569   7.985
 1371POPC   C4B19582  36.326  43.599   7.610
 1372POPC   NC319583  16.236  28.669   9.574
 1372POPC   PO419584  16.883  28.393   9.507
 1372POPC   GL119585  16.898  28.212   9.113
 1372POPC   GL219586  16.542  28.160   9.115
 1372POPC   C1A19587  16.896  28.332   8.696
 1372POPC   D2A19588  16.729  28.379   8.293
 1372POPC   C3A19589  16.977  28.611   7.980
 1372POPC   C4A19590  17.094  28.651   7.496
 1372POPC   C1B19591  16.370  28.362   8.747
 1372POPC   C2B19592  16.297  28.675   8.439
 1372POPC   C3B19593  16.476  28.740   8.025
 1372POPC   C4B19594  16.383  28.531   7.636
 1373POPC   NC319595  20.917  32.767   9.586
 1373POPC   PO419596  21.416  33.150   9.677
 1373POPC   GL119597  21.250  33.025   9.241
 1373POPC   GL219598  21.566  33.035   9.070
 1373POPC   C1A19599  21.159  32.796   8.808
 1373POPC   D2A19600  20.931  32.833   8.431
 1373POPC   C3A19601  21.112  32.777   8.012
 1373POPC   C4A19602  21.391  32.887   7.702
 1373POPC   C1B19603  21.297  33.275   8.771
 1373POPC   C2B19604  21.258  33.205   8.324
 1373POPC   C3B19605  21.376  33.351   7.916
 1373POPC   C4B19606  21.765  33.226   7.679
 1374POPC   NC319607   1.001  27.266   9.937
 1374POPC   PO419608   1.071  27.754   9.470
 1374POPC   GL119609   1.205  27.660   9.083
 1374POPC   GL219610   1.454  27.874   9.103
 1374POPC   C1A19611   1.081  27.566   8.666
 1374POPC   D2A19612   0.701  27.561   8.357
 1374POPC   C3A19613   0.741  27.423   7.908
 1374POPC   C4A19614   1.006  27.542   7.540
 1374POPC   C1B19615   1.616  27.665   8.727
 1374POPC   C2B19616   1.501  27.501   8.343
 1374POPC   C3B19617   1.272  27.545   7.979
 1374POPC   C4B19618   1.512  27.554   7.611
 1375POPC   NC319619  25.568   3.625   9.609
 1375POPC   PO419620  24.919   3.552   9.639
 1375POPC   GL119621  25.208   3.532   9.247
 1375POPC   GL219622  25.374   3.874   9.213
 1375POPC   C1A19623  25.332   3.412   8.803
 1375POPC   D2A19624  25.509   3.348   8.354
 1375POPC   C3A19625  25.265   3.338   8.034
 1375POPC   C4A19626  25.213   3.277   7.644
 1375POPC   C1B19627  25.476   3.885   8.799
 1375POPC   C2B19628  25.296   3.786   8.425
 1375POPC   C3B19629  25.460   3.798   8.063
 1375POPC   C4B19630  25.341   3.829   7.671
 1376POPC   NC319631  33.994   8.763   9.607
 1376POPC   PO419632  33.565   9.228   9.436
 1376POPC   GL119633  33.742   8.962   9.106
 1376POPC   GL219634  33.963   8.669   9.121
 1376POPC   C1A19635  33.597   8.784   8.736
 1376POPC   D2A19636  33.494   8.712   8.318
 1376POPC   C3A19637  33.604   9.069   8.031
 1376POPC   C4A19638  33.876   9.017   7.668
 1376POPC   C1B19639  34.106   8.809   8.734
 1376POPC   C2B19640  33.986   8.881   8.321
 1376POPC   C3B19641  34.069   8.651   7.954
 1376POPC   C4B19642  33.963   8.527   7.500
 1377POPC   NC319643  34.168  31.162   9.446
 1377POPC   PO419644  33.664  31.505   9.602
 1377POPC   GL119645  33.757  31.590   9.191
 1377POPC   GL219646  33.742  31.235   9.132
 1377POPC   C1A19647  34.071  31.724   8.861
 1377POPC   D2A19648  34.175  31.794   8.385
 1377POPC   C3A19649  33.929  31.572   8.066
 1377POPC   C4A19650  33.766  31.445   7.678
 1377POPC   C1B19651  33.703  31.380   8.729
 1377POPC   C2B19652  33.715  31.196   8.346
 1377POPC   C3B19653  33.408  31.221   8.059
 1377POPC   C4B19654  33.327  31.173   7.627
 1378POPC   NC319655  21.100  34.672   9.538
 1378POPC   PO419656  20.433  34.525   9.426
 1378POPC   GL119657  20.603  34.497   9.050
 1378POPC   GL219658  20.942  34.514   9.096
 1378POPC   C1A19659  20.691  34.574   8.665
 1378POPC   D2A19660  20.493  34.449   8.326
 1378POPC   C3A19661  20.613  34.684   8.001
 1378POPC   C4A19662  20.511  34.605   7.591
 1378POPC   C1B19663  21.125  34.826   8.799
 1378POPC   C2B19664  21.253  34.991   8.412
 1378POPC   C3B19665  21.077  34.965   8.017
 1378POPC   C4B19666  21.000  34.728   7.653
 1379POPC   NC319667  14.570  35.472   9.480
 1379POPC   PO419668  13.869  35.485   9.529
 1379POPC   GL119669  14.133  35.496   9.190
 1379POPC   GL219670  14.183  35.857   9.234
 1379POPC   C1A19671  14.318  35.344   8.785
 1379POPC   D2A19672  14.540  35.320   8.394
 1379POPC   C3A19673  14.289  35.277   8.054
 1379POPC   C4A19674  14.245  35.099   7.689
 1379POPC   C1B19675  14.038  35.801   8.810
 1379POPC   C2B19676  14.080  35.618   8.402
 1379POPC   C3B19677  13.969  35.698   7.986
 1379POPC   C4B19678  14.188  35.632   7.618
 1380POPC   NC319679  10.345   5.455   9.650
 1380POPC   PO419680  10.886   5.576   9.338
 1380POPC   GL119681  10.535   5.263   9.208
 1380POPC   GL219682  10.627   4.964   9.022
 1380POPC   C1A19683  10.278   5.265   8.815
 1380POPC   D2A19684  10.289   5.089   8.392
 1380POPC   C3A19685  10.340   5.339   8.016
 1380POPC   C4A19686  10.426   5.115   7.649
 1380POPC   C1B19687  10.817   5.255   8.756
 1380POPC   C2B19688  10.746   5.334   8.352
 1380POPC   C3B19689  10.844   5.168   7.980
 1380POPC   C4B19690  10.797   5.466   7.667
 1381POPC   NC319691  17.923  30.327   9.769
 1381POPC   PO419692  17.356  30.526   9.537
 1381POPC   GL119693  17.315  30.730   9.137
 1381POPC   GL219694  17.470  30.426   9.042
 1381POPC   C1A19695  17.508  30.812   8.716
 1381POPC   D2A19696  17.723  30.704   8.320
 1381POPC   C3A19697  17.514  30.968   7.997
 1381POPC   C4A19698  17.509  30.977   7.541
 1381POPC   C1B19699  17.597  30.308   8.655
 1381POPC   C2B19700  17.526  30.144   8.253
 1381POPC   C3B19701  17.781  30.180   7.915
 1381POPC   C4B19702  17.547  30.509   7.760
 1382POPC   NC319703  32.571  31.338   9.639
 1382POPC   PO419704  32.453  30.670   9.616
 1382POPC   GL119705  32.243  30.738   9.174
 1382POPC   GL219706  32.503  30.811   8.951
 1382POPC   C1A19707  32.086  30.587   8.747
 1382POPC   D2A19708  31.787  30.627   8.447
 1382POPC   C3A19709  31.943  30.691   8.046
 1382POPC   C4A19710  32.362  30.727   7.937
 1382POPC   C1B19711  32.206  31.063   8.685
 1382POPC   C2B19712  32.118  31.158   8.258
 1382POPC   C3B19713  32.481  31.224   8.005
 1382POPC   C4B19714  32.688  31.030   7.649
 1383POPC   NC319715   4.058  29.728   9.759
 1383POPC   PO419716   3.547  30.216   9.519
 1383POPC   GL119717   3.584  29.978   9.151
 1383POPC   GL219718   3.691  29.638   9.081
 1383POPC   C1A19719   3.782  29.994   8.750
 1383POPC   D2A19720   3.796  29.680   8.437
 1383POPC   C3A19721   3.696  29.822   8.058
 1383POPC   C4A19722   3.571  29.944   7.660
 1383POPC   C1B19723   3.446  29.468   8.740
 1383POPC   C2B19724   3.230  29.551   8.357
 1383POPC   C3B19725   3.301  29.525   7.915
 1383POPC   C4B19726   3.288  29.589   7.447
 1384POPC   NC319727   0.644  41.475   9.574
 1384POPC   PO419728   0.122  41.895   9.410
 1384POPC   GL119729   0.310  41.677   9.091
 1384POPC   GL219730   0.626  41.752   9.159
 1384POPC   C1A19731   0.263  41.538   8.676
 1384POPC   D2A19732   0.150  41.247   8.361
 1384POPC   C3A19733   0.366  41.422   8.013
 1384POPC   C4A19734   0.355  41.416   7.572
 1384POPC   C1B19735   0.769  41.465   8.864
 1384POPC   C2B19736   0.725  41.482   8.414
 1384POPC   C3B19737   0.859  41.576   7.991
 1384POPC   C4B19738   0.689  41.783   7.631
 1385POPC   NC319739  39.207  39.757   9.506
 1385POPC   PO419740  38.935  40.461   9.494
 1385POPC   GL119741  39.051  40.332   9.079
 1385POPC   GL219742  39.216  40.051   9.110
 1385POPC   C1A19743  39.349  40.293   8.708
 1385POPC   D2A19744  39.435  40.088   8.332
 1385POPC   C3A19745  39.189  40.346   8.068
 1385POPC   C4A19746  39.024  40.232   7.681
 1385POPC   C1B19747  39.302  39.791   8.760
 1385POPC   C2B19748  39.207  39.615   8.376
 1385POPC   C3B19749  39.172  39.788   7.997
 1385POPC   C4B19750  39.228  39.753   7.567
 1386POPC   NC319751  38.389   0.646   9.492
 1386POPC   PO419752  38.532   0.060   9.510
 1386POPC   GL119753  38.289   0.225   9.205
 1386POPC   GL219754  38.199  44.946   9.033
 1386POPC   C1A19755  38.333   0.468   8.841
 1386POPC   D2A19756  38.479   0.400   8.418
 1386POPC   C3A19757  38.217   0.578   8.104
 1386POPC   C4A19758  38.078   0.663   7.655
 1386POPC   C1B19759  38.625   0.009   8.841
 1386POPC   C2B19760  38.878   0.074   8.466
 1386POPC   C3B19761  38.802   0.206   8.043
 1386POPC   C4B19762  38.426   0.295   7.748
 1387POPC   NC319763  33.318  24.242   9.447
 1387POPC   PO419764  33.934  24.564   9.577
 1387POPC   GL119765  34.049  24.590   9.161
 1387POPC   GL219766  34.034  24.909   9.045
 1387POPC   C1A19767  33.827  24.482   8.797
 1387POPC   D2A19768  33.668  24.590   8.411
 1387POPC   C3A19769  33.559  24.311   8.115
 1387POPC   C4A19770  33.582  24.424   7.712
 1387POPC   C1B19771  34.001  24.945   8.600
 1387POPC   C2B19772  34.064  24.844   8.215
 1387POPC   C3B19773  34.035  24.476   7.988
 1387POPC   C4B19774  34.058  24.473   7.554
 1388POPC   NC319775   9.856  28.725   9.648
 1388POPC   PO419776   9.369  28.228   9.517
 1388POPC   GL119777   9.662  28.323   9.229
 1388POPC   GL219778   9.552  28.644   9.217
 1388POPC   C1A19779   9.877  28.152   8.853
 1388POPC   D2A19780  10.158  28.175   8.487
 1388POPC   C3A19781   9.982  28.025   8.117
 1388POPC   C4A19782   9.735  28.193   7.801
 1388POPC   C1B19783   9.821  28.677   8.853
 1388POPC   C2B19784   9.695  28.798   8.440
 1388POPC   C3B19785   9.633  28.658   8.027
 1388POPC   C4B19786   9.896  28.875   7.757
 1389POPC   NC319787  27.764  36.429   9.242
 1389POPC   PO419788  27.729  36.956   9.479
 1389POPC   GL119789  27.558  36.911   9.091
 1389POPC   GL219790  27.562  37.271   9.101
 1389POPC   C1A19791  27.605  36.683   8.682
 1389POPC   D2A19792  27.751  36.808   8.286
 1389POPC   C3A19793  27.610  36.633   7.918
 1389POPC   C4A19794  27.707  36.774   7.534
 1389POPC   C1B19795  27.326  37.300   8.744
 1389POPC   C2B19796  27.362  37.155   8.331
 1389POPC   C3B19797  27.533  37.140   7.916
 1389POPC   C4B19798  27.322  37.106   7.517
 1390POPC   NC319799  20.382   4.691   9.450
 1390POPC   PO419800  20.865   4.341   9.793
 1390POPC   GL119801  20.631   4.227   9.300
 1390POPC   GL219802  20.408   4.369   9.061
 1390POPC   C1A19803  20.827   4.146   8.838
 1390POPC   D2A19804  20.864   4.102   8.372
 1390POPC   C3A19805  20.655   4.383   8.087
 1390POPC   C4A19806  20.421   4.280   7.698
 1390POPC   C1B19807  20.481   4.480   8.645
 1390POPC   C2B19808  20.204   4.553   8.324
 1390POPC   C3B19809  20.261   4.716   7.947
 1390POPC   C4B19810  20.002   4.648   7.586
 1391POPC   NC319811  42.226  15.249   9.486
 1391POPC   PO419812  42.598  14.689   9.649
 1391POPC   GL119813  42.586  14.953   9.262
 1391POPC   GL219814  42.627  15.331   9.144
 1391POPC   C1A19815  42.346  14.987   8.853
 1391POPC   D2A19816  42.401  15.207   8.446
 1391POPC   C3A19817  42.267  15.040   8.067
 1391POPC   C4A19818  42.417  14.906   7.679
 1391POPC   C1B19819  42.283  15.503   8.851
 1391POPC   C2B19820  42.176  15.693   8.444
 1391POPC   C3B19821  42.013  15.548   8.049
 1391POPC   C4B19822  42.148  15.336   7.669
 1392POPC   NC319823  35.817  39.927   9.465
 1392POPC   PO419824  35.103  39.882   9.466
 1392POPC   GL119825  35.391  39.809   9.156
 1392POPC   GL219826  35.620  40.097   9.047
 1392POPC   C1A19827  35.292  39.832   8.761
 1392POPC   D2A19828  35.241  39.652   8.406
 1392POPC   C3A19829  35.259  39.881   8.041
 1392POPC   C4A19830  35.505  40.046   7.706
 1392POPC   C1B19831  35.351  40.360   8.801
 1392POPC   C2B19832  35.230  40.274   8.395
 1392POPC   C3B19833  35.233  40.397   7.972
 1392POPC   C4B19834  34.994  40.157   7.679
 1393POPC   NC319835  41.074  39.984   9.548
 1393POPC   PO419836  40.343  39.844   9.434
 1393POPC   GL119837  40.645  39.967   9.115
 1393POPC   GL219838  41.019  39.927   9.057
 1393POPC   C1A19839  40.659  40.088   8.675
 1393POPC   D2A19840  40.900  40.004   8.281
 1393POPC   C3A19841  40.750  40.218   7.939
 1393POPC   C4A19842  40.754  40.260   7.472
 1393POPC   C1B19843  41.014  39.708   8.682
 1393POPC   C2B19844  41.128  39.520   8.290
 1393POPC   C3B19845  41.216  39.720   7.942
 1393POPC   C4B19846  40.885  39.803   7.694
 1394POPC   NC319847  39.024  39.008   9.426
 1394POPC   PO419848  39.505  39.400   9.489
 1394POPC   GL119849  39.250  39.400   9.116
 1394POPC   GL219850  38.964  39.598   9.069
 1394POPC   C1A19851  39.235  39.223   8.702
 1394POPC   D2A19852  39.517  39.158   8.337
 1394POPC   C3A19853  39.419  39.071   7.885
 1394POPC   C4A19854  39.365  39.279   7.477
 1394POPC   C1B19855  38.799  39.486   8.675
 1394POPC   C2B19856  38.840  39.261   8.270
 1394POPC   C3B19857  38.965  39.333   7.831
 1394POPC   C4B19858  38.867  39.409   7.384
 1395POPC   NC319859  12.869   4.074   9.487
 1395POPC   PO419860  12.618   4.763   9.490
 1395POPC   GL119861  12.846   4.545   9.175
 1395POPC   GL219862  12.608   4.280   9.095
 1395POPC   C1A19863  13.135   4.573   8.819
 1395POPC   D2A19864  13.040   4.242   8.543
 1395POPC   C3A19865  13.040   4.325   8.104
 1395POPC   C4A19866  12.785   4.286   7.763
 1395POPC   C1B19867  12.568   4.061   8.708
 1395POPC   C2B19868  12.503   4.268   8.317
 1395POPC   C3B19869  12.408   4.008   8.020
 1395POPC   C4B19870  12.624   3.809   7.784
 1396POPC   NC319871  27.375   7.717   9.516
 1396POPC   PO419872  27.815   7.213   9.666
 1396POPC   GL119873  27.742   7.392   9.247
 1396POPC   GL219874  27.461   7.388   9.132
 1396POPC   C1A19875  27.766   7.315   8.753
 1396POPC   D2A19876  27.512   7.372   8.383
 1396POPC   C3A19877  27.685   7.574   8.020
 1396POPC   C4A19878  27.937   7.367   7.718
 1396POPC   C1B19879  27.189   7.310   8.786
 1396POPC   C2B19880  26.994   7.273   8.375
 1396POPC   C3B19881  27.190   7.359   7.950
 1396POPC   C4B19882  27.442   7.504   7.575
 1397POPC   NC319883  12.411  28.976   9.650
 1397POPC   PO419884  11.785  29.209   9.468
 1397POPC   GL119885  12.019  29.133   9.116
 1397POPC   GL219886  12.358  29.253   9.135
 1397POPC   C1A19887  11.845  29.085   8.709
 1397POPC   D2A19888  11.905  29.267   8.291
 1397POPC   C3A19889  12.256  29.094   8.075
 1397POPC   C4A19890  12.317  29.108   7.633
 1397POPC   C1B19891  12.157  29.476   8.749
 1397POPC   C2B19892  12.340  29.553   8.320
 1397POPC   C3B19893  12.289  29.556   7.867
 1397POPC   C4B19894  12.177  29.527   7.392
 1398POPC   NC319895  29.087  13.126   9.480
 1398POPC   PO419896  29.312  13.755   9.357
 1398POPC   GL119897  29.117  13.456   9.085
 1398POPC   GL219898  29.447  13.265   9.136
 1398POPC   C1A19899  28.837  13.557   8.709
 1398POPC   D2A19900  28.666  13.593   8.263
 1398POPC   C3A19901  28.987  13.515   7.955
 1398POPC   C4A19902  29.199  13.815   7.707
 1398POPC   C1B19903  29.339  13.244   8.673
 1398POPC   C2B19904  29.439  13.393   8.240
 1398POPC   C3B19905  29.439  13.308   7.789
 1398POPC   C4B19906  29.430  12.942   7.489
 1399POPC   NC319907  34.818  10.083   9.427
 1399POPC   PO419908  34.432   9.550   9.455
 1399POPC   GL119909  34.699   9.677   9.142
 1399POPC   GL219910  34.463   9.921   9.045
 1399POPC   C1A19911  34.683   9.560   8.732
 1399POPC   D2A19912  34.338   9.702   8.492
 1399POPC   C3A19913  34.401   9.624   8.081
 1399POPC   C4A19914  34.287   9.918   7.777
 1399POPC   C1B19915  34.781  10.097   8.782
 1399POPC   C2B19916  34.774  10.381   8.457
 1399POPC   C3B19917  34.561  10.155   8.151
 1399POPC   C4B19918  34.801   9.862   7.887
 1400POPC   NC319919  41.422  17.417   9.348
 1400POPC   PO419920  41.530  18.010   9.537
 1400POPC   GL119921  41.505  17.865   9.095
 1400POPC   GL219922  41.185  17.725   9.026
 1400POPC   C1A19923  41.692  17.630   8.732
 1400POPC   D2A19924  41.997  17.596   8.396
 1400POPC   C3A19925  41.796  17.572   7.987
 1400POPC   C4A19926  41.474  17.678   7.694
 1400POPC   C1B19927  41.208  17.424   8.712
 1400POPC   C2B19928  41.417  17.469   8.331
 1400POPC   C3B19929  41.372  17.257   7.968
 1400POPC   C4B19930  41.226  17.194   7.577
 1401POPC   NC319931  32.520  33.218   9.489
 1401POPC   PO419932  32.097  32.726   9.583
 1401POPC   GL119933  32.226  32.877   9.164
 1401POPC   GL219934  31.941  33.095   9.156
 1401POPC   C1A19935  32.455  32.987   8.737
 1401POPC   D2A19936  32.361  32.901   8.295
 1401POPC   C3A19937  32.488  33.035   7.913
 1401POPC   C4A19938  32.689  33.220   7.641
 1401POPC   C1B19939  32.090  33.343   8.820
 1401POPC   C2B19940  32.222  33.403   8.394
 1401POPC   C3B19941  32.070  33.299   7.994
 1401POPC   C4B19942  32.007  32.869   7.919
 1402POPC   NC319943  12.524  40.035   9.271
 1402POPC   PO419944  11.939  39.877   9.563
 1402POPC   GL119945  12.064  39.821   9.153
 1402POPC   GL219946  11.736  39.777   9.021
 1402POPC   C1A19947  12.165  39.923   8.722
 1402POPC   D2A19948  11.950  39.848   8.306
 1402POPC   C3A19949  12.198  39.982   7.960
 1402POPC   C4A19950  12.224  39.891   7.508
 1402POPC   C1B19951  11.695  40.086   8.703
 1402POPC   C2B19952  11.695  40.390   8.397
 1402POPC   C3B19953  11.726  40.255   8.028
 1402POPC   C4B19954  11.849  40.197   7.644
 1403POPC   NC319955  30.922  14.976   9.345
 1403POPC   PO419956  30.822  15.641   9.516
 1403POPC   GL119957  30.881  15.457   9.115
 1403POPC   GL219958  30.580  15.273   9.059
 1403POPC   C1A19959  30.991  15.302   8.709
 1403POPC   D2A19960  30.729  15.283   8.339
 1403POPC   C3A19961  30.881  15.283   7.923
 1403POPC   C4A19962  30.633  15.408   7.538
 1403POPC   C1B19963  30.478  14.995   8.716
 1403POPC   C2B19964  30.485  14.834   8.315
 1403POPC   C3B19965  30.427  15.038   7.934
 1403POPC   C4B19966  30.498  14.929   7.511
 1404POPC   NC319967  33.815  17.635   9.873
 1404POPC   PO419968  33.457  17.360   9.339
 1404POPC   GL119969  33.742  17.612   9.128
 1404POPC   GL219970  33.507  17.670   8.877
 1404POPC   C1A19971  33.988  17.803   8.786
 1404POPC   D2A19972  33.798  17.720   8.378
 1404POPC   C3A19973  33.958  17.854   7.988
 1404POPC   C4A19974  33.823  17.798   7.550
 1404POPC   C1B19975  33.778  17.319   8.722
 1404POPC   C2B19976  34.039  17.218   8.392
 1404POPC   C3B19977  33.953  17.326   7.998
 1404POPC   C4B19978  33.591  17.426   7.817
 1405POPC   NC319979  11.990  19.637   9.499
 1405POPC   PO419980  12.142  20.322   9.614
 1405POPC   GL119981  12.041  20.069   9.210
 1405POPC   GL219982  11.733  20.198   9.098
 1405POPC   C1A19983  12.098  19.736   8.829
 1405POPC   D2A19984  12.278  19.586   8.380
 1405POPC   C3A19985  12.119  19.774   7.988
 1405POPC   C4A19986  12.243  19.790   7.555
 1405POPC   C1B19987  11.786  20.128   8.701
 1405POPC   C2B19988  11.958  20.120   8.333
 1405POPC   C3B19989  11.811  20.216   7.934
 1405POPC   C4B19990  11.738  19.967   7.567
 1406POPC   NC319991   1.833  36.902   9.478
 1406POPC   PO419992   2.440  36.875   9.421
 1406POPC   GL119993   2.213  36.705   9.046
 1406POPC   GL219994   1.860  36.715   9.018
 1406POPC   C1A19995   2.113  36.688   8.596
 1406POPC   D2A19996   1.975  36.709   8.160
 1406POPC   C3A19997   2.264  36.889   7.859
 1406POPC   C4A19998   2.109  37.021   7.473
 1406POPC   C1B19999   1.683  36.992   8.718
 1406POPC   C2B20000   1.834  37.203   8.347
 1406POPC   C3B20001   1.810  37.151   7.913
 1406POPC   C4B20002   1.636  37.201   7.512
 1407POPC   NC320003  21.267   4.549   9.893
 1407POPC   PO420004  21.463   5.145   9.631
 1407POPC   GL120005  21.660   5.251   9.204
 1407POPC   GL220006  21.340   5.319   9.108
 1407POPC   C1A20007  21.660   5.143   8.727
 1407POPC   D2A20008  21.487   4.870   8.365
 1407POPC   C3A20009  21.512   4.865   7.871
 1407POPC   C4A20010  21.312   4.824   7.426
 1407POPC   C1B20011  21.130   5.153   8.742
 1407POPC   C2B20012  20.966   5.315   8.352
 1407POPC   C3B20013  21.096   5.434   7.922
 1407POPC   C4B20014  21.507   5.374   7.763
 1408POPC   NC320015   6.325  36.881   9.731
 1408POPC   PO420016   5.711  36.856   9.474
 1408POPC   GL120017   5.794  37.098   9.127
 1408POPC   GL220018   6.122  36.994   9.188
 1408POPC   C1A20019   5.573  36.975   8.748
 1408POPC   D2A20020   5.421  36.874   8.319
 1408POPC   C3A20021   5.576  37.108   7.966
 1408POPC   C4A20022   5.874  37.091   7.657
 1408POPC   C1B20023   6.015  36.650   8.856
 1408POPC   C2B20024   5.904  36.709   8.439
 1408POPC   C3B20025   5.996  36.781   8.042
 1408POPC   C4B20026   6.217  36.672   7.682
 1409POPC   NC320027  39.006   0.001   9.506
 1409POPC   PO420028  39.146   0.659   9.564
 1409POPC   GL120029  39.141   0.467   9.179
 1409POPC   GL220030  38.800   0.353   9.188
 1409POPC   C1A20031  39.387   0.473   8.778
 1409POPC   D2A20032  39.509   0.775   8.442
 1409POPC   C3A20033  39.504   0.618   8.018
 1409POPC   C4A20034  39.308   0.285   7.842
 1409POPC   C1B20035  38.847   0.487   8.772
 1409POPC   C2B20036  39.036   0.577   8.387
 1409POPC   C3B20037  38.996   0.729   7.998
 1409POPC   C4B20038  38.880   0.505   7.650
 1410POPC   NC320039  34.924  19.670   9.633
 1410POPC   PO420040  34.213  19.499   9.509
 1410POPC   GL120041  34.503  19.784   9.267
 1410POPC   GL220042  34.789  19.620   9.157
 1410POPC   C1A20043  34.508  19.947   8.824
 1410POPC   D2A20044  34.318  19.680   8.514
 1410POPC   C3A20045  34.415  19.707   8.069
 1410POPC   C4A20046  34.668  20.029   7.867
 1410POPC   C1B20047  34.766  19.519   8.744
 1410POPC   C2B20048  34.841  19.724   8.383
 1410POPC   C3B20049  34.931  19.616   7.984
 1410POPC   C4B20050  34.747  19.581   7.582
 1411POPC   NC320051  35.949  44.177   9.380
 1411POPC   PO420052  35.399  43.839   9.510
 1411POPC   GL120053  35.509  43.588   9.151
 1411POPC   GL220054  35.744  43.802   9.092
 1411POPC   C1A20055  35.368  43.632   8.753
 1411POPC   D2A20056  35.376  43.918   8.447
 1411POPC   C3A20057  35.363  43.684   8.071
 1411POPC   C4A20058  35.286  43.813   7.683
 1411POPC   C1B20059  35.927  43.921   8.726
 1411POPC   C2B20060  35.838  43.758   8.332
 1411POPC   C3B20061  35.686  44.084   8.060
 1411POPC   C4B20062  35.666  44.230   7.657
 1412POPC   NC320063  19.545   3.524   9.639
 1412POPC   PO420064  18.842   3.383   9.639
 1412POPC   GL120065  19.097   3.606   9.335
 1412POPC   GL220066  19.268   3.360   9.218
 1412POPC   C1A20067  19.186   3.785   8.900
 1412POPC   D2A20068  19.055   3.856   8.479
 1412POPC   C3A20069  19.143   3.580   8.141
 1412POPC   C4A20070  19.028   3.478   7.743
 1412POPC   C1B20071  19.100   3.301   8.799
 1412POPC   C2B20072  19.200   3.139   8.405
 1412POPC   C3B20073  19.342   3.054   7.979
 1412POPC   C4B20074  19.448   3.057   7.519
 1413POPC   NC320075  23.290  33.647   9.320
 1413POPC   PO420076  23.787  33.972   9.685
 1413POPC   GL120077  23.792  33.802   9.266
 1413POPC   GL220078  23.637  34.097   9.138
 1413POPC   C1A20079  23.766  33.583   8.860
 1413POPC   D2A20080  23.674  33.561   8.423
 1413POPC   C3A20081  23.929  33.796   8.129
 1413POPC   C4A20082  24.033  33.759   7.674
 1413POPC   C1B20083  23.481  34.009   8.740
 1413POPC   C2B20084  23.457  34.005   8.305
 1413POPC   C3B20085  23.414  33.708   7.969
 1413POPC   C4B20086  23.403  33.771   7.501
 1414POPC   NC320087  21.725  34.214   9.491
 1414POPC   PO420088  21.497  34.928   9.511
 1414POPC   GL120089  21.460  34.720   9.148
 1414POPC   GL220090  21.429  34.368   9.065
 1414POPC   C1A20091  21.676  34.704   8.765
 1414POPC   D2A20092  21.544  34.562   8.422
 1414POPC   C3A20093  21.717  34.707   8.076
 1414POPC   C4A20094  21.495  34.796   7.698
 1414POPC   C1B20095  21.165  34.331   8.694
 1414POPC   C2B20096  21.040  34.528   8.308
 1414POPC   C3B20097  21.296  34.425   7.992
 1414POPC   C4B20098  21.312  34.291   7.596
 1415POPC   NC320099  11.585  42.705   9.279
 1415POPC   PO420100  11.280  43.245   9.565
 1415POPC   GL120101  11.287  43.156   9.142
 1415POPC   GL220102  11.023  42.940   9.082
 1415POPC   C1A20103  11.098  43.332   8.761
 1415POPC   D2A20104  11.077  43.170   8.356
 1415POPC   C3A20105  11.229  43.339   7.985
 1415POPC   C4A20106  11.181  43.195   7.581
 1415POPC   C1B20107  11.296  42.826   8.714
 1415POPC   C2B20108  11.443  42.813   8.292
 1415POPC   C3B20109  11.126  42.827   7.970
 1415POPC   C4B20110  11.127  42.652   7.597
 1416POPC   NC320111  35.275  44.779   9.723
 1416POPC   PO420112  35.867  44.723   9.435
 1416POPC   GL120113  35.444  44.603   9.227
 1416POPC   GL220114  35.645  44.716   8.967
 1416POPC   C1A20115  35.189  44.571   8.786
 1416POPC   D2A20116  35.383  44.430   8.352
 1416POPC   C3A20117  35.305  44.576   7.901
 1416POPC   C4A20118  35.174  44.294   7.557
 1416POPC   C1B20119  35.506  44.997   8.676
 1416POPC   C2B20120  35.389  44.929   8.286
 1416POPC   C3B20121  35.540   0.073   7.921
 1416POPC   C4B20122  35.352   0.034   7.521
 1417POPC   NC320123  25.042   5.575   9.472
 1417POPC   PO420124  25.662   5.776   9.538
 1417POPC   GL120125  25.404   5.880   9.140
 1417POPC   GL220126  25.416   5.583   9.082
 1417POPC   C1A20127  25.240   5.834   8.677
 1417POPC   D2A20128  25.338   5.789   8.215
 1417POPC   C3A20129  25.026   5.794   7.863
 1417POPC   C4A20130  25.080   6.005   7.408
 1417POPC   C1B20131  25.616   5.454   8.686
 1417POPC   C2B20132  25.825   5.595   8.297
 1417POPC   C3B20133  25.742   5.674   7.867
 1417POPC   C4B20134  25.414   5.639   7.579
 1418POPC   NC320135  15.666   4.520   9.453
 1418POPC   PO420136  14.954   4.515   9.495
 1418POPC   GL120137  15.207   4.453   9.176
 1418POPC   GL220138  15.358   4.150   9.263
 1418POPC   C1A20139  15.193   4.567   8.768
 1418POPC   D2A20140  15.261   4.341   8.396
 1418POPC   C3A20141  15.159   4.474   7.999
 1418POPC   C4A20142  15.324   4.654   7.635
 1418POPC   C1B20143  15.220   4.026   8.856
 1418POPC   C2B20144  15.506   3.920   8.530
 1418POPC   C3B20145  15.642   4.107   8.134
 1418POPC   C4B20146  15.405   4.106   7.736
 1419POPC   NC320147   2.994  39.105   9.422
 1419POPC   PO420148   2.848  39.739   9.472
 1419POPC   GL120149   2.730  39.434   9.123
 1419POPC   GL220150   2.439  39.200   9.182
 1419POPC   C1A20151   2.907  39.210   8.732
 1419POPC   D2A20152   3.104  39.051   8.312
 1419POPC   C3A20153   2.890  39.149   7.916
 1419POPC   C4A20154   2.964  39.123   7.450
 1419POPC   C1B20155   2.448  38.995   8.784
 1419POPC   C2B20156   2.607  38.891   8.380
 1419POPC   C3B20157   2.446  38.883   7.967
 1419POPC   C4B20158   2.482  39.105   7.622
 1420POPC   NC320159  37.954  19.940   9.543
 1420POPC   PO420160  37.304  19.688   9.531
 1420POPC   GL120161  37.601  19.845   9.202
 1420POPC   GL220162  37.938  19.624   9.118
 1420POPC   C1A20163  37.597  19.822   8.775
 1420POPC   D2A20164  37.382  19.633   8.456
 1420POPC   C3A20165  37.472  19.903   8.100
 1420POPC   C4A20166  37.531  19.867   7.652
 1420POPC   C1B20167  38.090  19.788   8.701
 1420POPC   C2B20168  37.895  20.051   8.362
 1420POPC   C3B20169  37.978  20.046   7.909
 1420POPC   C4B20170  37.921  20.082   7.431
 1421POPC   NC320171  25.893  28.628   9.696
 1421POPC   PO420172  25.823  29.247   9.393
 1421POPC   GL120173  26.049  29.338   9.049
 1421POPC   GL220174  26.292  29.533   9.158
 1421POPC   C1A20175  26.113  29.183   8.646
 1421POPC   D2A20176  26.139  28.783   8.459
 1421POPC   C3A20177  25.902  28.847   8.098
 1421POPC   C4A20178  25.849  29.197   7.746
 1421POPC   C1B20179  26.394  29.637   8.744
 1421POPC   C2B20180  26.209  29.607   8.364
 1421POPC   C3B20181  26.178  29.276   8.111
 1421POPC   C4B20182  26.353  29.187   7.707
 1422POPC   NC320183  20.813  21.007   9.185
 1422POPC   PO420184  20.370  21.235   9.627
 1422POPC   GL120185  20.369  21.264   9.150
 1422POPC   GL220186  20.572  21.548   9.077
 1422POPC   C1A20187  20.509  21.128   8.671
 1422POPC   D2A20188  20.650  21.339   8.334
 1422POPC   C3A20189  20.534  21.143   7.998
 1422POPC   C4A20190  20.494  21.178   7.581
 1422POPC   C1B20191  20.875  21.544   8.744
 1422POPC   C2B20192  21.027  21.697   8.343
 1422POPC   C3B20193  20.791  21.646   7.944
 1422POPC   C4B20194  20.826  21.545   7.506
 1423POPC   NC320195   3.583  18.475   9.485
 1423POPC   PO420196   3.098  18.043   9.185
 1423POPC   GL120197   3.280  18.449   9.049
 1423POPC   GL220198   3.597  18.262   9.019
 1423POPC   C1A20199   3.475  18.642   8.657
 1423POPC   D2A20200   3.705  18.484   8.322
 1423POPC   C3A20201   3.552  18.423   7.917
 1423POPC   C4A20202   3.562  18.472   7.479
 1423POPC   C1B20203   3.389  18.145   8.609
 1423POPC   C2B20204   3.496  18.015   8.213
 1423POPC   C3B20205   3.364  17.793   7.874
 1423POPC   C4B20206   3.309  17.838   7.441
 1424POPC   NC320207  42.992  32.720   9.364
 1424POPC   PO420208  43.351  32.239   9.689
 1424POPC   GL120209  43.316  32.223   9.219
 1424POPC   GL220210  42.990  32.220   9.160
 1424POPC   C1A20211  43.339  32.024   8.765
 1424POPC   D2A20212  43.169  32.183   8.348
 1424POPC   C3A20213  43.386  32.067   7.959
 1424POPC   C4A20214  43.228  31.820   7.609
 1424POPC   C1B20215  42.891  32.328   8.773
 1424POPC   C2B20216  42.653  32.344   8.394
 1424POPC   C3B20217  42.595  32.147   8.043
 1424POPC   C4B20218  42.929  32.210   7.759
 1425POPC   NC320219  39.692  11.375   9.909
 1425POPC   PO420220  39.220  11.046   9.645
 1425POPC   GL120221  39.144  11.011   9.191
 1425POPC   GL220222  39.023  11.337   9.244
 1425POPC   C1A20223  39.346  11.155   8.778
 1425POPC   D2A20224  39.603  11.310   8.420
 1425POPC   C3A20225  39.433  11.500   8.053
 1425POPC   C4A20226  39.308  11.337   7.670
 1425POPC   C1B20227  38.851  11.281   8.848
 1425POPC   C2B20228  38.750  11.213   8.425
 1425POPC   C3B20229  38.917  11.301   8.039
 1425POPC   C4B20230  38.802  11.309   7.644
 1426POPC   NC320231  31.681  20.138   9.623
 1426POPC   PO420232  31.185  19.791   9.296
 1426POPC   GL120233  31.461  19.929   9.042
 1426POPC   GL220234  31.674  20.196   9.103
 1426POPC   C1A20235  31.479  19.962   8.630
 1426POPC   D2A20236  31.661  20.023   8.312
 1426POPC   C3A20237  31.443  19.839   7.998
 1426POPC   C4A20238  31.564  19.621   7.666
 1426POPC   C1B20239  31.925  20.319   8.734
 1426POPC   C2B20240  32.032  20.363   8.297
 1426POPC   C3B20241  31.998  20.121   7.948
 1426POPC   C4B20242  31.887  20.187   7.549
 1427POPC   NC320243   5.616  24.473   9.351
 1427POPC   PO420244   6.201  24.870   9.474
 1427POPC   GL120245   5.960  24.785   9.117
 1427POPC   GL220246   6.080  24.446   9.108
 1427POPC   C1A20247   5.685  24.676   8.741
 1427POPC   D2A20248   5.796  24.569   8.321
 1427POPC   C3A20249   5.686  24.487   7.907
 1427POPC   C4A20250   5.478  24.624   7.543
 1427POPC   C1B20251   6.168  24.483   8.677
 1427POPC   C2B20252   6.259  24.374   8.260
 1427POPC   C3B20253   6.214  24.568   7.896
 1427POPC   C4B20254   6.025  24.437   7.504
 1428POPC   NC320255  31.816  39.552   9.450
 1428POPC   PO420256  31.268  39.233   9.586
 1428POPC   GL120257  31.419  39.245   9.177
 1428POPC   GL220258  31.580  38.933   9.136
 1428POPC   C1A20259  31.271  39.157   8.754
 1428POPC   D2A20260  31.120  39.344   8.385
 1428POPC   C3A20261  31.313  39.338   7.971
 1428POPC   C4A20262  31.334  38.987   7.689
 1428POPC   C1B20263  31.769  39.122   8.784
 1428POPC   C2B20264  31.619  39.099   8.348
 1428POPC   C3B20265  31.804  39.122   7.933
 1428POPC   C4B20266  31.913  39.511   7.679
 1429POPC   NC320267   8.198  13.684   9.377
 1429POPC   PO420268   8.926  13.646   9.639
 1429POPC   GL120269   8.942  13.604   9.167
 1429POPC   GL220270   8.651  13.732   9.103
 1429POPC   C1A20271   9.224  13.620   8.783
 1429POPC   D2A20272   9.169  13.788   8.358
 1429POPC   C3A20273   9.138  13.512   7.972
 1429POPC   C4A20274   9.172  13.507   7.493
 1429POPC   C1B20275   8.835  13.969   8.772
 1429POPC   C2B20276   8.691  14.017   8.356
 1429POPC   C3B20277   8.860  13.937   7.974
 1429POPC   C4B20278   9.168  13.982   7.704
 1430POPC   NC320279  25.211  33.256   9.293
 1430POPC   PO420280  25.508  33.795   9.595
 1430POPC   GL120281  25.336  33.749   9.169
 1430POPC   GL220282  25.538  33.549   9.026
 1430POPC   C1A20283  25.096  33.745   8.756
 1430POPC   D2A20284  25.148  33.573   8.335
 1430POPC   C3A20285  25.190  33.870   7.986
 1430POPC   C4A20286  25.031  34.275   7.835
 1430POPC   C1B20287  25.613  33.809   8.705
 1430POPC   C2B20288  25.623  33.741   8.289
 1430POPC   C3B20289  25.581  33.507   7.916
 1430POPC   C4B20290  25.355  33.607   7.569
 1431POPC   NC320291  35.871  19.983   9.708
 1431POPC   PO420292  36.487  19.896   9.827
 1431POPC   GL120293  36.202  19.831   9.366
 1431POPC   GL220294  35.897  20.002   9.194
 1431POPC   C1A20295  36.265  19.827   8.891
 1431POPC   D2A20296  36.204  20.088   8.536
 1431POPC   C3A20297  36.294  19.882   8.187
 1431POPC   C4A20298  36.108  19.652   7.873
 1431POPC   C1B20299  35.770  19.917   8.759
 1431POPC   C2B20300  35.798  19.775   8.321
 1431POPC   C3B20301  35.714  20.004   7.936
 1431POPC   C4B20302  35.857  20.051   7.481
 1432POPC   NC320303  17.446  37.483   9.541
 1432POPC   PO420304  17.939  37.857   9.444
 1432POPC   GL120305  17.761  37.515   9.136
 1432POPC   GL220306  17.372  37.424   9.046
 1432POPC   C1A20307  17.731  37.549   8.701
 1432POPC   D2A20308  17.676  37.863   8.400
 1432POPC   C3A20309  17.475  37.749   8.032
 1432POPC   C4A20310  17.571  37.763   7.591
 1432POPC   C1B20311  17.207  37.439   8.595
 1432POPC   C2B20312  17.100  37.396   8.140
 1432POPC   C3B20313  17.075  37.627   7.733
 1432POPC   C4B20314  17.205  37.499   7.301
 1433POPC   NC320315  39.624  21.244   9.775
 1433POPC   PO420316  39.074  21.590   9.587
 1433POPC   GL120317  39.278  21.389   9.267
 1433POPC   GL220318  39.228  21.049   9.137
 1433POPC   C1A20319  39.264  21.579   8.854
 1433POPC   D2A20320  38.998  21.418   8.537
 1433POPC   C3A20321  39.100  21.557   8.146
 1433POPC   C4A20322  39.326  21.587   7.785
 1433POPC   C1B20323  39.528  21.152   8.806
 1433POPC   C2B20324  39.505  21.316   8.418
 1433POPC   C3B20325  39.383  21.138   8.046
 1433POPC   C4B20326  39.631  21.122   7.708
 1434POPC   NC320327   6.917  37.532   9.444
 1434POPC   PO420328   7.363  38.060   9.323
 1434POPC   GL120329   7.312  37.635   9.104
 1434POPC   GL220330   7.660  37.534   9.082
 1434POPC   C1A20331   7.299  37.473   8.659
 1434POPC   D2A20332   7.505  37.639   8.269
 1434POPC   C3A20333   7.267  37.653   7.877
 1434POPC   C4A20334   7.357  37.498   7.475
 1434POPC   C1B20335   7.617  37.876   8.740
 1434POPC   C2B20336   7.772  38.074   8.364
 1434POPC   C3B20337   7.582  38.061   7.960
 1434POPC   C4B20338   7.686  37.892   7.581
 1435POPC   NC320339   0.180  11.313   9.520
 1435POPC   PO420340   0.836  11.412   9.614
 1435POPC   GL120341   0.627  11.321   9.188
 1435POPC   GL220342   0.273  11.202   9.046
 1435POPC   C1A20343   0.679  11.056   8.835
 1435POPC   D2A20344   0.397  11.022   8.517
 1435POPC   C3A20345   0.650  11.196   8.189
 1435POPC   C4A20346   0.727  11.006   7.781
 1435POPC   C1B20347   0.433  11.492   8.709
 1435POPC   C2B20348   0.211  11.470   8.304
 1435POPC   C3B20349   0.250  11.282   7.898
 1435POPC   C4B20350   0.048  11.375   7.532
 1436POPC   NC320351   8.072  42.365   9.538
 1436POPC   PO420352   7.569  42.577   9.845
 1436POPC   GL120353   7.430  42.519   9.372
 1436POPC   GL220354   7.102  42.281   9.349
 1436POPC   C1A20355   7.443  42.309   8.924
 1436POPC   D2A20356   7.275  42.185   8.512
 1436POPC   C3A20357   7.405  42.169   8.086
 1436POPC   C4A20358   7.482  42.432   7.734
 1436POPC   C1B20359   6.998  42.610   9.072
 1436POPC   C2B20360   7.048  42.626   8.645
 1436POPC   C3B20361   7.074  42.537   8.211
 1436POPC   C4B20362   7.000  42.688   7.836
 1437POPC   NC320363  44.507   8.143   9.489
 1437POPC   PO420364  44.414   8.793   9.373
 1437POPC   GL120365  44.385   8.410   9.072
 1437POPC   GL220366  44.339   8.033   9.040
 1437POPC   C1A20367  44.494   8.474   8.659
 1437POPC   D2A20368  44.780   8.678   8.377
 1437POPC   C3A20369  44.722   8.458   8.021
 1437POPC   C4A20370  44.781   8.339   7.634
 1437POPC   C1B20371  44.546   7.962   8.667
 1437POPC   C2B20372  44.416   8.124   8.264
 1437POPC   C3B20373  44.308   8.145   7.819
 1437POPC   C4B20374  44.484   7.985   7.424
 1438POPC   NC320375  30.554  32.846   9.538
 1438POPC   PO420376  30.624  33.481   9.437
 1438POPC   GL120377  30.542  33.139   9.098
 1438POPC   GL220378  30.614  32.747   9.059
 1438POPC   C1A20379  30.633  33.057   8.647
 1438POPC   D2A20380  30.764  33.216   8.214
 1438POPC   C3A20381  30.451  33.177   7.859
 1438POPC   C4A20382  30.338  33.008   7.430
 1438POPC   C1B20383  30.576  32.545   8.670
 1438POPC   C2B20384  30.627  32.718   8.270
 1438POPC   C3B20385  30.454  32.655   7.883
 1438POPC   C4B20386  30.602  32.554   7.481
 1439POPC   NC320387  31.155   3.021   9.314
 1439POPC   PO420388  31.690   2.857   9.657
 1439POPC   GL120389  31.585   2.771   9.230
 1439POPC   GL220390  31.632   3.083   9.093
 1439POPC   C1A20391  31.417   2.518   8.865
 1439POPC   D2A20392  31.264   2.309   8.488
 1439POPC   C3A20393  31.490   2.447   8.150
 1439POPC   C4A20394  31.398   2.594   7.759
 1439POPC   C1B20395  31.385   3.006   8.696
 1439POPC   C2B20396  31.207   2.874   8.299
 1439POPC   C3B20397  31.233   3.067   7.896
 1439POPC   C4B20398  30.987   2.964   7.567
 1440POPC   NC320399  42.983  33.714   9.471
 1440POPC   PO420400  43.607  33.935   9.370
 1440POPC   GL120401  43.312  33.754   9.096
 1440POPC   GL220402  42.929  33.853   8.993
 1440POPC   C1A20403  43.326  33.888   8.663
 1440POPC   D2A20404  43.079  33.731   8.354
 1440POPC   C3A20405  43.166  33.865   7.993
 1440POPC   C4A20406  42.946  34.007   7.663
 1440POPC   C1B20407  42.721  33.571   8.660
 1440POPC   C2B20408  42.708  33.401   8.206
 1440POPC   C3B20409  42.741  33.513   7.750
 1440POPC   C4B20410  42.616  33.308   7.378
 1441POPC   NC320411  17.942   8.054   9.185
 1441POPC   PO420412  18.401   8.533   9.432
 1441POPC   GL120413  18.421   8.219   9.073
 1441POPC   GL220414  18.414   7.837   9.056
 1441POPC   C1A20415  18.353   8.144   8.636
 1441POPC   D2A20416  17.996   8.128   8.369
 1441POPC   C3A20417  18.125   8.297   7.996
 1441POPC   C4A20418  18.193   8.149   7.619
 1441POPC   C1B20419  18.687   7.735   8.748
 1441POPC   C2B20420  18.759   7.944   8.339
 1441POPC   C3B20421  18.577   7.965   7.917
 1441POPC   C4B20422  18.472   7.742   7.523
 1442POPC   NC320423  19.340  20.048   9.265
 1442POPC   PO420424  18.886  19.731   9.586
 1442POPC   GL120425  18.868  19.820   9.159
 1442POPC   GL220426  19.154  19.595   9.070
 1442POPC   C1A20427  18.966  19.896   8.708
 1442POPC   D2A20428  19.148  19.941   8.314
 1442POPC   C3A20429  18.955  19.886   7.934
 1442POPC   C4A20430  18.802  20.167   7.633
 1442POPC   C1B20431  19.328  19.385   8.720
 1442POPC   C2B20432  19.396  19.482   8.275
 1442POPC   C3B20433  19.212  19.444   7.855
 1442POPC   C4B20434  19.242  19.742   7.494
 1443POPC   NC320435  32.319  17.734   9.476
 1443POPC   PO420436  31.813  18.223   9.503
 1443POPC   GL120437  32.035  18.057   9.182
 1443POPC   GL220438  32.383  18.178   9.183
 1443POPC   C1A20439  32.014  18.154   8.757
 1443POPC   D2A20440  31.929  18.091   8.328
 1443POPC   C3A20441  32.284  18.134   8.039
 1443POPC   C4A20442  32.231  18.210   7.627
 1443POPC   C1B20443  32.445  18.446   8.835
 1443POPC   C2B20444  32.320  18.488   8.411
 1443POPC   C3B20445  32.312  18.659   7.976
 1443POPC   C4B20446  32.491  18.633   7.549
 1444POPC   NC320447  26.033  13.780   9.513
 1444POPC   PO420448  26.198  13.143   9.235
 1444POPC   GL120449  26.251  13.526   9.093
 1444POPC   GL220450  25.885  13.569   9.086
 1444POPC   C1A20451  26.263  13.766   8.730
 1444POPC   D2A20452  26.129  13.905   8.312
 1444POPC   C3A20453  26.253  13.674   7.930
 1444POPC   C4A20454  26.438  13.490   7.544
 1444POPC   C1B20455  25.794  13.546   8.677
 1444POPC   C2B20456  25.874  13.477   8.252
 1444POPC   C3B20457  25.740  13.660   7.863
 1444POPC   C4B20458  25.716  13.476   7.449
 1445POPC   NC320459  40.253  40.296   9.487
 1445POPC   PO420460  39.617  40.003   9.424
 1445POPC   GL120461  39.759  39.952   9.031
 1445POPC   GL220462  40.130  40.050   9.018
 1445POPC   C1A20463  39.855  39.938   8.607
 1445POPC   D2A20464  40.170  40.046   8.334
 1445POPC   C3A20465  39.911  40.083   7.995
 1445POPC   C4A20466  39.541  40.087   7.800
 1445POPC   C1B20467  40.298  39.697   8.733
 1445POPC   C2B20468  40.552  39.603   8.348
 1445POPC   C3B20469  40.433  39.806   7.935
 1445POPC   C4B20470  40.306  40.222   7.712
 1446POPC   NC320471   1.402  39.752   9.405
 1446POPC   PO420472   0.809  40.168   9.478
 1446POPC   GL120473   1.099  40.097   9.159
 1446POPC   GL220474   1.394  40.306   9.197
 1446POPC   C1A20475   1.218  39.955   8.761
 1446POPC   D2A20476   1.158  40.191   8.399
 1446POPC   C3A20477   1.219  40.010   8.004
 1446POPC   C4A20478   1.075  39.928   7.555
 1446POPC   C1B20479   1.608  40.300   8.790
 1446POPC   C2B20480   1.667  40.083   8.386
 1446POPC   C3B20481   1.743  40.185   7.966
 1446POPC   C4B20482   1.504  40.204   7.608
 1447POPC   NC320483  11.263  13.511   9.622
 1447POPC   PO420484  11.736  13.853   9.531
 1447POPC   GL120485  11.448  13.739   9.186
 1447POPC   GL220486  11.460  13.376   9.155
 1447POPC   C1A20487  11.189  13.633   8.812
 1447POPC   D2A20488  11.298  13.419   8.420
 1447POPC   C3A20489  11.132  13.620   8.065
 1447POPC   C4A20490  11.215  13.517   7.657
 1447POPC   C1B20491  11.641  13.238   8.781
 1447POPC   C2B20492  11.819  13.187   8.344
 1447POPC   C3B20493  11.587  13.308   7.968
 1447POPC   C4B20494  11.712  13.436   7.555
 1448POPC   NC320495  39.033   2.074   9.568
 1448POPC   PO420496  39.630   2.225   9.549
 1448POPC   GL120497  39.366   2.145   9.183
 1448POPC   GL220498  39.179   1.812   9.163
 1448POPC   C1A20499  39.291   2.146   8.757
 1448POPC   D2A20500  39.516   2.040   8.396
 1448POPC   C3A20501  39.302   2.101   8.051
 1448POPC   C4A20502  39.199   2.264   7.678
 1448POPC   C1B20503  39.362   1.630   8.805
 1448POPC   C2B20504  39.166   1.641   8.419
 1448POPC   C3B20505  39.265   1.592   8.032
 1448POPC   C4B20506  39.410   1.776   7.674
 1449POPC   NC320507  44.805  17.774   9.337
 1449POPC   PO420508  44.340  17.275   9.534
 1449POPC   GL120509  44.483  17.427   9.108
 1449POPC   GL220510  44.845  17.454   8.968
 1449POPC   C1A20511  44.485  17.597   8.672
 1449POPC   D2A20512  44.836  17.464   8.419
 1449POPC   C3A20513  44.645  17.275   8.061
 1449POPC   C4A20514  44.445  17.428   7.676
 1449POPC   C1B20515   0.094  17.787   8.758
 1449POPC   C2B20516   0.068  17.977   8.352
 1449POPC   C3B20517   0.139  17.857   7.927
 1449POPC   C4B20518  44.929  17.578   7.651
 1450POPC   NC320519  16.589   0.210   9.479
 1450POPC   PO420520  16.992   0.784   9.382
 1450POPC   GL120521  16.756   0.530   9.128
 1450POPC   GL220522  16.985   0.224   9.143
 1450POPC   C1A20523  16.526   0.419   8.757
 1450POPC   D2A20524  16.299   0.275   8.378
 1450POPC   C3A20525  16.403   0.488   8.022
 1450POPC   C4A20526  16.386   0.644   7.621
 1450POPC   C1B20527  17.124   0.451   8.801
 1450POPC   C2B20528  16.957   0.349   8.435
 1450POPC   C3B20529  17.072   0.541   8.088
 1450POPC   C4B20530  16.840   0.405   7.759
 1451POPC   NC320531  31.962   7.986   9.433
 1451POPC   PO420532  32.160   8.670   9.534
 1451POPC   GL120533  32.232   8.368   9.185
 1451POPC   GL220534  31.968   8.223   8.989
 1451POPC   C1A20535  32.413   8.032   8.884
 1451POPC   D2A20536  32.518   8.099   8.450
 1451POPC   C3A20537  32.267   8.079   8.061
 1451POPC   C4A20538  32.424   8.172   7.650
 1451POPC   C1B20539  31.925   8.582   8.792
 1451POPC   C2B20540  31.766   8.664   8.398
 1451POPC   C3B20541  31.936   8.522   8.028
 1451POPC   C4B20542  31.929   8.279   7.682
 1452POPC   NC320543  34.581  28.563   9.554
 1452POPC   PO420544  34.754  27.850   9.589
 1452POPC   GL120545  34.780  28.190   9.257
 1452POPC   GL220546  34.453  28.301   9.132
 1452POPC   C1A20547  34.781  28.146   8.787
 1452POPC   D2A20548  34.782  28.394   8.402
 1452POPC   C3A20549  34.705  28.210   7.998
 1452POPC   C4A20550  34.724  28.357   7.568
 1452POPC   C1B20551  34.434  28.553   8.753
 1452POPC   C2B20552  34.236  28.595   8.320
 1452POPC   C3B20553  34.318  28.528   7.844
 1452POPC   C4B20554  34.375  28.679   7.396
 1453POPC   NC320555  12.861  10.986   9.803
 1453POPC   PO420556  13.004  11.452   9.391
 1453POPC   GL120557  12.802  11.188   9.140
 1453POPC   GL220558  13.081  11.286   8.905
 1453POPC   C1A20559  12.638  11.105   8.731
 1453POPC   D2A20560  12.723  11.348   8.364
 1453POPC   C3A20561  12.712  11.174   7.989
 1453POPC   C4A20562  13.104  11.148   7.822
 1453POPC   C1B20563  12.840  11.671   8.730
 1453POPC   C2B20564  12.896  11.842   8.272
 1453POPC   C3B20565  12.991  11.657   7.852
 1453POPC   C4B20566  13.063  11.494   7.410
 1454POPC   NC320567  19.831   8.334   9.512
 1454POPC   PO420568  19.896   7.747   9.380
 1454POPC   GL120569  19.661   8.068   9.098
 1454POPC   GL220570  19.517   8.460   9.147
 1454POPC   C1A20571  19.974   8.183   8.801
 1454POPC   D2A20572  20.246   8.100   8.452
 1454POPC   C3A20573  20.083   8.184   8.096
 1454POPC   C4A20574  19.932   7.984   7.730
 1454POPC   C1B20575  19.349   8.368   8.805
 1454POPC   C2B20576  19.555   8.135   8.486
 1454POPC   C3B20577  19.583   8.215   8.065
 1454POPC   C4B20578  19.387   8.411   7.704
 1455POPC   NC320579  27.611  21.848   9.506
 1455POPC   PO420580  27.692  22.503   9.412
 1455POPC   GL120581  27.790  22.215   9.118
 1455POPC   GL220582  27.459  22.063   9.052
 1455POPC   C1A20583  27.822  22.125   8.683
 1455POPC   D2A20584  27.554  22.180   8.355
 1455POPC   C3A20585  27.717  22.201   7.947
 1455POPC   C4A20586  27.583  22.275   7.523
 1455POPC   C1B20587  27.464  21.768   8.670
 1455POPC   C2B20588  27.303  21.656   8.254
 1455POPC   C3B20589  27.451  21.781   7.840
 1455POPC   C4B20590  27.333  21.853   7.389
 1456POPC   NC320591  27.245  22.563   9.504
 1456POPC   PO420592  27.698  23.114   9.460
 1456POPC   GL120593  27.703  22.998   9.061
 1456POPC   GL220594  27.436  22.762   9.057
 1456POPC   C1A20595  27.768  23.152   8.633
 1456POPC   D2A20596  27.536  23.225   8.234
 1456POPC   C3A20597  27.749  23.016   7.874
 1456POPC   C4A20598  27.785  22.738   7.494
 1456POPC   C1B20599  27.342  22.862   8.641
 1456POPC   C2B20600  27.278  22.621   8.295
 1456POPC   C3B20601  27.416  22.627   7.871
 1456POPC   C4B20602  27.293  22.760   7.463
 1457POPC   NC320603  19.375  23.205   9.478
 1457POPC   PO420604  19.957  22.756   9.451
 1457POPC   GL120605  19.973  23.017   9.121
 1457POPC   GL220606  19.688  23.205   9.074
 1457POPC   C1A20607  19.925  22.779   8.751
 1457POPC   D2A20608  20.115  22.869   8.386
 1457POPC   C3A20609  20.096  22.731   7.963
 1457POPC   C4A20610  20.033  23.088   7.700
 1457POPC   C1B20611  19.449  23.001   8.768
 1457POPC   C2B20612  19.568  22.807   8.381
 1457POPC   C3B20613  19.650  22.962   7.998
 1457POPC   C4B20614  19.634  22.801   7.583
 1458POPC   NC320615  11.189  10.689   9.566
 1458POPC   PO420616  11.274  10.030   9.432
 1458POPC   GL120617  11.456  10.321   9.143
 1458POPC   GL220618  11.477  10.655   9.158
 1458POPC   C1A20619  11.397  10.427   8.730
 1458POPC   D2A20620  11.551  10.503   8.370
 1458POPC   C3A20621  11.295  10.228   8.169
 1458POPC   C4A20622  11.195  10.301   7.769
 1458POPC   C1B20623  11.141  10.818   8.916
 1458POPC   C2B20624  11.236  10.936   8.497
 1458POPC   C3B20625  11.198  10.758   8.095
 1458POPC   C4B20626  11.007  10.796   7.741
 1459POPC   NC320627  16.566  25.982   9.612
 1459POPC   PO420628  16.862  26.497   9.793
 1459POPC   GL120629  16.795  26.192   9.217
 1459POPC   GL220630  16.689  25.831   9.155
 1459POPC   C1A20631  16.601  26.358   8.743
 1459POPC   D2A20632  16.821  26.471   8.343
 1459POPC   C3A20633  16.781  26.230   8.002
 1459POPC   C4A20634  16.771  26.027   7.675
 1459POPC   C1B20635  16.486  25.877   8.796
 1459POPC   C2B20636  16.624  25.970   8.404
 1459POPC   C3B20637  16.401  25.888   8.043
 1459POPC   C4B20638  16.364  25.750   7.648
 1460POPC   NC320639  30.559  29.633   9.380
 1460POPC   PO420640  30.972  30.122   9.502
 1460POPC   GL120641  30.842  29.952   9.115
 1460POPC   GL220642  30.469  30.016   9.060
 1460POPC   C1A20643  30.823  29.764   8.722
 1460POPC   D2A20644  30.975  29.944   8.372
 1460POPC   C3A20645  30.805  29.761   8.019
 1460POPC   C4A20646  30.729  30.002   7.679
 1460POPC   C1B20647  30.331  29.737   8.721
 1460POPC   C2B20648  30.391  29.845   8.314
 1460POPC   C3B20649  30.297  29.805   7.910
 1460POPC   C4B20650  30.401  29.487   7.663
 1461POPC   NC320651  39.951  33.426   9.712
 1461POPC   PO420652  40.150  32.869   9.307
 1461POPC   GL120653  40.147  32.989   8.940
 1461POPC   GL220654  39.783  32.857   8.914
 1461POPC   C1A20655  40.264  32.792   8.605
 1461POPC   D2A20656  39.915  32.709   8.440
 1461POPC   C3A20657  39.991  32.999   8.112
 1461POPC   C4A20658  40.327  32.982   7.789
 1461POPC   C1B20659  39.833  33.184   8.591
 1461POPC   C2B20660  39.666  33.462   8.305
 1461POPC   C3B20661  39.456  33.299   7.971
 1461POPC   C4B20662  39.638  32.943   7.767
 1462POPC   NC320663   3.174  26.161   9.398
 1462POPC   PO420664   2.592  25.860   9.405
 1462POPC   GL120665   2.710  26.126   9.101
 1462POPC   GL220666   2.960  25.872   9.011
 1462POPC   C1A20667   2.469  26.218   8.737
 1462POPC   D2A20668   2.291  25.974   8.409
 1462POPC   C3A20669   2.496  26.145   8.070
 1462POPC   C4A20670   2.583  26.179   7.655
 1462POPC   C1B20671   2.674  25.697   8.705
 1462POPC   C2B20672   2.799  25.742   8.269
 1462POPC   C3B20673   3.006  25.987   7.919
 1462POPC   C4B20674   3.061  26.401   7.721
 1463POPC   NC320675  38.710  37.381   9.481
 1463POPC   PO420676  38.200  37.884   9.515
 1463POPC   GL120677  38.447  37.767   9.143
 1463POPC   GL220678  38.159  37.593   9.043
 1463POPC   C1A20679  38.531  37.652   8.683
 1463POPC   D2A20680  38.343  37.604   8.252
 1463POPC   C3A20681  38.545  37.913   7.951
 1463POPC   C4A20682  38.616  37.887   7.501
 1463POPC   C1B20683  38.119  37.318   8.671
 1463POPC   C2B20684  38.170  37.091   8.273
 1463POPC   C3B20685  38.079  37.268   7.899
 1463POPC   C4B20686  38.294  37.542   7.720
 1464POPC   NC320687  39.203  23.090   9.606
 1464POPC   PO420688  38.806  22.544   9.453
 1464POPC   GL120689  39.055  22.792   9.173
 1464POPC   GL220690  39.035  23.164   9.135
 1464POPC   C1A20691  39.029  22.704   8.745
 1464POPC   D2A20692  39.265  22.538   8.422
 1464POPC   C3A20693  39.158  22.779   8.062
 1464POPC   C4A20694  39.401  22.906   7.747
 1464POPC   C1B20695  38.950  23.333   8.730
 1464POPC   C2B20696  39.086  23.414   8.287
 1464POPC   C3B20697  39.027  23.248   7.842
 1464POPC   C4B20698  38.987  23.070   7.377
 1465POPC   NC320699   1.900  31.127   9.525
 1465POPC   PO420700   2.378  31.521   9.624
 1465POPC   GL120701   2.141  31.540   9.164
 1465POPC   GL220702   1.890  31.294   9.060
 1465POPC   C1A20703   1.954  31.646   8.707
 1465POPC   D2A20704   1.808  31.394   8.293
 1465POPC   C3A20705   1.914  31.583   7.925
 1465POPC   C4A20706   2.223  31.906   7.876
 1465POPC   C1B20707   1.993  31.113   8.692
 1465POPC   C2B20708   2.239  31.114   8.347
 1465POPC   C3B20709   2.263  31.205   7.917
 1465POPC   C4B20710   1.968  31.113   7.605
 1466POPC   NC320711  25.355   4.748   9.775
 1466POPC   PO420712  24.827   4.538   9.479
 1466POPC   GL120713  25.184   4.368   9.258
 1466POPC   GL220714  25.311   4.670   9.234
 1466POPC   C1A20715  25.450   4.370   8.858
 1466POPC   D2A20716  25.187   4.262   8.518
 1466POPC   C3A20717  25.266   4.274   8.076
 1466POPC   C4A20718  25.453   4.330   7.673
 1466POPC   C1B20719  24.986   4.618   8.827
 1466POPC   C2B20720  24.952   4.701   8.356
 1466POPC   C3B20721  24.881   4.578   7.904
 1466POPC   C4B20722  24.999   4.496   7.478
 1467POPC   NC320723  17.927  21.961   9.595
 1467POPC   PO420724  17.428  22.362   9.508
 1467POPC   GL120725  17.622  22.181   9.162
 1467POPC   GL220726  17.350  22.246   8.941
 1467POPC   C1A20727  17.789  22.091   8.719
 1467POPC   D2A20728  17.670  22.018   8.281
 1467POPC   C3A20729  17.602  22.346   7.980
 1467POPC   C4A20730  17.251  22.455   7.674
 1467POPC   C1B20731  17.145  22.027   8.587
 1467POPC   C2B20732  17.182  21.828   8.187
 1467POPC   C3B20733  17.364  21.936   7.797
 1467POPC   C4B20734  17.238  21.892   7.326
 1468POPC   NC320735  16.617  33.293   9.360
 1468POPC   PO420736  16.926  32.797   9.644
 1468POPC   GL120737  16.755  32.825   9.192
 1468POPC   GL220738  17.031  33.005   9.091
 1468POPC   C1A20739  16.640  33.066   8.764
 1468POPC   D2A20740  16.781  33.099   8.323
 1468POPC   C3A20741  16.637  32.721   8.121
 1468POPC   C4A20742  16.560  32.777   7.708
 1468POPC   C1B20743  17.139  32.952   8.694
 1468POPC   C2B20744  17.212  32.819   8.282
 1468POPC   C3B20745  17.069  32.849   7.889
 1468POPC   C4B20746  16.861  33.190   7.720
 1469POPC   NC320747   0.194  32.463   9.638
 1469POPC   PO420748   0.707  32.128   9.951
 1469POPC   GL120749   0.556  32.070   9.455
 1469POPC   GL220750   0.581  32.394   9.271
 1469POPC   C1A20751   0.427  31.978   8.984
 1469POPC   D2A20752   0.468  32.035   8.512
 1469POPC   C3A20753   0.267  31.966   8.110
 1469POPC   C4A20754   0.496  32.005   7.687
 1469POPC   C1B20755   0.632  32.408   8.801
 1469POPC   C2B20756   0.382  32.483   8.342
 1469POPC   C3B20757   0.312  32.445   7.884
 1469POPC   C4B20758   0.029  32.492   7.547
 1470POPC   NC320759   8.863   8.808   9.569
 1470POPC   PO420760   9.411   9.251   9.638
 1470POPC   GL120761   9.218   9.044   9.245
 1470POPC   GL220762   9.362   8.722   9.076
 1470POPC   C1A20763   8.907   9.021   8.907
 1470POPC   D2A20764   8.735   9.249   8.527
 1470POPC   C3A20765   8.811   9.054   8.116
 1470POPC   C4A20766   8.958   9.121   7.691
 1470POPC   C1B20767   9.397   9.031   8.733
 1470POPC   C2B20768   9.467   9.350   8.418
 1470POPC   C3B20769   9.316   9.159   8.061
 1470POPC   C4B20770   9.217   8.721   7.931
 1471POPC   NC320771  40.668  32.887   9.384
 1471POPC   PO420772  40.408  33.358   9.757
 1471POPC   GL120773  40.390  33.340   9.248
 1471POPC   GL220774  40.710  33.375   9.211
 1471POPC   C1A20775  40.624  33.099   8.800
 1471POPC   D2A20776  40.938  33.037   8.460
 1471POPC   C3A20777  40.713  32.855   8.123
 1471POPC   C4A20778  40.850  32.800   7.714
 1471POPC   C1B20779  40.654  33.584   8.833
 1471POPC   C2B20780  40.554  33.747   8.472
 1471POPC   C3B20781  40.730  33.480   8.179
 1471POPC   C4B20782  40.712  33.297   7.792
 1472POPC   NC320783  17.829   6.941   9.340
 1472POPC   PO420784  17.306   6.604   9.612
 1472POPC   GL120785  17.477   6.543   9.183
 1472POPC   GL220786  17.827   6.485   9.142
 1472POPC   C1A20787  17.540   6.710   8.748
 1472POPC   D2A20788  17.319   6.757   8.335
 1472POPC   C3A20789  17.466   6.881   7.923
 1472POPC   C4A20790  17.511   6.510   7.705
 1472POPC   C1B20791  17.904   6.297   8.774
 1472POPC   C2B20792  17.690   6.341   8.428
 1472POPC   C3B20793  17.798   6.527   8.114
 1472POPC   C4B20794  17.952   6.271   7.821
 1473POPC   NC320795  35.174  20.333   9.433
 1473POPC   PO420796  35.445  19.756   9.625
 1473POPC   GL120797  35.290  19.774   9.247
 1473POPC   GL220798  35.574  19.610   9.102
 1473POPC   C1A20799  35.130  19.888   8.854
 1473POPC   D2A20800  35.329  19.926   8.462
 1473POPC   C3A20801  35.121  20.115   8.127
 1473POPC   C4A20802  35.196  19.962   7.737
 1473POPC   C1B20803  35.729  19.408   8.729
 1473POPC   C2B20804  35.642  19.254   8.315
 1473POPC   C3B20805  35.443  19.485   7.981
 1473POPC   C4B20806  35.589  19.650   7.586
 1474POPC   NC320807  15.332   7.894   9.503
 1474POPC   PO420808  15.112   8.498   9.352
 1474POPC   GL120809  15.114   8.157   9.089
 1474POPC   GL220810  15.455   8.119   9.057
 1474POPC   C1A20811  15.160   8.232   8.639
 1474POPC   D2A20812  15.207   8.028   8.254
 1474POPC   C3A20813  14.949   8.098   7.952
 1474POPC   C4A20814  14.994   8.192   7.559
 1474POPC   C1B20815  15.582   8.495   8.798
 1474POPC   C2B20816  15.426   8.615   8.369
 1474POPC   C3B20817  15.366   8.474   7.924
 1474POPC   C4B20818  15.489   8.343   7.489
 1475POPC   NC320819  32.400   2.024   9.345
 1475POPC   PO420820  31.749   2.106   9.407
 1475POPC   GL120821  31.946   1.846   9.073
 1475POPC   GL220822  32.118   2.128   8.918
 1475POPC   C1A20823  32.182   1.713   8.659
 1475POPC   D2A20824  32.292   1.947   8.323
 1475POPC   C3A20825  32.131   1.907   7.969
 1475POPC   C4A20826  32.012   1.586   7.743
 1475POPC   C1B20827  32.523   2.157   8.719
 1475POPC   C2B20828  32.578   2.351   8.308
 1475POPC   C3B20829  32.464   2.284   7.857
 1475POPC   C4B20830  32.504   1.975   7.528
 1476POPC   NC320831  31.409  36.174   9.909
 1476POPC   PO420832  31.323  35.874   9.306
 1476POPC   GL120833  31.530  35.958   8.970
 1476POPC   GL220834  31.925  35.896   9.072
 1476POPC   C1A20835  31.309  36.065   8.618
 1476POPC   D2A20836  31.159  36.357   8.374
 1476POPC   C3A20837  31.439  36.382   8.054
 1476POPC   C4A20838  31.194  36.316   7.704
 1476POPC   C1B20839  31.914  36.128   8.704
 1476POPC   C2B20840  31.725  36.039   8.324
 1476POPC   C3B20841  31.868  36.055   7.922
 1476POPC   C4B20842  31.786  35.843   7.542
 1477POPC   NC320843  35.539  36.568   9.427
 1477POPC   PO420844  35.421  35.947   9.776
 1477POPC   GL120845  35.417  35.947   9.181
 1477POPC   GL220846  35.354  36.243   8.958
 1477POPC   C1A20847  35.241  35.778   8.786
 1477POPC   D2A20848  35.231  36.047   8.409
 1477POPC   C3A20849  35.514  35.839   8.104
 1477POPC   C4A20850  35.455  35.670   7.701
 1477POPC   C1B20851  35.562  36.573   8.752
 1477POPC   C2B20852  35.518  36.719   8.337
 1477POPC   C3B20853  35.583  36.455   7.990
 1477POPC   C4B20854  35.415  36.180   7.712
 1478POPC   NC320855   1.825  14.291   9.349
 1478POPC   PO420856   2.414  14.516   9.284
 1478POPC   GL120857   2.153  14.465   8.948
 1478POPC   GL220858   1.836  14.672   9.002
 1478POPC   C1A20859   2.012  14.582   8.542
 1478POPC   D2A20860   1.793  14.328   8.295
 1478POPC   C3A20861   2.067  14.117   7.998
 1478POPC   C4A20862   2.316  14.476   7.829
 1478POPC   C1B20863   1.500  14.625   8.671
 1478POPC   C2B20864   1.586  14.838   8.285
 1478POPC   C3B20865   1.968  14.787   8.062
 1478POPC   C4B20866   1.807  14.485   7.779
 1479POPC   NC320867  35.788  20.898   9.441
 1479POPC   PO420868  36.068  20.362   9.510
 1479POPC   GL120869  35.986  20.539   9.124
 1479POPC   GL220870  36.214  20.834   9.072
 1479POPC   C1A20871  36.049  20.532   8.714
 1479POPC   D2A20872  36.328  20.592   8.390
 1479POPC   C3A20873  36.108  20.378   8.097
 1479POPC   C4A20874  35.861  20.460   7.763
 1479POPC   C1B20875  36.209  21.058   8.633
 1479POPC   C2B20876  36.233  21.055   8.168
 1479POPC   C3B20877  36.343  20.762   7.852
 1479POPC   C4B20878  36.652  20.415   7.934
 1480POPC   NC320879  38.113  44.881   9.555
 1480POPC   PO420880  38.816  44.596   9.642
 1480POPC   GL120881  38.595  44.654   9.234
 1480POPC   GL220882  38.260  44.481   9.274
 1480POPC   C1A20883  38.535  44.491   8.834
 1480POPC   D2A20884  38.674  44.336   8.434
 1480POPC   C3A20885  38.762  44.684   8.163
 1480POPC   C4A20886  38.573  44.815   7.777
 1480POPC   C1B20887  38.088  44.255   8.919
 1480POPC   C2B20888  38.170  44.396   8.492
 1480POPC   C3B20889  38.277  44.556   8.126
 1480POPC   C4B20890  38.191  44.456   7.723
 1481POPC   NC320891   5.190  11.908   9.589
 1481POPC   PO420892   4.727  12.254   9.440
 1481POPC   GL120893   4.831  11.942   9.156
 1481POPC   GL220894   4.555  11.747   8.993
 1481POPC   C1A20895   4.932  11.950   8.712
 1481POPC   D2A20896   4.788  12.023   8.293
 1481POPC   C3A20897   5.115  12.163   8.050
 1481POPC   C4A20898   5.243  12.147   7.621
 1481POPC   C1B20899   4.567  11.600   8.566
 1481POPC   C2B20900   4.564  11.607   8.104
 1481POPC   C3B20901   4.858  11.793   7.804
 1481POPC   C4B20902   4.869  11.941   7.348
 1482POPC   NC320903  17.656  23.758   9.735
 1482POPC   PO420904  18.356  23.820   9.472
 1482POPC   GL120905  18.321  23.606   9.093
 1482POPC   GL220906  18.688  23.623   9.063
 1482POPC   C1A20907  18.068  23.488   8.696
 1482POPC   D2A20908  17.823  23.688   8.376
 1482POPC   C3A20909  17.987  23.661   7.986
 1482POPC   C4A20910  18.047  23.606   7.560
 1482POPC   C1B20911  18.522  23.753   8.658
 1482POPC   C2B20912  18.419  23.564   8.287
 1482POPC   C3B20913  18.454  23.538   7.859
 1482POPC   C4B20914  18.474  23.980   7.808
 1483POPC   NC320915  35.118   6.747   9.981
 1483POPC   PO420916  35.381   6.388   9.491
 1483POPC   GL120917  35.302   6.464   9.086
 1483POPC   GL220918  35.359   6.802   8.978
 1483POPC   C1A20919  35.294   6.354   8.665
 1483POPC   D2A20920  35.508   6.535   8.326
 1483POPC   C3A20921  35.258   6.726   8.029
 1483POPC   C4A20922  35.435   6.632   7.654
 1483POPC   C1B20923  34.991   6.934   8.719
 1483POPC   C2B20924  34.837   7.109   8.318
 1483POPC   C3B20925  34.879   7.041   7.880
 1483POPC   C4B20926  35.176   7.082   7.597
 1484POPC   NC320927  22.673  16.247   9.615
 1484POPC   PO420928  23.205  15.854   9.617
 1484POPC   GL120929  22.966  16.037   9.237
 1484POPC   GL220930  22.593  16.085   9.157
 1484POPC   C1A20931  23.009  16.212   8.823
 1484POPC   D2A20932  23.218  16.010   8.453
 1484POPC   C3A20933  23.174  15.934   8.026
 1484POPC   C4A20934  23.223  16.315   7.767
 1484POPC   C1B20935  22.449  16.083   8.752
 1484POPC   C2B20936  22.727  16.119   8.410
 1484POPC   C3B20937  22.779  16.233   8.023
 1484POPC   C4B20938  22.842  16.013   7.637
 1485POPC   NC320939  14.753  11.323   9.409
 1485POPC   PO420940  15.374  11.280   9.533
 1485POPC   GL120941  15.163  11.382   9.103
 1485POPC   GL220942  14.911  11.649   9.064
 1485POPC   C1A20943  15.245  11.529   8.659
 1485POPC   D2A20944  15.400  11.308   8.374
 1485POPC   C3A20945  15.460  11.550   8.055
 1485POPC   C4A20946  15.544  11.405   7.674
 1485POPC   C1B20947  14.742  11.528   8.676
 1485POPC   C2B20948  14.912  11.461   8.261
 1485POPC   C3B20949  14.964  11.574   7.852
 1485POPC   C4B20950  14.993  11.602   7.415
 1486POPC   NC320951  43.050  14.837   9.606
 1486POPC   PO420952  43.131  15.414   9.407
 1486POPC   GL120953  43.090  15.100   9.152
 1486POPC   GL220954  43.403  15.008   9.057
 1486POPC   C1A20955  42.852  14.962   8.842
 1486POPC   D2A20956  42.928  14.988   8.451
 1486POPC   C3A20957  42.744  14.841   8.105
 1486POPC   C4A20958  42.841  15.143   7.803
 1486POPC   C1B20959  43.399  15.138   8.623
 1486POPC   C2B20960  43.298  15.208   8.180
 1486POPC   C3B20961  43.138  15.530   7.926
 1486POPC   C4B20962  43.076  15.458   7.484
 1487POPC   NC320963  25.005  35.666   9.508
 1487POPC   PO420964  25.393  36.123   9.767
 1487POPC   GL120965  25.314  36.079   9.315
 1487POPC   GL220966  25.087  36.360   9.283
 1487POPC   C1A20967  25.440  35.936   8.888
 1487POPC   D2A20968  25.439  36.191   8.531
 1487POPC   C3A20969  25.377  36.007   8.141
 1487POPC   C4A20970  25.318  35.921   7.724
 1487POPC   C1B20971  25.133  36.537   8.872
 1487POPC   C2B20972  25.216  36.648   8.467
 1487POPC   C3B20973  25.272  36.503   8.114
 1487POPC   C4B20974  25.128  36.611   7.745
 1488POPC   NC320975  21.469  30.176   9.412
 1488POPC   PO420976  21.290  29.603   9.538
 1488POPC   GL120977  21.199  29.841   9.149
 1488POPC   GL220978  21.520  29.911   8.972
 1488POPC   C1A20979  21.071  30.075   8.770
 1488POPC   D2A20980  20.937  29.873   8.401
 1488POPC   C3A20981  21.162  29.906   8.032
 1488POPC   C4A20982  21.465  30.218   8.058
 1488POPC   C1B20983  21.464  29.887   8.514
 1488POPC   C2B20984  21.600  29.647   8.211
 1488POPC   C3B20985  21.647  29.779   7.834
 1488POPC   C4B20986  21.542  29.625   7.458
 1489POPC   NC320987  28.129  28.352   9.614
 1489POPC   PO420988  28.787  28.301   9.670
 1489POPC   GL120989  28.492  28.332   9.228
 1489POPC   GL220990  28.205  28.602   9.191
 1489POPC   C1A20991  28.375  28.189   8.762
 1489POPC   D2A20992  28.302  28.005   8.351
 1489POPC   C3A20993  28.218  28.233   7.974
 1489POPC   C4A20994  28.433  28.104   7.596
 1489POPC   C1B20995  28.431  28.671   8.813
 1489POPC   C2B20996  28.236  28.610   8.387
 1489POPC   C3B20997  28.438  28.702   8.005
 1489POPC   C4B20998  28.384  28.866   7.584
 1490POPC   NC320999  38.542  41.316   9.458
 1490POPC   PO421000  38.071  41.835   9.596
 1490POPC   GL121001  38.343  41.718   9.202
 1490POPC   GL221002  38.616  41.966   9.110
 1490POPC   C1A21003  38.610  41.542   8.799
 1490POPC   D2A21004  38.850  41.505   8.392
 1490POPC   C3A21005  38.744  41.304   7.982
 1490POPC   C4A21006  38.455  41.406   7.651
 1490POPC   C1B21007  38.268  41.966   8.772
 1490POPC   C2B21008  38.249  41.750   8.394
 1490POPC   C3B21009  38.460  41.732   8.025
 1490POPC   C4B21010  38.356  41.958   7.609
 1491POPC   NC321011   4.280  12.335   9.528
 1491POPC   PO421012   4.284  11.663   9.522
 1491POPC   GL121013   4.138  11.989   9.179
 1491POPC   GL221014   4.413  12.232   9.051
 1491POPC   C1A21015   4.057  12.108   8.742
 1491POPC   D2A21016   4.228  11.953   8.355
 1491POPC   C3A21017   3.967  12.146   8.014
 1491POPC   C4A21018   3.963  12.099   7.552
 1491POPC   C1B21019   4.514  12.307   8.618
 1491POPC   C2B21020   4.405  12.386   8.183
 1491POPC   C3B21021   4.470  12.159   7.876
 1491POPC   C4B21022   4.778  12.318   7.661
 1492POPC   NC321023  14.440  10.365   9.550
 1492POPC   PO421024  14.432  10.991   9.363
 1492POPC   GL121025  14.260  10.643   9.074
 1492POPC   GL221026  14.301  10.267   9.075
 1492POPC   C1A21027  14.403  10.559   8.628
 1492POPC   D2A21028  14.711  10.508   8.276
 1492POPC   C3A21029  14.549  10.446   7.846
 1492POPC   C4A21030  14.532  10.687   7.433
 1492POPC   C1B21031  14.111  10.148   8.699
 1492POPC   C2B21032  13.903  10.431   8.423
 1492POPC   C3B21033  13.920  10.552   7.990
 1492POPC   C4B21034  14.106  10.415   7.589
 1493POPC   NC321035  12.055  27.818   9.530
 1493POPC   PO421036  12.463  27.437   9.267
 1493POPC   GL121037  12.127  27.544   9.034
 1493POPC   GL221038  11.900  27.842   9.025
 1493POPC   C1A21039  12.222  27.718   8.634
 1493POPC   D2A21040  12.457  27.996   8.371
 1493POPC   C3A21041  12.254  27.729   8.058
 1493POPC   C4A21042  11.923  27.502   7.804
 1493POPC   C1B21043  11.645  27.986   8.656
 1493POPC   C2B21044  11.737  27.877   8.212
 1493POPC   C3B21045  11.523  27.819   7.841
 1493POPC   C4B21046  11.591  27.800   7.385
 1494POPC   NC321047  40.066   2.261   9.735
 1494POPC   PO421048  39.827   2.839   9.649
 1494POPC   GL121049  40.126   2.931   9.213
 1494POPC   GL221050  39.902   3.125   9.041
 1494POPC   C1A21051  40.139   2.729   8.774
 1494POPC   D2A21052  40.151   2.892   8.369
 1494POPC   C3A21053  40.128   2.609   8.039
 1494POPC   C4A21054  40.288   2.557   7.664
 1494POPC   C1B21055  39.609   2.903   8.784
 1494POPC   C2B21056  39.474   2.998   8.361
 1494POPC   C3B21057  39.766   3.006   8.029
 1494POPC   C4B21058  40.040   3.041   7.670
 1495POPC   NC321059  37.638  24.136   9.411
 1495POPC   PO421060  37.891  24.681   9.455
 1495POPC   GL121061  37.726  24.525   9.081
 1495POPC   GL221062  37.523  24.810   8.987
 1495POPC   C1A21063  37.334  24.351   8.863
 1495POPC   D2A21064  37.378  24.165   8.447
 1495POPC   C3A21065  37.437  24.450   8.120
 1495POPC   C4A21066  37.476  24.312   7.711
 1495POPC   C1B21067  37.663  24.602   8.580
 1495POPC   C2B21068  37.952  24.368   8.330
 1495POPC   C3B21069  37.938  24.405   7.903
 1495POPC   C4B21070  37.730  24.805   7.791
 1496POPC   NC321071  29.253  17.956   9.641
 1496POPC   PO421072  29.000  18.546   9.466
 1496POPC   GL121073  29.212  18.289   9.168
 1496POPC   GL221074  29.520  18.110   9.218
 1496POPC   C1A21075  29.069  18.236   8.756
 1496POPC   D2A21076  28.792  18.179   8.409
 1496POPC   C3A21077  28.908  18.352   7.989
 1496POPC   C4A21078  28.779  18.188   7.582
 1496POPC   C1B21079  29.592  18.214   8.777
 1496POPC   C2B21080  29.397  18.223   8.374
 1496POPC   C3B21081  29.457  18.113   7.960
 1496POPC   C4B21082  29.286  18.213   7.561
 1497POPC   NC321083  42.702   2.701   9.331
 1497POPC   PO421084  43.256   2.580   9.636
 1497POPC   GL121085  43.238   2.720   9.166
 1497POPC   GL221086  42.980   2.930   8.968
 1497POPC   C1A21087  43.382   2.718   8.731
 1497POPC   D2A21088  43.205   2.591   8.332
 1497POPC   C3A21089  43.398   2.488   7.937
 1497POPC   C4A21090  43.246   2.691   7.522
 1497POPC   C1B21091  42.817   2.583   8.688
 1497POPC   C2B21092  42.709   2.512   8.254
 1497POPC   C3B21093  42.864   2.583   7.849
 1497POPC   C4B21094  42.806   2.501   7.391
 1498POPC   NC321095   6.052  10.301   9.503
 1498POPC   PO421096   5.744  10.935   9.669
 1498POPC   GL121097   5.828  10.710   9.276
 1498POPC   GL221098   5.472  10.649   9.194
 1498POPC   C1A21099   6.046  10.590   8.886
 1498POPC   D2A21100   6.033  10.269   8.570
 1498POPC   C3A21101   6.053  10.345   8.149
 1498POPC   C4A21102   5.827  10.319   7.763
 1498POPC   C1B21103   5.611  10.875   8.812
 1498POPC   C2B21104   5.791  10.723   8.430
 1498POPC   C3B21105   5.766  10.769   7.986
 1498POPC   C4B21106   5.897  10.795   7.546
 1499POPC   NC321107  21.628  38.461   9.510
 1499POPC   PO421108  21.011  38.559   9.478
 1499POPC   GL121109  21.145  38.415   9.080
 1499POPC   GL221110  21.469  38.527   9.037
 1499POPC   C1A21111  21.246  38.314   8.658
 1499POPC   D2A21112  21.510  38.410   8.331
 1499POPC   C3A21113  21.299  38.417   7.955
 1499POPC   C4A21114  21.332  38.190   7.570
 1499POPC   C1B21115  21.788  38.702   8.722
 1499POPC   C2B21116  21.971  38.643   8.312
 1499POPC   C3B21117  21.715  38.784   7.950
 1499POPC   C4B21118  21.388  38.790   7.619
 1500POPC   NC321119  32.460  20.213   9.539
 1500POPC   PO421120  31.978  20.648   9.585
 1500POPC   GL121121  32.218  20.839   9.293
 1500POPC   GL221122  32.570  20.769   9.284
 1500POPC   C1A21123  32.222  20.895   8.861
 1500POPC   D2A21124  32.007  20.844   8.502
 1500POPC   C3A21125  32.139  20.848   8.134
 1500POPC   C4A21126  32.086  20.600   7.788
 1500POPC   C1B21127  32.513  20.485   8.944
 1500POPC   C2B21128  32.443  20.554   8.525
 1500POPC   C3B21129  32.490  20.452   8.079
 1500POPC   C4B21130  32.428  20.233   7.676
 1501POPC   NC321131   4.087  19.974   9.388
 1501POPC   PO421132   4.358  19.342   9.502
 1501POPC   GL121133   4.451  19.643   9.157
 1501POPC   GL221134   4.686  19.912   9.138
 1501POPC   C1A21135   4.317  19.860   8.762
 1501POPC   D2A21136   4.037  19.698   8.455
 1501POPC   C3A21137   4.155  19.740   8.030
 1501POPC   C4A21138   3.976  19.517   7.659
 1501POPC   C1B21139   4.697  20.213   8.781
 1501POPC   C2B21140   4.582  20.147   8.360
 1501POPC   C3B21141   4.613  20.041   7.928
 1501POPC   C4B21142   4.359  19.888   7.590
 1502POPC   NC321143  41.316   7.104   9.517
 1502POPC   PO421144  41.656   7.680   9.446
 1502POPC   GL121145  41.562   7.399   9.147
 1502POPC   GL221146  41.634   7.688   8.928
 1502POPC   C1A21147  41.332   7.295   8.777
 1502POPC   D2A21148  41.314   7.569   8.379
 1502POPC   C3A21149  41.371   7.385   7.928
 1502POPC   C4A21150  41.140   7.080   7.668
 1502POPC   C1B21151  41.811   7.431   8.619
 1502POPC   C2B21152  41.795   7.461   8.202
 1502POPC   C3B21153  41.812   7.677   7.829
 1502POPC   C4B21154  41.888   7.576   7.401
 1503POPC   NC321155   3.254   5.088   9.379
 1503POPC   PO421156   2.637   4.995   9.638
 1503POPC   GL121157   2.603   4.756   9.219
 1503POPC   GL221158   2.932   4.797   9.106
 1503POPC   C1A21159   2.534   4.824   8.748
 1503POPC   D2A21160   2.480   4.901   8.316
 1503POPC   C3A21161   2.793   5.052   8.004
 1503POPC   C4A21162   2.913   4.686   7.743
 1503POPC   C1B21163   2.865   5.188   8.857
 1503POPC   C2B21164   2.975   5.017   8.480
 1503POPC   C3B21165   3.169   4.770   8.174
 1503POPC   C4B21166   3.297   4.980   7.803
 1504POPC   NC321167  18.498  18.922   9.539
 1504POPC   PO421168  17.950  18.816   9.274
 1504POPC   GL121169  18.321  18.838   9.052
 1504POPC   GL221170  18.328  19.153   9.104
 1504POPC   C1A21171  18.473  18.978   8.651
 1504POPC   D2A21172  18.375  18.796   8.286
 1504POPC   C3A21173  18.293  19.011   7.945
 1504POPC   C4A21174  18.401  18.868   7.587
 1504POPC   C1B21175  18.175  19.397   8.771
 1504POPC   C2B21176  18.212  19.347   8.338
 1504POPC   C3B21177  18.369  19.524   7.952
 1504POPC   C4B21178  18.301  19.420   7.513
 1505POPC   NC321179  15.676  18.126   9.566
 1505POPC   PO421180  16.199  18.587   9.410
 1505POPC   GL121181  15.930  18.327   9.175
 1505POPC   GL221182  15.983  17.958   9.211
 1505POPC   C1A21183  15.703  18.312   8.838
 1505POPC   D2A21184  15.794  18.189   8.463
 1505POPC   C3A21185  15.780  18.433   8.098
 1505POPC   C4A21186  15.954  18.368   7.702
 1505POPC   C1B21187  16.143  17.893   8.811
 1505POPC   C2B21188  16.230  17.904   8.394
 1505POPC   C3B21189  15.964  17.953   8.041
 1505POPC   C4B21190  16.085  17.824   7.659
 1506POPC   NC321191  39.695  25.596   9.490
 1506POPC   PO421192  40.051  25.029   9.785
 1506POPC   GL121193  40.025  25.131   9.254
 1506POPC   GL221194  39.988  25.452   9.090
 1506POPC   C1A21195  39.974  25.034   8.773
 1506POPC   D2A21196  39.774  25.093   8.340
 1506POPC   C3A21197  39.978  25.075   7.926
 1506POPC   C4A21198  39.765  25.148   7.522
 1506POPC   C1B21199  40.085  25.543   8.652
 1506POPC   C2B21200  40.084  25.496   8.192
 1506POPC   C3B21201  39.990  25.646   7.800
 1506POPC   C4B21202  40.063  25.536   7.378
 1507POPC   NC321203  13.182  12.542   9.499
 1507POPC   PO421204  12.532  12.782   9.309
 1507POPC   GL121205  12.853  12.584   9.102
 1507POPC   GL221206  13.053  12.904   9.130
 1507POPC   C1A21207  12.869  12.662   8.679
 1507POPC   D2A21208  12.604  12.921   8.421
 1507POPC   C3A21209  12.677  12.744   8.039
 1507POPC   C4A21210  13.011  12.677   7.749
 1507POPC   C1B21211  13.225  13.052   8.719
 1507POPC   C2B21212  13.103  12.920   8.285
 1507POPC   C3B21213  13.014  13.151   7.949
 1507POPC   C4B21214  13.254  13.443   7.679
 1508POPC   NC321215   2.924   1.386   9.412
 1508POPC   PO421216   2.533   0.837   9.454
 1508POPC   GL121217   2.550   1.130   9.126
 1508POPC   GL221218   2.907   1.021   9.058
 1508POPC   C1A21219   2.651   1.287   8.699
 1508POPC   D2A21220   2.993   1.415   8.415
 1508POPC   C3A21221   2.768   1.450   8.046
 1508POPC   C4A21222   2.852   1.282   7.674
 1508POPC   C1B21223   2.916   0.856   8.643
 1508POPC   C2B21224   2.790   0.967   8.232
 1508POPC   C3B21225   2.477   1.045   7.934
 1508POPC   C4B21226   2.485   0.964   7.493
 1509POPC   NC321227  15.872  20.749   9.602
 1509POPC   PO421228  16.015  20.113   9.505
 1509POPC   GL121229  15.949  20.434   9.187
 1509POPC   GL221230  16.141  20.759   9.177
 1509POPC   C1A21231  16.015  20.422   8.758
 1509POPC   D2A21232  15.820  20.649   8.439
 1509POPC   C3A21233  15.915  20.571   8.019
 1509POPC   C4A21234  15.721  20.742   7.646
 1509POPC   C1B21235  15.889  20.940   8.871
 1509POPC   C2B21236  15.978  21.132   8.472
 1509POPC   C3B21237  15.917  21.080   8.028
 1509POPC   C4B21238  16.187  20.873   7.698
 1510POPC   NC321239   0.568   0.171   9.466
 1510POPC   PO421240   0.862   0.820   9.231
 1510POPC   GL121241   0.541   0.527   9.094
 1510POPC   GL221242   0.279   0.253   9.062
 1510POPC   C1A21243   0.586   0.446   8.693
 1510POPC   D2A21244   0.543   0.702   8.336
 1510POPC   C3A21245   0.657   0.472   7.973
 1510POPC   C4A21246   0.517   0.492   7.540
 1510POPC   C1B21247   0.143   0.077   8.697
 1510POPC   C2B21248   0.302   0.232   8.324
 1510POPC   C3B21249   0.191   0.280   7.939
 1510POPC   C4B21250   0.275   0.058   7.597
 1511POPC   NC321251  39.696  12.948   9.591
 1511POPC   PO421252  40.328  13.073   9.615
 1511POPC   GL121253  40.170  12.813   9.234
 1511POPC   GL221254  39.868  12.574   9.242
 1511POPC   C1A21255  39.921  12.919   8.849
 1511POPC   D2A21256  39.711  12.996   8.464
 1511POPC   C3A21257  39.952  12.969   8.096
 1511POPC   C4A21258  39.789  12.914   7.688
 1511POPC   C1B21259  39.876  12.406   8.836
 1511POPC   C2B21260  40.023  12.561   8.467
 1511POPC   C3B21261  39.994  12.469   8.037
 1511POPC   C4B21262  40.251  12.694   7.749
 1512POPC   NC321263   9.106   0.018   9.462
 1512POPC   PO421264   8.471   0.231   9.507
 1512POPC   GL121265   8.759   0.487   9.252
 1512POPC   GL221266   8.978   0.268   9.036
 1512POPC   C1A21267   8.750   0.718   8.839
 1512POPC   D2A21268   9.007   0.756   8.464
 1512POPC   C3A21269   8.874   0.626   8.040
 1512POPC   C4A21270   9.074   0.677   7.637
 1512POPC   C1B21271   9.252   0.342   8.680
 1512POPC   C2B21272   9.356   0.196   8.242
 1512POPC   C3B21273   9.191   0.218   7.817
 1512POPC   C4B21274   9.139   0.226   7.354
 1513POPC   NC321275   3.963   8.586   9.704
 1513POPC   PO421276   4.347   9.085   9.657
 1513POPC   GL121277   4.441   9.135   9.208
 1513POPC   GL221278   4.582   8.815   9.132
 1513POPC   C1A21279   4.480   9.351   8.817
 1513POPC   D2A21280   4.399   9.181   8.422
 1513POPC   C3A21281   4.231   9.339   8.061
 1513POPC   C4A21282   4.311   9.114   7.696
 1513POPC   C1B21283   4.732   8.898   8.712
 1513POPC   C2B21284   4.709   8.785   8.277
 1513POPC   C3B21285   4.637   8.706   7.846
 1513POPC   C4B21286   4.528   8.722   7.417
 1514POPC   NC321287  31.164  16.030   9.524
 1514POPC   PO421288  31.816  15.747   9.501
 1514POPC   GL121289  31.719  15.922   9.116
 1514POPC   GL221290  31.352  16.043   9.054
 1514POPC   C1A21291  31.725  16.084   8.722
 1514POPC   D2A21292  31.432  16.005   8.420
 1514POPC   C3A21293  31.621  16.113   8.056
 1514POPC   C4A21294  31.795  16.052   7.683
 1514POPC   C1B21295  31.049  15.845   8.784
 1514POPC   C2B21296  31.045  15.686   8.372
 1514POPC   C3B21297  30.987  15.942   8.023
 1514POPC   C4B21298  31.248  16.024   7.678
 1515POPC   NC321299  43.739  14.552   9.188
 1515POPC   PO421300  43.301  14.466   9.727
 1515POPC   GL121301  43.047  14.354   9.375
 1515POPC   GL221302  43.143  14.587   9.171
 1515POPC   C1A21303  43.042  14.144   8.960
 1515POPC   D2A21304  43.095  14.167   8.543
 1515POPC   C3A21305  42.908  14.056   8.181
 1515POPC   C4A21306  43.185  14.229   7.830
 1515POPC   C1B21307  43.213  14.628   8.744
 1515POPC   C2B21308  43.312  14.662   8.325
 1515POPC   C3B21309  43.230  14.749   7.897
 1515POPC   C4B21310  42.866  14.654   7.634
 1516POPC   NC321311  21.880   4.876   9.540
 1516POPC   PO421312  22.130   5.422   9.534
 1516POPC   GL121313  22.181   5.191   9.172
 1516POPC   GL221314  21.997   4.894   9.042
 1516POPC   C1A21315  22.217   5.270   8.743
 1516POPC   D2A21316  22.362   5.124   8.371
 1516POPC   C3A21317  22.267   5.301   7.975
 1516POPC   C4A21318  21.965   5.173   7.685
 1516POPC   C1B21319  22.010   4.789   8.606
 1516POPC   C2B21320  21.967   4.875   8.162
 1516POPC   C3B21321  21.980   4.684   7.763
 1516POPC   C4B21322  21.834   4.740   7.375
 1517POPC   NC321323  18.567  11.280   9.645
 1517POPC   PO421324  18.010  11.633   9.599
 1517POPC   GL121325  18.013  11.649   9.154
 1517POPC   GL221326  18.312  11.510   9.031
 1517POPC   C1A21327  17.894  11.350   8.813
 1517POPC   D2A21328  17.830  11.113   8.441
 1517POPC   C3A21329  17.975  11.282   8.073
 1517POPC   C4A21330  18.069  11.132   7.674
 1517POPC   C1B21331  18.347  11.230   8.623
 1517POPC   C2B21332  18.379  10.995   8.236
 1517POPC   C3B21333  18.511  11.252   7.901
 1517POPC   C4B21334  18.297  11.580   7.787
 1518POPC   NC321335  19.422  33.789   9.483
 1518POPC   PO421336  19.895  33.393   9.705
 1518POPC   GL121337  19.880  33.767   9.274
 1518POPC   GL221338  19.896  33.552   8.927
 1518POPC   C1A21339  19.653  33.972   8.878
 1518POPC   D2A21340  19.667  33.790   8.459
 1518POPC   C3A21341  19.739  34.073   8.105
 1518POPC   C4A21342  19.912  34.014   7.696
 1518POPC   C1B21343  19.605  33.309   8.649
 1518POPC   C2B21344  19.441  33.371   8.244
 1518POPC   C3B21345  19.637  33.594   7.889
 1518POPC   C4B21346  19.736  33.602   7.430
 1519POPC   NC321347  11.138  43.696   9.435
 1519POPC   PO421348  11.497  44.298   9.554
 1519POPC   GL121349  11.575  44.018   9.214
 1519POPC   GL221350  11.889  44.175   9.201
 1519POPC   C1A21351  11.447  43.788   8.805
 1519POPC   D2A21352  11.306  43.635   8.390
 1519POPC   C3A21353  11.384  43.829   7.970
 1519POPC   C4A21354  11.633  43.546   7.687
 1519POPC   C1B21355  11.749  44.235   8.775
 1519POPC   C2B21356  11.587  44.075   8.391
 1519POPC   C3B21357  11.700  44.267   8.008
 1519POPC   C4B21358  11.515  44.216   7.630
 1520POPC   NC321359  15.602  21.519   9.568
 1520POPC   PO421360  16.187  21.092   9.615
 1520POPC   GL121361  16.041  21.320   9.228
 1520POPC   GL221362  16.088  21.682   9.281
 1520POPC   C1A21363  15.823  21.468   8.830
 1520POPC   D2A21364  15.542  21.382   8.467
 1520POPC   C3A21365  15.680  21.559   8.072
 1520POPC   C4A21366  15.917  21.497   7.688
 1520POPC   C1B21367  16.175  21.828   8.861
 1520POPC   C2B21368  16.201  21.627   8.446
 1520POPC   C3B21369  16.220  21.723   8.029
 1520POPC   C4B21370  16.394  21.891   7.663
 1521POPC   NC321371  36.203  39.025   9.529
 1521POPC   PO421372  35.734  39.484   9.380
 1521POPC   GL121373  36.110  39.426   9.116
 1521POPC   GL221374  36.227  39.075   9.011
 1521POPC   C1A21375  36.256  39.456   8.672
 1521POPC   D2A21376  36.432  39.368   8.272
 1521POPC   C3A21377  36.206  39.507   7.912
 1521POPC   C4A21378  36.333  39.452   7.508
 1521POPC   C1B21379  36.029  38.988   8.608
 1521POPC   C2B21380  36.028  39.071   8.165
 1521POPC   C3B21381  36.113  38.973   7.760
 1521POPC   C4B21382  36.077  39.056   7.322
 1522POPC   NC321383  23.407  23.715   9.407
 1522POPC   PO421384  24.086  23.568   9.650
 1522POPC   GL121385  23.900  23.599   9.198
 1522POPC   GL221386  24.025  23.891   8.970
 1522POPC   C1A21387  23.651  23.611   8.792
 1522POPC   D2A21388  23.657  23.797   8.393
 1522POPC   C3A21389  23.568  23.566   8.046
 1522POPC   C4A21390  23.532  23.612   7.661
 1522POPC   C1B21391  23.968  24.155   8.628
 1522POPC   C2B21392  23.981  24.152   8.184
 1522POPC   C3B21393  23.751  24.037   7.863
 1522POPC   C4B21394  23.931  23.880   7.495
 1523POPC   NC321395  13.536   5.381   9.697
 1523POPC   PO421396  13.878   5.870   9.494
 1523POPC   GL121397  13.660   5.780   9.128
 1523POPC   GL221398  13.464   5.486   9.194
 1523POPC   C1A21399  13.702   5.945   8.708
 1523POPC   D2A21400  13.525   5.910   8.338
 1523POPC   C3A21401  13.596   6.222   8.068
 1523POPC   C4A21402  13.796   6.135   7.696
 1523POPC   C1B21403  13.713   5.392   8.794
 1523POPC   C2B21404  13.830   5.493   8.360
 1523POPC   C3B21405  13.782   5.692   7.960
 1523POPC   C4B21406  13.562   5.484   7.648
 1524POPC   NC321407  38.642  35.812   9.645
 1524POPC   PO421408  38.217  36.373   9.601
 1524POPC   GL121409  38.141  36.127   9.226
 1524POPC   GL221410  38.508  36.076   9.183
 1524POPC   C1A21411  38.072  36.133   8.777
 1524POPC   D2A21412  37.974  36.207   8.341
 1524POPC   C3A21413  38.215  36.002   7.997
 1524POPC   C4A21414  38.317  36.283   7.656
 1524POPC   C1B21415  38.571  36.253   8.780
 1524POPC   C2B21416  38.600  36.134   8.359
 1524POPC   C3B21417  38.705  36.123   7.947
 1524POPC   C4B21418  38.577  35.824   7.651
 1525POPC   NC321419  44.329  36.958   9.470
 1525POPC   PO421420  43.871  36.480   9.431
 1525POPC   GL121421  43.679  36.805   9.164
 1525POPC   GL221422  43.984  37.016   9.100
 1525POPC   C1A21423  43.634  36.994   8.731
 1525POPC   D2A21424  43.797  37.064   8.329
 1525POPC   C3A21425  43.687  36.805   7.951
 1525POPC   C4A21426  43.783  36.867   7.508
 1525POPC   C1B21427  44.372  37.018   8.822
 1525POPC   C2B21428  44.337  37.107   8.397
 1525POPC   C3B21429  44.182  36.921   8.037
 1525POPC   C4B21430  44.220  37.065   7.669
 1526POPC   NC321431   9.157  28.650   9.580
 1526POPC   PO421432   8.661  28.392   9.751
 1526POPC   GL121433   8.781  28.506   9.270
 1526POPC   GL221434   9.056  28.273   9.135
 1526POPC   C1A21435   8.723  28.402   8.799
 1526POPC   D2A21436   8.987  28.221   8.489
 1526POPC   C3A21437   8.764  28.151   8.122
 1526POPC   C4A21438   8.830  28.370   7.768
 1526POPC   C1B21439   9.374  28.378   8.810
 1526POPC   C2B21440   9.557  28.268   8.412
 1526POPC   C3B21441   9.291  28.260   8.052
 1526POPC   C4B21442   9.314  28.419   7.625
 1527POPC   NC321443   9.047   5.683   9.569
 1527POPC   PO421444   8.628   6.181   9.558
 1527POPC   GL121445   8.907   6.015   9.201
 1527POPC   GL221446   8.874   5.638   9.095
 1527POPC   C1A21447   8.954   6.021   8.753
 1527POPC   D2A21448   9.046   6.112   8.341
 1527POPC   C3A21449   8.847   6.096   7.940
 1527POPC   C4A21450   8.981   5.822   7.620
 1527POPC   C1B21451   8.603   5.660   8.725
 1527POPC   C2B21452   8.556   5.863   8.307
 1527POPC   C3B21453   8.528   5.705   7.861
 1527POPC   C4B21454   8.537   5.720   7.387
 1528POPC   NC321455  31.847  11.928   9.589
 1528POPC   PO421456  31.307  12.357   9.658
 1528POPC   GL121457  31.369  12.334   9.223
 1528POPC   GL221458  31.561  12.029   9.171
 1528POPC   C1A21459  31.358  12.282   8.775
 1528POPC   D2A21460  31.425  12.130   8.373
 1528POPC   C3A21461  31.105  12.148   8.061
 1528POPC   C4A21462  31.325  12.101   7.702
 1528POPC   C1B21463  31.811  11.962   8.774
 1528POPC   C2B21464  31.835  11.813   8.336
 1528POPC   C3B21465  31.775  11.905   7.886
 1528POPC   C4B21466  31.642  11.602   7.580
 1529POPC   NC321467  32.760  37.074   9.336
 1529POPC   PO421468  33.378  37.129   9.359
 1529POPC   GL121469  33.208  36.822   9.108
 1529POPC   GL221470  33.392  36.519   9.166
 1529POPC   C1A21471  33.185  36.948   8.686
 1529POPC   D2A21472  33.011  36.867   8.309
 1529POPC   C3A21473  32.815  37.232   8.128
 1529POPC   C4A21474  32.628  37.336   7.719
 1529POPC   C1B21475  33.611  36.632   8.794
 1529POPC   C2B21476  33.606  36.818   8.384
 1529POPC   C3B21477  33.436  36.715   7.997
 1529POPC   C4B21478  33.089  36.910   7.805
 1530POPC   NC321479  28.632  33.910   9.501
 1530POPC   PO421480  28.119  33.560   9.504
 1530POPC   GL121481  28.246  33.502   9.089
 1530POPC   GL221482  28.479  33.739   9.030
 1530POPC   C1A21483  28.124  33.607   8.661
 1530POPC   D2A21484  28.187  33.857   8.264
 1530POPC   C3A21485  28.228  33.662   7.864
 1530POPC   C4A21486  28.514  33.685   7.473
 1530POPC   C1B21487  28.643  34.145   8.889
 1530POPC   C2B21488  28.674  34.198   8.456
 1530POPC   C3B21489  28.580  34.171   8.036
 1530POPC   C4B21490  28.381  34.145   7.643
 1531POPC   NC321491  34.434  44.870   9.469
 1531POPC   PO421492  34.935  44.477   9.670
 1531POPC   GL121493  34.902  44.455   9.235
 1531POPC   GL221494  34.868  44.789   9.177
 1531POPC   C1A21495  34.630  44.326   8.901
 1531POPC   D2A21496  34.520  44.455   8.474
 1531POPC   C3A21497  34.866  44.654   8.247
 1531POPC   C4A21498  34.791  44.551   7.816
 1531POPC   C1B21499  34.581  44.821   8.808
 1531POPC   C2B21500  34.451   0.039   8.439
 1531POPC   C3B21501  34.497  44.960   8.002
 1531POPC   C4B21502  34.667   0.126   7.621
 1532POPC   NC321503  32.004   5.352  10.014
 1532POPC   PO421504  31.937   4.924   9.556
 1532POPC   GL121505  32.155   5.072   9.159
 1532POPC   GL221506  32.221   5.444   9.168
 1532POPC   C1A21507  32.302   4.943   8.710
 1532POPC   D2A21508  32.218   5.171   8.310
 1532POPC   C3A21509  32.282   4.993   7.897
 1532POPC   C4A21510  32.613   4.880   7.625
 1532POPC   C1B21511  32.489   5.396   8.817
 1532POPC   C2B21512  32.648   5.503   8.439
 1532POPC   C3B21513  32.517   5.540   8.021
 1532POPC   C4B21514  32.280   5.460   7.651
 1533POPC   NC321515   5.737  25.146   9.450
 1533POPC   PO421516   6.281  25.516   9.539
 1533POPC   GL121517   6.120  25.312   9.162
 1533POPC   GL221518   5.880  25.544   9.154
 1533POPC   C1A21519   5.806  25.176   8.790
 1533POPC   D2A21520   5.624  25.061   8.356
 1533POPC   C3A21521   5.915  24.982   8.015
 1533POPC   C4A21522   6.208  25.185   7.739
 1533POPC   C1B21523   6.086  25.597   8.739
 1533POPC   C2B21524   5.915  25.481   8.363
 1533POPC   C3B21525   5.614  25.548   8.066
 1533POPC   C4B21526   5.909  25.618   7.785
 1534POPC   NC321527  10.832  11.108   9.931
 1534POPC   PO421528  10.543  11.599   9.575
 1534POPC   GL121529  10.619  11.558   9.151
 1534POPC   GL221530  10.631  11.212   9.113
 1534POPC   C1A21531  10.698  11.532   8.715
 1534POPC   D2A21532  10.621  11.419   8.331
 1534POPC   C3A21533  10.678  11.691   8.007
 1534POPC   C4A21534  10.476  11.530   7.652
 1534POPC   C1B21535  10.708  11.012   8.702
 1534POPC   C2B21536  10.684  10.883   8.274
 1534POPC   C3B21537  10.503  11.042   7.904
 1534POPC   C4B21538  10.163  10.872   7.622
 1535POPC   NC321539  12.466   6.867   9.708
 1535POPC   PO421540  11.942   6.631   9.461
 1535POPC   GL121541  12.135   6.799   9.090
 1535POPC   GL221542  11.813   6.866   8.928
 1535POPC   C1A21543  12.184   6.914   8.614
 1535POPC   D2A21544  11.938   6.923   8.200
 1535POPC   C3A21545  12.212   6.676   7.931
 1535POPC   C4A21546  12.483   6.303   7.896
 1535POPC   C1B21547  11.958   6.463   8.750
 1535POPC   C2B21548  11.862   6.354   8.335
 1535POPC   C3B21549  11.715   6.483   7.945
 1535POPC   C4B21550  11.794   6.814   7.651
 1536POPC   NC321551  28.161  16.392   9.533
 1536POPC   PO421552  28.151  15.683   9.619
 1536POPC   GL121553  28.301  15.755   9.185
 1536POPC   GL221554  28.381  16.108   9.121
 1536POPC   C1A21555  28.231  15.828   8.715
 1536POPC   D2A21556  28.428  15.861   8.311
 1536POPC   C3A21557  28.409  16.190   8.043
 1536POPC   C4A21558  28.146  16.084   7.712
 1536POPC   C1B21559  28.706  15.840   8.874
 1536POPC   C2B21560  28.771  15.559   8.524
 1536POPC   C3B21561  28.831  15.633   8.058
 1536POPC   C4B21562  28.642  15.880   7.723
 1537POPC   NC321563  24.378  14.782   9.760
 1537POPC   PO421564  24.561  15.338   9.510
 1537POPC   GL121565  24.794  15.200   9.132
 1537POPC   GL221566  24.768  14.871   9.157
 1537POPC   C1A21567  24.766  15.140   8.676
 1537POPC   D2A21568  24.450  15.271   8.365
 1537POPC   C3A21569  24.560  15.488   7.979
 1537POPC   C4A21570  24.722  15.353   7.578
 1537POPC   C1B21571  24.518  14.701   8.803
 1537POPC   C2B21572  24.598  14.754   8.361
 1537POPC   C3B21573  24.461  14.901   7.975
 1537POPC   C4B21574  24.482  14.781   7.558
 1538POPC   NC321575  12.178  27.296   9.591
 1538POPC   PO421576  12.185  26.643   9.576
 1538POPC   GL121577  11.963  26.871   9.276
 1538POPC   GL221578  12.275  26.991   9.134
 1538POPC   C1A21579  11.928  26.843   8.801
 1538POPC   D2A21580  12.215  26.714   8.466
 1538POPC   C3A21581  12.137  26.565   8.032
 1538POPC   C4A21582  11.946  26.644   7.651
 1538POPC   C1B21583  12.349  27.171   8.703
 1538POPC   C2B21584  12.215  27.210   8.292
 1538POPC   C3B21585  12.171  27.063   7.881
 1538POPC   C4B21586  12.347  27.282   7.553
 1539POPC   NC321587  21.918   1.093   9.476
 1539POPC   PO421588  22.392   1.555   9.560
 1539POPC   GL121589  22.270   1.394   9.196
 1539POPC   GL221590  21.968   1.529   9.166
 1539POPC   C1A21591  22.264   1.124   8.844
 1539POPC   D2A21592  22.065   1.153   8.462
 1539POPC   C3A21593  22.250   1.155   8.090
 1539POPC   C4A21594  22.115   1.261   7.704
 1539POPC   C1B21595  21.774   1.270   8.858
 1539POPC   C2B21596  21.595   1.322   8.473
 1539POPC   C3B21597  21.790   1.416   8.083
 1539POPC   C4B21598  21.689   1.563   7.687
 1540POPC   NC321599  37.315  13.104   9.430
 1540POPC   PO421600  37.832  12.651   9.386
 1540POPC   GL121601  37.747  12.853   8.989
 1540POPC   GL221602  37.381  12.823   9.003
 1540POPC   C1A21603  37.899  13.119   8.625
 1540POPC   D2A21604  37.624  13.370   8.334
 1540POPC   C3A21605  37.607  13.169   7.918
 1540POPC   C4A21606  37.916  13.113   7.594
 1540POPC   C1B21607  37.419  12.939   8.564
 1540POPC   C2B21608  37.755  12.797   8.250
 1540POPC   C3B21609  37.733  12.668   7.823
 1540POPC   C4B21610  37.281  12.659   7.790
 1541POPC   NC321611  10.112  43.264   9.496
 1541POPC   PO421612   9.580  42.949   9.542
 1541POPC   GL121613   9.820  42.986   9.192
 1541POPC   GL221614   9.752  43.326   9.133
 1541POPC   C1A21615   9.735  42.898   8.764
 1541POPC   D2A21616   9.664  43.113   8.366
 1541POPC   C3A21617   9.746  42.871   8.011
 1541POPC   C4A21618   9.526  42.857   7.637
 1541POPC   C1B21619  10.024  43.341   8.810
 1541POPC   C2B21620  10.168  43.268   8.417
 1541POPC   C3B21621  10.017  43.345   8.013
 1541POPC   C4B21622  10.231  43.324   7.610
 1542POPC   NC321623  18.793  32.363   9.730
 1542POPC   PO421624  19.226  31.933   9.410
 1542POPC   GL121625  19.121  32.347   9.181
 1542POPC   GL221626  18.762  32.450   9.122
 1542POPC   C1A21627  19.153  32.426   8.736
 1542POPC   D2A21628  19.164  32.587   8.318
 1542POPC   C3A21629  18.920  32.576   7.961
 1542POPC   C4A21630  19.178  32.378   7.678
 1542POPC   C1B21631  18.668  32.279   8.716
 1542POPC   C2B21632  18.769  32.233   8.333
 1542POPC   C3B21633  18.867  32.059   7.979
 1542POPC   C4B21634  18.678  32.242   7.623
 1543POPC   NC321635  12.515  11.547   9.423
 1543POPC   PO421636  12.872  12.173   9.473
 1543POPC   GL121637  12.933  12.050   9.077
 1543POPC   GL221638  12.581  11.944   9.090
 1543POPC   C1A21639  13.046  12.169   8.654
 1543POPC   D2A21640  12.955  12.372   8.247
 1543POPC   C3A21641  13.045  12.166   7.852
 1543POPC   C4A21642  13.252  11.953   7.490
 1543POPC   C1B21643  12.533  12.268   8.782
 1543POPC   C2B21644  12.450  12.386   8.387
 1543POPC   C3B21645  12.507  12.180   8.012
 1543POPC   C4B21646  12.580  12.411   7.663
 1544POPC   NC321647  42.915   6.930   9.375
 1544POPC   PO421648  42.643   6.339   9.562
 1544POPC   GL121649  42.947   6.445   9.208
 1544POPC   GL221650  43.297   6.647   9.170
 1544POPC   C1A21651  42.920   6.585   8.817
 1544POPC   D2A21652  43.035   6.453   8.466
 1544POPC   C3A21653  43.187   6.687   8.180
 1544POPC   C4A21654  42.877   6.579   7.880
 1544POPC   C1B21655  43.273   6.972   8.813
 1544POPC   C2B21656  43.365   7.167   8.393
 1544POPC   C3B21657  43.485   7.064   7.956
 1544POPC   C4B21658  43.315   6.744   7.688
 1545POPC   NC321659   5.789   2.591   9.571
 1545POPC   PO421660   6.199   3.051   9.413
 1545POPC   GL121661   6.134   2.638   9.153
 1545POPC   GL221662   5.761   2.521   9.085
 1545POPC   C1A21663   6.080   2.676   8.717
 1545POPC   D2A21664   6.122   3.002   8.430
 1545POPC   C3A21665   5.997   2.955   8.025
 1545POPC   C4A21666   5.631   2.884   7.770
 1545POPC   C1B21667   5.707   2.323   8.709
 1545POPC   C2B21668   5.763   2.553   8.327
 1545POPC   C3B21669   5.913   2.460   7.952
 1545POPC   C4B21670   5.754   2.434   7.547
 1546POPC   NC321671  17.955  15.337   9.426
 1546POPC   PO421672  18.446  14.855   9.368
 1546POPC   GL121673  18.107  14.971   9.074
 1546POPC   GL221674  18.246  15.283   9.022
 1546POPC   C1A21675  18.126  15.023   8.611
 1546POPC   D2A21676  18.081  15.364   8.310
 1546POPC   C3A21677  18.236  15.170   7.960
 1546POPC   C4A21678  18.259  14.970   7.588
 1546POPC   C1B21679  18.434  15.534   8.741
 1546POPC   C2B21680  18.392  15.772   8.372
 1546POPC   C3B21681  18.294  15.678   7.935
 1546POPC   C4B21682  18.555  15.448   7.654
 1547POPC   NC321683  37.066  40.365   9.419
 1547POPC   PO421684  36.986  39.597   9.483
 1547POPC   GL121685  36.940  39.774   9.142
 1547POPC   GL221686  36.850  40.088   9.067
 1547POPC   C1A21687  36.950  39.633   8.771
 1547POPC   D2A21688  36.746  39.740   8.411
 1547POPC   C3A21689  37.049  39.868   8.111
 1547POPC   C4A21690  37.190  39.723   7.717
 1547POPC   C1B21691  37.036  40.107   8.656
 1547POPC   C2B21692  36.760  40.241   8.317
 1547POPC   C3B21693  36.922  40.323   7.936
 1547POPC   C4B21694  37.103  40.210   7.617
 1548POPC   NC321695   2.327  36.051   9.533
 1548POPC   PO421696   1.732  36.426   9.427
 1548POPC   GL121697   1.990  36.236   9.110
 1548POPC   GL221698   2.185  35.958   9.041
 1548POPC   C1A21699   1.896  36.238   8.683
 1548POPC   D2A21700   1.597  36.484   8.436
 1548POPC   C3A21701   1.532  36.306   8.004
 1548POPC   C4A21702   1.695  35.885   7.843
 1548POPC   C1B21703   2.426  36.269   8.805
 1548POPC   C2B21704   2.361  36.314   8.354
 1548POPC   C3B21705   2.096  36.227   8.004
 1548POPC   C4B21706   2.119  36.462   7.630
 1549POPC   NC321707  11.736   8.135   9.341
 1549POPC   PO421708  12.398   8.170   9.403
 1549POPC   GL121709  12.171   7.980   9.088
 1549POPC   GL221710  12.075   8.316   9.019
 1549POPC   C1A21711  11.901   7.882   8.739
 1549POPC   D2A21712  12.002   7.829   8.320
 1549POPC   C3A21713  12.118   8.129   8.056
 1549POPC   C4A21714  12.047   7.992   7.656
 1549POPC   C1B21715  12.196   8.280   8.634
 1549POPC   C2B21716  12.327   8.525   8.344
 1549POPC   C3B21717  12.509   8.466   7.979
 1549POPC   C4B21718  12.291   8.447   7.589
 1550POPC   NC321719  42.218  14.302   9.458
 1550POPC   PO421720  42.826  13.954   9.609
 1550POPC   GL121721  42.618  14.087   9.203
 1550POPC   GL221722  42.592  14.454   9.107
 1550POPC   C1A21723  42.569  14.119   8.712
 1550POPC   D2A21724  42.381  14.277   8.312
 1550POPC   C3A21725  42.558  14.313   7.889
 1550POPC   C4A21726  42.323  14.196   7.534
 1550POPC   C1B21727  42.201  14.487   8.782
 1550POPC   C2B21728  41.978  14.599   8.355
 1550POPC   C3B21729  42.091  14.573   7.892
 1550POPC   C4B21730  42.001  14.737   7.437
 1551POPC   NC321731  34.780  40.581   9.762
 1551POPC   PO421732  34.432  41.097   9.481
 1551POPC   GL121733  34.590  40.859   9.165
 1551POPC   GL221734  34.941  40.895   9.064
 1551POPC   C1A21735  34.454  40.710   8.779
 1551POPC   D2A21736  34.522  40.835   8.353
 1551POPC   C3A21737  34.305  40.639   8.011
 1551POPC   C4A21738  34.271  40.746   7.608
 1551POPC   C1B21739  34.941  40.647   8.636
 1551POPC   C2B21740  34.773  40.430   8.221
 1551POPC   C3B21741  34.769  40.594   7.807
 1551POPC   C4B21742  34.744  40.923   7.545
 1552POPC   NC321743  29.856  16.639   9.638
 1552POPC   PO421744  29.695  17.110   9.280
 1552POPC   GL121745  29.869  16.745   9.121
 1552POPC   GL221746  29.999  16.405   9.211
 1552POPC   C1A21747  29.775  16.716   8.723
 1552POPC   D2A21748  29.961  16.808   8.341
 1552POPC   C3A21749  29.734  16.925   7.992
 1552POPC   C4A21750  30.041  16.877   7.674
 1552POPC   C1B21751  29.981  16.282   8.787
 1552POPC   C2B21752  29.793  16.324   8.376
 1552POPC   C3B21753  29.974  16.437   7.972
 1552POPC   C4B21754  29.974  16.204   7.608
 1553POPC   NC321755  18.843   5.035   9.446
 1553POPC   PO421756  19.189   5.432   9.745
 1553POPC   GL121757  19.190   5.318   9.198
 1553POPC   GL221758  18.842   5.254   8.988
 1553POPC   C1A21759  19.244   5.135   8.735
 1553POPC   D2A21760  19.381   4.953   8.361
 1553POPC   C3A21761  19.159   5.009   7.975
 1553POPC   C4A21762  18.890   5.229   7.772
 1553POPC   C1B21763  18.755   4.887   8.775
 1553POPC   C2B21764  18.890   4.811   8.396
 1553POPC   C3B21765  18.782   4.644   8.040
 1553POPC   C4B21766  18.793   4.759   7.622
 1554POPC   NC321767  35.987  24.176   9.805
 1554POPC   PO421768  35.514  24.218   9.373
 1554POPC   GL121769  35.273  24.368   9.069
 1554POPC   GL221770  35.491  24.553   8.948
 1554POPC   C1A21771  35.209  24.144   8.701
 1554POPC   D2A21772  35.250  23.908   8.343
 1554POPC   C3A21773  35.433  24.161   8.051
 1554POPC   C4A21774  35.303  24.290   7.663
 1554POPC   C1B21775  35.646  24.370   8.574
 1554POPC   C2B21776  35.521  24.616   8.237
 1554POPC   C3B21777  35.621  24.639   7.835
 1554POPC   C4B21778  35.702  24.487   7.425
 1555POPC   NC321779  32.651  36.288   9.496
 1555POPC   PO421780  33.317  36.140   9.504
 1555POPC   GL121781  33.024  36.131   9.155
 1555POPC   GL221782  32.815  36.430   9.051
 1555POPC   C1A21783  32.900  35.991   8.756
 1555POPC   D2A21784  32.814  36.207   8.391
 1555POPC   C3A21785  32.957  35.943   8.059
 1555POPC   C4A21786  32.701  35.983   7.734
 1555POPC   C1B21787  33.109  36.456   8.750
 1555POPC   C2B21788  33.272  36.423   8.380
 1555POPC   C3B21789  33.018  36.440   8.000
 1555POPC   C4B21790  33.209  36.330   7.673
 1556POPC   NC321791  20.034  44.313   9.324
 1556POPC   PO421792  19.795  44.885   9.530
 1556POPC   GL121793  19.733  44.697   9.142
 1556POPC   GL221794  19.541  44.404   9.160
 1556POPC   C1A21795  19.647  44.806   8.736
 1556POPC   D2A21796  19.816  44.961   8.375
 1556POPC   C3A21797  20.079  44.715   8.158
 1556POPC   C4A21798  20.005  44.490   7.807
 1556POPC   C1B21799  19.455  44.324   8.728
 1556POPC   C2B21800  19.627  44.470   8.321
 1556POPC   C3B21801  19.552  44.271   7.933
 1556POPC   C4B21802  19.322  44.398   7.570
 1557POPC   NC321803  22.803  44.708   9.656
 1557POPC   PO421804  23.311  44.379   9.362
 1557POPC   GL121805  22.943  44.552   9.106
 1557POPC   GL221806  22.685  44.833   9.184
 1557POPC   C1A21807  22.957  44.558   8.641
 1557POPC   D2A21808  23.139  44.395   8.239
 1557POPC   C3A21809  23.121  44.515   7.785
 1557POPC   C4A21810  23.462  44.461   7.443
 1557POPC   C1B21811  22.570  44.886   8.766
 1557POPC   C2B21812  22.521  44.628   8.380
 1557POPC   C3B21813  22.416  44.749   7.973
 1557POPC   C4B21814  22.630   0.034   7.727
 1558POPC   NC321815  37.528   2.058   9.515
 1558POPC   PO421816  38.016   2.373   9.545
 1558POPC   GL121817  37.879   2.223   9.155
 1558POPC   GL221818  37.848   1.865   9.127
 1558POPC   C1A21819  37.718   2.179   8.765
 1558POPC   D2A21820  37.609   1.984   8.404
 1558POPC   C3A21821  37.825   2.067   8.008
 1558POPC   C4A21822  37.817   2.324   7.634
 1558POPC   C1B21823  37.451   1.736   8.881
 1558POPC   C2B21824  37.457   1.501   8.479
 1558POPC   C3B21825  37.313   1.708   8.102
 1558POPC   C4B21826  37.388   1.918   7.741
 1559POPC   NC321827  34.750  27.859  10.072
 1559POPC   PO421828  34.512  27.385   9.607
 1559POPC   GL121829  34.634  27.421   9.200
 1559POPC   GL221830  34.544  27.755   9.110
 1559POPC   C1A21831  34.381  27.334   8.835
 1559POPC   D2A21832  34.507  27.287   8.412
 1559POPC   C3A21833  34.358  27.539   8.068
 1559POPC   C4A21834  34.353  27.393   7.637
 1559POPC   C1B21835  34.789  27.644   8.750
 1559POPC   C2B21836  34.722  27.801   8.356
 1559POPC   C3B21837  34.840  27.625   7.988
 1559POPC   C4B21838  35.087  27.575   7.694
 1560POPC   NC321839  37.894  41.401   9.722
 1560POPC   PO421840  37.368  41.654   9.422
 1560POPC   GL121841  37.559  41.442   9.089
 1560POPC   GL221842  37.899  41.405   9.194
 1560POPC   C1A21843  37.680  41.665   8.709
 1560POPC   D2A21844  37.739  41.688   8.309
 1560POPC   C3A21845  37.474  41.940   8.102
 1560POPC   C4A21846  37.547  41.953   7.678
 1560POPC   C1B21847  38.123  41.436   8.808
 1560POPC   C2B21848  38.261  41.226   8.415
 1560POPC   C3B21849  38.082  41.357   8.016
 1560POPC   C4B21850  37.969  41.773   7.867
 1561POPC   NC321851  14.908  13.167   9.589
 1561POPC   PO421852  15.181  12.502   9.547
 1561POPC   GL121853  15.077  12.782   9.248
 1561POPC   GL221854  14.934  12.566   9.059
 1561POPC   C1A21855  15.205  12.938   8.837
 1561POPC   D2A21856  15.057  12.956   8.409
 1561POPC   C3A21857  15.319  12.946   8.060
 1561POPC   C4A21858  15.187  12.991   7.681
 1561POPC   C1B21859  14.787  12.609   8.678
 1561POPC   C2B21860  14.843  12.470   8.295
 1561POPC   C3B21861  14.934  12.607   7.910
 1561POPC   C4B21862  15.282  12.458   7.759
 1562POPC   NC321863  13.523  26.744   9.587
 1562POPC   PO421864  13.924  26.229   9.456
 1562POPC   GL121865  13.744  26.559   9.147
 1562POPC   GL221866  13.557  26.904   9.110
 1562POPC   C1A21867  13.626  26.597   8.691
 1562POPC   D2A21868  13.636  26.496   8.239
 1562POPC   C3A21869  13.837  26.668   7.870
 1562POPC   C4A21870  13.544  26.736   7.494
 1562POPC   C1B21871  13.696  27.109   8.726
 1562POPC   C2B21872  13.745  27.081   8.272
 1562POPC   C3B21873  13.524  27.072   7.887
 1562POPC   C4B21874  13.610  27.239   7.454
 1563POPC   NC321875   0.843  14.464   9.419
 1563POPC   PO421876   1.526  14.664   9.404
 1563POPC   GL121877   1.287  14.450   9.153
 1563POPC   GL221878   1.321  14.134   9.338
 1563POPC   C1A21879   1.031  14.412   8.790
 1563POPC   D2A21880   0.965  14.332   8.383
 1563POPC   C3A21881   1.294  14.442   8.140
 1563POPC   C4A21882   1.315  14.628   7.784
 1563POPC   C1B21883   1.403  14.049   8.877
 1563POPC   C2B21884   1.390  14.044   8.437
 1563POPC   C3B21885   1.534  14.033   7.990
 1563POPC   C4B21886   1.467  14.181   7.578
 1564POPC   NC321887   1.004  30.625   9.507
 1564POPC   PO421888   1.703  30.717   9.609
 1564POPC   GL121889   1.450  30.744   9.226
 1564POPC   GL221890   1.403  30.388   9.217
 1564POPC   C1A21891   1.326  30.918   8.814
 1564POPC   D2A21892   1.546  30.975   8.433
 1564POPC   C3A21893   1.360  30.805   8.097
 1564POPC   C4A21894   1.222  30.799   7.696
 1564POPC   C1B21895   1.227  30.403   8.806
 1564POPC   C2B21896   1.029  30.640   8.475
 1564POPC   C3B21897   0.905  30.569   8.041
 1564POPC   C4B21898   0.984  30.337   7.660
 1565POPC   NC321899  10.726   3.753   9.696
 1565POPC   PO421900  10.267   3.315   9.611
 1565POPC   GL121901  10.459   3.430   9.178
 1565POPC   GL221902  10.691   3.746   9.171
 1565POPC   C1A21903  10.578   3.537   8.727
 1565POPC   D2A21904  10.555   3.802   8.378
 1565POPC   C3A21905  10.491   3.631   7.990
 1565POPC   C4A21906  10.255   3.759   7.638
 1565POPC   C1B21907  10.807   4.006   8.782
 1565POPC   C2B21908  10.989   4.097   8.389
 1565POPC   C3B21909  10.916   3.928   7.981
 1565POPC   C4B21910  10.827   3.682   7.585
 1566POPC   NC321911  18.359  29.962   9.662
 1566POPC   PO421912  17.884  30.270   9.315
 1566POPC   GL121913  18.162  30.042   9.125
 1566POPC   GL221914  18.510  30.098   9.183
 1566POPC   C1A21915  18.168  29.888   8.714
 1566POPC   D2A21916  18.403  29.898   8.322
 1566POPC   C3A21917  18.189  29.862   7.939
 1566POPC   C4A21918  18.146  29.443   7.774
 1566POPC   C1B21919  18.642  30.266   8.777
 1566POPC   C2B21920  18.510  30.391   8.352
 1566POPC   C3B21921  18.550  30.243   7.928
 1566POPC   C4B21922  18.610  29.913   7.622
 1567POPC   NC321923  18.662  12.937   9.356
 1567POPC   PO421924  18.262  12.524   9.631
 1567POPC   GL121925  18.300  12.606   9.163
 1567POPC   GL221926  17.970  12.616   8.965
 1567POPC   C1A21927  18.419  12.674   8.722
 1567POPC   D2A21928  18.214  12.785   8.329
 1567POPC   C3A21929  18.482  12.858   7.990
 1567POPC   C4A21930  18.576  12.491   7.740
 1567POPC   C1B21931  18.023  13.025   8.734
 1567POPC   C2B21932  17.830  13.180   8.375
 1567POPC   C3B21933  17.935  13.035   7.976
 1567POPC   C4B21934  18.073  12.634   7.794
 1568POPC   NC321935   3.766  32.725   9.342
 1568POPC   PO421936   3.429  32.201   9.560
 1568POPC   GL121937   3.454  32.156   9.129
 1568POPC   GL221938   3.822  32.243   9.119
 1568POPC   C1A21939   3.530  32.313   8.716
 1568POPC   D2A21940   3.423  32.508   8.369
 1568POPC   C3A21941   3.649  32.379   8.019
 1568POPC   C4A21942   3.548  32.295   7.625
 1568POPC   C1B21943   3.995  32.540   8.763
 1568POPC   C2B21944   3.925  32.655   8.347
 1568POPC   C3B21945   4.128  32.592   7.962
 1568POPC   C4B21946   3.975  32.550   7.553
 1569POPC   NC321947  15.674  26.395   9.793
 1569POPC   PO421948  16.120  25.926   9.691
 1569POPC   GL121949  16.177  25.852   9.234
 1569POPC   GL221950  16.291  26.201   9.161
 1569POPC   C1A21951  16.002  25.734   8.787
 1569POPC   D2A21952  16.015  25.989   8.372
 1569POPC   C3A21953  15.801  25.844   7.992
 1569POPC   C4A21954  15.918  25.518   7.697
 1569POPC   C1B21955  16.039  26.298   8.792
 1569POPC   C2B21956  15.686  26.399   8.483
 1569POPC   C3B21957  15.841  26.438   8.059
 1569POPC   C4B21958  16.102  26.201   7.778
 1570POPC   NC321959  12.408  20.797   9.598
 1570POPC   PO421960  12.895  20.406   9.479
 1570POPC   GL121961  12.946  20.276   9.097
 1570POPC   GL221962  13.222  20.430   8.956
 1570POPC   C1A21963  12.777  20.389   8.725
 1570POPC   D2A21964  12.896  20.603   8.381
 1570POPC   C3A21965  12.831  20.419   7.995
 1570POPC   C4A21966  12.658  20.608   7.632
 1570POPC   C1B21967  13.130  20.835   8.805
 1570POPC   C2B21968  13.094  21.076   8.439
 1570POPC   C3B21969  13.045  20.947   8.021
 1570POPC   C4B21970  13.124  20.914   7.570
 1571POPC   NC321971   9.957  42.590   9.551
 1571POPC   PO421972   9.293  42.262   9.454
 1571POPC   GL121973   9.386  42.231   9.079
 1571POPC   GL221974   9.641  42.499   9.124
 1571POPC   C1A21975   9.401  42.120   8.656
 1571POPC   D2A21976   9.629  41.965   8.310
 1571POPC   C3A21977   9.666  42.289   8.028
 1571POPC   C4A21978   9.461  42.357   7.663
 1571POPC   C1B21979   9.844  42.359   8.742
 1571POPC   C2B21980  10.070  42.257   8.368
 1571POPC   C3B21981  10.155  42.438   7.968
 1571POPC   C4B21982   9.920  42.554   7.630
 1572POPC   NC321983  35.466  11.482   9.658
 1572POPC   PO421984  34.902  11.704   9.321
 1572POPC   GL121985  35.281  11.651   9.154
 1572POPC   GL221986  35.416  11.338   9.152
 1572POPC   C1A21987  35.485  11.690   8.752
 1572POPC   D2A21988  35.591  11.349   8.484
 1572POPC   C3A21989  35.516  11.355   8.055
 1572POPC   C4A21990  35.339  11.354   7.624
 1572POPC   C1B21991  35.490  11.013   8.843
 1572POPC   C2B21992  35.593  10.818   8.437
 1572POPC   C3B21993  35.678  10.873   7.982
 1572POPC   C4B21994  35.523  10.878   7.542
 1573POPC   NC321995  11.389  34.816   9.720
 1573POPC   PO421996  12.014  34.978   9.684
 1573POPC   GL121997  12.082  34.992   9.201
 1573POPC   GL221998  12.210  34.708   9.093
 1573POPC   C1A21999  12.147  35.299   8.830
 1573POPC   D2A22000  12.196  35.579   8.426
 1573POPC   C3A22001  12.139  35.409   7.977
 1573POPC   C4A22002  11.830  35.426   7.586
 1573POPC   C1B22003  12.422  34.865   8.752
 1573POPC   C2B22004  12.270  35.042   8.370
 1573POPC   C3B22005  12.097  34.906   7.978
 1573POPC   C4B22006  12.193  35.071   7.571
 1574POPC   NC322007   3.472   8.166   9.490
 1574POPC   PO422008   2.939   8.475   9.290
 1574POPC   GL122009   3.283   8.333   9.042
 1574POPC   GL222010   3.327   7.959   9.033
 1574POPC   C1A22011   3.447   8.312   8.643
 1574POPC   D2A22012   3.530   8.049   8.284
 1574POPC   C3A22013   3.543   8.288   7.896
 1574POPC   C4A22014   3.882   8.478   7.668
 1574POPC   C1B22015   3.738   7.966   8.818
 1574POPC   C2B22016   4.004   8.176   8.479
 1574POPC   C3B22017   3.993   8.040   8.023
 1574POPC   C4B22018   3.781   7.704   7.800
 1575POPC   NC322019  38.824   5.226   9.727
 1575POPC   PO422020  39.501   5.217   9.361
 1575POPC   GL122021  39.496   5.124   9.026
 1575POPC   GL222022  39.234   4.886   9.031
 1575POPC   C1A22023  39.368   5.336   8.694
 1575POPC   D2A22024  39.111   5.394   8.362
 1575POPC   C3A22025  39.340   5.183   8.065
 1575POPC   C4A22026  39.343   5.229   7.644
 1575POPC   C1B22027  39.407   4.825   8.634
 1575POPC   C2B22028  39.153   4.775   8.295
 1575POPC   C3B22029  39.443   4.680   7.960
 1575POPC   C4B22030  39.757   4.993   7.824
 1576POPC   NC322031  13.270  30.611   9.666
 1576POPC   PO422032  13.946  30.728   9.426
 1576POPC   GL122033  13.575  30.583   9.147
 1576POPC   GL222034  13.844  30.417   9.000
 1576POPC   C1A22035  13.485  30.465   8.649
 1576POPC   D2A22036  13.494  30.273   8.221
 1576POPC   C3A22037  13.562  30.502   7.822
 1576POPC   C4A22038  13.378  30.881   7.708
 1576POPC   C1B22039  13.807  30.825   8.766
 1576POPC   C2B22040  13.644  30.890   8.352
 1576POPC   C3B22041  13.836  30.951   7.939
 1576POPC   C4B22042  13.775  31.104   7.503
 1577POPC   NC322043  29.207  24.268   9.566
 1577POPC   PO422044  28.994  23.589   9.454
 1577POPC   GL122045  29.037  23.363   9.046
 1577POPC   GL222046  29.391  23.371   9.053
 1577POPC   C1A22047  28.887  23.361   8.603
 1577POPC   D2A22048  28.912  23.683   8.261
 1577POPC   C3A22049  29.049  23.593   7.817
 1577POPC   C4A22050  28.953  23.662   7.323
 1577POPC   C1B22051  29.299  23.644   8.680
 1577POPC   C2B22052  29.524  23.844   8.353
 1577POPC   C3B22053  29.581  23.774   7.923
 1577POPC   C4B22054  29.410  23.794   7.509
 1578POPC   NC322055   9.380  19.518   9.932
 1578POPC   PO422056   9.713  20.077   9.574
 1578POPC   GL122057   9.792  19.984   9.181
 1578POPC   GL222058   9.901  19.667   9.134
 1578POPC   C1A22059   9.517  19.950   8.862
 1578POPC   D2A22060   9.444  19.812   8.464
 1578POPC   C3A22061   9.587  20.025   8.114
 1578POPC   C4A22062   9.447  19.997   7.739
 1578POPC   C1B22063   9.841  19.575   8.732
 1578POPC   C2B22064   9.926  19.706   8.339
 1578POPC   C3B22065   9.732  19.519   8.004
 1578POPC   C4B22066   9.730  19.587   7.581
 1579POPC   NC322067  30.208  10.685   9.494
 1579POPC   PO422068  29.498  10.447   9.546
 1579POPC   GL122069  29.757  10.511   9.199
 1579POPC   GL222070  29.662  10.271   8.947
 1579POPC   C1A22071  29.859  10.757   8.832
 1579POPC   D2A22072  29.829  10.498   8.462
 1579POPC   C3A22073  29.957  10.580   8.052
 1579POPC   C4A22074  29.649  10.547   7.736
 1579POPC   C1B22075  30.129  10.319   8.841
 1579POPC   C2B22076  30.318  10.344   8.397
 1579POPC   C3B22077  30.340  10.251   7.941
 1579POPC   C4B22078  30.096  10.381   7.577
 1580POPC   NC322079  15.122  33.214   9.578
 1580POPC   PO422080  15.553  32.727   9.636
 1580POPC   GL122081  15.244  32.774   9.265
 1580POPC   GL222082  14.906  32.952   9.185
 1580POPC   C1A22083  15.193  32.828   8.808
 1580POPC   D2A22084  15.303  33.046   8.442
 1580POPC   C3A22085  15.190  32.870   8.043
 1580POPC   C4A22086  15.250  33.001   7.636
 1580POPC   C1B22087  14.690  33.094   8.795
 1580POPC   C2B22088  14.616  33.205   8.355
 1580POPC   C3B22089  14.772  33.114   7.937
 1580POPC   C4B22090  14.784  33.223   7.485
 1581POPC   NC322091  37.083  21.082   9.467
 1581POPC   PO422092  36.727  21.614   9.358
 1581POPC   GL122093  36.731  21.248   9.126
 1581POPC   GL222094  36.399  21.315   9.036
 1581POPC   C1A22095  37.051  21.156   8.806
 1581POPC   D2A22096  37.287  21.412   8.494
 1581POPC   C3A22097  37.177  21.314   8.052
 1581POPC   C4A22098  37.032  21.501   7.656
 1581POPC   C1B22099  36.615  21.410   8.667
 1581POPC   C2B22100  36.560  21.490   8.269
 1581POPC   C3B22101  36.629  21.742   7.932
 1581POPC   C4B22102  36.542  21.672   7.529
 1582POPC   NC322103  26.169  25.100   9.574
 1582POPC   PO422104  25.726  25.615   9.481
 1582POPC   GL122105  26.079  25.527   9.207
 1582POPC   GL222106  26.132  25.181   9.075
 1582POPC   C1A22107  26.164  25.610   8.774
 1582POPC   D2A22108  26.002  25.662   8.344
 1582POPC   C3A22109  26.071  25.300   8.100
 1582POPC   C4A22110  26.298  25.465   7.757
 1582POPC   C1B22111  25.746  25.017   8.918
 1582POPC   C2B22112  25.724  24.895   8.469
 1582POPC   C3B22113  25.772  24.844   8.026
 1582POPC   C4B22114  25.862  25.094   7.656
 1583POPC   NC322115   8.983  16.303   9.514
 1583POPC   PO422116   9.143  16.893   9.394
 1583POPC   GL122117   9.131  16.541   9.102
 1583POPC   GL222118   8.727  16.480   9.112
 1583POPC   C1A22119   9.319  16.579   8.704
 1583POPC   D2A22120   9.192  16.850   8.406
 1583POPC   C3A22121   9.269  16.637   8.043
 1583POPC   C4A22122   9.085  16.654   7.653
 1583POPC   C1B22123   8.820  16.666   8.726
 1583POPC   C2B22124   8.871  16.456   8.350
 1583POPC   C3B22125   8.707  16.546   7.976
 1583POPC   C4B22126   8.618  16.450   7.560
 1584POPC   NC322127  32.515   1.033   9.408
 1584POPC   PO422128  32.216   1.604   9.444
 1584POPC   GL122129  32.362   1.470   9.069
 1584POPC   GL222130  32.716   1.382   9.046
 1584POPC   C1A22131  32.242   1.126   8.817
 1584POPC   D2A22132  32.046   1.110   8.446
 1584POPC   C3A22133  32.239   1.251   8.087
 1584POPC   C4A22134  32.089   1.078   7.678
 1584POPC   C1B22135  32.604   1.394   8.572
 1584POPC   C2B22136  32.700   1.059   8.262
 1584POPC   C3B22137  32.599   0.972   7.831
 1584POPC   C4B22138  32.497   1.390   7.663
 1585POPC   NC322139   3.971  39.480   9.417
 1585POPC   PO422140   3.455  38.954   9.415
 1585POPC   GL122141   3.501  39.255   9.118
 1585POPC   GL222142   3.251  39.536   9.111
 1585POPC   C1A22143   3.418  39.208   8.695
 1585POPC   D2A22144   3.600  39.280   8.308
 1585POPC   C3A22145   3.352  39.409   7.990
 1585POPC   C4A22146   3.360  39.077   7.762
 1585POPC   C1B22147   3.608  39.668   8.823
 1585POPC   C2B22148   3.660  39.776   8.407
 1585POPC   C3B22149   3.847  39.669   8.028
 1585POPC   C4B22150   3.771  39.386   7.708
 1586POPC   NC322151  12.258  23.301   9.494
 1586POPC   PO422152  12.450  22.677   9.566
 1586POPC   GL122153  12.185  22.809   9.239
 1586POPC   GL222154  12.381  22.664   8.980
 1586POPC   C1A22155  12.043  23.003   8.842
 1586POPC   D2A22156  12.194  22.879   8.441
 1586POPC   C3A22157  11.936  23.002   8.119
 1586POPC   C4A22158  11.874  23.144   7.736
 1586POPC   C1B22159  12.634  22.713   8.624
 1586POPC   C2B22160  12.593  22.639   8.191
 1586POPC   C3B22161  12.503  22.669   7.806
 1586POPC   C4B22162  12.155  22.725   7.724
 1587POPC   NC322163  22.883   1.514   9.805
 1587POPC   PO422164  22.882   2.126   9.489
 1587POPC   GL122165  22.906   2.128   9.073
 1587POPC   GL222166  23.173   1.930   9.078
 1587POPC   C1A22167  22.771   1.871   8.711
 1587POPC   D2A22168  22.878   1.755   8.312
 1587POPC   C3A22169  22.702   1.922   7.912
 1587POPC   C4A22170  22.759   2.350   7.796
 1587POPC   C1B22171  23.208   1.605   8.777
 1587POPC   C2B22172  23.375   1.614   8.350
 1587POPC   C3B22173  23.219   1.711   7.949
 1587POPC   C4B22174  23.176   2.076   7.663
 1588POPC   NC322175  35.220  14.928   9.337
 1588POPC   PO422176  35.017  15.585   9.350
 1588POPC   GL122177  35.392  15.432   9.137
 1588POPC   GL222178  35.386  15.114   8.901
 1588POPC   C1A22179  35.657  15.515   8.764
 1588POPC   D2A22180  35.582  15.233   8.422
 1588POPC   C3A22181  35.686  15.395   8.040
 1588POPC   C4A22182  35.378  15.419   7.746
 1588POPC   C1B22183  34.933  15.057   8.759
 1588POPC   C2B22184  34.738  14.826   8.439
 1588POPC   C3B22185  34.972  14.802   8.060
 1588POPC   C4B22186  35.234  14.875   7.699
 1589POPC   NC322187  36.493  32.727   9.814
 1589POPC   PO422188  37.081  32.565   9.517
 1589POPC   GL122189  37.007  32.883   9.178
 1589POPC   GL222190  36.678  33.034   9.220
 1589POPC   C1A22191  37.008  33.115   8.775
 1589POPC   D2A22192  37.166  32.960   8.380
 1589POPC   C3A22193  37.166  33.156   8.002
 1589POPC   C4A22194  36.905  33.295   7.694
 1589POPC   C1B22195  36.521  32.924   8.793
 1589POPC   C2B22196  36.369  32.977   8.369
 1589POPC   C3B22197  36.579  32.974   7.962
 1589POPC   C4B22198  36.453  32.870   7.545
 1590POPC   NC322199  12.496  14.668   9.639
 1590POPC   PO422200  13.181  14.709   9.570
 1590POPC   GL122201  12.981  15.007   9.218
 1590POPC   GL222202  12.631  15.052   9.264
 1590POPC   C1A22203  13.073  15.313   8.865
 1590POPC   D2A22204  13.016  15.149   8.435
 1590POPC   C3A22205  13.183  15.396   8.087
 1590POPC   C4A22206  13.067  15.148   7.763
 1590POPC   C1B22207  12.582  15.210   8.830
 1590POPC   C2B22208  12.534  14.974   8.442
 1590POPC   C3B22209  12.665  14.919   8.020
 1590POPC   C4B22210  12.431  15.076   7.689
 1591POPC   NC322211  44.820  33.387   9.561
 1591POPC   PO422212  44.252  33.087   9.417
 1591POPC   GL122213  44.450  32.991   9.038
 1591POPC   GL222214  44.812  33.082   9.115
 1591POPC   C1A22215  44.415  32.813   8.630
 1591POPC   D2A22216  44.583  32.873   8.229
 1591POPC   C3A22217  44.462  33.052   7.863
 1591POPC   C4A22218  44.510  32.802   7.529
 1591POPC   C1B22219  44.895  32.882   8.752
 1591POPC   C2B22220   0.077  32.986   8.332
 1591POPC   C3B22221  44.978  32.898   7.885
 1591POPC   C4B22222  44.879  33.164   7.537
 1592POPC   NC322223  37.915   7.321   9.469
 1592POPC   PO422224  38.184   7.961   9.543
 1592POPC   GL122225  37.914   7.769   9.214
 1592POPC   GL222226  37.556   7.661   9.286
 1592POPC   C1A22227  37.848   7.526   8.835
 1592POPC   D2A22228  37.872   7.737   8.443
 1592POPC   C3A22229  37.865   7.499   8.064
 1592POPC   C4A22230  37.916   7.170   7.745
 1592POPC   C1B22231  37.355   7.666   8.869
 1592POPC   C2B22232  37.422   7.442   8.494
 1592POPC   C3B22233  37.342   7.432   8.063
 1592POPC   C4B22234  37.467   7.693   7.713
 1593POPC   NC322235  44.154  38.951   9.652
 1593POPC   PO422236  44.277  39.585   9.649
 1593POPC   GL122237  44.111  39.245   9.276
 1593POPC   GL222238  43.864  39.359   9.017
 1593POPC   C1A22239  44.141  38.967   8.888
 1593POPC   D2A22240  43.901  39.154   8.515
 1593POPC   C3A22241  44.089  39.124   8.106
 1593POPC   C4A22242  44.068  39.438   7.758
 1593POPC   C1B22243  43.610  38.975   8.889
 1593POPC   C2B22244  43.477  38.791   8.479
 1593POPC   C3B22245  43.452  38.931   8.039
 1593POPC   C4B22246  43.744  39.049   7.724
 1594POPC   NC322247  30.069  18.100   9.557
 1594POPC   PO422248  30.349  18.510   9.217
 1594POPC   GL122249  30.001  18.315   9.086
 1594POPC   GL222250  29.716  18.572   9.114
 1594POPC   C1A22251  30.095  18.160   8.678
 1594POPC   D2A22252  29.866  18.060   8.331
 1594POPC   C3A22253  29.990  18.186   7.947
 1594POPC   C4A22254  30.189  18.531   7.779
 1594POPC   C1B22255  29.940  18.667   8.721
 1594POPC   C2B22256  30.092  18.563   8.316
 1594POPC   C3B22257  29.733  18.609   8.048
 1594POPC   C4B22258  29.700  18.501   7.632
 1595POPC   NC322259  10.262   7.652   9.781
 1595POPC   PO422260  10.697   7.195   9.674
 1595POPC   GL122261  10.574   7.225   9.241
 1595POPC   GL222262  10.486   7.549   9.298
 1595POPC   C1A22263  10.561   7.195   8.787
 1595POPC   D2A22264  10.483   7.184   8.360
 1595POPC   C3A22265  10.802   7.203   8.059
 1595POPC   C4A22266  10.467   7.210   7.774
 1595POPC   C1B22267  10.492   7.700   8.880
 1595POPC   C2B22268  10.698   7.632   8.475
 1595POPC   C3B22269  10.557   7.652   8.059
 1595POPC   C4B22270  10.501   7.857   7.664
 1596POPC   NC322271  36.810   2.390   9.631
 1596POPC   PO422272  37.185   2.927   9.493
 1596POPC   GL122273  36.973   2.800   9.150
 1596POPC   GL222274  36.631   2.742   9.265
 1596POPC   C1A22275  37.059   2.855   8.721
 1596POPC   D2A22276  36.927   2.677   8.325
 1596POPC   C3A22277  37.113   2.773   7.939
 1596POPC   C4A22278  37.022   2.743   7.490
 1596POPC   C1B22279  36.548   2.838   8.829
 1596POPC   C2B22280  36.493   2.941   8.395
 1596POPC   C3B22281  36.613   2.918   7.959
 1596POPC   C4B22282  36.563   2.950   7.511
 1597POPC   NC322283   7.861   7.211   9.558
 1597POPC   PO422284   8.361   7.737   9.452
 1597POPC   GL122285   7.985   7.601   9.205
 1597POPC   GL222286   8.189   7.322   9.164
 1597POPC   C1A22287   7.885   7.469   8.767
 1597POPC   D2A22288   8.073   7.453   8.359
 1597POPC   C3A22289   7.929   7.323   7.952
 1597POPC   C4A22290   7.821   7.594   7.561
 1597POPC   C1B22291   8.359   7.611   8.822
 1597POPC   C2B22292   8.559   7.495   8.464
 1597POPC   C3B22293   8.466   7.568   8.024
 1597POPC   C4B22294   8.365   7.335   7.693
 1598POPC   NC322295  43.593   7.577   9.722
 1598POPC   PO422296  43.975   8.052   9.416
 1598POPC   GL122297  43.865   8.222   9.071
 1598POPC   GL222298  43.590   8.411   9.224
 1598POPC   C1A22299  44.033   8.267   8.671
 1598POPC   D2A22300  43.933   8.399   8.241
 1598POPC   C3A22301  43.811   8.035   8.017
 1598POPC   C4A22302  43.925   7.824   7.669
 1598POPC   C1B22303  43.590   8.537   8.790
 1598POPC   C2B22304  43.411   8.543   8.412
 1598POPC   C3B22305  43.431   8.401   8.031
 1598POPC   C4B22306  43.668   8.362   7.667
 1599POPC   NC322307  14.055   0.635   9.431
 1599POPC   PO422308  14.678   0.348   9.433
 1599POPC   GL122309  14.532   0.229   9.038
 1599POPC   GL222310  14.381   0.555   9.025
 1599POPC   C1A22311  14.650   0.230   8.580
 1599POPC   D2A22312  14.727   0.498   8.196
 1599POPC   C3A22313  14.433   0.441   7.825
 1599POPC   C4A22314  14.527   0.220   7.387
 1599POPC   C1B22315  14.483   0.712   8.625
 1599POPC   C2B22316  14.673   1.020   8.349
 1599POPC   C3B22317  14.629   0.928   7.912
 1599POPC   C4B22318  14.925   0.658   7.738
 1600POPC   NC322319   8.456  15.575   9.569
 1600POPC   PO422320   7.825  15.890   9.656
 1600POPC   GL122321   8.061  15.870   9.248
 1600POPC   GL222322   8.336  16.075   9.143
 1600POPC   C1A22323   7.970  16.012   8.808
 1600POPC   D2A22324   7.893  15.752   8.443
 1600POPC   C3A22325   8.090  15.779   8.057
 1600POPC   C4A22326   8.066  15.792   7.638
 1600POPC   C1B22327   8.457  16.224   8.715
 1600POPC   C2B22328   8.180  16.219   8.327
 1600POPC   C3B22329   8.261  16.222   7.885
 1600POPC   C4B22330   8.561  15.953   7.699
 1601POPC   NC322331  16.228   4.454   9.809
 1601POPC   PO422332  15.798   3.983   9.554
 1601POPC   GL122333  15.860   4.064   9.116
 1601POPC   GL222334  16.027   4.367   9.113
 1601POPC   C1A22335  15.947   4.164   8.668
 1601POPC   D2A22336  16.282   4.172   8.386
 1601POPC   C3A22337  16.148   4.018   7.993
 1601POPC   C4A22338  15.879   4.264   7.669
 1601POPC   C1B22339  16.177   4.654   8.808
 1601POPC   C2B22340  16.298   4.695   8.413
 1601POPC   C3B22341  16.149   4.538   8.048
 1601POPC   C4B22342  16.180   4.669   7.651
 1602POPC   NC322343  11.474  17.840   9.474
 1602POPC   PO422344  11.238  17.242   9.583
 1602POPC   GL122345  11.307  17.469   9.148
 1602POPC   GL222346  11.045  17.742   9.216
 1602POPC   C1A22347  11.420  17.390   8.684
 1602POPC   D2A22348  11.553  17.462   8.254
 1602POPC   C3A22349  11.329  17.257   7.941
 1602POPC   C4A22350  11.403  17.222   7.500
 1602POPC   C1B22351  11.012  17.712   8.785
 1602POPC   C2B22352  11.179  17.789   8.397
 1602POPC   C3B22353  11.049  17.675   8.000
 1602POPC   C4B22354  11.126  17.688   7.575
 1603POPC   NC322355  33.529  13.698   9.540
 1603POPC   PO422356  34.218  13.312   9.551
 1603POPC   GL122357  33.908  13.386   9.265
 1603POPC   GL222358  33.926  13.755   9.231
 1603POPC   C1A22359  33.708  13.401   8.874
 1603POPC   D2A22360  33.676  13.693   8.562
 1603POPC   C3A22361  33.721  13.533   8.171
 1603POPC   C4A22362  33.542  13.637   7.795
 1603POPC   C1B22363  34.010  13.939   8.861
 1603POPC   C2B22364  34.041  14.038   8.438
 1603POPC   C3B22365  33.816  14.018   8.056
 1603POPC   C4B22366  33.995  14.020   7.640
 1604POPC   NC322367  44.061  35.159   9.509
 1604POPC   PO422368  43.521  34.851   9.285
 1604POPC   GL122369  43.651  35.267   9.109
 1604POPC   GL222370  44.018  35.477   9.117
 1604POPC   C1A22371  43.690  35.447   8.728
 1604POPC   D2A22372  44.073  35.555   8.553
 1604POPC   C3A22373  44.007  35.514   8.137
 1604POPC   C4A22374  43.817  35.794   7.816
 1604POPC   C1B22375  44.086  35.125   8.841
 1604POPC   C2B22376  43.888  35.052   8.448
 1604POPC   C3B22377  44.018  35.007   8.032
 1604POPC   C4B22378  43.882  35.267   7.689
 1605POPC   NC322379  21.578   0.340   9.570
 1605POPC   PO422380  21.111   0.663   9.342
 1605POPC   GL122381  21.472   0.522   9.119
 1605POPC   GL222382  21.342   0.222   9.124
 1605POPC   C1A22383  21.648   0.339   8.740
 1605POPC   D2A22384  21.889   0.346   8.338
 1605POPC   C3A22385  21.710   0.418   7.937
 1605POPC   C4A22386  21.654   0.632   7.504
 1605POPC   C1B22387  21.146   0.451   8.742
 1605POPC   C2B22388  21.322   0.429   8.364
 1605POPC   C3B22389  21.268   0.622   8.030
 1605POPC   C4B22390  21.266   0.383   7.695
 1606POPC   NC322391   1.551  32.736   9.441
 1606POPC   PO422392   0.864  32.878   9.570
 1606POPC   GL122393   1.153  33.133   9.311
 1606POPC   GL222394   0.889  33.169   9.108
 1606POPC   C1A22395   1.344  33.167   8.874
 1606POPC   D2A22396   1.372  32.841   8.532
 1606POPC   C3A22397   1.264  32.773   8.131
 1606POPC   C4A22398   1.393  33.067   7.858
 1606POPC   C1B22399   0.932  32.888   8.787
 1606POPC   C2B22400   1.041  33.208   8.438
 1606POPC   C3B22401   0.908  33.220   8.031
 1606POPC   C4B22402   0.928  32.900   7.747
 1607POPC   NC322403  12.135   6.155   9.474
 1607POPC   PO422404  11.764   5.453   9.433
 1607POPC   GL122405  12.067   5.560   9.112
 1607POPC   GL222406  12.182   5.907   9.016
 1607POPC   C1A22407  12.000   5.541   8.671
 1607POPC   D2A22408  12.134   5.923   8.408
 1607POPC   C3A22409  12.019   6.003   7.983
 1607POPC   C4A22410  11.854   5.677   7.742
 1607POPC   C1B22411  12.465   5.692   8.709
 1607POPC   C2B22412  12.383   5.442   8.315
 1607POPC   C3B22413  12.355   5.559   7.860
 1607POPC   C4B22414  12.332   5.925   7.586
 1608POPC   NC322415  22.813  23.282   9.542
 1608POPC   PO422416  22.647  22.518   9.443
 1608POPC   GL122417  22.786  22.890   9.144
 1608POPC   GL222418  23.154  22.931   9.054
 1608POPC   C1A22419  22.843  22.949   8.654
 1608POPC   D2A22420  22.830  23.175   8.256
 1608POPC   C3A22421  22.883  22.857   7.924
 1608POPC   C4A22422  23.053  22.872   7.510
 1608POPC   C1B22423  23.284  23.199   8.709
 1608POPC   C2B22424  23.383  23.134   8.264
 1608POPC   C3B22425  23.213  23.258   7.845
 1608POPC   C4B22426  23.238  23.325   7.341
 1609POPC   NC322427  34.811   0.661   9.638
 1609POPC   PO422428  34.326   0.265   9.695
 1609POPC   GL122429  34.728   0.279   9.315
 1609POPC   GL222430  34.536   0.225   9.078
 1609POPC   C1A22431  34.826   0.535   8.851
 1609POPC   D2A22432  34.643   0.556   8.453
 1609POPC   C3A22433  34.824   0.553   8.063
 1609POPC   C4A22434  34.611   0.660   7.694
 1609POPC   C1B22435  34.255   0.416   8.758
 1609POPC   C2B22436  34.151   0.584   8.391
 1609POPC   C3B22437  34.308   0.447   8.049
 1609POPC   C4B22438  34.114   0.562   7.709
 1610POPC   NC322439  24.118  22.589   9.351
 1610POPC   PO422440  24.279  21.953   9.510
 1610POPC   GL122441  24.381  22.168   9.126
 1610POPC   GL222442  24.762  22.183   9.118
 1610POPC   C1A22443  24.349  22.309   8.699
 1610POPC   D2A22444  24.486  22.432   8.258
 1610POPC   C3A22445  24.256  22.182   7.927
 1610POPC   C4A22446  24.416  22.172   7.472
 1610POPC   C1B22447  24.691  21.926   8.721
 1610POPC   C2B22448  24.624  21.938   8.247
 1610POPC   C3B22449  24.778  22.127   7.845
 1610POPC   C4B22450  24.890  21.982   7.411
 1611POPC   NC322451  39.412  40.441   9.420
 1611POPC   PO422452  39.709  40.936   9.075
 1611POPC   GL122453  39.353  40.739   8.986
 1611POPC   GL222454  39.088  40.845   9.197
 1611POPC   C1A22455  39.187  40.756   8.570
 1611POPC   D2A22456  39.292  41.028   8.231
 1611POPC   C3A22457  39.648  40.862   7.995
 1611POPC   C4A22458  39.570  40.583   7.655
 1611POPC   C1B22459  38.853  41.042   8.859
 1611POPC   C2B22460  38.757  40.987   8.408
 1611POPC   C3B22461  38.899  40.803   7.998
 1611POPC   C4B22462  38.784  40.904   7.593
 1612POPC   NC322463  43.887  17.128   9.633
 1612POPC   PO422464  44.123  16.552   9.480
 1612POPC   GL122465  43.901  16.599   9.137
 1612POPC   GL222466  43.739  16.911   9.169
 1612POPC   C1A22467  43.803  16.611   8.734
 1612POPC   D2A22468  43.845  16.874   8.401
 1612POPC   C3A22469  43.922  16.602   8.067
 1612POPC   C4A22470  43.960  16.708   7.682
 1612POPC   C1B22471  43.464  17.003   8.793
 1612POPC   C2B22472  43.331  16.952   8.345
 1612POPC   C3B22473  43.593  16.999   7.942
 1612POPC   C4B22474  43.569  16.960   7.491
 1613POPC   NC322475   0.123  38.713   9.572
 1613POPC   PO422476   0.361  39.381   9.520
 1613POPC   GL122477   0.363  39.021   9.189
 1613POPC   GL222478   0.662  39.048   8.970
 1613POPC   C1A22479   0.240  39.119   8.737
 1613POPC   D2A22480   0.588  39.304   8.492
 1613POPC   C3A22481   0.501  39.520   8.105
 1613POPC   C4A22482   0.379  39.297   7.761
 1613POPC   C1B22483   1.051  39.083   8.700
 1613POPC   C2B22484   1.201  38.877   8.336
 1613POPC   C3B22485   0.883  38.715   8.088
 1613POPC   C4B22486   0.644  38.844   7.756
 1614POPC   NC322487  13.747  16.124   9.216
 1614POPC   PO422488  13.666  15.508   9.482
 1614POPC   GL122489  13.408  15.697   9.128
 1614POPC   GL222490  13.245  16.051   9.076
 1614POPC   C1A22491  13.553  15.795   8.699
 1614POPC   D2A22492  13.556  16.090   8.375
 1614POPC   C3A22493  13.547  15.787   8.066
 1614POPC   C4A22494  13.488  15.853   7.656
 1614POPC   C1B22495  13.071  15.968   8.638
 1614POPC   C2B22496  13.090  15.971   8.169
 1614POPC   C3B22497  13.223  16.270   7.863
 1614POPC   C4B22498  13.449  16.355   7.480
 1615POPC   NC322499  23.732   4.735   9.439
 1615POPC   PO422500  23.473   4.089   9.557
 1615POPC   GL122501  23.523   4.346   9.162
 1615POPC   GL222502  23.886   4.352   9.093
 1615POPC   C1A22503  23.586   4.381   8.688
 1615POPC   D2A22504  23.940   4.227   8.406
 1615POPC   C3A22505  23.885   4.403   8.004
 1615POPC   C4A22506  23.547   4.652   7.814
 1615POPC   C1B22507  23.805   3.939   8.848
 1615POPC   C2B22508  23.761   3.741   8.454
 1615POPC   C3B22509  23.607   3.902   8.058
 1615POPC   C4B22510  23.694   4.088   7.653
 1616POPC   NC322511  41.367  25.323   9.533
 1616POPC   PO422512  41.755  25.771   9.383
 1616POPC   GL122513  41.675  25.342   9.124
 1616POPC   GL222514  41.330  25.140   9.064
 1616POPC   C1A22515  41.557  25.360   8.680
 1616POPC   D2A22516  41.736  25.569   8.368
 1616POPC   C3A22517  41.483  25.630   8.065
 1616POPC   C4A22518  41.515  25.503   7.701
 1616POPC   C1B22519  41.102  25.138   8.644
 1616POPC   C2B22520  41.309  25.168   8.214
 1616POPC   C3B22521  41.406  25.009   7.772
 1616POPC   C4B22522  41.687  24.786   7.481
 1617POPC   NC322523  28.760  37.944   9.478
 1617POPC   PO422524  28.121  37.681   9.551
 1617POPC   GL122525  28.293  37.870   9.183
 1617POPC   GL222526  28.562  37.603   9.162
 1617POPC   C1A22527  28.215  37.978   8.740
 1617POPC   D2A22528  27.995  37.871   8.345
 1617POPC   C3A22529  28.221  37.608   8.075
 1617POPC   C4A22530  28.630  37.735   7.903
 1617POPC   C1B22531  28.702  37.401   8.795
 1617POPC   C2B22532  28.612  37.447   8.375
 1617POPC   C3B22533  28.570  37.226   7.986
 1617POPC   C4B22534  28.783  37.363   7.603
 1618POPC   NC322535  38.649   3.161   9.661
 1618POPC   PO422536  38.653   3.822   9.462
 1618POPC   GL122537  38.624   3.437   9.215
 1618POPC   GL222538  38.908   3.436   8.975
 1618POPC   C1A22539  38.421   3.332   8.822
 1618POPC   D2A22540  38.575   3.387   8.409
 1618POPC   C3A22541  38.283   3.517   8.096
 1618POPC   C4A22542  38.288   3.357   7.689
 1618POPC   C1B22543  38.618   3.794   8.811
 1618POPC   C2B22544  38.451   3.901   8.425
 1618POPC   C3B22545  38.624   3.919   8.055
 1618POPC   C4B22546  38.433   3.839   7.679
 1619POPC   NC322547  44.203  40.707   9.469
 1619POPC   PO422548  44.803  41.037   9.462
 1619POPC   GL122549  44.848  40.848   9.111
 1619POPC   GL222550  44.493  40.811   9.062
 1619POPC   C1A22551  44.890  40.961   8.731
 1619POPC   D2A22552  44.604  40.830   8.432
 1619POPC   C3A22553  44.769  40.973   8.075
 1619POPC   C4A22554  44.701  40.854   7.664
 1619POPC   C1B22555  44.224  40.995   8.762
 1619POPC   C2B22556  44.084  40.850   8.383
 1619POPC   C3B22557  44.268  40.849   7.972
 1619POPC   C4B22558  44.287  40.593   7.615
 1620POPC   NC322559  11.370   2.399   9.320
 1620POPC   PO422560  11.091   3.053   9.457
 1620POPC   GL122561  11.174   2.840   9.098
 1620POPC   GL222562  10.979   2.565   8.960
 1620POPC   C1A22563  11.312   2.896   8.703
 1620POPC   D2A22564  11.148   3.074   8.337
 1620POPC   C3A22565  10.888   2.847   8.066
 1620POPC   C4A22566  11.059   2.826   7.691
 1620POPC   C1B22567  11.219   2.398   8.640
 1620POPC   C2B22568  11.162   2.428   8.210
 1620POPC   C3B22569  11.425   2.523   7.857
 1620POPC   C4B22570  11.397   2.596   7.337
 1621POPC   NC322571  20.796  21.027   9.737
 1621POPC   PO422572  20.413  20.480   9.431
 1621POPC   GL122573  20.611  20.569   9.075
 1621POPC   GL222574  20.348  20.778   9.000
 1621POPC   C1A22575  20.781  20.653   8.655
 1621POPC   D2A22576  20.909  20.891   8.310
 1621POPC   C3A22577  20.791  20.653   7.988
 1621POPC   C4A22578  20.781  20.199   7.905
 1621POPC   C1B22579  20.288  20.472   8.684
 1621POPC   C2B22580  20.416  20.322   8.269
 1621POPC   C3B22581  20.347  20.429   7.818
 1621POPC   C4B22582  20.582  20.665   7.527
 1622POPC   NC322583  28.980  16.483   9.545
 1622POPC   PO422584  29.460  16.860   9.782
 1622POPC   GL122585  29.371  16.724   9.321
 1622POPC   GL222586  29.463  16.393   9.251
 1622POPC   C1A22587  29.281  16.765   8.854
 1622POPC   D2A22588  29.429  16.912   8.432
 1622POPC   C3A22589  29.103  16.865   8.170
 1622POPC   C4A22590  29.154  16.835   7.770
 1622POPC   C1B22591  29.450  16.284   8.800
 1622POPC   C2B22592  29.279  16.420   8.385
 1622POPC   C3B22593  29.438  16.441   7.959
 1622POPC   C4B22594  29.638  16.599   7.578
 1623POPC   NC322595   1.651  37.699   9.608
 1623POPC   PO422596   2.280  37.862   9.425
 1623POPC   GL122597   1.910  37.772   9.176
 1623POPC   GL222598   1.669  38.059   9.243
 1623POPC   C1A22599   1.906  37.482   8.808
 1623POPC   D2A22600   2.220  37.539   8.456
 1623POPC   C3A22601   2.041  37.600   8.048
 1623POPC   C4A22602   1.970  37.984   7.831
 1623POPC   C1B22603   1.569  37.884   8.824
 1623POPC   C2B22604   1.699  37.756   8.427
 1623POPC   C3B22605   1.517  37.938   8.126
 1623POPC   C4B22606   1.403  38.130   7.766
 1624POPC   NC322607  40.995  22.616   9.406
 1624POPC   PO422608  40.670  22.002   9.186
 1624POPC   GL122609  40.915  22.306   9.025
 1624POPC   GL222610  40.662  22.580   9.027
 1624POPC   C1A22611  41.071  22.517   8.684
 1624POPC   D2A22612  40.893  22.485   8.268
 1624POPC   C3A22613  40.918  22.106   8.002
 1624POPC   C4A22614  41.102  22.085   7.601
 1624POPC   C1B22615  40.548  22.401   8.644
 1624POPC   C2B22616  40.470  22.115   8.341
 1624POPC   C3B22617  40.419  22.156   7.933
 1624POPC   C4B22618  40.606  21.975   7.573
 1625POPC   NC322619  25.545  27.448   9.514
 1625POPC   PO422620  24.941  27.786   9.586
 1625POPC   GL122621  25.095  27.583   9.202
 1625POPC   GL222622  24.929  27.875   9.065
 1625POPC   C1A22623  25.411  27.476   8.841
 1625POPC   D2A22624  25.393  27.310   8.397
 1625POPC   C3A22625  25.460  27.523   7.992
 1625POPC   C4A22626  25.385  27.976   7.896
 1625POPC   C1B22627  24.961  27.644   8.684
 1625POPC   C2B22628  25.102  27.724   8.276
 1625POPC   C3B22629  24.964  27.665   7.858
 1625POPC   C4B22630  24.992  28.010   7.550
 1626POPC   NC322631  21.451  43.538   9.536
 1626POPC   PO422632  20.976  44.003   9.586
 1626POPC   GL122633  21.192  44.035   9.127
 1626POPC   GL222634  21.358  43.675   9.065
 1626POPC   C1A22635  21.482  44.026   8.748
 1626POPC   D2A22636  21.431  43.985   8.313
 1626POPC   C3A22637  21.752  44.148   8.069
 1626POPC   C4A22638  21.593  43.890   7.751
 1626POPC   C1B22639  21.149  43.664   8.669
 1626POPC   C2B22640  21.220  43.513   8.266
 1626POPC   C3B22641  21.131  43.655   7.858
 1626POPC   C4B22642  21.217  43.522   7.433
 1627POPC   NC322643  30.041   1.466   9.513
 1627POPC   PO422644  30.138   0.804   9.339
 1627POPC   GL122645  30.049   1.153   9.122
 1627POPC   GL222646  29.713   1.203   9.215
 1627POPC   C1A22647  29.959   1.273   8.739
 1627POPC   D2A22648  29.917   0.975   8.444
 1627POPC   C3A22649  29.959   1.099   8.056
 1627POPC   C4A22650  29.852   1.348   7.703
 1627POPC   C1B22651  29.513   1.040   8.834
 1627POPC   C2B22652  29.471   1.247   8.442
 1627POPC   C3B22653  29.470   1.157   8.046
 1627POPC   C4B22654  29.497   0.981   7.674
 1628POPC   NC322655  39.165  24.088   9.564
 1628POPC   PO422656  39.425  23.444   9.398
 1628POPC   GL122657  39.396  23.829   9.174
 1628POPC   GL222658  39.089  23.699   9.073
 1628POPC   C1A22659  39.305  24.041   8.787
 1628POPC   D2A22660  39.082  23.923   8.456
 1628POPC   C3A22661  39.325  24.072   8.117
 1628POPC   C4A22662  39.134  23.970   7.745
 1628POPC   C1B22663  39.412  23.544   8.727
 1628POPC   C2B22664  39.716  23.522   8.380
 1628POPC   C3B22665  39.501  23.589   7.996
 1628POPC   C4B22666  39.533  23.707   7.574
 1629POPC   NC322667  10.024  44.986   9.468
 1629POPC   PO422668   9.895  44.344   9.550
 1629POPC   GL122669   9.772  44.630   9.215
 1629POPC   GL222670   9.441  44.626   9.164
 1629POPC   C1A22671   9.911  44.808   8.824
 1629POPC   D2A22672  10.145  44.793   8.446
 1629POPC   C3A22673   9.835  44.893   8.122
 1629POPC   C4A22674   9.774  44.711   7.737
 1629POPC   C1B22675   9.421  44.469   8.761
 1629POPC   C2B22676   9.395  44.675   8.375
 1629POPC   C3B22677   9.332  44.730   7.956
 1629POPC   C4B22678   9.328  44.447   7.611
 1630POPC   NC322679   6.932  27.614   9.536
 1630POPC   PO422680   6.199  27.647   9.646
 1630POPC   GL122681   6.310  27.586   9.199
 1630POPC   GL222682   6.586  27.831   9.189
 1630POPC   C1A22683   6.342  27.574   8.722
 1630POPC   D2A22684   6.413  27.826   8.334
 1630POPC   C3A22685   6.512  27.627   7.921
 1630POPC   C4A22686   6.673  27.222   7.796
 1630POPC   C1B22687   6.817  27.588   8.894
 1630POPC   C2B22688   6.867  27.612   8.483
 1630POPC   C3B22689   7.009  27.389   8.143
 1630POPC   C4B22690   7.065  27.535   7.746
 1631POPC   NC322691   4.491   1.590   9.412
 1631POPC   PO422692   4.588   2.285   9.423
 1631POPC   GL122693   4.321   2.128   9.076
 1631POPC   GL222694   4.169   1.792   9.074
 1631POPC   C1A22695   4.449   1.937   8.686
 1631POPC   D2A22696   4.443   1.782   8.269
 1631POPC   C3A22697   4.560   2.081   7.961
 1631POPC   C4A22698   4.353   2.271   7.630
 1631POPC   C1B22699   3.946   1.770   8.678
 1631POPC   C2B22700   3.937   1.907   8.270
 1631POPC   C3B22701   4.060   1.747   7.883
 1631POPC   C4B22702   4.232   1.820   7.469
 1632POPC   NC322703  32.778  10.129   9.616
 1632POPC   PO422704  33.091  10.621   9.388
 1632POPC   GL122705  33.239  10.613   9.055
 1632POPC   GL222706  33.542  10.816   9.103
 1632POPC   C1A22707  32.972  10.477   8.737
 1632POPC   D2A22708  32.713  10.531   8.390
 1632POPC   C3A22709  32.904  10.454   8.006
 1632POPC   C4A22710  33.105  10.587   7.643
 1632POPC   C1B22711  33.341  10.986   8.750
 1632POPC   C2B22712  33.149  10.846   8.408
 1632POPC   C3B22713  33.295  10.819   8.056
 1632POPC   C4B22714  33.325  11.029   7.717
 1633POPC   NC322715  28.199  20.309   9.529
 1633POPC   PO422716  28.263  20.987   9.468
 1633POPC   GL122717  28.443  20.784   9.141
 1633POPC   GL222718  28.132  20.617   9.117
 1633POPC   C1A22719  28.579  20.738   8.701
 1633POPC   D2A22720  28.482  20.986   8.310
 1633POPC   C3A22721  28.305  20.803   7.902
 1633POPC   C4A22722  28.396  20.663   7.466
 1633POPC   C1B22723  28.088  20.881   8.778
 1633POPC   C2B22724  28.017  20.769   8.377
 1633POPC   C3B22725  27.806  20.809   7.995
 1633POPC   C4B22726  27.935  20.513   7.664
 1634POPC   NC322727  11.229  27.912   9.479
 1634POPC   PO422728  11.737  27.426   9.638
 1634POPC   GL122729  11.463  27.539   9.208
 1634POPC   GL222730  11.044  27.515   9.147
 1634POPC   C1A22731  11.316  27.578   8.733
 1634POPC   D2A22732  11.241  27.664   8.272
 1634POPC   C3A22733  11.386  27.331   7.989
 1634POPC   C4A22734  11.461  27.337   7.543
 1634POPC   C1B22735  10.810  27.727   8.751
 1634POPC   C2B22736  10.629  27.962   8.377
 1634POPC   C3B22737  10.786  27.912   7.962
 1634POPC   C4B22738  11.067  27.664   7.744
 1635POPC   NC322739  22.827  32.960   9.634
 1635POPC   PO422740  22.869  33.655   9.596
 1635POPC   GL122741  22.921  33.316   9.214
 1635POPC   GL222742  22.894  32.936   9.141
 1635POPC   C1A22743  23.012  33.273   8.763
 1635POPC   D2A22744  22.970  32.947   8.430
 1635POPC   C3A22745  22.975  32.991   7.970
 1635POPC   C4A22746  22.839  32.661   7.678
 1635POPC   C1B22747  22.562  33.022   8.869
 1635POPC   C2B22748  22.443  32.943   8.464
 1635POPC   C3B22749  22.492  32.851   8.051
 1635POPC   C4B22750  22.521  33.057   7.695
 1636POPC   NC322751   9.054  12.594   9.555
 1636POPC   PO422752   9.090  11.900   9.599
 1636POPC   GL122753   9.150  12.127   9.215
 1636POPC   GL222754   9.432  12.330   9.270
 1636POPC   C1A22755   9.106  11.939   8.790
 1636POPC   D2A22756   8.927  11.793   8.390
 1636POPC   C3A22757   8.754  12.048   8.032
 1636POPC   C4A22758   8.774  11.907   7.606
 1636POPC   C1B22759   9.425  12.342   8.782
 1636POPC   C2B22760   9.201  12.244   8.356
 1636POPC   C3B22761   9.244  12.140   7.896
 1636POPC   C4B22762   9.101  12.309   7.492
 1637POPC   NC322763   0.507  20.969   9.742
 1637POPC   PO422764   0.272  21.584   9.590
 1637POPC   GL122765   0.381  21.445   9.179
 1637POPC   GL222766   0.425  21.118   9.235
 1637POPC   C1A22767   0.270  21.392   8.735
 1637POPC   D2A22768   0.162  21.483   8.309
 1637POPC   C3A22769   0.352  21.355   7.929
 1637POPC   C4A22770   0.612  21.572   7.591
 1637POPC   C1B22771   0.693  21.153   8.876
 1637POPC   C2B22772   0.725  21.244   8.437
 1637POPC   C3B22773   0.923  21.061   8.076
 1637POPC   C4B22774   0.695  21.073   7.701
 1638POPC   NC322775   7.637   9.553   9.373
 1638POPC   PO422776   7.021   9.741   9.219
 1638POPC   GL122777   7.356   9.861   9.055
 1638POPC   GL222778   7.440   9.546   8.904
 1638POPC   C1A22779   7.463  10.006   8.675
 1638POPC   D2A22780   7.407   9.729   8.332
 1638POPC   C3A22781   7.435  10.004   8.039
 1638POPC   C4A22782   7.538   9.946   7.664
 1638POPC   C1B22783   7.791   9.581   8.631
 1638POPC   C2B22784   7.809   9.352   8.281
 1638POPC   C3B22785   7.608   9.448   7.917
 1638POPC   C4B22786   7.848   9.548   7.584
 1639POPC   NC322787  33.131  11.737   9.443
 1639POPC   PO422788  33.134  12.393   9.537
 1639POPC   GL122789  33.038  12.167   9.172
 1639POPC   GL222790  32.738  12.006   9.227
 1639POPC   C1A22791  33.194  12.136   8.757
 1639POPC   D2A22792  33.395  12.260   8.368
 1639POPC   C3A22793  33.179  12.205   8.005
 1639POPC   C4A22794  33.158  11.806   7.868
 1639POPC   C1B22795  32.748  11.875   8.799
 1639POPC   C2B22796  32.811  12.103   8.401
 1639POPC   C3B22797  32.640  12.151   8.008
 1639POPC   C4B22798  32.671  11.809   7.737
 1640POPC   NC322799  26.266   3.414   9.470
 1640POPC   PO422800  25.575   3.191   9.464
 1640POPC   GL122801  25.770   3.514   9.140
 1640POPC   GL222802  26.143   3.672   9.058
 1640POPC   C1A22803  25.828   3.537   8.693
 1640POPC   D2A22804  26.013   3.348   8.336
 1640POPC   C3A22805  25.876   3.486   7.950
 1640POPC   C4A22806  25.882   3.910   7.818
 1640POPC   C1B22807  26.328   3.618   8.644
 1640POPC   C2B22808  26.226   3.805   8.250
 1640POPC   C3B22809  26.392   3.663   7.868
 1640POPC   C4B22810  26.192   3.511   7.510
 1641POPC   NC322811  38.337   2.547   9.840
 1641POPC   PO422812  38.855   2.844   9.412
 1641POPC   GL122813  38.678   2.911   9.039
 1641POPC   GL222814  38.314   2.887   9.017
 1641POPC   C1A22815  38.598   2.883   8.605
 1641POPC   D2A22816  38.498   2.682   8.247
 1641POPC   C3A22817  38.571   3.005   7.936
 1641POPC   C4A22818  38.767   3.440   7.920
 1641POPC   C1B22819  38.071   2.556   8.775
 1641POPC   C2B22820  37.827   2.493   8.380
 1641POPC   C3B22821  38.063   2.524   8.016
 1641POPC   C4B22822  38.405   2.531   7.761
 1642POPC   NC322823   7.851  32.356   9.553
 1642POPC   PO422824   8.526  32.217   9.612
 1642POPC   GL122825   8.289  32.279   9.244
 1642POPC   GL222826   8.410  31.969   9.117
 1642POPC   C1A22827   8.065  32.248   8.836
 1642POPC   D2A22828   7.935  32.020   8.465
 1642POPC   C3A22829   8.102  32.076   8.051
 1642POPC   C4A22830   8.042  31.838   7.658
 1642POPC   C1B22831   8.423  31.867   8.696
 1642POPC   C2B22832   8.664  32.043   8.380
 1642POPC   C3B22833   8.617  32.226   8.006
 1642POPC   C4B22834   8.519  32.018   7.694
 1643POPC   NC322835  26.744  23.939   9.380
 1643POPC   PO422836  27.318  23.606   9.533
 1643POPC   GL122837  27.008  23.579   9.121
 1643POPC   GL222838  27.142  23.796   8.839
 1643POPC   C1A22839  26.651  23.706   8.791
 1643POPC   D2A22840  26.806  23.974   8.476
 1643POPC   C3A22841  26.633  23.996   8.079
 1643POPC   C4A22842  26.773  23.955   7.700
 1643POPC   C1B22843  27.062  23.415   8.644
 1643POPC   C2B22844  26.776  23.491   8.314
 1643POPC   C3B22845  26.904  23.521   7.900
 1643POPC   C4B22846  26.992  23.568   7.452
 1644POPC   NC322847  33.054  29.630   9.367
 1644POPC   PO422848  32.831  29.005   9.347
 1644POPC   GL122849  33.024  29.010   8.989
 1644POPC   GL222850  33.331  29.165   9.128
 1644POPC   C1A22851  32.808  29.189   8.630
 1644POPC   D2A22852  32.761  29.505   8.326
 1644POPC   C3A22853  32.797  29.335   7.932
 1644POPC   C4A22854  33.005  28.964   7.768
 1644POPC   C1B22855  33.277  29.378   8.721
 1644POPC   C2B22856  33.216  29.211   8.289
 1644POPC   C3B22857  33.303  29.352   7.878
 1644POPC   C4B22858  33.174  29.290   7.430
 1645POPC   NC322859  35.157  34.664   9.489
 1645POPC   PO422860  35.629  34.203   9.413
 1645POPC   GL122861  35.322  34.342   9.121
 1645POPC   GL222862  35.442  34.708   9.050
 1645POPC   C1A22863  35.214  34.403   8.716
 1645POPC   D2A22864  35.410  34.742   8.518
 1645POPC   C3A22865  35.378  34.629   8.123
 1645POPC   C4A22866  35.215  34.772   7.748
 1645POPC   C1B22867  35.720  34.423   8.773
 1645POPC   C2B22868  35.931  34.312   8.375
 1645POPC   C3B22869  35.813  34.297   7.949
 1645POPC   C4B22870  35.455  34.339   7.701
 1646POPC   NC322871  30.498  12.321   9.404
 1646POPC   PO422872  29.891  12.337   9.575
 1646POPC   GL122873  29.983  12.264   9.142
 1646POPC   GL222874  30.157  12.021   9.078
 1646POPC   C1A22875  29.886  12.238   8.700
 1646POPC   D2A22876  29.876  12.512   8.338
 1646POPC   C3A22877  30.075  12.397   8.032
 1646POPC   C4A22878  29.863  12.110   7.779
 1646POPC   C1B22879  30.136  11.793   8.710
 1646POPC   C2B22880  30.132  11.975   8.294
 1646POPC   C3B22881  30.359  11.984   7.894
 1646POPC   C4B22882  30.286  12.013   7.456
 1647POPC   NC322883   8.670  18.984   9.471
 1647POPC   PO422884   9.285  19.038   9.275
 1647POPC   GL122885   9.068  18.779   8.994
 1647POPC   GL222886   8.699  18.676   9.023
 1647POPC   C1A22887   9.189  19.023   8.632
 1647POPC   D2A22888   9.426  19.309   8.403
 1647POPC   C3A22889   9.279  19.136   8.041
 1647POPC   C4A22890   9.119  19.050   7.632
 1647POPC   C1B22891   8.679  19.065   8.771
 1647POPC   C2B22892   8.787  19.141   8.337
 1647POPC   C3B22893   8.809  19.354   7.971
 1647POPC   C4B22894   8.674  19.305   7.590
 1648POPC   NC322895  36.175  15.145   9.540
 1648POPC   PO422896  35.605  15.502   9.625
 1648POPC   GL122897  35.894  15.413   9.210
 1648POPC   GL222898  35.860  15.040   9.118
 1648POPC   C1A22899  36.179  15.444   8.805
 1648POPC   D2A22900  36.075  15.340   8.385
 1648POPC   C3A22901  36.259  15.374   8.002
 1648POPC   C4A22902  35.995  15.466   7.649
 1648POPC   C1B22903  36.243  14.901   8.882
 1648POPC   C2B22904  36.428  14.996   8.494
 1648POPC   C3B22905  36.339  14.883   8.080
 1648POPC   C4B22906  36.100  14.941   7.720
 1649POPC   NC322907  24.641  37.562   9.407
 1649POPC   PO422908  24.199  38.081   9.418
 1649POPC   GL122909  24.246  37.791   9.098
 1649POPC   GL222910  24.354  37.460   8.990
 1649POPC   C1A22911  24.544  37.924   8.802
 1649POPC   D2A22912  24.729  37.996   8.411
 1649POPC   C3A22913  24.528  37.738   8.114
 1649POPC   C4A22914  24.427  37.719   7.715
 1649POPC   C1B22915  24.397  37.486   8.552
 1649POPC   C2B22916  24.542  37.216   8.220
 1649POPC   C3B22917  24.720  37.311   7.824
 1649POPC   C4B22918  24.683  37.391   7.373
 1650POPC   NC322919   3.013   3.797   9.273
 1650POPC   PO422920   2.793   3.227   9.647
 1650POPC   GL122921   2.697   3.400   9.212
 1650POPC   GL222922   2.448   3.630   9.086
 1650POPC   C1A22923   2.716   3.390   8.750
 1650POPC   D2A22924   2.902   3.565   8.391
 1650POPC   C3A22925   2.870   3.301   8.054
 1650POPC   C4A22926   2.644   3.433   7.755
 1650POPC   C1B22927   2.637   3.887   8.759
 1650POPC   C2B22928   2.560   4.070   8.387
 1650POPC   C3B22929   2.680   3.879   8.002
 1650POPC   C4B22930   2.458   3.850   7.578
 1651POPC   NC322931   5.261   1.507   9.870
 1651POPC   PO422932   5.078   0.906   9.534
 1651POPC   GL122933   5.054   1.024   9.100
 1651POPC   GL222934   5.160   1.308   9.044
 1651POPC   C1A22935   4.977   1.137   8.631
 1651POPC   D2A22936   5.054   1.015   8.234
 1651POPC   C3A22937   5.180   1.279   7.919
 1651POPC   C4A22938   5.027   1.296   7.464
 1651POPC   C1B22939   5.411   1.483   8.717
 1651POPC   C2B22940   5.711   1.527   8.337
 1651POPC   C3B22941   5.579   1.602   7.933
 1651POPC   C4B22942   5.216   1.738   7.683
 1652POPC   NC322943  12.172   2.153   9.563
 1652POPC   PO422944  11.734   1.745   9.512
 1652POPC   GL122945  11.962   1.921   9.134
 1652POPC   GL222946  12.186   2.225   9.052
 1652POPC   C1A22947  11.763   2.058   8.748
 1652POPC   D2A22948  11.594   2.166   8.345
 1652POPC   C3A22949  11.737   1.897   8.073
 1652POPC   C4A22950  12.040   1.947   7.784
 1652POPC   C1B22951  12.153   2.369   8.617
 1652POPC   C2B22952  12.211   2.134   8.242
 1652POPC   C3B22953  12.435   2.231   7.875
 1652POPC   C4B22954  12.294   2.365   7.444
 1653POPC   NC322955  27.879  27.410   9.276
 1653POPC   PO422956  28.341  27.903   9.523
 1653POPC   GL122957  28.263  27.839   9.140
 1653POPC   GL222958  28.016  28.093   9.100
 1653POPC   C1A22959  28.491  27.699   8.771
 1653POPC   D2A22960  28.602  27.543   8.385
 1653POPC   C3A22961  28.618  27.765   8.025
 1653POPC   C4A22962  28.628  27.517   7.707
 1653POPC   C1B22963  27.994  27.816   8.715
 1653POPC   C2B22964  28.108  27.421   8.491
 1653POPC   C3B22965  28.228  27.379   8.051
 1653POPC   C4B22966  28.145  27.742   7.808
 1654POPC   NC322967  19.763  14.210   9.475
 1654POPC   PO422968  20.152  14.703   9.336
 1654POPC   GL122969  19.849  14.518   9.056
 1654POPC   GL222970  19.964  14.169   9.030
 1654POPC   C1A22971  19.606  14.621   8.683
 1654POPC   D2A22972  19.380  14.591   8.305
 1654POPC   C3A22973  19.648  14.652   7.943
 1654POPC   C4A22974  20.001  14.428   7.763
 1654POPC   C1B22975  19.745  14.129   8.678
 1654POPC   C2B22976  19.746  14.236   8.246
 1654POPC   C3B22977  19.690  14.028   7.866
 1654POPC   C4B22978  19.886  13.965   7.445
 1655POPC   NC322979  41.980   7.262   9.495
 1655POPC   PO422980  42.388   7.794   9.567
 1655POPC   GL122981  42.391   7.562   9.178
 1655POPC   GL222982  42.093   7.422   9.044
 1655POPC   C1A22983  42.522   7.505   8.759
 1655POPC   D2A22984  42.298   7.458   8.404
 1655POPC   C3A22985  42.473   7.312   8.051
 1655POPC   C4A22986  42.335   7.523   7.688
 1655POPC   C1B22987  42.199   7.094   8.755
 1655POPC   C2B22988  42.052   7.034   8.309
 1655POPC   C3B22989  42.025   7.145   7.879
 1655POPC   C4B22990  42.128   7.124   7.454
 1656POPC   NC322991  42.924  18.865   9.439
 1656POPC   PO422992  43.296  19.458   9.615
 1656POPC   GL122993  43.288  19.208   9.199
 1656POPC   GL222994  42.975  19.070   8.990
 1656POPC   C1A22995  43.417  19.088   8.769
 1656POPC   D2A22996  43.330  18.897   8.358
 1656POPC   C3A22997  43.383  19.144   7.970
 1656POPC   C4A22998  43.119  18.902   7.726
 1656POPC   C1B22999  42.837  19.268   8.658
 1656POPC   C2B23000  42.990  19.314   8.267
 1656POPC   C3B23001  42.928  19.373   7.836
 1656POPC   C4B23002  42.890  19.215   7.405
 1657POPC   NC323003  25.617   6.211   9.445
 1657POPC   PO423004  26.141   5.542   9.420
 1657POPC   GL123005  25.926   5.659   9.090
 1657POPC   GL223006  25.911   5.998   9.097
 1657POPC   C1A23007  26.132   5.656   8.703
 1657POPC   D2A23008  26.435   5.757   8.392
 1657POPC   C3A23009  26.233   5.760   8.009
 1657POPC   C4A23010  26.067   6.020   7.696
 1657POPC   C1B23011  25.871   6.107   8.719
 1657POPC   C2B23012  26.044   6.106   8.332
 1657POPC   C3B23013  25.742   6.166   8.067
 1657POPC   C4B23014  25.432   6.106   7.792
 1658POPC   NC323015  30.287  40.165   9.712
 1658POPC   PO423016  29.689  39.882   9.444
 1658POPC   GL123017  29.699  40.147   9.115
 1658POPC   GL223018  29.740  39.907   8.903
 1658POPC   C1A23019  29.918  40.356   8.775
 1658POPC   D2A23020  29.853  40.146   8.418
 1658POPC   C3A23021  30.097  40.280   8.102
 1658POPC   C4A23022  29.989  40.186   7.694
 1658POPC   C1B23023  30.112  39.756   8.641
 1658POPC   C2B23024  30.117  39.766   8.176
 1658POPC   C3B23025  30.323  39.814   7.789
 1658POPC   C4B23026  30.236  39.869   7.339
 1659POPC   NC323027   9.985  20.491   9.552
 1659POPC   PO423028   9.675  21.076   9.531
 1659POPC   GL123029   9.696  20.760   9.204
 1659POPC   GL223030   9.369  20.607   9.152
 1659POPC   C1A23031   9.792  20.413   8.905
 1659POPC   D2A23032   9.577  20.322   8.529
 1659POPC   C3A23033   9.753  20.510   8.193
 1659POPC   C4A23034   9.725  20.438   7.786
 1659POPC   C1B23035   9.479  20.775   8.723
 1659POPC   C2B23036   9.325  20.788   8.301
 1659POPC   C3B23037   9.551  20.896   7.926
 1659POPC   C4B23038   9.997  20.987   7.833
 1660POPC   NC323039   2.565   7.746   9.443
 1660POPC   PO423040   2.779   7.138   9.399
 1660POPC   GL123041   2.937   7.246   9.043
 1660POPC   GL223042   2.925   7.609   9.030
 1660POPC   C1A23043   2.823   7.103   8.663
 1660POPC   D2A23044   2.749   7.407   8.367
 1660POPC   C3A23045   2.761   7.228   7.995
 1660POPC   C4A23046   2.984   7.285   7.614
 1660POPC   C1B23047   2.516   7.503   8.828
 1660POPC   C2B23048   2.286   7.639   8.464
 1660POPC   C3B23049   2.364   7.584   8.031
 1660POPC   C4B23050   2.582   7.567   7.632
 1661POPC   NC323051  37.447  12.401   9.442
 1661POPC   PO423052  37.798  11.857   9.587
 1661POPC   GL123053  37.824  11.999   9.152
 1661POPC   GL223054  37.733  12.329   9.013
 1661POPC   C1A23055  37.701  11.916   8.730
 1661POPC   D2A23056  37.612  11.898   8.310
 1661POPC   C3A23057  37.770  12.244   8.106
 1661POPC   C4A23058  37.809  12.021   7.738
 1661POPC   C1B23059  37.430  12.388   8.691
 1661POPC   C2B23060  37.268  12.264   8.293
 1661POPC   C3B23061  37.344  12.176   7.837
 1661POPC   C4B23062  37.586  12.347   7.429
 1662POPC   NC323063   0.129  20.214   9.379
 1662POPC   PO423064   0.535  20.515   9.872
 1662POPC   GL123065   0.426  20.627   9.359
 1662POPC   GL223066   0.676  20.518   9.091
 1662POPC   C1A23067   0.313  20.757   8.868
 1662POPC   D2A23068   0.254  20.966   8.440
 1662POPC   C3A23069   0.454  20.819   8.079
 1662POPC   C4A23070   0.358  20.697   7.672
 1662POPC   C1B23071   0.541  20.283   8.736
 1662POPC   C2B23072   0.296  20.420   8.379
 1662POPC   C3B23073   0.307  20.281   7.973
 1662POPC   C4B23074   0.618  20.136   7.699
 1663POPC   NC323075  18.294  28.655   9.480
 1663POPC   PO423076  18.641  28.114   9.520
 1663POPC   GL123077  18.455  28.260   9.143
 1663POPC   GL223078  18.780  28.304   9.042
 1663POPC   C1A23079  18.168  28.465   8.821
 1663POPC   D2A23080  18.153  28.667   8.397
 1663POPC   C3A23081  18.238  28.449   7.996
 1663POPC   C4A23082  17.955  28.157   7.781
 1663POPC   C1B23083  18.677  28.436   8.636
 1663POPC   C2B23084  18.635  28.244   8.255
 1663POPC   C3B23085  18.746  28.233   7.849
 1663POPC   C4B23086  18.649  28.651   7.711
 1664POPC   NC323087  18.185  13.816   9.332
 1664POPC   PO423088  18.199  13.165   9.349
 1664POPC   GL123089  18.270  13.399   9.026
 1664POPC   GL223090  18.623  13.388   9.050
 1664POPC   C1A23091  18.240  13.595   8.653
 1664POPC   D2A23092  17.967  13.673   8.356
 1664POPC   C3A23093  18.125  13.778   7.967
 1664POPC   C4A23094  18.541  13.875   7.912
 1664POPC   C1B23095  18.538  13.187   8.623
 1664POPC   C2B23096  18.330  13.296   8.233
 1664POPC   C3B23097  18.429  13.348   7.800
 1664POPC   C4B23098  18.585  13.341   7.338
 1665POPC   NC323099  38.626  14.477   9.741
 1665POPC   PO423100  38.103  14.284   9.332
 1665POPC   GL123101  38.461  14.291   9.060
 1665POPC   GL223102  38.784  14.047   9.028
 1665POPC   C1A23103  38.280  14.344   8.678
 1665POPC   D2A23104  38.166  14.107   8.326
 1665POPC   C3A23105  38.141  14.364   7.968
 1665POPC   C4A23106  38.330  14.544   7.585
 1665POPC   C1B23107  38.726  14.145   8.576
 1665POPC   C2B23108  38.550  14.476   8.275
 1665POPC   C3B23109  38.724  14.587   7.924
 1665POPC   C4B23110  38.751  14.225   7.694
 1666POPC   NC323111  19.523  18.473   9.418
 1666POPC   PO423112  19.845  17.917   9.286
 1666POPC   GL123113  20.139  18.039   9.007
 1666POPC   GL223114  20.106  18.398   9.043
 1666POPC   C1A23115  20.160  18.161   8.580
 1666POPC   D2A23116  20.158  18.193   8.142
 1666POPC   C3A23117  19.739  18.133   7.995
 1666POPC   C4A23118  19.695  18.223   7.598
 1666POPC   C1B23119  19.706  18.344   8.783
 1666POPC   C2B23120  19.547  18.456   8.369
 1666POPC   C3B23121  19.570  18.644   7.968
 1666POPC   C4B23122  19.890  18.698   7.668
 1667POPC   NC323123  18.288  32.783   9.468
 1667POPC   PO423124  17.986  33.366   9.588
 1667POPC   GL123125  18.111  33.195   9.190
 1667POPC   GL223126  18.473  33.152   9.139
 1667POPC   C1A23127  18.050  33.051   8.767
 1667POPC   D2A23128  18.112  32.736   8.467
 1667POPC   C3A23129  18.073  32.811   8.052
 1667POPC   C4A23130  18.073  33.068   7.738
 1667POPC   C1B23131  18.519  32.805   8.831
 1667POPC   C2B23132  18.625  32.722   8.398
 1667POPC   C3B23133  18.571  32.960   8.012
 1667POPC   C4B23134  18.549  32.773   7.628
 1668POPC   NC323135   8.017  39.525   9.357
 1668POPC   PO423136   8.555  39.172   9.620
 1668POPC   GL123137   8.378  39.224   9.160
 1668POPC   GL223138   8.040  39.160   8.965
 1668POPC   C1A23139   8.400  39.404   8.734
 1668POPC   D2A23140   8.144  39.199   8.414
 1668POPC   C3A23141   8.206  39.355   8.009
 1668POPC   C4A23142   8.230  39.164   7.599
 1668POPC   C1B23143   7.821  39.469   8.705
 1668POPC   C2B23144   7.756  39.536   8.258
 1668POPC   C3B23145   7.766  39.480   7.805
 1668POPC   C4B23146   7.814  39.377   7.377
 1669POPC   NC323147  33.590  18.624   9.492
 1669POPC   PO423148  33.553  17.971   9.666
 1669POPC   GL123149  33.724  18.099   9.228
 1669POPC   GL223150  33.865  18.421   9.114
 1669POPC   C1A23151  33.621  18.150   8.765
 1669POPC   D2A23152  33.394  18.408   8.485
 1669POPC   C3A23153  33.515  18.391   8.061
 1669POPC   C4A23154  33.762  18.272   7.697
 1669POPC   C1B23155  34.101  18.353   8.758
 1669POPC   C2B23156  33.937  18.241   8.357
 1669POPC   C3B23157  34.142  18.403   8.016
 1669POPC   C4B23158  34.170  18.583   7.609
 1670POPC   NC323159  25.212  34.140   9.459
 1670POPC   PO423160  24.963  34.779   9.481
 1670POPC   GL123161  25.166  34.782   9.068
 1670POPC   GL223162  25.538  34.727   8.974
 1670POPC   C1A23163  25.167  34.646   8.639
 1670POPC   D2A23164  25.541  34.647   8.394
 1670POPC   C3A23165  25.313  34.743   8.049
 1670POPC   C4A23166  25.267  34.695   7.640
 1670POPC   C1B23167  25.512  34.301   8.791
 1670POPC   C2B23168  25.357  34.166   8.390
 1670POPC   C3B23169  25.561  34.269   7.985
 1670POPC   C4B23170  25.500  34.268   7.537
 1671POPC   NC323171   9.485  37.948   9.395
 1671POPC   PO423172   8.975  37.624   9.730
 1671POPC   GL123173   8.973  37.832   9.302
 1671POPC   GL223174   8.713  38.079   9.148
 1671POPC   C1A23175   8.990  37.673   8.883
 1671POPC   D2A23176   9.182  37.586   8.489
 1671POPC   C3A23177   8.970  37.421   8.168
 1671POPC   C4A23178   9.064  37.397   7.779
 1671POPC   C1B23179   8.610  37.949   8.705
 1671POPC   C2B23180   8.838  37.929   8.307
 1671POPC   C3B23181   9.206  37.860   8.020
 1671POPC   C4B23182   8.999  37.885   7.621
 1672POPC   NC323183  27.342  30.039   9.482
 1672POPC   PO423184  27.823  29.631   9.525
 1672POPC   GL123185  27.536  29.684   9.169
 1672POPC   GL223186  27.657  30.039   9.068
 1672POPC   C1A23187  27.442  29.727   8.725
 1672POPC   D2A23188  27.756  29.967   8.482
 1672POPC   C3A23189  27.631  29.989   8.058
 1672POPC   C4A23190  27.732  30.066   7.634
 1672POPC   C1B23191  27.359  30.229   8.772
 1672POPC   C2B23192  27.212  30.054   8.366
 1672POPC   C3B23193  27.234  30.312   7.986
 1672POPC   C4B23194  27.293  30.281   7.559
 1673POPC   NC323195  13.580  24.210   9.696
 1673POPC   PO423196  14.087  24.597   9.465
 1673POPC   GL123197  13.869  24.647   9.119
 1673POPC   GL223198  13.609  24.438   9.123
 1673POPC   C1A23199  13.724  24.673   8.689
 1673POPC   D2A23200  13.825  24.422   8.354
 1673POPC   C3A23201  13.791  24.673   8.014
 1673POPC   C4A23202  13.910  24.433   7.670
 1673POPC   C1B23203  13.329  24.336   8.795
 1673POPC   C2B23204  13.323  24.293   8.335
 1673POPC   C3B23205  13.459  24.295   7.885
 1673POPC   C4B23206  13.457  24.529   7.489
 1674POPC   NC323207  39.639   8.111   9.531
 1674POPC   PO423208  39.092   8.379   9.583
 1674POPC   GL123209  39.325   8.388   9.192
 1674POPC   GL223210  39.264   8.060   9.122
 1674POPC   C1A23211  39.530   8.297   8.763
 1674POPC   D2A23212  39.617   8.041   8.400
 1674POPC   C3A23213  39.404   8.255   8.063
 1674POPC   C4A23214  39.279   8.141   7.665
 1674POPC   C1B23215  39.013   8.157   8.768
 1674POPC   C2B23216  38.949   8.336   8.357
 1674POPC   C3B23217  38.850   8.153   7.988
 1674POPC   C4B23218  38.792   8.299   7.580
 1675POPC   NC323219   2.680   2.032   9.642
 1675POPC   PO423220   3.314   1.806   9.492
 1675POPC   GL123221   2.973   1.930   9.187
 1675POPC   GL223222   2.585   2.037   9.150
 1675POPC   C1A23223   2.861   1.742   8.796
 1675POPC   D2A23224   2.600   1.792   8.415
 1675POPC   C3A23225   2.800   1.951   8.023
 1675POPC   C4A23226   2.766   1.824   7.568
 1675POPC   C1B23227   2.677   2.200   8.746
 1675POPC   C2B23228   2.704   2.387   8.360
 1675POPC   C3B23229   2.502   2.362   7.986
 1675POPC   C4B23230   2.773   2.333   7.672
 1676POPC   NC323231  10.792  17.229   9.728
 1676POPC   PO423232  10.374  17.731   9.538
 1676POPC   GL123233  10.600  17.473   9.202
 1676POPC   GL223234  10.854  17.206   9.231
 1676POPC   C1A23235  10.503  17.363   8.771
 1676POPC   D2A23236  10.256  17.533   8.462
 1676POPC   C3A23237  10.424  17.467   8.083
 1676POPC   C4A23238  10.608  17.588   7.725
 1676POPC   C1B23239  10.976  17.196   8.823
 1676POPC   C2B23240  10.877  17.352   8.392
 1676POPC   C3B23241  10.830  17.184   7.962
 1676POPC   C4B23242  10.906  17.218   7.526
 1677POPC   NC323243  40.957  21.648   9.260
 1677POPC   PO423244  40.662  21.031   9.422
 1677POPC   GL123245  40.524  21.301   9.107
 1677POPC   GL223246  40.279  21.547   9.230
 1677POPC   C1A23247  40.755  21.356   8.728
 1677POPC   D2A23248  41.016  21.582   8.404
 1677POPC   C3A23249  41.024  21.278   8.086
 1677POPC   C4A23250  40.704  21.165   7.798
 1677POPC   C1B23251  40.294  21.650   8.774
 1677POPC   C2B23252  40.494  21.615   8.390
 1677POPC   C3B23253  40.653  21.656   7.986
 1677POPC   C4B23254  40.975  21.600   7.687
 1678POPC   NC323255  35.606  29.612   9.333
 1678POPC   PO423256  35.226  30.244   9.415
 1678POPC   GL123257  35.405  30.033   9.102
 1678POPC   GL223258  35.200  29.738   9.040
 1678POPC   C1A23259  35.231  30.120   8.709
 1678POPC   D2A23260  34.979  30.255   8.363
 1678POPC   C3A23261  35.116  30.159   7.953
 1678POPC   C4A23262  35.549  30.097   7.866
 1678POPC   C1B23263  35.485  29.673   8.700
 1678POPC   C2B23264  35.476  29.815   8.306
 1678POPC   C3B23265  35.301  29.625   7.969
 1678POPC   C4B23266  35.246  29.755   7.617
 1679POPC   NC323267  24.663   6.485   9.396
 1679POPC   PO423268  24.496   7.148   9.435
 1679POPC   GL123269  24.633   6.945   9.068
 1679POPC   GL223270  24.395   6.681   9.007
 1679POPC   C1A23271  24.872   6.633   8.793
 1679POPC   D2A23272  24.808   6.299   8.489
 1679POPC   C3A23273  24.573   6.500   8.153
 1679POPC   C4A23274  24.391   6.576   7.768
 1679POPC   C1B23275  24.166   6.746   8.638
 1679POPC   C2B23276  24.075   6.664   8.217
 1679POPC   C3B23277  24.047   6.933   7.870
 1679POPC   C4B23278  24.127   6.827   7.423
 1680POPC   NC323279  24.884   9.572   9.482
 1680POPC   PO423280  25.477   9.703   9.595
 1680POPC   GL123281  25.287   9.802   9.225
 1680POPC   GL223282  25.248   9.474   9.102
 1680POPC   C1A23283  25.398   9.899   8.807
 1680POPC   D2A23284  25.171   9.933   8.419
 1680POPC   C3A23285  25.390   9.886   8.041
 1680POPC   C4A23286  25.293   9.936   7.610
 1680POPC   C1B23287  24.980   9.563   8.747
 1680POPC   C2B23288  25.008   9.447   8.302
 1680POPC   C3B23289  24.981   9.620   7.880
 1680POPC   C4B23290  24.939   9.682   7.375
 1681POPC   NC323291  40.985  40.976   9.464
 1681POPC   PO423292  40.723  40.348   9.538
 1681POPC   GL123293  40.660  40.556   9.160
 1681POPC   GL223294  40.562  40.912   9.164
 1681POPC   C1A23295  40.866  40.684   8.781
 1681POPC   D2A23296  41.066  40.560   8.390
 1681POPC   C3A23297  40.859  40.694   8.011
 1681POPC   C4A23298  40.578  40.685   7.688
 1681POPC   C1B23299  40.555  41.123   8.776
 1681POPC   C2B23300  40.708  40.991   8.399
 1681POPC   C3B23301  40.883  41.221   8.095
 1681POPC   C4B23302  40.980  41.081   7.703
 1682POPC   NC323303  11.527   6.531   9.641
 1682POPC   PO423304  10.961   6.358   9.352
 1682POPC   GL123305  11.272   6.617   9.156
 1682POPC   GL223306  11.603   6.457   9.131
 1682POPC   C1A23307  11.322   6.922   8.804
 1682POPC   D2A23308  11.210   7.059   8.364
 1682POPC   C3A23309  11.365   6.904   7.941
 1682POPC   C4A23310  11.351   6.966   7.445
 1682POPC   C1B23311  11.452   6.425   8.729
 1682POPC   C2B23312  11.367   6.548   8.331
 1682POPC   C3B23313  11.205   6.368   7.982
 1682POPC   C4B23314  11.288   6.501   7.626
 1683POPC   NC323315   4.104  25.136   9.841
 1683POPC   PO423316   3.537  25.413   9.435
 1683POPC   GL123317   3.728  25.211   9.134
 1683POPC   GL223318   3.459  25.326   8.927
 1683POPC   C1A23319   3.758  24.924   8.801
 1683POPC   D2A23320   3.570  25.123   8.457
 1683POPC   C3A23321   3.667  25.026   8.047
 1683POPC   C4A23322   3.381  25.150   7.751
 1683POPC   C1B23323   3.773  25.547   8.707
 1683POPC   C2B23324   3.959  25.398   8.328
 1683POPC   C3B23325   3.874  25.480   7.918
 1683POPC   C4B23326   3.957  25.849   7.692
 1684POPC   NC323327  35.616   5.563   9.273
 1684POPC   PO423328  35.619   4.913   9.395
 1684POPC   GL123329  35.355   5.049   9.043
 1684POPC   GL223330  35.100   4.799   8.995
 1684POPC   C1A23331  35.438   5.260   8.656
 1684POPC   D2A23332  35.550   5.488   8.292
 1684POPC   C3A23333  35.493   5.308   7.868
 1684POPC   C4A23334  35.672   5.328   7.434
 1684POPC   C1B23335  34.986   4.977   8.640
 1684POPC   C2B23336  35.188   5.036   8.264
 1684POPC   C3B23337  35.176   4.900   7.850
 1684POPC   C4B23338  35.422   4.836   7.505
 1685POPC   NC323339  43.412  36.401   9.474
 1685POPC   PO423340  43.115  37.053   9.420
 1685POPC   GL123341  43.012  36.880   9.081
 1685POPC   GL223342  43.044  36.551   9.176
 1685POPC   C1A23343  43.106  36.984   8.676
 1685POPC   D2A23344  43.295  37.210   8.383
 1685POPC   C3A23345  43.124  37.021   8.055
 1685POPC   C4A23346  43.320  37.015   7.690
 1685POPC   C1B23347  43.350  36.573   8.834
 1685POPC   C2B23348  43.410  36.687   8.381
 1685POPC   C3B23349  43.245  36.535   7.965
 1685POPC   C4B23350  43.398  36.522   7.551
 1686POPC   NC323351  40.572   0.736   9.527
 1686POPC   PO423352  40.964   0.224   9.527
 1686POPC   GL123353  40.857   0.456   9.173
 1686POPC   GL223354  40.562   0.254   9.110
 1686POPC   C1A23355  40.919   0.429   8.721
 1686POPC   D2A23356  40.685   0.303   8.333
 1686POPC   C3A23357  40.897   0.450   7.977
 1686POPC   C4A23358  41.103   0.372   7.593
 1686POPC   C1B23359  40.371   0.396   8.726
 1686POPC   C2B23360  40.190   0.205   8.335
 1686POPC   C3B23361  40.355   0.159   7.935
 1686POPC   C4B23362  40.480   0.517   7.689
 1687POPC   NC323363  15.800  43.492   9.444
 1687POPC   PO423364  15.976  42.837   9.636
 1687POPC   GL123365  16.025  43.058   9.230
 1687POPC   GL223366  15.759  42.968   8.995
 1687POPC   C1A23367  16.104  43.315   8.829
 1687POPC   D2A23368  15.896  43.307   8.420
 1687POPC   C3A23369  16.080  43.326   8.003
 1687POPC   C4A23370  15.775  43.073   7.794
 1687POPC   C1B23371  16.153  42.789   8.801
 1687POPC   C2B23372  16.244  42.643   8.410
 1687POPC   C3B23373  16.112  42.808   8.087
 1687POPC   C4B23374  16.120  42.709   7.705
 1688POPC   NC323375  22.970  17.875   9.817
 1688POPC   PO423376  23.140  18.361   9.392
 1688POPC   GL123377  23.040  18.239   9.024
 1688POPC   GL223378  22.785  18.070   9.056
 1688POPC   C1A23379  23.055  18.046   8.608
 1688POPC   D2A23380  23.223  17.852   8.232
 1688POPC   C3A23381  23.069  18.068   7.872
 1688POPC   C4A23382  23.057  18.293   7.476
 1688POPC   C1B23383  22.663  18.395   8.708
 1688POPC   C2B23384  22.538  18.551   8.293
 1688POPC   C3B23385  22.698  18.459   7.871
 1688POPC   C4B23386  22.619  18.556   7.435
 1689POPC   NC323387  15.427   9.633   9.401
 1689POPC   PO423388  15.149  10.238   9.231
 1689POPC   GL123389  15.299   9.944   9.021
 1689POPC   GL223390  15.646  10.052   9.123
 1689POPC   C1A23391  15.201   9.738   8.638
 1689POPC   D2A23392  15.264   9.562   8.240
 1689POPC   C3A23393  15.128   9.754   7.895
 1689POPC   C4A23394  15.344   9.620   7.561
 1689POPC   C1B23395  15.666   9.963   8.678
 1689POPC   C2B23396  15.558  10.016   8.249
 1689POPC   C3B23397  15.610   9.974   7.816
 1689POPC   C4B23398  15.399  10.107   7.443
 1690POPC   NC323399  14.664   6.686   9.443
 1690POPC   PO423400  14.103   6.415   9.540
 1690POPC   GL123401  14.231   6.524   9.139
 1690POPC   GL223402  14.498   6.293   9.108
 1690POPC   C1A23403  14.407   6.778   8.758
 1690POPC   D2A23404  14.230   6.979   8.360
 1690POPC   C3A23405  14.180   6.826   7.955
 1690POPC   C4A23406  13.863   6.608   7.793
 1690POPC   C1B23407  14.285   6.270   8.704
 1690POPC   C2B23408  14.366   6.489   8.326
 1690POPC   C3B23409  14.652   6.665   8.058
 1690POPC   C4B23410  14.760   6.289   7.859
 1691POPC   NC323411   7.992   8.918   9.395
 1691POPC   PO423412   8.632   9.226   9.513
 1691POPC   GL123413   8.431   9.133   9.073
 1691POPC   GL223414   8.316   8.782   9.017
 1691POPC   C1A23415   8.228   9.139   8.611
 1691POPC   D2A23416   8.055   8.887   8.247
 1691POPC   C3A23417   8.012   9.065   7.869
 1691POPC   C4A23418   8.444   9.051   7.752
 1691POPC   C1B23419   7.973   8.676   8.700
 1691POPC   C2B23420   7.912   8.391   8.314
 1691POPC   C3B23421   7.757   8.564   7.914
 1691POPC   C4B23422   7.914   8.691   7.488
 1692POPC   NC323423   7.752  10.393   9.655
 1692POPC   PO423424   7.213  10.052   9.669
 1692POPC   GL123425   7.303  10.327   9.261
 1692POPC   GL223426   7.615  10.529   9.184
 1692POPC   C1A23427   7.254  10.510   8.822
 1692POPC   D2A23428   7.252  10.755   8.456
 1692POPC   C3A23429   7.212  10.498   8.087
 1692POPC   C4A23430   7.290  10.393   7.652
 1692POPC   C1B23431   7.744  10.439   8.768
 1692POPC   C2B23432   7.675  10.487   8.333
 1692POPC   C3B23433   7.784  10.347   7.916
 1692POPC   C4B23434   7.784  10.365   7.466
 1693POPC   NC323435  27.858  18.611   9.197
 1693POPC   PO423436  27.509  18.995   9.607
 1693POPC   GL123437  27.512  19.143   9.194
 1693POPC   GL223438  27.833  19.135   9.050
 1693POPC   C1A23439  27.429  19.187   8.753
 1693POPC   D2A23440  27.317  19.085   8.348
 1693POPC   C3A23441  27.319  19.408   8.044
 1693POPC   C4A23442  27.328  19.255   7.630
 1693POPC   C1B23443  27.913  19.366   8.687
 1693POPC   C2B23444  27.799  19.392   8.270
 1693POPC   C3B23445  27.790  19.271   7.840
 1693POPC   C4B23446  27.778  19.033   7.456
 1694POPC   NC323447  27.735  34.342   9.400
 1694POPC   PO423448  27.146  34.753   9.400
 1694POPC   GL123449  27.519  34.836   9.179
 1694POPC   GL223450  27.854  34.982   9.253
 1694POPC   C1A23451  27.454  34.667   8.811
 1694POPC   D2A23452  27.368  34.339   8.566
 1694POPC   C3A23453  27.316  34.503   8.171
 1694POPC   C4A23454  27.237  34.277   7.838
 1694POPC   C1B23455  27.962  34.766   8.844
 1694POPC   C2B23456  27.789  34.660   8.443
 1694POPC   C3B23457  27.786  34.587   8.034
 1694POPC   C4B23458  27.567  34.798   7.768
 1695POPC   NC323459  29.025   3.574   9.452
 1695POPC   PO423460  29.451   4.170   9.530
 1695POPC   GL123461  29.430   3.821   9.172
 1695POPC   GL223462  29.390   3.426   9.138
 1695POPC   C1A23463  29.280   3.757   8.735
 1695POPC   D2A23464  29.120   3.527   8.419
 1695POPC   C3A23465  29.317   3.682   8.095
 1695POPC   C4A23466  29.383   3.735   7.652
 1695POPC   C1B23467  29.458   3.109   8.805
 1695POPC   C2B23468  29.542   3.237   8.388
 1695POPC   C3B23469  29.342   3.180   8.017
 1695POPC   C4B23470  29.005   3.407   7.790
 1696POPC   NC323471  15.737  31.948   9.555
 1696POPC   PO423472  15.881  31.302   9.453
 1696POPC   GL123473  15.888  31.631   9.166
 1696POPC   GL223474  15.653  31.427   9.015
 1696POPC   C1A23475  16.134  31.590   8.781
 1696POPC   D2A23476  16.136  31.384   8.376
 1696POPC   C3A23477  16.131  31.687   8.039
 1696POPC   C4A23478  16.213  31.843   7.634
 1696POPC   C1B23479  15.654  31.706   8.696
 1696POPC   C2B23480  15.663  31.574   8.294
 1696POPC   C3B23481  15.712  31.453   7.888
 1696POPC   C4B23482  15.762  31.684   7.532
 1697POPC   NC323483   8.206  14.668   9.558
 1697POPC   PO423484   8.485  14.012   9.527
 1697POPC   GL123485   8.534  14.224   9.134
 1697POPC   GL223486   8.326  14.501   9.081
 1697POPC   C1A23487   8.343  14.110   8.735
 1697POPC   D2A23488   7.981  14.214   8.485
 1697POPC   C3A23489   8.019  14.209   8.026
 1697POPC   C4A23490   8.198  14.448   7.711
 1697POPC   C1B23491   8.411  14.834   8.796
 1697POPC   C2B23492   8.369  14.977   8.347
 1697POPC   C3B23493   8.463  14.865   7.934
 1697POPC   C4B23494   8.548  14.761   7.500
 1698POPC   NC323495   2.686  11.736   9.548
 1698POPC   PO423496   2.527  12.344   9.630
 1698POPC   GL123497   2.711  12.147   9.241
 1698POPC   GL223498   2.963  11.851   9.142
 1698POPC   C1A23499   2.765  12.242   8.831
 1698POPC   D2A23500   2.800  12.137   8.421
 1698POPC   C3A23501   2.516  12.049   8.077
 1698POPC   C4A23502   2.690  12.162   7.696
 1698POPC   C1B23503   3.137  11.844   8.709
 1698POPC   C2B23504   3.033  11.731   8.289
 1698POPC   C3B23505   3.032  11.811   7.853
 1698POPC   C4B23506   3.118  11.848   7.413
 1699POPC   NC323507  31.355   2.376   9.527
 1699POPC   PO423508  31.364   1.784   9.796
 1699POPC   GL123509  31.335   1.888   9.261
 1699POPC   GL223510  31.460   1.603   9.126
 1699POPC   C1A23511  31.504   1.981   8.796
 1699POPC   D2A23512  31.778   2.036   8.395
 1699POPC   C3A23513  31.622   1.990   7.944
 1699POPC   C4A23514  31.193   2.083   7.838
 1699POPC   C1B23515  31.323   1.512   8.693
 1699POPC   C2B23516  31.311   1.748   8.302
 1699POPC   C3B23517  31.318   1.560   7.896
 1699POPC   C4B23518  31.323   1.734   7.484
 1700POPC   NC323519  35.279  39.406   9.495
 1700POPC   PO423520  35.456  38.694   9.530
 1700POPC   GL123521  35.441  39.045   9.199
 1700POPC   GL223522  35.714  39.109   9.014
 1700POPC   C1A23523  35.263  39.294   8.830
 1700POPC   D2A23524  35.204  39.148   8.392
 1700POPC   C3A23525  35.254  39.346   7.992
 1700POPC   C4A23526  35.168  39.205   7.578
 1700POPC   C1B23527  35.732  39.436   8.699
 1700POPC   C2B23528  35.680  39.420   8.254
 1700POPC   C3B23529  35.720  39.306   7.792
 1700POPC   C4B23530  35.639  39.302   7.305
 1701POPC   NC323531  10.011  15.910   9.498
 1701POPC   PO423532   9.436  16.245   9.446
 1701POPC   GL123533   9.745  16.201   9.151
 1701POPC   GL223534   9.487  16.157   8.906
 1701POPC   C1A23535   9.941  16.003   8.786
 1701POPC   D2A23536   9.728  15.917   8.420
 1701POPC   C3A23537   9.909  16.021   8.052
 1701POPC   C4A23538   9.878  16.250   7.685
 1701POPC   C1B23539   9.350  15.756   8.722
 1701POPC   C2B23540   9.362  15.558   8.341
 1701POPC   C3B23541   9.423  15.816   7.982
 1701POPC   C4B23542   9.351  15.731   7.553
 1702POPC   NC323543  11.837  30.586   9.306
 1702POPC   PO423544  11.182  30.618   9.543
 1702POPC   GL123545  11.266  30.550   9.153
 1702POPC   GL223546  11.307  30.877   9.084
 1702POPC   C1A23547  11.126  30.514   8.747
 1702POPC   D2A23548  11.265  30.597   8.322
 1702POPC   C3A23549  10.988  30.392   8.029
 1702POPC   C4A23550  10.986  30.442   7.619
 1702POPC   C1B23551  11.436  30.989   8.678
 1702POPC   C2B23552  11.604  31.022   8.269
 1702POPC   C3B23553  11.432  31.131   7.884
 1702POPC   C4B23554  11.187  31.180   7.512
 1703POPC   NC323555  14.606  21.974   9.608
 1703POPC   PO423556  14.222  22.524   9.346
 1703POPC   GL123557  14.386  22.174   9.176
 1703POPC   GL223558  14.460  21.818   9.162
 1703POPC   C1A23559  14.532  22.167   8.779
 1703POPC   D2A23560  14.553  22.541   8.546
 1703POPC   C3A23561  14.365  22.547   8.127
 1703POPC   C4A23562  14.516  22.400   7.735
 1703POPC   C1B23563  14.561  21.621   8.787
 1703POPC   C2B23564  14.396  21.774   8.422
 1703POPC   C3B23565  14.403  22.020   8.084
 1703POPC   C4B23566  14.590  21.894   7.718
 1704POPC   NC323567  32.441  17.000   9.557
 1704POPC   PO423568  31.943  17.459   9.472
 1704POPC   GL123569  32.086  17.516   9.069
 1704POPC   GL223570  32.410  17.332   9.161
 1704POPC   C1A23571  32.007  17.548   8.621
 1704POPC   D2A23572  32.288  17.694   8.302
 1704POPC   C3A23573  32.238  17.618   7.845
 1704POPC   C4A23574  32.007  17.368   7.547
 1704POPC   C1B23575  32.513  17.464   8.755
 1704POPC   C2B23576  32.491  17.223   8.378
 1704POPC   C3B23577  32.675  17.100   7.994
 1704POPC   C4B23578  32.667  17.389   7.691
 1705POPC   NC323579  13.307  37.267   9.479
 1705POPC   PO423580  13.028  37.868   9.400
 1705POPC   GL123581  13.387  37.647   9.136
 1705POPC   GL223582  13.696  37.426   9.142
 1705POPC   C1A23583  13.440  37.458   8.723
 1705POPC   D2A23584  13.516  37.731   8.404
 1705POPC   C3A23585  13.530  37.576   7.999
 1705POPC   C4A23586  13.369  37.868   7.693
 1705POPC   C1B23587  13.982  37.492   8.795
 1705POPC   C2B23588  14.000  37.587   8.362
 1705POPC   C3B23589  14.038  37.766   7.954
 1705POPC   C4B23590  13.838  37.618   7.582
 1706POPC   NC323591  31.691  12.489   9.918
 1706POPC   PO423592  31.671  13.072   9.554
 1706POPC   GL123593  31.576  12.930   9.158
 1706POPC   GL223594  31.278  13.114   9.075
 1706POPC   C1A23595  31.664  13.047   8.732
 1706POPC   D2A23596  31.352  13.120   8.409
 1706POPC   C3A23597  31.547  13.003   8.032
 1706POPC   C4A23598  31.574  13.165   7.629
 1706POPC   C1B23599  31.246  12.777   8.785
 1706POPC   C2B23600  31.499  12.638   8.429
 1706POPC   C3B23601  31.524  12.483   8.015
 1706POPC   C4B23602  31.775  12.445   7.667
 1707POPC   NC323603  11.004  38.289   9.529
 1707POPC   PO423604  11.639  38.498   9.544
 1707POPC   GL123605  11.351  38.474   9.196
 1707POPC   GL223606  11.156  38.743   9.160
 1707POPC   C1A23607  11.246  38.403   8.753
 1707POPC   D2A23608  11.487  38.557   8.377
 1707POPC   C3A23609  11.523  38.450   7.938
 1707POPC   C4A23610  11.705  38.426   7.503
 1707POPC   C1B23611  11.265  38.923   8.779
 1707POPC   C2B23612  11.095  38.908   8.370
 1707POPC   C3B23613  11.033  38.626   8.014
 1707POPC   C4B23614  11.192  38.565   7.573
 1708POPC   NC323615   6.318  39.031   9.531
 1708POPC   PO423616   5.832  39.322   9.944
 1708POPC   GL123617   5.975  39.405   9.422
 1708POPC   GL223618   5.743  39.352   9.117
 1708POPC   C1A23619   6.203  39.388   8.943
 1708POPC   D2A23620   5.959  39.535   8.545
 1708POPC   C3A23621   5.963  39.446   8.095
 1708POPC   C4A23622   5.690  39.512   7.739
 1708POPC   C1B23623   5.865  39.031   8.784
 1708POPC   C2B23624   5.654  38.987   8.393
 1708POPC   C3B23625   5.721  39.016   7.954
 1708POPC   C4B23626   5.941  38.990   7.530
 1709POPC   NC323627  27.119  16.227   9.379
 1709POPC   PO423628  27.733  16.523   9.456
 1709POPC   GL123629  27.753  16.633   9.066
 1709POPC   GL223630  27.497  16.393   9.027
 1709POPC   C1A23631  27.836  16.637   8.634
 1709POPC   D2A23632  27.699  16.921   8.362
 1709POPC   C3A23633  27.808  16.821   7.969
 1709POPC   C4A23634  27.809  16.811   7.515
 1709POPC   C1B23635  27.898  16.195   8.884
 1709POPC   C2B23636  27.873  16.124   8.489
 1709POPC   C3B23637  27.865  16.281   8.100
 1709POPC   C4B23638  27.699  16.345   7.708
 1710POPC   NC323639  22.236   8.364   9.739
 1710POPC   PO423640  22.105   8.023   9.221
 1710POPC   GL123641  22.011   8.255   8.917
 1710POPC   GL223642  21.820   8.519   8.954
 1710POPC   C1A23643  21.997   8.278   8.501
 1710POPC   D2A23644  21.821   7.965   8.329
 1710POPC   C3A23645  22.030   7.885   8.022
 1710POPC   C4A23646  22.126   8.031   7.665
 1710POPC   C1B23647  22.248   8.647   8.721
 1710POPC   C2B23648  22.325   8.648   8.290
 1710POPC   C3B23649  22.056   8.434   8.001
 1710POPC   C4B23650  22.027   8.526   7.577
 1711POPC   NC323651  33.677  37.447   9.474
 1711POPC   PO423652  33.939  36.849   9.707
 1711POPC   GL123653  33.832  36.911   9.201
 1711POPC   GL223654  34.173  36.929   8.961
 1711POPC   C1A23655  33.777  37.127   8.758
 1711POPC   D2A23656  34.090  37.030   8.396
 1711POPC   C3A23657  33.918  36.905   7.984
 1711POPC   C4A23658  33.590  37.035   7.654
 1711POPC   C1B23659  34.123  36.581   8.653
 1711POPC   C2B23660  34.145  36.355   8.264
 1711POPC   C3B23661  33.851  36.398   7.941
 1711POPC   C4B23662  33.691  36.552   7.535
 1712POPC   NC323663   2.815  20.768   9.606
 1712POPC   PO423664   2.710  20.165   9.315
 1712POPC   GL123665   2.654  20.589   9.134
 1712POPC   GL223666   2.946  20.795   9.117
 1712POPC   C1A23667   2.477  20.574   8.754
 1712POPC   D2A23668   2.705  20.353   8.462
 1712POPC   C3A23669   2.585  20.441   8.068
 1712POPC   C4A23670   2.900  20.489   7.766
 1712POPC   C1B23671   2.879  20.874   8.661
 1712POPC   C2B23672   2.924  20.784   8.211
 1712POPC   C3B23673   2.855  20.975   7.787
 1712POPC   C4B23674   2.944  20.775   7.378
 1713POPC   NC323675  20.293   2.960   9.670
 1713POPC   PO423676  20.716   2.482   9.697
 1713POPC   GL123677  20.663   2.651   9.243
 1713POPC   GL223678  20.984   2.647   9.094
 1713POPC   C1A23679  20.656   2.830   8.762
 1713POPC   D2A23680  20.798   3.129   8.397
 1713POPC   C3A23681  20.838   2.993   7.959
 1713POPC   C4A23682  20.560   2.925   7.626
 1713POPC   C1B23683  20.971   2.425   8.684
 1713POPC   C2B23684  20.904   2.625   8.326
 1713POPC   C3B23685  20.789   2.489   7.935
 1713POPC   C4B23686  20.662   2.438   7.523
 1714POPC   NC323687   6.581  44.756  10.221
 1714POPC   PO423688   6.896  44.793   9.594
 1714POPC   GL123689   6.713  44.700   9.179
 1714POPC   GL223690   6.879  44.973   9.068
 1714POPC   C1A23691   6.478  44.818   8.773
 1714POPC   D2A23692   6.258  44.719   8.380
 1714POPC   C3A23693   6.404  44.771   7.951
 1714POPC   C4A23694   6.348  44.395   7.679
 1714POPC   C1B23695   6.973  44.693   8.711
 1714POPC   C2B23696   6.767  44.524   8.349
 1714POPC   C3B23697   6.799  44.430   7.929
 1714POPC   C4B23698   6.765  44.711   7.564
 1715POPC   NC323699  24.091   6.866   9.382
 1715POPC   PO423700  23.426   6.846   9.248
 1715POPC   GL123701  23.736   6.798   8.977
 1715POPC   GL223702  23.898   6.520   9.001
 1715POPC   C1A23703  23.662   6.848   8.570
 1715POPC   D2A23704  23.676   7.025   8.226
 1715POPC   C3A23705  23.439   6.882   7.910
 1715POPC   C4A23706  23.648   6.939   7.556
 1715POPC   C1B23707  23.758   6.363   8.614
 1715POPC   C2B23708  23.602   6.466   8.202
 1715POPC   C3B23709  23.793   6.508   7.785
 1715POPC   C4B23710  23.755   6.482   7.317
 1716POPC   NC323711  44.347  16.018   9.521
 1716POPC   PO423712  44.898  16.500   9.526
 1716POPC   GL123713  44.861  16.197   9.184
 1716POPC   GL223714  44.726  15.844   9.168
 1716POPC   C1A23715  44.652  16.210   8.774
 1716POPC   D2A23716  44.735  15.997   8.378
 1716POPC   C3A23717  44.709  16.250   8.012
 1716POPC   C4A23718  44.585  16.151   7.616
 1716POPC   C1B23719  44.503  15.703   8.776
 1716POPC   C2B23720  44.521  15.527   8.344
 1716POPC   C3B23721  44.573  15.746   7.941
 1716POPC   C4B23722  44.482  15.683   7.482
 1717POPC   NC323723  10.548   4.844   9.514
 1717POPC   PO423724  10.569   4.143   9.472
 1717POPC   GL123725  10.531   4.288   9.105
 1717POPC   GL223726  10.815   4.514   9.139
 1717POPC   C1A23727  10.340   4.187   8.704
 1717POPC   D2A23728  10.522   4.326   8.325
 1717POPC   C3A23729  10.435   4.140   7.975
 1717POPC   C4A23730  10.618   4.121   7.594
 1717POPC   C1B23731  10.753   4.544   8.717
 1717POPC   C2B23732  10.729   4.819   8.391
 1717POPC   C3B23733  10.484   4.764   8.017
 1717POPC   C4B23734  10.598   4.631   7.593
 1718POPC   NC323735  38.543   7.682   9.486
 1718POPC   PO423736  38.287   7.046   9.442
 1718POPC   GL123737  38.301   7.384   9.078
 1718POPC   GL223738  38.617   7.582   9.000
 1718POPC   C1A23739  38.311   7.523   8.604
 1718POPC   D2A23740  38.583   7.461   8.233
 1718POPC   C3A23741  38.350   7.455   7.836
 1718POPC   C4A23742  38.248   7.326   7.388
 1718POPC   C1B23743  38.722   7.239   8.711
 1718POPC   C2B23744  38.846   6.998   8.334
 1718POPC   C3B23745  38.971   7.251   7.974
 1718POPC   C4B23746  38.740   7.261   7.599
 1719POPC   NC323747  17.183  10.456   9.377
 1719POPC   PO423748  17.807  10.730   9.479
 1719POPC   GL123749  17.685  10.410   9.174
 1719POPC   GL223750  17.922  10.154   9.137
 1719POPC   C1A23751  17.617  10.368   8.716
 1719POPC   D2A23752  17.526  10.639   8.365
 1719POPC   C3A23753  17.380  10.543   7.970
 1719POPC   C4A23754  17.040  10.491   7.712
 1719POPC   C1B23755  18.089  10.114   8.716
 1719POPC   C2B23756  17.900  10.146   8.304
 1719POPC   C3B23757  17.788  10.264   7.872
 1719POPC   C4B23758  17.472  10.220   7.564
 1720POPC   NC323759  25.056  29.081   9.375
 1720POPC   PO423760  25.454  28.708   9.583
 1720POPC   GL123761  25.493  28.970   9.156
 1720POPC   GL223762  25.413  29.353   9.112
 1720POPC   C1A23763  25.572  29.026   8.724
 1720POPC   D2A23764  25.317  28.873   8.378
 1720POPC   C3A23765  25.448  29.010   7.986
 1720POPC   C4A23766  25.629  28.768   7.641
 1720POPC   C1B23767  25.257  29.444   8.697
 1720POPC   C2B23768  25.140  29.346   8.272
 1720POPC   C3B23769  24.946  29.013   7.979
 1720POPC   C4B23770  25.145  28.874   7.559
 1721POPC   NC323771   8.835  38.826   9.455
 1721POPC   PO423772   9.194  38.302   9.404
 1721POPC   GL123773   9.006  38.530   9.080
 1721POPC   GL223774   9.211  38.828   9.087
 1721POPC   C1A23775   8.814  38.444   8.686
 1721POPC   D2A23776   9.155  38.305   8.403
 1721POPC   C3A23777   9.006  38.328   7.976
 1721POPC   C4A23778   9.151  38.364   7.555
 1721POPC   C1B23779   9.202  38.770   8.635
 1721POPC   C2B23780   8.974  38.784   8.250
 1721POPC   C3B23781   9.099  38.815   7.822
 1721POPC   C4B23782   9.082  38.831   7.371
 1722POPC   NC323783  31.181  33.622   9.474
 1722POPC   PO423784  31.556  34.135   9.665
 1722POPC   GL123785  31.426  34.005   9.244
 1722POPC   GL223786  31.686  34.104   9.030
 1722POPC   C1A23787  31.292  33.848   8.821
 1722POPC   D2A23788  31.354  33.877   8.362
 1722POPC   C3A23789  31.232  33.494   8.120
 1722POPC   C4A23790  31.082  33.586   7.729
 1722POPC   C1B23791  31.772  33.730   8.715
 1722POPC   C2B23792  31.732  33.552   8.270
 1722POPC   C3B23793  31.608  33.684   7.809
 1722POPC   C4B23794  31.817  33.664   7.380
 1723POPC   NC323795  31.606   3.311   9.581
 1723POPC   PO423796  31.123   3.674   9.620
 1723POPC   GL123797  31.509   3.580   9.164
 1723POPC   GL223798  31.847   3.598   8.988
 1723POPC   C1A23799  31.466   3.522   8.672
 1723POPC   D2A23800  31.461   3.347   8.267
 1723POPC   C3A23801  31.532   3.696   8.009
 1723POPC   C4A23802  31.300   4.038   7.883
 1723POPC   C1B23803  31.873   3.213   8.674
 1723POPC   C2B23804  31.719   2.900   8.324
 1723POPC   C3B23805  31.741   2.962   7.876
 1723POPC   C4B23806  31.588   3.358   7.645
 1724POPC   NC323807  26.651  29.410   9.490
 1724POPC   PO423808  27.167  28.884   9.629
 1724POPC   GL123809  27.127  28.980   9.183
 1724POPC   GL223810  26.924  29.247   9.120
 1724POPC   C1A23811  27.103  29.060   8.694
 1724POPC   D2A23812  27.363  29.306   8.416
 1724POPC   C3A23813  27.185  29.321   7.973
 1724POPC   C4A23814  26.855  29.065   7.801
 1724POPC   C1B23815  26.611  29.182   8.794
 1724POPC   C2B23816  26.576  29.101   8.364
 1724POPC   C3B23817  26.444  28.809   8.029
 1724POPC   C4B23818  26.537  28.749   7.552
 1725POPC   NC323819  16.814  35.510   9.568
 1725POPC   PO423820  16.306  35.216   9.556
 1725POPC   GL123821  16.357  35.440   9.170
 1725POPC   GL223822  16.661  35.699   9.126
 1725POPC   C1A23823  16.502  35.290   8.779
 1725POPC   D2A23824  16.795  35.056   8.516
 1725POPC   C3A23825  16.739  35.181   8.102
 1725POPC   C4A23826  16.707  35.032   7.714
 1725POPC   C1B23827  16.516  35.839   8.783
 1725POPC   C2B23828  16.612  35.650   8.410
 1725POPC   C3B23829  16.460  35.711   8.001
 1725POPC   C4B23830  16.730  35.563   7.706
 1726POPC   NC323831  27.579   2.481   9.657
 1726POPC   PO423832  27.574   3.136   9.506
 1726POPC   GL123833  27.535   2.789   9.216
 1726POPC   GL223834  27.845   2.631   9.207
 1726POPC   C1A23835  27.517   2.683   8.776
 1726POPC   D2A23836  27.396   2.807   8.360
 1726POPC   C3A23837  27.641   2.736   8.027
 1726POPC   C4A23838  27.476   2.687   7.637
 1726POPC   C1B23839  27.887   2.999   8.894
 1726POPC   C2B23840  27.867   2.998   8.441
 1726POPC   C3B23841  27.954   3.149   8.036
 1726POPC   C4B23842  27.821   3.072   7.609
 1727POPC   NC323843  13.882   4.465   9.597
 1727POPC   PO423844  13.268   4.329   9.452
 1727POPC   GL123845  13.518   4.345   9.107
 1727POPC   GL223846  13.868   4.268   9.121
 1727POPC   C1A23847  13.535   4.245   8.709
 1727POPC   D2A23848  13.463   4.470   8.361
 1727POPC   C3A23849  13.553   4.204   8.031
 1727POPC   C4A23850  13.358   4.091   7.625
 1727POPC   C1B23851  14.031   4.365   8.754
 1727POPC   C2B23852  13.965   4.448   8.372
 1727POPC   C3B23853  14.077   4.349   7.994
 1727POPC   C4B23854  13.814   4.341   7.633
 1728POPC   NC323855  19.976  32.932   9.604
 1728POPC   PO423856  19.581  33.366   9.299
 1728POPC   GL123857  19.818  33.065   9.065
 1728POPC   GL223858  19.756  32.757   9.155
 1728POPC   C1A23859  20.095  33.105   8.710
 1728POPC   D2A23860  20.076  33.411   8.403
 1728POPC   C3A23861  19.904  33.195   8.088
 1728POPC   C4A23862  19.752  33.115   7.697
 1728POPC   C1B23863  19.955  32.607   8.771
 1728POPC   C2B23864  20.072  32.734   8.337
 1728POPC   C3B23865  20.085  32.726   7.884
 1728POPC   C4B23866  19.986  32.746   7.438
 1729POPC   NC323867  41.719  24.216   9.630
 1729POPC   PO423868  41.560  24.868   9.519
 1729POPC   GL123869  41.583  24.688   9.141
 1729POPC   GL223870  41.485  24.335   9.209
 1729POPC   C1A23871  41.553  24.840   8.726
 1729POPC   D2A23872  41.446  24.684   8.355
 1729POPC   C3A23873  41.678  24.656   8.009
 1729POPC   C4A23874  41.364  24.485   7.734
 1729POPC   C1B23875  41.536  24.313   8.800
 1729POPC   C2B23876  41.753  24.293   8.461
 1729POPC   C3B23877  41.564  24.161   8.110
 1729POPC   C4B23878  41.758  24.175   7.746
 1730POPC   NC323879  15.455   3.685   9.469
 1730POPC   PO423880  14.791   3.673   9.429
 1730POPC   GL123881  14.936   3.581   9.030
 1730POPC   GL223882  14.832   3.255   8.883
 1730POPC   C1A23883  15.348   3.506   8.845
 1730POPC   D2A23884  15.481   3.404   8.457
 1730POPC   C3A23885  15.357   3.653   8.125
 1730POPC   C4A23886  15.292   3.587   7.720
 1730POPC   C1B23887  14.962   3.484   8.507
 1730POPC   C2B23888  14.976   3.916   8.392
 1730POPC   C3B23889  14.971   3.967   7.966
 1730POPC   C4B23890  14.828   3.515   7.914
 1731POPC   NC323891  42.868  20.714   9.649
 1731POPC   PO423892  43.201  20.128   9.518
 1731POPC   GL123893  43.006  20.454   9.240
 1731POPC   GL223894  43.234  20.754   9.199
 1731POPC   C1A23895  42.892  20.618   8.836
 1731POPC   D2A23896  43.160  20.653   8.457
 1731POPC   C3A23897  42.977  20.710   8.045
 1731POPC   C4A23898  42.992  20.515   7.626
 1731POPC   C1B23899  43.185  21.046   8.813
 1731POPC   C2B23900  43.063  21.161   8.419
 1731POPC   C3B23901  43.267  21.162   8.065
 1731POPC   C4B23902  43.197  21.000   7.671
 1732POPC   NC323903  27.193  18.632   9.543
 1732POPC   PO423904  26.685  18.238   9.558
 1732POPC   GL123905  26.735  18.213   9.144
 1732POPC   GL223906  26.719  18.563   9.152
 1732POPC   C1A23907  26.782  18.007   8.744
 1732POPC   D2A23908  26.712  18.114   8.304
 1732POPC   C3A23909  27.027  18.097   7.937
 1732POPC   C4A23910  26.954  17.930   7.502
 1732POPC   C1B23911  26.848  18.516   8.745
 1732POPC   C2B23912  27.054  18.611   8.409
 1732POPC   C3B23913  26.835  18.554   8.099
 1732POPC   C4B23914  26.753  18.543   7.721
 1733POPC   NC323915  14.797  31.607   9.571
 1733POPC   PO423916  14.135  31.359   9.503
 1733POPC   GL123917  14.383  31.347   9.157
 1733POPC   GL223918  14.139  31.074   9.051
 1733POPC   C1A23919  14.512  31.593   8.799
 1733POPC   D2A23920  14.302  31.848   8.483
 1733POPC   C3A23921  14.350  31.737   8.053
 1733POPC   C4A23922  14.622  31.555   7.785
 1733POPC   C1B23923  14.461  31.061   8.739
 1733POPC   C2B23924  14.442  31.315   8.356
 1733POPC   C3B23925  14.275  31.221   7.950
 1733POPC   C4B23926  14.254  30.961   7.585
 1734POPC   NC323927  22.565   6.585   9.379
 1734POPC   PO423928  23.195   6.481   9.554
 1734POPC   GL123929  23.047   6.526   9.116
 1734POPC   GL223930  23.381   6.394   9.007
 1734POPC   C1A23931  22.897   6.836   8.749
 1734POPC   D2A23932  23.151   6.953   8.341
 1734POPC   C3A23933  22.922   6.820   7.959
 1734POPC   C4A23934  22.522   6.691   7.891
 1734POPC   C1B23935  23.263   6.518   8.628
 1734POPC   C2B23936  22.930   6.494   8.350
 1734POPC   C3B23937  23.134   6.371   8.008
 1734POPC   C4B23938  23.320   6.447   7.630
 1735POPC   NC323939   9.117  40.249   9.490
 1735POPC   PO423940   8.452  40.089   9.677
 1735POPC   GL123941   8.678  40.141   9.232
 1735POPC   GL223942   8.892  39.839   9.142
 1735POPC   C1A23943   8.903  40.258   8.830
 1735POPC   D2A23944   9.062  40.325   8.411
 1735POPC   C3A23945   9.155  39.967   8.153
 1735POPC   C4A23946   9.059  39.938   7.734
 1735POPC   C1B23947   8.932  39.616   8.726
 1735POPC   C2B23948   8.740  39.727   8.313
 1735POPC   C3B23949   8.631  39.613   7.877
 1735POPC   C4B23950   8.695  39.619   7.417
 1736POPC   NC323951  39.597  24.996   9.825
 1736POPC   PO423952  39.205  25.490   9.519
 1736POPC   GL123953  39.246  25.152   9.267
 1736POPC   GL223954  39.534  25.203   9.093
 1736POPC   C1A23955  39.065  25.108   8.862
 1736POPC   D2A23956  39.231  25.302   8.478
 1736POPC   C3A23957  39.026  25.270   8.082
 1736POPC   C4A23958  39.080  24.996   7.727
 1736POPC   C1B23959  39.576  25.544   8.793
 1736POPC   C2B23960  39.608  25.621   8.347
 1736POPC   C3B23961  39.536  25.384   7.964
 1736POPC   C4B23962  39.520  25.607   7.578
 1737POPC   NC323963  10.702  19.197   9.420
 1737POPC   PO423964  10.071  19.357   9.502
 1737POPC   GL123965  10.300  19.328   9.093
 1737POPC   GL223966  10.662  19.438   8.988
 1737POPC   C1A23967  10.377  19.029   8.754
 1737POPC   D2A23968  10.582  18.838   8.406
 1737POPC   C3A23969  10.412  19.004   8.071
 1737POPC   C4A23970  10.421  18.908   7.654
 1737POPC   C1B23971  10.875  19.542   8.600
 1737POPC   C2B23972  10.836  19.329   8.214
 1737POPC   C3B23973  10.691  19.321   7.790
 1737POPC   C4B23974  10.538  19.333   7.359
 1738POPC   NC323975  23.254  32.072   9.418
 1738POPC   PO423976  22.851  32.524   9.474
 1738POPC   GL123977  22.940  32.377   9.110
 1738POPC   GL223978  22.785  32.072   9.194
 1738POPC   C1A23979  22.791  32.572   8.743
 1738POPC   D2A23980  22.664  32.482   8.347
 1738POPC   C3A23981  23.035  32.436   8.092
 1738POPC   C4A23982  23.123  32.155   7.739
 1738POPC   C1B23983  22.629  32.074   8.785
 1738POPC   C2B23984  22.759  31.967   8.385
 1738POPC   C3B23985  22.639  32.125   7.982
 1738POPC   C4B23986  22.621  32.194   7.554
 1739POPC   NC323987   7.751  36.204   9.574
 1739POPC   PO423988   7.072  36.205   9.511
 1739POPC   GL123989   7.282  36.121   9.136
 1739POPC   GL223990   7.597  36.295   9.082
 1739POPC   C1A23991   7.129  36.106   8.697
 1739POPC   D2A23992   7.418  36.117   8.346
 1739POPC   C3A23993   7.368  35.787   8.021
 1739POPC   C4A23994   7.402  35.754   7.554
 1739POPC   C1B23995   7.275  36.556   8.872
 1739POPC   C2B23996   7.130  36.578   8.450
 1739POPC   C3B23997   7.091  36.349   8.042
 1739POPC   C4B23998   7.462  36.226   7.801
 1740POPC   NC323999  43.338  21.593   9.572
 1740POPC   PO424000  42.923  21.100   9.426
 1740POPC   GL124001  43.100  21.369   9.185
 1740POPC   GL224002  43.454  21.229   9.230
 1740POPC   C1A24003  42.938  21.525   8.783
 1740POPC   D2A24004  42.864  21.645   8.345
 1740POPC   C3A24005  42.840  21.388   7.943
 1740POPC   C4A24006  42.886  21.354   7.445
 1740POPC   C1B24007  43.477  21.511   8.881
 1740POPC   C2B24008  43.364  21.568   8.467
 1740POPC   C3B24009  43.289  21.686   8.052
 1740POPC   C4B24010  43.379  21.466   7.669
 1741POPC   NC324011  10.780  22.493   9.602
 1741POPC   PO424012  10.297  21.893   9.517
 1741POPC   GL124013  10.542  22.183   9.218
 1741POPC   GL224014  10.752  21.984   9.099
 1741POPC   C1A24015  10.643  22.299   8.727
 1741POPC   D2A24016  10.619  22.117   8.290
 1741POPC   C3A24017  10.572  22.319   7.868
 1741POPC   C4A24018  10.320  22.493   7.496
 1741POPC   C1B24019  10.670  21.756   8.731
 1741POPC   C2B24020  10.743  21.635   8.289
 1741POPC   C3B24021  10.582  21.778   7.863
 1741POPC   C4B24022  10.562  22.024   7.462
 1742POPC   NC324023  13.720  19.416   9.560
 1742POPC   PO424024  13.900  18.734   9.621
 1742POPC   GL124025  13.679  18.969   9.242
 1742POPC   GL224026  13.734  19.305   9.079
 1742POPC   C1A24027  13.593  18.930   8.788
 1742POPC   D2A24028  13.277  18.962   8.483
 1742POPC   C3A24029  13.457  19.171   8.146
 1742POPC   C4A24030  13.575  19.055   7.739
 1742POPC   C1B24031  13.999  19.265   8.716
 1742POPC   C2B24032  13.949  19.096   8.313
 1742POPC   C3B24033  13.979  19.307   7.911
 1742POPC   C4B24034  14.304  19.368   7.631
 1743POPC   NC324035  20.242  15.985   9.486
 1743POPC   PO424036  20.830  16.322   9.219
 1743POPC   GL124037  20.836  15.971   9.030
 1743POPC   GL224038  20.530  15.803   9.112
 1743POPC   C1A24039  20.788  15.861   8.615
 1743POPC   D2A24040  20.980  15.662   8.268
 1743POPC   C3A24041  20.792  15.880   7.921
 1743POPC   C4A24042  20.564  16.292   7.876
 1743POPC   C1B24043  20.369  16.121   8.812
 1743POPC   C2B24044  20.354  16.101   8.345
 1743POPC   C3B24045  20.218  15.940   7.938
 1743POPC   C4B24046  20.397  15.659   7.659
 1744POPC   NC324047   1.617  25.196   9.556
 1744POPC   PO424048   2.046  25.706   9.684
 1744POPC   GL124049   2.093  25.419   9.270
 1744POPC   GL224050   2.439  25.410   9.161
 1744POPC   C1A24051   1.862  25.137   8.909
 1744POPC   D2A24052   1.718  24.957   8.477
 1744POPC   C3A24053   1.745  25.202   8.037
 1744POPC   C4A24054   1.783  25.567   7.724
 1744POPC   C1B24055   2.340  25.245   8.764
 1744POPC   C2B24056   2.171  25.188   8.353
 1744POPC   C3B24057   2.223  25.376   7.947
 1744POPC   C4B24058   2.119  25.258   7.521
 1745POPC   NC324059  30.363  28.118   9.486
 1745POPC   PO424060  30.928  28.251   9.622
 1745POPC   GL124061  30.884  28.368   9.151
 1745POPC   GL224062  30.531  28.282   9.047
 1745POPC   C1A24063  30.758  28.553   8.713
 1745POPC   D2A24064  30.800  28.360   8.337
 1745POPC   C3A24065  30.685  28.478   7.930
 1745POPC   C4A24066  30.815  28.339   7.481
 1745POPC   C1B24067  30.383  28.064   8.667
 1745POPC   C2B24068  30.482  27.985   8.217
 1745POPC   C3B24069  30.439  28.062   7.763
 1745POPC   C4B24070  30.266  27.729   7.481
 1746POPC   NC324071   9.635  31.964   9.512
 1746POPC   PO424072   9.428  32.614   9.651
 1746POPC   GL124073   9.556  32.443   9.224
 1746POPC   GL224074   9.874  32.582   9.035
 1746POPC   C1A24075   9.541  32.225   8.808
 1746POPC   D2A24076   9.562  32.395   8.360
 1746POPC   C3A24077   9.528  32.193   7.946
 1746POPC   C4A24078   9.790  32.223   7.585
 1746POPC   C1B24079  10.022  32.297   8.672
 1746POPC   C2B24080   9.843  31.949   8.397
 1746POPC   C3B24081   9.941  31.871   7.970
 1746POPC   C4B24082  10.269  32.086   7.788
 1747POPC   NC324083   5.709  21.895   9.404
 1747POPC   PO424084   5.767  21.190   9.526
 1747POPC   GL124085   5.921  21.269   9.125
 1747POPC   GL224086   6.033  21.611   9.106
 1747POPC   C1A24087   5.725  21.162   8.759
 1747POPC   D2A24088   5.867  21.043   8.364
 1747POPC   C3A24089   5.649  21.169   8.002
 1747POPC   C4A24090   5.835  21.395   7.648
 1747POPC   C1B24091   5.726  21.675   8.799
 1747POPC   C2B24092   5.613  21.554   8.404
 1747POPC   C3B24093   5.611  21.688   7.997
 1747POPC   C4B24094   5.356  21.502   7.722
 1748POPC   NC324095  43.823  33.344   9.507
 1748POPC   PO424096  43.456  32.703   9.386
 1748POPC   GL124097  43.761  32.967   9.144
 1748POPC   GL224098  43.580  33.287   9.079
 1748POPC   C1A24099  43.968  33.039   8.720
 1748POPC   D2A24100  44.042  32.809   8.296
 1748POPC   C3A24101  43.951  33.063   7.928
 1748POPC   C4A24102  44.055  33.323   7.553
 1748POPC   C1B24103  43.460  32.998   8.726
 1748POPC   C2B24104  43.591  33.036   8.294
 1748POPC   C3B24105  43.448  32.914   7.880
 1748POPC   C4B24106  43.576  33.159   7.549
 1749POPC   NC324107   3.687   5.566   9.536
 1749POPC   PO424108   3.885   6.145   9.491
 1749POPC   GL124109   3.573   5.913   9.178
 1749POPC   GL224110   3.551   5.581   9.032
 1749POPC   C1A24111   3.344   6.042   8.820
 1749POPC   D2A24112   3.396   5.872   8.432
 1749POPC   C3A24113   3.125   5.907   8.149
 1749POPC   C4A24114   3.283   5.968   7.787
 1749POPC   C1B24115   3.812   5.822   8.736
 1749POPC   C2B24116   3.884   5.843   8.285
 1749POPC   C3B24117   3.791   5.842   7.846
 1749POPC   C4B24118   4.039   5.835   7.478
 1750POPC   NC324119  31.581  20.799   9.397
 1750POPC   PO424120  31.196  20.344   9.671
 1750POPC   GL124121  31.230  20.436   9.222
 1750POPC   GL224122  31.195  20.784   9.073
 1750POPC   C1A24123  31.293  20.377   8.790
 1750POPC   D2A24124  31.112  20.263   8.399
 1750POPC   C3A24125  31.336  20.337   8.022
 1750POPC   C4A24126  31.301  20.564   7.682
 1750POPC   C1B24127  31.598  20.761   8.778
 1750POPC   C2B24128  31.586  20.599   8.366
 1750POPC   C3B24129  31.642  20.829   7.966
 1750POPC   C4B24130  31.816  20.966   7.568
 1751POPC   NC324131  34.240  10.650   9.398
 1751POPC   PO424132  34.864  10.540   9.493
 1751POPC   GL124133  34.584  10.425   9.128
 1751POPC   GL224134  34.628  10.754   9.031
 1751POPC   C1A24135  34.345  10.446   8.730
 1751POPC   D2A24136  34.308  10.638   8.293
 1751POPC   C3A24137  34.692  10.666   8.022
 1751POPC   C4A24138  34.672  10.355   7.703
 1751POPC   C1B24139  34.322  11.023   8.814
 1751POPC   C2B24140  34.161  11.115   8.414
 1751POPC   C3B24141  34.144  11.074   7.978
 1751POPC   C4B24142  34.265  10.712   7.733
 1752POPC   NC324143  42.273   9.393   9.764
 1752POPC   PO424144  42.617  10.019   9.589
 1752POPC   GL124145  42.446   9.991   9.136
 1752POPC   GL224146  42.646  10.259   9.041
 1752POPC   C1A24147  42.340   9.678   8.754
 1752POPC   D2A24148  42.444   9.491   8.335
 1752POPC   C3A24149  42.259   9.704   7.999
 1752POPC   C4A24150  42.340   9.812   7.562
 1752POPC   C1B24151  42.737   9.991   8.688
 1752POPC   C2B24152  42.600  10.010   8.258
 1752POPC   C3B24153  42.692  10.124   7.833
 1752POPC   C4B24154  42.795   9.990   7.393
 1753POPC   NC324155  16.155   5.951   9.315
 1753POPC   PO424156  15.523   5.664   9.531
 1753POPC   GL124157  15.703   5.704   9.118
 1753POPC   GL224158  16.013   5.530   9.048
 1753POPC   C1A24159  15.823   5.926   8.711
 1753POPC   D2A24160  16.023   5.958   8.287
 1753POPC   C3A24161  15.760   5.921   7.905
 1753POPC   C4A24162  15.749   5.991   7.437
 1753POPC   C1B24163  15.775   5.415   8.708
 1753POPC   C2B24164  15.719   5.532   8.321
 1753POPC   C3B24165  15.819   5.391   7.980
 1753POPC   C4B24166  15.838   5.489   7.619
 1754POPC   NC324167  40.370  44.938   9.497
 1754POPC   PO424168  39.943  44.444   9.549
 1754POPC   GL124169  39.830  44.741   9.215
 1754POPC   GL224170  40.145  44.720   9.091
 1754POPC   C1A24171  39.724  44.681   8.767
 1754POPC   D2A24172  39.893  44.794   8.346
 1754POPC   C3A24173  39.748  44.586   7.919
 1754POPC   C4A24174  39.831  44.419   7.500
 1754POPC   C1B24175  40.284  44.887   8.734
 1754POPC   C2B24176  40.448  44.770   8.337
 1754POPC   C3B24177  40.257  44.637   8.000
 1754POPC   C4B24178  40.184  44.754   7.618
 1755POPC   NC324179  16.873   3.805   9.404
 1755POPC   PO424180  16.683   4.434   9.670
 1755POPC   GL124181  16.535   4.406   9.214
 1755POPC   GL224182  16.464   4.058   9.156
 1755POPC   C1A24183  16.590   4.379   8.745
 1755POPC   D2A24184  16.760   4.521   8.340
 1755POPC   C3A24185  16.631   4.546   7.929
 1755POPC   C4A24186  16.457   4.249   7.676
 1755POPC   C1B24187  16.642   3.828   8.797
 1755POPC   C2B24188  16.573   3.753   8.378
 1755POPC   C3B24189  16.703   4.040   8.101
 1755POPC   C4B24190  16.882   3.980   7.742
 1756POPC   NC324191  37.852  43.832   9.495
 1756POPC   PO424192  37.316  44.151   9.507
 1756POPC   GL124193  37.338  43.957   9.089
 1756POPC   GL224194  37.558  43.686   9.106
 1756POPC   C1A24195  37.464  43.887   8.669
 1756POPC   D2A24196  37.765  44.118   8.531
 1756POPC   C3A24197  37.878  44.184   8.093
 1756POPC   C4A24198  37.782  44.153   7.640
 1756POPC   C1B24199  37.868  43.605   8.767
 1756POPC   C2B24200  37.788  43.659   8.320
 1756POPC   C3B24201  37.796  43.713   7.916
 1756POPC   C4B24202  37.403  43.791   7.745
 1757POPC   NC324203  12.615  33.789   9.530
 1757POPC   PO424204  13.189  34.119   9.420
 1757POPC   GL124205  12.952  33.832   9.151
 1757POPC   GL224206  12.612  33.878   9.008
 1757POPC   C1A24207  13.034  33.725   8.747
 1757POPC   D2A24208  13.008  33.587   8.348
 1757POPC   C3A24209  12.669  33.742   8.137
 1757POPC   C4A24210  12.740  33.758   7.721
 1757POPC   C1B24211  12.509  33.576   8.654
 1757POPC   C2B24212  12.228  33.389   8.323
 1757POPC   C3B24213  12.387  33.393   7.888
 1757POPC   C4B24214  12.247  33.716   7.585
 1758POPC   NC324215   3.076  11.063   9.636
 1758POPC   PO424216   2.478  11.342   9.664
 1758POPC   GL124217   2.801  11.324   9.282
 1758POPC   GL224218   2.570  11.471   9.100
 1758POPC   C1A24219   2.983  11.369   8.823
 1758POPC   D2A24220   2.896  11.252   8.402
 1758POPC   C3A24221   3.122  11.324   8.009
 1758POPC   C4A24222   2.950  11.356   7.628
 1758POPC   C1B24223   2.629  11.752   8.781
 1758POPC   C2B24224   2.543  11.650   8.404
 1758POPC   C3B24225   2.635  11.521   8.018
 1758POPC   C4B24226   2.481  11.691   7.652
 1759POPC   NC324227  21.847  33.131   9.529
 1759POPC   PO424228  22.389  32.789   9.736
 1759POPC   GL124229  22.309  32.909   9.305
 1759POPC   GL224230  22.440  33.231   9.358
 1759POPC   C1A24231  22.044  32.909   8.885
 1759POPC   D2A24232  21.708  33.052   8.574
 1759POPC   C3A24233  21.766  33.018   8.139
 1759POPC   C4A24234  22.042  32.853   7.797
 1759POPC   C1B24235  22.202  33.369   9.002
 1759POPC   C2B24236  22.129  33.327   8.536
 1759POPC   C3B24237  22.207  33.296   8.077
 1759POPC   C4B24238  22.226  33.467   7.650
 1760POPC   NC324239  30.286  33.777   9.294
 1760POPC   PO424240  30.802  33.970   9.614
 1760POPC   GL124241  30.869  33.896   9.168
 1760POPC   GL224242  30.929  33.532   9.026
 1760POPC   C1A24243  30.809  33.964   8.741
 1760POPC   D2A24244  30.864  33.710   8.402
 1760POPC   C3A24245  30.857  33.911   8.035
 1760POPC   C4A24246  30.707  33.911   7.616
 1760POPC   C1B24247  30.547  33.537   8.755
 1760POPC   C2B24248  30.379  33.524   8.335
 1760POPC   C3B24249  30.368  33.681   7.905
 1760POPC   C4B24250  30.350  33.546   7.453
 1761POPC   NC324251  23.937   4.016   9.466
 1761POPC   PO424252  23.759   3.443   9.777
 1761POPC   GL124253  23.619   3.487   9.326
 1761POPC   GL224254  23.908   3.546   9.196
 1761POPC   C1A24255  23.505   3.419   8.856
 1761POPC   D2A24256  23.228   3.567   8.491
 1761POPC   C3A24257  23.310   3.439   8.064
 1761POPC   C4A24258  23.535   3.563   7.674
 1761POPC   C1B24259  24.049   3.452   8.797
 1761POPC   C2B24260  24.197   3.416   8.395
 1761POPC   C3B24261  23.988   3.537   8.027
 1761POPC   C4B24262  24.029   3.460   7.590
 1762POPC   NC324263  21.095   6.212   9.632
 1762POPC   PO424264  20.674   5.742   9.483
 1762POPC   GL124265  20.638   6.028   9.188
 1762POPC   GL224266  20.998   6.007   9.160
 1762POPC   C1A24267  20.413   6.150   8.810
 1762POPC   D2A24268  20.211   6.117   8.399
 1762POPC   C3A24269  20.402   6.235   8.017
 1762POPC   C4A24270  20.437   6.013   7.608
 1762POPC   C1B24271  20.849   5.875   8.751
 1762POPC   C2B24272  20.724   6.037   8.368
 1762POPC   C3B24273  20.743   5.813   7.962
 1762POPC   C4B24274  20.873   5.731   7.522
 1763POPC   NC324275  19.474   0.025   9.871
 1763POPC   PO424276  19.207  44.548   9.514
 1763POPC   GL124277  19.017  44.611   9.153
 1763POPC   GL224278  18.668  44.560   9.226
 1763POPC   C1A24279  19.125  44.710   8.748
 1763POPC   D2A24280  19.116  44.493   8.372
 1763POPC   C3A24281  19.215  44.659   7.995
 1763POPC   C4A24282  19.608  44.845   7.915
 1763POPC   C1B24283  18.659  44.906   8.883
 1763POPC   C2B24284  18.765  44.910   8.425
 1763POPC   C3B24285  18.689  44.621   8.072
 1763POPC   C4B24286  18.818  44.567   7.650
 1764POPC   NC324287  40.575  11.597   9.495
 1764POPC   PO424288  41.067  11.036   9.363
 1764POPC   GL124289  40.865  11.233   9.036
 1764POPC   GL224290  40.499  11.175   9.138
 1764POPC   C1A24291  41.020  11.417   8.618
 1764POPC   D2A24292  41.174  11.748   8.304
 1764POPC   C3A24293  41.156  11.538   7.880
 1764POPC   C4A24294  40.763  11.247   7.843
 1764POPC   C1B24295  40.498  11.385   8.733
 1764POPC   C2B24296  40.607  11.194   8.341
 1764POPC   C3B24297  40.379  10.926   8.059
 1764POPC   C4B24298  40.205  11.031   7.691
 1765POPC   NC324299   0.257  12.201   9.389
 1765POPC   PO424300   0.905  12.274   9.111
 1765POPC   GL124301   0.579  12.008   8.969
 1765POPC   GL224302   0.310  11.754   9.118
 1765POPC   C1A24303   0.553  12.183   8.564
 1765POPC   D2A24304   0.694  12.549   8.389
 1765POPC   C3A24305   0.659  12.367   8.021
 1765POPC   C4A24306   0.306  12.237   7.825
 1765POPC   C1B24307   0.130  11.965   8.733
 1765POPC   C2B24308   0.169  11.986   8.273
 1765POPC   C3B24309   0.099  11.780   7.869
 1765POPC   C4B24310   0.305  11.811   7.464
 1766POPC   NC324311  16.344  12.278   9.576
 1766POPC   PO424312  16.786  11.810   9.728
 1766POPC   GL124313  16.669  11.817   9.281
 1766POPC   GL224314  16.882  12.052   9.107
 1766POPC   C1A24315  16.523  11.841   8.831
 1766POPC   D2A24316  16.756  11.993   8.492
 1766POPC   C3A24317  16.516  11.915   8.132
 1766POPC   C4A24318  16.622  12.032   7.745
 1766POPC   C1B24319  17.015  12.341   8.801
 1766POPC   C2B24320  17.145  12.451   8.421
 1766POPC   C3B24321  17.009  12.274   8.051
 1766POPC   C4B24322  17.060  12.465   7.679
 1767POPC   NC324323  34.805  22.215   9.668
 1767POPC   PO424324  34.178  21.971   9.676
 1767POPC   GL124325  34.407  22.218   9.315
 1767POPC   GL224326  34.732  22.265   9.167
 1767POPC   C1A24327  34.307  22.279   8.874
 1767POPC   D2A24328  34.373  22.105   8.472
 1767POPC   C3A24329  34.279  22.355   8.102
 1767POPC   C4A24330  34.438  22.189   7.749
 1767POPC   C1B24331  34.832  22.239   8.729
 1767POPC   C2B24332  34.761  22.408   8.312
 1767POPC   C3B24333  34.900  22.225   7.942
 1767POPC   C4B24334  35.006  22.347   7.569
 1768POPC   NC324335  27.099  19.302   9.486
 1768POPC   PO424336  26.600  19.816   9.578
 1768POPC   GL124337  26.809  19.917   9.222
 1768POPC   GL224338  26.819  19.581   9.143
 1768POPC   C1A24339  26.889  20.073   8.808
 1768POPC   D2A24340  26.737  20.071   8.408
 1768POPC   C3A24341  27.046  19.982   8.102
 1768POPC   C4A24342  26.901  19.822   7.734
 1768POPC   C1B24343  27.016  19.542   8.756
 1768POPC   C2B24344  26.915  19.540   8.336
 1768POPC   C3B24345  26.675  19.390   7.988
 1768POPC   C4B24346  26.813  19.355   7.586
 1769POPC   NC324347   9.322  37.298   9.840
 1769POPC   PO424348   8.942  36.786   9.605
 1769POPC   GL124349   8.878  37.098   9.194
 1769POPC   GL224350   8.564  37.049   9.055
 1769POPC   C1A24351   8.874  37.207   8.681
 1769POPC   D2A24352   8.628  37.046   8.298
 1769POPC   C3A24353   8.914  36.939   7.944
 1769POPC   C4A24354   9.362  36.921   7.759
 1769POPC   C1B24355   8.703  36.733   8.712
 1769POPC   C2B24356   8.785  36.550   8.280
 1769POPC   C3B24357   8.801  36.466   7.802
 1769POPC   C4B24358   8.697  36.601   7.360
 1770POPC   NC324359  40.413  36.682   9.602
 1770POPC   PO424360  40.881  37.100   9.550
 1770POPC   GL124361  40.895  36.916   9.130
 1770POPC   GL224362  40.593  36.697   9.115
 1770POPC   C1A24363  41.130  36.827   8.733
 1770POPC   D2A24364  41.135  37.067   8.344
 1770POPC   C3A24365  41.042  36.880   7.958
 1770POPC   C4A24366  40.689  36.987   7.751
 1770POPC   C1B24367  40.633  36.885   8.695
 1770POPC   C2B24368  40.654  36.824   8.266
 1770POPC   C3B24369  40.338  36.695   7.980
 1770POPC   C4B24370  40.268  36.435   7.638
 1771POPC   NC324371  34.580  15.683   9.477
 1771POPC   PO424372  34.318  16.306   9.414
 1771POPC   GL124373  34.428  16.108   9.048
 1771POPC   GL224374  34.296  15.778   9.078
 1771POPC   C1A24375  34.695  15.884   8.761
 1771POPC   D2A24376  34.746  15.602   8.403
 1771POPC   C3A24377  34.840  15.827   8.032
 1771POPC   C4A24378  34.642  16.073   7.731
 1771POPC   C1B24379  34.162  15.848   8.694
 1771POPC   C2B24380  34.319  15.918   8.313
 1771POPC   C3B24381  34.199  15.846   7.921
 1771POPC   C4B24382  34.486  15.582   7.719
 1772POPC   NC324383  13.359  33.378   9.556
 1772POPC   PO424384  13.226  32.715   9.432
 1772POPC   GL124385  13.584  32.878   9.156
 1772POPC   GL224386  13.547  33.213   9.138
 1772POPC   C1A24387  13.788  33.050   8.747
 1772POPC   D2A24388  13.668  32.940   8.365
 1772POPC   C3A24389  13.811  33.169   8.036
 1772POPC   C4A24390  13.752  32.874   7.744
 1772POPC   C1B24391  13.356  33.339   8.778
 1772POPC   C2B24392  13.493  33.444   8.380
 1772POPC   C3B24393  13.329  33.376   7.976
 1772POPC   C4B24394  13.565  33.411   7.610
 1773POPC   NC324395  42.350  42.776   9.529
 1773POPC   PO424396  42.009  43.391   9.477
 1773POPC   GL124397  42.232  43.169   9.100
 1773POPC   GL224398  42.243  42.814   9.031
 1773POPC   C1A24399  42.435  43.164   8.680
 1773POPC   D2A24400  42.428  43.362   8.265
 1773POPC   C3A24401  42.623  43.143   7.915
 1773POPC   C4A24402  42.534  42.769   7.637
 1773POPC   C1B24403  42.248  42.698   8.603
 1773POPC   C2B24404  42.104  42.958   8.267
 1773POPC   C3B24405  42.133  43.103   7.865
 1773POPC   C4B24406  42.109  42.974   7.435
 1774POPC   NC324407  44.964  21.233   9.622
 1774POPC   PO424408  44.293  21.388   9.609
 1774POPC   GL124409  44.471  21.311   9.210
 1774POPC   GL224410  44.304  20.992   9.144
 1774POPC   C1A24411  44.783  21.483   8.899
 1774POPC   D2A24412  44.840  21.829   8.553
 1774POPC   C3A24413  44.782  21.751   8.076
 1774POPC   C4A24414  44.970  21.595   7.665
 1774POPC   C1B24415  44.398  21.146   8.713
 1774POPC   C2B24416  44.693  21.343   8.414
 1774POPC   C3B24417  44.778  21.236   7.978
 1774POPC   C4B24418  44.503  21.092   7.612
 1775POPC   NC324419  10.780  15.437   9.347
 1775POPC   PO424420  11.519  15.401   9.405
 1775POPC   GL124421  11.281  15.107   9.117
 1775POPC   GL224422  10.941  14.959   9.035
 1775POPC   C1A24423  11.410  14.989   8.740
 1775POPC   D2A24424  11.386  15.174   8.361
 1775POPC   C3A24425  11.156  14.946   8.070
 1775POPC   C4A24426  11.431  15.030   7.778
 1775POPC   C1B24427  10.909  15.031   8.564
 1775POPC   C2B24428  10.921  15.371   8.227
 1775POPC   C3B24429  11.001  15.315   7.760
 1775POPC   C4B24430  11.080  15.022   7.369
 1776POPC   NC324431  13.721  31.139   9.434
 1776POPC   PO424432  13.521  31.794   9.493
 1776POPC   GL124433  13.662  31.582   9.163
 1776POPC   GL224434  13.348  31.385   9.175
 1776POPC   C1A24435  13.990  31.547   8.863
 1776POPC   D2A24436  13.991  31.252   8.566
 1776POPC   C3A24437  13.757  31.395   8.253
 1776POPC   C4A24438  13.826  31.477   7.860
 1776POPC   C1B24439  13.445  31.201   8.788
 1776POPC   C2B24440  13.154  31.134   8.442
 1776POPC   C3B24441  13.315  31.191   8.088
 1776POPC   C4B24442  13.334  31.452   7.746
 1777POPC   NC324443  29.210   5.631   9.901
 1777POPC   PO424444  29.419   6.263   9.611
 1777POPC   GL124445  29.355   5.942   9.285
 1777POPC   GL224446  29.001   5.856   9.263
 1777POPC   C1A24447  29.340   5.823   8.829
 1777POPC   D2A24448  29.492   5.913   8.399
 1777POPC   C3A24449  29.256   5.872   8.003
 1777POPC   C4A24450  29.251   5.808   7.520
 1777POPC   C1B24451  28.862   5.629   8.885
 1777POPC   C2B24452  29.058   5.583   8.466
 1777POPC   C3B24453  29.001   5.450   8.043
 1777POPC   C4B24454  28.702   5.540   7.737
 1778POPC   NC324455  33.401  31.875   9.485
 1778POPC   PO424456  32.767  32.124   9.595
 1778POPC   GL124457  32.873  32.207   9.156
 1778POPC   GL224458  33.203  32.144   9.083
 1778POPC   C1A24459  32.885  32.141   8.707
 1778POPC   D2A24460  33.081  32.338   8.357
 1778POPC   C3A24461  32.921  32.186   7.999
 1778POPC   C4A24462  32.628  32.128   7.672
 1778POPC   C1B24463  33.419  32.374   8.732
 1778POPC   C2B24464  33.487  32.692   8.404
 1778POPC   C3B24465  33.328  32.613   7.982
 1778POPC   C4B24466  33.359  32.223   7.751
 1779POPC   NC324467  28.140   1.163   9.415
 1779POPC   PO424468  28.771   1.302   9.518
 1779POPC   GL124469  28.633   1.310   9.106
 1779POPC   GL224470  28.464   1.003   9.045
 1779POPC   C1A24471  28.521   1.339   8.661
 1779POPC   D2A24472  28.693   1.533   8.338
 1779POPC   C3A24473  28.578   1.335   7.938
 1779POPC   C4A24474  28.469   0.959   7.767
 1779POPC   C1B24475  28.154   1.004   8.676
 1779POPC   C2B24476  28.177   1.163   8.233
 1779POPC   C3B24477  27.973   0.974   7.843
 1779POPC   C4B24478  28.072   0.909   7.396
 1780POPC   NC324479  28.049   8.402   9.495
 1780POPC   PO424480  28.446   7.988   9.672
 1780POPC   GL124481  28.452   8.189   9.258
 1780POPC   GL224482  28.128   8.097   9.110
 1780POPC   C1A24483  28.432   8.399   8.841
 1780POPC   D2A24484  28.339   8.180   8.434
 1780POPC   C3A24485  28.630   8.125   8.067
 1780POPC   C4A24486  28.609   7.927   7.635
 1780POPC   C1B24487  27.926   8.313   8.739
 1780POPC   C2B24488  27.971   8.516   8.319
 1780POPC   C3B24489  28.172   8.341   7.959
 1780POPC   C4B24490  28.428   8.424   7.616
 1781POPC   NC324491  31.150  32.141   9.547
 1781POPC   PO424492  31.783  32.231   9.453
 1781POPC   GL124493  31.450  32.254   9.139
 1781POPC   GL224494  31.318  31.922   9.060
 1781POPC   C1A24495  31.427  32.419   8.715
 1781POPC   D2A24496  31.507  32.599   8.300
 1781POPC   C3A24497  31.380  32.329   7.945
 1781POPC   C4A24498  31.548  32.367   7.506
 1781POPC   C1B24499  31.677  31.974   8.748
 1781POPC   C2B24500  31.690  32.103   8.335
 1781POPC   C3B24501  31.652  31.893   7.938
 1781POPC   C4B24502  31.342  31.909   7.611
 1782POPC   NC324503  13.158  18.361   9.885
 1782POPC   PO424504  12.714  18.724   9.555
 1782POPC   GL124505  12.758  18.448   9.203
 1782POPC   GL224506  12.865  18.079   9.198
 1782POPC   C1A24507  12.885  18.402   8.802
 1782POPC   D2A24508  12.848  18.243   8.433
 1782POPC   C3A24509  12.958  18.493   8.100
 1782POPC   C4A24510  12.641  18.538   7.773
 1782POPC   C1B24511  12.798  17.855   8.795
 1782POPC   C2B24512  12.710  17.768   8.342
 1782POPC   C3B24513  12.868  18.012   7.968
 1782POPC   C4B24514  13.097  18.257   7.675
 1783POPC   NC324515  17.010  36.805   9.454
 1783POPC   PO424516  17.634  37.066   9.602
 1783POPC   GL124517  17.516  36.796   9.223
 1783POPC   GL224518  17.249  36.925   9.026
 1783POPC   C1A24519  17.490  36.558   8.806
 1783POPC   D2A24520  17.357  36.689   8.402
 1783POPC   C3A24521  17.535  36.812   8.033
 1783POPC   C4A24522  17.448  36.867   7.618
 1783POPC   C1B24523  17.519  37.074   8.705
 1783POPC   C2B24524  17.591  37.273   8.285
 1783POPC   C3B24525  17.569  37.306   7.822
 1783POPC   C4B24526  17.688  37.329   7.354
 1784POPC   NC324527   0.310   2.508   9.488
 1784POPC   PO424528   0.349   3.189   9.456
 1784POPC   GL124529   0.152   2.880   9.201
 1784POPC   GL224530  44.874   2.960   9.063
 1784POPC   C1A24531   0.272   2.662   8.822
 1784POPC   D2A24532   0.415   2.767   8.444
 1784POPC   C3A24533   0.407   2.563   8.062
 1784POPC   C4A24534   0.663   2.575   7.701
 1784POPC   C1B24535   0.201   3.181   8.807
 1784POPC   C2B24536   0.329   3.256   8.386
 1784POPC   C3B24537   0.329   3.082   7.980
 1784POPC   C4B24538  44.984   3.270   7.802
 1785POPC   NC324539   3.335  12.012   9.451
 1785POPC   PO424540   3.836  12.399   9.406
 1785POPC   GL124541   3.647  12.211   9.104
 1785POPC   GL224542   3.282  12.245   8.991
 1785POPC   C1A24543   3.626  11.879   8.855
 1785POPC   D2A24544   3.734  11.863   8.433
 1785POPC   C3A24545   3.464  11.944   8.128
 1785POPC   C4A24546   3.538  11.911   7.728
 1785POPC   C1B24547   3.553  12.393   8.655
 1785POPC   C2B24548   3.559  12.434   8.218
 1785POPC   C3B24549   3.581  12.432   7.796
 1785POPC   C4B24550   3.173  12.295   7.745
 1786POPC   NC324551  33.671  34.031   9.419
 1786POPC   PO424552  33.627  33.340   9.380
 1786POPC   GL124553  33.905  33.568   9.133
 1786POPC   GL224554  33.815  33.917   8.946
 1786POPC   C1A24555  34.111  33.558   8.734
 1786POPC   D2A24556  33.959  33.785   8.384
 1786POPC   C3A24557  33.909  33.486   8.071
 1786POPC   C4A24558  34.006  33.474   7.645
 1786POPC   C1B24559  33.546  34.061   8.579
 1786POPC   C2B24560  33.617  34.164   8.205
 1786POPC   C3B24561  33.855  34.007   7.899
 1786POPC   C4B24562  33.558  33.711   7.736
 1787POPC   NC324563  16.839  32.350   9.591
 1787POPC   PO424564  16.554  31.989   9.180
 1787POPC   GL124565  16.945  32.235   9.089
 1787POPC   GL224566  17.173  32.536   9.252
 1787POPC   C1A24567  16.896  32.190   8.642
 1787POPC   D2A24568  16.505  32.114   8.413
 1787POPC   C3A24569  16.582  31.933   8.007
 1787POPC   C4A24570  16.568  32.167   7.624
 1787POPC   C1B24571  17.296  32.486   8.821
 1787POPC   C2B24572  17.294  32.340   8.388
 1787POPC   C3B24573  16.945  32.307   8.076
 1787POPC   C4B24574  16.949  32.450   7.625
 1788POPC   NC324575  40.419   4.713   9.613
 1788POPC   PO424576  40.919   5.149   9.499
 1788POPC   GL124577  40.812   5.049   9.102
 1788POPC   GL224578  40.468   4.971   9.124
 1788POPC   C1A24579  40.775   5.341   8.756
 1788POPC   D2A24580  40.588   5.382   8.362
 1788POPC   C3A24581  40.779   5.245   7.990
 1788POPC   C4A24582  40.798   5.150   7.571
 1788POPC   C1B24583  40.427   4.984   8.672
 1788POPC   C2B24584  40.647   4.848   8.295
 1788POPC   C3B24585  40.565   4.786   7.847
 1788POPC   C4B24586  40.524   4.784   7.345
 1789POPC   NC324587  44.487  38.401   9.551
 1789POPC   PO424588   0.113  38.180   9.339
 1789POPC   GL124589  44.847  38.462   9.191
 1789POPC   GL224590  44.646  38.175   9.112
 1789POPC   C1A24591  44.699  38.646   8.821
 1789POPC   D2A24592  44.964  38.777   8.471
 1789POPC   C3A24593  44.826  38.690   8.045
 1789POPC   C4A24594  44.830  38.300   7.852
 1789POPC   C1B24595  44.815  38.159   8.697
 1789POPC   C2B24596  44.598  38.276   8.312
 1789POPC   C3B24597  44.330  38.332   7.918
 1789POPC   C4B24598  44.427  38.324   7.439
 1790POPC   NC324599  27.859  26.753   9.582
 1790POPC   PO424600  27.553  27.301   9.650
 1790POPC   GL124601  27.478  26.953   9.265
 1790POPC   GL224602  27.166  27.056   9.006
 1790POPC   C1A24603  27.597  26.833   8.805
 1790POPC   D2A24604  27.795  26.559   8.446
 1790POPC   C3A24605  27.812  26.636   7.977
 1790POPC   C4A24606  27.632  26.563   7.572
 1790POPC   C1B24607  27.236  27.138   8.574
 1790POPC   C2B24608  27.578  27.000   8.292
 1790POPC   C3B24609  27.488  27.033   7.849
 1790POPC   C4B24610  27.067  27.065   7.695
 1791POPC   NC324611  39.800   4.264   9.727
 1791POPC   PO424612  40.172   4.526   9.266
 1791POPC   GL124613  39.945   4.422   9.004
 1791POPC   GL224614  39.893   4.096   9.129
 1791POPC   C1A24615  39.830   4.511   8.598
 1791POPC   D2A24616  40.166   4.665   8.353
 1791POPC   C3A24617  40.080   4.619   7.944
 1791POPC   C4A24618  40.233   4.472   7.586
 1791POPC   C1B24619  40.070   4.055   8.673
 1791POPC   C2B24620  40.053   4.171   8.222
 1791POPC   C3B24621  40.063   4.047   7.784
 1791POPC   C4B24622  39.746   3.898   7.468
 1792POPC   NC324623   7.055  23.749   9.312
 1792POPC   PO424624   6.787  23.207   9.407
 1792POPC   GL124625   6.605  23.513   9.151
 1792POPC   GL224626   6.298  23.394   9.094
 1792POPC   C1A24627   6.537  23.759   8.760
 1792POPC   D2A24628   6.311  23.864   8.372
 1792POPC   C3A24629   6.479  23.889   7.920
 1792POPC   C4A24630   6.908  23.837   7.734
 1792POPC   C1B24631   6.503  23.261   8.722
 1792POPC   C2B24632   6.287  23.254   8.340
 1792POPC   C3B24633   6.484  23.371   7.963
 1792POPC   C4B24634   6.526  23.520   7.530
 1793POPC   NC324635  30.135  39.973   9.272
 1793POPC   PO424636  30.737  40.076   9.656
 1793POPC   GL124637  30.659  39.968   9.156
 1793POPC   GL224638  30.397  40.111   8.873
 1793POPC   C1A24639  30.650  39.717   8.743
 1793POPC   D2A24640  30.539  39.924   8.364
 1793POPC   C3A24641  30.760  39.999   7.992
 1793POPC   C4A24642  30.545  40.369   7.866
 1793POPC   C1B24643  30.799  40.206   8.702
 1793POPC   C2B24644  30.870  40.376   8.312
 1793POPC   C3B24645  31.078  40.428   7.926
 1793POPC   C4B24646  31.190  40.154   7.583
 1794POPC   NC324647  16.985  18.704   9.691
 1794POPC   PO424648  16.589  19.154   9.363
 1794POPC   GL124649  16.962  19.012   9.089
 1794POPC   GL224650  16.890  19.292   8.932
 1794POPC   C1A24651  16.984  18.795   8.689
 1794POPC   D2A24652  16.582  18.754   8.514
 1794POPC   C3A24653  16.582  18.912   8.100
 1794POPC   C4A24654  16.504  18.895   7.667
 1794POPC   C1B24655  16.813  19.291   8.517
 1794POPC   C2B24656  17.056  19.194   8.179
 1794POPC   C3B24657  16.965  19.069   7.757
 1794POPC   C4B24658  17.015  18.978   7.322
 1795POPC   NC324659  42.371  26.404   9.930
 1795POPC   PO424660  42.570  25.816   9.634
 1795POPC   GL124661  42.526  25.760   9.194
 1795POPC   GL224662  42.225  25.985   9.169
 1795POPC   C1A24663  42.468  25.799   8.765
 1795POPC   D2A24664  42.658  26.053   8.456
 1795POPC   C3A24665  42.549  25.955   8.053
 1795POPC   C4A24666  42.361  25.898   7.669
 1795POPC   C1B24667  42.376  26.274   8.867
 1795POPC   C2B24668  42.293  26.417   8.443
 1795POPC   C3B24669  42.149  26.275   8.034
 1795POPC   C4B24670  42.112  26.430   7.621
 1796POPC   NC324671   7.370  44.876   9.618
 1796POPC   PO424672   7.840  44.461   9.590
 1796POPC   GL124673   7.669  44.656   9.171
 1796POPC   GL224674   7.355  44.824   9.125
 1796POPC   C1A24675   7.481  44.547   8.718
 1796POPC   D2A24676   7.277  44.376   8.328
 1796POPC   C3A24677   7.588  44.392   8.005
 1796POPC   C4A24678   7.682  44.504   7.561
 1796POPC   C1B24679   7.296   0.072   8.747
 1796POPC   C2B24680   7.325  44.897   8.353
 1796POPC   C3B24681   7.488  44.894   7.952
 1796POPC   C4B24682   7.228  44.619   7.723
 1797POPC   NC324683  10.964   8.252   9.478
 1797POPC   PO424684  11.477   7.786   9.473
 1797POPC   GL124685  11.248   7.980   9.178
 1797POPC   GL224686  10.934   7.784   9.174
 1797POPC   C1A24687  11.320   8.273   8.816
 1797POPC   D2A24688  11.287   8.599   8.502
 1797POPC   C3A24689  11.375   8.478   8.082
 1797POPC   C4A24690  11.652   8.274   7.790
 1797POPC   C1B24691  10.907   7.976   8.792
 1797POPC   C2B24692  11.015   8.101   8.398
 1797POPC   C3B24693  10.829   8.092   8.009
 1797POPC   C4B24694  10.961   8.100   7.582
 1798POPC   NC324695  41.616  42.116   9.435
 1798POPC   PO424696  41.251  41.581   9.551
 1798POPC   GL124697  41.581  41.658   9.207
 1798POPC   GL224698  41.937  41.444   9.140
 1798POPC   C1A24699  41.439  41.658   8.807
 1798POPC   D2A24700  41.487  41.522   8.405
 1798POPC   C3A24701  41.511  41.824   8.108
 1798POPC   C4A24702  41.617  41.709   7.706
 1798POPC   C1B24703  41.752  41.270   8.796
 1798POPC   C2B24704  41.785  41.103   8.415
 1798POPC   C3B24705  41.746  41.179   8.014
 1798POPC   C4B24706  41.925  41.011   7.662
 1799POPC   NC324707  14.925   9.963   9.519
 1799POPC   PO424708  14.226   9.951   9.489
 1799POPC   GL124709  14.298   9.729   9.096
 1799POPC   GL224710  14.642   9.857   9.097
 1799POPC   C1A24711  14.328   9.698   8.644
 1799POPC   D2A24712  14.613  10.026   8.489
 1799POPC   C3A24713  14.699   9.987   8.050
 1799POPC   C4A24714  14.399   9.829   7.741
 1799POPC   C1B24715  14.766   9.527   8.821
 1799POPC   C2B24716  14.766   9.527   8.384
 1799POPC   C3B24717  14.652   9.443   7.970
 1799POPC   C4B24718  14.842   9.461   7.556
 1800POPC   NC324719   2.162  10.174   9.325
 1800POPC   PO424720   1.911   9.551   9.527
 1800POPC   GL124721   1.919   9.710   9.129
 1800POPC   GL224722   2.251   9.716   9.152
 1800POPC   C1A24723   1.787   9.812   8.699
 1800POPC   D2A24724   1.828  10.126   8.359
 1800POPC   C3A24725   1.788   9.926   7.977
 1800POPC   C4A24726   1.826  10.033   7.543
 1800POPC   C1B24727   2.283   9.600   8.767
 1800POPC   C2B24728   2.157   9.696   8.363
 1800POPC   C3B24729   2.306   9.661   7.955
 1800POPC   C4B24730   2.314   9.846   7.541
 1801POPC   NC324731   1.526  24.029   9.529
 1801POPC   PO424732   2.113  23.688   9.457
 1801POPC   GL124733   1.778  23.733   9.195
 1801POPC   GL224734   1.752  23.464   9.072
 1801POPC   C1A24735   1.759  23.870   8.765
 1801POPC   D2A24736   1.911  23.971   8.365
 1801POPC   C3A24737   1.778  23.715   8.037
 1801POPC   C4A24738   1.582  23.522   7.679
 1801POPC   C1B24739   2.081  23.446   8.802
 1801POPC   C2B24740   1.887  23.355   8.420
 1801POPC   C3B24741   1.934  23.218   8.018
 1801POPC   C4B24742   2.071  23.470   7.658
 1802POPC   NC324743   6.806  22.125   9.585
 1802POPC   PO424744   6.154  21.857   9.567
 1802POPC   GL124745   6.497  21.778   9.210
 1802POPC   GL224746   6.702  22.061   9.096
 1802POPC   C1A24747   6.423  21.851   8.724
 1802POPC   D2A24748   6.720  21.861   8.346
 1802POPC   C3A24749   6.667  21.867   7.900
 1802POPC   C4A24750   6.899  22.057   7.553
 1802POPC   C1B24751   6.829  22.217   8.709
 1802POPC   C2B24752   6.945  22.441   8.352
 1802POPC   C3B24753   6.762  22.360   7.982
 1802POPC   C4B24754   6.585  22.551   7.649
 1803POPC   NC324755  42.877  12.829   9.497
 1803POPC   PO424756  43.396  12.512   9.285
 1803POPC   GL124757  43.172  12.800   9.026
 1803POPC   GL224758  42.800  12.776   9.013
 1803POPC   C1A24759  43.324  12.804   8.606
 1803POPC   D2A24760  43.261  12.574   8.268
 1803POPC   C3A24761  43.226  12.775   7.902
 1803POPC   C4A24762  43.065  13.129   7.724
 1803POPC   C1B24763  42.818  12.819   8.593
 1803POPC   C2B24764  42.953  13.027   8.261
 1803POPC   C3B24765  42.705  12.857   7.976
 1803POPC   C4B24766  42.754  12.730   7.583
 1804POPC   NC324767  13.901  40.684   9.608
 1804POPC   PO424768  13.475  41.195   9.439
 1804POPC   GL124769  13.636  40.948   9.164
 1804POPC   GL224770  13.973  41.056   9.203
 1804POPC   C1A24771  13.469  41.011   8.728
 1804POPC   D2A24772  13.402  41.082   8.298
 1804POPC   C3A24773  13.563  40.771   8.031
 1804POPC   C4A24774  13.712  40.791   7.637
 1804POPC   C1B24775  13.965  40.911   8.794
 1804POPC   C2B24776  13.900  40.795   8.392
 1804POPC   C3B24777  14.086  40.769   7.988
 1804POPC   C4B24778  14.174  40.621   7.565
 1805POPC   NC324779  16.589  21.373   9.561
 1805POPC   PO424780  17.178  21.129   9.738
 1805POPC   GL124781  17.018  21.511   9.308
 1805POPC   GL224782  16.672  21.525   9.102
 1805POPC   C1A24783  17.059  21.524   8.778
 1805POPC   D2A24784  17.221  21.336   8.356
 1805POPC   C3A24785  16.921  21.139   8.086
 1805POPC   C4A24786  16.808  21.157   7.645
 1805POPC   C1B24787  16.399  21.327   8.804
 1805POPC   C2B24788  16.466  21.179   8.360
 1805POPC   C3B24789  16.394  21.251   7.944
 1805POPC   C4B24790  16.359  21.368   7.502
 1806POPC   NC324791  41.754  26.225   9.325
 1806POPC   PO424792  41.220  26.050   9.671
 1806POPC   GL124793  41.327  25.972   9.202
 1806POPC   GL224794  41.588  25.807   8.925
 1806POPC   C1A24795  41.291  26.172   8.817
 1806POPC   D2A24796  41.468  26.006   8.454
 1806POPC   C3A24797  41.295  26.101   8.078
 1806POPC   C4A24798  41.547  26.052   7.714
 1806POPC   C1B24799  41.956  25.991   8.716
 1806POPC   C2B24800  42.154  25.861   8.349
 1806POPC   C3B24801  41.957  25.763   7.933
 1806POPC   C4B24802  41.904  25.771   7.464
 1807POPC   NC324803  19.734  11.677   9.503
 1807POPC   PO424804  19.928  12.222   9.851
 1807POPC   GL124805  20.050  11.914   9.237
 1807POPC   GL224806  19.740  11.801   9.021
 1807POPC   C1A24807  20.089  12.050   8.791
 1807POPC   D2A24808  19.991  12.138   8.351
 1807POPC   C3A24809  20.117  12.068   7.928
 1807POPC   C4A24810  20.342  12.351   7.655
 1807POPC   C1B24811  19.608  11.745   8.604
 1807POPC   C2B24812  19.515  12.011   8.274
 1807POPC   C3B24813  19.618  12.234   7.956
 1807POPC   C4B24814  19.687  11.965   7.668
 1808POPC   NC324815   3.211  24.084   9.559
 1808POPC   PO424816   3.814  23.746   9.567
 1808POPC   GL124817   3.668  23.845   9.169
 1808POPC   GL224818   3.356  23.727   9.170
 1808POPC   C1A24819   3.654  23.650   8.756
 1808POPC   D2A24820   3.757  23.361   8.454
 1808POPC   C3A24821   3.860  23.505   8.072
 1808POPC   C4A24822   3.649  23.532   7.717
 1808POPC   C1B24823   3.167  23.797   8.771
 1808POPC   C2B24824   3.357  23.995   8.423
 1808POPC   C3B24825   3.493  23.874   8.060
 1808POPC   C4B24826   3.402  23.975   7.661
 1809POPC   NC324827   8.913  17.908   9.501
 1809POPC   PO424828   8.827  18.552   9.511
 1809POPC   GL124829   9.017  18.295   9.188
 1809POPC   GL224830   8.717  18.151   9.096
 1809POPC   C1A24831   9.110  18.279   8.740
 1809POPC   D2A24832   9.178  18.570   8.401
 1809POPC   C3A24833   8.949  18.721   8.055
 1809POPC   C4A24834   9.040  18.556   7.672
 1809POPC   C1B24835   8.586  18.111   8.685
 1809POPC   C2B24836   8.714  18.325   8.337
 1809POPC   C3B24837   9.055  18.204   8.052
 1809POPC   C4B24838   8.965  18.067   7.647
 1810POPC   NC324839  32.525  22.027   9.535
 1810POPC   PO424840  33.194  22.148   9.689
 1810POPC   GL124841  33.132  22.001   9.262
 1810POPC   GL224842  33.393  22.180   9.082
 1810POPC   C1A24843  32.990  22.001   8.822
 1810POPC   D2A24844  32.848  21.998   8.388
 1810POPC   C3A24845  33.148  22.043   8.037
 1810POPC   C4A24846  32.960  22.172   7.635
 1810POPC   C1B24847  33.479  22.395   8.705
 1810POPC   C2B24848  33.381  22.418   8.288
 1810POPC   C3B24849  33.308  22.504   7.831
 1810POPC   C4B24850  33.372  22.385   7.384
 1811POPC   NC324851  32.989   0.621   9.639
 1811POPC   PO424852  33.626   0.568   9.661
 1811POPC   GL124853  33.329   0.582   9.261
 1811POPC   GL224854  32.997   0.377   9.183
 1811POPC   C1A24855  33.239   0.661   8.823
 1811POPC   D2A24856  33.095   0.386   8.505
 1811POPC   C3A24857  33.182   0.480   8.102
 1811POPC   C4A24858  33.033   0.302   7.688
 1811POPC   C1B24859  32.737   0.614   8.869
 1811POPC   C2B24860  32.622   0.588   8.442
 1811POPC   C3B24861  32.692   0.299   8.117
 1811POPC   C4B24862  32.575   0.458   7.740
 1812POPC   NC324863  29.296   5.442   9.374
 1812POPC   PO424864  29.075   4.832   9.608
 1812POPC   GL124865  29.152   4.972   9.162
 1812POPC   GL224866  29.224   5.277   8.922
 1812POPC   C1A24867  29.177   4.823   8.750
 1812POPC   D2A24868  29.153   5.088   8.406
 1812POPC   C3A24869  29.293   4.991   8.024
 1812POPC   C4A24870  29.167   4.888   7.649
 1812POPC   C1B24871  29.543   5.378   8.628
 1812POPC   C2B24872  29.493   5.433   8.196
 1812POPC   C3B24873  29.460   5.410   7.778
 1812POPC   C4B24874  29.624   5.463   7.390
 1813POPC   NC324875  12.186  34.552   9.600
 1813POPC   PO424876  11.513  34.312   9.632
 1813POPC   GL124877  11.893  34.260   9.287
 1813POPC   GL224878  12.282  34.226   9.203
 1813POPC   C1A24879  11.967  34.350   8.825
 1813POPC   D2A24880  12.132  34.543   8.454
 1813POPC   C3A24881  11.977  34.408   8.064
 1813POPC   C4A24882  12.065  34.523   7.624
 1813POPC   C1B24883  12.494  34.356   8.805
 1813POPC   C2B24884  12.631  34.541   8.402
 1813POPC   C3B24885  12.469  34.531   7.999
 1813POPC   C4B24886  12.417  34.158   7.762
 1814POPC   NC324887  19.222   5.853   9.568
 1814POPC   PO424888  18.705   5.478   9.405
 1814POPC   GL124889  18.957   5.750   9.126
 1814POPC   GL224890  19.301   5.891   9.067
 1814POPC   C1A24891  19.067   5.605   8.700
 1814POPC   D2A24892  18.992   5.352   8.314
 1814POPC   C3A24893  19.140   5.632   7.955
 1814POPC   C4A24894  18.888   6.020   7.810
 1814POPC   C1B24895  18.984   6.108   8.775
 1814POPC   C2B24896  19.023   5.983   8.347
 1814POPC   C3B24897  19.312   6.117   8.084
 1814POPC   C4B24898  19.353   6.209   7.661
 1815POPC   NC324899   6.453  25.141   9.747
 1815POPC   PO424900   6.959  24.917   9.378
 1815POPC   GL124901   6.576  25.088   9.149
 1815POPC   GL224902   6.571  25.373   8.903
 1815POPC   C1A24903   6.283  24.984   8.788
 1815POPC   D2A24904   6.304  24.927   8.350
 1815POPC   C3A24905   6.401  25.351   8.179
 1815POPC   C4A24906   6.694  25.390   7.837
 1815POPC   C1B24907   6.632  25.703   8.635
 1815POPC   C2B24908   6.844  25.704   8.221
 1815POPC   C3B24909   6.906  25.835   7.774
 1815POPC   C4B24910   6.809  25.639   7.347
 1816POPC   NC324911  11.674  28.789   9.299
 1816POPC   PO424912  12.204  28.553   9.618
 1816POPC   GL124913  12.165  28.294   9.259
 1816POPC   GL224914  12.131  28.622   9.093
 1816POPC   C1A24915  12.213  28.194   8.817
 1816POPC   D2A24916  12.002  28.262   8.420
 1816POPC   C3A24917  12.167  28.245   8.006
 1816POPC   C4A24918  11.965  28.003   7.693
 1816POPC   C1B24919  12.161  28.683   8.662
 1816POPC   C2B24920  11.946  28.749   8.287
 1816POPC   C3B24921  11.859  28.818   7.882
 1816POPC   C4B24922  11.950  28.520   7.583
 1817POPC   NC324923  10.083  18.888   9.620
 1817POPC   PO424924   9.513  19.105   9.777
 1817POPC   GL124925   9.757  18.927   9.259
 1817POPC   GL224926  10.088  18.827   9.125
 1817POPC   C1A24927   9.797  19.071   8.790
 1817POPC   D2A24928  10.023  19.189   8.398
 1817POPC   C3A24929   9.916  19.035   7.981
 1817POPC   C4A24930   9.627  19.089   7.685
 1817POPC   C1B24931  10.030  18.603   8.743
 1817POPC   C2B24932  10.085  18.663   8.311
 1817POPC   C3B24933   9.971  18.523   7.898
 1817POPC   C4B24934   9.955  18.729   7.526
 1818POPC   NC324935  41.742   2.880   9.545
 1818POPC   PO424936  41.107   2.487   9.423
 1818POPC   GL124937  41.489   2.599   9.200
 1818POPC   GL224938  41.860   2.459   9.259
 1818POPC   C1A24939  41.527   2.819   8.839
 1818POPC   D2A24940  41.630   3.120   8.545
 1818POPC   C3A24941  41.471   2.956   8.129
 1818POPC   C4A24942  41.170   2.928   7.766
 1818POPC   C1B24943  41.803   2.390   8.823
 1818POPC   C2B24944  41.688   2.535   8.407
 1818POPC   C3B24945  41.723   2.406   7.991
 1818POPC   C4B24946  41.534   2.499   7.626
 1819POPC   NC324947  24.093  30.041   9.272
 1819POPC   PO424948  24.650  30.221   9.579
 1819POPC   GL124949  24.621  30.203   9.136
 1819POPC   GL224950  24.609  29.852   9.077
 1819POPC   C1A24951  24.522  30.164   8.683
 1819POPC   D2A24952  24.350  30.189   8.249
 1819POPC   C3A24953  24.548  29.951   7.916
 1819POPC   C4A24954  24.926  30.044   7.722
 1819POPC   C1B24955  24.357  29.665   8.741
 1819POPC   C2B24956  24.102  29.725   8.392
 1819POPC   C3B24957  24.069  29.811   7.978
 1819POPC   C4B24958  24.210  29.732   7.580
 1820POPC   NC324959   8.953  32.439   9.655
 1820POPC   PO424960   9.120  31.799   9.570
 1820POPC   GL124961   9.128  32.155   9.258
 1820POPC   GL224962   8.806  32.298   9.180
 1820POPC   C1A24963   9.046  32.143   8.774
 1820POPC   D2A24964   9.180  32.041   8.334
 1820POPC   C3A24965   9.084  32.423   8.073
 1820POPC   C4A24966   9.003  32.530   7.616
 1820POPC   C1B24967   8.563  32.376   8.773
 1820POPC   C2B24968   8.438  32.588   8.343
 1820POPC   C3B24969   8.575  32.726   7.890
 1820POPC   C4B24970   8.512  32.520   7.486
 1821POPC   NC324971  37.661  20.870   9.706
 1821POPC   PO424972  38.016  20.380   9.651
 1821POPC   GL124973  37.709  20.385   9.283
 1821POPC   GL224974  37.682  20.756   9.163
 1821POPC   C1A24975  37.643  20.356   8.806
 1821POPC   D2A24976  37.605  20.579   8.389
 1821POPC   C3A24977  37.600  20.388   7.952
 1821POPC   C4A24978  37.505  20.351   7.505
 1821POPC   C1B24979  37.592  20.997   8.763
 1821POPC   C2B24980  37.654  21.116   8.319
 1821POPC   C3B24981  37.506  20.894   7.978
 1821POPC   C4B24982  37.650  20.813   7.595
 1822POPC   NC324983  19.572   1.727   9.489
 1822POPC   PO424984  20.078   2.249   9.432
 1822POPC   GL124985  20.017   1.876   9.215
 1822POPC   GL224986  19.702   1.973   9.053
 1822POPC   C1A24987  20.098   1.781   8.788
 1822POPC   D2A24988  20.134   2.009   8.413
 1822POPC   C3A24989  20.009   1.882   8.005
 1822POPC   C4A24990  19.815   2.216   7.761
 1822POPC   C1B24991  19.506   1.795   8.684
 1822POPC   C2B24992  19.563   1.836   8.236
 1822POPC   C3B24993  19.587   1.564   7.835
 1822POPC   C4B24994  19.489   1.568   7.326
 1823POPC   NC324995   4.864  24.997   9.489
 1823POPC   PO424996   4.334  25.517   9.504
 1823POPC   GL124997   4.223  25.179   9.248
 1823POPC   GL224998   4.519  25.111   9.135
 1823POPC   C1A24999   4.173  25.264   8.791
 1823POPC   D2A25000   4.424  25.211   8.404
 1823POPC   C3A25001   4.250  25.143   7.992
 1823POPC   C4A25002   4.002  25.041   7.629
 1823POPC   C1B25003   4.797  25.018   8.835
 1823POPC   C2B25004   4.901  25.049   8.429
 1823POPC   C3B25005   4.724  24.913   8.086
 1823POPC   C4B25006   4.659  25.103   7.702
 1824POPC   NC325007  13.240  11.012   9.361
 1824POPC   PO425008  13.623  10.662   9.850
 1824POPC   GL125009  13.803  10.539   9.390
 1824POPC   GL225010  13.747  10.840   9.190
 1824POPC   C1A25011  13.736  10.421   8.921
 1824POPC   D2A25012  13.401  10.464   8.577
 1824POPC   C3A25013  13.481  10.288   8.153
 1824POPC   C4A25014  13.538  10.370   7.691
 1824POPC   C1B25015  13.755  10.883   8.720
 1824POPC   C2B25016  13.552  11.017   8.327
 1824POPC   C3B25017  13.555  10.910   7.883
 1824POPC   C4B25018  13.773  10.791   7.516
 1825POPC   NC325019  22.800  34.435   9.465
 1825POPC   PO425020  23.043  35.074   9.609
 1825POPC   GL125021  22.941  34.895   9.181
 1825POPC   GL225022  23.150  34.587   9.100
 1825POPC   C1A25023  22.756  34.699   8.783
 1825POPC   D2A25024  22.915  34.691   8.360
 1825POPC   C3A25025  22.664  34.680   8.007
 1825POPC   C4A25026  22.717  34.846   7.616
 1825POPC   C1B25027  23.267  34.866   8.741
 1825POPC   C2B25028  23.314  35.020   8.300
 1825POPC   C3B25029  23.186  34.810   7.906
 1825POPC   C4B25030  23.027  34.436   7.690
 1826POPC   NC325031  29.358  19.763   9.373
 1826POPC   PO425032  28.750  20.114   9.496
 1826POPC   GL125033  28.927  19.971   9.142
 1826POPC   GL225034  29.224  20.137   9.062
 1826POPC   C1A25035  29.038  19.728   8.793
 1826POPC   D2A25036  29.285  19.643   8.454
 1826POPC   C3A25037  29.124  19.636   8.086
 1826POPC   C4A25038  28.977  19.693   7.705
 1826POPC   C1B25039  29.465  20.037   8.721
 1826POPC   C2B25040  29.214  20.145   8.366
 1826POPC   C3B25041  29.042  20.135   7.961
 1826POPC   C4B25042  29.096  20.137   7.503
 1827POPC   NC325043   6.258  23.717   9.475
 1827POPC   PO425044   5.687  24.017   9.378
 1827POPC   GL125045   5.879  23.712   9.121
 1827POPC   GL225046   6.149  23.932   9.037
 1827POPC   C1A25047   6.017  23.571   8.714
 1827POPC   D2A25048   5.792  23.507   8.373
 1827POPC   C3A25049   6.028  23.607   8.047
 1827POPC   C4A25050   6.033  23.561   7.652
 1827POPC   C1B25051   5.837  24.083   8.741
 1827POPC   C2B25052   5.844  24.052   8.321
 1827POPC   C3B25053   6.004  24.087   7.908
 1827POPC   C4B25054   5.745  24.019   7.584
 1828POPC   NC325055  41.938  11.005   9.305
 1828POPC   PO425056  41.722  10.463   9.547
 1828POPC   GL125057  41.610  10.577   9.151
 1828POPC   GL225058  41.464  10.271   9.062
 1828POPC   C1A25059  41.648  10.608   8.709
 1828POPC   D2A25060  41.717  10.901   8.379
 1828POPC   C3A25061  41.666  10.729   7.953
 1828POPC   C4A25062  41.289  10.526   7.798
 1828POPC   C1B25063  41.453  10.120   8.642
 1828POPC   C2B25064  41.696  10.270   8.280
 1828POPC   C3B25065  41.648  10.167   7.855
 1828POPC   C4B25066  41.269  10.002   7.694
 1829POPC   NC325067   5.133   0.047   9.623
 1829POPC   PO425068   4.773  44.581   9.435
 1829POPC   GL125069   5.095  44.692   9.131
 1829POPC   GL225070   5.368  44.935   9.189
 1829POPC   C1A25071   5.123  44.509   8.733
 1829POPC   D2A25072   4.939  44.238   8.441
 1829POPC   C3A25073   4.974  44.399   8.062
 1829POPC   C4A25074   5.036  44.583   7.675
 1829POPC   C1B25075   5.436  44.922   8.748
 1829POPC   C2B25076   5.237  44.833   8.359
 1829POPC   C3B25077   5.372  44.849   7.974
 1829POPC   C4B25078   5.241   0.039   7.616
 1830POPC   NC325079  23.762  11.083   9.512
 1830POPC   PO425080  23.567  11.741   9.462
 1830POPC   GL125081  23.792  11.454   9.141
 1830POPC   GL225082  23.604  11.097   9.042
 1830POPC   C1A25083  23.710  11.433   8.682
 1830POPC   D2A25084  23.730  11.102   8.375
 1830POPC   C3A25085  23.712  11.240   7.933
 1830POPC   C4A25086  23.483  11.160   7.509
 1830POPC   C1B25087  23.988  10.969   8.877
 1830POPC   C2B25088  24.223  10.998   8.505
 1830POPC   C3B25089  24.116  10.904   8.083
 1830POPC   C4B25090  24.195  11.188   7.761
 1831POPC   NC325091  11.272  24.918   9.525
 1831POPC   PO425092  10.952  25.425   9.848
 1831POPC   GL125093  11.079  25.409   9.366
 1831POPC   GL225094  11.392  25.605   9.273
 1831POPC   C1A25095  11.253  25.271   8.921
 1831POPC   D2A25096  11.351  25.452   8.501
 1831POPC   C3A25097  11.492  25.194   8.171
 1831POPC   C4A25098  11.515  25.207   7.723
 1831POPC   C1B25099  11.191  25.783   8.877
 1831POPC   C2B25100  11.057  25.866   8.410
 1831POPC   C3B25101  11.091  25.575   8.022
 1831POPC   C4B25102  11.077  25.429   7.557
 1832POPC   NC325103  23.124  29.809   9.353
 1832POPC   PO425104  22.599  30.215   9.579
 1832POPC   GL125105  22.691  30.343   9.133
 1832POPC   GL225106  22.802  30.000   8.985
 1832POPC   C1A25107  22.858  30.407   8.691
 1832POPC   D2A25108  22.838  30.098   8.349
 1832POPC   C3A25109  23.109  30.204   8.006
 1832POPC   C4A25110  23.238  30.109   7.588
 1832POPC   C1B25111  23.170  29.906   8.714
 1832POPC   C2B25112  23.302  29.821   8.284
 1832POPC   C3B25113  23.109  29.699   7.888
 1832POPC   C4B25114  23.276  29.611   7.494
 1833POPC   NC325115  36.408  13.347   9.499
 1833POPC   PO425116  35.830  13.658   9.511
 1833POPC   GL125117  36.022  13.571   9.144
 1833POPC   GL225118  36.251  13.846   9.137
 1833POPC   C1A25119  36.063  13.600   8.689
 1833POPC   D2A25120  35.727  13.651   8.363
 1833POPC   C3A25121  35.891  13.549   7.969
 1833POPC   C4A25122  36.269  13.724   7.758
 1833POPC   C1B25123  35.874  14.020   8.900
 1833POPC   C2B25124  35.944  14.109   8.488
 1833POPC   C3B25125  36.120  13.977   8.162
 1833POPC   C4B25126  35.843  14.051   7.822
 1834POPC   NC325127  36.018   1.661   9.370
 1834POPC   PO425128  36.429   2.278   9.398
 1834POPC   GL125129  36.387   2.026   9.088
 1834POPC   GL225130  36.069   2.086   9.082
 1834POPC   C1A25131  36.355   2.186   8.667
 1834POPC   D2A25132  36.062   2.219   8.323
 1834POPC   C3A25133  36.184   1.860   8.093
 1834POPC   C4A25134  36.391   1.747   7.750
 1834POPC   C1B25135  35.914   1.913   8.739
 1834POPC   C2B25136  35.750   1.796   8.383
 1834POPC   C3B25137  35.701   1.988   8.011
 1834POPC   C4B25138  35.884   1.853   7.644
 1835POPC   NC325139  25.073  39.277   9.455
 1835POPC   PO425140  25.737  39.319   9.287
 1835POPC   GL125141  25.391  39.225   9.050
 1835POPC   GL225142  25.081  39.382   8.957
 1835POPC   C1A25143  25.277  39.002   8.710
 1835POPC   D2A25144  25.052  39.012   8.359
 1835POPC   C3A25145  25.191  38.831   7.998
 1835POPC   C4A25146  25.283  39.013   7.608
 1835POPC   C1B25147  25.429  39.618   8.731
 1835POPC   C2B25148  25.562  39.555   8.317
 1835POPC   C3B25149  25.327  39.347   8.023
 1835POPC   C4B25150  25.214  39.526   7.666
 1836POPC   NC325151  22.134  39.046   9.209
 1836POPC   PO425152  22.171  38.469   9.627
 1836POPC   GL125153  22.302  38.564   9.232
 1836POPC   GL225154  21.975  38.452   9.125
 1836POPC   C1A25155  22.319  38.550   8.766
 1836POPC   D2A25156  22.331  38.244   8.461
 1836POPC   C3A25157  22.415  38.356   8.064
 1836POPC   C4A25158  22.215  38.621   7.841
 1836POPC   C1B25159  21.755  38.205   8.773
 1836POPC   C2B25160  21.869  38.035   8.411
 1836POPC   C3B25161  21.911  38.204   8.049
 1836POPC   C4B25162  21.792  38.346   7.692
 1837POPC   NC325163  34.868  26.400   9.428
 1837POPC   PO425164  34.473  25.775   9.386
 1837POPC   GL125165  34.715  25.998   9.089
 1837POPC   GL225166  34.592  26.324   9.013
 1837POPC   C1A25167  34.720  25.915   8.646
 1837POPC   D2A25168  34.522  25.690   8.320
 1837POPC   C3A25169  34.573  25.997   8.028
 1837POPC   C4A25170  34.739  26.017   7.605
 1837POPC   C1B25171  34.949  26.362   8.777
 1837POPC   C2B25172  34.828  26.354   8.374
 1837POPC   C3B25173  34.571  26.512   8.059
 1837POPC   C4B25174  34.812  26.498   7.722
 1838POPC   NC325175  20.456   9.650   9.503
 1838POPC   PO425176  20.341  10.318   9.432
 1838POPC   GL125177  20.654   9.971   9.149
 1838POPC   GL225178  20.765   9.550   9.121
 1838POPC   C1A25179  20.666   9.844   8.732
 1838POPC   D2A25180  20.342  10.038   8.541
 1838POPC   C3A25181  20.376  10.057   8.104
 1838POPC   C4A25182  20.378   9.778   7.759
 1838POPC   C1B25183  20.557   9.335   8.714
 1838POPC   C2B25184  20.373   9.155   8.329
 1838POPC   C3B25185  20.588   9.359   8.001
 1838POPC   C4B25186  20.859   9.775   7.973
 1839POPC   NC325187  11.491  30.301   9.682
 1839POPC   PO425188  11.026  29.813   9.529
 1839POPC   GL125189  11.355  29.886   9.192
 1839POPC   GL225190  11.567  30.159   9.174
 1839POPC   C1A25191  11.312  30.010   8.766
 1839POPC   D2A25192  11.135  30.103   8.421
 1839POPC   C3A25193  11.299  29.905   8.086
 1839POPC   C4A25194  11.144  29.960   7.722
 1839POPC   C1B25195  11.635  30.378   8.738
 1839POPC   C2B25196  11.629  30.226   8.317
 1839POPC   C3B25197  11.464  30.331   7.879
 1839POPC   C4B25198  11.410  30.236   7.391
 1840POPC   NC325199   8.393  12.248   9.654
 1840POPC   PO425200   8.117  11.690   9.499
 1840POPC   GL125201   8.128  11.959   9.123
 1840POPC   GL225202   8.210  12.321   9.175
 1840POPC   C1A25203   8.152  11.796   8.719
 1840POPC   D2A25204   8.419  11.855   8.378
 1840POPC   C3A25205   8.242  11.762   7.983
 1840POPC   C4A25206   8.264  11.975   7.608
 1840POPC   C1B25207   8.395  12.354   8.781
 1840POPC   C2B25208   8.342  12.519   8.370
 1840POPC   C3B25209   8.300  12.337   7.970
 1840POPC   C4B25210   8.145  12.501   7.533
 1841POPC   NC325211  25.806  10.020   9.535
 1841POPC   PO425212  26.441   9.791   9.411
 1841POPC   GL125213  26.091   9.829   9.141
 1841POPC   GL225214  25.772   9.632   9.181
 1841POPC   C1A25215  26.067   9.716   8.716
 1841POPC   D2A25216  26.417   9.701   8.406
 1841POPC   C3A25217  26.365   9.574   8.008
 1841POPC   C4A25218  26.210   9.839   7.682
 1841POPC   C1B25219  25.672   9.380   8.818
 1841POPC   C2B25220  25.614   9.597   8.432
 1841POPC   C3B25221  25.879   9.743   8.100
 1841POPC   C4B25222  25.729   9.634   7.696
 1842POPC   NC325223  42.194   8.912   9.506
 1842POPC   PO425224  42.143   9.596   9.372
 1842POPC   GL125225  42.342   9.267   9.094
 1842POPC   GL225226  42.386   8.879   9.065
 1842POPC   C1A25227  42.301   9.133   8.669
 1842POPC   D2A25228  42.261   8.801   8.392
 1842POPC   C3A25229  42.278   8.984   8.009
 1842POPC   C4A25230  42.275   9.305   7.680
 1842POPC   C1B25231  42.624   8.688   8.748
 1842POPC   C2B25232  42.899   8.575   8.415
 1842POPC   C3B25233  42.742   8.674   8.030
 1842POPC   C4B25234  42.624   8.818   7.631
 1843POPC   NC325235  37.042  13.989   9.800
 1843POPC   PO425236  37.129  14.514   9.315
 1843POPC   GL125237  37.084  14.342   8.969
 1843POPC   GL225238  36.773  14.179   9.032
 1843POPC   C1A25239  37.231  14.485   8.612
 1843POPC   D2A25240  37.201  14.233   8.298
 1843POPC   C3A25241  37.145  14.451   7.951
 1843POPC   C4A25242  37.245  14.321   7.564
 1843POPC   C1B25243  36.706  14.608   8.769
 1843POPC   C2B25244  36.799  14.685   8.318
 1843POPC   C3B25245  36.638  14.488   7.924
 1843POPC   C4B25246  36.827  14.578   7.505
 1844POPC   NC325247  26.178   5.986   9.515
 1844POPC   PO425248  26.856   5.960   9.640
 1844POPC   GL125249  26.651   6.115   9.275
 1844POPC   GL225250  26.434   5.860   9.105
 1844POPC   C1A25251  26.887   6.123   8.913
 1844POPC   D2A25252  26.925   5.816   8.610
 1844POPC   C3A25253  26.980   5.917   8.202
 1844POPC   C4A25254  27.021   5.933   7.759
 1844POPC   C1B25255  26.409   6.103   8.757
 1844POPC   C2B25256  26.548   6.262   8.359
 1844POPC   C3B25257  26.579   6.137   7.956
 1844POPC   C4B25258  26.492   6.282   7.567
 1845POPC   NC325259  10.929  20.169   9.480
 1845POPC   PO425260  11.588  19.895   9.489
 1845POPC   GL125261  11.271  19.946   9.175
 1845POPC   GL225262  11.162  19.640   9.008
 1845POPC   C1A25263  11.265  20.087   8.757
 1845POPC   D2A25264  11.385  19.922   8.365
 1845POPC   C3A25265  11.293  20.102   7.968
 1845POPC   C4A25266  11.006  20.171   7.585
 1845POPC   C1B25267  11.587  19.677   8.835
 1845POPC   C2B25268  11.782  19.620   8.412
 1845POPC   C3B25269  11.611  19.646   7.971
 1845POPC   C4B25270  11.150  19.619   7.869
 1846POPC   NC325271  42.921  19.730   9.600
 1846POPC   PO425272  42.262  19.784   9.498
 1846POPC   GL125273  42.386  19.796   9.067
 1846POPC   GL225274  42.486  19.445   9.002
 1846POPC   C1A25275  42.144  19.944   8.672
 1846POPC   D2A25276  41.937  19.802   8.276
 1846POPC   C3A25277  42.154  19.935   7.920
 1846POPC   C4A25278  42.556  19.748   7.828
 1846POPC   C1B25279  42.355  19.479   8.654
 1846POPC   C2B25280  42.409  19.596   8.288
 1846POPC   C3B25281  42.181  19.426   7.965
 1846POPC   C4B25282  42.478  19.249   7.691
 1847POPC   NC325283  37.964  30.593   9.468
 1847POPC   PO425284  38.628  30.858   9.510
 1847POPC   GL125285  38.590  30.654   9.132
 1847POPC   GL225286  38.551  30.284   9.233
 1847POPC   C1A25287  38.288  30.890   8.853
 1847POPC   D2A25288  38.077  31.119   8.500
 1847POPC   C3A25289  38.240  30.991   8.075
 1847POPC   C4A25290  38.483  30.765   7.733
 1847POPC   C1B25291  38.262  30.364   8.880
 1847POPC   C2B25292  38.201  30.548   8.489
 1847POPC   C3B25293  38.150  30.481   8.099
 1847POPC   C4B25294  38.331  30.258   7.798
 1848POPC   NC325295  20.117  20.861   9.472
 1848POPC   PO425296  19.611  20.397   9.409
 1848POPC   GL125297  19.900  20.503   9.092
 1848POPC   GL225298  19.820  20.857   9.046
 1848POPC   C1A25299  19.767  20.533   8.661
 1848POPC   D2A25300  19.729  20.765   8.291
 1848POPC   C3A25301  19.904  20.453   8.044
 1848POPC   C4A25302  19.775  20.299   7.650
 1848POPC   C1B25303  20.014  21.008   8.672
 1848POPC   C2B25304  20.258  20.835   8.306
 1848POPC   C3B25305  20.112  20.902   7.880
 1848POPC   C4B25306  19.711  20.816   7.751
 1849POPC   NC325307  31.151  37.846   9.496
 1849POPC   PO425308  31.426  37.265   9.319
 1849POPC   GL125309  31.462  37.692   9.124
 1849POPC   GL225310  31.220  37.989   9.016
 1849POPC   C1A25311  31.584  37.842   8.729
 1849POPC   D2A25312  31.579  38.088   8.357
 1849POPC   C3A25313  31.599  37.795   8.042
 1849POPC   C4A25314  31.655  37.763   7.641
 1849POPC   C1B25315  31.141  37.572   8.746
 1849POPC   C2B25316  31.309  37.341   8.368
 1849POPC   C3B25317  31.189  37.459   7.940
 1849POPC   C4B25318  31.112  37.838   7.687
 1850POPC   NC325319   6.595  43.407   9.651
 1850POPC   PO425320   7.015  42.993   9.646
 1850POPC   GL125321   6.798  43.186   9.215
 1850POPC   GL225322   6.463  43.407   9.149
 1850POPC   C1A25323   6.792  43.078   8.758
 1850POPC   D2A25324   6.946  43.008   8.325
 1850POPC   C3A25325   6.747  43.114   7.979
 1850POPC   C4A25326   6.755  43.025   7.536
 1850POPC   C1B25327   6.257  43.374   8.726
 1850POPC   C2B25328   6.401  43.385   8.303
 1850POPC   C3B25329   6.445  43.495   7.866
 1850POPC   C4B25330   6.286  43.074   7.754
 1851POPC   NC325331  30.968  31.159   9.496
 1851POPC   PO425332  30.913  31.806   9.365
 1851POPC   GL125333  30.602  31.586   9.070
 1851POPC   GL225334  30.590  31.227   9.124
 1851POPC   C1A25335  30.313  31.423   8.752
 1851POPC   D2A25336  30.331  31.456   8.331
 1851POPC   C3A25337  30.725  31.590   8.214
 1851POPC   C4A25338  30.751  31.695   7.793
 1851POPC   C1B25339  30.813  31.247   8.695
 1851POPC   C2B25340  31.112  31.251   8.345
 1851POPC   C3B25341  30.898  31.176   7.944
 1851POPC   C4B25342  30.453  31.252   7.862
 1852POPC   NC325343  10.719  14.600   9.417
 1852POPC   PO425344  10.288  14.164   9.466
 1852POPC   GL125345  10.487  14.302   9.075
 1852POPC   GL225346  10.287  14.587   9.125
 1852POPC   C1A25347  10.632  14.561   8.675
 1852POPC   D2A25348  10.896  14.539   8.239
 1852POPC   C3A25349  10.733  14.249   7.887
 1852POPC   C4A25350  10.434  14.114   7.556
 1852POPC   C1B25351  10.108  14.786   8.799
 1852POPC   C2B25352  10.143  14.643   8.451
 1852POPC   C3B25353  10.395  14.534   8.182
 1852POPC   C4B25354  10.348  14.570   7.771
 1853POPC   NC325355  40.570   9.007   9.555
 1853POPC   PO425356  40.969   8.445   9.630
 1853POPC   GL125357  40.979   8.699   9.205
 1853POPC   GL225358  40.753   8.948   9.099
 1853POPC   C1A25359  40.942   8.658   8.754
 1853POPC   D2A25360  40.688   8.808   8.413
 1853POPC   C3A25361  40.868   8.908   8.027
 1853POPC   C4A25362  41.101   8.659   7.747
 1853POPC   C1B25363  40.882   9.176   8.721
 1853POPC   C2B25364  41.127   9.293   8.370
 1853POPC   C3B25365  41.039   9.388   7.957
 1853POPC   C4B25366  40.974   9.218   7.521
 1854POPC   NC325367  32.758  14.920   9.256
 1854POPC   PO425368  32.191  15.128   9.600
 1854POPC   GL125369  32.287  15.104   9.137
 1854POPC   GL225370  32.570  15.339   9.039
 1854POPC   C1A25371  32.257  15.145   8.675
 1854POPC   D2A25372  32.287  15.437   8.328
 1854POPC   C3A25373  32.205  15.194   7.969
 1854POPC   C4A25374  31.953  14.789   7.884
 1854POPC   C1B25375  32.633  15.642   8.692
 1854POPC   C2B25376  32.739  15.681   8.244
 1854POPC   C3B25377  32.489  15.654   7.853
 1854POPC   C4B25378  32.595  15.739   7.380
 1855POPC   NC325379  25.707   9.299   9.588
 1855POPC   PO425380  25.090   9.152   9.473
 1855POPC   GL125381  25.417   8.988   9.182
 1855POPC   GL225382  25.102   8.843   9.028
 1855POPC   C1A25383  25.537   8.702   8.810
 1855POPC   D2A25384  25.224   8.639   8.483
 1855POPC   C3A25385  25.242   8.657   8.021
 1855POPC   C4A25386  25.464   8.913   7.736
 1855POPC   C1B25387  25.225   9.113   8.701
 1855POPC   C2B25388  25.485   9.100   8.346
 1855POPC   C3B25389  25.425   9.356   7.994
 1855POPC   C4B25390  25.270   9.360   7.574
 1856POPC   NC325391  20.871  29.443   9.464
 1856POPC   PO425392  20.535  30.118   9.396
 1856POPC   GL125393  20.682  29.945   9.041
 1856POPC   GL225394  20.749  29.611   9.004
 1856POPC   C1A25395  20.506  29.918   8.636
 1856POPC   D2A25396  20.363  29.963   8.232
 1856POPC   C3A25397  20.681  30.145   8.006
 1856POPC   C4A25398  20.891  30.153   7.641
 1856POPC   C1B25399  20.355  29.460   8.836
 1856POPC   C2B25400  20.384  29.464   8.385
 1856POPC   C3B25401  20.695  29.604   8.060
 1856POPC   C4B25402  20.460  29.741   7.726
 1857POPC   NC325403  23.249   9.538   9.615
 1857POPC   PO425404  23.902   9.684   9.551
 1857POPC   GL125405  23.625   9.568   9.214
 1857POPC   GL225406  23.847   9.407   9.020
 1857POPC   C1A25407  23.441   9.629   8.764
 1857POPC   D2A25408  23.623   9.480   8.368
 1857POPC   C3A25409  23.602   9.734   8.022
 1857POPC   C4A25410  23.407   9.663   7.637
 1857POPC   C1B25411  23.957   9.658   8.697
 1857POPC   C2B25412  24.105   9.743   8.312
 1857POPC   C3B25413  24.029   9.408   8.044
 1857POPC   C4B25414  24.113   9.311   7.616
 1858POPC   NC325415   7.013   1.129   9.465
 1858POPC   PO425416   7.741   1.198   9.491
 1858POPC   GL125417   7.590   1.113   9.115
 1858POPC   GL225418   7.306   1.298   9.083
 1858POPC   C1A25419   7.596   0.963   8.696
 1858POPC   D2A25420   7.437   0.835   8.280
 1858POPC   C3A25421   7.683   0.939   7.931
 1858POPC   C4A25422   7.602   1.036   7.480
 1858POPC   C1B25423   7.102   1.125   8.743
 1858POPC   C2B25424   7.032   1.154   8.313
 1858POPC   C3B25425   7.284   1.330   7.999
 1858POPC   C4B25426   7.289   1.430   7.571
 1859POPC   NC325427   6.982  38.291   9.425
 1859POPC   PO425428   6.540  38.660   9.695
 1859POPC   GL125429   6.506  38.545   9.211
 1859POPC   GL225430   6.353  38.860   9.064
 1859POPC   C1A25431   6.703  38.295   8.845
 1859POPC   D2A25432   6.807  38.305   8.415
 1859POPC   C3A25433   6.482  38.145   8.145
 1859POPC   C4A25434   6.400  38.221   7.701
 1859POPC   C1B25435   6.490  38.721   8.701
 1859POPC   C2B25436   6.465  38.669   8.311
 1859POPC   C3B25437   6.690  38.619   7.981
 1859POPC   C4B25438   6.424  38.749   7.656
 1860POPC   NC325439  28.171   6.043   9.498
 1860POPC   PO425440  28.747   5.523   9.599
 1860POPC   GL125441  28.502   5.726   9.289
 1860POPC   GL225442  28.335   5.522   9.088
 1860POPC   C1A25443  28.522   6.005   8.904
 1860POPC   D2A25444  28.588   5.805   8.481
 1860POPC   C3A25445  28.680   5.955   8.058
 1860POPC   C4A25446  28.288   5.871   7.805
 1860POPC   C1B25447  28.068   5.766   8.836
 1860POPC   C2B25448  28.026   5.730   8.403
 1860POPC   C3B25449  27.846   5.688   8.017
 1860POPC   C4B25450  27.945   5.515   7.606
 1861POPC   NC325451  37.344  26.676   9.568
 1861POPC   PO425452  37.982  27.031   9.497
 1861POPC   GL125453  37.939  26.988   9.063
 1861POPC   GL225454  38.115  26.695   9.101
 1861POPC   C1A25455  37.694  26.974   8.656
 1861POPC   D2A25456  37.856  26.866   8.230
 1861POPC   C3A25457  37.610  26.861   7.871
 1861POPC   C4A25458  37.752  26.889   7.433
 1861POPC   C1B25459  37.924  26.531   8.722
 1861POPC   C2B25460  37.965  26.365   8.312
 1861POPC   C3B25461  38.006  26.445   7.862
 1861POPC   C4B25462  38.023  26.455   7.387
 1862POPC   NC325463   9.591  19.368   9.397
 1862POPC   PO425464   9.079  19.747   9.681
 1862POPC   GL125465   9.213  19.752   9.220
 1862POPC   GL225466   9.052  20.083   9.037
 1862POPC   C1A25467   9.139  19.563   8.795
 1862POPC   D2A25468   8.949  19.665   8.379
 1862POPC   C3A25469   9.227  19.642   8.029
 1862POPC   C4A25470   9.151  19.564   7.597
 1862POPC   C1B25471   8.677  20.161   8.710
 1862POPC   C2B25472   8.594  20.062   8.254
 1862POPC   C3B25473   8.899  20.012   7.898
 1862POPC   C4B25474   9.031  20.055   7.471
 1863POPC   NC325475  26.104  24.105   9.496
 1863POPC   PO425476  25.909  24.727   9.672
 1863POPC   GL125477  26.092  24.627   9.244
 1863POPC   GL225478  25.926  24.319   9.077
 1863POPC   C1A25479  26.105  24.691   8.783
 1863POPC   D2A25480  25.978  24.427   8.433
 1863POPC   C3A25481  26.192  24.540   8.068
 1863POPC   C4A25482  26.142  24.695   7.666
 1863POPC   C1B25483  26.320  24.232   8.820
 1863POPC   C2B25484  26.290  23.998   8.454
 1863POPC   C3B25485  26.079  24.040   8.081
 1863POPC   C4B25486  25.932  24.237   7.715
 1864POPC   NC325487  18.956  22.306   9.610
 1864POPC   PO425488  18.584  21.909   9.318
 1864POPC   GL125489  18.766  22.232   9.130
 1864POPC   GL225490  19.131  22.199   9.124
 1864POPC   C1A25491  18.811  22.277   8.721
 1864POPC   D2A25492  18.932  22.139   8.316
 1864POPC   C3A25493  18.698  22.245   7.972
 1864POPC   C4A25494  18.976  22.156   7.654
 1864POPC   C1B25495  19.294  22.463   8.785
 1864POPC   C2B25496  19.410  22.338   8.370
 1864POPC   C3B25497  19.494  22.466   7.936
 1864POPC   C4B25498  19.403  22.365   7.481
 1865POPC   NC325499  13.044  31.580   9.564
 1865POPC   PO425500  12.333  31.697   9.508
 1865POPC   GL125501  12.669  31.739   9.235
 1865POPC   GL225502  12.804  31.391   9.156
 1865POPC   C1A25503  12.728  31.765   8.790
 1865POPC   D2A25504  12.712  31.427   8.476
 1865POPC   C3A25505  12.913  31.516   8.117
 1865POPC   C4A25506  12.856  31.621   7.728
 1865POPC   C1B25507  12.681  31.071   8.874
 1865POPC   C2B25508  12.674  30.897   8.469
 1865POPC   C3B25509  12.731  31.023   8.082
 1865POPC   C4B25510  12.947  31.108   7.760
 1866POPC   NC325511   0.515  27.925   9.562
 1866POPC   PO425512   0.454  28.541   9.461
 1866POPC   GL125513   0.573  28.238   9.158
 1866POPC   GL225514   0.945  28.149   9.168
 1866POPC   C1A25515   0.419  28.323   8.743
 1866POPC   D2A25516   0.163  28.491   8.430
 1866POPC   C3A25517   0.403  28.594   8.077
 1866POPC   C4A25518   0.250  28.751   7.720
 1866POPC   C1B25519   0.926  28.406   8.824
 1866POPC   C2B25520   0.787  28.551   8.437
 1866POPC   C3B25521   0.908  28.489   8.022
 1866POPC   C4B25522   0.672  28.354   7.680
 1867POPC   NC325523  10.191  10.409   9.615
 1867POPC   PO425524  10.736  10.868   9.556
 1867POPC   GL125525  10.579  10.710   9.167
 1867POPC   GL225526  10.368  10.428   9.137
 1867POPC   C1A25527  10.755  10.496   8.825
 1867POPC   D2A25528  10.974  10.496   8.462
 1867POPC   C3A25529  10.800  10.411   8.053
 1867POPC   C4A25530  10.550  10.540   7.725
 1867POPC   C1B25531  10.206  10.680   8.766
 1867POPC   C2B25532   9.936  10.722   8.375
 1867POPC   C3B25533  10.058  10.515   7.962
 1867POPC   C4B25534  10.160  10.254   7.587
 1868POPC   NC325535  18.133   4.545   9.686
 1868POPC   PO425536  18.013   5.148   9.524
 1868POPC   GL125537  18.215   5.065   9.163
 1868POPC   GL225538  18.348   5.387   9.066
 1868POPC   C1A25539  18.266   5.045   8.725
 1868POPC   D2A25540  18.505   5.296   8.492
 1868POPC   C3A25541  18.533   5.092   8.121
 1868POPC   C4A25542  18.402   5.090   7.700
 1868POPC   C1B25543  17.956   5.434   8.908
 1868POPC   C2B25544  17.931   5.379   8.495
 1868POPC   C3B25545  18.148   5.563   8.188
 1868POPC   C4B25546  18.146   5.513   7.774
 1869POPC   NC325547  11.321   5.573   9.467
 1869POPC   PO425548  11.716   6.062   9.740
 1869POPC   GL125549  11.423   6.057   9.362
 1869POPC   GL225550  11.686   5.908   9.192
 1869POPC   C1A25551  11.242   5.974   8.892
 1869POPC   D2A25552  11.097   5.660   8.537
 1869POPC   C3A25553  11.023   5.723   8.076
 1869POPC   C4A25554  11.138   5.889   7.659
 1869POPC   C1B25555  11.738   5.988   8.755
 1869POPC   C2B25556  11.462   6.034   8.408
 1869POPC   C3B25557  11.503   5.951   8.010
 1869POPC   C4B25558  11.605   6.111   7.610
 1870POPC   NC325559  20.321  32.090   9.967
 1870POPC   PO425560  19.812  31.634   9.749
 1870POPC   GL125561  19.834  31.524   9.276
 1870POPC   GL225562  19.644  31.229   9.240
 1870POPC   C1A25563  19.821  31.579   8.793
 1870POPC   D2A25564  19.658  31.771   8.367
 1870POPC   C3A25565  19.867  31.797   7.950
 1870POPC   C4A25566  20.143  31.496   7.776
 1870POPC   C1B25567  19.618  31.070   8.811
 1870POPC   C2B25568  19.495  31.263   8.415
 1870POPC   C3B25569  19.673  31.277   7.991
 1870POPC   C4B25570  19.583  31.494   7.603
 1871POPC   NC325571  27.284  23.207   9.313
 1871POPC   PO425572  26.754  22.786   9.438
 1871POPC   GL125573  26.722  23.130   9.148
 1871POPC   GL225574  26.980  22.998   8.965
 1871POPC   C1A25575  26.595  23.204   8.713
 1871POPC   D2A25576  26.873  23.004   8.395
 1871POPC   C3A25577  26.674  23.086   8.005
 1871POPC   C4A25578  26.888  23.054   7.633
 1871POPC   C1B25579  26.685  22.704   8.770
 1871POPC   C2B25580  26.763  22.510   8.373
 1871POPC   C3B25581  26.896  22.635   7.971
 1871POPC   C4B25582  26.612  22.641   7.663
 1872POPC   NC325583  37.330  10.611   9.560
 1872POPC   PO425584  38.005  10.375   9.438
 1872POPC   GL125585  37.680  10.504   9.199
 1872POPC   GL225586  37.465  10.252   9.181
 1872POPC   C1A25587  37.620  10.637   8.789
 1872POPC   D2A25588  37.864  10.698   8.433
 1872POPC   C3A25589  37.680  10.549   8.067
 1872POPC   C4A25590  37.870  10.429   7.690
 1872POPC   C1B25591  37.266  10.262   8.830
 1872POPC   C2B25592  37.304  10.405   8.430
 1872POPC   C3B25593  37.317  10.193   8.058
 1872POPC   C4B25594  37.289  10.424   7.689
 1873POPC   NC325595   2.552   8.732   9.280
 1873POPC   PO425596   2.620   8.141   9.668
 1873POPC   GL125597   2.507   8.209   9.179
 1873POPC   GL225598   2.621   8.465   8.879
 1873POPC   C1A25599   2.480   8.008   8.751
 1873POPC   D2A25600   2.676   7.929   8.312
 1873POPC   C3A25601   2.536   8.101   7.892
 1873POPC   C4A25602   2.589   8.483   7.611
 1873POPC   C1B25603   2.939   8.234   8.662
 1873POPC   C2B25604   3.114   8.373   8.271
 1873POPC   C3B25605   3.048   8.469   7.873
 1873POPC   C4B25606   3.026   8.206   7.528
 1874POPC   NC325607  38.031  22.373   9.375
 1874POPC   PO425608  37.361  22.258   9.498
 1874POPC   GL125609  37.566  22.379   9.141
 1874POPC   GL225610  37.297  22.569   9.029
 1874POPC   C1A25611  37.796  22.187   8.786
 1874POPC   D2A25612  37.983  22.294   8.420
 1874POPC   C3A25613  37.905  22.057   8.060
 1874POPC   C4A25614  37.824  22.170   7.659
 1874POPC   C1B25615  37.280  22.177   8.763
 1874POPC   C2B25616  37.441  22.072   8.348
 1874POPC   C3B25617  37.412  22.256   7.922
 1874POPC   C4B25618  37.560  22.643   7.694
 1875POPC   NC325619  25.556  36.500   9.528
 1875POPC   PO425620  25.073  36.986   9.514
 1875POPC   GL125621  25.312  36.890   9.184
 1875POPC   GL225622  25.558  37.109   9.069
 1875POPC   C1A25623  25.144  37.039   8.777
 1875POPC   D2A25624  25.328  37.139   8.397
 1875POPC   C3A25625  25.078  37.037   8.073
 1875POPC   C4A25626  25.142  37.100   7.624
 1875POPC   C1B25627  25.602  36.800   8.755
 1875POPC   C2B25628  25.693  36.763   8.312
 1875POPC   C3B25629  25.535  36.881   7.910
 1875POPC   C4B25630  25.531  36.794   7.475
 1876POPC   NC325631  12.050  42.192   9.499
 1876POPC   PO425632  12.575  41.759   9.522
 1876POPC   GL125633  12.386  42.027   9.149
 1876POPC   GL225634  12.333  42.378   9.095
 1876POPC   C1A25635  12.120  42.065   8.777
 1876POPC   D2A25636  11.813  41.895   8.525
 1876POPC   C3A25637  11.956  42.032   8.131
 1876POPC   C4A25638  12.242  42.190   7.839
 1876POPC   C1B25639  12.163  42.646   8.778
 1876POPC   C2B25640  11.964  42.808   8.405
 1876POPC   C3B25641  11.949  42.628   8.008
 1876POPC   C4B25642  11.957  42.774   7.575
 1877POPC   NC325643  24.253   2.446   9.387
 1877POPC   PO425644  24.615   2.941   9.590
 1877POPC   GL125645  24.490   2.871   9.163
 1877POPC   GL225646  24.166   2.933   9.129
 1877POPC   C1A25647  24.469   2.993   8.722
 1877POPC   D2A25648  24.774   2.841   8.456
 1877POPC   C3A25649  24.614   2.742   8.080
 1877POPC   C4A25650  24.220   2.789   7.880
 1877POPC   C1B25651  24.151   2.609   8.771
 1877POPC   C2B25652  24.079   2.508   8.327
 1877POPC   C3B25653  24.081   2.293   7.939
 1877POPC   C4B25654  24.067   2.435   7.497
 1878POPC   NC325655  30.382  15.807   9.475
 1878POPC   PO425656  30.850  16.265   9.276
 1878POPC   GL125657  30.467  16.217   9.063
 1878POPC   GL225658  30.248  15.947   9.020
 1878POPC   C1A25659  30.468  16.227   8.634
 1878POPC   D2A25660  30.707  16.315   8.294
 1878POPC   C3A25661  30.482  16.174   7.952
 1878POPC   C4A25662  30.697  16.007   7.596
 1878POPC   C1B25663  30.553  15.730   8.778
 1878POPC   C2B25664  30.566  15.798   8.354
 1878POPC   C3B25665  30.552  15.667   7.967
 1878POPC   C4B25666  30.247  15.776   7.650
 1879POPC   NC325667  12.418   5.208   9.535
 1879POPC   PO425668  13.100   5.309   9.561
 1879POPC   GL125669  12.829   5.159   9.208
 1879POPC   GL225670  12.557   5.388   9.093
 1879POPC   C1A25671  12.733   4.915   8.815
 1879POPC   D2A25672  12.809   4.692   8.415
 1879POPC   C3A25673  12.968   4.863   8.025
 1879POPC   C4A25674  12.812   4.798   7.620
 1879POPC   C1B25675  12.874   5.395   8.774
 1879POPC   C2B25676  12.843   5.230   8.387
 1879POPC   C3B25677  12.821   5.367   7.990
 1879POPC   C4B25678  13.119   5.244   7.666
 1880POPC   NC325679  20.697  36.856   9.399
 1880POPC   PO425680  20.323  36.409   9.187
 1880POPC   GL125681  20.411  36.771   8.953
 1880POPC   GL225682  20.449  37.149   9.055
 1880POPC   C1A25683  20.659  36.722   8.559
 1880POPC   D2A25684  20.569  36.880   8.143
 1880POPC   C3A25685  20.866  36.866   7.771
 1880POPC   C4A25686  20.807  36.740   7.315
 1880POPC   C1B25687  20.378  37.154   8.618
 1880POPC   C2B25688  20.495  37.366   8.301
 1880POPC   C3B25689  20.695  37.318   7.932
 1880POPC   C4B25690  20.310  37.215   7.807
 1881POPC   NC325691  29.358  38.761   9.431
 1881POPC   PO425692  30.021  38.693   9.323
 1881POPC   GL125693  29.891  38.328   9.142
 1881POPC   GL225694  29.533  38.370   9.137
 1881POPC   C1A25695  30.028  38.231   8.744
 1881POPC   D2A25696  29.972  38.442   8.361
 1881POPC   C3A25697  30.081  38.218   7.983
 1881POPC   C4A25698  30.136  38.311   7.524
 1881POPC   C1B25699  29.635  38.623   8.784
 1881POPC   C2B25700  29.499  38.684   8.369
 1881POPC   C3B25701  29.701  38.680   7.987
 1881POPC   C4B25702  29.758  38.669   7.580
 1882POPC   NC325703  41.004  36.587   9.492
 1882POPC   PO425704  41.484  37.068   9.613
 1882POPC   GL125705  41.412  37.053   9.194
 1882POPC   GL225706  41.386  36.734   9.165
 1882POPC   C1A25707  41.426  37.235   8.795
 1882POPC   D2A25708  41.617  37.002   8.483
 1882POPC   C3A25709  41.646  37.120   8.069
 1882POPC   C4A25710  41.498  36.853   7.767
 1882POPC   C1B25711  41.746  36.700   8.880
 1882POPC   C2B25712  41.834  36.535   8.459
 1882POPC   C3B25713  41.794  36.542   8.028
 1882POPC   C4B25714  41.756  36.444   7.589
 1883POPC   NC325715  26.133   4.415   9.598
 1883POPC   PO425716  25.995   3.780   9.545
 1883POPC   GL125717  25.875   4.077   9.197
 1883POPC   GL225718  26.180   4.248   9.133
 1883POPC   C1A25719  25.953   4.067   8.721
 1883POPC   D2A25720  25.683   4.166   8.363
 1883POPC   C3A25721  25.881   4.388   8.003
 1883POPC   C4A25722  26.335   4.246   7.996
 1883POPC   C1B25723  26.311   4.472   8.785
 1883POPC   C2B25724  26.063   4.602   8.437
 1883POPC   C3B25725  26.247   4.770   8.055
 1883POPC   C4B25726  26.304   4.583   7.630
 1884POPC   NC325727  12.002   5.700   9.742
 1884POPC   PO425728  11.990   5.024   9.683
 1884POPC   GL125729  12.073   5.039   9.208
 1884POPC   GL225730  11.800   5.136   9.031
 1884POPC   C1A25731  12.230   5.083   8.752
 1884POPC   D2A25732  12.295   4.826   8.353
 1884POPC   C3A25733  12.443   5.006   7.959
 1884POPC   C4A25734  12.260   4.923   7.539
 1884POPC   C1B25735  11.632   5.065   8.688
 1884POPC   C2B25736  11.822   5.075   8.341
 1884POPC   C3B25737  11.989   5.245   8.025
 1884POPC   C4B25738  11.777   5.165   7.695
 1885POPC   NC325739  36.556  31.787   9.536
 1885POPC   PO425740  36.064  31.390   9.627
 1885POPC   GL125741  36.133  31.629   9.274
 1885POPC   GL225742  36.392  31.390   9.228
 1885POPC   C1A25743  35.961  31.651   8.868
 1885POPC   D2A25744  36.062  31.539   8.447
 1885POPC   C3A25745  35.876  31.490   8.065
 1885POPC   C4A25746  36.065  31.494   7.673
 1885POPC   C1B25747  36.474  31.619   8.854
 1885POPC   C2B25748  36.573  31.459   8.467
 1885POPC   C3B25749  36.444  31.435   8.059
 1885POPC   C4B25750  36.551  31.674   7.713
 1886POPC   NC325751  16.368  30.083   9.654
 1886POPC   PO425752  16.826  29.639   9.554
 1886POPC   GL125753  16.857  29.830   9.181
 1886POPC   GL225754  16.557  30.030   9.162
 1886POPC   C1A25755  16.750  29.714   8.770
 1886POPC   D2A25756  16.592  29.853   8.380
 1886POPC   C3A25757  16.754  29.698   7.994
 1886POPC   C4A25758  16.883  29.881   7.615
 1886POPC   C1B25759  16.500  30.239   8.745
 1886POPC   C2B25760  16.396  30.317   8.283
 1886POPC   C3B25761  16.482  30.136   7.829
 1886POPC   C4B25762  16.402  29.859   7.430
 1887POPC   NC325763  11.311  19.503   9.480
 1887POPC   PO425764  11.025  18.884   9.462
 1887POPC   GL125765  11.111  19.136   9.132
 1887POPC   GL225766  11.469  19.147   9.107
 1887POPC   C1A25767  10.910  19.043   8.745
 1887POPC   D2A25768  11.118  18.898   8.375
 1887POPC   C3A25769  10.913  18.890   7.972
 1887POPC   C4A25770  11.201  18.896   7.623
 1887POPC   C1B25771  11.363  19.252   8.703
 1887POPC   C2B25772  11.315  19.416   8.338
 1887POPC   C3B25773  11.368  19.182   7.998
 1887POPC   C4B25774  11.688  18.935   7.846
 1888POPC   NC325775  39.300   2.887   9.592
 1888POPC   PO425776  38.736   2.402   9.675
 1888POPC   GL125777  38.911   2.396   9.191
 1888POPC   GL225778  39.211   2.655   9.094
 1888POPC   C1A25779  38.913   2.490   8.729
 1888POPC   D2A25780  39.205   2.506   8.372
 1888POPC   C3A25781  38.901   2.465   8.023
 1888POPC   C4A25782  38.866   2.648   7.609
 1888POPC   C1B25783  39.093   2.971   8.719
 1888POPC   C2B25784  38.979   2.941   8.242
 1888POPC   C3B25785  39.277   2.807   7.896
 1888POPC   C4B25786  39.529   3.050   7.578
 1889POPC   NC325787  39.280  36.533   9.411
 1889POPC   PO425788  39.085  35.954   9.635
 1889POPC   GL125789  39.331  35.998   9.243
 1889POPC   GL225790  39.045  36.147   9.088
 1889POPC   C1A25791  39.428  35.915   8.784
 1889POPC   D2A25792  39.518  36.217   8.422
 1889POPC   C3A25793  39.169  36.205   8.131
 1889POPC   C4A25794  39.146  36.056   7.697
 1889POPC   C1B25795  39.046  36.234   8.640
 1889POPC   C2B25796  38.885  36.576   8.367
 1889POPC   C3B25797  38.897  36.604   7.907
 1889POPC   C4B25798  39.138  36.565   7.547
 1890POPC   NC325799  10.192  44.004   9.533
 1890POPC   PO425800  10.820  44.038   9.439
 1890POPC   GL125801  10.513  43.935   9.133
 1890POPC   GL225802  10.277  43.641   9.188
 1890POPC   C1A25803  10.631  44.006   8.725
 1890POPC   D2A25804  11.010  44.035   8.469
 1890POPC   C3A25805  10.862  43.950   8.061
 1890POPC   C4A25806  10.500  44.122   7.825
 1890POPC   C1B25807  10.092  43.850   8.851
 1890POPC   C2B25808  10.248  43.785   8.464
 1890POPC   C3B25809  10.110  43.928   8.102
 1890POPC   C4B25810  10.087  43.791   7.708
 1891POPC   NC325811  15.451  19.063   9.585
 1891POPC   PO425812  14.843  19.023   9.533
 1891POPC   GL125813  15.137  18.972   9.185
 1891POPC   GL225814  14.988  19.289   9.059
 1891POPC   C1A25815  15.359  19.120   8.769
 1891POPC   D2A25816  15.208  19.111   8.364
 1891POPC   C3A25817  15.201  19.368   8.044
 1891POPC   C4A25818  15.279  19.119   7.710
 1891POPC   C1B25819  14.892  18.948   8.743
 1891POPC   C2B25820  14.953  18.678   8.383
 1891POPC   C3B25821  14.888  18.861   7.976
 1891POPC   C4B25822  14.980  18.740   7.550
 1892POPC   NC325823  33.949  35.553   9.478
 1892POPC   PO425824  33.411  35.155   9.567
 1892POPC   GL125825  33.433  35.228   9.125
 1892POPC   GL225826  33.794  35.270   9.072
 1892POPC   C1A25827  33.518  35.295   8.647
 1892POPC   D2A25828  33.961  35.394   8.528
 1892POPC   C3A25829  34.040  35.449   8.090
 1892POPC   C4A25830  33.654  35.601   7.868
 1892POPC   C1B25831  33.872  34.928   8.788
 1892POPC   C2B25832  33.918  34.908   8.336
 1892POPC   C3B25833  33.726  35.080   7.942
 1892POPC   C4B25834  33.952  35.254   7.618
 1893POPC   NC325835  26.133  21.558   9.644
 1893POPC   PO425836  26.545  21.826   9.253
 1893POPC   GL125837  26.262  21.531   9.096
 1893POPC   GL225838  26.066  21.261   9.222
 1893POPC   C1A25839  26.167  21.307   8.701
 1893POPC   D2A25840  26.337  21.523   8.362
 1893POPC   C3A25841  26.284  21.417   7.945
 1893POPC   C4A25842  26.508  21.644   7.629
 1893POPC   C1B25843  25.791  21.549   8.925
 1893POPC   C2B25844  25.688  21.499   8.509
 1893POPC   C3B25845  25.580  21.655   8.112
 1893POPC   C4B25846  25.838  21.655   7.741
 1894POPC   NC325847  35.460  24.674   9.478
 1894POPC   PO425848  35.286  25.346   9.384
 1894POPC   GL125849  35.454  25.353   9.027
 1894POPC   GL225850  35.618  25.036   9.090
 1894POPC   C1A25851  35.303  25.268   8.604
 1894POPC   D2A25852  35.114  24.903   8.399
 1894POPC   C3A25853  35.199  24.982   7.967
 1894POPC   C4A25854  35.326  25.457   7.963
 1894POPC   C1B25855  35.665  24.921   8.650
 1894POPC   C2B25856  35.628  25.120   8.240
 1894POPC   C3B25857  35.664  25.131   7.779
 1894POPC   C4B25858  35.768  24.978   7.370
 1895POPC   NC325859  18.581   3.765   9.752
 1895POPC   PO425860  18.016   3.476   9.439
 1895POPC   GL125861  18.273   3.502   9.093
 1895POPC   GL225862  18.584   3.566   9.239
 1895POPC   C1A25863  18.242   3.515   8.654
 1895POPC   D2A25864  18.151   3.737   8.296
 1895POPC   C3A25865  18.135   3.589   7.856
 1895POPC   C4A25866  17.976   3.631   7.425
 1895POPC   C1B25867  18.694   3.676   8.831
 1895POPC   C2B25868  18.710   3.482   8.433
 1895POPC   C3B25869  18.605   3.575   8.029
 1895POPC   C4B25870  18.523   3.277   7.686
 1896POPC   NC325871  40.467  30.852   9.849
 1896POPC   PO425872  41.098  30.692   9.567
 1896POPC   GL125873  40.862  30.691   9.191
 1896POPC   GL225874  41.187  30.651   8.980
 1896POPC   C1A25875  40.727  30.528   8.784
 1896POPC   D2A25876  40.983  30.502   8.403
 1896POPC   C3A25877  40.741  30.303   8.071
 1896POPC   C4A25878  40.404  30.559   7.931
 1896POPC   C1B25879  40.934  30.999   8.789
 1896POPC   C2B25880  40.811  31.120   8.387
 1896POPC   C3B25881  41.004  31.061   8.040
 1896POPC   C4B25882  40.954  30.710   7.830
 1897POPC   NC325883  39.814   5.359   9.668
 1897POPC   PO425884  39.943   4.744   9.718
 1897POPC   GL125885  40.000   5.041   9.287
 1897POPC   GL225886  39.944   5.409   9.150
 1897POPC   C1A25887  39.932   4.985   8.813
 1897POPC   D2A25888  39.822   5.064   8.365
 1897POPC   C3A25889  40.199   5.119   8.082
 1897POPC   C4A25890  40.239   5.099   7.618
 1897POPC   C1B25891  40.165   5.449   8.714
 1897POPC   C2B25892  40.162   5.619   8.262
 1897POPC   C3B25893  40.299   5.565   7.810
 1897POPC   C4B25894  40.052   5.536   7.423
 1898POPC   NC325895   5.991  29.789   9.465
 1898POPC   PO425896   5.341  29.930   9.569
 1898POPC   GL125897   5.552  29.688   9.216
 1898POPC   GL225898   5.647  30.032   9.133
 1898POPC   C1A25899   5.818  29.701   8.807
 1898POPC   D2A25900   5.909  30.024   8.473
 1898POPC   C3A25901   5.998  29.836   8.057
 1898POPC   C4A25902   5.753  29.501   7.852
 1898POPC   C1B25903   5.453  30.095   8.750
 1898POPC   C2B25904   5.400  30.193   8.361
 1898POPC   C3B25905   5.491  29.924   8.029
 1898POPC   C4B25906   5.373  29.867   7.617
 1899POPC   NC325907  38.117  16.929   9.440
 1899POPC   PO425908  38.690  16.450   9.545
 1899POPC   GL125909  38.452  16.591   9.217
 1899POPC   GL225910  38.143  16.476   9.164
 1899POPC   C1A25911  38.514  16.756   8.833
 1899POPC   D2A25912  38.705  16.572   8.487
 1899POPC   C3A25913  38.607  16.724   8.092
 1899POPC   C4A25914  38.542  16.914   7.713
 1899POPC   C1B25915  38.010  16.715   8.795
 1899POPC   C2B25916  38.183  16.631   8.392
 1899POPC   C3B25917  38.102  16.624   7.967
 1899POPC   C4B25918  38.129  16.727   7.505
 1900POPC   NC325919  20.089  39.256   9.887
 1900POPC   PO425920  20.683  39.458   9.602
 1900POPC   GL125921  20.518  39.236   9.225
 1900POPC   GL225922  20.262  38.963   9.250
 1900POPC   C1A25923  20.639  39.195   8.786
 1900POPC   D2A25924  20.903  39.173   8.397
 1900POPC   C3A25925  20.699  39.292   8.055
 1900POPC   C4A25926  20.593  39.419   7.621
 1900POPC   C1B25927  20.337  38.780   8.839
 1900POPC   C2B25928  20.546  38.824   8.441
 1900POPC   C3B25929  20.354  38.898   8.067
 1900POPC   C4B25930  20.152  38.996   7.686
 1901POPC   NC325931  35.707   4.426   9.474
 1901POPC   PO425932  35.055   4.531   9.426
 1901POPC   GL125933  35.305   4.347   9.111
 1901POPC   GL225934  35.573   4.573   9.002
 1901POPC   C1A25935  35.350   4.156   8.709
 1901POPC   D2A25936  35.497   3.858   8.406
 1901POPC   C3A25937  35.519   4.077   8.007
 1901POPC   C4A25938  35.266   4.338   7.717
 1901POPC   C1B25939  35.388   4.668   8.607
 1901POPC   C2B25940  35.393   4.563   8.184
 1901POPC   C3B25941  35.693   4.578   7.869
 1901POPC   C4B25942  35.684   4.417   7.432
 1902POPC   NC325943  27.798  21.013   9.442
 1902POPC   PO425944  27.352  21.458   9.513
 1902POPC   GL125945  27.518  21.503   9.115
 1902POPC   GL225946  27.817  21.700   9.054
 1902POPC   C1A25947  27.733  21.259   8.805
 1902POPC   D2A25948  27.904  21.257   8.379
 1902POPC   C3A25949  27.619  21.308   8.006
 1902POPC   C4A25950  27.523  21.388   7.534
 1902POPC   C1B25951  28.028  21.655   8.703
 1902POPC   C2B25952  27.870  21.765   8.290
 1902POPC   C3B25953  27.962  21.751   7.869
 1902POPC   C4B25954  27.822  21.815   7.449
 1903POPC   NC325955  21.994   6.369   9.853
 1903POPC   PO425956  22.290   6.904   9.587
 1903POPC   GL125957  22.106   6.751   9.235
 1903POPC   GL225958  21.922   6.969   9.041
 1903POPC   C1A25959  22.017   6.488   8.889
 1903POPC   D2A25960  21.915   6.437   8.474
 1903POPC   C3A25961  22.276   6.350   8.211
 1903POPC   C4A25962  22.241   6.281   7.782
 1903POPC   C1B25963  22.351   6.854   8.810
 1903POPC   C2B25964  22.475   6.821   8.393
 1903POPC   C3B25965  22.102   6.846   8.128
 1903POPC   C4B25966  22.145   7.027   7.741
 1904POPC   NC325967   4.580  18.420   9.424
 1904POPC   PO425968   3.923  18.015   9.485
 1904POPC   GL125969   4.081  18.046   9.101
 1904POPC   GL225970   4.109  18.375   9.154
 1904POPC   C1A25971   4.434  18.138   8.810
 1904POPC   D2A25972   4.645  18.193   8.440
 1904POPC   C3A25973   4.450  18.067   8.084
 1904POPC   C4A25974   4.526  18.268   7.705
 1904POPC   C1B25975   3.997  18.405   8.737
 1904POPC   C2B25976   4.207  18.454   8.358
 1904POPC   C3B25977   4.051  18.336   7.961
 1904POPC   C4B25978   4.054  18.431   7.540
 1905POPC   NC325979  10.058   9.620   9.351
 1905POPC   PO425980   9.510  10.123   9.433
 1905POPC   GL125981   9.684   9.953   9.075
 1905POPC   GL225982   9.979  10.102   9.175
 1905POPC   C1A25983   9.770   9.822   8.638
 1905POPC   D2A25984  10.020   9.666   8.296
 1905POPC   C3A25985   9.754   9.438   7.978
 1905POPC   C4A25986   9.926   9.355   7.517
 1905POPC   C1B25987  10.151  10.138   8.781
 1905POPC   C2B25988   9.981  10.221   8.395
 1905POPC   C3B25989   9.793  10.058   8.068
 1905POPC   C4B25990   9.984   9.825   7.784
 1906POPC   NC325991  37.457  35.060   9.244
 1906POPC   PO425992  37.844  35.566   9.435
 1906POPC   GL125993  37.776  35.439   9.068
 1906POPC   GL225994  37.436  35.539   9.048
 1906POPC   C1A25995  37.845  35.209   8.708
 1906POPC   D2A25996  38.112  35.237   8.372
 1906POPC   C3A25997  37.856  35.279   8.019
 1906POPC   C4A25998  37.839  35.073   7.664
 1906POPC   C1B25999  37.325  35.446   8.626
 1906POPC   C2B26000  37.348  35.093   8.359
 1906POPC   C3B26001  37.400  34.976   7.949
 1906POPC   C4B26002  37.215  35.207   7.651
 1907POPC   NC326003  25.062   3.096   9.551
 1907POPC   PO426004  25.382   2.563   9.705
 1907POPC   GL126005  25.355   2.729   9.252
 1907POPC   GL226006  25.595   2.481   9.126
 1907POPC   C1A26007  25.242   2.697   8.796
 1907POPC   D2A26008  25.270   2.904   8.396
 1907POPC   C3A26009  25.111   2.850   8.006
 1907POPC   C4A26010  25.277   2.767   7.622
 1907POPC   C1B26011  25.791   2.553   8.781
 1907POPC   C2B26012  25.591   2.467   8.441
 1907POPC   C3B26013  25.492   2.517   8.036
 1907POPC   C4B26014  25.712   2.528   7.667
 1908POPC   NC326015  20.808  10.301   9.505
 1908POPC   PO426016  20.713  11.005   9.518
 1908POPC   GL126017  20.670  10.669   9.168
 1908POPC   GL226018  20.948  10.813   9.040
 1908POPC   C1A26019  20.779  10.348   8.797
 1908POPC   D2A26020  20.982  10.111   8.430
 1908POPC   C3A26021  20.833  10.313   8.070
 1908POPC   C4A26022  20.682  10.201   7.689
 1908POPC   C1B26023  20.712  10.845   8.677
 1908POPC   C2B26024  20.820  10.812   8.245
 1908POPC   C3B26025  20.724  10.924   7.875
 1908POPC   C4B26026  20.555  10.678   7.541
 1909POPC   NC326027  37.159  29.744   9.489
 1909POPC   PO426028  36.780  30.387   9.430
 1909POPC   GL126029  36.803  29.984   9.162
 1909POPC   GL226030  37.139  29.951   9.052
 1909POPC   C1A26031  36.811  29.756   8.722
 1909POPC   D2A26032  36.638  29.749   8.284
 1909POPC   C3A26033  36.931  29.841   7.941
 1909POPC   C4A26034  36.933  29.963   7.508
 1909POPC   C1B26035  37.348  30.078   8.743
 1909POPC   C2B26036  37.151  30.031   8.394
 1909POPC   C3B26037  37.225  30.236   8.052
 1909POPC   C4B26038  37.382  30.070   7.713
 1910POPC   NC326039  15.946  23.427   9.411
 1910POPC   PO426040  16.178  22.758   9.467
 1910POPC   GL126041  15.929  22.973   9.164
 1910POPC   GL226042  15.717  22.749   8.947
 1910POPC   C1A26043  15.944  23.229   8.797
 1910POPC   D2A26044  15.909  23.041   8.419
 1910POPC   C3A26045  15.656  23.232   8.121
 1910POPC   C4A26046  15.661  23.099   7.706
 1910POPC   C1B26047  16.149  22.715   8.744
 1910POPC   C2B26048  16.304  22.629   8.296
 1910POPC   C3B26049  16.344  22.853   7.876
 1910POPC   C4B26050  16.335  22.796   7.398
 1911POPC   NC326051   3.877  33.091   9.795
 1911POPC   PO426052   3.328  32.853   9.363
 1911POPC   GL126053   3.500  33.008   9.018
 1911POPC   GL226054   3.708  33.208   9.094
 1911POPC   C1A26055   3.471  32.960   8.623
 1911POPC   D2A26056   3.223  33.091   8.304
 1911POPC   C3A26057   3.496  32.895   8.060
 1911POPC   C4A26058   3.565  32.808   7.680
 1911POPC   C1B26059   3.624  33.443   8.715
 1911POPC   C2B26060   3.706  33.306   8.303
 1911POPC   C3B26061   3.506  33.389   7.915
 1911POPC   C4B26062   3.740  33.506   7.587
 1912POPC   NC326063   7.387  25.118   9.392
 1912POPC   PO426064   7.076  25.683   9.536
 1912POPC   GL126065   7.094  25.402   9.092
 1912POPC   GL226066   7.429  25.388   8.929
 1912POPC   C1A26067   7.049  25.432   8.621
 1912POPC   D2A26068   7.374  25.577   8.319
 1912POPC   C3A26069   7.435  25.339   7.953
 1912POPC   C4A26070   7.157  25.002   7.831
 1912POPC   C1B26071   7.347  25.026   8.686
 1912POPC   C2B26072   7.421  24.911   8.261
 1912POPC   C3B26073   7.709  24.861   7.903
 1912POPC   C4B26074   7.810  24.679   7.475
 1913POPC   NC326075  44.144  42.886   9.339
 1913POPC   PO426076  43.585  43.052   9.294
 1913POPC   GL126077  43.902  43.229   9.025
 1913POPC   GL226078  43.682  43.452   8.943
 1913POPC   C1A26079  43.964  43.275   8.549
 1913POPC   D2A26080  44.063  42.855   8.373
 1913POPC   C3A26081  44.105  42.854   7.931
 1913POPC   C4A26082  44.245  43.265   7.876
 1913POPC   C1B26083  43.510  43.089   8.690
 1913POPC   C2B26084  43.449  43.193   8.338
 1913POPC   C3B26085  43.707  43.154   8.044
 1913POPC   C4B26086  43.616  42.857   7.764
 1914POPC   NC326087  33.844  16.236   9.476
 1914POPC   PO426088  34.086  15.504   9.451
 1914POPC   GL126089  33.788  15.804   9.149
 1914POPC   GL226090  33.925  16.162   9.001
 1914POPC   C1A26091  33.553  15.955   8.754
 1914POPC   D2A26092  33.788  15.887   8.336
 1914POPC   C3A26093  33.675  15.953   7.904
 1914POPC   C4A26094  33.680  15.992   7.440
 1914POPC   C1B26095  33.947  16.306   8.578
 1914POPC   C2B26096  34.008  16.303   8.122
 1914POPC   C3B26097  33.907  16.384   7.686
 1914POPC   C4B26098  33.627  16.524   7.354
 1915POPC   NC326099  19.493   9.431   9.410
 1915POPC   PO426100  19.703   8.777   9.533
 1915POPC   GL126101  19.857   8.850   9.128
 1915POPC   GL226102  19.814   9.192   9.050
 1915POPC   C1A26103  19.785   8.654   8.726
 1915POPC   D2A26104  19.484   8.664   8.376
 1915POPC   C3A26105  19.684   8.724   8.008
 1915POPC   C4A26106  19.887   8.487   7.733
 1915POPC   C1B26107  19.865   9.159   8.596
 1915POPC   C2B26108  19.676   9.196   8.189
 1915POPC   C3B26109  19.759   9.176   7.721
 1915POPC   C4B26110  19.545   9.372   7.379
 1916POPC   NC326111  33.045  16.295   9.451
 1916POPC   PO426112  33.466  15.810   9.576
 1916POPC   GL126113  33.240  15.819   9.183
 1916POPC   GL226114  33.333  15.502   9.023
 1916POPC   C1A26115  32.962  16.040   8.857
 1916POPC   D2A26116  32.683  16.175   8.501
 1916POPC   C3A26117  32.918  16.197   8.110
 1916POPC   C4A26118  32.911  15.912   7.773
 1916POPC   C1B26119  33.170  15.638   8.618
 1916POPC   C2B26120  33.257  15.814   8.196
 1916POPC   C3B26121  33.310  15.612   7.768
 1916POPC   C4B26122  33.490  15.549   7.323
 1917POPC   NC326123  33.357  26.707   9.494
 1917POPC   PO426124  32.887  27.121   9.578
 1917POPC   GL126125  33.053  26.985   9.189
 1917POPC   GL226126  32.837  26.694   9.166
 1917POPC   C1A26127  33.058  26.890   8.752
 1917POPC   D2A26128  32.853  26.763   8.374
 1917POPC   C3A26129  32.988  26.946   8.004
 1917POPC   C4A26130  32.807  27.065   7.580
 1917POPC   C1B26131  32.920  26.407   8.793
 1917POPC   C2B26132  33.242  26.449   8.466
 1917POPC   C3B26133  33.266  26.467   8.003
 1917POPC   C4B26134  32.965  26.559   7.665
 1918POPC   NC326135  23.758  22.965   9.621
 1918POPC   PO426136  23.255  23.261   9.417
 1918POPC   GL126137  23.607  23.190   9.126
 1918POPC   GL226138  23.744  22.881   9.102
 1918POPC   C1A26139  23.784  23.144   8.690
 1918POPC   D2A26140  23.871  23.321   8.351
 1918POPC   C3A26141  23.856  23.068   8.006
 1918POPC   C4A26142  23.651  23.122   7.624
 1918POPC   C1B26143  23.644  22.652   8.744
 1918POPC   C2B26144  23.476  22.623   8.326
 1918POPC   C3B26145  23.393  22.763   7.904
 1918POPC   C4B26146  23.544  22.644   7.509
 1919POPC   NC326147  39.026   8.824   9.496
 1919POPC   PO426148  39.436   9.281   9.740
 1919POPC   GL126149  39.439   9.018   9.326
 1919POPC   GL226150  39.129   9.243   9.228
 1919POPC   C1A26151  39.503   8.789   8.919
 1919POPC   D2A26152  39.299   8.684   8.507
 1919POPC   C3A26153  39.262   8.866   8.081
 1919POPC   C4A26154  39.028   8.730   7.714
 1919POPC   C1B26155  39.083   9.031   8.839
 1919POPC   C2B26156  39.311   9.222   8.488
 1919POPC   C3B26157  39.279   9.397   8.059
 1919POPC   C4B26158  38.952   9.356   7.757
 1920POPC   NC326159   5.874  27.359   9.408
 1920POPC   PO426160   6.123  26.750   9.445
 1920POPC   GL126161   5.891  26.941   9.094
 1920POPC   GL226162   5.991  27.256   8.927
 1920POPC   C1A26163   5.619  26.882   8.731
 1920POPC   D2A26164   5.424  26.750   8.321
 1920POPC   C3A26165   5.749  26.540   7.969
 1920POPC   C4A26166   5.684  26.484   7.502
 1920POPC   C1B26167   6.143  26.994   8.604
 1920POPC   C2B26168   5.863  26.962   8.253
 1920POPC   C3B26169   5.869  27.064   7.834
 1920POPC   C4B26170   6.198  27.276   7.648
 1921POPC   NC326171   0.645  35.060   9.509
 1921POPC   PO426172  44.981  35.214   9.551
 1921POPC   GL126173   0.304  35.291   9.197
 1921POPC   GL226174   0.414  34.970   9.063
 1921POPC   C1A26175   0.455  35.501   8.812
 1921POPC   D2A26176   0.486  35.400   8.365
 1921POPC   C3A26177   0.734  35.589   8.016
 1921POPC   C4A26178   0.487  35.543   7.639
 1921POPC   C1B26179   0.222  35.022   8.675
 1921POPC   C2B26180   0.402  34.897   8.297
 1921POPC   C3B26181   0.564  35.095   7.941
 1921POPC   C4B26182   0.307  35.071   7.599
 1922POPC   NC326183  30.374  21.073   9.606
 1922POPC   PO426184  30.620  21.732   9.491
 1922POPC   GL126185  30.649  21.454   9.151
 1922POPC   GL226186  30.297  21.317   9.165
 1922POPC   C1A26187  30.970  21.523   8.806
 1922POPC   D2A26188  31.059  21.315   8.410
 1922POPC   C3A26189  30.853  21.411   8.029
 1922POPC   C4A26190  30.398  21.444   7.941
 1922POPC   C1B26191  30.351  21.143   8.776
 1922POPC   C2B26192  30.541  21.198   8.383
 1922POPC   C3B26193  30.560  20.965   7.990
 1922POPC   C4B26194  30.385  20.914   7.563
 1923POPC   NC326195   9.621   2.305   9.400
 1923POPC   PO426196  10.105   1.845   9.510
 1923POPC   GL126197   9.986   1.982   9.119
 1923POPC   GL226198  10.104   2.288   9.179
 1923POPC   C1A26199   9.829   1.873   8.680
 1923POPC   D2A26200   9.969   1.646   8.336
 1923POPC   C3A26201   9.799   1.898   8.018
 1923POPC   C4A26202   9.458   2.151   7.823
 1923POPC   C1B26203   9.950   2.382   8.776
 1923POPC   C2B26204   9.707   2.320   8.413
 1923POPC   C3B26205   9.875   2.399   8.010
 1923POPC   C4B26206   9.889   2.305   7.578
 1924POPC   NC326207   4.664  38.799   9.653
 1924POPC   PO426208   4.200  38.343   9.596
 1924POPC   GL126209   4.205  38.506   9.174
 1924POPC   GL226210   4.494  38.680   9.179
 1924POPC   C1A26211   3.991  38.485   8.755
 1924POPC   D2A26212   4.022  38.620   8.328
 1924POPC   C3A26213   4.022  38.298   8.030
 1924POPC   C4A26214   4.069  38.097   7.643
 1924POPC   C1B26215   4.365  38.823   8.768
 1924POPC   C2B26216   4.428  38.927   8.343
 1924POPC   C3B26217   4.406  38.722   7.915
 1924POPC   C4B26218   4.582  38.828   7.490
 1925POPC   NC326219  10.795  20.887   9.633
 1925POPC   PO426220  10.424  20.293   9.517
 1925POPC   GL126221  10.569  20.512   9.194
 1925POPC   GL226222  10.435  20.841   9.256
 1925POPC   C1A26223  10.310  20.443   8.812
 1925POPC   D2A26224  10.088  20.223   8.463
 1925POPC   C3A26225  10.255  20.379   8.053
 1925POPC   C4A26226  10.695  20.394   7.913
 1925POPC   C1B26227  10.531  20.901   8.836
 1925POPC   C2B26228  10.593  20.697   8.416
 1925POPC   C3B26229  10.489  20.860   7.991
 1925POPC   C4B26230  10.735  20.918   7.617
 1926POPC   NC326231  42.177  10.364   9.578
 1926POPC   PO426232  42.384  10.969   9.399
 1926POPC   GL126233  42.235  10.603   9.124
 1926POPC   GL226234  42.019  10.283   9.096
 1926POPC   C1A26235  42.169  10.700   8.720
 1926POPC   D2A26236  42.384  10.949   8.456
 1926POPC   C3A26237  42.147  10.902   8.101
 1926POPC   C4A26238  42.310  10.692   7.788
 1926POPC   C1B26239  42.218  10.191   8.693
 1926POPC   C2B26240  42.200  10.395   8.271
 1926POPC   C3B26241  42.172  10.209   7.870
 1926POPC   C4B26242  42.377  10.312   7.474
 1927POPC   NC326243  12.301  39.655   9.714
 1927POPC   PO426244  11.799  39.169   9.553
 1927POPC   GL126245  11.930  39.331   9.182
 1927POPC   GL226246  12.221  39.145   9.128
 1927POPC   C1A26247  12.058  39.433   8.736
 1927POPC   D2A26248  12.101  39.188   8.347
 1927POPC   C3A26249  11.803  39.347   8.067
 1927POPC   C4A26250  11.835  39.670   7.813
 1927POPC   C1B26251  12.409  39.036   8.721
 1927POPC   C2B26252  12.497  38.777   8.364
 1927POPC   C3B26253  12.396  38.941   7.971
 1927POPC   C4B26254  12.066  39.139   7.692
 1928POPC   NC326255   8.162  12.840   9.408
 1928POPC   PO426256   8.523  13.360   9.418
 1928POPC   GL126257   8.558  13.199   9.001
 1928POPC   GL226258   8.388  12.857   8.975
 1928POPC   C1A26259   8.613  12.999   8.563
 1928POPC   D2A26260   8.332  13.016   8.205
 1928POPC   C3A26261   8.458  12.817   7.824
 1928POPC   C4A26262   8.420  12.966   7.397
 1928POPC   C1B26263   8.022  12.714   8.758
 1928POPC   C2B26264   7.825  12.606   8.367
 1928POPC   C3B26265   7.967  12.726   7.972
 1928POPC   C4B26266   7.973  13.007   7.638
 1929POPC   NC326267  12.770  28.087   9.434
 1929POPC   PO426268  13.128  28.592   9.651
 1929POPC   GL126269  12.879  28.558   9.240
 1929POPC   GL226270  12.607  28.792   9.208
 1929POPC   C1A26271  12.708  28.396   8.815
 1929POPC   D2A26272  12.914  28.322   8.391
 1929POPC   C3A26273  12.714  28.279   7.983
 1929POPC   C4A26274  12.784  28.415   7.542
 1929POPC   C1B26275  12.599  28.903   8.763
 1929POPC   C2B26276  12.543  28.703   8.294
 1929POPC   C3B26277  12.412  28.656   7.815
 1929POPC   C4B26278  12.361  28.703   7.315
 1930POPC   NC326279  32.148  37.830   9.570
 1930POPC   PO426280  31.725  37.370   9.778
 1930POPC   GL126281  31.906  37.474   9.287
 1930POPC   GL226282  31.957  37.849   9.106
 1930POPC   C1A26283  31.915  37.439   8.809
 1930POPC   D2A26284  31.955  37.715   8.427
 1930POPC   C3A26285  32.150  37.700   8.055
 1930POPC   C4A26286  32.150  37.850   7.661
 1930POPC   C1B26287  32.300  37.787   8.785
 1930POPC   C2B26288  32.517  37.910   8.402
 1930POPC   C3B26289  32.630  37.854   7.972
 1930POPC   C4B26290  32.668  37.827   7.541
 1931POPC   NC326291  44.841  30.093   9.752
 1931POPC   PO426292  44.978  29.773   9.207
 1931POPC   GL126293  44.794  30.121   9.002
 1931POPC   GL226294  44.400  30.209   9.000
 1931POPC   C1A26295  44.656  30.086   8.589
 1931POPC   D2A26296  44.566  29.790   8.291
 1931POPC   C3A26297  44.594  29.966   7.880
 1931POPC   C4A26298  44.901  29.758   7.641
 1931POPC   C1B26299  44.267  29.805   8.779
 1931POPC   C2B26300  44.076  29.684   8.400
 1931POPC   C3B26301  44.200  29.646   7.955
 1931POPC   C4B26302  44.263  29.806   7.515
 1932POPC   NC326303  21.604  21.551   9.466
 1932POPC   PO426304  20.877  21.366   9.437
 1932POPC   GL126305  21.267  21.248   9.211
 1932POPC   GL226306  21.259  21.542   9.088
 1932POPC   C1A26307  21.611  21.277   8.852
 1932POPC   D2A26308  21.686  21.245   8.396
 1932POPC   C3A26309  21.269  21.248   8.196
 1932POPC   C4A26310  20.997  21.136   7.828
 1932POPC   C1B26311  21.338  21.798   8.757
 1932POPC   C2B26312  21.592  21.816   8.406
 1932POPC   C3B26313  21.667  21.631   8.021
 1932POPC   C4B26314  21.281  21.581   7.810
 1933POPC   NC326315  28.143  43.380   9.681
 1933POPC   PO426316  28.576  42.963   9.519
 1933POPC   GL126317  28.474  42.976   9.100
 1933POPC   GL226318  28.343  43.290   9.160
 1933POPC   C1A26319  28.378  42.943   8.666
 1933POPC   D2A26320  28.267  42.943   8.222
 1933POPC   C3A26321  28.434  42.795   7.856
 1933POPC   C4A26322  28.725  42.912   7.511
 1933POPC   C1B26323  28.080  43.345   8.799
 1933POPC   C2B26324  28.193  43.412   8.365
 1933POPC   C3B26325  28.245  43.361   7.897
 1933POPC   C4B26326  28.138  43.533   7.466
 1934POPC   NC326327   4.035  11.365   9.755
 1934POPC   PO426328   4.491  10.979   9.459
 1934POPC   GL126329   4.160  11.213   9.215
 1934POPC   GL226330   3.916  11.511   9.202
 1934POPC   C1A26331   4.071  11.106   8.784
 1934POPC   D2A26332   4.395  11.119   8.478
 1934POPC   C3A26333   4.249  11.053   8.068
 1934POPC   C4A26334   4.403  11.284   7.728
 1934POPC   C1B26335   4.095  11.607   8.794
 1934POPC   C2B26336   4.034  11.460   8.365
 1934POPC   C3B26337   4.081  11.650   7.959
 1934POPC   C4B26338   3.960  11.529   7.569
 1935POPC   NC326339  22.478  19.396   9.463
 1935POPC   PO426340  21.884  19.284   9.728
 1935POPC   GL126341  21.965  19.054   9.286
 1935POPC   GL226342  22.299  18.882   9.222
 1935POPC   C1A26343  21.928  19.039   8.830
 1935POPC   D2A26344  22.196  18.929   8.458
 1935POPC   C3A26345  22.117  19.105   8.086
 1935POPC   C4A26346  21.934  19.056   7.705
 1935POPC   C1B26347  22.425  19.142   8.865
 1935POPC   C2B26348  22.505  19.353   8.486
 1935POPC   C3B26349  22.538  19.383   8.046
 1935POPC   C4B26350  22.305  19.400   7.669
 1936POPC   NC326351  36.738  23.542   9.621
 1936POPC   PO426352  37.197  24.014   9.481
 1936POPC   GL126353  37.282  23.895   9.083
 1936POPC   GL226354  37.142  23.574   9.044
 1936POPC   C1A26355  37.009  23.973   8.739
 1936POPC   D2A26356  36.790  23.852   8.377
 1936POPC   C3A26357  36.860  24.002   7.964
 1936POPC   C4A26358  36.515  24.122   7.676
 1936POPC   C1B26359  36.971  23.466   8.684
 1936POPC   C2B26360  36.888  23.338   8.310
 1936POPC   C3B26361  36.638  23.517   8.002
 1936POPC   C4B26362  36.946  23.524   7.770
 1937POPC   NC326363  28.866  25.205   9.637
 1937POPC   PO426364  28.231  25.318   9.598
 1937POPC   GL126365  28.101  25.347   9.179
 1937POPC   GL226366  28.099  25.665   9.113
 1937POPC   C1A26367  28.255  25.200   8.784
 1937POPC   D2A26368  28.498  25.165   8.389
 1937POPC   C3A26369  28.307  25.122   7.974
 1937POPC   C4A26370  28.254  24.871   7.616
 1937POPC   C1B26371  28.229  25.701   8.690
 1937POPC   C2B26372  28.261  25.601   8.249
 1937POPC   C3B26373  28.542  25.591   7.921
 1937POPC   C4B26374  28.498  25.367   7.524
 1938POPC   NC326375  16.934   6.975   9.478
 1938POPC   PO426376  16.650   7.685   9.456
 1938POPC   GL126377  16.615   7.553   9.088
 1938POPC   GL226378  16.598   7.202   9.103
 1938POPC   C1A26379  16.748   7.688   8.693
 1938POPC   D2A26380  16.971   7.648   8.327
 1938POPC   C3A26381  16.641   7.495   8.127
 1938POPC   C4A26382  16.676   7.420   7.729
 1938POPC   C1B26383  16.951   7.233   8.818
 1938POPC   C2B26384  16.939   7.111   8.391
 1938POPC   C3B26385  17.074   7.213   8.005
 1938POPC   C4B26386  17.120   7.186   7.572
 1939POPC   NC326387   2.271  44.797   9.501
 1939POPC   PO426388   1.965  44.395   9.846
 1939POPC   GL126389   1.915  44.528   9.309
 1939POPC   GL226390   2.148  44.424   9.125
 1939POPC   C1A26391   1.898  44.829   8.907
 1939POPC   D2A26392   1.802   0.027   8.507
 1939POPC   C3A26393   1.909  44.875   8.101
 1939POPC   C4A26394   2.063  44.741   7.710
 1939POPC   C1B26395   1.841  44.340   8.796
 1939POPC   C2B26396   1.697  44.533   8.416
 1939POPC   C3B26397   1.727  44.419   7.985
 1939POPC   C4B26398   1.767  44.381   7.540
 1940POPC   NC326399  29.521   6.718   9.493
 1940POPC   PO426400  30.203   6.559   9.420
 1940POPC   GL126401  30.047   6.674   9.046
 1940POPC   GL226402  29.769   6.478   9.112
 1940POPC   C1A26403  29.958   6.691   8.585
 1940POPC   D2A26404  30.029   6.592   8.135
 1940POPC   C3A26405  30.183   6.795   7.746
 1940POPC   C4A26406  30.130   6.633   7.295
 1940POPC   C1B26407  29.595   6.280   8.769
 1940POPC   C2B26408  29.553   6.426   8.351
 1940POPC   C3B26409  29.597   6.356   7.891
 1940POPC   C4B26410  29.699   6.704   7.568
 1941POPC   NC326411   2.908  43.561   9.502
 1941POPC   PO426412   3.064  42.931   9.730
 1941POPC   GL126413   3.022  42.887   9.241
 1941POPC   GL226414   2.863  43.218   9.141
 1941POPC   C1A26415   2.857  42.916   8.752
 1941POPC   D2A26416   2.516  42.925   8.413
 1941POPC   C3A26417   2.699  43.042   8.008
 1941POPC   C4A26418   3.083  43.054   7.798
 1941POPC   C1B26419   2.723  43.415   8.753
 1941POPC   C2B26420   2.886  43.391   8.340
 1941POPC   C3B26421   2.827  43.563   7.942
 1941POPC   C4B26422   2.507  43.487   7.666
 1942POPC   NC326423  19.226  31.413   9.623
 1942POPC   PO426424  18.633  31.668   9.579
 1942POPC   GL126425  18.880  31.481   9.204
 1942POPC   GL226426  19.154  31.289   9.150
 1942POPC   C1A26427  19.049  31.618   8.782
 1942POPC   D2A26428  18.947  31.591   8.376
 1942POPC   C3A26429  19.238  31.552   8.066
 1942POPC   C4A26430  19.091  31.696   7.702
 1942POPC   C1B26431  19.084  31.102   8.785
 1942POPC   C2B26432  18.991  31.075   8.390
 1942POPC   C3B26433  19.196  30.980   8.031
 1942POPC   C4B26434  19.210  31.176   7.652
 1943POPC   NC326435  14.708  29.916   9.799
 1943POPC   PO426436  14.259  29.785   9.321
 1943POPC   GL126437  14.525  30.053   9.135
 1943POPC   GL226438  14.717  29.783   9.038
 1943POPC   C1A26439  14.548  30.132   8.703
 1943POPC   D2A26440  14.675  29.881   8.356
 1943POPC   C3A26441  14.411  30.017   8.022
 1943POPC   C4A26442  14.353  29.882   7.643
 1943POPC   C1B26443  14.560  29.519   8.737
 1943POPC   C2B26444  14.380  29.421   8.351
 1943POPC   C3B26445  14.512  29.505   7.946
 1943POPC   C4B26446  14.512  29.440   7.493
 1944POPC   NC326447  21.835  10.691   9.438
 1944POPC   PO426448  22.457  10.455   9.400
 1944POPC   GL126449  22.121  10.380   9.105
 1944POPC   GL226450  21.786  10.218   9.192
 1944POPC   C1A26451  21.857  10.577   8.783
 1944POPC   D2A26452  21.719  10.756   8.378
 1944POPC   C3A26453  22.006  10.649   8.066
 1944POPC   C4A26454  22.194  10.510   7.685
 1944POPC   C1B26455  21.903  10.046   8.783
 1944POPC   C2B26456  22.110  10.244   8.471
 1944POPC   C3B26457  22.201  10.169   8.080
 1944POPC   C4B26458  22.169  10.012   7.690
 1945POPC   NC326459  29.714   0.615   9.307
 1945POPC   PO426460  30.051   0.170   9.753
 1945POPC   GL126461  30.061   0.235   9.247
 1945POPC   GL226462  29.750   0.190   9.026
 1945POPC   C1A26463  30.165   0.231   8.752
 1945POPC   D2A26464  29.942   0.215   8.306
 1945POPC   C3A26465  30.129   0.432   7.944
 1945POPC   C4A26466  30.108   0.371   7.492
 1945POPC   C1B26467  29.721   0.505   8.686
 1945POPC   C2B26468  29.485   0.733   8.420
 1945POPC   C3B26469  29.679   0.670   8.050
 1945POPC   C4B26470  29.591   0.329   7.808
 1946POPC   NC326471  15.835  27.324   9.775
 1946POPC   PO426472  16.255  27.858   9.461
 1946POPC   GL126473  16.074  27.586   9.149
 1946POPC   GL226474  15.752  27.489   9.192
 1946POPC   C1A26475  16.034  27.529   8.697
 1946POPC   D2A26476  15.859  27.407   8.330
 1946POPC   C3A26477  16.025  27.499   7.904
 1946POPC   C4A26478  15.991  27.563   7.457
 1946POPC   C1B26479  15.591  27.749   8.866
 1946POPC   C2B26480  15.543  27.827   8.427
 1946POPC   C3B26481  15.749  27.915   8.048
 1946POPC   C4B26482  15.601  27.802   7.678
 1947POPC   NC326483  39.770  32.499   9.384
 1947POPC   PO426484  40.149  31.871   9.355
 1947POPC   GL126485  40.005  32.046   9.008
 1947POPC   GL226486  39.707  32.080   9.094
 1947POPC   C1A26487  40.152  32.297   8.668
 1947POPC   D2A26488  40.262  32.401   8.231
 1947POPC   C3A26489  40.130  32.114   7.902
 1947POPC   C4A26490  40.244  32.146   7.433
 1947POPC   C1B26491  39.633  32.302   8.725
 1947POPC   C2B26492  39.759  32.218   8.318
 1947POPC   C3B26493  39.801  32.506   8.008
 1947POPC   C4B26494  40.038  32.587   7.706
 1948POPC   NC326495  38.473  26.897   9.519
 1948POPC   PO426496  38.914  26.417   9.280
 1948POPC   GL126497  38.616  26.596   9.108
 1948POPC   GL226498  38.657  26.959   9.063
 1948POPC   C1A26499  38.439  26.550   8.732
 1948POPC   D2A26500  38.286  26.854   8.503
 1948POPC   C3A26501  38.365  26.742   8.082
 1948POPC   C4A26502  38.199  26.887   7.675
 1948POPC   C1B26503  38.888  26.815   8.719
 1948POPC   C2B26504  38.801  26.586   8.349
 1948POPC   C3B26505  38.881  26.715   7.923
 1948POPC   C4B26506  38.700  26.905   7.562
 1949POPC   NC326507  13.188  40.097   9.580
 1949POPC   PO426508  12.682  39.625   9.446
 1949POPC   GL126509  13.002  39.832   9.173
 1949POPC   GL226510  12.993  40.154   9.097
 1949POPC   C1A26511  13.171  39.765   8.750
 1949POPC   D2A26512  13.287  39.988   8.363
 1949POPC   C3A26513  12.909  40.038   8.119
 1949POPC   C4A26514  12.655  39.835   7.813
 1949POPC   C1B26515  13.139  40.324   8.733
 1949POPC   C2B26516  13.231  40.543   8.364
 1949POPC   C3B26517  13.271  40.358   7.944
 1949POPC   C4B26518  12.884  40.350   7.699
 1950POPC   NC326519  24.495  38.462   9.415
 1950POPC   PO426520  24.118  39.001   9.477
 1950POPC   GL126521  24.328  38.833   9.107
 1950POPC   GL226522  24.119  38.598   9.106
 1950POPC   C1A26523  24.527  38.557   8.752
 1950POPC   D2A26524  24.775  38.559   8.320
 1950POPC   C3A26525  24.684  38.245   7.966
 1950POPC   C4A26526  24.433  38.232   7.590
 1950POPC   C1B26527  24.007  38.632   8.694
 1950POPC   C2B26528  24.243  38.473   8.343
 1950POPC   C3B26529  24.349  38.630   7.954
 1950POPC   C4B26530  24.275  39.024   7.717
 1951POPC   NC326531  18.723  40.049   9.716
 1951POPC   PO426532  19.166  39.784   9.253
 1951POPC   GL126533  19.267  40.118   9.041
 1951POPC   GL226534  18.986  39.968   8.840
 1951POPC   C1A26535  19.229  40.324   8.634
 1951POPC   D2A26536  19.083  40.020   8.346
 1951POPC   C3A26537  19.053  40.197   7.992
 1951POPC   C4A26538  19.063  40.000   7.639
 1951POPC   C1B26539  18.973  39.582   8.625
 1951POPC   C2B26540  18.883  39.395   8.236
 1951POPC   C3B26541  18.769  39.700   7.946
 1951POPC   C4B26542  18.662  39.784   7.485
 1952POPC   NC326543  10.434  38.223   9.446
 1952POPC   PO426544  10.888  38.757   9.590
 1952POPC   GL126545  10.708  38.541   9.181
 1952POPC   GL226546  10.439  38.733   9.136
 1952POPC   C1A26547  10.502  38.383   8.748
 1952POPC   D2A26548  10.131  38.322   8.406
 1952POPC   C3A26549  10.108  38.280   7.942
 1952POPC   C4A26550  10.410  38.217   7.569
 1952POPC   C1B26551  10.747  38.856   8.785
 1952POPC   C2B26552  10.580  38.914   8.366
 1952POPC   C3B26553  10.457  38.663   8.020
 1952POPC   C4B26554  10.682  38.653   7.623
 1953POPC   NC326555  16.793  33.983   9.512
 1953POPC   PO426556  17.129  33.414   9.359
 1953POPC   GL126557  16.811  33.681   9.079
 1953POPC   GL226558  16.532  33.964   9.082
 1953POPC   C1A26559  16.499  33.590   8.751
 1953POPC   D2A26560  16.350  33.502   8.351
 1953POPC   C3A26561  16.626  33.517   8.032
 1953POPC   C4A26562  16.514  33.562   7.606
 1953POPC   C1B26563  16.714  34.109   8.719
 1953POPC   C2B26564  16.805  33.981   8.288
 1953POPC   C3B26565  16.629  34.009   7.878
 1953POPC   C4B26566  16.691  34.006   7.434
 1954POPC   NC326567  21.228  23.902   9.335
 1954POPC   PO426568  21.536  23.360   9.429
 1954POPC   GL126569  21.451  23.504   9.025
 1954POPC   GL226570  21.092  23.483   9.056
 1954POPC   C1A26571  21.675  23.692   8.633
 1954POPC   D2A26572  21.709  23.897   8.186
 1954POPC   C3A26573  21.643  23.563   7.890
 1954POPC   C4A26574  21.247  23.344   7.795
 1954POPC   C1B26575  21.153  23.791   8.714
 1954POPC   C2B26576  21.204  23.995   8.325
 1954POPC   C3B26577  21.189  23.838   7.913
 1954POPC   C4B26578  21.102  23.731   7.473
 1955POPC   NC326579   5.324  33.094   9.645
 1955POPC   PO426580   4.673  33.006   9.781
 1955POPC   GL126581   4.940  33.150   9.304
 1955POPC   GL226582   5.292  33.261   9.164
 1955POPC   C1A26583   4.951  33.008   8.831
 1955POPC   D2A26584   4.916  33.277   8.422
 1955POPC   C3A26585   5.159  33.164   8.049
 1955POPC   C4A26586   5.102  32.928   7.666
 1955POPC   C1B26587   5.451  33.013   8.797
 1955POPC   C2B26588   5.330  32.805   8.402
 1955POPC   C3B26589   5.516  32.797   7.964
 1955POPC   C4B26590   5.573  32.766   7.496
 1956POPC   NC326591  42.268  42.194   9.374
 1956POPC   PO426592  42.832  42.467   9.594
 1956POPC   GL126593  42.647  42.558   9.168
 1956POPC   GL226594  42.432  42.335   8.935
 1956POPC   C1A26595  42.766  42.628   8.730
 1956POPC   D2A26596  42.755  42.340   8.372
 1956POPC   C3A26597  42.338  42.392   8.170
 1956POPC   C4A26598  42.066  42.597   7.870
 1956POPC   C1B26599  42.103  42.215   8.642
 1956POPC   C2B26600  41.907  42.088   8.277
 1956POPC   C3B26601  42.046  42.053   7.873
 1956POPC   C4B26602  42.409  41.866   7.717
 1957POPC   NC326603  20.739   5.290   9.477
 1957POPC   PO426604  20.815   4.702   9.277
 1957POPC   GL126605  20.681   4.982   8.972
 1957POPC   GL226606  20.395   5.121   9.099
 1957POPC   C1A26607  20.616   5.394   8.738
 1957POPC   D2A26608  20.479   5.567   8.337
 1957POPC   C3A26609  20.604   5.248   8.008
 1957POPC   C4A26610  20.780   5.142   7.620
 1957POPC   C1B26611  20.205   4.904   8.785
 1957POPC   C2B26612  20.320   5.048   8.396
 1957POPC   C3B26613  20.116   5.284   8.098
 1957POPC   C4B26614  20.077   5.140   7.735
 1958POPC   NC326615  33.271  17.776   9.347
 1958POPC   PO426616  32.796  17.326   9.562
 1958POPC   GL126617  32.929  17.424   9.159
 1958POPC   GL226618  32.759  17.756   9.173
 1958POPC   C1A26619  33.072  17.468   8.732
 1958POPC   D2A26620  33.380  17.392   8.391
 1958POPC   C3A26621  33.117  17.434   8.039
 1958POPC   C4A26622  33.148  17.248   7.633
 1958POPC   C1B26623  32.632  17.954   8.792
 1958POPC   C2B26624  32.788  17.767   8.411
 1958POPC   C3B26625  32.700  17.795   7.997
 1958POPC   C4B26626  32.990  17.780   7.694
 1959POPC   NC326627  22.322  29.774   9.791
 1959POPC   PO426628  21.878  29.972   9.370
 1959POPC   GL126629  22.230  30.083   9.056
 1959POPC   GL226630  22.349  29.783   8.908
 1959POPC   C1A26631  22.379  30.199   8.622
 1959POPC   D2A26632  22.357  29.833   8.350
 1959POPC   C3A26633  22.596  29.797   7.990
 1959POPC   C4A26634  22.731  30.047   7.699
 1959POPC   C1B26635  21.956  29.894   8.670
 1959POPC   C2B26636  21.912  30.060   8.263
 1959POPC   C3B26637  22.115  29.985   7.865
 1959POPC   C4B26638  21.888  30.054   7.469
 1960POPC   NC326639   0.985  22.479   9.393
 1960POPC   PO426640   1.218  21.883   9.460
 1960POPC   GL126641   1.199  21.963   9.070
 1960POPC   GL226642   1.336  22.297   9.038
 1960POPC   C1A26643   1.423  21.750   8.747
 1960POPC   D2A26644   1.528  21.891   8.341
 1960POPC   C3A26645   1.216  22.114   8.103
 1960POPC   C4A26646   0.943  21.890   7.847
 1960POPC   C1B26647   1.255  22.237   8.637
 1960POPC   C2B26648   0.858  22.115   8.509
 1960POPC   C3B26649   0.682  22.253   8.171
 1960POPC   C4B26650   0.803  22.392   7.805
 1961POPC   NC326651  12.851  17.072   9.468
 1961POPC   PO426652  13.164  16.380   9.485
 1961POPC   GL126653  12.862  16.620   9.237
 1961POPC   GL226654  13.112  16.861   9.097
 1961POPC   C1A26655  12.689  16.824   8.835
 1961POPC   D2A26656  12.631  16.903   8.407
 1961POPC   C3A26657  12.519  16.595   8.150
 1961POPC   C4A26658  12.669  16.729   7.762
 1961POPC   C1B26659  13.090  16.488   8.818
 1961POPC   C2B26660  12.965  16.434   8.413
 1961POPC   C3B26661  13.051  16.702   8.101
 1961POPC   C4B26662  13.193  16.777   7.695
 1962POPC   NC326663  40.577  31.117   9.346
 1962POPC   PO426664  41.003  31.685   9.500
 1962POPC   GL126665  40.898  31.486   9.129
 1962POPC   GL226666  40.540  31.553   9.051
 1962POPC   C1A26667  40.884  31.503   8.703
 1962POPC   D2A26668  40.586  31.597   8.434
 1962POPC   C3A26669  40.789  31.546   8.067
 1962POPC   C4A26670  40.850  31.367   7.685
 1962POPC   C1B26671  40.430  31.215   8.736
 1962POPC   C2B26672  40.283  31.144   8.307
 1962POPC   C3B26673  40.470  31.097   7.892
 1962POPC   C4B26674  40.425  31.253   7.434
 1963POPC   NC326675  19.976  38.172   9.588
 1963POPC   PO426676  20.125  38.813   9.749
 1963POPC   GL126677  19.883  38.603   9.318
 1963POPC   GL226678  19.684  38.239   9.203
 1963POPC   C1A26679  19.872  38.567   8.845
 1963POPC   D2A26680  20.030  38.705   8.431
 1963POPC   C3A26681  20.054  38.485   8.035
 1963POPC   C4A26682  19.863  38.590   7.643
 1963POPC   C1B26683  19.822  38.063   8.803
 1963POPC   C2B26684  19.723  38.230   8.382
 1963POPC   C3B26685  19.699  38.123   7.939
 1963POPC   C4B26686  19.578  38.192   7.529
 1964POPC   NC326687   2.780  34.199   9.392
 1964POPC   PO426688   2.946  34.830   9.572
 1964POPC   GL126689   2.715  34.661   9.173
 1964POPC   GL226690   3.036  34.599   9.102
 1964POPC   C1A26691   2.758  34.378   8.758
 1964POPC   D2A26692   2.916  34.262   8.352
 1964POPC   C3A26693   2.768  34.403   7.900
 1964POPC   C4A26694   2.630  34.347   7.431
 1964POPC   C1B26695   3.034  34.818   8.685
 1964POPC   C2B26696   2.882  35.066   8.344
 1964POPC   C3B26697   2.657  35.004   7.979
 1964POPC   C4B26698   2.630  34.827   7.619
 1965POPC   NC326699  15.127  32.215   9.601
 1965POPC   PO426700  15.616  32.237   9.218
 1965POPC   GL126701  15.182  32.286   9.064
 1965POPC   GL226702  14.879  32.417   9.184
 1965POPC   C1A26703  15.127  32.362   8.645
 1965POPC   D2A26704  15.389  32.537   8.361
 1965POPC   C3A26705  15.231  32.370   7.964
 1965POPC   C4A26706  15.324  32.466   7.534
 1965POPC   C1B26707  14.712  32.586   8.829
 1965POPC   C2B26708  14.846  32.739   8.421
 1965POPC   C3B26709  14.722  32.588   8.019
 1965POPC   C4B26710  14.876  32.642   7.639
 1966POPC   NC326711  34.112  22.505   9.607
 1966POPC   PO426712  33.751  22.972   9.801
 1966POPC   GL126713  33.938  22.913   9.338
 1966POPC   GL226714  34.162  23.235   9.362
 1966POPC   C1A26715  33.962  22.699   8.874
 1966POPC   D2A26716  33.748  22.769   8.441
 1966POPC   C3A26717  33.768  22.624   8.003
 1966POPC   C4A26718  33.683  22.759   7.527
 1966POPC   C1B26719  34.206  23.161   8.932
 1966POPC   C2B26720  34.114  23.139   8.499
 1966POPC   C3B26721  34.014  23.068   8.067
 1966POPC   C4B26722  34.155  22.780   7.724
 1967POPC   NC326723  22.225  38.935   9.730
 1967POPC   PO426724  21.833  39.368   9.344
 1967POPC   GL126725  22.128  39.559   9.116
 1967POPC   GL226726  21.872  39.593   8.891
 1967POPC   C1A26727  22.326  39.439   8.715
 1967POPC   D2A26728  22.093  39.103   8.501
 1967POPC   C3A26729  22.141  39.081   8.046
 1967POPC   C4A26730  22.309  39.382   7.756
 1967POPC   C1B26731  21.755  39.714   8.525
 1967POPC   C2B26732  21.736  39.402   8.235
 1967POPC   C3B26733  21.747  39.316   7.828
 1967POPC   C4B26734  21.478  39.303   7.502
 1968POPC   NC326735   2.440  39.924   9.348
 1968POPC   PO426736   2.986  40.476   9.332
 1968POPC   GL126737   2.761  40.225   9.110
 1968POPC   GL226738   2.956  39.994   9.056
 1968POPC   C1A26739   2.611  40.147   8.689
 1968POPC   D2A26740   2.870  40.111   8.298
 1968POPC   C3A26741   2.598  40.072   7.911
 1968POPC   C4A26742   2.210  40.251   7.706
 1968POPC   C1B26743   2.916  39.721   8.752
 1968POPC   C2B26744   3.144  39.589   8.424
 1968POPC   C3B26745   2.886  39.636   8.066
 1968POPC   C4B26746   2.976  39.617   7.648
 1969POPC   NC326747  19.988  34.695   9.379
 1969POPC   PO426748  19.431  34.314   9.581
 1969POPC   GL126749  19.671  34.393   9.149
 1969POPC   GL226750  20.047  34.345   9.015
 1969POPC   C1A26751  19.718  34.667   8.757
 1969POPC   D2A26752  19.879  34.498   8.398
 1969POPC   C3A26753  19.769  34.636   8.007
 1969POPC   C4A26754  20.027  34.517   7.699
 1969POPC   C1B26755  20.217  34.718   8.743
 1969POPC   C2B26756  20.209  34.903   8.312
 1969POPC   C3B26757  20.193  34.976   7.860
 1969POPC   C4B26758  20.156  34.907   7.404
 1970POPC   NC326759  41.283  16.451   9.390
 1970POPC   PO426760  41.260  17.048   9.586
 1970POPC   GL126761  41.536  16.945   9.187
 1970POPC   GL226762  41.908  16.844   9.169
 1970POPC   C1A26763  41.623  17.100   8.748
 1970POPC   D2A26764  41.809  17.118   8.318
 1970POPC   C3A26765  41.677  16.857   7.958
 1970POPC   C4A26766  41.645  16.914   7.473
 1970POPC   C1B26767  41.730  16.589   8.827
 1970POPC   C2B26768  41.643  16.521   8.395
 1970POPC   C3B26769  41.521  16.371   8.002
 1970POPC   C4B26770  41.705  16.442   7.646
 1971POPC   NC326771  34.779  12.043   9.596
 1971POPC   PO426772  34.124  12.326   9.412
 1971POPC   GL126773  34.327  12.291   9.038
 1971POPC   GL226774  34.636  12.110   9.090
 1971POPC   C1A26775  34.356  12.143   8.641
 1971POPC   D2A26776  34.361  11.863   8.327
 1971POPC   C3A26777  34.353  12.081   7.993
 1971POPC   C4A26778  34.421  11.861   7.642
 1971POPC   C1B26779  34.776  12.423   8.805
 1971POPC   C2B26780  34.655  12.540   8.406
 1971POPC   C3B26781  34.855  12.482   8.041
 1971POPC   C4B26782  34.676  12.336   7.665
 1972POPC   NC326783  33.348   3.445   9.507
 1972POPC   PO426784  32.672   3.434   9.387
 1972POPC   GL126785  33.023   3.443   9.102
 1972POPC   GL226786  33.135   3.784   9.071
 1972POPC   C1A26787  33.246   3.442   8.706
 1972POPC   D2A26788  33.117   3.270   8.358
 1972POPC   C3A26789  32.964   3.520   8.067
 1972POPC   C4A26790  33.045   3.443   7.673
 1972POPC   C1B26791  32.926   3.817   8.620
 1972POPC   C2B26792  32.603   3.836   8.294
 1972POPC   C3B26793  32.800   3.977   7.923
 1972POPC   C4B26794  33.256   3.920   7.928
 1973POPC   NC326795  16.063  19.017   9.464
 1973POPC   PO426796  15.453  18.602   9.575
 1973POPC   GL126797  15.624  18.745   9.183
 1973POPC   GL226798  15.675  19.098   9.137
 1973POPC   C1A26799  15.911  18.766   8.821
 1973POPC   D2A26800  16.085  18.860   8.406
 1973POPC   C3A26801  16.075  18.823   7.951
 1973POPC   C4A26802  15.759  18.859   7.646
 1973POPC   C1B26803  15.854  19.270   8.772
 1973POPC   C2B26804  15.925  19.352   8.360
 1973POPC   C3B26805  15.697  19.189   8.037
 1973POPC   C4B26806  15.687  19.393   7.645
 1974POPC   NC326807  14.827  29.518   9.452
 1974POPC   PO426808  15.167  30.054   9.643
 1974POPC   GL126809  15.173  29.892   9.233
 1974POPC   GL226810  15.244  29.510   9.144
 1974POPC   C1A26811  15.061  30.104   8.839
 1974POPC   D2A26812  15.208  30.197   8.417
 1974POPC   C3A26813  15.150  29.849   8.116
 1974POPC   C4A26814  14.881  29.820   7.748
 1974POPC   C1B26815  15.484  29.756   8.842
 1974POPC   C2B26816  15.591  29.841   8.432
 1974POPC   C3B26817  15.663  29.653   8.046
 1974POPC   C4B26818  15.403  29.681   7.689
 1975POPC   NC326819  34.775  20.601   9.860
 1975POPC   PO426820  35.359  20.749   9.544
 1975POPC   GL126821  35.467  20.649   9.134
 1975POPC   GL226822  35.142  20.690   9.062
 1975POPC   C1A26823  35.523  20.366   8.803
 1975POPC   D2A26824  35.709  20.285   8.404
 1975POPC   C3A26825  35.483  20.494   8.110
 1975POPC   C4A26826  35.344  20.448   7.715
 1975POPC   C1B26827  35.239  20.790   8.663
 1975POPC   C2B26828  35.104  20.842   8.266
 1975POPC   C3B26829  35.291  20.936   7.894
 1975POPC   C4B26830  35.061  20.937   7.555
 1976POPC   NC326831  21.730  29.476   9.500
 1976POPC   PO426832  21.955  28.936   9.201
 1976POPC   GL126833  21.537  29.090   9.001
 1976POPC   GL226834  21.394  29.371   9.101
 1976POPC   C1A26835  21.304  29.027   8.629
 1976POPC   D2A26836  21.524  29.078   8.234
 1976POPC   C3A26837  21.339  28.881   7.860
 1976POPC   C4A26838  20.920  29.012   7.789
 1976POPC   C1B26839  21.191  29.523   8.740
 1976POPC   C2B26840  21.121  29.411   8.301
 1976POPC   C3B26841  21.282  29.401   7.897
 1976POPC   C4B26842  21.719  29.264   7.802
 1977POPC   NC326843  12.317  18.987   9.602
 1977POPC   PO426844  11.692  19.244   9.548
 1977POPC   GL126845  12.001  19.209   9.203
 1977POPC   GL226846  12.331  19.031   9.098
 1977POPC   C1A26847  11.891  19.232   8.772
 1977POPC   D2A26848  11.730  19.067   8.374
 1977POPC   C3A26849  11.990  19.262   8.083
 1977POPC   C4A26850  11.989  19.364   7.675
 1977POPC   C1B26851  12.392  18.635   8.858
 1977POPC   C2B26852  12.126  18.551   8.506
 1977POPC   C3B26853  12.105  18.730   8.099
 1977POPC   C4B26854  12.204  18.905   7.708
 1978POPC   NC326855  15.507  34.897   9.359
 1978POPC   PO426856  15.102  34.453   9.683
 1978POPC   GL126857  15.309  34.430   9.269
 1978POPC   GL226858  15.480  34.134   9.177
 1978POPC   C1A26859  15.366  34.513   8.821
 1978POPC   D2A26860  15.446  34.754   8.435
 1978POPC   C3A26861  15.165  34.638   8.081
 1978POPC   C4A26862  15.116  34.901   7.715
 1978POPC   C1B26863  15.685  34.118   8.771
 1978POPC   C2B26864  15.512  34.250   8.384
 1978POPC   C3B26865  15.619  34.390   7.981
 1978POPC   C4B26866  15.336  34.427   7.614
 1979POPC   NC326867  11.873   4.000   9.536
 1979POPC   PO426868  12.057   3.312   9.450
 1979POPC   GL126869  11.994   3.662   9.168
 1979POPC   GL226870  11.666   3.658   9.168
 1979POPC   C1A26871  12.081   3.743   8.755
 1979POPC   D2A26872  12.070   3.413   8.467
 1979POPC   C3A26873  11.989   3.557   8.075
 1979POPC   C4A26874  12.145   3.663   7.712
 1979POPC   C1B26875  11.770   3.303   8.854
 1979POPC   C2B26876  11.620   3.193   8.438
 1979POPC   C3B26877  11.532   3.303   8.014
 1979POPC   C4B26878  11.691   3.478   7.609
 1980POPC   NC326879  33.469   5.947   9.551
 1980POPC   PO426880  34.034   5.601   9.607
 1980POPC   GL126881  33.898   5.817   9.252
 1980POPC   GL226882  34.032   6.141   9.188
 1980POPC   C1A26883  33.703   5.834   8.857
 1980POPC   D2A26884  33.905   5.946   8.455
 1980POPC   C3A26885  33.755   5.751   8.072
 1980POPC   C4A26886  34.004   5.721   7.702
 1980POPC   C1B26887  33.860   6.311   8.814
 1980POPC   C2B26888  33.564   6.346   8.463
 1980POPC   C3B26889  33.745   6.266   8.079
 1980POPC   C4B26890  33.941   6.241   7.681
 1981POPC   NC326891  19.085  17.634   9.641
 1981POPC   PO426892  18.909  17.034   9.541
 1981POPC   GL126893  18.922  17.397   9.213
 1981POPC   GL226894  19.264  17.516   9.168
 1981POPC   C1A26895  18.857  17.603   8.790
 1981POPC   D2A26896  18.806  17.419   8.332
 1981POPC   C3A26897  18.806  17.583   7.884
 1981POPC   C4A26898  19.070  17.454   7.569
 1981POPC   C1B26899  19.388  17.755   8.817
 1981POPC   C2B26900  19.171  17.797   8.442
 1981POPC   C3B26901  19.273  17.623   8.073
 1981POPC   C4B26902  19.351  17.851   7.728
 1982POPC   NC326903  40.972  29.297   9.471
 1982POPC   PO426904  41.511  28.975   9.272
 1982POPC   GL126905  41.573  29.309   9.080
 1982POPC   GL226906  41.230  29.420   9.028
 1982POPC   C1A26907  41.766  29.392   8.698
 1982POPC   D2A26908  41.579  29.242   8.345
 1982POPC   C3A26909  41.773  29.308   7.965
 1982POPC   C4A26910  41.513  29.003   7.706
 1982POPC   C1B26911  41.335  29.686   8.654
 1982POPC   C2B26912  41.465  29.716   8.203
 1982POPC   C3B26913  41.298  29.456   7.842
 1982POPC   C4B26914  41.282  29.336   7.396
 1983POPC   NC326915  13.656   7.822   9.439
 1983POPC   PO426916  13.553   8.489   9.491
 1983POPC   GL126917  13.556   8.198   9.129
 1983POPC   GL226918  13.838   8.330   9.050
 1983POPC   C1A26919  13.694   8.009   8.704
 1983POPC   D2A26920  13.669   8.311   8.361
 1983POPC   C3A26921  13.473   8.184   8.018
 1983POPC   C4A26922  13.614   7.830   7.838
 1983POPC   C1B26923  14.065   8.427   8.718
 1983POPC   C2B26924  14.172   8.194   8.371
 1983POPC   C3B26925  13.983   8.259   7.934
 1983POPC   C4B26926  13.701   8.229   7.549
 1984POPC   NC326927  30.181  39.132   9.392
 1984POPC   PO426928  29.503  39.151   9.632
 1984POPC   GL126929  29.712  39.113   9.186
 1984POPC   GL226930  29.882  39.453   9.107
 1984POPC   C1A26931  29.948  39.038   8.748
 1984POPC   D2A26932  30.226  38.907   8.385
 1984POPC   C3A26933  30.238  39.134   7.991
 1984POPC   C4A26934  29.843  39.133   7.785
 1984POPC   C1B26935  29.699  39.468   8.672
 1984POPC   C2B26936  29.828  39.363   8.249
 1984POPC   C3B26937  29.776  39.630   7.837
 1984POPC   C4B26938  29.658  39.561   7.417
 1985POPC   NC326939  40.611   1.481   9.427
 1985POPC   PO426940  41.060   0.972   9.502
 1985POPC   GL126941  40.889   1.171   9.131
 1985POPC   GL226942  40.569   0.967   9.074
 1985POPC   C1A26943  40.625   1.391   8.777
 1985POPC   D2A26944  40.783   1.300   8.353
 1985POPC   C3A26945  40.689   1.520   7.989
 1985POPC   C4A26946  40.603   1.387   7.558
 1985POPC   C1B26947  40.748   0.903   8.714
 1985POPC   C2B26948  40.726   0.800   8.319
 1985POPC   C3B26949  40.652   0.970   7.916
 1985POPC   C4B26950  40.975   0.868   7.618
 1986POPC   NC326951   8.112  44.907   9.480
 1986POPC   PO426952   8.293  44.281   9.247
 1986POPC   GL126953   8.174  44.614   9.077
 1986POPC   GL226954   8.506  44.825   9.159
 1986POPC   C1A26955   8.001  44.577   8.665
 1986POPC   D2A26956   8.122  44.426   8.258
 1986POPC   C3A26957   7.997  44.692   7.921
 1986POPC   C4A26958   8.175  44.413   7.628
 1986POPC   C1B26959   8.498  44.740   8.729
 1986POPC   C2B26960   8.412  44.858   8.337
 1986POPC   C3B26961   8.496  44.667   7.957
 1986POPC   C4B26962   8.387  44.890   7.616
 1987POPC   NC326963  23.310  35.275   9.283
 1987POPC   PO426964  22.795  35.814   9.382
 1987POPC   GL126965  22.859  35.473   9.128
 1987POPC   GL226966  23.091  35.680   8.983
 1987POPC   C1A26967  22.852  35.226   8.742
 1987POPC   D2A26968  22.575  35.075   8.395
 1987POPC   C3A26969  22.834  35.158   8.025
 1987POPC   C4A26970  23.117  35.253   7.658
 1987POPC   C1B26971  23.293  35.563   8.649
 1987POPC   C2B26972  23.152  35.491   8.267
 1987POPC   C3B26973  22.959  35.651   7.946
 1987POPC   C4B26974  23.142  35.804   7.598
 1988POPC   NC326975  41.612  43.408   9.255
 1988POPC   PO426976  41.910  42.863   9.674
 1988POPC   GL126977  41.790  42.931   9.212
 1988POPC   GL226978  41.471  42.948   9.079
 1988POPC   C1A26979  41.843  43.007   8.724
 1988POPC   D2A26980  41.578  43.030   8.296
 1988POPC   C3A26981  41.630  43.041   7.832
 1988POPC   C4A26982  41.464  43.097   7.401
 1988POPC   C1B26983  41.340  43.194   8.714
 1988POPC   C2B26984  41.389  43.516   8.389
 1988POPC   C3B26985  41.296  43.396   7.976
 1988POPC   C4B26986  41.369  43.562   7.559
 1989POPC   NC326987   5.752  20.707   9.467
 1989POPC   PO426988   6.426  20.902   9.450
 1989POPC   GL126989   6.127  20.790   9.115
 1989POPC   GL226990   6.002  20.433   9.124
 1989POPC   C1A26991   6.011  20.662   8.688
 1989POPC   D2A26992   6.117  20.516   8.305
 1989POPC   C3A26993   5.843  20.654   8.045
 1989POPC   C4A26994   5.867  20.838   7.684
 1989POPC   C1B26995   5.685  20.253   8.836
 1989POPC   C2B26996   5.584  20.256   8.397
 1989POPC   C3B26997   5.522  20.226   7.960
 1989POPC   C4B26998   5.854  20.301   7.694
 1990POPC   NC326999   1.043  16.901   9.469
 1990POPC   PO427000   1.460  16.345   9.494
 1990POPC   GL127001   1.367  16.619   9.138
 1990POPC   GL227002   1.055  16.498   9.143
 1990POPC   C1A27003   1.320  16.814   8.690
 1990POPC   D2A27004   1.218  17.038   8.258
 1990POPC   C3A27005   1.439  16.833   7.860
 1990POPC   C4A27006   1.572  16.755   7.412
 1990POPC   C1B27007   0.885  16.546   8.770
 1990POPC   C2B27008   1.042  16.535   8.364
 1990POPC   C3B27009   0.973  16.675   7.963
 1990POPC   C4B27010   1.109  16.570   7.545
 1991POPC   NC327011  39.162  15.487   9.221
 1991POPC   PO427012  39.460  15.825   9.673
 1991POPC   GL127013  39.321  15.952   9.193
 1991POPC   GL227014  38.953  16.000   9.219
 1991POPC   C1A27015  39.356  15.932   8.725
 1991POPC   D2A27016  39.471  15.748   8.295
 1991POPC   C3A27017  39.285  15.881   7.898
 1991POPC   C4A27018  39.289  16.246   7.595
 1991POPC   C1B27019  38.844  15.921   8.778
 1991POPC   C2B27020  39.001  16.145   8.401
 1991POPC   C3B27021  38.932  16.319   7.996
 1991POPC   C4B27022  38.817  16.011   7.720
 1992POPC   NC327023  31.391  34.575   9.695
 1992POPC   PO427024  31.855  35.083   9.552
 1992POPC   GL127025  31.561  34.841   9.224
 1992POPC   GL227026  31.370  34.525   9.209
 1992POPC   C1A27027  31.675  34.573   8.820
 1992POPC   D2A27028  31.529  34.676   8.413
 1992POPC   C3A27029  31.660  34.421   8.052
 1992POPC   C4A27030  31.538  34.544   7.681
 1992POPC   C1B27031  31.133  34.319   8.943
 1992POPC   C2B27032  31.169  34.323   8.531
 1992POPC   C3B27033  31.152  34.415   8.097
 1992POPC   C4B27034  31.148  34.198   7.720
 1993POPC   NC327035  31.110  19.343   9.417
 1993POPC   PO427036  31.735  18.991   9.533
 1993POPC   GL127037  31.489  18.983   9.161
 1993POPC   GL227038  31.534  19.313   9.129
 1993POPC   C1A27039  31.491  18.962   8.715
 1993POPC   D2A27040  31.368  18.808   8.315
 1993POPC   C3A27041  31.550  18.852   7.930
 1993POPC   C4A27042  31.503  19.124   7.621
 1993POPC   C1B27043  31.431  19.480   8.766
 1993POPC   C2B27044  31.548  19.516   8.390
 1993POPC   C3B27045  31.340  19.331   8.045
 1993POPC   C4B27046  31.095  19.435   7.641
 1994POPC   NC327047  15.868   5.333   9.496
 1994POPC   PO427048  16.115   4.715   9.462
 1994POPC   GL127049  16.159   5.034   9.170
 1994POPC   GL227050  15.830   5.033   9.061
 1994POPC   C1A27051  16.211   5.154   8.718
 1994POPC   D2A27052  15.961   5.053   8.326
 1994POPC   C3A27053  16.238   5.100   7.922
 1994POPC   C4A27054  16.212   5.142   7.433
 1994POPC   C1B27055  15.685   4.657   8.822
 1994POPC   C2B27056  15.754   4.553   8.401
 1994POPC   C3B27057  15.669   4.650   7.988
 1994POPC   C4B27058  15.781   4.972   7.681
 1995POPC   NC327059  20.709  19.353   9.443
 1995POPC   PO427060  21.137  18.894   9.609
 1995POPC   GL127061  20.853  18.913   9.232
 1995POPC   GL227062  20.962  19.192   9.016
 1995POPC   C1A27063  20.541  18.993   8.870
 1995POPC   D2A27064  20.777  19.074   8.489
 1995POPC   C3A27065  20.490  19.082   8.153
 1995POPC   C4A27066  20.449  19.109   7.733
 1995POPC   C1B27067  20.924  19.554   8.759
 1995POPC   C2B27068  21.102  19.493   8.372
 1995POPC   C3B27069  20.920  19.338   7.973
 1995POPC   C4B27070  20.885  19.258   7.521
 1996POPC   NC327071  24.605  24.886   9.528
 1996POPC   PO427072  24.737  25.535   9.600
 1996POPC   GL127073  24.643  25.234   9.167
 1996POPC   GL227074  24.792  24.881   9.050
 1996POPC   C1A27075  24.492  25.163   8.705
 1996POPC   D2A27076  24.549  25.511   8.360
 1996POPC   C3A27077  24.468  25.423   7.918
 1996POPC   C4A27078  24.083  25.294   7.635
 1996POPC   C1B27079  24.799  24.745   8.614
 1996POPC   C2B27080  24.610  24.811   8.212
 1996POPC   C3B27081  24.395  24.935   7.818
 1996POPC   C4B27082  24.578  25.213   7.462
 1997POPC   NC327083  44.267  26.736   9.509
 1997POPC   PO427084  43.693  27.060   9.390
 1997POPC   GL127085  43.916  26.805   9.135
 1997POPC   GL227086  43.894  26.479   9.240
 1997POPC   C1A27087  44.160  26.810   8.767
 1997POPC   D2A27088  44.241  26.889   8.355
 1997POPC   C3A27089  43.866  27.066   8.208
 1997POPC   C4A27090  43.891  27.152   7.783
 1997POPC   C1B27091  43.826  26.385   8.796
 1997POPC   C2B27092  44.063  26.409   8.416
 1997POPC   C3B27093  43.945  26.594   8.007
 1997POPC   C4B27094  43.656  26.607   7.637
 1998POPC   NC327095  39.575  28.165   9.443
 1998POPC   PO427096  38.892  28.357   9.394
 1998POPC   GL127097  39.220  28.355   9.125
 1998POPC   GL227098  39.266  28.646   9.158
 1998POPC   C1A27099  39.303  28.183   8.727
 1998POPC   D2A27100  39.155  28.111   8.300
 1998POPC   C3A27101  39.314  28.370   7.988
 1998POPC   C4A27102  39.481  28.214   7.613
 1998POPC   C1B27103  39.137  28.744   8.749
 1998POPC   C2B27104  38.970  28.595   8.373
 1998POPC   C3B27105  39.021  28.810   7.961
 1998POPC   C4B27106  39.249  28.859   7.566
 1999POPC   NC327107  19.781  24.119   9.467
 1999POPC   PO427108  19.777  23.469   9.524
 1999POPC   GL127109  19.986  23.607   9.167
 1999POPC   GL227110  19.733  23.824   9.082
 1999POPC   C1A27111  19.887  23.533   8.717
 1999POPC   D2A27112  19.770  23.279   8.384
 1999POPC   C3A27113  19.940  23.500   8.050
 1999POPC   C4A27114  20.054  23.930   7.864
 1999POPC   C1B27115  19.483  24.003   8.768
 1999POPC   C2B27116  19.313  24.027   8.366
 1999POPC   C3B27117  19.479  23.818   8.020
 1999POPC   C4B27118  19.344  23.741   7.651
 2000POPC   NC327119  18.482  16.844   9.751
 2000POPC   PO427120  18.317  17.502   9.542
 2000POPC   GL127121  18.432  17.472   9.106
 2000POPC   GL227122  18.359  17.742   8.935
 2000POPC   C1A27123  18.469  17.253   8.690
 2000POPC   D2A27124  18.202  17.310   8.344
 2000POPC   C3A27125  18.383  17.306   7.947
 2000POPC   C4A27126  18.285  17.087   7.561
 2000POPC   C1B27127  18.432  17.739   8.526
 2000POPC   C2B27128  18.671  17.914   8.239
 2000POPC   C3B27129  18.355  17.873   7.902
 2000POPC   C4B27130  18.090  17.598   7.639
 2001POPC   NC327131  29.570  42.170   9.264
 2001POPC   PO427132  28.980  42.436   9.520
 2001POPC   GL127133  29.005  42.356   9.103
 2001POPC   GL227134  29.163  42.679   9.099
 2001POPC   C1A27135  29.219  42.373   8.713
 2001POPC   D2A27136  29.228  42.612   8.363
 2001POPC   C3A27137  29.300  42.335   8.023
 2001POPC   C4A27138  29.109  42.085   7.716
 2001POPC   C1B27139  28.833  42.739   8.782
 2001POPC   C2B27140  28.733  42.759   8.343
 2001POPC   C3B27141  28.930  42.723   7.956
 2001POPC   C4B27142  29.106  42.586   7.577
 2002POPC   NC327143   1.784   9.096   9.496
 2002POPC   PO427144   2.460   8.954   9.684
 2002POPC   GL127145   2.365   9.136   9.103
 2002POPC   GL227146   2.094   9.237   9.131
 2002POPC   C1A27147   2.154   8.903   8.723
 2002POPC   D2A27148   2.040   8.616   8.405
 2002POPC   C3A27149   2.018   8.879   8.063
 2002POPC   C4A27150   1.755   9.050   7.729
 2002POPC   C1B27151   1.859   9.314   8.820
 2002POPC   C2B27152   1.816   9.173   8.423
 2002POPC   C3B27153   1.904   9.383   8.065
 2002POPC   C4B27154   1.881   9.544   7.653
 2003POPC   NC327155  11.518  15.886   9.391
 2003POPC   PO427156  10.855  15.922   9.367
 2003POPC   GL127157  11.103  15.929   9.025
 2003POPC   GL227158  11.200  15.611   9.079
 2003POPC   C1A27159  11.465  15.930   8.756
 2003POPC   D2A27160  11.685  16.079   8.426
 2003POPC   C3A27161  11.724  15.960   8.031
 2003POPC   C4A27162  11.473  16.116   7.721
 2003POPC   C1B27163  11.128  15.507   8.684
 2003POPC   C2B27164  11.319  15.686   8.334
 2003POPC   C3B27165  11.174  15.784   7.969
 2003POPC   C4B27166  11.335  15.648   7.589
 2004POPC   NC327167  17.996  25.953   9.548
 2004POPC   PO427168  17.372  26.060   9.486
 2004POPC   GL127169  17.356  26.107   9.100
 2004POPC   GL227170  17.178  25.844   9.041
 2004POPC   C1A27171  17.549  26.192   8.727
 2004POPC   D2A27172  17.860  26.352   8.478
 2004POPC   C3A27173  17.680  26.202   8.120
 2004POPC   C4A27174  17.742  26.397   7.729
 2004POPC   C1B27175  17.024  26.086   8.722
 2004POPC   C2B27176  17.172  26.094   8.334
 2004POPC   C3B27177  17.202  25.892   7.958
 2004POPC   C4B27178  17.480  25.965   7.664
 2005POPC   NC327179  20.660  35.935   9.662
 2005POPC   PO427180  20.227  35.522   9.422
 2005POPC   GL127181  20.403  35.461   9.050
 2005POPC   GL227182  20.739  35.329   9.117
 2005POPC   C1A27183  20.456  35.190   8.698
 2005POPC   D2A27184  20.728  35.004   8.417
 2005POPC   C3A27185  20.609  35.196   8.089
 2005POPC   C4A27186  20.656  35.113   7.686
 2005POPC   C1B27187  20.988  35.313   8.736
 2005POPC   C2B27188  21.030  35.447   8.297
 2005POPC   C3B27189  20.919  35.537   7.853
 2005POPC   C4B27190  21.141  35.769   7.517
 2006POPC   NC327191   3.772  37.094   9.585
 2006POPC   PO427192   3.326  36.555   9.639
 2006POPC   GL127193   3.355  36.895   9.325
 2006POPC   GL227194   3.228  36.711   9.107
 2006POPC   C1A27195   3.555  37.056   8.906
 2006POPC   D2A27196   3.489  37.049   8.416
 2006POPC   C3A27197   3.761  36.873   8.061
 2006POPC   C4A27198   4.041  37.162   7.816
 2006POPC   C1B27199   3.104  36.871   8.724
 2006POPC   C2B27200   3.147  36.683   8.337
 2006POPC   C3B27201   3.272  36.784   7.921
 2006POPC   C4B27202   3.543  36.568   7.664
 2007POPC   NC327203  31.377  11.086   9.856
 2007POPC   PO427204  31.772  11.494   9.462
 2007POPC   GL127205  31.723  11.522   9.052
 2007POPC   GL227206  31.378  11.569   9.095
 2007POPC   C1A27207  31.558  11.290   8.700
 2007POPC   D2A27208  31.561  11.373   8.299
 2007POPC   C3A27209  31.516  11.042   8.029
 2007POPC   C4A27210  31.568  10.982   7.600
 2007POPC   C1B27211  31.345  11.755   8.723
 2007POPC   C2B27212  31.162  11.705   8.346
 2007POPC   C3B27213  31.317  11.673   7.980
 2007POPC   C4B27214  31.223  11.354   7.733
 2008POPC   NC327215  41.360  34.754   9.391
 2008POPC   PO427216  42.019  34.702   9.616
 2008POPC   GL127217  41.732  34.431   9.234
 2008POPC   GL227218  41.409  34.365   9.018
 2008POPC   C1A27219  41.768  34.474   8.706
 2008POPC   D2A27220  41.971  34.771   8.372
 2008POPC   C3A27221  41.824  34.754   7.927
 2008POPC   C4A27222  41.545  34.357   7.857
 2008POPC   C1B27223  41.326  34.726   8.742
 2008POPC   C2B27224  41.463  34.981   8.424
 2008POPC   C3B27225  41.353  34.841   8.030
 2008POPC   C4B27226  41.301  34.747   7.603
 2009POPC   NC327227   8.102  30.666   9.631
 2009POPC   PO427228   8.543  30.446   9.232
 2009POPC   GL127229   8.140  30.552   9.112
 2009POPC   GL227230   7.998  30.852   9.146
 2009POPC   C1A27231   8.083  30.438   8.693
 2009POPC   D2A27232   8.350  30.565   8.336
 2009POPC   C3A27233   8.191  30.382   7.974
 2009POPC   C4A27234   7.799  30.404   7.742
 2009POPC   C1B27235   8.196  30.940   8.729
 2009POPC   C2B27236   8.230  31.092   8.286
 2009POPC   C3B27237   8.245  30.902   7.876
 2009POPC   C4B27238   7.966  30.837   7.529
 2010POPC   NC327239  23.508   8.594   9.440
 2010POPC   PO427240  23.872   7.929   9.469
 2010POPC   GL127241  23.728   8.193   9.174
 2010POPC   GL227242  23.353   8.155   9.189
 2010POPC   C1A27243  23.919   8.330   8.801
 2010POPC   D2A27244  24.013   8.200   8.398
 2010POPC   C3A27245  23.870   8.453   8.076
 2010POPC   C4A27246  23.764   8.226   7.710
 2010POPC   C1B27247  23.424   8.425   8.816
 2010POPC   C2B27248  23.417   8.400   8.353
 2010POPC   C3B27249  23.331   8.494   7.902
 2010POPC   C4B27250  23.322   8.489   7.421
 2011POPC   NC327251   1.029  19.260   9.491
 2011POPC   PO427252   1.535  18.839   9.436
 2011POPC   GL127253   1.291  18.984   9.101
 2011POPC   GL227254   1.307  19.365   9.068
 2011POPC   C1A27255   1.201  19.039   8.683
 2011POPC   D2A27256   1.216  19.365   8.398
 2011POPC   C3A27257   1.147  19.080   8.114
 2011POPC   C4A27258   1.129  19.100   7.734
 2011POPC   C1B27259   1.630  19.318   8.727
 2011POPC   C2B27260   1.630  19.092   8.331
 2011POPC   C3B27261   1.605  19.224   7.902
 2011POPC   C4B27262   1.530  19.015   7.461
 2012POPC   NC327263  19.503  39.968   9.501
 2012POPC   PO427264  20.137  40.245   9.315
 2012POPC   GL127265  19.945  39.950   9.057
 2012POPC   GL227266  19.646  39.737   9.074
 2012POPC   C1A27267  20.009  39.935   8.633
 2012POPC   D2A27268  19.905  39.643   8.352
 2012POPC   C3A27269  19.972  39.846   7.972
 2012POPC   C4A27270  19.947  40.015   7.584
 2012POPC   C1B27271  19.504  39.893   8.664
 2012POPC   C2B27272  19.591  40.087   8.274
 2012POPC   C3B27273  19.520  40.101   7.830
 2012POPC   C4B27274  19.477  40.048   7.361
 2013POPC   NC327275  41.801  22.698   9.546
 2013POPC   PO427276  41.241  22.965   9.255
 2013POPC   GL127277  41.542  22.773   9.069
 2013POPC   GL227278  41.790  23.001   9.135
 2013POPC   C1A27279  41.510  22.867   8.640
 2013POPC   D2A27280  41.368  22.681   8.315
 2013POPC   C3A27281  41.493  22.913   8.036
 2013POPC   C4A27282  41.350  22.998   7.663
 2013POPC   C1B27283  41.994  22.807   8.782
 2013POPC   C2B27284  41.970  22.969   8.357
 2013POPC   C3B27285  41.992  22.795   7.946
 2013POPC   C4B27286  41.760  22.706   7.553
 2014POPC   NC327287  21.124  27.926   9.669
 2014POPC   PO427288  20.564  28.266   9.694
 2014POPC   GL127289  20.478  28.353   9.233
 2014POPC   GL227290  20.291  28.064   9.111
 2014POPC   C1A27291  20.648  28.281   8.788
 2014POPC   D2A27292  20.511  28.434   8.365
 2014POPC   C3A27293  20.589  28.207   7.958
 2014POPC   C4A27294  20.598  28.241   7.496
 2014POPC   C1B27295  20.009  27.915   8.786
 2014POPC   C2B27296  20.011  27.955   8.330
 2014POPC   C3B27297  20.161  27.900   7.907
 2014POPC   C4B27298  20.535  27.744   7.671
 2015POPC   NC327299  41.958   0.285   9.523
 2015POPC   PO427300  42.599   0.322   9.436
 2015POPC   GL127301  42.281   0.542   9.178
 2015POPC   GL227302  42.115   0.273   9.027
 2015POPC   C1A27303  42.312   0.685   8.729
 2015POPC   D2A27304  42.529   0.764   8.342
 2015POPC   C3A27305  42.364   0.515   7.987
 2015POPC   C4A27306  42.040   0.151   7.912
 2015POPC   C1B27307  42.534   0.238   8.814
 2015POPC   C2B27308  42.564   0.240   8.400
 2015POPC   C3B27309  42.571   0.042   8.022
 2015POPC   C4B27310  42.712   0.254   7.675
 2016POPC   NC327311   6.328  17.590   9.746
 2016POPC   PO427312   6.834  17.918   9.908
 2016POPC   GL127313   6.761  17.650   9.445
 2016POPC   GL227314   6.454  17.511   9.248
 2016POPC   C1A27315   6.870  17.613   8.947
 2016POPC   D2A27316   6.891  17.391   8.526
 2016POPC   C3A27317   6.662  17.503   8.138
 2016POPC   C4A27318   6.688  17.593   7.705
 2016POPC   C1B27319   6.422  17.398   8.796
 2016POPC   C2B27320   6.479  17.114   8.430
 2016POPC   C3B27321   6.372  17.057   7.997
 2016POPC   C4B27322   6.219  17.415   7.850
 2017POPC   NC327323  27.864  18.672   9.734
 2017POPC   PO427324  27.421  18.214   9.437
 2017POPC   GL127325  27.225  18.351   9.079
 2017POPC   GL227326  27.223  18.723   9.043
 2017POPC   C1A27327  27.252  18.185   8.664
 2017POPC   D2A27328  27.415  18.285   8.266
 2017POPC   C3A27329  27.829  18.198   8.133
 2017POPC   C4A27330  27.761  18.301   7.726
 2017POPC   C1B27331  27.487  18.677   8.668
 2017POPC   C2B27332  27.783  18.853   8.354
 2017POPC   C3B27333  27.660  18.781   7.922
 2017POPC   C4B27334  27.278  18.538   7.829
 2018POPC   NC327335  32.413  39.326   9.823
 2018POPC   PO427336  31.921  39.061   9.476
 2018POPC   GL127337  32.252  39.310   9.293
 2018POPC   GL227338  32.513  39.135   9.260
 2018POPC   C1A27339  32.412  39.473   8.887
 2018POPC   D2A27340  32.128  39.394   8.552
 2018POPC   C3A27341  32.196  39.411   8.143
 2018POPC   C4A27342  32.319  39.233   7.780
 2018POPC   C1B27343  32.476  38.962   8.825
 2018POPC   C2B27344  32.576  39.101   8.403
 2018POPC   C3B27345  32.605  38.891   8.002
 2018POPC   C4B27346  32.688  38.862   7.555
 2019POPC   NC327347  10.472  27.259   9.448
 2019POPC   PO427348  10.780  27.870   9.384
 2019POPC   GL127349  10.422  27.695   9.157
 2019POPC   GL227350  10.482  27.362   8.967
 2019POPC   C1A27351  10.261  27.737   8.737
 2019POPC   D2A27352  10.459  27.495   8.424
 2019POPC   C3A27353  10.339  27.627   8.002
 2019POPC   C4A27354  10.330  27.972   7.737
 2019POPC   C1B27355  10.863  27.215   8.761
 2019POPC   C2B27356  10.970  27.230   8.331
 2019POPC   C3B27357  10.763  27.337   7.952
 2019POPC   C4B27358  10.745  27.312   7.483
 2020POPC   NC327359  27.500  12.673   9.493
 2020POPC   PO427360  27.118  13.265   9.413
 2020POPC   GL127361  27.361  12.993   9.116
 2020POPC   GL227362  27.273  12.640   9.031
 2020POPC   C1A27363  27.540  12.994   8.701
 2020POPC   D2A27364  27.430  12.978   8.271
 2020POPC   C3A27365  27.747  12.870   7.949
 2020POPC   C4A27366  27.748  13.009   7.539
 2020POPC   C1B27367  27.647  12.496   8.820
 2020POPC   C2B27368  27.707  12.543   8.356
 2020POPC   C3B27369  27.378  12.540   8.015
 2020POPC   C4B27370  27.104  12.384   7.663
 2021POPC   NC327371  44.177  21.801  10.076
 2021POPC   PO427372  43.913  22.234   9.595
 2021POPC   GL127373  43.882  22.173   9.202
 2021POPC   GL227374  43.684  21.851   9.249
 2021POPC   C1A27375  43.961  22.485   8.873
 2021POPC   D2A27376  43.888  22.492   8.443
 2021POPC   C3A27377  43.917  22.710   8.087
 2021POPC   C4A27378  43.950  22.409   7.708
 2021POPC   C1B27379  43.703  21.965   8.787
 2021POPC   C2B27380  43.591  22.036   8.354
 2021POPC   C3B27381  43.697  21.982   7.931
 2021POPC   C4B27382  43.473  21.961   7.572
 2022POPC   NC327383  29.013   7.443   9.521
 2022POPC   PO427384  29.404   7.798   9.890
 2022POPC   GL127385  29.448   7.349   9.342
 2022POPC   GL227386  29.190   7.169   9.135
 2022POPC   C1A27387  29.447   7.468   8.833
 2022POPC   D2A27388  29.302   7.632   8.417
 2022POPC   C3A27389  29.228   7.324   8.105
 2022POPC   C4A27390  29.265   7.186   7.691
 2022POPC   C1B27391  28.991   7.197   8.719
 2022POPC   C2B27392  28.708   7.045   8.363
 2022POPC   C3B27393  28.815   7.040   7.913
 2022POPC   C4B27394  28.824   7.434   7.582
 2023POPC   NC327395   3.180  24.755   9.811
 2023POPC   PO427396   2.760  24.317   9.505
 2023POPC   GL127397   2.860  24.468   9.132
 2023POPC   GL227398   3.052  24.166   9.093
 2023POPC   C1A27399   2.618  24.502   8.733
 2023POPC   D2A27400   2.452  24.720   8.339
 2023POPC   C3A27401   2.602  24.501   7.975
 2023POPC   C4A27402   2.752  24.561   7.552
 2023POPC   C1B27403   3.114  24.329   8.714
 2023POPC   C2B27404   2.989  24.454   8.333
 2023POPC   C3B27405   3.049  24.199   7.978
 2023POPC   C4B27406   2.734  24.080   7.707
 2024POPC   NC327407  39.932  14.866   9.365
 2024POPC   PO427408  40.347  15.400   9.491
 2024POPC   GL127409  40.235  15.357   9.053
 2024POPC   GL227410  39.898  15.282   9.049
 2024POPC   C1A27411  40.198  15.248   8.601
 2024POPC   D2A27412  40.128  14.873   8.350
 2024POPC   C3A27413  40.060  14.980   7.945
 2024POPC   C4A27414  40.205  15.347   7.730
 2024POPC   C1B27415  39.786  14.981   8.723
 2024POPC   C2B27416  39.674  15.286   8.428
 2024POPC   C3B27417  39.729  15.348   8.010
 2024POPC   C4B27418  39.530  14.956   7.891
 2025POPC   NC327419  11.771  44.643   9.393
 2025POPC   PO427420  11.196  44.958   9.553
 2025POPC   GL127421  11.320  44.768   9.188
 2025POPC   GL227422  11.567   0.030   9.139
 2025POPC   C1A27423  11.293  44.478   8.843
 2025POPC   D2A27424  11.446  44.553   8.421
 2025POPC   C3A27425  11.203  44.392   8.077
 2025POPC   C4A27426  11.187  44.681   7.752
 2025POPC   C1B27427  11.677  44.875   8.758
 2025POPC   C2B27428  11.594   0.072   8.386
 2025POPC   C3B27429  11.599  44.899   7.977
 2025POPC   C4B27430  11.577   0.101   7.558
 2026POPC   NC327431  22.710  18.513   9.346
 2026POPC   PO427432  22.947  19.125   9.506
 2026POPC   GL127433  22.831  18.992   9.135
 2026POPC   GL227434  23.067  18.766   9.055
 2026POPC   C1A27435  22.918  19.159   8.720
 2026POPC   D2A27436  22.991  19.332   8.301
 2026POPC   C3A27437  22.829  18.946   8.095
 2026POPC   C4A27438  22.501  18.927   7.779
 2026POPC   C1B27439  23.185  18.577   8.698
 2026POPC   C2B27440  23.065  18.463   8.293
 2026POPC   C3B27441  23.194  18.573   7.901
 2026POPC   C4B27442  23.006  18.818   7.611
 2027POPC   NC327443  25.801  13.087   9.442
 2027POPC   PO427444  26.205  12.516   9.617
 2027POPC   GL127445  26.244  12.538   9.174
 2027POPC   GL227446  26.015  12.299   9.058
 2027POPC   C1A27447  26.168  12.711   8.731
 2027POPC   D2A27448  25.983  12.955   8.353
 2027POPC   C3A27449  26.155  12.927   7.950
 2027POPC   C4A27450  26.080  13.134   7.577
 2027POPC   C1B27451  25.757  12.390   8.716
 2027POPC   C2B27452  25.554  12.627   8.406
 2027POPC   C3B27453  25.684  12.671   7.993
 2027POPC   C4B27454  25.827  12.684   7.578
 2028POPC   NC327455  17.170  34.580   9.658
 2028POPC   PO427456  17.825  34.847   9.473
 2028POPC   GL127457  17.626  34.643   9.116
 2028POPC   GL227458  17.289  34.547   9.153
 2028POPC   C1A27459  17.442  34.717   8.691
 2028POPC   D2A27460  17.259  34.793   8.293
 2028POPC   C3A27461  17.517  34.587   7.975
 2028POPC   C4A27462  17.926  34.793   7.897
 2028POPC   C1B27463  17.199  34.254   8.793
 2028POPC   C2B27464  17.239  34.268   8.329
 2028POPC   C3B27465  17.117  34.238   7.874
 2028POPC   C4B27466  17.134  34.389   7.438
 2029POPC   NC327467  35.119  32.200   9.881
 2029POPC   PO427468  35.362  32.016   9.288
 2029POPC   GL127469  35.266  32.359   9.077
 2029POPC   GL227470  35.608  32.387   8.896
 2029POPC   C1A27471  35.177  32.594   8.709
 2029POPC   D2A27472  35.466  32.484   8.389
 2029POPC   C3A27473  35.207  32.503   8.075
 2029POPC   C4A27474  35.217  32.442   7.664
 2029POPC   C1B27475  35.568  31.988   8.674
 2029POPC   C2B27476  35.701  31.924   8.267
 2029POPC   C3B27477  35.496  32.088   7.907
 2029POPC   C4B27478  35.492  32.080   7.459
 2030POPC   NC327479  15.805   0.199   9.456
 2030POPC   PO427480  16.368   0.632   9.484
 2030POPC   GL127481  16.125   0.471   9.119
 2030POPC   GL227482  15.736   0.506   9.069
 2030POPC   C1A27483  16.037   0.585   8.691
 2030POPC   D2A27484  15.769   0.781   8.426
 2030POPC   C3A27485  15.901   0.626   8.084
 2030POPC   C4A27486  15.887   0.565   7.658
 2030POPC   C1B27487  15.606   0.298   8.675
 2030POPC   C2B27488  15.653   0.191   8.234
 2030POPC   C3B27489  16.003   0.142   7.955
 2030POPC   C4B27490  16.297   0.135   7.614
 2031POPC   NC327491   2.737  23.204   9.541
 2031POPC   PO427492   2.954  22.620   9.463
 2031POPC   GL127493   3.164  22.890   9.203
 2031POPC   GL227494   2.913  23.138   9.072
 2031POPC   C1A27495   3.128  22.783   8.775
 2031POPC   D2A27496   2.827  22.794   8.443
 2031POPC   C3A27497   3.049  22.917   8.084
 2031POPC   C4A27498   2.994  22.780   7.673
 2031POPC   C1B27499   2.543  22.969   8.852
 2031POPC   C2B27500   2.372  23.133   8.451
 2031POPC   C3B27501   2.446  23.295   8.078
 2031POPC   C4B27502   2.751  23.201   7.763
 2032POPC   NC327503   3.258   9.210   9.431
 2032POPC   PO427504   3.502   8.611   9.714
 2032POPC   GL127505   3.688   8.608   9.257
 2032POPC   GL227506   4.053   8.745   9.216
 2032POPC   C1A27507   3.665   8.738   8.801
 2032POPC   D2A27508   3.562   8.689   8.330
 2032POPC   C3A27509   3.441   9.068   8.118
 2032POPC   C4A27510   3.278   9.183   7.744
 2032POPC   C1B27511   4.098   9.014   8.834
 2032POPC   C2B27512   3.884   9.090   8.434
 2032POPC   C3B27513   3.926   8.913   8.016
 2032POPC   C4B27514   3.795   9.176   7.710
 2033POPC   NC327515  35.397  35.580   9.489
 2033POPC   PO427516  34.953  35.099   9.528
 2033POPC   GL127517  35.153  35.183   9.133
 2033POPC   GL227518  35.524  35.235   9.109
 2033POPC   C1A27519  35.225  35.214   8.687
 2033POPC   D2A27520  35.466  35.208   8.301
 2033POPC   C3A27521  35.188  35.377   8.015
 2033POPC   C4A27522  34.987  35.211   7.683
 2033POPC   C1B27523  35.706  35.442   8.727
 2033POPC   C2B27524  35.959  35.337   8.356
 2033POPC   C3B27525  35.804  35.377   7.923
 2033POPC   C4B27526  35.525  35.152   7.671
 2034POPC   NC327527  43.881  37.852   9.470
 2034POPC   PO427528  43.979  38.527   9.556
 2034POPC   GL127529  43.817  38.332   9.199
 2034POPC   GL227530  44.138  38.189   9.159
 2034POPC   C1A27531  43.805  38.489   8.776
 2034POPC   D2A27532  44.044  38.671   8.446
 2034POPC   C3A27533  43.885  38.624   8.037
 2034POPC   C4A27534  44.050  38.644   7.619
 2034POPC   C1B27535  44.288  38.291   8.752
 2034POPC   C2B27536  44.089  38.158   8.376
 2034POPC   C3B27537  43.964  37.964   8.007
 2034POPC   C4B27538  43.971  38.123   7.577
 2035POPC   NC327539  40.858  27.929   9.721
 2035POPC   PO427540  40.542  27.329   9.461
 2035POPC   GL127541  40.781  27.469   9.147
 2035POPC   GL227542  40.754  27.823   9.166
 2035POPC   C1A27543  40.744  27.521   8.727
 2035POPC   D2A27544  40.660  27.673   8.352
 2035POPC   C3A27545  40.917  27.569   8.029
 2035POPC   C4A27546  40.702  27.389   7.695
 2035POPC   C1B27547  41.122  27.842   8.862
 2035POPC   C2B27548  41.236  28.057   8.451
 2035POPC   C3B27549  41.165  28.012   7.993
 2035POPC   C4B27550  41.001  27.793   7.570
 2036POPC   NC327551  41.482   6.400   9.368
 2036POPC   PO427552  41.315   5.784   9.486
 2036POPC   GL127553  41.522   5.942   9.116
 2036POPC   GL227554  41.262   6.150   8.991
 2036POPC   C1A27555  41.649   5.982   8.680
 2036POPC   D2A27556  41.495   5.901   8.260
 2036POPC   C3A27557  41.803   5.779   7.968
 2036POPC   C4A27558  41.819   5.833   7.549
 2036POPC   C1B27559  41.176   5.749   8.793
 2036POPC   C2B27560  41.034   5.645   8.408
 2036POPC   C3B27561  41.180   5.549   8.012
 2036POPC   C4B27562  41.349   5.802   7.732
 2037POPC   NC327563   2.593  17.180   9.516
 2037POPC   PO427564   2.998  16.622   9.448
 2037POPC   GL127565   2.761  16.834   9.171
 2037POPC   GL227566   2.595  16.551   9.053
 2037POPC   C1A27567   2.584  16.981   8.788
 2037POPC   D2A27568   2.555  16.751   8.422
 2037POPC   C3A27569   2.734  17.004   8.123
 2037POPC   C4A27570   2.673  17.092   7.725
 2037POPC   C1B27571   2.952  16.556   8.766
 2037POPC   C2B27572   3.064  16.630   8.345
 2037POPC   C3B27573   2.820  16.532   7.974
 2037POPC   C4B27574   2.948  16.597   7.572
 2038POPC   NC327575   5.056  40.161   9.283
 2038POPC   PO427576   5.424  39.637   9.444
 2038POPC   GL127577   5.196  39.735   9.055
 2038POPC   GL227578   4.843  39.650   9.120
 2038POPC   C1A27579   5.158  39.983   8.691
 2038POPC   D2A27580   5.388  40.018   8.365
 2038POPC   C3A27581   5.253  39.936   7.991
 2038POPC   C4A27582   5.093  40.023   7.636
 2038POPC   C1B27583   4.683  39.791   8.705
 2038POPC   C2B27584   4.855  39.877   8.302
 2038POPC   C3B27585   4.742  39.740   7.911
 2038POPC   C4B27586   4.751  39.624   7.514
 2039POPC   NC327587  26.358  23.024   9.498
 2039POPC   PO427588  25.724  22.980   9.486
 2039POPC   GL127589  25.968  22.958   9.142
 2039POPC   GL227590  26.102  23.302   9.142
 2039POPC   C1A27591  26.134  22.984   8.728
 2039POPC   D2A27592  26.377  22.850   8.370
 2039POPC   C3A27593  26.207  22.894   7.969
 2039POPC   C4A27594  25.950  22.817   7.624
 2039POPC   C1B27595  25.744  23.315   8.852
 2039POPC   C2B27596  25.667  23.273   8.422
 2039POPC   C3B27597  25.749  23.134   8.002
 2039POPC   C4B27598  26.049  23.313   7.685
 2040POPC   NC327599  16.442  23.114   9.567
 2040POPC   PO427600  16.941  22.729   9.539
 2040POPC   GL127601  17.013  23.039   9.228
 2040POPC   GL227602  16.667  23.089   9.101
 2040POPC   C1A27603  17.143  23.108   8.797
 2040POPC   D2A27604  17.034  23.393   8.458
 2040POPC   C3A27605  17.072  23.218   8.064
 2040POPC   C4A27606  16.829  23.012   7.753
 2040POPC   C1B27607  16.753  22.750   8.799
 2040POPC   C2B27608  16.852  22.814   8.353
 2040POPC   C3B27609  16.804  22.557   7.979
 2040POPC   C4B27610  16.492  22.390   7.711
 2041POPC   NC327611  14.357   7.643   9.553
 2041POPC   PO427612  14.279   6.976   9.383
 2041POPC   GL127613  14.331   7.367   9.152
 2041POPC   GL227614  14.062   7.624   9.130
 2041POPC   C1A27615  14.575   7.475   8.825
 2041POPC   D2A27616  14.666   7.196   8.518
 2041POPC   C3A27617  14.535   7.315   8.122
 2041POPC   C4A27618  14.636   7.090   7.769
 2041POPC   C1B27619  14.190   7.819   8.779
 2041POPC   C2B27620  14.255   7.635   8.443
 2041POPC   C3B27621  13.965   7.782   8.185
 2041POPC   C4B27622  14.114   7.801   7.780
 2042POPC   NC327623   5.854  40.463   9.465
 2042POPC   PO427624   5.789  41.101   9.513
 2042POPC   GL127625   5.793  40.833   9.125
 2042POPC   GL227626   5.506  40.840   8.957
 2042POPC   C1A27627   5.755  40.429   8.801
 2042POPC   D2A27628   5.590  40.469   8.342
 2042POPC   C3A27629   5.876  40.459   8.020
 2042POPC   C4A27630   6.160  40.789   7.879
 2042POPC   C1B27631   5.748  40.889   8.596
 2042POPC   C2B27632   5.833  41.089   8.232
 2042POPC   C3B27633   5.676  40.924   7.878
 2042POPC   C4B27634   5.686  41.104   7.486
 2043POPC   NC327635   0.903  17.652   9.434
 2043POPC   PO427636   1.464  17.155   9.472
 2043POPC   GL127637   1.306  17.421   9.193
 2043POPC   GL227638   1.145  17.173   9.008
 2043POPC   C1A27639   1.249  17.647   8.806
 2043POPC   D2A27640   1.376  17.559   8.403
 2043POPC   C3A27641   1.113  17.644   8.067
 2043POPC   C4A27642   1.093  17.336   7.732
 2043POPC   C1B27643   1.577  17.244   8.770
 2043POPC   C2B27644   1.727  17.136   8.347
 2043POPC   C3B27645   1.570  17.311   7.962
 2043POPC   C4B27646   1.575  17.280   7.508
 2044POPC   NC327647  16.695   2.823   9.470
 2044POPC   PO427648  17.000   2.211   9.423
 2044POPC   GL127649  16.779   2.529   9.074
 2044POPC   GL227650  16.952   2.881   9.045
 2044POPC   C1A27651  16.584   2.818   8.704
 2044POPC   D2A27652  16.326   2.862   8.325
 2044POPC   C3A27653  16.587   2.803   7.989
 2044POPC   C4A27654  16.843   3.071   7.785
 2044POPC   C1B27655  17.077   2.681   8.678
 2044POPC   C2B27656  17.020   2.790   8.287
 2044POPC   C3B27657  17.052   2.615   7.918
 2044POPC   C4B27658  16.741   2.308   7.820
 2045POPC   NC327659  39.865  17.381   9.588
 2045POPC   PO427660  40.319  17.041   9.249
 2045POPC   GL127661  40.087  17.398   9.103
 2045POPC   GL227662  39.753  17.486   9.131
 2045POPC   C1A27663  40.228  17.640   8.787
 2045POPC   D2A27664  40.397  17.486   8.420
 2045POPC   C3A27665  40.372  17.731   8.049
 2045POPC   C4A27666  40.295  17.472   7.712
 2045POPC   C1B27667  39.596  17.676   8.813
 2045POPC   C2B27668  39.836  17.608   8.458
 2045POPC   C3B27669  39.882  17.898   8.155
 2045POPC   C4B27670  39.784  17.628   7.827
 2046POPC   NC327671  44.481  18.723   9.441
 2046POPC   PO427672  44.455  18.068   9.344
 2046POPC   GL127673  44.707  18.366   9.164
 2046POPC   GL227674  44.993  18.186   9.088
 2046POPC   C1A27675  44.635  18.600   8.796
 2046POPC   D2A27676  44.594  18.591   8.378
 2046POPC   C3A27677  44.766  18.307   8.092
 2046POPC   C4A27678  44.677  18.434   7.680
 2046POPC   C1B27679  44.702  18.107   8.726
 2046POPC   C2B27680  44.411  18.060   8.431
 2046POPC   C3B27681  44.533  17.774   8.139
 2046POPC   C4B27682  44.580  17.935   7.756
 2047POPC   NC327683  11.540   9.034   9.732
 2047POPC   PO427684  11.152   8.655   9.358
 2047POPC   GL127685  11.313   8.845   8.950
 2047POPC   GL227686  11.551   9.115   9.082
 2047POPC   C1A27687  11.201   9.136   8.611
 2047POPC   D2A27688  10.958   9.088   8.221
 2047POPC   C3A27689  11.248   8.981   7.919
 2047POPC   C4A27690  11.249   8.893   7.489
 2047POPC   C1B27691  11.741   9.083   8.725
 2047POPC   C2B27692  11.637   8.924   8.331
 2047POPC   C3B27693  11.774   9.083   7.955
 2047POPC   C4B27694  11.619   9.205   7.584
 2048POPC   NC327695  28.553   6.967   9.533
 2048POPC   PO427696  28.432   6.416   9.572
 2048POPC   GL127697  28.427   6.671   9.140
 2048POPC   GL227698  28.664   6.966   9.043
 2048POPC   C1A27699  28.341   6.625   8.702
 2048POPC   D2A27700  28.251   6.474   8.294
 2048POPC   C3A27701  28.268   6.837   8.016
 2048POPC   C4A27702  28.026   6.846   7.636
 2048POPC   C1B27703  28.848   6.693   8.761
 2048POPC   C2B27704  28.752   6.532   8.379
 2048POPC   C3B27705  28.648   6.473   7.955
 2048POPC   C4B27706  28.532   6.634   7.593
 2049POPC   NC327707  24.321  15.743   9.489
 2049POPC   PO427708  24.769  16.194   9.548
 2049POPC   GL127709  24.656  16.008   9.172
 2049POPC   GL227710  24.273  16.107   9.128
 2049POPC   C1A27711  24.624  16.087   8.741
 2049POPC   D2A27712  24.441  15.870   8.380
 2049POPC   C3A27713  24.538  16.012   7.975
 2049POPC   C4A27714  24.532  15.829   7.572
 2049POPC   C1B27715  24.123  16.215   8.711
 2049POPC   C2B27716  24.237  16.333   8.286
 2049POPC   C3B27717  24.095  16.239   7.911
 2049POPC   C4B27718  24.065  15.795   7.765
 2050POPC   NC327719  43.481  37.317   9.277
 2050POPC   PO427720  44.098  37.414   9.521
 2050POPC   GL127721  43.954  37.524   9.095
 2050POPC   GL227722  43.799  37.842   8.963
 2050POPC   C1A27723  44.010  37.397   8.695
 2050POPC   D2A27724  44.179  37.636   8.380
 2050POPC   C3A27725  44.169  37.454   8.021
 2050POPC   C4A27726  44.042  37.606   7.650
 2050POPC   C1B27727  43.539  37.622   8.650
 2050POPC   C2B27728  43.680  37.559   8.226
 2050POPC   C3B27729  43.719  37.292   7.866
 2050POPC   C4B27730  43.620  37.349   7.444
 2051POPC   NC327731  17.352  14.273   9.469
 2051POPC   PO427732  17.629  14.927   9.441
 2051POPC   GL127733  17.584  14.609   9.125
 2051POPC   GL227734  17.554  14.239   9.016
 2051POPC   C1A27735  17.357  14.614   8.752
 2051POPC   D2A27736  17.214  14.523   8.366
 2051POPC   C3A27737  17.370  14.280   8.062
 2051POPC   C4A27738  17.517  14.479   7.712
 2051POPC   C1B27739  17.702  13.986   8.714
 2051POPC   C2B27740  17.836  14.175   8.360
 2051POPC   C3B27741  17.879  14.234   7.959
 2051POPC   C4B27742  17.853  14.059   7.583
 2052POPC   NC327743  16.479  15.589   9.346
 2052POPC   PO427744  15.856  15.846   9.461
 2052POPC   GL127745  16.044  16.051   9.166
 2052POPC   GL227746  16.048  15.787   8.980
 2052POPC   C1A27747  16.029  16.255   8.785
 2052POPC   D2A27748  16.055  15.967   8.435
 2052POPC   C3A27749  16.024  16.188   8.053
 2052POPC   C4A27750  15.832  16.217   7.672
 2052POPC   C1B27751  16.275  15.551   8.724
 2052POPC   C2B27752  16.418  15.600   8.367
 2052POPC   C3B27753  16.210  15.599   8.040
 2052POPC   C4B27754  16.208  15.863   7.712
 2053POPC   NC327755  36.519  39.871   9.479
 2053POPC   PO427756  35.984  40.356   9.464
 2053POPC   GL127757  36.172  40.048   9.131
 2053POPC   GL227758  36.440  39.804   8.991
 2053POPC   C1A27759  35.995  39.892   8.759
 2053POPC   D2A27760  35.673  40.061   8.533
 2053POPC   C3A27761  35.710  40.172   8.148
 2053POPC   C4A27762  35.987  40.019   7.851
 2053POPC   C1B27763  36.443  40.171   8.717
 2053POPC   C2B27764  36.235  40.266   8.308
 2053POPC   C3B27765  36.452  40.157   7.914
 2053POPC   C4B27766  36.701  39.855   7.720
 2054POPC   NC327767  24.674  23.304   9.404
 2054POPC   PO427768  24.204  22.917   9.692
 2054POPC   GL127769  24.191  23.083   9.222
 2054POPC   GL227770  24.479  23.099   8.997
 2054POPC   C1A27771  24.155  22.824   8.764
 2054POPC   D2A27772  24.291  23.054   8.408
 2054POPC   C3A27773  24.379  22.918   7.995
 2054POPC   C4A27774  24.472  22.585   7.750
 2054POPC   C1B27775  24.734  23.380   8.775
 2054POPC   C2B27776  24.767  23.267   8.398
 2054POPC   C3B27777  24.511  23.410   8.098
 2054POPC   C4B27778  24.762  23.376   7.797
 2055POPC   NC327779  43.822  39.631   9.445
 2055POPC   PO427780  44.022  40.281   9.489
 2055POPC   GL127781  44.015  40.081   9.072
 2055POPC   GL227782  43.680  39.983   9.091
 2055POPC   C1A27783  43.768  40.270   8.667
 2055POPC   D2A27784  43.504  40.246   8.284
 2055POPC   C3A27785  43.722  39.962   7.994
 2055POPC   C4A27786  44.154  39.924   7.914
 2055POPC   C1B27787  43.775  39.753   8.710
 2055POPC   C2B27788  43.965  39.634   8.332
 2055POPC   C3B27789  43.678  39.422   8.095
 2055POPC   C4B27790  43.536  39.544   7.722
 2056POPC   NC327791  36.879  19.658   9.778
 2056POPC   PO427792  36.879  19.022   9.538
 2056POPC   GL127793  36.983  19.055   9.112
 2056POPC   GL227794  36.978  19.396   9.123
 2056POPC   C1A27795  37.185  19.076   8.708
 2056POPC   D2A27796  37.076  19.228   8.302
 2056POPC   C3A27797  36.950  18.940   7.992
 2056POPC   C4A27798  37.277  18.984   7.701
 2056POPC   C1B27799  36.891  19.505   8.701
 2056POPC   C2B27800  36.632  19.492   8.329
 2056POPC   C3B27801  36.769  19.395   7.905
 2056POPC   C4B27802  36.866  19.214   7.481
 2057POPC   NC327803  11.545  18.743   9.449
 2057POPC   PO427804  11.164  18.178   9.525
 2057POPC   GL127805  11.236  18.412   9.197
 2057POPC   GL227806  11.501  18.196   9.114
 2057POPC   C1A27807  11.173  18.541   8.777
 2057POPC   D2A27808  11.190  18.326   8.368
 2057POPC   C3A27809  11.303  18.572   8.000
 2057POPC   C4A27810  11.616  18.465   7.694
 2057POPC   C1B27811  11.528  17.884   8.798
 2057POPC   C2B27812  11.678  17.931   8.377
 2057POPC   C3B27813  11.438  18.033   8.005
 2057POPC   C4B27814  11.125  18.169   7.754
 2058POPC   NC327815   6.521  11.026   9.670
 2058POPC   PO427816   6.453  11.632   9.756
 2058POPC   GL127817   6.570  11.348   9.299
 2058POPC   GL227818   6.663  10.980   9.193
 2058POPC   C1A27819   6.611  11.345   8.829
 2058POPC   D2A27820   6.722  11.446   8.400
 2058POPC   C3A27821   6.491  11.451   7.990
 2058POPC   C4A27822   6.769  11.231   7.670
 2058POPC   C1B27823   6.520  10.835   8.788
 2058POPC   C2B27824   6.313  10.740   8.373
 2058POPC   C3B27825   6.269  10.980   7.954
 2058POPC   C4B27826   6.349  11.019   7.480
 2059POPC   NC327827  15.900  14.569   9.662
 2059POPC   PO427828  15.568  14.968   9.288
 2059POPC   GL127829  15.796  14.544   9.159
 2059POPC   GL227830  16.166  14.452   9.094
 2059POPC   C1A27831  15.811  14.304   8.783
 2059POPC   D2A27832  15.759  14.505   8.414
 2059POPC   C3A27833  15.997  14.309   8.115
 2059POPC   C4A27834  15.906  14.444   7.723
 2059POPC   C1B27835  16.390  14.568   8.685
 2059POPC   C2B27836  16.255  14.762   8.270
 2059POPC   C3B27837  16.283  14.776   7.797
 2059POPC   C4B27838  16.352  14.751   7.299
 2060POPC   NC327839  29.673  31.683   9.522
 2060POPC   PO427840  30.252  31.453   9.424
 2060POPC   GL127841  29.958  31.435   9.142
 2060POPC   GL227842  30.046  31.798   9.105
 2060POPC   C1A27843  29.796  31.314   8.738
 2060POPC   D2A27844  29.828  31.493   8.331
 2060POPC   C3A27845  29.896  31.267   7.944
 2060POPC   C4A27846  29.523  31.338   7.704
 2060POPC   C1B27847  29.974  31.805   8.704
 2060POPC   C2B27848  30.117  31.942   8.312
 2060POPC   C3B27849  29.881  31.848   7.946
 2060POPC   C4B27850  30.198  31.679   7.736
 2061POPC   NC327851   7.654  15.439   9.657
 2061POPC   PO427852   8.233  15.151   9.580
 2061POPC   GL127853   8.299  15.262   9.141
 2061POPC   GL227854   8.502  15.559   9.077
 2061POPC   C1A27855   8.131  15.262   8.713
 2061POPC   D2A27856   7.878  15.241   8.335
 2061POPC   C3A27857   8.065  15.210   7.953
 2061POPC   C4A27858   8.068  14.924   7.596
 2061POPC   C1B27859   8.366  15.711   8.683
 2061POPC   C2B27860   8.397  15.487   8.301
 2061POPC   C3B27861   8.483  15.457   7.859
 2061POPC   C4B27862   8.271  15.369   7.471
 2062POPC   NC327863   4.461   0.485  10.029
 2062POPC   PO427864   4.091   0.311   9.496
 2062POPC   GL127865   4.391   0.478   9.256
 2062POPC   GL227866   4.182   0.797   9.218
 2062POPC   C1A27867   4.583   0.428   8.859
 2062POPC   D2A27868   4.377   0.270   8.488
 2062POPC   C3A27869   4.568   0.312   8.079
 2062POPC   C4A27870   4.447   0.414   7.678
 2062POPC   C1B27871   4.115   0.628   8.832
 2062POPC   C2B27872   4.117   0.813   8.420
 2062POPC   C3B27873   4.135   0.624   8.024
 2062POPC   C4B27874   4.128   0.790   7.595
 2063POPC   NC327875  11.043   4.150   9.389
 2063POPC   PO427876  11.665   4.471   9.574
 2063POPC   GL127877  11.390   4.490   9.209
 2063POPC   GL227878  11.529   4.160   9.175
 2063POPC   C1A27879  11.217   4.344   8.792
 2063POPC   D2A27880  11.197   4.585   8.384
 2063POPC   C3A27881  10.931   4.467   8.035
 2063POPC   C4A27882  11.073   4.302   7.650
 2063POPC   C1B27883  11.664   4.054   8.786
 2063POPC   C2B27884  11.500   4.180   8.385
 2063POPC   C3B27885  11.478   4.333   7.946
 2063POPC   C4B27886  11.583   4.206   7.469
 2064POPC   NC327887  27.362  14.735   9.360
 2064POPC   PO427888  27.716  15.168   9.795
 2064POPC   GL127889  27.810  15.270   9.330
 2064POPC   GL227890  27.878  14.982   9.145
 2064POPC   C1A27891  27.527  15.324   8.938
 2064POPC   D2A27892  27.304  15.432   8.542
 2064POPC   C3A27893  27.530  15.431   8.139
 2064POPC   C4A27894  27.551  15.258   7.725
 2064POPC   C1B27895  27.618  14.858   8.769
 2064POPC   C2B27896  27.722  15.059   8.422
 2064POPC   C3B27897  27.666  14.882   8.038
 2064POPC   C4B27898  27.924  14.600   7.815
 2065POPC   NC327899  15.290   1.563   9.574
 2065POPC   PO427900  14.684   1.211   9.452
 2065POPC   GL127901  15.088   1.220   9.228
 2065POPC   GL227902  15.309   0.911   9.229
 2065POPC   C1A27903  15.364   1.312   8.884
 2065POPC   D2A27904  15.379   1.593   8.510
 2065POPC   C3A27905  15.336   1.470   8.061
 2065POPC   C4A27906  15.483   1.491   7.625
 2065POPC   C1B27907  15.434   0.818   8.805
 2065POPC   C2B27908  15.321   1.057   8.442
 2065POPC   C3B27909  15.112   0.996   8.092
 2065POPC   C4B27910  15.187   1.099   7.688
 2066POPC   NC327911  17.847  32.277   9.447
 2066POPC   PO427912  17.256  32.172   9.647
 2066POPC   GL127913  17.466  32.136   9.168
 2066POPC   GL227914  17.827  32.042   8.993
 2066POPC   C1A27915  17.374  31.974   8.768
 2066POPC   D2A27916  17.596  31.918   8.389
 2066POPC   C3A27917  17.399  31.994   8.029
 2066POPC   C4A27918  17.385  32.418   7.859
 2066POPC   C1B27919  17.752  32.332   8.656
 2066POPC   C2B27920  17.766  32.429   8.213
 2066POPC   C3B27921  17.831  32.195   7.825
 2066POPC   C4B27922  17.836  32.291   7.304
 2067POPC   NC327923  30.027  12.846   9.671
 2067POPC   PO427924  29.419  12.762   9.406
 2067POPC   GL127925  29.817  12.742   9.194
 2067POPC   GL227926  30.131  12.950   9.188
 2067POPC   C1A27927  29.933  12.739   8.775
 2067POPC   D2A27928  29.723  12.993   8.444
 2067POPC   C3A27929  29.638  12.883   8.016
 2067POPC   C4A27930  29.776  12.614   7.682
 2067POPC   C1B27931  30.334  13.027   8.751
 2067POPC   C2B27932  30.237  12.988   8.331
 2067POPC   C3B27933  30.148  12.897   7.919
 2067POPC   C4B27934  29.884  13.108   7.628
 2068POPC   NC327935   8.859  28.010   9.574
 2068POPC   PO427936   9.253  27.463   9.418
 2068POPC   GL127937   8.999  27.740   9.172
 2068POPC   GL227938   9.269  27.757   8.928
 2068POPC   C1A27939   8.794  27.863   8.784
 2068POPC   D2A27940   9.033  27.721   8.414
 2068POPC   C3A27941   8.930  27.678   8.005
 2068POPC   C4A27942   9.124  27.945   7.698
 2068POPC   C1B27943   8.981  27.387   8.794
 2068POPC   C2B27944   8.825  27.241   8.393
 2068POPC   C3B27945   9.012  27.179   7.989
 2068POPC   C4B27946   9.430  27.152   7.822
 2069POPC   NC327947  19.131  40.943   9.531
 2069POPC   PO427948  19.138  40.247   9.562
 2069POPC   GL127949  19.154  40.598   9.148
 2069POPC   GL227950  18.949  40.909   9.070
 2069POPC   C1A27951  19.331  40.804   8.746
 2069POPC   D2A27952  19.513  40.643   8.341
 2069POPC   C3A27953  19.334  40.649   7.919
 2069POPC   C4A27954  19.180  40.468   7.538
 2069POPC   C1B27955  18.833  40.675   8.717
 2069POPC   C2B27956  18.973  40.615   8.296
 2069POPC   C3B27957  18.789  40.626   7.870
 2069POPC   C4B27958  18.732  40.957   7.551
 2070POPC   NC327959  24.691   8.954   9.356
 2070POPC   PO427960  24.016   8.704   9.389
 2070POPC   GL127961  24.257   9.059   9.070
 2070POPC   GL227962  24.627   9.231   8.958
 2070POPC   C1A27963  24.228   9.236   8.672
 2070POPC   D2A27964  24.496   9.299   8.340
 2070POPC   C3A27965  24.418   9.043   7.965
 2070POPC   C4A27966  24.507   8.943   7.518
 2070POPC   C1B27967  24.734   8.909   8.666
 2070POPC   C2B27968  24.878   8.945   8.256
 2070POPC   C3B27969  24.936   9.075   7.850
 2070POPC   C4B27970  24.992   8.780   7.540
 2071POPC   NC327971  11.843  26.346   9.497
 2071POPC   PO427972  12.211  25.830   9.458
 2071POPC   GL127973  12.151  26.142   9.151
 2071POPC   GL227974  12.473  26.212   9.037
 2071POPC   C1A27975  12.032  26.305   8.749
 2071POPC   D2A27976  12.174  26.157   8.356
 2071POPC   C3A27977  11.858  26.124   8.061
 2071POPC   C4A27978  11.930  26.098   7.666
 2071POPC   C1B27979  12.311  25.848   8.749
 2071POPC   C2B27980  12.349  25.595   8.379
 2071POPC   C3B27981  12.240  25.769   7.976
 2071POPC   C4B27982  12.009  25.587   7.636
 2072POPC   NC327983   0.465  20.019   9.817
 2072POPC   PO427984   1.024  19.708   9.542
 2072POPC   GL127985   0.654  19.614   9.195
 2072POPC   GL227986   0.284  19.759   9.195
 2072POPC   C1A27987   0.440  19.654   8.739
 2072POPC   D2A27988   0.401  19.918   8.355
 2072POPC   C3A27989   0.362  19.702   7.975
 2072POPC   C4A27990   0.520  19.628   7.577
 2072POPC   C1B27991   0.100  20.016   8.785
 2072POPC   C2B27992  44.890  19.952   8.381
 2072POPC   C3B27993  44.920  19.946   7.927
 2072POPC   C4B27994   0.161  19.972   7.533
 2073POPC   NC327995  44.391   7.240   9.410
 2073POPC   PO427996  44.773   7.760   9.440
 2073POPC   GL127997  44.772   7.463   9.109
 2073POPC   GL227998  44.477   7.539   8.980
 2073POPC   C1A27999  44.683   7.134   8.784
 2073POPC   D2A28000  44.783   7.128   8.352
 2073POPC   C3A28001  44.475   7.221   8.067
 2073POPC   C4A28002  44.616   7.127   7.692
 2073POPC   C1B28003  44.412   7.476   8.533
 2073POPC   C2B28004  44.702   7.655   8.268
 2073POPC   C3B28005  44.749   7.884   7.890
 2073POPC   C4B28006   0.055   7.903   7.561
 2074POPC   NC328007  38.174  17.824   9.498
 2074POPC   PO428008  38.442  17.264   9.479
 2074POPC   GL128009  38.496  17.464   9.139
 2074POPC   GL228010  38.253  17.662   9.049
 2074POPC   C1A28011  38.613  17.282   8.774
 2074POPC   D2A28012  38.457  17.082   8.437
 2074POPC   C3A28013  38.622  17.274   8.074
 2074POPC   C4A28014  38.456  17.392   7.696
 2074POPC   C1B28015  38.090  17.759   8.688
 2074POPC   C2B28016  38.084  17.549   8.301
 2074POPC   C3B28017  38.020  17.562   7.834
 2074POPC   C4B28018  38.131  17.717   7.391
 2075POPC   NC328019   3.660  40.431   9.418
 2075POPC   PO428020   3.192  40.680   9.782
 2075POPC   GL128021   3.355  40.826   9.309
 2075POPC   GL228022   3.681  41.003   9.214
 2075POPC   C1A28023   3.354  40.818   8.851
 2075POPC   D2A28024   3.526  41.010   8.490
 2075POPC   C3A28025   3.227  41.084   8.150
 2075POPC   C4A28026   3.237  40.843   7.763
 2075POPC   C1B28027   3.873  40.773   8.827
 2075POPC   C2B28028   3.877  40.647   8.401
 2075POPC   C3B28029   3.646  40.699   8.032
 2075POPC   C4B28030   3.745  40.638   7.579
 2076POPC   NC328031   1.142  11.951   9.345
 2076POPC   PO428032   1.582  12.512   9.399
 2076POPC   GL128033   1.413  12.289   9.029
 2076POPC   GL228034   1.357  11.911   8.901
 2076POPC   C1A28035   1.360  12.343   8.608
 2076POPC   D2A28036   1.162  12.420   8.238
 2076POPC   C3A28037   1.025  12.038   8.076
 2076POPC   C4A28038   1.197  11.797   7.804
 2076POPC   C1B28039   1.020  11.906   8.576
 2076POPC   C2B28040   0.655  11.744   8.325
 2076POPC   C3B28041   0.622  11.704   7.890
 2076POPC   C4B28042   0.740  12.063   7.624
 2077POPC   NC328043  12.171   0.761   9.523
 2077POPC   PO428044  12.057   0.039   9.581
 2077POPC   GL128045  11.960   0.352   9.270
 2077POPC   GL228046  12.320   0.368   9.204
 2077POPC   C1A28047  11.905   0.356   8.799
 2077POPC   D2A28048  11.694   0.592   8.434
 2077POPC   C3A28049  11.734   0.424   8.010
 2077POPC   C4A28050  12.038   0.156   7.841
 2077POPC   C1B28051  12.376   0.586   8.816
 2077POPC   C2B28052  12.416   0.405   8.395
 2077POPC   C3B28053  12.343   0.583   7.978
 2077POPC   C4B28054  12.330   0.500   7.540
 2078POPC   NC328055  44.284  44.424   9.361
 2078POPC   PO428056  44.103   0.043   9.572
 2078POPC   GL128057  43.966  44.795   9.189
 2078POPC   GL228058  43.581  44.868   9.058
 2078POPC   C1A28059  44.024  44.941   8.795
 2078POPC   D2A28060  43.694   0.038   8.560
 2078POPC   C3A28061  43.781  44.831   8.191
 2078POPC   C4A28062  44.042  44.935   7.893
 2078POPC   C1B28063  43.732  44.532   8.751
 2078POPC   C2B28064  44.095  44.520   8.459
 2078POPC   C3B28065  44.055  44.409   8.010
 2078POPC   C4B28066  43.793  44.474   7.628
 2079POPC   NC328067  30.306  33.454   9.770
 2079POPC   PO428068  29.811  33.742   9.399
 2079POPC   GL128069  29.843  33.734   9.004
 2079POPC   GL228070  29.663  33.474   8.922
 2079POPC   C1A28071  30.115  33.837   8.667
 2079POPC   D2A28072  30.012  33.880   8.254
 2079POPC   C3A28073  30.137  34.143   7.921
 2079POPC   C4A28074  29.900  33.853   7.694
 2079POPC   C1B28075  29.590  33.772   8.574
 2079POPC   C2B28076  29.530  33.663   8.179
 2079POPC   C3B28077  29.408  33.850   7.808
 2079POPC   C4B28078  29.489  33.556   7.477
 2080POPC   NC328079  17.942  25.124   9.271
 2080POPC   PO428080  17.347  24.884   9.380
 2080POPC   GL128081  17.449  25.202   9.096
 2080POPC   GL228082  17.503  25.517   9.281
 2080POPC   C1A28083  17.318  25.319   8.698
 2080POPC   D2A28084  17.318  25.110   8.331
 2080POPC   C3A28085  17.234  25.308   7.993
 2080POPC   C4A28086  17.420  25.370   7.625
 2080POPC   C1B28087  17.632  25.694   8.883
 2080POPC   C2B28088  17.547  25.737   8.432
 2080POPC   C3B28089  17.653  25.626   8.012
 2080POPC   C4B28090  17.859  25.611   7.581
 2081POPC   NC328091  33.864  40.044   9.472
 2081POPC   PO428092  34.192  39.472   9.499
 2081POPC   GL128093  34.052  39.695   9.138
 2081POPC   GL228094  33.668  39.750   9.096
 2081POPC   C1A28095  34.069  39.943   8.753
 2081POPC   D2A28096  33.889  40.023   8.355
 2081POPC   C3A28097  33.929  39.786   7.984
 2081POPC   C4A28098  33.589  39.843   7.758
 2081POPC   C1B28099  33.551  40.058   8.789
 2081POPC   C2B28100  33.411  40.197   8.381
 2081POPC   C3B28101  33.488  40.317   7.962
 2081POPC   C4B28102  33.924  40.322   7.794
 2082POPC   NC328103  43.993  30.325   9.596
 2082POPC   PO428104  43.948  30.963   9.542
 2082POPC   GL128105  43.824  30.717   9.227
 2082POPC   GL228106  44.155  30.608   9.191
 2082POPC   C1A28107  43.719  30.651   8.792
 2082POPC   D2A28108  43.909  30.736   8.381
 2082POPC   C3A28109  43.768  30.604   7.996
 2082POPC   C4A28110  43.948  30.682   7.605
 2082POPC   C1B28111  44.242  30.668   8.762
 2082POPC   C2B28112  44.357  30.442   8.356
 2082POPC   C3B28113  44.263  30.378   7.891
 2082POPC   C4B28114  44.178  30.294   7.423
 2083POPC   NC328115  13.910  29.655   9.590
 2083POPC   PO428116  13.643  29.032   9.551
 2083POPC   GL128117  13.670  29.234   9.237
 2083POPC   GL228118  13.380  29.481   9.247
 2083POPC   C1A28119  13.846  28.995   8.862
 2083POPC   D2A28120  13.600  28.889   8.503
 2083POPC   C3A28121  13.820  28.832   8.134
 2083POPC   C4A28122  13.689  29.006   7.742
 2083POPC   C1B28123  13.502  29.364   8.799
 2083POPC   C2B28124  13.301  29.340   8.431
 2083POPC   C3B28125  13.344  29.202   8.059
 2083POPC   C4B28126  13.184  29.179   7.661
 2084POPC   NC328127  16.478  15.552   9.881
 2084POPC   PO428128  16.553  15.134   9.344
 2084POPC   GL128129  16.639  15.222   9.005
 2084POPC   GL228130  16.929  15.413   9.105
 2084POPC   C1A28131  16.465  15.089   8.665
 2084POPC   D2A28132  16.706  15.197   8.397
 2084POPC   C3A28133  16.543  15.173   8.047
 2084POPC   C4A28134  16.718  15.003   7.691
 2084POPC   C1B28135  16.802  15.600   8.703
 2084POPC   C2B28136  17.011  15.580   8.278
 2084POPC   C3B28137  17.072  15.349   7.896
 2084POPC   C4B28138  16.999  15.345   7.432
 2085POPC   NC328139  24.849  18.830   9.366
 2085POPC   PO428140  25.120  19.427   9.623
 2085POPC   GL128141  25.292  19.219   9.192
 2085POPC   GL228142  25.325  18.816   9.162
 2085POPC   C1A28143  25.171  19.058   8.747
 2085POPC   D2A28144  24.887  18.940   8.432
 2085POPC   C3A28145  24.966  19.174   8.051
 2085POPC   C4A28146  25.126  19.169   7.637
 2085POPC   C1B28147  25.481  18.686   8.722
 2085POPC   C2B28148  25.369  18.818   8.283
 2085POPC   C3B28149  25.535  19.028   7.916
 2085POPC   C4B28150  25.572  18.912   7.465
 2086POPC   NC328151  20.078  20.129   9.426
 2086POPC   PO428152  19.574  19.659   9.395
 2086POPC   GL128153  19.681  19.670   9.012
 2086POPC   GL228154  20.019  19.766   9.049
 2086POPC   C1A28155  19.529  19.857   8.648
 2086POPC   D2A28156  19.624  20.141   8.320
 2086POPC   C3A28157  19.486  19.975   7.921
 2086POPC   C4A28158  19.681  19.624   7.732
 2086POPC   C1B28159  20.009  20.038   8.698
 2086POPC   C2B28160  20.116  19.892   8.275
 2086POPC   C3B28161  20.096  19.957   7.828
 2086POPC   C4B28162  20.218  20.141   7.399
 2087POPC   NC328163  39.591   0.563   9.437
 2087POPC   PO428164  40.248   0.391   9.556
 2087POPC   GL128165  40.173   0.600   9.201
 2087POPC   GL228166  40.031   0.261   9.104
 2087POPC   C1A28167  40.061   0.790   8.834
 2087POPC   D2A28168  39.999   0.660   8.463
 2087POPC   C3A28169  40.269   0.665   8.136
 2087POPC   C4A28170  39.994   0.543   7.859
 2087POPC   C1B28171  39.838   0.200   8.725
 2087POPC   C2B28172  39.688   0.272   8.318
 2087POPC   C3B28173  39.814   0.089   7.919
 2087POPC   C4B28174  39.687  44.927   7.532
 2088POPC   NC328175  33.894  26.534   9.404
 2088POPC   PO428176  33.561  27.123   9.443
 2088POPC   GL128177  33.691  26.891   9.067
 2088POPC   GL228178  33.947  26.617   8.933
 2088POPC   C1A28179  33.565  26.808   8.648
 2088POPC   D2A28180  33.725  26.649   8.297
 2088POPC   C3A28181  33.555  26.899   8.002
 2088POPC   C4A28182  33.594  26.767   7.603
 2088POPC   C1B28183  34.085  26.932   8.695
 2088POPC   C2B28184  34.223  26.840   8.290
 2088POPC   C3B28185  34.048  26.736   7.878
 2088POPC   C4B28186  34.016  27.033   7.488
 2089POPC   NC328187  19.002  11.997   9.335
 2089POPC   PO428188  19.651  12.172   9.355
 2089POPC   GL128189  19.341  12.313   9.089
 2089POPC   GL228190  19.304  12.036   8.926
 2089POPC   C1A28191  19.117  12.455   8.700
 2089POPC   D2A28192  19.245  12.439   8.278
 2089POPC   C3A28193  19.077  12.136   7.976
 2089POPC   C4A28194  18.868  12.106   7.555
 2089POPC   C1B28195  19.097  11.954   8.562
 2089POPC   C2B28196  19.174  11.648   8.249
 2089POPC   C3B28197  19.308  11.672   7.816
 2089POPC   C4B28198  19.263  11.844   7.381
 2090POPC   NC328199  10.184  31.184   9.626
 2090POPC   PO428200  10.711  31.592   9.499
 2090POPC   GL128201  10.756  31.348   9.150
 2090POPC   GL228202  10.508  31.136   9.223
 2090POPC   C1A28203  10.565  31.418   8.763
 2090POPC   D2A28204  10.297  31.575   8.446
 2090POPC   C3A28205  10.404  31.605   7.994
 2090POPC   C4A28206  10.507  31.706   7.555
 2090POPC   C1B28207  10.380  30.956   8.833
 2090POPC   C2B28208  10.470  31.051   8.404
 2090POPC   C3B28209  10.334  31.098   7.993
 2090POPC   C4B28210  10.588  31.221   7.690
 2091POPC   NC328211  16.231   9.160   9.793
 2091POPC   PO428212  15.773   8.883   9.567
 2091POPC   GL128213  15.914   9.017   9.178
 2091POPC   GL228214  16.011   8.689   9.066
 2091POPC   C1A28215  15.802   9.034   8.744
 2091POPC   D2A28216  15.912   8.799   8.394
 2091POPC   C3A28217  15.998   9.077   8.045
 2091POPC   C4A28218  15.928   8.866   7.658
 2091POPC   C1B28219  16.293   8.827   8.738
 2091POPC   C2B28220  16.422   8.859   8.299
 2091POPC   C3B28221  16.361   8.706   7.870
 2091POPC   C4B28222  16.408   8.726   7.410
 2092POPC   NC328223  38.774  11.019   9.717
 2092POPC   PO428224  38.244  11.342   9.522
 2092POPC   GL128225  38.440  11.423   9.143
 2092POPC   GL228226  38.659  11.688   9.140
 2092POPC   C1A28227  38.372  11.383   8.730
 2092POPC   D2A28228  38.205  11.122   8.385
 2092POPC   C3A28229  38.415  11.182   8.007
 2092POPC   C4A28230  38.305  11.365   7.633
 2092POPC   C1B28231  38.720  11.783   8.699
 2092POPC   C2B28232  38.492  11.666   8.314
 2092POPC   C3B28233  38.594  11.699   7.883
 2092POPC   C4B28234  38.731  11.809   7.428
 2093POPC   NC328235  29.169  34.875   9.734
 2093POPC   PO428236  28.991  34.221   9.503
 2093POPC   GL128237  29.090  34.292   9.087
 2093POPC   GL228238  29.439  34.280   9.057
 2093POPC   C1A28239  28.955  34.575   8.717
 2093POPC   D2A28240  28.874  35.031   8.565
 2093POPC   C3A28241  28.987  35.050   8.102
 2093POPC   C4A28242  29.236  34.839   7.747
 2093POPC   C1B28243  29.244  34.165   8.624
 2093POPC   C2B28244  29.102  34.377   8.219
 2093POPC   C3B28245  29.146  34.303   7.769
 2093POPC   C4B28246  29.329  34.490   7.387
 2094POPC   NC328247  15.766  11.499   9.328
 2094POPC   PO428248  15.852  12.156   9.594
 2094POPC   GL128249  15.844  12.091   9.168
 2094POPC   GL228250  16.176  12.008   9.142
 2094POPC   C1A28251  15.916  12.286   8.769
 2094POPC   D2A28252  16.209  12.198   8.448
 2094POPC   C3A28253  16.014  12.304   8.051
 2094POPC   C4A28254  15.720  12.634   7.974
 2094POPC   C1B28255  16.012  11.776   8.751
 2094POPC   C2B28256  15.829  11.849   8.326
 2094POPC   C3B28257  15.868  11.831   7.858
 2094POPC   C4B28258  15.797  11.784   7.389
 2095POPC   NC328259   3.929  19.176   9.346
 2095POPC   PO428260   3.272  18.966   9.463
 2095POPC   GL128261   3.490  18.949   9.059
 2095POPC   GL228262   3.766  18.752   9.049
 2095POPC   C1A28263   3.538  19.230   8.659
 2095POPC   D2A28264   3.632  19.467   8.231
 2095POPC   C3A28265   3.613  19.229   7.858
 2095POPC   C4A28266   3.375  18.872   7.785
 2095POPC   C1B28267   3.953  18.914   8.685
 2095POPC   C2B28268   3.858  18.979   8.260
 2095POPC   C3B28269   3.931  18.830   7.855
 2095POPC   C4B28270   3.789  18.928   7.464
 2096POPC   NC328271  41.628  15.636   9.522
 2096POPC   PO428272  41.824  15.071   9.335
 2096POPC   GL128273  41.464  15.289   9.108
 2096POPC   GL228274  41.210  15.587   9.206
 2096POPC   C1A28275  41.493  15.186   8.645
 2096POPC   D2A28276  41.826  15.129   8.307
 2096POPC   C3A28277  41.772  15.021   7.838
 2096POPC   C4A28278  41.501  14.780   7.517
 2096POPC   C1B28279  41.344  15.709   8.769
 2096POPC   C2B28280  41.558  15.613   8.389
 2096POPC   C3B28281  41.474  15.399   8.024
 2096POPC   C4B28282  41.674  15.548   7.664
 2097POPC   NC328283  21.620  19.544   9.430
 2097POPC   PO428284  21.366  20.182   9.382
 2097POPC   GL128285  21.184  19.923   9.038
 2097POPC   GL228286  21.382  19.609   8.977
 2097POPC   C1A28287  21.303  19.934   8.584
 2097POPC   D2A28288  21.595  20.210   8.320
 2097POPC   C3A28289  21.653  20.056   7.911
 2097POPC   C4A28290  21.455  19.728   7.725
 2097POPC   C1B28291  21.712  19.615   8.691
 2097POPC   C2B28292  21.650  19.689   8.261
 2097POPC   C3B28293  21.859  19.512   7.907
 2097POPC   C4B28294  21.768  19.483   7.430
 2098POPC   NC328295  16.413  42.712   9.568
 2098POPC   PO428296  16.915  43.182   9.647
 2098POPC   GL128297  16.818  43.230   9.180
 2098POPC   GL228298  17.104  43.112   9.026
 2098POPC   C1A28299  16.632  43.068   8.766
 2098POPC   D2A28300  16.715  42.867   8.357
 2098POPC   C3A28301  16.539  43.057   7.985
 2098POPC   C4A28302  16.552  42.935   7.545
 2098POPC   C1B28303  17.051  43.433   8.730
 2098POPC   C2B28304  16.902  43.654   8.401
 2098POPC   C3B28305  16.957  43.316   8.147
 2098POPC   C4B28306  17.058  42.935   7.965
 2099POPC   NC328307  32.351   4.711   9.461
 2099POPC   PO428308  31.794   4.220   9.362
 2099POPC   GL128309  32.235   4.216   9.112
 2099POPC   GL228310  32.433   4.533   9.009
 2099POPC   C1A28311  32.350   4.147   8.654
 2099POPC   D2A28312  32.138   4.079   8.249
 2099POPC   C3A28313  32.302   4.053   7.805
 2099POPC   C4A28314  32.234   4.061   7.339
 2099POPC   C1B28315  32.008   4.543   8.814
 2099POPC   C2B28316  31.897   4.593   8.398
 2099POPC   C3B28317  32.060   4.518   7.996
 2099POPC   C4B28318  32.170   4.576   7.588
 2100POPC   NC328319  43.229  35.649   9.444
 2100POPC   PO428320  42.762  35.170   9.418
 2100POPC   GL128321  43.122  35.235   9.114
 2100POPC   GL228322  43.194  35.557   8.957
 2100POPC   C1A28323  43.303  35.120   8.713
 2100POPC   D2A28324  43.406  35.184   8.298
 2100POPC   C3A28325  43.050  35.310   8.064
 2100POPC   C4A28326  42.975  35.261   7.609
 2100POPC   C1B28327  43.249  35.635   8.538
 2100POPC   C2B28328  43.529  35.670   8.223
 2100POPC   C3B28329  43.437  35.486   7.813
 2100POPC   C4B28330  43.281  35.657   7.423
 2101POPC   NC328331  44.636  34.901   9.474
 2101POPC   PO428332  44.811  34.262   9.452
 2101POPC   GL128333  44.839  34.547   9.120
 2101POPC   GL228334  44.486  34.531   9.139
 2101POPC   C1A28335  44.969  34.517   8.676
 2101POPC   D2A28336  44.892  34.159   8.388
 2101POPC   C3A28337  44.860  34.354   7.957
 2101POPC   C4A28338  44.981  34.383   7.519
 2101POPC   C1B28339  44.498  34.318   8.746
 2101POPC   C2B28340  44.547  34.528   8.338
 2101POPC   C3B28341  44.409  34.661   7.933
 2101POPC   C4B28342  44.242  34.929   7.584
 2102POPC   NC328343   0.309  16.290   9.546
 2102POPC   PO428344   0.629  15.798   9.396
 2102POPC   GL128345   0.338  16.010   9.134
 2102POPC   GL228346   0.596  16.239   9.108
 2102POPC   C1A28347   0.075  15.918   8.772
 2102POPC   D2A28348   0.236  16.007   8.364
 2102POPC   C3A28349   0.080  15.862   7.982
 2102POPC   C4A28350   0.443  15.936   7.757
 2102POPC   C1B28351   0.575  16.138   8.718
 2102POPC   C2B28352   0.534  16.421   8.404
 2102POPC   C3B28353   0.688  16.273   8.037
 2102POPC   C4B28354   0.628  16.405   7.628
 2103POPC   NC328355  25.659  23.454   9.486
 2103POPC   PO428356  26.324  23.689   9.460
 2103POPC   GL128357  26.203  23.808   9.067
 2103POPC   GL228358  25.872  23.778   9.122
 2103POPC   C1A28359  26.137  23.572   8.681
 2103POPC   D2A28360  26.172  23.319   8.313
 2103POPC   C3A28361  26.365  23.558   8.013
 2103POPC   C4A28362  26.284  23.830   7.678
 2103POPC   C1B28363  25.656  23.805   8.762
 2103POPC   C2B28364  25.703  23.824   8.359
 2103POPC   C3B28365  25.774  23.639   7.988
 2103POPC   C4B28366  25.799  23.756   7.565
 2104POPC   NC328367  15.049  30.489   9.533
 2104POPC   PO428368  14.893  31.148   9.466
 2104POPC   GL128369  15.093  30.846   9.142
 2104POPC   GL228370  15.399  30.989   8.993
 2104POPC   C1A28371  15.273  30.579   8.764
 2104POPC   D2A28372  15.379  30.713   8.339
 2104POPC   C3A28373  15.103  30.710   8.006
 2104POPC   C4A28374  15.167  30.377   7.714
 2104POPC   C1B28375  15.429  31.214   8.610
 2104POPC   C2B28376  15.292  31.238   8.199
 2104POPC   C3B28377  15.413  31.072   7.829
 2104POPC   C4B28378  15.726  31.093   7.486
 2105POPC   NC328379  43.048   4.491   9.502
 2105POPC   PO428380  42.784   3.830   9.461
 2105POPC   GL128381  43.015   4.091   9.177
 2105POPC   GL228382  42.781   4.373   9.082
 2105POPC   C1A28383  43.212   4.323   8.816
 2105POPC   D2A28384  43.100   4.520   8.422
 2105POPC   C3A28385  43.348   4.353   8.093
 2105POPC   C4A28386  43.279   4.318   7.681
 2105POPC   C1B28387  42.746   4.065   8.739
 2105POPC   C2B28388  42.996   4.000   8.375
 2105POPC   C3B28389  42.875   4.163   7.994
 2105POPC   C4B28390  42.836   4.044   7.579
 2106POPC   NC328391  42.928   1.404   9.864
 2106POPC   PO428392  43.474   1.611   9.514
 2106POPC   GL128393  43.313   1.285   9.192
 2106POPC   GL228394  43.363   1.437   8.902
 2106POPC   C1A28395  42.946   1.161   8.831
 2106POPC   D2A28396  42.775   1.263   8.405
 2106POPC   C3A28397  43.082   1.158   8.089
 2106POPC   C4A28398  43.034   0.960   7.716
 2106POPC   C1B28399  43.441   1.001   8.785
 2106POPC   C2B28400  43.638   0.937   8.416
 2106POPC   C3B28401  43.464   0.800   8.069
 2106POPC   C4B28402  43.528   0.940   7.670
 2107POPC   NC328403   4.648   0.889   9.387
 2107POPC   PO428404   4.116   1.305   9.395
 2107POPC   GL128405   4.257   1.282   9.016
 2107POPC   GL228406   4.618   1.275   9.039
 2107POPC   C1A28407   4.374   1.425   8.622
 2107POPC   D2A28408   4.600   1.260   8.277
 2107POPC   C3A28409   4.312   1.099   7.981
 2107POPC   C4A28410   4.122   1.298   7.623
 2107POPC   C1B28411   4.521   0.935   8.743
 2107POPC   C2B28412   4.659   0.715   8.389
 2107POPC   C3B28413   4.715   0.789   7.941
 2107POPC   C4B28414   4.600   0.995   7.563
 2108POPC   NC328415  26.170   8.517   9.329
 2108POPC   PO428416  26.134   9.143   9.617
 2108POPC   GL128417  25.985   9.040   9.207
 2108POPC   GL228418  26.137   9.307   9.069
 2108POPC   C1A28419  25.987   8.942   8.742
 2108POPC   D2A28420  26.286   8.873   8.395
 2108POPC   C3A28421  26.167   8.705   8.008
 2108POPC   C4A28422  25.971   8.856   7.660
 2108POPC   C1B28423  26.371   9.288   8.720
 2108POPC   C2B28424  26.062   9.325   8.383
 2108POPC   C3B28425  25.936   9.236   7.991
 2108POPC   C4B28426  26.153   9.334   7.616
 2109POPC   NC328427   1.816  34.315   9.409
 2109POPC   PO428428   1.955  34.925   9.479
 2109POPC   GL128429   2.007  34.689   9.104
 2109POPC   GL228430   2.231  34.392   9.109
 2109POPC   C1A28431   1.769  34.669   8.721
 2109POPC   D2A28432   1.911  34.513   8.340
 2109POPC   C3A28433   1.712  34.612   8.016
 2109POPC   C4A28434   1.874  34.737   7.650
 2109POPC   C1B28435   2.270  34.447   8.694
 2109POPC   C2B28436   2.387  34.315   8.265
 2109POPC   C3B28437   2.272  34.496   7.856
 2109POPC   C4B28438   2.119  34.324   7.461
 2110POPC   NC328439  12.395  22.297   9.334
 2110POPC   PO428440  11.840  21.974   9.601
 2110POPC   GL128441  11.998  21.996   9.191
 2110POPC   GL228442  11.938  22.350   9.088
 2110POPC   C1A28443  11.965  21.880   8.760
 2110POPC   D2A28444  12.190  21.699   8.398
 2110POPC   C3A28445  12.054  21.968   8.082
 2110POPC   C4A28446  11.959  22.218   7.720
 2110POPC   C1B28447  12.067  22.410   8.635
 2110POPC   C2B28448  12.032  22.479   8.162
 2110POPC   C3B28449  11.693  22.626   7.833
 2110POPC   C4B28450  11.776  22.784   7.383
 2111POPC   NC328451  35.749   8.096   9.354
 2111POPC   PO428452  35.268   8.522   9.510
 2111POPC   GL128453  35.317   8.348   9.148
 2111POPC   GL228454  35.222   8.052   9.292
 2111POPC   C1A28455  35.524   8.337   8.752
 2111POPC   D2A28456  35.746   8.230   8.389
 2111POPC   C3A28457  35.646   8.445   7.999
 2111POPC   C4A28458  35.587   8.276   7.602
 2111POPC   C1B28459  35.127   7.886   8.918
 2111POPC   C2B28460  35.174   7.968   8.512
 2111POPC   C3B28461  35.158   7.990   8.061
 2111POPC   C4B28462  35.282   7.874   7.649
 2112POPC   NC328463   6.267   7.999   9.710
 2112POPC   PO428464   6.874   8.313   9.525
 2112POPC   GL128465   6.690   8.312   9.124
 2112POPC   GL228466   6.370   8.458   9.082
 2112POPC   C1A28467   6.685   8.288   8.674
 2112POPC   D2A28468   6.896   8.259   8.288
 2112POPC   C3A28469   6.693   8.314   7.895
 2112POPC   C4A28470   6.646   8.092   7.528
 2112POPC   C1B28471   6.315   8.647   8.691
 2112POPC   C2B28472   6.513   8.628   8.279
 2112POPC   C3B28473   6.312   8.709   7.871
 2112POPC   C4B28474   6.387   8.533   7.445
 2113POPC   NC328475  12.388  30.434  10.103
 2113POPC   PO428476  12.188  30.807   9.522
 2113POPC   GL128477  12.284  30.750   9.093
 2113POPC   GL228478  12.333  30.390   9.153
 2113POPC   C1A28479  12.217  30.951   8.672
 2113POPC   D2A28480  12.292  31.198   8.286
 2113POPC   C3A28481  12.227  30.883   7.976
 2113POPC   C4A28482  11.800  30.716   7.912
 2113POPC   C1B28483  12.145  30.437   8.734
 2113POPC   C2B28484  12.090  30.513   8.308
 2113POPC   C3B28485  11.983  30.240   7.965
 2113POPC   C4B28486  11.860  30.316   7.577
 2114POPC   NC328487  18.802  26.482   9.498
 2114POPC   PO428488  19.127  25.873   9.446
 2114POPC   GL128489  19.123  26.003   9.090
 2114POPC   GL228490  18.937  25.692   9.030
 2114POPC   C1A28491  19.056  26.294   8.771
 2114POPC   D2A28492  18.866  26.429   8.390
 2114POPC   C3A28493  19.101  26.292   8.004
 2114POPC   C4A28494  18.873  26.360   7.669
 2114POPC   C1B28495  19.172  25.703   8.707
 2114POPC   C2B28496  19.130  25.950   8.367
 2114POPC   C3B28497  19.083  25.772   7.966
 2114POPC   C4B28498  19.332  25.642   7.641
 2115POPC   NC328499  18.925  29.148   9.531
 2115POPC   PO428500  19.538  29.459   9.480
 2115POPC   GL128501  19.301  29.222   9.188
 2115POPC   GL228502  19.469  28.944   9.080
 2115POPC   C1A28503  18.978  29.307   8.878
 2115POPC   D2A28504  19.008  29.437   8.442
 2115POPC   C3A28505  19.132  29.079   8.183
 2115POPC   C4A28506  19.047  28.990   7.756
 2115POPC   C1B28507  19.430  29.166   8.681
 2115POPC   C2B28508  19.506  29.426   8.309
 2115POPC   C3B28509  19.462  29.375   7.855
 2115POPC   C4B28510  19.672  29.165   7.482
 2116POPC   NC328511  26.884  41.160   9.328
 2116POPC   PO428512  26.515  41.510   9.725
 2116POPC   GL128513  26.497  41.505   9.222
 2116POPC   GL228514  26.475  41.189   9.016
 2116POPC   C1A28515  26.496  41.580   8.729
 2116POPC   D2A28516  26.396  41.276   8.382
 2116POPC   C3A28517  26.521  41.454   7.969
 2116POPC   C4A28518  26.669  41.440   7.542
 2116POPC   C1B28519  26.854  41.225   8.706
 2116POPC   C2B28520  26.888  41.452   8.348
 2116POPC   C3B28521  27.033  41.431   7.950
 2116POPC   C4B28522  27.173  41.327   7.517
 2117POPC   NC328523  16.328  19.810   9.382
 2117POPC   PO428524  15.770  19.399   9.531
 2117POPC   GL128525  15.929  19.592   9.153
 2117POPC   GL228526  15.852  19.935   9.068
 2117POPC   C1A28527  16.139  19.693   8.732
 2117POPC   D2A28528  16.163  20.018   8.427
 2117POPC   C3A28529  15.997  19.979   8.014
 2117POPC   C4A28530  16.095  19.718   7.674
 2117POPC   C1B28531  15.696  19.987   8.662
 2117POPC   C2B28532  15.625  20.195   8.285
 2117POPC   C3B28533  15.517  20.323   7.881
 2117POPC   C4B28534  15.877  20.235   7.583
 2118POPC   NC328535  33.564  38.495   9.400
 2118POPC   PO428536  34.230  38.476   9.408
 2118POPC   GL128537  34.135  38.593   9.012
 2118POPC   GL228538  33.769  38.636   8.962
 2118POPC   C1A28539  34.090  38.499   8.579
 2118POPC   D2A28540  33.746  38.547   8.280
 2118POPC   C3A28541  33.956  38.593   7.868
 2118POPC   C4A28542  34.055  38.224   7.659
 2118POPC   C1B28543  33.628  38.959   8.692
 2118POPC   C2B28544  33.409  39.023   8.314
 2118POPC   C3B28545  33.492  38.838   7.916
 2118POPC   C4B28546  33.490  38.396   7.826
 2119POPC   NC328547  13.721  21.525   9.497
 2119POPC   PO428548  13.215  21.131   9.389
 2119POPC   GL128549  13.541  21.228   9.092
 2119POPC   GL228550  13.590  21.560   9.026
 2119POPC   C1A28551  13.602  21.177   8.646
 2119POPC   D2A28552  13.770  21.305   8.247
 2119POPC   C3A28553  13.491  21.225   7.896
 2119POPC   C4A28554  13.643  20.858   7.641
 2119POPC   C1B28555  13.660  21.705   8.662
 2119POPC   C2B28556  13.886  21.793   8.312
 2119POPC   C3B28557  13.703  21.744   7.893
 2119POPC   C4B28558  13.738  21.747   7.433
 2120POPC   NC328559   1.315   2.590   9.470
 2120POPC   PO428560   1.102   3.161   9.542
 2120POPC   GL128561   1.011   2.987   9.137
 2120POPC   GL228562   1.320   2.866   9.043
 2120POPC   C1A28563   0.924   2.849   8.681
 2120POPC   D2A28564   0.852   2.846   8.212
 2120POPC   C3A28565   1.126   2.648   7.914
 2120POPC   C4A28566   1.149   2.707   7.445
 2120POPC   C1B28567   1.429   2.691   8.662
 2120POPC   C2B28568   1.573   2.702   8.233
 2120POPC   C3B28569   1.592   2.359   7.948
 2120POPC   C4B28570   1.518   2.296   7.530
 2121POPC   NC328571  36.563  30.806   9.341
 2121POPC   PO428572  37.181  30.972   9.479
 2121POPC   GL128573  36.990  30.773   9.079
 2121POPC   GL228574  37.065  30.447   8.989
 2121POPC   C1A28575  36.686  30.956   8.727
 2121POPC   D2A28576  36.684  30.757   8.324
 2121POPC   C3A28577  36.621  30.965   7.936
 2121POPC   C4A28578  36.604  30.629   7.642
 2121POPC   C1B28579  37.319  30.571   8.636
 2121POPC   C2B28580  37.278  30.764   8.243
 2121POPC   C3B28581  37.026  30.670   7.926
 2121POPC   C4B28582  37.106  30.485   7.547
 2122POPC   NC328583   8.739   8.054   9.421
 2122POPC   PO428584   9.282   8.469   9.586
 2122POPC   GL128585   9.172   8.246   9.229
 2122POPC   GL228586   8.927   8.480   9.173
 2122POPC   C1A28587   9.164   8.206   8.775
 2122POPC   D2A28588   9.276   7.983   8.353
 2122POPC   C3A28589   9.072   8.224   7.998
 2122POPC   C4A28590   8.778   8.124   7.641
 2122POPC   C1B28591   8.733   8.529   8.819
 2122POPC   C2B28592   8.790   8.357   8.431
 2122POPC   C3B28593   8.702   8.553   8.064
 2122POPC   C4B28594   8.776   8.647   7.656
 2123POPC   NC328595  43.356  24.325   9.336
 2123POPC   PO428596  42.893  24.717   9.582
 2123POPC   GL128597  42.828  24.636   9.149
 2123POPC   GL228598  42.863  24.281   9.123
 2123POPC   C1A28599  43.080  24.613   8.774
 2123POPC   D2A28600  43.380  24.832   8.512
 2123POPC   C3A28601  43.209  24.750   8.111
 2123POPC   C4A28602  42.979  24.530   7.799
 2123POPC   C1B28603  43.017  24.124   8.698
 2123POPC   C2B28604  43.076  24.201   8.248
 2123POPC   C3B28605  42.937  24.011   7.869
 2123POPC   C4B28606  42.887  24.178   7.428
 2124POPC   NC328607  13.251   3.194   9.768
 2124POPC   PO428608  13.462   2.553   9.495
 2124POPC   GL128609  13.662   2.684   9.128
 2124POPC   GL228610  13.630   3.050   8.930
 2124POPC   C1A28611  13.551   2.589   8.734
 2124POPC   D2A28612  13.593   2.896   8.429
 2124POPC   C3A28613  13.710   2.696   8.031
 2124POPC   C4A28614  14.048   2.409   7.889
 2124POPC   C1B28615  13.303   3.270   8.707
 2124POPC   C2B28616  13.309   3.324   8.305
 2124POPC   C3B28617  13.247   2.948   8.062
 2124POPC   C4B28618  13.254   2.707   7.687
 2125POPC   NC328619  20.113  29.914   9.482
 2125POPC   PO428620  19.519  30.289   9.245
 2125POPC   GL128621  19.794  29.952   9.011
 2125POPC   GL228622  20.177  29.951   9.007
 2125POPC   C1A28623  19.989  29.776   8.596
 2125POPC   D2A28624  19.941  29.691   8.211
 2125POPC   C3A28625  20.004  29.957   7.863
 2125POPC   C4A28626  19.918  29.568   7.698
 2125POPC   C1B28627  20.126  30.255   8.707
 2125POPC   C2B28628  19.948  30.305   8.284
 2125POPC   C3B28629  20.116  30.458   7.901
 2125POPC   C4B28630  20.383  30.253   7.601
 2126POPC   NC328631  16.923  24.981   9.499
 2126POPC   PO428632  16.532  25.519   9.530
 2126POPC   GL128633  16.662  25.284   9.182
 2126POPC   GL228634  16.986  25.392   9.181
 2126POPC   C1A28635  16.845  25.031   8.841
 2126POPC   D2A28636  16.832  25.156   8.455
 2126POPC   C3A28637  16.716  25.041   8.077
 2126POPC   C4A28638  16.888  25.081   7.695
 2126POPC   C1B28639  16.875  25.558   8.764
 2126POPC   C2B28640  17.000  25.613   8.347
 2126POPC   C3B28641  16.802  25.567   7.932
 2126POPC   C4B28642  17.005  25.609   7.516
 2127POPC   NC328643  34.082  12.875   9.415
 2127POPC   PO428644  34.613  12.481   9.573
 2127POPC   GL128645  34.549  12.715   9.196
 2127POPC   GL228646  34.803  12.952   9.158
 2127POPC   C1A28647  34.361  12.754   8.771
 2127POPC   D2A28648  34.426  12.998   8.343
 2127POPC   C3A28649  34.448  12.766   7.913
 2127POPC   C4A28650  34.412  12.752   7.424
 2127POPC   C1B28651  34.745  13.089   8.765
 2127POPC   C2B28652  34.955  12.966   8.395
 2127POPC   C3B28653  34.843  13.080   7.998
 2127POPC   C4B28654  34.872  12.888   7.580
 2128POPC   NC328655  29.009   6.272   9.852
 2128POPC   PO428656  29.040   6.960   9.587
 2128POPC   GL128657  29.075   6.690   9.215
 2128POPC   GL228658  29.255   6.420   9.162
 2128POPC   C1A28659  29.356   6.769   8.815
 2128POPC   D2A28660  29.197   6.846   8.393
 2128POPC   C3A28661  29.418   6.821   8.023
 2128POPC   C4A28662  29.191   6.681   7.667
 2128POPC   C1B28663  29.007   6.209   8.882
 2128POPC   C2B28664  29.030   6.112   8.459
 2128POPC   C3B28665  29.125   6.356   8.093
 2128POPC   C4B28666  29.023   6.213   7.708
 2129POPC   NC328667  15.289  22.164   9.559
 2129POPC   PO428668  14.668  22.422   9.647
 2129POPC   GL128669  14.896  22.142   9.222
 2129POPC   GL228670  15.246  22.213   9.069
 2129POPC   C1A28671  14.978  21.939   8.775
 2129POPC   D2A28672  14.818  22.084   8.369
 2129POPC   C3A28673  15.002  22.076   7.971
 2129POPC   C4A28674  15.050  22.442   7.768
 2129POPC   C1B28675  15.298  22.420   8.700
 2129POPC   C2B28676  15.346  22.199   8.338
 2129POPC   C3B28677  15.521  22.294   7.953
 2129POPC   C4B28678  15.504  22.616   7.642
 2130POPC   NC328679  38.823  27.908   9.535
 2130POPC   PO428680  38.225  27.812   9.461
 2130POPC   GL128681  38.476  27.904   9.112
 2130POPC   GL228682  38.649  27.552   9.118
 2130POPC   C1A28683  38.479  27.782   8.674
 2130POPC   D2A28684  38.353  27.492   8.336
 2130POPC   C3A28685  38.394  27.671   7.908
 2130POPC   C4A28686  38.282  27.810   7.492
 2130POPC   C1B28687  38.706  27.318   8.713
 2130POPC   C2B28688  38.705  27.094   8.335
 2130POPC   C3B28689  38.594  27.188   7.965
 2130POPC   C4B28690  38.876  27.368   7.712
 2131POPC   NC328691  16.368  27.000   9.402
 2131POPC   PO428692  15.809  26.838   9.769
 2131POPC   GL128693  15.850  26.991   9.321
 2131POPC   GL228694  16.011  26.702   9.150
 2131POPC   C1A28695  15.813  27.105   8.859
 2131POPC   D2A28696  15.830  26.890   8.440
 2131POPC   C3A28697  15.952  26.975   8.003
 2131POPC   C4A28698  15.740  26.758   7.656
 2131POPC   C1B28699  16.224  26.794   8.765
 2131POPC   C2B28700  16.437  26.819   8.384
 2131POPC   C3B28701  16.373  26.570   8.039
 2131POPC   C4B28702  16.273  26.659   7.628
 2132POPC   NC328703  18.304  34.933   9.570
 2132POPC   PO428704  18.063  35.603   9.422
 2132POPC   GL128705  18.219  35.466   9.062
 2132POPC   GL228706  18.562  35.394   9.169
 2132POPC   C1A28707  18.255  35.164   8.724
 2132POPC   D2A28708  18.046  35.068   8.341
 2132POPC   C3A28709  18.260  35.198   7.965
 2132POPC   C4A28710  18.095  35.499   7.675
 2132POPC   C1B28711  18.595  35.627   8.763
 2132POPC   C2B28712  18.382  35.540   8.376
 2132POPC   C3B28713  18.420  35.706   7.983
 2132POPC   C4B28714  18.566  35.591   7.544
 2133POPC   NC328715  27.266  13.658   9.592
 2133POPC   PO428716  26.523  13.707   9.497
 2133POPC   GL128717  26.825  13.646   9.156
 2133POPC   GL228718  27.105  13.892   9.165
 2133POPC   C1A28719  26.775  13.845   8.747
 2133POPC   D2A28720  26.601  13.775   8.347
 2133POPC   C3A28721  26.692  13.941   7.981
 2133POPC   C4A28722  26.881  13.559   7.797
 2133POPC   C1B28723  27.275  13.853   8.737
 2133POPC   C2B28724  27.113  14.023   8.327
 2133POPC   C3B28725  27.183  13.975   7.878
 2133POPC   C4B28726  27.163  13.770   7.435
 2134POPC   NC328727  28.573  36.962   9.452
 2134POPC   PO428728  28.220  36.348   9.311
 2134POPC   GL128729  28.133  36.777   9.103
 2134POPC   GL228730  28.071  37.164   9.166
 2134POPC   C1A28731  28.383  36.987   8.799
 2134POPC   D2A28732  28.282  37.057   8.391
 2134POPC   C3A28733  28.397  36.742   8.141
 2134POPC   C4A28734  28.523  36.757   7.752
 2134POPC   C1B28735  27.880  37.105   8.729
 2134POPC   C2B28736  27.860  37.300   8.308
 2134POPC   C3B28737  28.060  37.133   7.905
 2134POPC   C4B28738  28.293  37.367   7.556
 2135POPC   NC328739  38.204  32.884   9.687
 2135POPC   PO428740  38.670  33.374   9.564
 2135POPC   GL128741  38.475  33.081   9.283
 2135POPC   GL228742  38.433  33.349   9.073
 2135POPC   C1A28743  38.278  32.885   8.882
 2135POPC   D2A28744  38.107  32.955   8.418
 2135POPC   C3A28745  38.374  32.921   8.044
 2135POPC   C4A28746  38.286  32.862   7.612
 2135POPC   C1B28747  38.490  33.282   8.627
 2135POPC   C2B28748  38.466  33.398   8.213
 2135POPC   C3B28749  38.152  33.382   7.876
 2135POPC   C4B28750  38.250  33.352   7.423
 2136POPC   NC328751  14.092  15.390   9.339
 2136POPC   PO428752  14.673  15.047   9.396
 2136POPC   GL128753  14.559  14.929   9.031
 2136POPC   GL228754  14.234  14.999   9.062
 2136POPC   C1A28755  14.620  15.154   8.670
 2136POPC   D2A28756  14.734  15.294   8.272
 2136POPC   C3A28757  14.540  15.009   7.940
 2136POPC   C4A28758  14.537  14.933   7.484
 2136POPC   C1B28759  14.078  15.149   8.716
 2136POPC   C2B28760  14.230  15.161   8.335
 2136POPC   C3B28761  14.290  15.456   8.055
 2136POPC   C4B28762  14.234  15.314   7.635
 2137POPC   NC328763  40.140  24.304   9.511
 2137POPC   PO428764  39.672  24.813   9.415
 2137POPC   GL128765  39.839  24.494   9.140
 2137POPC   GL228766  39.853  24.114   9.129
 2137POPC   C1A28767  39.865  24.450   8.714
 2137POPC   D2A28768  39.676  24.523   8.336
 2137POPC   C3A28769  39.981  24.552   8.044
 2137POPC   C4A28770  39.910  24.659   7.624
 2137POPC   C1B28771  40.236  24.114   8.887
 2137POPC   C2B28772  40.303  24.268   8.477
 2137POPC   C3B28773  40.342  24.114   8.079
 2137POPC   C4B28774  40.232  24.271   7.696
 2138POPC   NC328775  37.533  15.561   9.585
 2138POPC   PO428776  37.943  15.041   9.535
 2138POPC   GL128777  37.761  15.139   9.108
 2138POPC   GL228778  37.522  15.425   9.079
 2138POPC   C1A28779  37.936  15.268   8.683
 2138POPC   D2A28780  38.170  15.441   8.312
 2138POPC   C3A28781  38.009  15.292   7.917
 2138POPC   C4A28782  37.596  15.199   7.787
 2138POPC   C1B28783  37.320  15.501   8.674
 2138POPC   C2B28784  37.269  15.444   8.204
 2138POPC   C3B28785  37.125  15.368   7.781
 2138POPC   C4B28786  37.304  15.476   7.339
 2139POPC   NC328787  26.947  34.332   9.370
 2139POPC   PO428788  26.284  34.313   9.526
 2139POPC   GL128789  26.470  34.498   9.165
 2139POPC   GL228790  26.582  34.193   9.020
 2139POPC   C1A28791  26.736  34.672   8.843
 2139POPC   D2A28792  26.960  34.640   8.503
 2139POPC   C3A28793  26.898  34.817   8.116
 2139POPC   C4A28794  27.070  34.739   7.734
 2139POPC   C1B28795  26.448  34.327   8.610
 2139POPC   C2B28796  26.505  34.494   8.213
 2139POPC   C3B28797  26.574  34.563   7.764
 2139POPC   C4B28798  26.469  34.558   7.331
 2140POPC   NC328799  43.648  44.900   9.571
 2140POPC   PO428800  43.111  44.530   9.606
 2140POPC   GL128801  43.128  44.567   9.177
 2140POPC   GL228802  42.864  44.383   9.056
 2140POPC   C1A28803  43.220  44.539   8.745
 2140POPC   D2A28804  43.321  44.717   8.364
 2140POPC   C3A28805  43.451  44.462   8.032
 2140POPC   C4A28806  43.280  44.613   7.676
 2140POPC   C1B28807  42.762  44.776   8.839
 2140POPC   C2B28808  42.802  44.768   8.410
 2140POPC   C3B28809  42.921  44.547   8.052
 2140POPC   C4B28810  42.774  44.695   7.685
 2141POPC   NC328811   4.926  28.135   9.545
 2141POPC   PO428812   5.276  28.591   9.432
 2141POPC   GL128813   5.052  28.368   9.112
 2141POPC   GL228814   4.718  28.459   9.181
 2141POPC   C1A28815   4.995  28.149   8.729
 2141POPC   D2A28816   5.176  28.269   8.357
 2141POPC   C3A28817   5.119  28.104   7.972
 2141POPC   C4A28818   5.372  28.283   7.659
 2141POPC   C1B28819   4.674  28.561   8.748
 2141POPC   C2B28820   4.670  28.357   8.339
 2141POPC   C3B28821   4.611  28.219   7.922
 2141POPC   C4B28822   4.867  28.269   7.560
 2142POPC   NC328823   6.367  23.147   9.566
 2142POPC   PO428824   6.530  22.527   9.616
 2142POPC   GL128825   6.570  22.574   9.165
 2142POPC   GL228826   6.468  22.910   9.126
 2142POPC   C1A28827   6.672  22.699   8.718
 2142POPC   D2A28828   6.704  22.928   8.360
 2142POPC   C3A28829   6.890  22.851   7.971
 2142POPC   C4A28830   6.724  23.046   7.597
 2142POPC   C1B28831   6.194  22.889   8.771
 2142POPC   C2B28832   6.230  22.723   8.383
 2142POPC   C3B28833   6.365  22.853   7.990
 2142POPC   C4B28834   6.225  23.077   7.647
 2143POPC   NC328835  44.730   9.945   9.544
 2143POPC   PO428836   0.011   9.367   9.418
 2143POPC   GL128837  44.799   9.629   9.096
 2143POPC   GL228838  44.523   9.907   9.091
 2143POPC   C1A28839  44.879   9.897   8.727
 2143POPC   D2A28840  44.755  10.021   8.321
 2143POPC   C3A28841  44.803   9.728   7.978
 2143POPC   C4A28842  44.549   9.364   7.792
 2143POPC   C1B28843  44.373  10.097   8.736
 2143POPC   C2B28844  44.329  10.285   8.321
 2143POPC   C3B28845  44.501  10.209   7.903
 2143POPC   C4B28846  44.425   9.850   7.678
 2144POPC   NC328847  22.774  35.451   9.653
 2144POPC   PO428848  22.089  35.372   9.594
 2144POPC   GL128849  22.027  35.436   9.167
 2144POPC   GL228850  22.347  35.418   8.993
 2144POPC   C1A28851  21.895  35.559   8.756
 2144POPC   D2A28852  22.125  35.480   8.382
 2144POPC   C3A28853  22.095  35.517   7.921
 2144POPC   C4A28854  22.424  35.247   7.732
 2144POPC   C1B28855  22.084  35.045   8.826
 2144POPC   C2B28856  22.084  34.806   8.444
 2144POPC   C3B28857  22.148  34.998   8.077
 2144POPC   C4B28858  21.997  34.941   7.674
 2145POPC   NC328859  35.526  10.453   9.213
 2145POPC   PO428860  35.354  11.033   9.565
 2145POPC   GL128861  35.137  10.813   9.161
 2145POPC   GL228862  35.071  10.424   9.045
 2145POPC   C1A28863  35.039  10.800   8.696
 2145POPC   D2A28864  35.152  11.076   8.347
 2145POPC   C3A28865  35.158  10.943   7.916
 2145POPC   C4A28866  35.073  10.640   7.594
 2145POPC   C1B28867  35.256  10.307   8.637
 2145POPC   C2B28868  35.238  10.508   8.221
 2145POPC   C3B28869  35.473  10.415   7.851
 2145POPC   C4B28870  35.700  10.061   7.657
 2146POPC   NC328871  39.917  35.013   9.390
 2146POPC   PO428872  40.271  35.613   9.426
 2146POPC   GL128873  40.008  35.436   9.104
 2146POPC   GL228874  39.632  35.523   9.168
 2146POPC   C1A28875  40.112  35.155   8.744
 2146POPC   D2A28876  39.993  35.285   8.325
 2146POPC   C3A28877  40.181  35.193   7.917
 2146POPC   C4A28878  40.165  35.546   7.610
 2146POPC   C1B28879  39.664  35.434   8.719
 2146POPC   C2B28880  39.476  35.516   8.315
 2146POPC   C3B28881  39.711  35.444   7.926
 2146POPC   C4B28882  39.737  35.198   7.591
 2147POPC   NC328883   0.288  37.144   9.683
 2147POPC   PO428884   0.459  36.554   9.539
 2147POPC   GL128885   0.281  36.822   9.213
 2147POPC   GL228886   0.253  37.220   9.187
 2147POPC   C1A28887   0.481  36.811   8.817
 2147POPC   D2A28888   0.587  36.555   8.488
 2147POPC   C3A28889   0.454  36.656   8.101
 2147POPC   C4A28890   0.631  36.525   7.723
 2147POPC   C1B28891   0.310  37.296   8.764
 2147POPC   C2B28892   0.342  37.084   8.391
 2147POPC   C3B28893   0.145  37.071   8.020
 2147POPC   C4B28894   0.271  36.875   7.663
 2148POPC   NC328895  32.701  24.777  10.022
 2148POPC   PO428896  32.939  24.464   9.603
 2148POPC   GL128897  32.975  24.377   9.109
 2148POPC   GL228898  32.979  24.002   9.128
 2148POPC   C1A28899  33.248  24.510   8.712
 2148POPC   D2A28900  33.187  24.728   8.288
 2148POPC   C3A28901  33.303  24.851   7.862
 2148POPC   C4A28902  32.992  25.090   7.565
 2148POPC   C1B28903  33.156  24.016   8.715
 2148POPC   C2B28904  33.087  24.198   8.288
 2148POPC   C3B28905  33.089  24.293   7.837
 2148POPC   C4B28906  32.876  24.180   7.430
 2149POPC   NC328907  41.077  18.064   9.411
 2149POPC   PO428908  40.581  18.447   9.269
 2149POPC   GL128909  40.819  18.206   8.971
 2149POPC   GL228910  41.175  18.251   8.949
 2149POPC   C1A28911  40.895  18.259   8.531
 2149POPC   D2A28912  40.928  18.438   8.152
 2149POPC   C3A28913  40.712  18.142   7.968
 2149POPC   C4A28914  40.639  18.005   7.588
 2149POPC   C1B28915  41.295  17.946   8.608
 2149POPC   C2B28916  41.167  17.934   8.195
 2149POPC   C3B28917  41.164  18.067   7.777
 2149POPC   C4B28918  41.286  18.053   7.327
 2150POPC   NC328919  12.022  38.743   9.410
 2150POPC   PO428920  12.409  38.211   9.591
 2150POPC   GL128921  12.153  38.279   9.191
 2150POPC   GL228922  11.788  38.197   9.145
 2150POPC   C1A28923  12.143  38.186   8.747
 2150POPC   D2A28924  11.815  38.118   8.443
 2150POPC   C3A28925  11.972  38.254   8.040
 2150POPC   C4A28926  12.290  38.087   7.788
 2150POPC   C1B28927  11.748  38.499   8.830
 2150POPC   C2B28928  11.994  38.637   8.460
 2150POPC   C3B28929  11.922  38.774   8.044
 2150POPC   C4B28930  12.148  38.603   7.678
 2151POPC   NC328931   0.076  28.261   9.391
 2151POPC   PO428932  44.618  28.653   9.618
 2151POPC   GL128933  44.553  28.585   9.165
 2151POPC   GL228934  44.883  28.562   8.985
 2151POPC   C1A28935  44.471  28.308   8.780
 2151POPC   D2A28936  44.681  28.284   8.360
 2151POPC   C3A28937  44.390  28.274   7.998
 2151POPC   C4A28938  44.368  28.457   7.565
 2151POPC   C1B28939  44.951  28.129   8.777
 2151POPC   C2B28940   0.157  27.928   8.436
 2151POPC   C3B28941   0.225  28.120   8.028
 2151POPC   C4B28942  44.877  28.380   7.837
 2152POPC   NC328943  42.487  21.133   9.320
 2152POPC   PO428944  42.061  21.585   9.570
 2152POPC   GL128945  42.227  21.580   9.150
 2152POPC   GL228946  42.027  21.890   9.068
 2152POPC   C1A28947  42.383  21.334   8.738
 2152POPC   D2A28948  42.560  21.159   8.344
 2152POPC   C3A28949  42.347  21.262   7.961
 2152POPC   C4A28950  42.011  21.359   7.692
 2152POPC   C1B28951  42.361  21.846   8.745
 2152POPC   C2B28952  42.347  21.638   8.341
 2152POPC   C3B28953  42.251  21.765   7.948
 2152POPC   C4B28954  42.479  21.648   7.652
 2153POPC   NC328955  15.475  41.311   9.553
 2153POPC   PO428956  14.948  41.580   9.679
 2153POPC   GL128957  14.941  41.504   9.249
 2153POPC   GL228958  15.284  41.607   9.172
 2153POPC   C1A28959  14.907  41.361   8.806
 2153POPC   D2A28960  15.092  41.477   8.384
 2153POPC   C3A28961  14.893  41.498   7.942
 2153POPC   C4A28962  15.078  41.712   7.568
 2153POPC   C1B28963  15.483  41.534   8.776
 2153POPC   C2B28964  15.620  41.673   8.372
 2153POPC   C3B28965  15.400  41.627   7.994
 2153POPC   C4B28966  15.310  41.271   7.717
 2154POPC   NC328967  19.174  10.378   9.449
 2154POPC   PO428968  18.905  10.973   9.489
 2154POPC   GL128969  19.032  10.830   9.088
 2154POPC   GL228970  19.362  10.852   9.021
 2154POPC   C1A28971  19.047  10.702   8.644
 2154POPC   D2A28972  18.888  10.831   8.240
 2154POPC   C3A28973  19.048  10.601   7.893
 2154POPC   C4A28974  18.742  10.279   7.752
 2154POPC   C1B28975  19.432  10.432   8.847
 2154POPC   C2B28976  19.518  10.398   8.425
 2154POPC   C3B28977  19.439  10.136   8.073
 2154POPC   C4B28978  19.210  10.122   7.717
 2155POPC   NC328979  36.531  19.304   9.399
 2155POPC   PO428980  35.900  19.034   9.541
 2155POPC   GL128981  35.853  19.109   9.132
 2155POPC   GL228982  36.042  19.400   9.160
 2155POPC   C1A28983  35.858  18.920   8.714
 2155POPC   D2A28984  36.113  18.815   8.362
 2155POPC   C3A28985  35.964  18.844   7.944
 2155POPC   C4A28986  35.851  19.239   7.733
 2155POPC   C1B28987  36.239  19.313   8.777
 2155POPC   C2B28988  36.134  19.385   8.366
 2155POPC   C3B28989  36.312  19.200   8.030
 2155POPC   C4B28990  36.367  19.224   7.609
 2156POPC   NC328991  16.318  17.328   9.376
 2156POPC   PO428992  15.847  17.687   9.669
 2156POPC   GL128993  15.794  17.472   9.247
 2156POPC   GL228994  15.515  17.220   9.276
 2156POPC   C1A28995  16.018  17.391   8.815
 2156POPC   D2A28996  16.191  17.377   8.393
 2156POPC   C3A28997  15.943  17.442   8.007
 2156POPC   C4A28998  15.820  17.217   7.619
 2156POPC   C1B28999  15.525  17.314   8.815
 2156POPC   C2B29000  15.736  17.161   8.439
 2156POPC   C3B29001  15.577  17.091   8.047
 2156POPC   C4B29002  15.348  16.993   7.712
 2157POPC   NC329003  13.573   1.379   9.473
 2157POPC   PO429004  13.051   0.974   9.673
 2157POPC   GL129005  13.223   1.075   9.259
 2157POPC   GL229006  13.573   0.948   9.171
 2157POPC   C1A29007  13.247   1.264   8.862
 2157POPC   D2A29008  13.143   1.186   8.434
 2157POPC   C3A29009  13.343   1.256   8.072
 2157POPC   C4A29010  13.503   1.102   7.692
 2157POPC   C1B29011  13.760   1.206   8.815
 2157POPC   C2B29012  13.889   1.376   8.403
 2157POPC   C3B29013  13.849   1.316   7.975
 2157POPC   C4B29014  13.720   1.582   7.626
 2158POPC   NC329015  32.228  32.276   9.601
 2158POPC   PO429016  32.198  31.737   9.183
 2158POPC   GL129017  32.409  31.969   8.893
 2158POPC   GL229018  32.332  32.232   9.116
 2158POPC   C1A29019  32.179  32.182   8.584
 2158POPC   D2A29020  32.011  32.533   8.351
 2158POPC   C3A29021  31.895  32.371   7.960
 2158POPC   C4A29022  32.156  32.035   7.824
 2158POPC   C1B29023  32.536  32.509   8.912
 2158POPC   C2B29024  32.597  32.502   8.501
 2158POPC   C3B29025  32.453  32.300   8.162
 2158POPC   C4B29026  32.376  32.535   7.846
 2159POPC   NC329027   6.882   0.274   9.481
 2159POPC   PO429028   6.450   0.762   9.629
 2159POPC   GL129029   6.543   0.684   9.165
 2159POPC   GL229030   6.814   0.497   9.023
 2159POPC   C1A29031   6.341   0.389   8.808
 2159POPC   D2A29032   6.172   0.250   8.383
 2159POPC   C3A29033   6.446   0.384   8.036
 2159POPC   C4A29034   6.621   0.199   7.710
 2159POPC   C1B29035   6.800   0.239   8.665
 2159POPC   C2B29036   6.676   0.029   8.332
 2159POPC   C3B29037   6.930  44.924   8.013
 2159POPC   C4B29038   7.133   0.153   7.693
 2160POPC   NC329039  43.823  41.964   9.555
 2160POPC   PO429040  43.529  42.556   9.528
 2160POPC   GL129041  43.884  42.424   9.266
 2160POPC   GL229042  43.717  42.154   9.087
 2160POPC   C1A29043  44.040  42.452   8.829
 2160POPC   D2A29044  43.746  42.279   8.512
 2160POPC   C3A29045  43.787  42.501   8.136
 2160POPC   C4A29046  43.887  42.401   7.751
 2160POPC   C1B29047  44.065  41.930   8.884
 2160POPC   C2B29048  44.242  42.094   8.511
 2160POPC   C3B29049  44.174  42.112   8.065
 2160POPC   C4B29050  44.398  42.401   7.784
 2161POPC   NC329051  31.337   0.763   9.472
 2161POPC   PO429052  31.671   0.243   9.760
 2161POPC   GL129053  31.602   0.314   9.291
 2161POPC   GL229054  31.276   0.374   9.145
 2161POPC   C1A29055  31.666   0.431   8.821
 2161POPC   D2A29056  31.429   0.506   8.437
 2161POPC   C3A29057  31.597   0.384   8.040
 2161POPC   C4A29058  31.760   0.717   7.857
 2161POPC   C1B29059  31.068   0.566   8.796
 2161POPC   C2B29060  30.919   0.523   8.377
 2161POPC   C3B29061  31.116   0.548   7.997
 2161POPC   C4B29062  31.311   0.509   7.585
 2162POPC   NC329063  42.756  18.265   9.591
 2162POPC   PO429064  43.280  18.541   9.450
 2162POPC   GL129065  43.244  18.232   9.142
 2162POPC   GL229066  42.921  18.064   9.137
 2162POPC   C1A29067  43.153  18.323   8.711
 2162POPC   D2A29068  42.901  18.600   8.457
 2162POPC   C3A29069  43.059  18.523   8.064
 2162POPC   C4A29070  43.088  18.394   7.652
 2162POPC   C1B29071  42.915  17.865   8.726
 2162POPC   C2B29072  42.898  18.061   8.293
 2162POPC   C3B29073  42.920  17.949   7.845
 2162POPC   C4B29074  42.670  17.742   7.536
 2163POPC   NC329075  29.030  28.673   9.485
 2163POPC   PO429076  29.428  29.249   9.472
 2163POPC   GL129077  29.194  29.258   9.072
 2163POPC   GL229078  28.827  29.337   9.017
 2163POPC   C1A29079  29.337  29.169   8.657
 2163POPC   D2A29080  29.479  28.905   8.307
 2163POPC   C3A29081  29.338  29.077   7.933
 2163POPC   C4A29082  29.424  29.464   7.758
 2163POPC   C1B29083  28.843  28.977   8.776
 2163POPC   C2B29084  28.944  28.930   8.362
 2163POPC   C3B29085  28.754  29.113   8.066
 2163POPC   C4B29086  28.873  29.012   7.728
 2164POPC   NC329087   8.501  13.638   9.798
 2164POPC   PO429088   7.913  13.318   9.561
 2164POPC   GL129089   8.067  13.277   9.097
 2164POPC   GL229090   8.203  13.610   8.890
 2164POPC   C1A29091   8.159  13.192   8.654
 2164POPC   D2A29092   8.144  13.508   8.350
 2164POPC   C3A29093   8.121  13.397   7.930
 2164POPC   C4A29094   7.893  13.703   7.672
 2164POPC   C1B29095   8.580  13.537   8.624
 2164POPC   C2B29096   8.615  13.530   8.169
 2164POPC   C3B29097   8.371  13.836   7.924
 2164POPC   C4B29098   8.274  13.986   7.516
 2165POPC   NC329099   2.755  12.734   9.517
 2165POPC   PO429100   3.265  13.220   9.419
 2165POPC   GL129101   2.878  13.041   9.127
 2165POPC   GL229102   2.501  12.844   9.096
 2165POPC   C1A29103   2.841  12.742   8.756
 2165POPC   D2A29104   3.105  12.560   8.473
 2165POPC   C3A29105   2.912  12.585   8.098
 2165POPC   C4A29106   2.877  12.710   7.705
 2165POPC   C1B29107   2.354  12.550   8.781
 2165POPC   C2B29108   2.460  12.488   8.335
 2165POPC   C3B29109   2.428  12.558   7.882
 2165POPC   C4B29110   2.499  12.540   7.405
 2166POPC   NC329111  13.085  29.734   9.659
 2166POPC   PO429112  12.841  30.380   9.760
 2166POPC   GL129113  12.789  30.068   9.350
 2166POPC   GL229114  13.139  29.947   9.201
 2166POPC   C1A29115  12.791  30.048   8.864
 2166POPC   D2A29116  13.116  30.080   8.512
 2166POPC   C3A29117  12.968  30.149   8.094
 2166POPC   C4A29118  12.789  30.035   7.685
 2166POPC   C1B29119  13.111  29.667   8.790
 2166POPC   C2B29120  12.911  29.661   8.325
 2166POPC   C3B29121  13.040  29.629   7.885
 2166POPC   C4B29122  13.117  29.729   7.423
 2167POPC   NC329123  27.425   3.566   9.627
 2167POPC   PO429124  27.990   3.713   9.456
 2167POPC   GL129125  27.598   3.732   9.173
 2167POPC   GL229126  27.381   3.434   9.133
 2167POPC   C1A29127  27.530   3.707   8.726
 2167POPC   D2A29128  27.623   3.441   8.348
 2167POPC   C3A29129  27.745   3.609   7.950
 2167POPC   C4A29130  27.574   3.894   7.684
 2167POPC   C1B29131  27.368   3.201   8.748
 2167POPC   C2B29132  27.155   3.252   8.351
 2167POPC   C3B29133  27.367   3.167   7.971
 2167POPC   C4B29134  27.419   3.390   7.625
 2168POPC   NC329135  28.157  15.236   9.737
 2168POPC   PO429136  28.664  15.043   9.476
 2168POPC   GL129137  28.341  15.230   9.241
 2168POPC   GL229138  28.609  15.354   9.027
 2168POPC   C1A29139  28.124  15.335   8.861
 2168POPC   D2A29140  28.219  15.393   8.421
 2168POPC   C3A29141  28.036  15.268   8.015
 2168POPC   C4A29142  28.274  15.517   7.728
 2168POPC   C1B29143  28.571  15.105   8.658
 2168POPC   C2B29144  28.623  15.173   8.190
 2168POPC   C3B29145  28.676  15.095   7.743
 2168POPC   C4B29146  28.761  14.886   7.323
 2169POPC   NC329147   4.072  36.313   9.494
 2169POPC   PO429148   4.457  35.799   9.747
 2169POPC   GL129149   4.428  35.978   9.276
 2169POPC   GL229150   4.072  35.940   9.119
 2169POPC   C1A29151   4.447  35.977   8.782
 2169POPC   D2A29152   4.476  36.013   8.303
 2169POPC   C3A29153   4.600  36.360   8.066
 2169POPC   C4A29154   4.573  36.351   7.632
 2169POPC   C1B29155   3.878  35.933   8.682
 2169POPC   C2B29156   3.927  35.994   8.228
 2169POPC   C3B29157   4.181  36.075   7.830
 2169POPC   C4B29158   4.332  35.828   7.465
 2170POPC   NC329159  36.925  34.838   9.640
 2170POPC   PO429160  36.718  35.420   9.475
 2170POPC   GL129161  36.957  35.361   9.145
 2170POPC   GL229162  36.931  35.003   9.163
 2170POPC   C1A29163  36.804  35.511   8.749
 2170POPC   D2A29164  36.935  35.725   8.402
 2170POPC   C3A29165  37.179  35.523   8.083
 2170POPC   C4A29166  37.211  35.798   7.730
 2170POPC   C1B29167  37.019  35.050   8.742
 2170POPC   C2B29168  36.864  35.183   8.349
 2170POPC   C3B29169  36.751  35.230   7.925
 2170POPC   C4B29170  36.710  35.316   7.487
 2171POPC   NC329171  17.898  36.686   9.574
 2171POPC   PO429172  18.518  37.042   9.473
 2171POPC   GL129173  18.274  36.823   9.238
 2171POPC   GL229174  17.995  37.062   9.246
 2171POPC   C1A29175  18.397  36.652   8.853
 2171POPC   D2A29176  18.281  36.528   8.449
 2171POPC   C3A29177  18.430  36.894   8.218
 2171POPC   C4A29178  18.459  37.162   7.828
 2171POPC   C1B29179  17.926  36.844   8.870
 2171POPC   C2B29180  17.876  36.840   8.429
 2171POPC   C3B29181  17.984  37.039   8.039
 2171POPC   C4B29182  17.948  37.002   7.641
 2172POPC   NC329183  11.587  22.351   9.509
 2172POPC   PO429184  10.970  22.079   9.572
 2172POPC   GL129185  11.219  22.122   9.184
 2172POPC   GL229186  11.502  22.014   9.127
 2172POPC   C1A29187  11.102  22.026   8.722
 2172POPC   D2A29188  11.201  21.856   8.306
 2172POPC   C3A29189  11.010  22.059   7.939
 2172POPC   C4A29190  11.041  22.027   7.474
 2172POPC   C1B29191  11.560  22.238   8.774
 2172POPC   C2B29192  11.674  22.165   8.387
 2172POPC   C3B29193  11.555  22.058   8.003
 2172POPC   C4B29194  11.431  22.227   7.675
 2173POPC   NC329195  34.991  38.664   9.549
 2173POPC   PO429196  34.654  38.120   9.725
 2173POPC   GL129197  34.700  38.364   9.264
 2173POPC   GL229198  34.612  38.748   9.196
 2173POPC   C1A29199  34.572  38.325   8.828
 2173POPC   D2A29200  34.674  38.380   8.423
 2173POPC   C3A29201  34.403  38.316   8.082
 2173POPC   C4A29202  34.550  38.111   7.725
 2173POPC   C1B29203  34.770  38.771   8.768
 2173POPC   C2B29204  34.809  38.850   8.342
 2173POPC   C3B29205  34.776  38.663   7.942
 2173POPC   C4B29206  34.447  38.595   7.642
 2174POPC   NC329207  43.428  33.877   9.785
 2174POPC   PO429208  44.099  33.727   9.673
 2174POPC   GL129209  44.065  33.706   9.193
 2174POPC   GL229210  43.792  33.809   8.933
 2174POPC   C1A29211  44.189  33.603   8.749
 2174POPC   D2A29212  43.985  33.802   8.375
 2174POPC   C3A29213  44.195  33.992   8.016
 2174POPC   C4A29214  44.101  33.836   7.626
 2174POPC   C1B29215  43.677  33.485   8.642
 2174POPC   C2B29216  43.545  33.533   8.259
 2174POPC   C3B29217  43.731  33.567   7.889
 2174POPC   C4B29218  43.639  33.977   7.761
 2175POPC   NC329219  42.114  37.461   9.658
 2175POPC   PO429220  42.614  37.840   9.627
 2175POPC   GL129221  42.306  37.779   9.288
 2175POPC   GL229222  42.312  38.102   9.154
 2175POPC   C1A29223  42.183  37.529   8.909
 2175POPC   D2A29224  42.368  37.403   8.503
 2175POPC   C3A29225  42.151  37.340   8.101
 2175POPC   C4A29226  42.318  37.381   7.694
 2175POPC   C1B29227  42.091  38.014   8.749
 2175POPC   C2B29228  42.075  37.808   8.329
 2175POPC   C3B29229  42.301  37.887   7.935
 2175POPC   C4B29230  42.716  38.119   7.922
 2176POPC   NC329231  29.490  18.905   9.433
 2176POPC   PO429232  28.986  19.399   9.405
 2176POPC   GL129233  29.148  19.165   9.099
 2176POPC   GL229234  29.159  18.806   9.053
 2176POPC   C1A29235  29.306  19.208   8.715
 2176POPC   D2A29236  29.400  19.171   8.293
 2176POPC   C3A29237  29.114  19.138   7.965
 2176POPC   C4A29238  28.794  18.896   7.819
 2176POPC   C1B29239  29.391  18.687   8.677
 2176POPC   C2B29240  29.245  18.689   8.240
 2176POPC   C3B29241  29.259  18.672   7.800
 2176POPC   C4B29242  29.021  18.625   7.402
 2177POPC   NC329243  18.833  14.577   9.328
 2177POPC   PO429244  19.305  14.184   9.455
 2177POPC   GL129245  19.352  14.369   9.059
 2177POPC   GL229246  19.339  14.729   9.115
 2177POPC   C1A29247  19.234  14.220   8.646
 2177POPC   D2A29248  18.818  14.227   8.452
 2177POPC   C3A29249  18.875  14.348   8.047
 2177POPC   C4A29250  19.273  14.317   7.891
 2177POPC   C1B29251  19.080  14.714   8.720
 2177POPC   C2B29252  18.927  14.808   8.299
 2177POPC   C3B29253  19.172  14.847   7.884
 2177POPC   C4B29254  19.273  14.893   7.430
 2178POPC   NC329255  36.720   6.646   9.523
 2178POPC   PO429256  36.176   6.890   9.221
 2178POPC   GL129257  36.546   6.701   9.037
 2178POPC   GL229258  36.938   6.641   9.076
 2178POPC   C1A29259  36.729   6.860   8.671
 2178POPC   D2A29260  36.493   6.880   8.329
 2178POPC   C3A29261  36.689   6.547   8.100
 2178POPC   C4A29262  36.836   6.712   7.722
 2178POPC   C1B29263  37.332   6.580   8.843
 2178POPC   C2B29264  37.512   6.594   8.430
 2178POPC   C3B29265  37.257   6.593   8.057
 2178POPC   C4B29266  37.294   6.520   7.616
 2179POPC   NC329267  28.618  19.674   9.426
 2179POPC   PO429268  28.051  19.830   9.521
 2179POPC   GL129269  28.281  19.951   9.146
 2179POPC   GL229270  28.460  20.236   9.088
 2179POPC   C1A29271  28.516  19.850   8.771
 2179POPC   D2A29272  28.719  19.737   8.399
 2179POPC   C3A29273  28.590  19.901   8.030
 2179POPC   C4A29274  28.503  19.793   7.614
 2179POPC   C1B29275  28.222  20.331   8.702
 2179POPC   C2B29276  28.118  20.281   8.252
 2179POPC   C3B29277  28.127  20.078   7.854
 2179POPC   C4B29278  28.210  20.155   7.403
 2180POPC   NC329279   0.777  23.819   9.510
 2180POPC   PO429280   1.436  23.547   9.579
 2180POPC   GL129281   1.234  23.726   9.216
 2180POPC   GL229282   1.371  24.035   9.060
 2180POPC   C1A29283   1.303  23.619   8.795
 2180POPC   D2A29284   1.388  23.848   8.415
 2180POPC   C3A29285   1.254  23.641   8.072
 2180POPC   C4A29286   1.067  23.667   7.695
 2180POPC   C1B29287   1.041  24.066   8.780
 2180POPC   C2B29288   0.959  24.209   8.363
 2180POPC   C3B29289   1.061  24.102   7.942
 2180POPC   C4B29290   1.445  24.005   7.763
 2181POPC   NC329291  17.402  21.184   9.323
 2181POPC   PO429292  17.795  20.627   9.584
 2181POPC   GL129293  17.498  20.676   9.210
 2181POPC   GL229294  17.197  20.453   9.154
 2181POPC   C1A29295  17.565  20.606   8.757
 2181POPC   D2A29296  17.697  20.303   8.439
 2181POPC   C3A29297  17.583  20.447   8.054
 2181POPC   C4A29298  17.714  20.666   7.720
 2181POPC   C1B29299  17.033  20.544   8.735
 2181POPC   C2B29300  17.225  20.727   8.354
 2181POPC   C3B29301  17.116  20.591   7.931
 2181POPC   C4B29302  16.833  20.252   7.799
 2182POPC   NC329303  12.778  32.806   9.448
 2182POPC   PO429304  12.901  33.430   9.523
 2182POPC   GL129305  12.812  33.255   9.123
 2182POPC   GL229306  13.068  33.016   9.079
 2182POPC   C1A29307  12.868  33.218   8.677
 2182POPC   D2A29308  12.686  33.204   8.285
 2182POPC   C3A29309  12.852  33.125   7.899
 2182POPC   C4A29310  12.675  32.935   7.523
 2182POPC   C1B29311  13.262  32.843   8.727
 2182POPC   C2B29312  13.179  33.026   8.335
 2182POPC   C3B29313  13.295  32.806   7.999
 2182POPC   C4B29314  13.262  32.967   7.642
 2183POPC   NC329315  30.024  14.874   9.477
 2183POPC   PO429316  29.609  14.351   9.564
 2183POPC   GL129317  29.726  14.581   9.166
 2183POPC   GL229318  30.097  14.559   9.077
 2183POPC   C1A29319  29.738  14.431   8.743
 2183POPC   D2A29320  29.763  14.553   8.343
 2183POPC   C3A29321  29.720  14.299   8.013
 2183POPC   C4A29322  29.812  14.372   7.606
 2183POPC   C1B29323  30.251  14.501   8.651
 2183POPC   C2B29324  30.219  14.400   8.208
 2183POPC   C3B29325  30.349  14.533   7.815
 2183POPC   C4B29326  30.296  14.356   7.416
 2184POPC   NC329327  43.530  38.685   9.496
 2184POPC   PO429328  42.849  38.721   9.489
 2184POPC   GL129329  42.959  38.561   9.121
 2184POPC   GL229330  43.323  38.545   9.050
 2184POPC   C1A29331  42.857  38.339   8.770
 2184POPC   D2A29332  43.003  38.181   8.380
 2184POPC   C3A29333  43.108  38.432   8.026
 2184POPC   C4A29334  43.116  38.270   7.578
 2184POPC   C1B29335  43.376  38.212   8.744
 2184POPC   C2B29336  43.563  38.240   8.321
 2184POPC   C3B29337  43.562  38.266   7.866
 2184POPC   C4B29338  43.538  38.604   7.596
 2185POPC   NC329339  26.531  20.737   9.552
 2185POPC   PO429340  27.064  20.532   9.269
 2185POPC   GL129341  26.749  20.743   9.037
 2185POPC   GL229342  26.431  20.534   9.071
 2185POPC   C1A29343  26.927  20.780   8.616
 2185POPC   D2A29344  27.092  20.449   8.355
 2185POPC   C3A29345  26.939  20.497   7.947
 2185POPC   C4A29346  26.867  20.892   7.714
 2185POPC   C1B29347  26.501  20.493   8.624
 2185POPC   C2B29348  26.567  20.736   8.222
 2185POPC   C3B29349  26.462  20.594   7.799
 2185POPC   C4B29350  26.660  20.242   7.588
 2186POPC   NC329351   5.418   1.216   9.453
 2186POPC   PO429352   6.100   1.398   9.628
 2186POPC   GL129353   5.926   1.257   9.227
 2186POPC   GL229354   5.718   0.974   9.148
 2186POPC   C1A29355   5.890   1.306   8.785
 2186POPC   D2A29356   6.058   1.154   8.416
 2186POPC   C3A29357   6.125   1.431   8.027
 2186POPC   C4A29358   5.962   1.546   7.610
 2186POPC   C1B29359   5.475   0.942   8.798
 2186POPC   C2B29360   5.527   1.072   8.399
 2186POPC   C3B29361   5.772   1.066   8.017
 2186POPC   C4B29362   5.614   1.147   7.662
 2187POPC   NC329363   3.682  11.076   9.320
 2187POPC   PO429364   3.234  11.555   9.513
 2187POPC   GL129365   3.364  11.419   9.138
 2187POPC   GL229366   3.222  11.058   9.148
 2187POPC   C1A29367   3.624  11.395   8.760
 2187POPC   D2A29368   3.429  11.453   8.397
 2187POPC   C3A29369   3.618  11.459   7.995
 2187POPC   C4A29370   3.434  11.452   7.573
 2187POPC   C1B29371   3.359  10.964   8.740
 2187POPC   C2B29372   3.661  11.008   8.426
 2187POPC   C3B29373   3.480  10.967   8.059
 2187POPC   C4B29374   3.687  11.027   7.682
 2188POPC   NC329375  34.456  34.025   9.589
 2188POPC   PO429376  34.450  33.369   9.620
 2188POPC   GL129377  34.618  33.674   9.263
 2188POPC   GL229378  34.312  33.865   9.116
 2188POPC   C1A29379  34.722  33.801   8.828
 2188POPC   D2A29380  34.539  33.695   8.410
 2188POPC   C3A29381  34.828  33.778   8.101
 2188POPC   C4A29382  34.773  34.094   7.802
 2188POPC   C1B29383  34.293  34.051   8.667
 2188POPC   C2B29384  34.506  34.199   8.260
 2188POPC   C3B29385  34.341  34.372   7.850
 2188POPC   C4B29386  34.510  34.335   7.426
 2189POPC   NC329387  33.983  14.479  10.017
 2189POPC   PO429388  33.727  14.130   9.545
 2189POPC   GL129389  33.872  14.375   9.216
 2189POPC   GL229390  33.619  14.212   9.016
 2189POPC   C1A29391  34.033  14.452   8.804
 2189POPC   D2A29392  33.812  14.533   8.433
 2189POPC   C3A29393  34.028  14.483   8.076
 2189POPC   C4A29394  34.173  14.592   7.697
 2189POPC   C1B29395  33.428  14.536   8.775
 2189POPC   C2B29396  33.287  14.699   8.354
 2189POPC   C3B29397  33.412  14.612   7.932
 2189POPC   C4B29398  33.683  14.397   7.725
 2190POPC   NC329399  37.605   3.093   9.486
 2190POPC   PO429400  38.233   2.924   9.572
 2190POPC   GL129401  37.877   2.746   9.224
 2190POPC   GL229402  37.555   2.582   9.340
 2190POPC   C1A29403  37.604   2.779   8.803
 2190POPC   D2A29404  37.415   2.873   8.357
 2190POPC   C3A29405  37.623   2.781   7.968
 2190POPC   C4A29406  37.978   3.010   7.861
 2190POPC   C1B29407  37.312   2.412   8.993
 2190POPC   C2B29408  37.315   2.407   8.548
 2190POPC   C3B29409  37.386   2.343   8.111
 2190POPC   C4B29410  37.345   2.423   7.674
 2191POPC   NC329411  40.257   6.137   9.836
 2191POPC   PO429412  40.052   6.734   9.517
 2191POPC   GL129413  40.052   6.516   9.119
 2191POPC   GL229414  39.945   6.819   8.967
 2191POPC   C1A29415  39.966   6.431   8.667
 2191POPC   D2A29416  40.124   6.581   8.278
 2191POPC   C3A29417  39.813   6.737   8.024
 2191POPC   C4A29418  39.839   6.456   7.736
 2191POPC   C1B29419  40.131   7.073   8.718
 2191POPC   C2B29420  40.049   7.100   8.351
 2191POPC   C3B29421  40.218   7.040   8.013
 2191POPC   C4B29422  40.089   6.897   7.626
 2192POPC   NC329423  16.446  14.694   9.426
 2192POPC   PO429424  16.900  14.212   9.516
 2192POPC   GL129425  16.896  14.479   9.138
 2192POPC   GL229426  16.999  14.856   9.180
 2192POPC   C1A29427  16.871  14.326   8.707
 2192POPC   D2A29428  16.797  14.178   8.283
 2192POPC   C3A29429  16.514  14.373   8.010
 2192POPC   C4A29430  16.622  14.466   7.584
 2192POPC   C1B29431  16.892  14.836   8.734
 2192POPC   C2B29432  16.762  14.711   8.301
 2192POPC   C3B29433  16.991  14.600   7.897
 2192POPC   C4B29434  17.098  14.408   7.460
 2193POPC   NC329435   7.214   8.656   9.506
 2193POPC   PO429436   7.639   9.150   9.604
 2193POPC   GL129437   7.508   9.073   9.161
 2193POPC   GL229438   7.576   8.736   9.059
 2193POPC   C1A29439   7.591   9.084   8.693
 2193POPC   D2A29440   7.568   8.817   8.347
 2193POPC   C3A29441   7.452   8.961   7.936
 2193POPC   C4A29442   7.616   9.093   7.526
 2193POPC   C1B29443   7.220   8.683   8.732
 2193POPC   C2B29444   7.065   8.738   8.285
 2193POPC   C3B29445   7.193   8.496   7.897
 2193POPC   C4B29446   7.426   8.502   7.507
 2194POPC   NC329447  14.469  28.094   9.487
 2194POPC   PO429448  14.061  28.587   9.567
 2194POPC   GL129449  14.257  28.465   9.195
 2194POPC   GL229450  14.636  28.488   9.217
 2194POPC   C1A29451  14.325  28.539   8.787
 2194POPC   D2A29452  14.437  28.358   8.433
 2194POPC   C3A29453  14.276  28.540   8.088
 2194POPC   C4A29454  14.298  28.247   7.792
 2194POPC   C1B29455  14.841  28.642   8.870
 2194POPC   C2B29456  14.739  28.760   8.478
 2194POPC   C3B29457  14.823  28.525   8.127
 2194POPC   C4B29458  14.687  28.594   7.749
 2195POPC   NC329459  14.383  18.896   9.578
 2195POPC   PO429460  14.145  19.501   9.367
 2195POPC   GL129461  14.189  19.069   9.147
 2195POPC   GL229462  14.549  18.979   9.107
 2195POPC   C1A29463  14.216  18.801   8.755
 2195POPC   D2A29464  14.500  18.925   8.411
 2195POPC   C3A29465  14.366  18.994   8.006
 2195POPC   C4A29466  14.000  18.740   7.861
 2195POPC   C1B29467  14.524  19.302   8.798
 2195POPC   C2B29468  14.772  19.368   8.433
 2195POPC   C3B29469  14.692  19.432   8.008
 2195POPC   C4B29470  14.817  19.286   7.639
 2196POPC   NC329471  28.100  10.101   9.648
 2196POPC   PO429472  28.345   9.541   9.466
 2196POPC   GL129473  28.198   9.675   9.132
 2196POPC   GL229474  28.363   9.982   9.164
 2196POPC   C1A29475  28.123   9.591   8.710
 2196POPC   D2A29476  28.336   9.758   8.389
 2196POPC   C3A29477  28.302   9.518   8.040
 2196POPC   C4A29478  28.467   9.457   7.654
 2196POPC   C1B29479  28.375  10.243   8.801
 2196POPC   C2B29480  28.459  10.287   8.373
 2196POPC   C3B29481  28.396  10.063   7.990
 2196POPC   C4B29482  28.387   9.959   7.579
 2197POPC   NC329483  38.302  36.621   9.223
 2197POPC   PO429484  38.229  37.180   9.528
 2197POPC   GL129485  38.340  37.122   9.096
 2197POPC   GL229486  38.638  36.987   9.162
 2197POPC   C1A29487  38.455  36.910   8.675
 2197POPC   D2A29488  38.332  36.561   8.436
 2197POPC   C3A29489  38.406  36.632   8.030
 2197POPC   C4A29490  38.549  37.041   7.879
 2197POPC   C1B29491  38.816  37.209   8.847
 2197POPC   C2B29492  38.864  37.117   8.430
 2197POPC   C3B29493  38.829  37.435   8.152
 2197POPC   C4B29494  38.783  37.465   7.746
 2198POPC   NC329495  39.646  37.104   9.265
 2198POPC   PO429496  39.034  36.938   9.464
 2198POPC   GL129497  39.174  36.932   9.078
 2198POPC   GL229498  38.963  36.646   8.962
 2198POPC   C1A29499  39.317  37.161   8.706
 2198POPC   D2A29500  39.319  37.292   8.279
 2198POPC   C3A29501  39.133  37.045   7.969
 2198POPC   C4A29502  39.420  36.970   7.633
 2198POPC   C1B29503  39.332  36.637   8.707
 2198POPC   C2B29504  39.376  36.786   8.341
 2198POPC   C3B29505  39.435  36.611   7.986
 2198POPC   C4B29506  39.597  36.327   7.733
 2199POPC   NC329507  17.146   4.390   9.726
 2199POPC   PO429508  17.747   4.439   9.453
 2199POPC   GL129509  17.415   4.544   9.113
 2199POPC   GL229510  17.033   4.602   9.216
 2199POPC   C1A29511  17.534   4.476   8.661
 2199POPC   D2A29512  17.546   4.569   8.204
 2199POPC   C3A29513  17.827   4.419   7.882
 2199POPC   C4A29514  17.834   4.447   7.416
 2199POPC   C1B29515  17.056   4.249   8.897
 2199POPC   C2B29516  17.140   4.212   8.448
 2199POPC   C3B29517  17.119   4.367   8.013
 2199POPC   C4B29518  17.360   4.220   7.696
 2200POPC   NC329519  44.524  20.369   9.866
 2200POPC   PO429520   0.059  20.785   9.830
 2200POPC   GL129521  44.759  20.735   9.461
 2200POPC   GL229522  44.949  20.916   9.216
 2200POPC   C1A29523  44.620  20.582   9.014
 2200POPC   D2A29524  44.857  20.453   8.613
 2200POPC   C3A29525  44.651  20.355   8.171
 2200POPC   C4A29526  44.449  20.593   7.797
 2200POPC   C1B29527  44.868  20.984   8.773
 2200POPC   C2B29528  44.744  20.855   8.340
 2200POPC   C3B29529  44.945  20.724   7.969
 2200POPC   C4B29530  44.925  20.400   7.650
 2201POPC   NC329531   4.465  44.992   9.472
 2201POPC   PO429532   4.011  44.514   9.529
 2201POPC   GL129533   4.153  44.683   9.172
 2201POPC   GL229534   4.186   0.038   9.036
 2201POPC   C1A29535   4.283  44.526   8.811
 2201POPC   D2A29536   4.180  44.763   8.465
 2201POPC   C3A29537   4.110  44.554   8.087
 2201POPC   C4A29538   4.372  44.635   7.726
 2201POPC   C1B29539   4.597  44.913   8.819
 2201POPC   C2B29540   4.717  44.713   8.431
 2201POPC   C3B29541   4.821  44.878   8.028
 2201POPC   C4B29542   4.725  44.979   7.606
 2202POPC   NC329543  42.647  23.913   9.615
 2202POPC   PO429544  43.331  23.829   9.437
 2202POPC   GL129545  43.166  23.836   9.069
 2202POPC   GL229546  42.816  23.779   9.143
 2202POPC   C1A29547  43.041  23.604   8.696
 2202POPC   D2A29548  43.219  23.696   8.283
 2202POPC   C3A29549  43.188  23.551   7.866
 2202POPC   C4A29550  43.200  23.783   7.486
 2202POPC   C1B29551  42.572  23.905   8.823
 2202POPC   C2B29552  42.719  23.860   8.383
 2202POPC   C3B29553  42.705  23.555   8.061
 2202POPC   C4B29554  42.730  23.579   7.601
 2203POPC   NC329555  15.035  21.103   9.367
 2203POPC   PO429556  15.165  21.718   9.485
 2203POPC   GL129557  15.317  21.521   9.119
 2203POPC   GL229558  15.513  21.218   9.128
 2203POPC   C1A29559  15.115  21.439   8.743
 2203POPC   D2A29560  15.127  21.671   8.353
 2203POPC   C3A29561  14.824  21.577   8.030
 2203POPC   C4A29562  15.056  21.670   7.627
 2203POPC   C1B29563  15.368  20.969   8.772
 2203POPC   C2B29564  15.106  21.035   8.407
 2203POPC   C3B29565  15.214  21.247   8.034
 2203POPC   C4B29566  15.508  21.197   7.726
 2204POPC   NC329567  16.834  29.180   9.668
 2204POPC   PO429568  17.424  29.403   9.505
 2204POPC   GL129569  17.303  29.143   9.194
 2204POPC   GL229570  16.962  29.306   9.166
 2204POPC   C1A29571  17.484  29.058   8.781
 2204POPC   D2A29572  17.649  28.879   8.393
 2204POPC   C3A29573  17.614  29.170   8.038
 2204POPC   C4A29574  17.369  29.054   7.692
 2204POPC   C1B29575  17.237  29.510   8.845
 2204POPC   C2B29576  17.349  29.422   8.415
 2204POPC   C3B29577  17.265  29.591   8.005
 2204POPC   C4B29578  17.254  29.543   7.551
 2205POPC   NC329579  40.657  34.772   9.563
 2205POPC   PO429580  41.116  34.326   9.412
 2205POPC   GL129581  40.911  34.576   9.142
 2205POPC   GL229582  40.592  34.406   9.211
 2205POPC   C1A29583  40.875  34.473   8.721
 2205POPC   D2A29584  41.136  34.367   8.389
 2205POPC   C3A29585  40.961  34.438   7.980
 2205POPC   C4A29586  40.884  34.477   7.548
 2205POPC   C1B29587  40.459  34.723   8.913
 2205POPC   C2B29588  40.480  34.701   8.495
 2205POPC   C3B29589  40.493  34.725   8.052
 2205POPC   C4B29590  40.446  34.376   7.764
 2206POPC   NC329591  37.799  14.609   9.440
 2206POPC   PO429592  37.441  14.168   9.670
 2206POPC   GL129593  37.627  14.227   9.160
 2206POPC   GL229594  37.547  14.557   9.015
 2206POPC   C1A29595  37.780  14.243   8.703
 2206POPC   D2A29596  37.669  14.445   8.316
 2206POPC   C3A29597  37.615  14.227   7.919
 2206POPC   C4A29598  37.901  14.129   7.596
 2206POPC   C1B29599  37.689  14.813   8.694
 2206POPC   C2B29600  37.692  15.015   8.282
 2206POPC   C3B29601  37.760  14.748   7.923
 2206POPC   C4B29602  37.669  14.592   7.539
 2207POPC   NC329603  14.734  13.868   9.909
 2207POPC   PO429604  15.302  13.536   9.601
 2207POPC   GL129605  15.088  13.628   9.123
 2207POPC   GL229606  14.801  13.943   9.140
 2207POPC   C1A29607  15.174  13.459   8.708
 2207POPC   D2A29608  15.335  13.541   8.318
 2207POPC   C3A29609  15.079  13.404   8.018
 2207POPC   C4A29610  15.422  13.437   7.778
 2207POPC   C1B29611  15.038  14.080   8.802
 2207POPC   C2B29612  15.012  13.919   8.410
 2207POPC   C3B29613  14.989  14.095   8.029
 2207POPC   C4B29614  15.021  13.813   7.697
 2208POPC   NC329615  37.991  36.780   9.670
 2208POPC   PO429616  37.477  37.193   9.498
 2208POPC   GL129617  37.765  37.093   9.089
 2208POPC   GL229618  37.541  36.853   8.908
 2208POPC   C1A29619  37.951  36.827   8.654
 2208POPC   D2A29620  37.765  36.767   8.198
 2208POPC   C3A29621  37.994  36.772   7.767
 2208POPC   C4A29622  38.100  36.589   7.311
 2208POPC   C1B29623  37.607  37.189   8.612
 2208POPC   C2B29624  37.696  37.341   8.210
 2208POPC   C3B29625  37.596  37.120   7.827
 2208POPC   C4B29626  37.388  36.736   7.746
 2209POPC   NC329627   7.711  31.370   9.457
 2209POPC   PO429628   7.555  31.989   9.535
 2209POPC   GL129629   7.436  31.723   9.135
 2209POPC   GL229630   7.359  31.368   9.024
 2209POPC   C1A29631   7.586  31.690   8.688
 2209POPC   D2A29632   7.450  31.893   8.301
 2209POPC   C3A29633   7.593  31.738   7.920
 2209POPC   C4A29634   7.571  31.728   7.488
 2209POPC   C1B29635   7.134  31.430   8.622
 2209POPC   C2B29636   7.394  31.369   8.238
 2209POPC   C3B29637   7.338  31.295   7.788
 2209POPC   C4B29638   7.156  31.448   7.399
 2210POPC   NC329639  25.975  35.810   9.313
 2210POPC   PO429640  25.992  35.112   9.603
 2210POPC   GL129641  25.991  35.280   9.185
 2210POPC   GL229642  26.325  35.473   9.141
 2210POPC   C1A29643  25.861  35.062   8.770
 2210POPC   D2A29644  25.676  35.133   8.352
 2210POPC   C3A29645  25.875  35.075   7.983
 2210POPC   C4A29646  25.853  35.298   7.575
 2210POPC   C1B29647  26.156  35.472   8.742
 2210POPC   C2B29648  26.158  35.334   8.360
 2210POPC   C3B29649  26.073  35.537   8.003
 2210POPC   C4B29650  26.352  35.399   7.716
 2211POPC   NC329651  21.018  44.436   9.458
 2211POPC   PO429652  21.501  44.887   9.524
 2211POPC   GL129653  21.329  44.717   9.185
 2211POPC   GL229654  21.001  44.832   9.119
 2211POPC   C1A29655  21.293  44.478   8.842
 2211POPC   D2A29656  21.546  44.451   8.473
 2211POPC   C3A29657  21.370  44.502   8.066
 2211POPC   C4A29658  21.486  44.381   7.671
 2211POPC   C1B29659  21.142  44.953   8.752
 2211POPC   C2B29660  21.137  44.773   8.425
 2211POPC   C3B29661  21.238   0.005   8.059
 2211POPC   C4B29662  21.404  44.901   7.682
 2212POPC   NC329663  21.883  16.406   9.630
 2212POPC   PO429664  22.171  16.945   9.563
 2212POPC   GL129665  22.034  16.757   9.218
 2212POPC   GL229666  22.222  16.441   9.242
 2212POPC   C1A29667  22.137  16.930   8.802
 2212POPC   D2A29668  22.302  16.984   8.395
 2212POPC   C3A29669  22.102  16.958   8.026
 2212POPC   C4A29670  22.298  16.943   7.647
 2212POPC   C1B29671  22.060  16.427   8.838
 2212POPC   C2B29672  21.911  16.631   8.438
 2212POPC   C3B29673  21.998  16.452   8.022
 2212POPC   C4B29674  22.137  16.477   7.572
 2213POPC   NC329675   6.825  10.111   9.408
 2213POPC   PO429676   6.406  10.617   9.502
 2213POPC   GL129677   6.461  10.389   9.154
 2213POPC   GL229678   6.821  10.488   9.071
 2213POPC   C1A29679   6.486  10.341   8.739
 2213POPC   D2A29680   6.793  10.526   8.443
 2213POPC   C3A29681   6.666  10.546   8.004
 2213POPC   C4A29682   6.305  10.531   7.746
 2213POPC   C1B29683   6.934  10.131   8.748
 2213POPC   C2B29684   7.030  10.073   8.347
 2213POPC   C3B29685   6.932  10.109   7.919
 2213POPC   C4B29686   6.684  10.249   7.545
 2214POPC   NC329687   1.773  33.644   9.523
 2214POPC   PO429688   2.349  34.008   9.410
 2214POPC   GL129689   2.124  33.797   9.093
 2214POPC   GL229690   1.826  33.927   9.101
 2214POPC   C1A29691   2.051  33.662   8.662
 2214POPC   D2A29692   2.224  33.825   8.270
 2214POPC   C3A29693   2.062  33.620   7.942
 2214POPC   C4A29694   1.712  33.437   7.720
 2214POPC   C1B29695   1.875  34.136   8.729
 2214POPC   C2B29696   1.749  34.015   8.336
 2214POPC   C3B29697   1.902  34.135   7.946
 2214POPC   C4B29698   1.648  34.290   7.612
 2215POPC   NC329699  23.676   2.082   9.503
 2215POPC   PO429700  23.240   1.572   9.484
 2215POPC   GL129701  23.631   1.728   9.140
 2215POPC   GL229702  23.846   2.110   9.037
 2215POPC   C1A29703  23.704   1.781   8.692
 2215POPC   D2A29704  23.770   2.083   8.373
 2215POPC   C3A29705  23.546   2.093   8.044
 2215POPC   C4A29706  23.665   2.170   7.673
 2215POPC   C1B29707  24.158   2.100   8.687
 2215POPC   C2B29708  24.235   1.907   8.252
 2215POPC   C3B29709  23.952   1.784   7.863
 2215POPC   C4B29710  23.987   1.937   7.376
 2216POPC   NC329711  14.911   5.044   9.497
 2216POPC   PO429712  15.589   4.960   9.568
 2216POPC   GL129713  15.347   4.944   9.182
 2216POPC   GL229714  15.231   5.257   9.156
 2216POPC   C1A29715  15.409   5.064   8.720
 2216POPC   D2A29716  15.310   4.852   8.347
 2216POPC   C3A29717  15.394   5.092   8.017
 2216POPC   C4A29718  15.340   5.181   7.602
 2216POPC   C1B29719  14.929   5.036   8.839
 2216POPC   C2B29720  14.811   5.031   8.382
 2216POPC   C3B29721  14.899   4.912   7.936
 2216POPC   C4B29722  14.926   4.932   7.486
 2217POPC   NC329723  41.522   3.775   9.355
 2217POPC   PO429724  41.353   3.111   9.487
 2217POPC   GL129725  41.449   3.271   9.089
 2217POPC   GL229726  41.768   3.443   9.073
 2217POPC   C1A29727  41.288   3.529   8.751
 2217POPC   D2A29728  41.308   3.436   8.331
 2217POPC   C3A29729  41.390   3.629   7.957
 2217POPC   C4A29730  41.419   3.344   7.588
 2217POPC   C1B29731  41.764   3.719   8.718
 2217POPC   C2B29732  41.838   3.534   8.330
 2217POPC   C3B29733  41.793   3.325   7.976
 2217POPC   C4B29734  41.871   3.602   7.680
 2218POPC   NC329735   3.367  22.435   9.395
 2218POPC   PO429736   2.848  22.149   9.800
 2218POPC   GL129737   2.811  22.138   9.324
 2218POPC   GL229738   2.818  21.784   9.315
 2218POPC   C1A29739   2.756  22.394   8.892
 2218POPC   D2A29740   2.739  22.255   8.452
 2218POPC   C3A29741   2.838  22.428   8.042
 2218POPC   C4A29742   2.673  22.403   7.639
 2218POPC   C1B29743   2.899  21.898   8.852
 2218POPC   C2B29744   3.005  21.814   8.396
 2218POPC   C3B29745   3.050  21.953   7.966
 2218POPC   C4B29746   2.627  21.935   7.818
 2219POPC   NC329747  39.776  29.117   9.500
 2219POPC   PO429748  40.368  29.036   9.484
 2219POPC   GL129749  40.137  29.318   9.201
 2219POPC   GL229750  40.061  28.997   9.077
 2219POPC   C1A29751  39.947  29.407   8.814
 2219POPC   D2A29752  39.952  29.170   8.457
 2219POPC   C3A29753  39.911  29.359   8.070
 2219POPC   C4A29754  40.159  29.287   7.732
 2219POPC   C1B29755  40.147  28.654   8.813
 2219POPC   C2B29756  40.000  28.662   8.403
 2219POPC   C3B29757  40.088  28.881   8.057
 2219POPC   C4B29758  40.162  28.781   7.687
 2220POPC   NC329759  32.123   2.901   9.537
 2220POPC   PO429760  32.623   2.515   9.376
 2220POPC   GL129761  32.339   2.623   9.071
 2220POPC   GL229762  32.021   2.521   9.218
 2220POPC   C1A29763  32.356   2.928   8.721
 2220POPC   D2A29764  32.198   3.007   8.347
 2220POPC   C3A29765  32.354   2.760   8.074
 2220POPC   C4A29766  32.265   2.795   7.687
 2220POPC   C1B29767  31.906   2.675   8.788
 2220POPC   C2B29768  32.039   2.485   8.377
 2220POPC   C3B29769  31.955   2.433   7.918
 2220POPC   C4B29770  31.840   2.596   7.492
 2221POPC   NC329771  41.401  32.481   9.338
 2221POPC   PO429772  41.759  32.119   9.765
 2221POPC   GL129773  41.754  32.072   9.298
 2221POPC   GL229774  42.095  32.078   9.235
 2221POPC   C1A29775  41.797  32.263   8.844
 2221POPC   D2A29776  42.046  32.492   8.524
 2221POPC   C3A29777  41.843  32.438   8.129
 2221POPC   C4A29778  41.423  32.365   7.949
 2221POPC   C1B29779  42.017  31.809   8.871
 2221POPC   C2B29780  41.767  31.735   8.493
 2221POPC   C3B29781  41.504  31.898   8.192
 2221POPC   C4B29782  41.569  31.896   7.766
 2222POPC   NC329783  18.469   0.446   9.458
 2222POPC   PO429784  17.819   0.410   9.444
 2222POPC   GL129785  18.068   0.306   9.108
 2222POPC   GL229786  18.169   0.646   9.114
 2222POPC   C1A29787  18.246   0.308   8.704
 2222POPC   D2A29788  18.099   0.455   8.304
 2222POPC   C3A29789  18.234   0.317   7.913
 2222POPC   C4A29790  18.544   0.010   7.767
 2222POPC   C1B29791  18.382   0.795   8.750
 2222POPC   C2B29792  18.544   0.808   8.358
 2222POPC   C3B29793  18.364   0.880   7.978
 2222POPC   C4B29794  18.266   0.702   7.591
 2223POPC   NC329795  34.675   2.483   9.660
 2223POPC   PO429796  34.338   1.974   9.428
 2223POPC   GL129797  34.624   1.929   9.092
 2223POPC   GL229798  35.028   1.949   9.121
 2223POPC   C1A29799  34.362   1.868   8.724
 2223POPC   D2A29800  34.275   1.655   8.331
 2223POPC   C3A29801  34.414   1.864   7.995
 2223POPC   C4A29802  34.585   2.253   7.855
 2223POPC   C1B29803  34.913   2.055   8.687
 2223POPC   C2B29804  34.856   1.960   8.227
 2223POPC   C3B29805  34.918   1.838   7.783
 2223POPC   C4B29806  34.967   1.724   7.326
 2224POPC   NC329807   9.944  29.488   9.502
 2224POPC   PO429808   9.454  29.001   9.597
 2224POPC   GL129809   9.634  29.145   9.250
 2224POPC   GL229810   9.959  28.987   9.240
 2224POPC   C1A29811   9.531  29.100   8.831
 2224POPC   D2A29812   9.678  29.345   8.456
 2224POPC   C3A29813   9.584  29.181   8.046
 2224POPC   C4A29814   9.402  29.414   7.700
 2224POPC   C1B29815  10.020  29.204   8.893
 2224POPC   C2B29816  10.160  29.274   8.531
 2224POPC   C3B29817  10.097  29.315   8.101
 2224POPC   C4B29818   9.932  29.367   7.687
 2225POPC   NC329819  34.050   0.774   9.615
 2225POPC   PO429820  33.886   1.457   9.457
 2225POPC   GL129821  33.996   1.331   9.077
 2225POPC   GL229822  34.135   1.036   9.169
 2225POPC   C1A29823  33.928   1.438   8.673
 2225POPC   D2A29824  33.628   1.445   8.357
 2225POPC   C3A29825  33.891   1.431   8.019
 2225POPC   C4A29826  34.120   1.568   7.688
 2225POPC   C1B29827  34.049   0.917   8.760
 2225POPC   C2B29828  33.901   1.013   8.346
 2225POPC   C3B29829  33.887   0.946   7.932
 2225POPC   C4B29830  33.635   0.737   7.662
 2226POPC   NC329831  27.426  11.693   9.678
 2226POPC   PO429832  27.756  11.136   9.402
 2226POPC   GL129833  27.819  11.153   8.999
 2226POPC   GL229834  27.458  11.162   8.920
 2226POPC   C1A29835  27.772  11.424   8.599
 2226POPC   D2A29836  27.384  11.327   8.404
 2226POPC   C3A29837  27.326  11.609   8.080
 2226POPC   C4A29838  27.681  11.639   7.771
 2226POPC   C1B29839  27.682  10.921   8.592
 2226POPC   C2B29840  27.734  10.937   8.169
 2226POPC   C3B29841  27.521  11.160   7.843
 2226POPC   C4B29842  27.227  11.447   7.621
 2227POPC   NC329843   6.376  35.021   9.881
 2227POPC   PO429844   6.492  35.473   9.445
 2227POPC   GL129845   6.678  35.544   9.086
 2227POPC   GL229846   6.988  35.705   9.095
 2227POPC   C1A29847   6.629  35.379   8.686
 2227POPC   D2A29848   6.666  35.205   8.299
 2227POPC   C3A29849   6.454  35.453   8.018
 2227POPC   C4A29850   6.585  35.265   7.657
 2227POPC   C1B29851   7.080  35.603   8.681
 2227POPC   C2B29852   6.922  35.677   8.279
 2227POPC   C3B29853   6.952  35.569   7.825
 2227POPC   C4B29854   7.040  35.406   7.409
 2228POPC   NC329855  15.951  35.537   9.538
 2228POPC   PO429856  15.884  34.878   9.635
 2228POPC   GL129857  15.909  35.123   9.155
 2228POPC   GL229858  15.808  35.427   9.070
 2228POPC   C1A29859  16.033  35.083   8.667
 2228POPC   D2A29860  16.280  35.290   8.296
 2228POPC   C3A29861  16.163  35.216   7.850
 2228POPC   C4A29862  15.701  35.236   7.759
 2228POPC   C1B29863  16.059  35.577   8.771
 2228POPC   C2B29864  15.855  35.527   8.379
 2228POPC   C3B29865  15.937  35.657   7.955
 2228POPC   C4B29866  16.043  35.596   7.475
 2229POPC   NC329867  35.703  32.288   9.388
 2229POPC   PO429868  36.346  32.330   9.567
 2229POPC   GL129869  36.164  32.168   9.180
 2229POPC   GL229870  36.466  32.072   9.064
 2229POPC   C1A29871  36.068  32.122   8.722
 2229POPC   D2A29872  36.384  31.944   8.433
 2229POPC   C3A29873  36.205  31.889   8.031
 2229POPC   C4A29874  35.935  31.974   7.681
 2229POPC   C1B29875  36.486  32.391   8.705
 2229POPC   C2B29876  36.282  32.441   8.325
 2229POPC   C3B29877  35.961  32.342   8.049
 2229POPC   C4B29878  36.067  32.479   7.633
 2230POPC   NC329879   6.545  20.100   9.527
 2230POPC   PO429880   6.710  19.388   9.449
 2230POPC   GL129881   6.740  19.695   9.093
 2230POPC   GL229882   6.467  19.909   9.062
 2230POPC   C1A29883   6.720  19.742   8.631
 2230POPC   D2A29884   6.434  19.684   8.263
 2230POPC   C3A29885   6.613  19.798   7.863
 2230POPC   C4A29886   6.893  19.563   7.552
 2230POPC   C1B29887   6.195  20.125   8.770
 2230POPC   C2B29888   6.033  20.032   8.390
 2230POPC   C3B29889   6.195  20.089   7.992
 2230POPC   C4B29890   6.331  20.178   7.578
 2231POPC   NC329891  13.983  12.825   9.757
 2231POPC   PO429892  13.601  12.242   9.533
 2231POPC   GL129893  13.464  12.166   9.121
 2231POPC   GL229894  13.806  12.131   9.068
 2231POPC   C1A29895  13.560  12.121   8.644
 2231POPC   D2A29896  13.372  12.013   8.254
 2231POPC   C3A29897  13.582  11.977   7.871
 2231POPC   C4A29898  13.817  12.080   7.471
 2231POPC   C1B29899  13.934  12.436   8.814
 2231POPC   C2B29900  13.899  12.460   8.379
 2231POPC   C3B29901  13.918  12.347   7.956
 2231POPC   C4B29902  14.068  12.498   7.623
 2232POPC   NC329903   2.291  35.190   9.311
 2232POPC   PO429904   1.936  35.710   9.614
 2232POPC   GL129905   1.917  35.528   9.179
 2232POPC   GL229906   1.831  35.178   9.037
 2232POPC   C1A29907   2.069  35.514   8.736
 2232POPC   D2A29908   1.884  35.272   8.378
 2232POPC   C3A29909   2.023  35.464   7.979
 2232POPC   C4A29910   1.897  35.529   7.537
 2232POPC   C1B29911   2.175  34.996   8.725
 2232POPC   C2B29912   2.353  34.822   8.367
 2232POPC   C3B29913   2.126  34.949   8.043
 2232POPC   C4B29914   2.198  35.100   7.650
 2233POPC   NC329915  31.155   7.173   9.563
 2233POPC   PO429916  31.634   7.631   9.425
 2233POPC   GL129917  31.547   7.346   9.109
 2233POPC   GL229918  31.200   7.352   9.100
 2233POPC   C1A29919  31.770   7.307   8.714
 2233POPC   D2A29920  31.710   7.519   8.328
 2233POPC   C3A29921  31.654   7.299   7.951
 2233POPC   C4A29922  31.606   7.535   7.554
 2233POPC   C1B29923  31.263   7.470   8.688
 2233POPC   C2B29924  31.219   7.340   8.295
 2233POPC   C3B29925  31.246   7.594   7.964
 2233POPC   C4B29926  31.115   7.323   7.700
 2234POPC   NC329927   2.220  32.754   9.614
 2234POPC   PO429928   1.771  33.192   9.401
 2234POPC   GL129929   2.134  33.085   9.198
 2234POPC   GL229930   2.056  32.730   9.140
 2234POPC   C1A29931   2.128  33.162   8.772
 2234POPC   D2A29932   1.736  33.251   8.554
 2234POPC   C3A29933   1.808  33.209   8.153
 2234POPC   C4A29934   2.175  33.118   7.905
 2234POPC   C1B29935   1.774  32.798   8.818
 2234POPC   C2B29936   1.852  32.738   8.372
 2234POPC   C3B29937   1.780  32.737   7.929
 2234POPC   C4B29938   1.778  32.435   7.616
 2235POPC   NC329939  36.732  10.600   9.610
 2235POPC   PO429940  37.279  10.159   9.632
 2235POPC   GL129941  36.970  10.273   9.284
 2235POPC   GL229942  37.008  10.620   9.158
 2235POPC   C1A29943  36.756  10.292   8.864
 2235POPC   D2A29944  36.843  10.593   8.508
 2235POPC   C3A29945  36.832  10.331   8.137
 2235POPC   C4A29946  36.770  10.268   7.694
 2235POPC   C1B29947  37.178  10.891   8.827
 2235POPC   C2B29948  37.345  10.912   8.393
 2235POPC   C3B29949  37.123  10.733   8.058
 2235POPC   C4B29950  36.885  10.754   7.652
 2236POPC   NC329951  14.410  22.798   9.675
 2236POPC   PO429952  13.720  22.738   9.664
 2236POPC   GL129953  13.896  22.906   9.270
 2236POPC   GL229954  13.995  23.262   9.197
 2236POPC   C1A29955  13.788  22.966   8.847
 2236POPC   D2A29956  13.520  22.877   8.513
 2236POPC   C3A29957  13.452  23.023   8.097
 2236POPC   C4A29958  13.435  22.808   7.722
 2236POPC   C1B29959  13.976  23.445   8.794
 2236POPC   C2B29960  13.861  23.266   8.410
 2236POPC   C3B29961  13.773  23.407   8.015
 2236POPC   C4B29962  13.851  23.103   7.735
 2237POPC   NC329963  43.707  43.460   9.467
 2237POPC   PO429964  43.997  44.087   9.468
 2237POPC   GL129965  43.815  43.879   9.175
 2237POPC   GL229966  44.101  43.671   9.174
 2237POPC   C1A29967  43.628  43.961   8.772
 2237POPC   D2A29968  43.730  44.161   8.365
 2237POPC   C3A29969  43.630  43.946   7.993
 2237POPC   C4A29970  43.821  43.584   7.788
 2237POPC   C1B29971  44.149  43.757   8.777
 2237POPC   C2B29972  44.329  43.669   8.395
 2237POPC   C3B29973  44.151  43.869   8.062
 2237POPC   C4B29974  44.114  44.029   7.669
 2238POPC   NC329975  41.270  28.596   9.381
 2238POPC   PO429976  41.899  28.648   9.607
 2238POPC   GL129977  41.769  28.545   9.162
 2238POPC   GL229978  41.791  28.204   9.167
 2238POPC   C1A29979  41.452  28.435   8.772
 2238POPC   D2A29980  41.321  28.625   8.345
 2238POPC   C3A29981  41.444  28.449   7.915
 2238POPC   C4A29982  41.394  28.120   7.558
 2238POPC   C1B29983  41.942  28.320   8.737
 2238POPC   C2B29984  41.767  28.338   8.322
 2238POPC   C3B29985  41.989  28.403   7.896
 2238POPC   C4B29986  41.860  28.451   7.472
 2239POPC   NC329987  40.313  41.705   9.592
 2239POPC   PO429988  39.707  41.470   9.437
 2239POPC   GL129989  39.916  41.739   9.157
 2239POPC   GL229990  40.251  41.676   9.084
 2239POPC   C1A29991  39.887  41.884   8.723
 2239POPC   D2A29992  39.710  42.061   8.340
 2239POPC   C3A29993  39.719  41.820   7.958
 2239POPC   C4A29994  40.060  41.935   7.708
 2239POPC   C1B29995  40.136  41.449   8.679
 2239POPC   C2B29996  40.050  41.584   8.259
 2239POPC   C3B29997  40.048  41.435   7.843
 2239POPC   C4B29998  39.666  41.313   7.750
 2240POPC   NC329999   0.282  23.404   9.652
 2240POPC   PO430000   0.403  24.082   9.626
 2240POPC   GL130001   0.271  23.891   9.257
 2240POPC   GL230002   0.429  23.638   9.194
 2240POPC   C1A30003   0.203  23.939   8.795
 2240POPC   D2A30004   0.330  23.716   8.403
 2240POPC   C3A30005   0.281  23.852   7.977
 2240POPC   C4A30006   0.599  23.872   7.648
 2240POPC   C1B30007   0.779  23.558   8.894
 2240POPC   C2B30008   0.888  23.681   8.472
 2240POPC   C3B30009   0.733  23.629   8.080
 2240POPC   C4B30010   0.730  23.302   7.771
 2241POPC   NC330011  18.486   7.267   9.704
 2241POPC   PO430012  18.128   7.726   9.453
 2241POPC   GL130013  18.171   7.373   9.188
 2241POPC   GL230014  18.523   7.316   9.189
 2241POPC   C1A30015  18.157   7.494   8.746
 2241POPC   D2A30016  18.313   7.703   8.362
 2241POPC   C3A30017  18.047   7.768   7.996
 2241POPC   C4A30018  17.993   7.652   7.579
 2241POPC   C1B30019  18.556   7.178   8.765
 2241POPC   C2B30020  18.315   7.180   8.365
 2241POPC   C3B30021  18.397   7.376   7.962
 2241POPC   C4B30022  18.334   7.106   7.658
 2242POPC   NC330023   9.711  39.557   9.540
 2242POPC   PO430024   9.261  39.006   9.577
 2242POPC   GL130025   9.608  39.118   9.244
 2242POPC   GL230026   9.685  39.445   9.050
 2242POPC   C1A30027   9.714  38.995   8.796
 2242POPC   D2A30028   9.563  39.008   8.363
 2242POPC   C3A30029   9.510  39.125   7.950
 2242POPC   C4A30030   9.867  39.203   7.684
 2242POPC   C1B30031   9.491  39.688   8.701
 2242POPC   C2B30032   9.522  39.593   8.249
 2242POPC   C3B30033   9.525  39.614   7.779
 2242POPC   C4B30034   9.757  39.626   7.368
 2243POPC   NC330035  10.870  40.365   9.507
 2243POPC   PO430036  11.067  40.986   9.445
 2243POPC   GL130037  11.151  40.657   9.152
 2243POPC   GL230038  11.082  40.898   8.924
 2243POPC   C1A30039  11.356  40.511   8.755
 2243POPC   D2A30040  11.129  40.560   8.398
 2243POPC   C3A30041  11.205  40.715   8.028
 2243POPC   C4A30042  11.373  40.471   7.710
 2243POPC   C1B30043  11.464  41.001   8.782
 2243POPC   C2B30044  11.560  40.890   8.375
 2243POPC   C3B30045  11.712  40.762   7.972
 2243POPC   C4B30046  11.451  40.968   7.654
 2244POPC   NC330047  41.535  17.297   9.859
 2244POPC   PO430048  40.996  17.565   9.464
 2244POPC   GL130049  40.703  17.722   9.159
 2244POPC   GL230050  40.610  17.424   9.051
 2244POPC   C1A30051  40.768  17.762   8.687
 2244POPC   D2A30052  40.899  17.497   8.308
 2244POPC   C3A30053  40.864  17.634   7.882
 2244POPC   C4A30054  41.019  17.663   7.467
 2244POPC   C1B30055  40.733  17.191   8.707
 2244POPC   C2B30056  40.785  16.986   8.320
 2244POPC   C3B30057  40.872  17.112   7.927
 2244POPC   C4B30058  40.733  17.261   7.527
 2245POPC   NC330059  31.917  33.900   9.468
 2245POPC   PO430060  32.581  33.674   9.547
 2245POPC   GL130061  32.334  33.630   9.176
 2245POPC   GL230062  32.166  33.919   9.031
 2245POPC   C1A30063  32.488  33.683   8.745
 2245POPC   D2A30064  32.410  33.871   8.352
 2245POPC   C3A30065  32.521  33.566   8.001
 2245POPC   C4A30066  32.296  33.574   7.585
 2245POPC   C1B30067  32.061  34.147   8.681
 2245POPC   C2B30068  31.898  34.039   8.309
 2245POPC   C3B30069  32.066  33.842   7.966
 2245POPC   C4B30070  32.062  34.049   7.581
 2246POPC   NC330071  40.369  25.275   9.583
 2246POPC   PO430072  40.980  25.111   9.425
 2246POPC   GL130073  40.824  25.323   9.081
 2246POPC   GL230074  40.495  25.487   9.144
 2246POPC   C1A30075  40.568  25.139   8.770
 2246POPC   D2A30076  40.483  25.280   8.389
 2246POPC   C3A30077  40.663  25.108   8.049
 2246POPC   C4A30078  40.988  25.285   7.813
 2246POPC   C1B30079  40.571  25.663   8.752
 2246POPC   C2B30080  40.508  25.799   8.343
 2246POPC   C3B30081  40.546  25.604   7.945
 2246POPC   C4B30082  40.374  25.289   7.677
 2247POPC   NC330083  24.031  19.405   9.353
 2247POPC   PO430084  23.547  19.873   9.483
 2247POPC   GL130085  23.741  19.813   9.125
 2247POPC   GL230086  23.591  19.501   9.084
 2247POPC   C1A30087  23.647  19.982   8.725
 2247POPC   D2A30088  23.910  19.996   8.391
 2247POPC   C3A30089  23.826  19.790   8.014
 2247POPC   C4A30090  23.819  19.901   7.579
 2247POPC   C1B30091  23.816  19.500   8.678
 2247POPC   C2B30092  23.650  19.372   8.247
 2247POPC   C3B30093  23.408  19.531   7.876
 2247POPC   C4B30094  23.486  19.550   7.437
 2248POPC   NC330095  24.402  23.300   9.863
 2248POPC   PO430096  24.660  23.784   9.490
 2248POPC   GL130097  24.540  23.907   9.130
 2248POPC   GL230098  24.393  23.585   9.109
 2248POPC   C1A30099  24.482  23.906   8.718
 2248POPC   D2A30100  24.713  23.771   8.406
 2248POPC   C3A30101  24.541  23.962   8.075
 2248POPC   C4A30102  24.466  23.780   7.701
 2248POPC   C1B30103  24.199  23.466   8.739
 2248POPC   C2B30104  24.175  23.717   8.365
 2248POPC   C3B30105  24.057  23.623   7.950
 2248POPC   C4B30106  24.211  23.304   7.667
 2249POPC   NC330107   1.256   5.009   9.486
 2249POPC   PO430108   1.226   5.622   9.526
 2249POPC   GL130109   1.151   5.370   9.171
 2249POPC   GL230110   0.862   5.530   9.088
 2249POPC   C1A30111   1.389   5.112   8.840
 2249POPC   D2A30112   1.315   4.985   8.420
 2249POPC   C3A30113   1.411   5.075   8.006
 2249POPC   C4A30114   1.191   5.043   7.603
 2249POPC   C1B30115   1.027   5.414   8.678
 2249POPC   C2B30116   0.826   5.223   8.367
 2249POPC   C3B30117   0.863   5.199   7.945
 2249POPC   C4B30118   0.853   5.437   7.567
 2250POPC   NC330119   1.320  28.136   9.524
 2250POPC   PO430120   1.181  28.746   9.534
 2250POPC   GL130121   1.322  28.676   9.120
 2250POPC   GL230122   1.413  28.364   9.074
 2250POPC   C1A30123   1.431  28.684   8.699
 2250POPC   D2A30124   1.303  28.443   8.378
 2250POPC   C3A30125   1.424  28.652   8.049
 2250POPC   C4A30126   1.235  28.746   7.687
 2250POPC   C1B30127   1.255  28.059   8.712
 2250POPC   C2B30128   1.172  27.942   8.297
 2250POPC   C3B30129   1.269  28.142   7.891
 2250POPC   C4B30130   1.074  28.056   7.496
 2251POPC   NC330131  36.510  20.207   9.481
 2251POPC   PO430132  37.067  20.613   9.440
 2251POPC   GL130133  36.916  20.437   9.040
 2251POPC   GL230134  36.523  20.389   8.979
 2251POPC   C1A30135  37.161  20.619   8.705
 2251POPC   D2A30136  37.199  20.906   8.390
 2251POPC   C3A30137  37.004  20.804   8.025
 2251POPC   C4A30138  37.123  20.591   7.732
 2251POPC   C1B30139  36.649  20.802   8.769
 2251POPC   C2B30140  36.696  21.009   8.358
 2251POPC   C3B30141  36.687  21.173   7.879
 2251POPC   C4B30142  36.713  21.211   7.390
 2252POPC   NC330143  39.941  19.356   9.947
 2252POPC   PO430144  40.038  18.863   9.429
 2252POPC   GL130145  40.036  18.957   9.029
 2252POPC   GL230146  40.184  18.608   8.917
 2252POPC   C1A30147  39.915  19.279   8.745
 2252POPC   D2A30148  39.702  19.322   8.364
 2252POPC   C3A30149  39.789  19.099   7.989
 2252POPC   C4A30150  39.834  19.501   7.832
 2252POPC   C1B30151  40.163  18.870   8.547
 2252POPC   C2B30152  40.247  19.267   8.347
 2252POPC   C3B30153  40.277  19.163   7.940
 2252POPC   C4B30154  40.151  18.732   7.858
 2253POPC   NC330155  38.370  23.513   9.518
 2253POPC   PO430156  38.708  24.117   9.579
 2253POPC   GL130157  38.467  23.925   9.206
 2253POPC   GL230158  38.591  23.594   9.048
 2253POPC   C1A30159  38.268  23.918   8.788
 2253POPC   D2A30160  38.460  23.934   8.382
 2253POPC   C3A30161  38.283  23.879   7.999
 2253POPC   C4A30162  38.644  23.674   7.773
 2253POPC   C1B30163  38.460  23.449   8.617
 2253POPC   C2B30164  38.070  23.348   8.400
 2253POPC   C3B30165  37.894  23.471   8.019
 2253POPC   C4B30166  38.157  23.501   7.680
 2254POPC   NC330167  44.746  13.143   9.485
 2254POPC   PO430168  44.968  12.561   9.310
 2254POPC   GL130169  44.670  12.808   9.080
 2254POPC   GL230170  44.857  13.074   8.994
 2254POPC   C1A30171  44.400  12.933   8.744
 2254POPC   D2A30172  44.359  12.790   8.304
 2254POPC   C3A30173  44.681  12.867   7.975
 2254POPC   C4A30174  44.982  12.617   7.755
 2254POPC   C1B30175  44.867  12.985   8.542
 2254POPC   C2B30176   0.067  13.173   8.183
 2254POPC   C3B30177   0.136  13.106   7.739
 2254POPC   C4B30178   0.104  12.908   7.370
 2255POPC   NC330179  38.095  34.426   9.438
 2255POPC   PO430180  38.737  34.367   9.467
 2255POPC   GL130181  38.497  34.438   9.108
 2255POPC   GL230182  38.367  34.792   9.177
 2255POPC   C1A30183  38.450  34.376   8.662
 2255POPC   D2A30184  38.665  34.479   8.262
 2255POPC   C3A30185  38.380  34.412   7.896
 2255POPC   C4A30186  38.365  34.641   7.506
 2255POPC   C1B30187  38.281  34.890   8.743
 2255POPC   C2B30188  38.231  34.712   8.327
 2255POPC   C3B30189  38.241  34.918   7.936
 2255POPC   C4B30190  38.353  35.130   7.547
 2256POPC   NC330191   6.723  34.260   9.488
 2256POPC   PO430192   6.393  33.621   9.531
 2256POPC   GL130193   6.580  33.498   9.128
 2256POPC   GL230194   6.703  33.828   9.151
 2256POPC   C1A30195   6.722  33.523   8.664
 2256POPC   D2A30196   6.720  33.440   8.188
 2256POPC   C3A30197   6.925  33.601   7.852
 2256POPC   C4A30198   6.570  33.679   7.641
 2256POPC   C1B30199   6.686  34.019   8.779
 2256POPC   C2B30200   6.822  33.927   8.362
 2256POPC   C3B30201   6.746  34.064   7.960
 2256POPC   C4B30202   7.067  34.075   7.622
 2257POPC   NC330203  11.380  38.892   9.612
 2257POPC   PO430204  11.050  39.422   9.615
 2257POPC   GL130205  11.337  39.232   9.242
 2257POPC   GL230206  11.613  38.932   9.158
 2257POPC   C1A30207  11.497  39.368   8.867
 2257POPC   D2A30208  11.587  39.553   8.500
 2257POPC   C3A30209  11.277  39.399   8.194
 2257POPC   C4A30210  11.368  39.423   7.749
 2257POPC   C1B30211  11.826  38.992   8.788
 2257POPC   C2B30212  11.610  39.043   8.417
 2257POPC   C3B30213  11.443  38.958   8.007
 2257POPC   C4B30214  11.582  38.899   7.623
 2258POPC   NC330215  11.363  14.141   9.498
 2258POPC   PO430216  11.148  14.758   9.479
 2258POPC   GL130217  11.268  14.537   9.111
 2258POPC   GL230218  11.045  14.224   9.095
 2258POPC   C1A30219  11.207  14.543   8.646
 2258POPC   D2A30220  11.511  14.651   8.278
 2258POPC   C3A30221  11.413  14.502   7.878
 2258POPC   C4A30222  11.072  14.571   7.627
 2258POPC   C1B30223  11.425  14.114   8.817
 2258POPC   C2B30224  11.442  14.121   8.349
 2258POPC   C3B30225  11.520  13.981   7.910
 2258POPC   C4B30226  11.171  14.061   7.673
 2259POPC   NC330227  20.203   7.401   9.425
 2259POPC   PO430228  19.571   7.034   9.449
 2259POPC   GL130229  19.775   7.317   9.142
 2259POPC   GL230230  20.056   7.113   9.058
 2259POPC   C1A30231  19.709   7.632   8.760
 2259POPC   D2A30232  19.890   7.728   8.337
 2259POPC   C3A30233  19.701   7.563   7.943
 2259POPC   C4A30234  19.701   7.543   7.475
 2259POPC   C1B30235  20.055   7.257   8.687
 2259POPC   C2B30236  19.968   7.079   8.357
 2259POPC   C3B30237  20.081   7.213   8.017
 2259POPC   C4B30238  19.788   7.085   7.705
 2260POPC   NC330239  14.878   3.206   9.406
 2260POPC   PO430240  15.258   2.651   9.484
 2260POPC   GL130241  15.137   2.531   9.101
 2260POPC   GL230242  14.909   2.792   9.096
 2260POPC   C1A30243  15.056   2.525   8.654
 2260POPC   D2A30244  14.848   2.478   8.265
 2260POPC   C3A30245  15.003   2.717   7.914
 2260POPC   C4A30246  14.774   3.045   7.686
 2260POPC   C1B30247  15.267   2.968   8.833
 2260POPC   C2B30248  15.374   2.905   8.397
 2260POPC   C3B30249  15.212   3.158   8.067
 2260POPC   C4B30250  15.294   3.058   7.647
 2261POPC   NC330251  15.201  24.107   9.361
 2261POPC   PO430252  15.502  23.487   9.569
 2261POPC   GL130253  15.303  23.613   9.217
 2261POPC   GL230254  14.986  23.640   9.271
 2261POPC   C1A30255  15.400  23.656   8.803
 2261POPC   D2A30256  15.304  23.914   8.451
 2261POPC   C3A30257  15.326  23.658   8.089
 2261POPC   C4A30258  15.259  23.818   7.676
 2261POPC   C1B30259  14.920  23.848   8.824
 2261POPC   C2B30260  14.769  23.955   8.425
 2261POPC   C3B30261  14.884  23.900   8.036
 2261POPC   C4B30262  14.742  23.741   7.663
 2262POPC   NC330263  43.298  13.868   9.573
 2262POPC   PO430264  42.995  13.282   9.534
 2262POPC   GL130265  42.919  13.290   9.107
 2262POPC   GL230266  42.957  13.673   9.152
 2262POPC   C1A30267  43.122  13.283   8.693
 2262POPC   D2A30268  43.276  13.683   8.486
 2262POPC   C3A30269  43.282  13.725   8.061
 2262POPC   C4A30270  43.338  13.556   7.694
 2262POPC   C1B30271  42.822  13.689   8.740
 2262POPC   C2B30272  42.771  13.503   8.341
 2262POPC   C3B30273  42.835  13.534   7.917
 2262POPC   C4B30274  42.835  13.888   7.702
 2263POPC   NC330275   1.576  44.585   9.681
 2263POPC   PO430276   0.967  44.872   9.471
 2263POPC   GL130277   1.086  44.610   9.144
 2263POPC   GL230278   1.452  44.544   9.107
 2263POPC   C1A30279   1.119  44.856   8.787
 2263POPC   D2A30280   1.309  44.957   8.423
 2263POPC   C3A30281   1.196  44.838   8.034
 2263POPC   C4A30282   1.519  44.825   7.742
 2263POPC   C1B30283   1.306  44.390   8.702
 2263POPC   C2B30284   0.939  44.537   8.439
 2263POPC   C3B30285   0.846  44.449   8.022
 2263POPC   C4B30286   1.192  44.434   7.713
 2264POPC   NC330287   1.848   8.178   9.609
 2264POPC   PO430288   2.071   8.761   9.317
 2264POPC   GL130289   2.052   8.400   8.996
 2264POPC   GL230290   1.793   8.132   9.088
 2264POPC   C1A30291   1.996   8.107   8.609
 2264POPC   D2A30292   2.093   7.999   8.174
 2264POPC   C3A30293   2.066   8.338   7.930
 2264POPC   C4A30294   1.704   8.548   7.857
 2264POPC   C1B30295   1.515   7.982   8.735
 2264POPC   C2B30296   1.614   7.821   8.357
 2264POPC   C3B30297   1.598   8.072   8.023
 2264POPC   C4B30298   1.731   8.051   7.632
 2265POPC   NC330299  30.458  40.906   9.427
 2265POPC   PO430300  30.352  40.375   9.299
 2265POPC   GL130301  30.492  40.587   8.994
 2265POPC   GL230302  30.829  40.499   9.104
 2265POPC   C1A30303  30.397  40.543   8.548
 2265POPC   D2A30304  30.608  40.823   8.267
 2265POPC   C3A30305  30.567  40.919   7.855
 2265POPC   C4A30306  30.760  41.159   7.516
 2265POPC   C1B30307  30.892  40.732   8.697
 2265POPC   C2B30308  31.125  40.832   8.294
 2265POPC   C3B30309  31.111  40.942   7.842
 2265POPC   C4B30310  31.212  40.904   7.391
 2266POPC   NC330311  11.112  37.548   9.736
 2266POPC   PO430312  10.803  37.968   9.264
 2266POPC   GL130313  11.228  37.967   9.094
 2266POPC   GL230314  11.334  37.640   9.200
 2266POPC   C1A30315  11.323  37.877   8.638
 2266POPC   D2A30316  11.181  37.593   8.284
 2266POPC   C3A30317  11.266  37.663   7.829
 2266POPC   C4A30318  11.351  38.065   7.645
 2266POPC   C1B30319  11.363  37.363   8.827
 2266POPC   C2B30320  11.513  37.237   8.447
 2266POPC   C3B30321  11.653  37.428   8.088
 2266POPC   C4B30322  11.655  37.243   7.720
 2267POPC   NC330323   6.824  19.169   9.862
 2267POPC   PO430324   6.499  18.726   9.454
 2267POPC   GL130325   6.654  18.938   9.116
 2267POPC   GL230326   6.977  19.039   9.179
 2267POPC   C1A30327   6.554  18.874   8.695
 2267POPC   D2A30328   6.343  18.650   8.339
 2267POPC   C3A30329   6.448  18.897   7.956
 2267POPC   C4A30330   6.673  19.288   7.918
 2267POPC   C1B30331   6.901  19.280   8.803
 2267POPC   C2B30332   6.835  19.206   8.394
 2267POPC   C3B30333   6.933  18.868   8.112
 2267POPC   C4B30334   7.053  18.973   7.698
 2268POPC   NC330335  42.352  19.321   9.456
 2268POPC   PO430336  42.494  18.637   9.460
 2268POPC   GL130337  42.497  18.934   9.152
 2268POPC   GL230338  42.175  19.033   9.049
 2268POPC   C1A30339  42.532  18.855   8.733
 2268POPC   D2A30340  42.463  19.071   8.366
 2268POPC   C3A30341  42.716  18.931   8.055
 2268POPC   C4A30342  42.648  18.706   7.689
 2268POPC   C1B30343  41.932  19.206   8.712
 2268POPC   C2B30344  41.954  19.057   8.304
 2268POPC   C3B30345  42.190  18.921   7.964
 2268POPC   C4B30346  42.031  19.079   7.595
 2269POPC   NC330347  17.638   4.935   9.355
 2269POPC   PO430348  17.016   5.103   9.410
 2269POPC   GL130349  17.200   5.081   9.037
 2269POPC   GL230350  17.484   5.294   9.029
 2269POPC   C1A30351  17.190   5.251   8.622
 2269POPC   D2A30352  17.460   5.333   8.314
 2269POPC   C3A30353  17.495   5.074   7.937
 2269POPC   C4A30354  17.459   4.708   7.673
 2269POPC   C1B30355  17.636   4.992   8.707
 2269POPC   C2B30356  17.928   4.849   8.402
 2269POPC   C3B30357  18.005   5.086   8.056
 2269POPC   C4B30358  17.925   4.929   7.668
 2270POPC   NC330359   1.166  43.696   9.481
 2270POPC   PO430360   1.599  44.179   9.458
 2270POPC   GL130361   1.299  44.013   9.099
 2270POPC   GL230362   0.948  43.783   9.046
 2270POPC   C1A30363   1.379  43.843   8.693
 2270POPC   D2A30364   1.552  44.055   8.341
 2270POPC   C3A30365   1.410  44.027   7.927
 2270POPC   C4A30366   1.482  43.681   7.696
 2270POPC   C1B30367   0.903  44.095   8.733
 2270POPC   C2B30368   1.049  44.062   8.301
 2270POPC   C3B30369   0.999  43.744   7.974
 2270POPC   C4B30370   0.704  43.583   7.719
 2271POPC   NC330371  18.467  22.566   9.396
 2271POPC   PO430372  18.108  23.171   9.394
 2271POPC   GL130373  18.208  22.905   9.072
 2271POPC   GL230374  18.544  22.972   9.119
 2271POPC   C1A30375  18.350  22.737   8.671
 2271POPC   D2A30376  18.306  22.747   8.220
 2271POPC   C3A30377  18.208  23.141   8.090
 2271POPC   C4A30378  18.011  23.145   7.729
 2271POPC   C1B30379  18.499  23.227   8.781
 2271POPC   C2B30380  18.642  23.126   8.399
 2271POPC   C3B30381  18.780  23.148   8.007
 2271POPC   C4B30382  18.590  23.099   7.628
 2272POPC   NC330383  23.562  38.930   9.402
 2272POPC   PO430384  23.424  38.281   9.523
 2272POPC   GL130385  23.379  38.469   9.137
 2272POPC   GL230386  23.718  38.315   9.082
 2272POPC   C1A30387  23.487  38.520   8.693
 2272POPC   D2A30388  23.739  38.367   8.340
 2272POPC   C3A30389  23.512  38.540   7.983
 2272POPC   C4A30390  23.247  38.558   7.626
 2272POPC   C1B30391  24.036  38.137   8.786
 2272POPC   C2B30392  24.174  37.944   8.422
 2272POPC   C3B30393  24.176  38.101   8.014
 2272POPC   C4B30394  23.951  38.424   7.758
 2273POPC   NC330395   7.204  16.067   9.583
 2273POPC   PO430396   7.233  15.493   9.511
 2273POPC   GL130397   7.523  15.767   9.233
 2273POPC   GL230398   7.600  16.140   9.247
 2273POPC   C1A30399   7.490  15.855   8.761
 2273POPC   D2A30400   7.384  15.763   8.293
 2273POPC   C3A30401   7.617  15.801   7.890
 2273POPC   C4A30402   7.605  15.730   7.417
 2273POPC   C1B30403   7.565  16.363   8.843
 2273POPC   C2B30404   7.646  16.224   8.410
 2273POPC   C3B30405   7.366  16.234   8.036
 2273POPC   C4B30406   7.250  16.067   7.622
 2274POPC   NC330407  16.885  23.659   9.452
 2274POPC   PO430408  16.245  23.972   9.681
 2274POPC   GL130409  16.571  24.061   9.311
 2274POPC   GL230410  16.920  24.099   9.205
 2274POPC   C1A30411  16.536  24.023   8.835
 2274POPC   D2A30412  16.636  23.749   8.449
 2274POPC   C3A30413  16.551  23.934   8.045
 2274POPC   C4A30414  16.674  24.066   7.663
 2274POPC   C1B30415  17.012  23.837   8.807
 2274POPC   C2B30416  17.189  23.884   8.402
 2274POPC   C3B30417  17.034  23.733   8.027
 2274POPC   C4B30418  16.708  23.501   7.828
 2275POPC   NC330419  14.838   0.778   9.433
 2275POPC   PO430420  15.389   0.434   9.436
 2275POPC   GL130421  15.219   0.422   9.036
 2275POPC   GL230422  14.919   0.548   9.000
 2275POPC   C1A30423  15.124   0.127   8.720
 2275POPC   D2A30424  15.142  44.839   8.395
 2275POPC   C3A30425  15.200   0.035   8.014
 2275POPC   C4A30426  14.840   0.152   7.791
 2275POPC   C1B30427  14.991   0.667   8.606
 2275POPC   C2B30428  15.282   0.539   8.317
 2275POPC   C3B30429  15.423   0.623   7.908
 2275POPC   C4B30430  15.428   0.720   7.472
 2276POPC   NC330431  42.288  17.091   9.432
 2276POPC   PO430432  42.432  16.497   9.726
 2276POPC   GL130433  42.477  16.622   9.270
 2276POPC   GL230434  42.689  16.356   9.191
 2276POPC   C1A30435  42.437  16.798   8.834
 2276POPC   D2A30436  42.167  16.773   8.478
 2276POPC   C3A30437  42.374  16.820   8.074
 2276POPC   C4A30438  42.118  16.835   7.703
 2276POPC   C1B30439  42.757  16.384   8.767
 2276POPC   C2B30440  42.618  16.500   8.384
 2276POPC   C3B30441  42.634  16.375   7.938
 2276POPC   C4B30442  42.598  16.678   7.615
 2277POPC   NC330443  21.084  18.441   9.606
 2277POPC   PO430444  21.721  18.449   9.544
 2277POPC   GL130445  21.622  18.217   9.179
 2277POPC   GL230446  21.283  18.089   9.252
 2277POPC   C1A30447  21.769  18.167   8.747
 2277POPC   D2A30448  21.517  18.153   8.388
 2277POPC   C3A30449  21.635  18.306   8.004
 2277POPC   C4A30450  21.798  18.159   7.640
 2277POPC   C1B30451  21.233  18.243   8.826
 2277POPC   C2B30452  21.008  18.176   8.432
 2277POPC   C3B30453  21.140  17.942   8.064
 2277POPC   C4B30454  21.297  18.029   7.654
 2278POPC   NC330455  32.104  19.280   9.504
 2278POPC   PO430456  32.101  19.920   9.650
 2278POPC   GL130457  32.101  19.944   9.235
 2278POPC   GL230458  31.868  19.679   9.237
 2278POPC   C1A30459  32.361  19.962   8.862
 2278POPC   D2A30460  32.423  20.061   8.445
 2278POPC   C3A30461  32.406  19.843   8.080
 2278POPC   C4A30462  32.546  19.746   7.695
 2278POPC   C1B30463  31.892  19.740   8.805
 2278POPC   C2B30464  32.078  19.649   8.431
 2278POPC   C3B30465  31.921  19.617   8.046
 2278POPC   C4B30466  32.055  19.692   7.656
 2279POPC   NC330467  11.270   1.703   9.521
 2279POPC   PO430468  10.915   2.303   9.377
 2279POPC   GL130469  11.159   2.034   9.042
 2279POPC   GL230470  11.452   1.805   9.069
 2279POPC   C1A30471  11.255   1.885   8.613
 2279POPC   D2A30472  11.089   1.761   8.242
 2279POPC   C3A30473  11.245   2.004   7.934
 2279POPC   C4A30474  11.226   2.178   7.560
 2279POPC   C1B30475  11.434   1.446   8.761
 2279POPC   C2B30476  11.491   1.475   8.301
 2279POPC   C3B30477  11.403   1.527   7.854
 2279POPC   C4B30478  11.604   1.816   7.581
 2280POPC   NC330479  40.582  13.371   9.367
 2280POPC   PO430480  40.952  12.737   9.351
 2280POPC   GL130481  40.685  12.953   9.097
 2280POPC   GL230482  40.940  13.263   9.042
 2280POPC   C1A30483  40.427  12.854   8.714
 2280POPC   D2A30484  40.481  12.650   8.285
 2280POPC   C3A30485  40.686  12.856   7.947
 2280POPC   C4A30486  41.089  12.889   7.783
 2280POPC   C1B30487  40.915  13.084   8.667
 2280POPC   C2B30488  40.658  13.165   8.350
 2280POPC   C3B30489  40.950  13.310   8.059
 2280POPC   C4B30490  40.752  13.301   7.684
 2281POPC   NC330491  33.412   1.474   9.394
 2281POPC   PO430492  32.970   1.001   9.379
 2281POPC   GL130493  33.216   1.099   9.085
 2281POPC   GL230494  33.589   1.021   9.197
 2281POPC   C1A30495  33.054   1.145   8.664
 2281POPC   D2A30496  33.105   1.418   8.290
 2281POPC   C3A30497  32.951   1.327   7.885
 2281POPC   C4A30498  32.888   1.159   7.442
 2281POPC   C1B30499  33.569   1.058   8.740
 2281POPC   C2B30500  33.398   0.942   8.345
 2281POPC   C3B30501  33.399   1.102   7.946
 2281POPC   C4B30502  33.113   0.826   7.742
 2282POPC   NC330503  43.688  25.943   9.595
 2282POPC   PO430504  44.248  26.307   9.745
 2282POPC   GL130505  44.129  25.995   9.329
 2282POPC   GL230506  43.778  26.006   9.122
 2282POPC   C1A30507  44.169  25.864   8.862
 2282POPC   D2A30508  43.956  25.872   8.460
 2282POPC   C3A30509  44.094  26.025   8.089
 2282POPC   C4A30510  43.932  26.142   7.758
 2282POPC   C1B30511  43.570  25.844   8.789
 2282POPC   C2B30512  43.476  25.694   8.379
 2282POPC   C3B30513  43.707  25.692   8.020
 2282POPC   C4B30514  43.714  25.736   7.579
 2283POPC   NC330515  40.969  27.094   9.468
 2283POPC   PO430516  40.631  26.543   9.731
 2283POPC   GL130517  40.877  26.607   9.313
 2283POPC   GL230518  40.723  26.892   9.096
 2283POPC   C1A30519  40.980  26.558   8.844
 2283POPC   D2A30520  41.150  26.454   8.419
 2283POPC   C3A30521  40.953  26.621   8.049
 2283POPC   C4A30522  40.626  26.523   7.736
 2283POPC   C1B30523  40.974  27.065   8.742
 2283POPC   C2B30524  40.857  27.137   8.293
 2283POPC   C3B30525  41.071  27.100   7.885
 2283POPC   C4B30526  41.109  26.790   7.567
 2284POPC   NC330527   9.856   0.678   9.420
 2284POPC   PO430528   9.550   0.087   9.367
 2284POPC   GL130529   9.744   0.271   9.025
 2284POPC   GL230530  10.066   0.324   9.093
 2284POPC   C1A30531   9.750   0.373   8.577
 2284POPC   D2A30532   9.520   0.689   8.347
 2284POPC   C3A30533   9.533   0.596   7.908
 2284POPC   C4A30534   9.667   0.207   7.683
 2284POPC   C1B30535  10.228   0.275   8.695
 2284POPC   C2B30536  10.183   0.266   8.240
 2284POPC   C3B30537  10.062   0.502   7.864
 2284POPC   C4B30538   9.999   0.481   7.418
 2285POPC   NC330539  36.482  22.911   9.276
 2285POPC   PO430540  37.067  23.211   9.508
 2285POPC   GL130541  36.943  23.101   9.110
 2285POPC   GL230542  36.692  23.337   9.092
 2285POPC   C1A30543  36.927  22.801   8.788
 2285POPC   D2A30544  36.770  22.710   8.400
 2285POPC   C3A30545  37.081  22.658   8.080
 2285POPC   C4A30546  37.052  22.647   7.649
 2285POPC   C1B30547  36.559  23.154   8.678
 2285POPC   C2B30548  36.467  23.088   8.233
 2285POPC   C3B30549  36.749  23.032   7.876
 2285POPC   C4B30550  36.605  23.239   7.525
 2286POPC   NC330551  42.149   1.967   9.589
 2286POPC   PO430552  42.552   1.469   9.615
 2286POPC   GL130553  42.487   1.769   9.238
 2286POPC   GL230554  42.381   2.104   9.130
 2286POPC   C1A30555  42.498   1.721   8.793
 2286POPC   D2A30556  42.586   2.088   8.530
 2286POPC   C3A30557  42.533   2.070   8.083
 2286POPC   C4A30558  42.711   1.858   7.748
 2286POPC   C1B30559  42.326   2.430   8.831
 2286POPC   C2B30560  42.223   2.471   8.406
 2286POPC   C3B30561  42.232   2.487   7.972
 2286POPC   C4B30562  42.202   2.151   7.670
 2287POPC   NC330563  18.530  27.702   9.668
 2287POPC   PO430564  17.966  27.402   9.871
 2287POPC   GL130565  18.086  27.657   9.387
 2287POPC   GL230566  18.448  27.644   9.167
 2287POPC   C1A30567  18.073  27.935   8.988
 2287POPC   D2A30568  17.932  28.006   8.538
 2287POPC   C3A30569  18.236  27.942   8.175
 2287POPC   C4A30570  18.353  27.835   7.733
 2287POPC   C1B30571  18.423  27.276   8.843
 2287POPC   C2B30572  18.223  27.199   8.442
 2287POPC   C3B30573  18.271  27.428   8.052
 2287POPC   C4B30574  18.541  27.350   7.686
 2288POPC   NC330575  17.193  17.789   9.524
 2288POPC   PO430576  16.711  17.354   9.614
 2288POPC   GL130577  16.753  17.586   9.227
 2288POPC   GL230578  17.057  17.452   9.138
 2288POPC   C1A30579  16.535  17.557   8.815
 2288POPC   D2A30580  16.643  17.590   8.401
 2288POPC   C3A30581  16.624  17.200   8.171
 2288POPC   C4A30582  16.430  17.406   7.845
 2288POPC   C1B30583  17.031  17.671   8.746
 2288POPC   C2B30584  17.135  17.570   8.342
 2288POPC   C3B30585  16.944  17.536   7.957
 2288POPC   C4B30586  16.950  17.186   7.749
 2289POPC   NC330587  10.631   3.047   9.505
 2289POPC   PO430588  10.034   2.748   9.536
 2289POPC   GL130589  10.432   2.659   9.238
 2289POPC   GL230590  10.615   2.918   9.036
 2289POPC   C1A30591  10.473   2.478   8.810
 2289POPC   D2A30592  10.660   2.501   8.393
 2289POPC   C3A30593  10.394   2.595   8.047
 2289POPC   C4A30594  10.515   2.734   7.650
 2289POPC   C1B30595  10.761   2.930   8.644
 2289POPC   C2B30596  10.651   3.216   8.332
 2289POPC   C3B30597  10.468   3.137   7.943
 2289POPC   C4B30598  10.725   3.189   7.558
 2290POPC   NC330599  11.583  33.836   9.668
 2290POPC   PO430600  12.223  34.001   9.648
 2290POPC   GL130601  12.097  33.755   9.265
 2290POPC   GL230602  11.942  33.403   9.224
 2290POPC   C1A30603  12.119  33.862   8.822
 2290POPC   D2A30604  12.339  34.028   8.441
 2290POPC   C3A30605  12.148  33.849   8.078
 2290POPC   C4A30606  11.884  34.020   7.769
 2290POPC   C1B30607  11.929  33.365   8.765
 2290POPC   C2B30608  11.788  33.648   8.416
 2290POPC   C3B30609  11.680  33.588   7.975
 2290POPC   C4B30610  11.914  33.379   7.739
 2291POPC   NC330611  23.099  11.600   9.435
 2291POPC   PO430612  23.274  10.934   9.427
 2291POPC   GL130613  23.096  11.200   9.083
 2291POPC   GL230614  23.301  11.508   8.986
 2291POPC   C1A30615  23.005  11.289   8.629
 2291POPC   D2A30616  23.316  11.426   8.298
 2291POPC   C3A30617  23.199  11.235   7.925
 2291POPC   C4A30618  22.797  11.158   7.804
 2291POPC   C1B30619  23.159  11.784   8.657
 2291POPC   C2B30620  23.157  11.922   8.226
 2291POPC   C3B30621  22.971  11.694   7.885
 2291POPC   C4B30622  22.595  11.584   7.641
 2292POPC   NC330623   3.252  29.082   9.790
 2292POPC   PO430624   3.755  29.433   9.534
 2292POPC   GL130625   3.613  29.136   9.195
 2292POPC   GL230626   3.285  29.002   9.211
 2292POPC   C1A30627   3.652  28.991   8.785
 2292POPC   D2A30628   3.759  29.163   8.375
 2292POPC   C3A30629   3.852  29.067   7.945
 2292POPC   C4A30630   3.698  29.378   7.648
 2292POPC   C1B30631   3.129  29.083   8.839
 2292POPC   C2B30632   3.264  29.045   8.440
 2292POPC   C3B30633   3.343  28.977   8.022
 2292POPC   C4B30634   3.280  29.083   7.616
 2293POPC   NC330635   2.601  37.528   9.346
 2293POPC   PO430636   2.857  38.163   9.470
 2293POPC   GL130637   2.874  37.897   9.104
 2293POPC   GL230638   3.126  37.677   9.039
 2293POPC   C1A30639   2.818  37.872   8.662
 2293POPC   D2A30640   2.466  38.018   8.446
 2293POPC   C3A30641   2.492  37.860   8.056
 2293POPC   C4A30642   2.840  37.663   7.837
 2293POPC   C1B30643   2.957  37.380   8.779
 2293POPC   C2B30644   2.825  37.289   8.415
 2293POPC   C3B30645   3.075  37.231   8.092
 2293POPC   C4B30646   3.027  37.230   7.676
 2294POPC   NC330647  41.469  42.749   9.569
 2294POPC   PO430648  41.898  42.427   9.238
 2294POPC   GL130649  41.455  42.440   9.076
 2294POPC   GL230650  41.303  42.082   9.050
 2294POPC   C1A30651  41.493  42.627   8.677
 2294POPC   D2A30652  41.789  42.566   8.375
 2294POPC   C3A30653  41.576  42.571   8.000
 2294POPC   C4A30654  41.229  42.735   7.728
 2294POPC   C1B30655  41.538  42.127   8.655
 2294POPC   C2B30656  41.291  42.255   8.299
 2294POPC   C3B30657  41.266  42.208   7.855
 2294POPC   C4B30658  41.642  42.190   7.597
 2295POPC   NC330659  31.402  30.336   9.388
 2295POPC   PO430660  31.654  29.757   9.640
 2295POPC   GL130661  31.371  29.824   9.267
 2295POPC   GL230662  31.669  29.921   9.118
 2295POPC   C1A30663  31.270  29.988   8.821
 2295POPC   D2A30664  31.482  29.771   8.472
 2295POPC   C3A30665  31.385  29.963   8.078
 2295POPC   C4A30666  31.250  29.969   7.687
 2295POPC   C1B30667  31.727  30.189   8.726
 2295POPC   C2B30668  31.799  30.137   8.315
 2295POPC   C3B30669  31.850  29.782   8.041
 2295POPC   C4B30670  31.773  29.973   7.663
 2296POPC   NC330671  21.207  36.296   9.478
 2296POPC   PO430672  21.797  35.869   9.354
 2296POPC   GL130673  21.492  36.042   9.061
 2296POPC   GL230674  21.401  36.405   9.034
 2296POPC   C1A30675  21.570  36.134   8.617
 2296POPC   D2A30676  21.376  36.259   8.238
 2296POPC   C3A30677  21.133  36.055   7.933
 2296POPC   C4A30678  21.545  36.053   7.729
 2296POPC   C1B30679  21.140  36.467   8.649
 2296POPC   C2B30680  21.063  36.652   8.213
 2296POPC   C3B30681  21.252  36.524   7.788
 2296POPC   C4B30682  21.187  36.268   7.408
 2297POPC   NC330683   0.128  30.890   9.522
 2297POPC   PO430684   0.752  30.974   9.685
 2297POPC   GL130685   0.572  30.825   9.256
 2297POPC   GL230686   0.800  30.996   9.069
 2297POPC   C1A30687   0.615  30.605   8.817
 2297POPC   D2A30688   0.559  30.397   8.406
 2297POPC   C3A30689   0.376  30.513   7.999
 2297POPC   C4A30690   0.471  30.348   7.571
 2297POPC   C1B30691   0.543  31.091   8.718
 2297POPC   C2B30692   0.458  31.219   8.295
 2297POPC   C3B30693   0.611  30.978   7.959
 2297POPC   C4B30694   0.715  30.808   7.548
 2298POPC   NC330695  21.139  41.193   9.481
 2298POPC   PO430696  21.634  41.734   9.427
 2298POPC   GL130697  21.318  41.561   9.162
 2298POPC   GL230698  21.533  41.274   9.159
 2298POPC   C1A30699  21.243  41.673   8.742
 2298POPC   D2A30700  21.555  41.814   8.428
 2298POPC   C3A30701  21.475  41.637   8.026
 2298POPC   C4A30702  21.545  41.736   7.605
 2298POPC   C1B30703  21.434  41.153   8.803
 2298POPC   C2B30704  21.366  41.283   8.412
 2298POPC   C3B30705  21.534  41.124   8.063
 2298POPC   C4B30706  21.357  41.244   7.690
 2299POPC   NC330707  31.393  18.555   9.446
 2299POPC   PO430708  31.152  17.930   9.081
 2299POPC   GL130709  31.548  18.224   9.039
 2299POPC   GL230710  31.783  18.541   9.114
 2299POPC   C1A30711  31.502  18.449   8.681
 2299POPC   D2A30712  31.440  18.299   8.271
 2299POPC   C3A30713  31.185  18.498   7.951
 2299POPC   C4A30714  31.368  18.591   7.536
 2299POPC   C1B30715  31.953  18.679   8.728
 2299POPC   C2B30716  31.846  18.627   8.314
 2299POPC   C3B30717  31.831  18.427   7.932
 2299POPC   C4B30718  31.929  18.678   7.612
 2300POPC   NC330719   5.347  40.953   9.426
 2300POPC   PO430720   4.773  40.511   9.357
 2300POPC   GL130721   5.043  40.683   9.069
 2300POPC   GL230722   5.037  41.066   9.021
 2300POPC   C1A30723   5.230  40.502   8.699
 2300POPC   D2A30724   5.052  40.408   8.294
 2300POPC   C3A30725   5.256  40.457   7.893
 2300POPC   C4A30726   4.964  40.499   7.533
 2300POPC   C1B30727   4.997  40.943   8.595
 2300POPC   C2B30728   5.300  40.891   8.256
 2300POPC   C3B30729   5.176  40.965   7.838
 2300POPC   C4B30730   4.873  41.265   7.817
 2301POPC   NC330731  35.674  42.603   9.605
 2301POPC   PO430732  35.293  42.057   9.586
 2301POPC   GL130733  35.591  42.225   9.233
 2301POPC   GL230734  35.803  42.563   9.111
 2301POPC   C1A30735  35.515  42.216   8.805
 2301POPC   D2A30736  35.227  42.379   8.498
 2301POPC   C3A30737  35.289  42.252   8.085
 2301POPC   C4A30738  35.399  42.183   7.670
 2301POPC   C1B30739  35.633  42.734   8.703
 2301POPC   C2B30740  35.523  42.769   8.250
 2301POPC   C3B30741  35.702  42.539   7.913
 2301POPC   C4B30742  35.822  42.442   7.492
 2302POPC   NC330743  13.624  14.580   9.579
 2302POPC   PO430744  13.417  13.991   9.575
 2302POPC   GL130745  13.399  14.253   9.221
 2302POPC   GL230746  13.743  14.354   9.135
 2302POPC   C1A30747  13.357  14.383   8.784
 2302POPC   D2A30748  13.646  14.336   8.419
 2302POPC   C3A30749  13.599  14.406   7.955
 2302POPC   C4A30750  13.883  14.158   7.648
 2302POPC   C1B30751  13.815  14.688   8.806
 2302POPC   C2B30752  13.839  14.836   8.375
 2302POPC   C3B30753  13.917  14.870   7.927
 2302POPC   C4B30754  13.922  14.923   7.508
 2303POPC   NC330755  28.666  21.199   9.456
 2303POPC   PO430756  28.030  21.564   9.475
 2303POPC   GL130757  28.293  21.402   9.144
 2303POPC   GL230758  28.595  21.606   9.083
 2303POPC   C1A30759  28.412  21.279   8.729
 2303POPC   D2A30760  28.368  21.513   8.344
 2303POPC   C3A30761  28.231  21.305   7.988
 2303POPC   C4A30762  27.999  21.295   7.659
 2303POPC   C1B30763  28.868  21.531   8.724
 2303POPC   C2B30764  28.918  21.311   8.346
 2303POPC   C3B30765  28.725  21.436   7.987
 2303POPC   C4B30766  28.471  21.759   7.866
 2304POPC   NC330767   6.583  26.682   9.437
 2304POPC   PO430768   7.039  27.151   9.454
 2304POPC   GL130769   6.807  26.978   9.092
 2304POPC   GL230770   6.450  27.074   9.082
 2304POPC   C1A30771   6.587  26.659   8.798
 2304POPC   D2A30772   6.517  26.662   8.386
 2304POPC   C3A30773   6.814  26.888   8.158
 2304POPC   C4A30774   6.956  26.814   7.751
 2304POPC   C1B30775   6.658  27.154   8.654
 2304POPC   C2B30776   6.497  27.278   8.295
 2304POPC   C3B30777   6.315  26.978   8.049
 2304POPC   C4B30778   6.464  26.696   7.762
 2305POPC   NC330779   1.907  42.460   9.445
 2305POPC   PO430780   1.952  41.845   9.214
 2305POPC   GL130781   2.026  42.231   9.000
 2305POPC   GL230782   1.698  42.395   8.990
 2305POPC   C1A30783   2.239  42.449   8.664
 2305POPC   D2A30784   2.169  42.523   8.248
 2305POPC   C3A30785   1.953  42.165   8.098
 2305POPC   C4A30786   2.110  42.093   7.707
 2305POPC   C1B30787   1.724  42.356   8.562
 2305POPC   C2B30788   1.664  42.623   8.208
 2305POPC   C3B30789   1.820  42.568   7.810
 2305POPC   C4B30790   1.637  42.362   7.468
 2306POPC   NC330791   2.178  26.069   9.416
 2306POPC   PO430792   1.629  25.600   9.334
 2306POPC   GL130793   1.856  25.882   9.091
 2306POPC   GL230794   2.219  25.828   8.969
 2306POPC   C1A30795   1.937  26.231   8.800
 2306POPC   D2A30796   1.815  26.193   8.381
 2306POPC   C3A30797   2.010  26.364   8.052
 2306POPC   C4A30798   2.129  26.387   7.642
 2306POPC   C1B30799   1.947  25.614   8.660
 2306POPC   C2B30800   1.876  25.687   8.220
 2306POPC   C3B30801   2.116  25.899   7.857
 2306POPC   C4B30802   2.255  25.742   7.435
 2307POPC   NC330803  36.702  35.882   9.413
 2307POPC   PO430804  37.289  36.230   9.451
 2307POPC   GL130805  37.124  36.239   9.058
 2307POPC   GL230806  37.046  35.883   9.018
 2307POPC   C1A30807  37.167  36.155   8.610
 2307POPC   D2A30808  36.869  36.275   8.302
 2307POPC   C3A30809  36.890  36.201   7.851
 2307POPC   C4A30810  37.120  36.266   7.472
 2307POPC   C1B30811  36.676  36.034   8.745
 2307POPC   C2B30812  36.484  35.962   8.315
 2307POPC   C3B30813  36.712  35.732   7.932
 2307POPC   C4B30814  36.739  35.840   7.461
 2308POPC   NC330815  40.300  27.838   9.440
 2308POPC   PO430816  39.643  27.737   9.623
 2308POPC   GL130817  39.857  27.739   9.175
 2308POPC   GL230818  40.165  27.478   9.137
 2308POPC   C1A30819  39.856  27.482   8.755
 2308POPC   D2A30820  39.730  27.357   8.343
 2308POPC   C3A30821  39.800  27.690   8.026
 2308POPC   C4A30822  39.830  27.518   7.660
 2308POPC   C1B30823  40.297  27.766   8.801
 2308POPC   C2B30824  40.149  27.723   8.390
 2308POPC   C3B30825  40.275  27.493   8.005
 2308POPC   C4B30826  40.318  27.709   7.621
 2309POPC   NC330827   5.300  21.170   9.639
 2309POPC   PO430828   4.920  21.663   9.579
 2309POPC   GL130829   5.070  21.382   9.219
 2309POPC   GL230830   5.437  21.462   9.176
 2309POPC   C1A30831   5.158  21.111   8.821
 2309POPC   D2A30832   5.248  21.157   8.345
 2309POPC   C3A30833   4.948  21.292   7.960
 2309POPC   C4A30834   5.026  21.221   7.465
 2309POPC   C1B30835   5.209  21.619   8.786
 2309POPC   C2B30836   4.925  21.562   8.429
 2309POPC   C3B30837   4.867  21.787   8.028
 2309POPC   C4B30838   4.927  21.696   7.575
 2310POPC   NC330839  15.562  42.626   9.501
 2310POPC   PO430840  15.799  41.995   9.357
 2310POPC   GL130841  16.095  42.192   9.123
 2310POPC   GL230842  16.002  42.526   9.207
 2310POPC   C1A30843  16.163  42.227   8.698
 2310POPC   D2A30844  15.866  42.258   8.350
 2310POPC   C3A30845  16.098  42.281   7.979
 2310POPC   C4A30846  16.208  42.198   7.545
 2310POPC   C1B30847  15.724  42.497   8.816
 2310POPC   C2B30848  15.723  42.757   8.424
 2310POPC   C3B30849  15.648  42.598   7.979
 2310POPC   C4B30850  15.736  42.375   7.597
 2311POPC   NC330851  20.085  40.703   9.352
 2311POPC   PO430852  19.616  41.125   9.526
 2311POPC   GL130853  19.627  40.808   9.160
 2311POPC   GL230854  19.634  40.426   9.252
 2311POPC   C1A30855  19.854  40.841   8.726
 2311POPC   D2A30856  19.889  41.034   8.295
 2311POPC   C3A30857  20.158  40.865   7.968
 2311POPC   C4A30858  20.058  40.857   7.537
 2311POPC   C1B30859  19.704  40.354   8.808
 2311POPC   C2B30860  19.951  40.424   8.431
 2311POPC   C3B30861  19.899  40.416   7.967
 2311POPC   C4B30862  19.693  40.509   7.553
 2312POPC   NC330863   0.521  38.064   9.515
 2312POPC   PO430864   0.560  38.659   9.742
 2312POPC   GL130865   0.489  38.520   9.274
 2312POPC   GL230866   0.735  38.275   9.094
 2312POPC   C1A30867   0.343  38.628   8.867
 2312POPC   D2A30868   0.574  38.766   8.508
 2312POPC   C3A30869   0.349  38.651   8.136
 2312POPC   C4A30870   0.263  38.506   7.713
 2312POPC   C1B30871   0.443  38.148   8.741
 2312POPC   C2B30872   0.224  38.143   8.297
 2312POPC   C3B30873   0.245  37.993   7.836
 2312POPC   C4B30874   0.566  38.092   7.487
 2313POPC   NC330875  34.790  43.067   9.555
 2313POPC   PO430876  34.433  42.553   9.705
 2313POPC   GL130877  34.407  42.963   9.250
 2313POPC   GL230878  34.735  43.204   9.094
 2313POPC   C1A30879  34.414  43.163   8.733
 2313POPC   D2A30880  34.741  43.166   8.359
 2313POPC   C3A30881  34.618  43.026   7.925
 2313POPC   C4A30882  34.367  42.741   7.658
 2313POPC   C1B30883  34.873  43.473   8.752
 2313POPC   C2B30884  34.939  43.678   8.376
 2313POPC   C3B30885  34.844  43.523   7.975
 2313POPC   C4B30886  34.500  43.475   7.667
 2314POPC   NC330887   7.780  25.902   9.535
 2314POPC   PO430888   8.292  26.102   9.823
 2314POPC   GL130889   8.186  26.111   9.316
 2314POPC   GL230890   8.489  26.241   9.188
 2314POPC   C1A30891   7.999  26.049   8.862
 2314POPC   D2A30892   7.713  25.973   8.467
 2314POPC   C3A30893   7.934  25.919   8.048
 2314POPC   C4A30894   8.326  25.846   7.832
 2314POPC   C1B30895   8.419  26.340   8.750
 2314POPC   C2B30896   8.354  26.149   8.346
 2314POPC   C3B30897   8.598  26.265   7.967
 2314POPC   C4B30898   8.639  26.145   7.523
 2315POPC   NC330899  23.974  18.481   9.661
 2315POPC   PO430900  23.637  17.979   9.578
 2315POPC   GL130901  23.609  18.288   9.228
 2315POPC   GL230902  23.851  18.547   9.181
 2315POPC   C1A30903  23.497  18.171   8.818
 2315POPC   D2A30904  23.655  18.009   8.499
 2315POPC   C3A30905  23.532  18.260   8.132
 2315POPC   C4A30906  23.679  18.486   7.755
 2315POPC   C1B30907  23.699  18.609   8.787
 2315POPC   C2B30908  23.928  18.424   8.444
 2315POPC   C3B30909  24.043  18.257   8.058
 2315POPC   C4B30910  24.194  18.566   7.787
 2316POPC   NC330911  44.366   5.516   9.549
 2316POPC   PO430912  44.671   6.129   9.536
 2316POPC   GL130913  44.651   5.825   9.251
 2316POPC   GL230914  44.342   6.000   9.139
 2316POPC   C1A30915  44.561   5.610   8.870
 2316POPC   D2A30916  44.412   5.751   8.473
 2316POPC   C3A30917  44.719   5.560   8.191
 2316POPC   C4A30918   0.022   5.363   7.951
 2316POPC   C1B30919  44.657   6.108   8.810
 2316POPC   C2B30920  44.865   6.047   8.388
 2316POPC   C3B30921  44.601   6.034   8.027
 2316POPC   C4B30922  44.541   5.725   7.735
 2317POPC   NC330923  34.059   5.140   9.542
 2317POPC   PO430924  33.503   4.759   9.515
 2317POPC   GL130925  33.707   4.917   9.158
 2317POPC   GL230926  34.031   4.818   9.066
 2317POPC   C1A30927  33.739   5.310   8.945
 2317POPC   D2A30928  33.706   5.454   8.519
 2317POPC   C3A30929  33.969   5.292   8.208
 2317POPC   C4A30930  33.750   5.180   7.838
 2317POPC   C1B30931  33.981   4.973   8.639
 2317POPC   C2B30932  34.090   4.784   8.255
 2317POPC   C3B30933  33.924   4.691   7.860
 2317POPC   C4B30934  33.542   4.706   7.636
 2318POPC   NC330935  29.448  15.746   9.825
 2318POPC   PO430936  29.712  15.241   9.458
 2318POPC   GL130937  29.769  15.126   9.084
 2318POPC   GL230938  30.103  15.073   9.038
 2318POPC   C1A30939  29.624  15.340   8.744
 2318POPC   D2A30940  29.744  15.506   8.364
 2318POPC   C3A30941  29.634  15.281   8.023
 2318POPC   C4A30942  29.562  15.168   7.643
 2318POPC   C1B30943  29.957  14.932   8.654
 2318POPC   C2B30944  29.998  14.981   8.228
 2318POPC   C3B30945  29.919  14.834   7.833
 2318POPC   C4B30946  30.035  14.801   7.409
 2319POPC   NC330947  19.005   4.126   9.432
 2319POPC   PO430948  19.327   4.751   9.485
 2319POPC   GL130949  19.163   4.800   9.114
 2319POPC   GL230950  18.900   4.556   9.137
 2319POPC   C1A30951  19.243   4.622   8.745
 2319POPC   D2A30952  19.145   4.357   8.440
 2319POPC   C3A30953  19.294   4.530   8.087
 2319POPC   C4A30954  19.110   4.378   7.766
 2319POPC   C1B30955  18.665   4.321   8.802
 2319POPC   C2B30956  18.581   4.036   8.443
 2319POPC   C3B30957  18.814   4.047   8.050
 2319POPC   C4B30958  18.624   4.272   7.724
 2320POPC   NC330959  29.772  13.906   9.480
 2320POPC   PO430960  30.101  13.296   9.766
 2320POPC   GL130961  29.986  13.418   9.306
 2320POPC   GL230962  29.938  13.705   9.050
 2320POPC   C1A30963  29.881  13.246   8.875
 2320POPC   D2A30964  29.891  13.485   8.512
 2320POPC   C3A30965  29.938  13.339   8.101
 2320POPC   C4A30966  29.897  13.608   7.769
 2320POPC   C1B30967  30.056  13.973   8.679
 2320POPC   C2B30968  30.034  13.912   8.221
 2320POPC   C3B30969  30.153  14.041   7.791
 2320POPC   C4B30970  29.987  13.957   7.341
 2321POPC   NC330971  31.159   5.020   9.646
 2321POPC   PO430972  30.574   5.318   9.505
 2321POPC   GL130973  30.676   5.284   9.071
 2321POPC   GL230974  30.989   5.224   9.181
 2321POPC   C1A30975  30.599   5.205   8.595
 2321POPC   D2A30976  30.554   4.909   8.208
 2321POPC   C3A30977  30.415   5.129   7.825
 2321POPC   C4A30978  30.538   5.346   7.427
 2321POPC   C1B30979  30.977   4.930   8.817
 2321POPC   C2B30980  31.067   5.110   8.404
 2321POPC   C3B30981  30.955   5.111   7.993
 2321POPC   C4B30982  30.822   4.875   7.660
 2322POPC   NC330983  26.613   5.086   9.519
 2322POPC   PO430984  27.254   5.312   9.516
 2322POPC   GL130985  26.991   5.310   9.164
 2322POPC   GL230986  26.909   5.661   9.147
 2322POPC   C1A30987  26.848   5.002   8.849
 2322POPC   D2A30988  26.913   4.812   8.451
 2322POPC   C3A30989  26.709   4.995   8.107
 2322POPC   C4A30990  26.608   4.980   7.721
 2322POPC   C1B30991  26.610   5.462   8.842
 2322POPC   C2B30992  26.753   5.358   8.446
 2322POPC   C3B30993  26.696   5.511   8.024
 2322POPC   C4B30994  26.941   5.438   7.696
 2323POPC   NC330995  42.519   5.870   9.481
 2323POPC   PO430996  41.891   6.149   9.397
 2323POPC   GL130997  42.034   5.841   9.098
 2323POPC   GL230998  42.368   5.911   9.022
 2323POPC   C1A30999  42.099   5.684   8.687
 2323POPC   D2A31000  42.462   5.714   8.467
 2323POPC   C3A31001  42.290   5.577   8.090
 2323POPC   C4A31002  42.284   5.767   7.734
 2323POPC   C1B31003  42.620   6.167   8.761
 2323POPC   C2B31004  42.566   6.297   8.326
 2323POPC   C3B31005  42.597   6.093   7.967
 2323POPC   C4B31006  42.776   5.681   7.911
 2324POPC   NC331007  40.288   8.198   9.419
 2324POPC   PO431008  39.783   7.870   9.164
 2324POPC   GL131009  40.086   8.131   8.958
 2324POPC   GL231010  40.000   8.470   9.058
 2324POPC   C1A31011  40.337   7.980   8.631
 2324POPC   D2A31012  40.114   7.942   8.279
 2324POPC   C3A31013  40.159   8.056   7.869
 2324POPC   C4A31014  39.845   8.232   7.602
 2324POPC   C1B31015  39.926   8.647   8.667
 2324POPC   C2B31016  40.016   8.507   8.268
 2324POPC   C3B31017  39.846   8.644   7.901
 2324POPC   C4B31018  39.506   8.619   7.636
 2325POPC   NC331019  25.724   5.323   9.506
 2325POPC   PO431020  25.802   4.709   9.719
 2325POPC   GL131021  25.993   4.841   9.302
 2325POPC   GL231022  25.852   4.655   9.024
 2325POPC   C1A31023  26.316   4.970   8.971
 2325POPC   D2A31024  26.419   4.962   8.539
 2325POPC   C3A31025  26.271   5.280   8.262
 2325POPC   C4A31026  26.185   5.291   7.826
 2325POPC   C1B31027  25.897   5.012   8.711
 2325POPC   C2B31028  25.813   5.055   8.291
 2325POPC   C3B31029  25.806   4.928   7.869
 2325POPC   C4B31030  25.692   5.222   7.592
 2326POPC   NC331031  11.761  11.069   9.712
 2326POPC   PO431032  12.448  11.038   9.610
 2326POPC   GL131033  12.087  11.040   9.310
 2326POPC   GL231034  11.878  11.342   9.278
 2326POPC   C1A31035  12.124  11.058   8.859
 2326POPC   D2A31036  12.235  11.350   8.520
 2326POPC   C3A31037  12.068  11.300   8.110
 2326POPC   C4A31038  12.253  11.154   7.745
 2326POPC   C1B31039  11.846  11.481   8.857
 2326POPC   C2B31040  11.828  11.637   8.440
 2326POPC   C3B31041  11.756  11.723   8.011
 2326POPC   C4B31042  11.827  11.443   7.665
 2327POPC   NC331043  16.008   1.705   9.573
 2327POPC   PO431044  15.467   1.991   9.534
 2327POPC   GL131045  15.796   2.042   9.220
 2327POPC   GL231046  16.158   1.986   9.171
 2327POPC   C1A31047  15.889   2.199   8.822
 2327POPC   D2A31048  15.764   1.962   8.469
 2327POPC   C3A31049  15.818   2.134   8.061
 2327POPC   C4A31050  15.755   1.927   7.673
 2327POPC   C1B31051  16.242   1.828   8.730
 2327POPC   C2B31052  16.272   1.972   8.310
 2327POPC   C3B31053  16.233   1.875   7.863
 2327POPC   C4B31054  16.221   1.882   7.380
 2328POPC   NC331055  10.603  29.621   9.433
 2328POPC   PO431056  10.311  30.161   9.359
 2328POPC   GL131057  10.527  30.025   9.054
 2328POPC   GL231058  10.909  30.120   9.090
 2328POPC   C1A31059  10.379  29.684   8.761
 2328POPC   D2A31060  10.519  29.557   8.335
 2328POPC   C3A31061  10.286  29.788   7.992
 2328POPC   C4A31062  10.370  29.607   7.621
 2328POPC   C1B31063  10.866  29.797   8.776
 2328POPC   C2B31064  10.635  30.033   8.466
 2328POPC   C3B31065  10.771  29.924   8.066
 2328POPC   C4B31066  10.624  30.052   7.687
 2329POPC   NC331067  24.577  34.885   9.241
 2329POPC   PO431068  24.235  34.387   9.539
 2329POPC   GL131069  24.556  34.310   9.170
 2329POPC   GL231070  24.425  34.512   8.908
 2329POPC   C1A31071  24.796  34.258   8.715
 2329POPC   D2A31072  24.472  34.317   8.359
 2329POPC   C3A31073  24.535  34.444   7.929
 2329POPC   C4A31074  24.770  34.738   7.707
 2329POPC   C1B31075  24.620  34.752   8.616
 2329POPC   C2B31076  24.803  34.791   8.259
 2329POPC   C3B31077  24.469  34.961   8.053
 2329POPC   C4B31078  24.254  34.810   7.707
 2330POPC   NC331079   5.533  39.136   9.514
 2330POPC   PO431080   4.955  39.087   9.906
 2330POPC   GL131081   4.970  39.121   9.366
 2330POPC   GL231082   5.229  39.241   9.110
 2330POPC   C1A31083   4.861  38.950   8.928
 2330POPC   D2A31084   5.184  38.921   8.593
 2330POPC   C3A31085   5.195  39.058   8.142
 2330POPC   C4A31086   4.895  39.052   7.811
 2330POPC   C1B31087   5.438  39.408   8.692
 2330POPC   C2B31088   5.445  39.501   8.213
 2330POPC   C3B31089   5.190  39.473   7.778
 2330POPC   C4B31090   5.219  39.654   7.334
 2331POPC   NC331091  43.026  39.476   9.487
 2331POPC   PO431092  43.665  39.132   9.550
 2331POPC   GL131093  43.420  39.317   9.233
 2331POPC   GL231094  43.196  39.041   9.234
 2331POPC   C1A31095  43.341  39.433   8.797
 2331POPC   D2A31096  43.109  39.270   8.433
 2331POPC   C3A31097  43.163  39.395   8.043
 2331POPC   C4A31098  43.085  39.309   7.663
 2331POPC   C1B31099  43.093  38.939   8.818
 2331POPC   C2B31100  42.938  38.744   8.445
 2331POPC   C3B31101  42.938  38.917   8.047
 2331POPC   C4B31102  43.082  38.799   7.661
 2332POPC   NC331103  28.832  13.846   9.334
 2332POPC   PO431104  28.688  14.469   9.675
 2332POPC   GL131105  28.917  14.412   9.275
 2332POPC   GL231106  28.743  14.333   8.974
 2332POPC   C1A31107  29.257  14.380   8.948
 2332POPC   D2A31108  29.274  14.505   8.487
 2332POPC   C3A31109  29.161  14.306   8.097
 2332POPC   C4A31110  29.304  14.367   7.691
 2332POPC   C1B31111  28.922  14.758   8.864
 2332POPC   C2B31112  28.998  14.926   8.461
 2332POPC   C3B31113  28.907  14.756   8.076
 2332POPC   C4B31114  28.802  14.522   7.717
 2333POPC   NC331115  31.355  44.928   9.646
 2333POPC   PO431116  31.392  44.357   9.612
 2333POPC   GL131117  31.567  44.607   9.247
 2333POPC   GL231118  31.366  44.871   9.129
 2333POPC   C1A31119  31.631  44.645   8.756
 2333POPC   D2A31120  31.651  44.417   8.351
 2333POPC   C3A31121  31.442  44.636   7.993
 2333POPC   C4A31122  31.529  44.811   7.573
 2333POPC   C1B31123  31.293   0.074   8.714
 2333POPC   C2B31124  31.197   0.094   8.258
 2333POPC   C3B31125  31.104   0.040   7.825
 2333POPC   C4B31126  30.884  44.713   7.561
 2334POPC   NC331127  20.393  37.578   9.506
 2334POPC   PO431128  19.695  37.797   9.535
 2334POPC   GL131129  19.861  37.602   9.225
 2334POPC   GL231130  20.094  37.843   9.176
 2334POPC   C1A31131  19.745  37.536   8.809
 2334POPC   D2A31132  19.797  37.720   8.418
 2334POPC   C3A31133  20.006  37.465   8.138
 2334POPC   C4A31134  19.816  37.351   7.738
 2334POPC   C1B31135  20.258  37.606   8.846
 2334POPC   C2B31136  20.412  37.829   8.509
 2334POPC   C3B31137  20.151  37.995   8.171
 2334POPC   C4B31138  20.100  37.806   7.769
 2335POPC   NC331139  40.430  29.466   9.594
 2335POPC   PO431140  40.879  28.836   9.525
 2335POPC   GL131141  40.750  28.963   9.110
 2335POPC   GL231142  40.635  29.311   9.109
 2335POPC   C1A31143  40.923  29.160   8.706
 2335POPC   D2A31144  41.008  29.336   8.274
 2335POPC   C3A31145  41.066  29.012   7.937
 2335POPC   C4A31146  40.982  28.937   7.461
 2335POPC   C1B31147  40.406  29.167   8.760
 2335POPC   C2B31148  40.429  29.320   8.363
 2335POPC   C3B31149  40.570  29.169   8.002
 2335POPC   C4B31150  40.803  29.382   7.708
 2336POPC   NC331151  36.436  40.796   9.412
 2336POPC   PO431152  37.157  40.923   9.424
 2336POPC   GL131153  36.859  40.793   9.141
 2336POPC   GL231154  36.679  41.105   9.061
 2336POPC   C1A31155  36.819  40.542   8.786
 2336POPC   D2A31156  37.107  40.569   8.425
 2336POPC   C3A31157  36.836  40.755   8.155
 2336POPC   C4A31158  36.819  40.749   7.700
 2336POPC   C1B31159  36.909  41.028   8.676
 2336POPC   C2B31160  37.184  41.066   8.336
 2336POPC   C3B31161  36.993  41.181   7.943
 2336POPC   C4B31162  36.564  41.185   7.837
 2337POPC   NC331163  36.957  22.028   9.394
 2337POPC   PO431164  36.444  22.465   9.271
 2337POPC   GL131165  36.769  22.282   8.970
 2337POPC   GL231166  36.869  21.883   8.922
 2337POPC   C1A31167  36.819  22.200   8.525
 2337POPC   D2A31168  36.953  21.791   8.401
 2337POPC   C3A31169  37.122  21.842   8.016
 2337POPC   C4A31170  36.909  22.208   7.855
 2337POPC   C1B31171  36.470  21.884   8.749
 2337POPC   C2B31172  36.252  21.889   8.336
 2337POPC   C3B31173  36.466  22.205   8.135
 2337POPC   C4B31174  36.511  22.592   7.978
 2338POPC   NC331175  41.540  30.035   9.834
 2338POPC   PO431176  41.780  29.630   9.464
 2338POPC   GL131177  41.690  29.789   9.045
 2338POPC   GL231178  41.389  29.887   9.164
 2338POPC   C1A31179  41.835  29.922   8.634
 2338POPC   D2A31180  42.027  30.181   8.306
 2338POPC   C3A31181  41.725  30.166   7.970
 2338POPC   C4A31182  41.628  29.810   7.724
 2338POPC   C1B31183  41.428  30.173   8.818
 2338POPC   C2B31184  41.416  30.203   8.391
 2338POPC   C3B31185  41.249  30.321   7.994
 2338POPC   C4B31186  41.305  30.183   7.545
 2339POPC   NC331187  39.749  31.082   9.521
 2339POPC   PO431188  40.324  30.625   9.466
 2339POPC   GL131189  40.071  30.846   9.199
 2339POPC   GL231190  39.741  30.666   9.145
 2339POPC   C1A31191  40.015  30.907   8.766
 2339POPC   D2A31192  40.074  30.666   8.393
 2339POPC   C3A31193  39.873  30.817   8.034
 2339POPC   C4A31194  40.081  30.815   7.637
 2339POPC   C1B31195  39.660  30.518   8.701
 2339POPC   C2B31196  39.685  30.361   8.238
 2339POPC   C3B31197  39.943  30.341   7.818
 2339POPC   C4B31198  39.836  30.439   7.354
 2340POPC   NC331199   4.674  31.094   9.330
 2340POPC   PO431200   5.245  30.791   9.533
 2340POPC   GL131201   5.135  30.729   9.096
 2340POPC   GL231202   5.244  31.063   8.986
 2340POPC   C1A31203   5.256  30.627   8.646
 2340POPC   D2A31204   5.173  30.904   8.259
 2340POPC   C3A31205   5.071  30.675   7.851
 2340POPC   C4A31206   5.253  30.664   7.445
 2340POPC   C1B31207   4.867  30.960   8.703
 2340POPC   C2B31208   4.670  30.905   8.287
 2340POPC   C3B31209   4.814  31.103   7.899
 2340POPC   C4B31210   4.855  30.967   7.450
 2341POPC   NC331211  40.050  41.191   9.246
 2341POPC   PO431212  39.782  40.681   9.593
 2341POPC   GL131213  39.860  40.458   9.198
 2341POPC   GL231214  40.149  40.624   9.082
 2341POPC   C1A31215  39.841  40.403   8.756
 2341POPC   D2A31216  39.751  40.478   8.338
 2341POPC   C3A31217  40.101  40.571   8.078
 2341POPC   C4A31218  40.066  40.718   7.672
 2341POPC   C1B31219  40.187  40.776   8.632
 2341POPC   C2B31220  40.179  41.070   8.285
 2341POPC   C3B31221  40.423  41.107   7.922
 2341POPC   C4B31222  40.332  41.109   7.478
 2342POPC   NC331223  16.267   1.084   9.406
 2342POPC   PO431224  15.702   1.364   9.631
 2342POPC   GL131225  15.806   1.384   9.192
 2342POPC   GL231226  15.828   1.027   9.083
 2342POPC   C1A31227  15.831   1.488   8.742
 2342POPC   D2A31228  15.922   1.264   8.331
 2342POPC   C3A31229  15.706   1.125   7.946
 2342POPC   C4A31230  15.982   1.435   7.710
 2342POPC   C1B31231  16.150   1.076   8.755
 2342POPC   C2B31232  16.302   0.899   8.355
 2342POPC   C3B31233  16.200   0.994   7.929
 2342POPC   C4B31234  16.350   1.143   7.529
 2343POPC   NC331235  29.760  41.047   9.453
 2343POPC   PO431236  29.918  40.434   9.667
 2343POPC   GL131237  29.910  40.607   9.231
 2343POPC   GL231238  29.595  40.645   9.076
 2343POPC   C1A31239  30.057  40.842   8.846
 2343POPC   D2A31240  30.163  41.055   8.438
 2343POPC   C3A31241  29.987  40.987   8.006
 2343POPC   C4A31242  30.134  40.677   7.736
 2343POPC   C1B31243  29.573  40.792   8.680
 2343POPC   C2B31244  29.814  40.659   8.358
 2343POPC   C3B31245  29.684  40.573   7.954
 2343POPC   C4B31246  29.500  40.820   7.670
 2344POPC   NC331247   4.633  32.780   9.375
 2344POPC   PO431248   4.700  32.130   9.618
 2344POPC   GL131249   4.353  32.162   9.269
 2344POPC   GL231250   4.277  32.488   9.178
 2344POPC   C1A31251   4.194  32.072   8.811
 2344POPC   D2A31252   3.972  32.125   8.412
 2344POPC   C3A31253   4.200  32.015   8.022
 2344POPC   C4A31254   4.317  32.176   7.598
 2344POPC   C1B31255   4.563  32.405   8.824
 2344POPC   C2B31256   4.426  32.367   8.403
 2344POPC   C3B31257   4.594  32.376   7.997
 2344POPC   C4B31258   4.671  32.572   7.612
 2345POPC   NC331259  18.636   7.959   9.498
 2345POPC   PO431260  19.331   8.175   9.514
 2345POPC   GL131261  19.118   8.035   9.172
 2345POPC   GL231262  18.900   8.305   9.212
 2345POPC   C1A31263  19.213   7.855   8.768
 2345POPC   D2A31264  19.230   7.740   8.329
 2345POPC   C3A31265  19.131   8.016   7.982
 2345POPC   C4A31266  19.434   7.911   7.666
 2345POPC   C1B31267  18.853   8.223   8.768
 2345POPC   C2B31268  19.074   8.350   8.381
 2345POPC   C3B31269  18.996   8.554   7.995
 2345POPC   C4B31270  18.604   8.538   7.796
 2346POPC   NC331271  38.869  32.138   9.628
 2346POPC   PO431272  39.518  32.133   9.548
 2346POPC   GL131273  39.250  32.327   9.230
 2346POPC   GL231274  39.128  32.682   9.237
 2346POPC   C1A31275  39.133  32.216   8.817
 2346POPC   D2A31276  38.803  32.177   8.492
 2346POPC   C3A31277  38.893  32.073   8.056
 2346POPC   C4A31278  38.964  32.291   7.682
 2346POPC   C1B31279  39.295  32.707   8.795
 2346POPC   C2B31280  39.252  32.464   8.389
 2346POPC   C3B31281  39.363  32.268   7.995
 2346POPC   C4B31282  39.478  32.481   7.632
 2347POPC   NC331283  33.951   4.487   9.459
 2347POPC   PO431284  33.549   3.888   9.543
 2347POPC   GL131285  33.606   4.019   9.118
 2347POPC   GL231286  33.633   4.393   9.088
 2347POPC   C1A31287  33.826   4.066   8.716
 2347POPC   D2A31288  33.971   4.274   8.341
 2347POPC   C3A31289  34.106   4.036   7.973
 2347POPC   C4A31290  33.955   3.967   7.522
 2347POPC   C1B31291  33.691   4.559   8.687
 2347POPC   C2B31292  33.583   4.608   8.242
 2347POPC   C3B31293  33.632   4.273   7.939
 2347POPC   C4B31294  33.497   4.208   7.536
 2348POPC   NC331295  18.104  40.787   9.472
 2348POPC   PO431296  18.739  40.650   9.455
 2348POPC   GL131297  18.464  40.615   9.118
 2348POPC   GL231298  18.440  40.954   9.061
 2348POPC   C1A31299  18.360  40.506   8.690
 2348POPC   D2A31300  18.468  40.734   8.292
 2348POPC   C3A31301  18.274  40.546   7.940
 2348POPC   C4A31302  18.228  40.511   7.493
 2348POPC   C1B31303  18.276  41.030   8.657
 2348POPC   C2B31304  18.127  41.122   8.227
 2348POPC   C3B31305  18.212  41.019   7.809
 2348POPC   C4B31306  17.995  40.950   7.396
 2349POPC   NC331307   2.867  18.716   9.491
 2349POPC   PO431308   2.574  19.358   9.595
 2349POPC   GL131309   2.595  19.109   9.274
 2349POPC   GL231310   2.912  19.147   9.160
 2349POPC   C1A31311   2.570  18.863   8.910
 2349POPC   D2A31312   2.565  18.856   8.498
 2349POPC   C3A31313   2.745  18.962   8.137
 2349POPC   C4A31314   2.856  18.727   7.787
 2349POPC   C1B31315   3.058  18.916   8.770
 2349POPC   C2B31316   3.231  18.973   8.335
 2349POPC   C3B31317   3.138  19.260   8.008
 2349POPC   C4B31318   2.975  19.200   7.618
 2350POPC   NC331319  32.238   9.542   9.313
 2350POPC   PO431320  31.726   9.938   9.533
 2350POPC   GL131321  31.955   9.936   9.121
 2350POPC   GL231322  32.356  10.016   9.095
 2350POPC   C1A31323  32.092   9.877   8.692
 2350POPC   D2A31324  32.368   9.805   8.354
 2350POPC   C3A31325  32.244   9.942   7.963
 2350POPC   C4A31326  31.988   9.808   7.589
 2350POPC   C1B31327  32.650   9.740   8.779
 2350POPC   C2B31328  32.786   9.499   8.388
 2350POPC   C3B31329  32.560   9.516   7.985
 2350POPC   C4B31330  32.400   9.320   7.610
 2351POPC   NC331331  16.188  41.759   9.406
 2351POPC   PO431332  15.895  41.139   9.534
 2351POPC   GL131333  15.840  41.465   9.175
 2351POPC   GL231334  16.173  41.343   9.116
 2351POPC   C1A31335  15.958  41.757   8.765
 2351POPC   D2A31336  16.159  41.827   8.328
 2351POPC   C3A31337  15.887  41.806   7.926
 2351POPC   C4A31338  15.603  41.684   7.540
 2351POPC   C1B31339  15.946  41.264   8.705
 2351POPC   C2B31340  16.000  41.339   8.250
 2351POPC   C3B31341  15.872  41.302   7.801
 2351POPC   C4B31342  16.119  41.139   7.457
 2352POPC   NC331343  10.622   6.054   9.298
 2352POPC   PO431344  10.058   5.801   9.550
 2352POPC   GL131345  10.195   5.682   9.111
 2352POPC   GL231346  10.563   5.688   8.944
 2352POPC   C1A31347  10.186   5.770   8.631
 2352POPC   D2A31348  10.527   5.791   8.282
 2352POPC   C3A31349  10.465   5.815   7.807
 2352POPC   C4A31350  10.366   5.548   7.412
 2352POPC   C1B31351  10.761   6.021   8.695
 2352POPC   C2B31352  10.962   6.153   8.373
 2352POPC   C3B31353  10.703   6.225   8.045
 2352POPC   C4B31354  10.794   6.289   7.661
 2353POPC   NC331355  28.429  21.784   9.532
 2353POPC   PO431356  28.359  22.372   9.759
 2353POPC   GL131357  28.294  22.251   9.309
 2353POPC   GL231358  28.617  22.125   9.199
 2353POPC   C1A31359  28.273  22.288   8.848
 2353POPC   D2A31360  28.307  22.016   8.487
 2353POPC   C3A31361  28.222  22.150   8.093
 2353POPC   C4A31362  28.223  22.155   7.635
 2353POPC   C1B31363  28.740  22.021   8.773
 2353POPC   C2B31364  28.766  21.829   8.331
 2353POPC   C3B31365  28.947  21.933   7.942
 2353POPC   C4B31366  28.912  22.352   7.768
 2354POPC   NC331367  14.685  22.627   9.225
 2354POPC   PO431368  14.655  23.198   9.607
 2354POPC   GL131369  14.477  23.099   9.175
 2354POPC   GL231370  14.297  22.829   8.953
 2354POPC   C1A31371  14.427  23.238   8.718
 2354POPC   D2A31372  14.575  23.043   8.373
 2354POPC   C3A31373  14.283  23.078   8.044
 2354POPC   C4A31374  14.317  22.880   7.646
 2354POPC   C1B31375  14.126  22.819   8.508
 2354POPC   C2B31376  13.880  22.754   8.131
 2354POPC   C3B31377  13.910  22.591   7.703
 2354POPC   C4B31378  14.008  22.708   7.273
 2355POPC   NC331379  28.195  29.349   9.578
 2355POPC   PO431380  28.776  29.066   9.433
 2355POPC   GL131381  28.385  29.094   9.179
 2355POPC   GL231382  28.321  29.446   9.097
 2355POPC   C1A31383  28.151  29.074   8.797
 2355POPC   D2A31384  28.419  29.085   8.452
 2355POPC   C3A31385  28.187  29.120   8.086
 2355POPC   C4A31386  28.000  29.199   7.685
 2355POPC   C1B31387  28.480  29.555   8.689
 2355POPC   C2B31388  28.498  29.544   8.203
 2355POPC   C3B31389  28.457  29.410   7.763
 2355POPC   C4B31390  28.692  29.301   7.354
 2356POPC   NC331391  42.213  31.378   9.363
 2356POPC   PO431392  42.517  32.009   9.500
 2356POPC   GL131393  42.507  31.751   9.164
 2356POPC   GL231394  42.746  31.475   9.223
 2356POPC   C1A31395  42.443  31.555   8.765
 2356POPC   D2A31396  42.213  31.487   8.418
 2356POPC   C3A31397  42.392  31.653   8.071
 2356POPC   C4A31398  42.243  31.508   7.687
 2356POPC   C1B31399  42.887  31.312   8.800
 2356POPC   C2B31400  42.710  31.340   8.357
 2356POPC   C3B31401  42.669  31.259   7.920
 2356POPC   C4B31402  42.644  31.259   7.450
 2357POPC   NC331403   6.192  35.097   9.357
 2357POPC   PO431404   6.523  34.630   9.674
 2357POPC   GL131405   6.561  34.686   9.209
 2357POPC   GL231406   6.614  35.026   9.083
 2357POPC   C1A31407   6.706  34.539   8.786
 2357POPC   D2A31408   6.878  34.448   8.374
 2357POPC   C3A31409   6.794  34.729   8.035
 2357POPC   C4A31410   6.557  34.502   7.779
 2357POPC   C1B31411   6.305  34.845   8.774
 2357POPC   C2B31412   6.392  34.750   8.361
 2357POPC   C3B31413   6.316  34.936   7.978
 2357POPC   C4B31414   6.300  34.861   7.556
 2358POPC   NC331415  38.668  44.209   9.462
 2358POPC   PO431416  38.275  43.665   9.541
 2358POPC   GL131417  38.584  43.722   9.181
 2358POPC   GL231418  38.965  43.678   9.143
 2358POPC   C1A31419  38.504  43.952   8.793
 2358POPC   D2A31420  38.237  43.891   8.456
 2358POPC   C3A31421  38.373  44.064   8.086
 2358POPC   C4A31422  38.247  43.935   7.677
 2358POPC   C1B31423  38.998  43.881   8.699
 2358POPC   C2B31424  38.941  43.949   8.247
 2358POPC   C3B31425  38.737  43.798   7.875
 2358POPC   C4B31426  38.706  43.873   7.427
 2359POPC   NC331427  22.954  38.260   9.455
 2359POPC   PO431428  23.076  38.887   9.373
 2359POPC   GL131429  22.860  38.620   9.090
 2359POPC   GL231430  22.692  38.284   9.018
 2359POPC   C1A31431  22.973  38.666   8.691
 2359POPC   D2A31432  22.709  38.609   8.389
 2359POPC   C3A31433  22.918  38.542   8.030
 2359POPC   C4A31434  22.722  38.481   7.651
 2359POPC   C1B31435  23.076  38.186   8.785
 2359POPC   C2B31436  23.249  38.203   8.352
 2359POPC   C3B31437  23.197  38.121   7.916
 2359POPC   C4B31438  23.132  38.027   7.492
 2360POPC   NC331439  25.152  28.368   9.527
 2360POPC   PO431440  25.813  28.248   9.426
 2360POPC   GL131441  25.495  28.455   9.130
 2360POPC   GL231442  25.141  28.622   9.078
 2360POPC   C1A31443  25.528  28.503   8.690
 2360POPC   D2A31444  25.343  28.285   8.335
 2360POPC   C3A31445  25.268  28.536   7.970
 2360POPC   C4A31446  25.361  28.365   7.556
 2360POPC   C1B31447  25.064  28.280   8.800
 2360POPC   C2B31448  24.842  28.115   8.452
 2360POPC   C3B31449  24.917  28.175   8.027
 2360POPC   C4B31450  24.855  28.498   7.698
 2361POPC   NC331451  32.227  27.988   9.851
 2361POPC   PO431452  32.256  28.453   9.374
 2361POPC   GL131453  32.269  28.350   8.988
 2361POPC   GL231454  32.070  28.576   8.913
 2361POPC   C1A31455  32.402  28.290   8.621
 2361POPC   D2A31456  32.409  28.542   8.263
 2361POPC   C3A31457  32.415  28.260   7.933
 2361POPC   C4A31458  32.668  28.161   7.598
 2361POPC   C1B31459  31.796  28.752   8.634
 2361POPC   C2B31460  31.834  28.848   8.197
 2361POPC   C3B31461  32.077  28.658   7.865
 2361POPC   C4B31462  32.119  28.402   7.495
 2362POPC   NC331463   3.287  35.804   9.398
 2362POPC   PO431464   2.799  36.209   9.691
 2362POPC   GL131465   2.787  36.055   9.259
 2362POPC   GL231466   3.078  36.252   9.243
 2362POPC   C1A31467   2.778  35.879   8.811
 2362POPC   D2A31468   2.509  35.823   8.448
 2362POPC   C3A31469   2.594  35.997   8.014
 2362POPC   C4A31470   2.849  35.820   7.681
 2362POPC   C1B31471   3.022  36.334   8.808
 2362POPC   C2B31472   2.966  36.166   8.396
 2362POPC   C3B31473   2.963  36.348   7.994
 2362POPC   C4B31474   3.162  36.231   7.652
 2363POPC   NC331475  42.580   3.404   9.484
 2363POPC   PO431476  42.007   3.776   9.384
 2363POPC   GL131477  42.337   3.657   9.108
 2363POPC   GL231478  42.292   3.338   9.082
 2363POPC   C1A31479  42.639   3.527   8.767
 2363POPC   D2A31480  42.886   3.494   8.386
 2363POPC   C3A31481  42.792   3.643   7.953
 2363POPC   C4A31482  42.561   3.564   7.585
 2363POPC   C1B31483  42.116   3.340   8.721
 2363POPC   C2B31484  42.333   3.336   8.381
 2363POPC   C3B31485  42.285   3.474   8.007
 2363POPC   C4B31486  42.221   3.218   7.687
 2364POPC   NC331487  27.000   9.377   9.534
 2364POPC   PO431488  26.503   8.856   9.359
 2364POPC   GL131489  26.752   8.907   9.013
 2364POPC   GL231490  26.944   9.159   9.078
 2364POPC   C1A31491  26.777   8.925   8.560
 2364POPC   D2A31492  26.649   9.246   8.299
 2364POPC   C3A31493  26.527   9.081   7.914
 2364POPC   C4A31494  26.883   8.994   7.624
 2364POPC   C1B31495  27.000   9.363   8.689
 2364POPC   C2B31496  27.232   9.313   8.319
 2364POPC   C3B31497  27.078   8.955   8.107
 2364POPC   C4B31498  27.206   8.643   7.819
 2365POPC   NC331499  40.717  17.133   9.466
 2365POPC   PO431500  40.833  16.434   9.351
 2365POPC   GL131501  40.794  16.806   9.094
 2365POPC   GL231502  41.054  17.127   9.105
 2365POPC   C1A31503  40.683  16.676   8.705
 2365POPC   D2A31504  40.828  16.405   8.379
 2365POPC   C3A31505  40.606  16.561   8.059
 2365POPC   C4A31506  40.753  16.652   7.689
 2365POPC   C1B31507  41.177  16.864   8.774
 2365POPC   C2B31508  41.302  16.929   8.371
 2365POPC   C3B31509  41.139  16.697   8.057
 2365POPC   C4B31510  41.253  16.667   7.653
 2366POPC   NC331511  13.239  23.456   9.377
 2366POPC   PO431512  12.593  23.633   9.533
 2366POPC   GL131513  12.817  23.587   9.139
 2366POPC   GL231514  13.075  23.835   9.058
 2366POPC   C1A31515  12.915  23.508   8.715
 2366POPC   D2A31516  12.604  23.646   8.466
 2366POPC   C3A31517  12.601  23.644   8.010
 2366POPC   C4A31518  12.788  23.370   7.672
 2366POPC   C1B31519  13.304  23.839   8.704
 2366POPC   C2B31520  13.069  23.852   8.366
 2366POPC   C3B31521  13.046  23.987   7.984
 2366POPC   C4B31522  13.298  23.838   7.659
 2367POPC   NC331523   0.233   8.355   9.360
 2367POPC   PO431524   0.519   7.789   9.430
 2367POPC   GL131525   0.156   7.863   9.086
 2367POPC   GL231526  44.852   8.122   9.087
 2367POPC   C1A31527   0.203   7.909   8.631
 2367POPC   D2A31528   0.591   7.898   8.378
 2367POPC   C3A31529   0.689   8.244   8.104
 2367POPC   C4A31530   0.621   8.086   7.690
 2367POPC   C1B31531  44.983   8.353   8.733
 2367POPC   C2B31532   0.214   8.382   8.340
 2367POPC   C3B31533   0.202   8.269   7.915
 2367POPC   C4B31534   0.267   8.375   7.478
 2368POPC   NC331535  25.774  12.424   9.511
 2368POPC   PO431536  26.299  11.972   9.321
 2368POPC   GL131537  26.169  11.850   8.906
 2368POPC   GL231538  25.791  11.835   8.875
 2368POPC   C1A31539  26.094  12.053   8.506
 2368POPC   D2A31540  26.048  12.454   8.303
 2368POPC   C3A31541  26.134  12.420   7.909
 2368POPC   C4A31542  26.117  12.207   7.567
 2368POPC   C1B31543  25.510  11.964   8.585
 2368POPC   C2B31544  25.667  12.140   8.213
 2368POPC   C3B31545  25.935  11.880   7.952
 2368POPC   C4B31546  25.640  11.673   7.660
 2369POPC   NC331547  25.732  35.823   9.807
 2369POPC   PO431548  25.905  36.282   9.332
 2369POPC   GL131549  25.927  36.229   8.963
 2369POPC   GL231550  26.294  36.232   8.942
 2369POPC   C1A31551  25.926  35.943   8.652
 2369POPC   D2A31552  26.138  35.983   8.293
 2369POPC   C3A31553  25.873  36.029   7.958
 2369POPC   C4A31554  25.663  36.383   7.780
 2369POPC   C1B31555  26.450  35.877   8.697
 2369POPC   C2B31556  26.559  35.707   8.270
 2369POPC   C3B31557  26.392  35.900   7.864
 2369POPC   C4B31558  26.196  36.225   7.589
 2370POPC   NC331559  14.709   8.294   9.412
 2370POPC   PO431560  14.083   8.042   9.420
 2370POPC   GL131561  14.341   8.184   9.091
 2370POPC   GL231562  14.538   7.885   9.143
 2370POPC   C1A31563  14.575   8.454   8.770
 2370POPC   D2A31564  14.431   8.643   8.378
 2370POPC   C3A31565  14.499   8.357   8.026
 2370POPC   C4A31566  14.503   8.098   7.664
 2370POPC   C1B31567  14.755   7.955   8.798
 2370POPC   C2B31568  14.681   8.080   8.409
 2370POPC   C3B31569  14.533   7.825   8.076
 2370POPC   C4B31570  14.581   7.596   7.658
 2371POPC   NC331571  27.093   2.129   9.554
 2371POPC   PO431572  26.546   1.968   9.455
 2371POPC   GL131573  26.795   2.159   9.146
 2371POPC   GL231574  27.043   1.930   9.081
 2371POPC   C1A31575  26.752   2.297   8.732
 2371POPC   D2A31576  26.642   2.109   8.339
 2371POPC   C3A31577  26.868   2.063   7.956
 2371POPC   C4A31578  26.904   2.346   7.588
 2371POPC   C1B31579  26.977   1.843   8.627
 2371POPC   C2B31580  26.796   1.627   8.241
 2371POPC   C3B31581  26.578   1.515   7.840
 2371POPC   C4B31582  26.665   1.491   7.365
 2372POPC   NC331583  16.349  41.033   9.545
 2372POPC   PO431584  16.968  40.744   9.584
 2372POPC   GL131585  16.774  40.899   9.221
 2372POPC   GL231586  17.104  40.839   9.090
 2372POPC   C1A31587  16.564  40.809   8.791
 2372POPC   D2A31588  16.555  40.565   8.399
 2372POPC   C3A31589  16.870  40.575   8.080
 2372POPC   C4A31590  16.706  40.549   7.661
 2372POPC   C1B31591  16.952  41.116   8.786
 2372POPC   C2B31592  16.957  40.987   8.367
 2372POPC   C3B31593  16.842  41.076   7.942
 2372POPC   C4B31594  17.064  41.199   7.602
 2373POPC   NC331595  44.902  41.481   9.378
 2373POPC   PO431596  44.283  41.830   9.552
 2373POPC   GL131597  44.459  41.662   9.134
 2373POPC   GL231598  44.557  41.308   9.043
 2373POPC   C1A31599  44.788  41.731   8.795
 2373POPC   D2A31600  44.914  41.820   8.362
 2373POPC   C3A31601  44.851  41.519   8.042
 2373POPC   C4A31602  44.888  41.614   7.620
 2373POPC   C1B31603  44.570  41.332   8.579
 2373POPC   C2B31604  44.422  41.662   8.336
 2373POPC   C3B31605  44.364  41.654   7.918
 2373POPC   C4B31606  44.500  41.315   7.681
 2374POPC   NC331607  42.538  22.919   9.626
 2374POPC   PO431608  41.884  23.169   9.650
 2374POPC   GL131609  42.231  23.198   9.296
 2374POPC   GL231610  42.299  22.857   9.194
 2374POPC   C1A31611  42.384  23.163   8.818
 2374POPC   D2A31612  42.602  23.174   8.415
 2374POPC   C3A31613  42.471  23.001   8.051
 2374POPC   C4A31614  42.655  23.065   7.652
 2374POPC   C1B31615  42.503  22.652   8.858
 2374POPC   C2B31616  42.368  22.635   8.436
 2374POPC   C3B31617  42.510  22.505   8.054
 2374POPC   C4B31618  42.366  22.619   7.656
 2375POPC   NC331619   0.226  19.226   9.266
 2375POPC   PO431620   0.777  18.847   9.454
 2375POPC   GL131621   0.562  18.867   9.115
 2375POPC   GL231622   0.780  19.120   9.015
 2375POPC   C1A31623   0.570  18.745   8.700
 2375POPC   D2A31624   0.726  19.025   8.432
 2375POPC   C3A31625   0.348  19.180   8.205
 2375POPC   C4A31626   0.226  19.077   7.787
 2375POPC   C1B31627   0.879  19.430   8.761
 2375POPC   C2B31628   0.730  19.516   8.344
 2375POPC   C3B31629   0.751  19.365   7.933
 2375POPC   C4B31630   0.663  19.143   7.529
 2376POPC   NC331631   7.506  17.020   9.612
 2376POPC   PO431632   7.026  16.491   9.634
 2376POPC   GL131633   7.269  16.567   9.240
 2376POPC   GL231634   7.583  16.749   9.192
 2376POPC   C1A31635   7.224  16.784   8.827
 2376POPC   D2A31636   7.397  16.692   8.416
 2376POPC   C3A31637   7.314  16.900   8.024
 2376POPC   C4A31638   7.134  16.614   7.750
 2376POPC   C1B31639   7.718  16.919   8.783
 2376POPC   C2B31640   7.656  17.150   8.391
 2376POPC   C3B31641   7.806  17.025   7.977
 2376POPC   C4B31642   7.650  16.795   7.605
 2377POPC   NC331643   7.365  21.431   9.584
 2377POPC   PO431644   7.110  21.933   9.867
 2377POPC   GL131645   7.130  21.806   9.316
 2377POPC   GL231646   7.382  21.519   9.105
 2377POPC   C1A31647   7.102  21.796   8.820
 2377POPC   D2A31648   7.349  21.549   8.493
 2377POPC   C3A31649   7.161  21.511   8.089
 2377POPC   C4A31650   7.145  21.171   7.786
 2377POPC   C1B31651   7.679  21.315   8.802
 2377POPC   C2B31652   7.646  21.110   8.355
 2377POPC   C3B31653   7.633  21.296   7.921
 2377POPC   C4B31654   7.678  21.313   7.470
 2378POPC   NC331655   3.075  19.464   9.576
 2378POPC   PO431656   3.643  19.851   9.337
 2378POPC   GL131657   3.439  19.730   9.007
 2378POPC   GL231658   3.352  19.423   9.137
 2378POPC   C1A31659   3.409  19.770   8.581
 2378POPC   D2A31660   3.569  20.069   8.314
 2378POPC   C3A31661   3.708  19.963   7.931
 2378POPC   C4A31662   3.873  19.992   7.523
 2378POPC   C1B31663   3.067  19.430   8.780
 2378POPC   C2B31664   2.976  19.580   8.371
 2378POPC   C3B31665   3.238  19.754   8.049
 2378POPC   C4B31666   3.437  19.652   7.623
 2379POPC   NC331667  31.270  37.235   9.745
 2379POPC   PO431668  31.506  36.545   9.634
 2379POPC   GL131669  31.540  36.620   9.190
 2379POPC   GL231670  31.290  36.852   9.049
 2379POPC   C1A31671  31.534  36.497   8.753
 2379POPC   D2A31672  31.342  36.817   8.481
 2379POPC   C3A31673  31.530  36.897   8.121
 2379POPC   C4A31674  31.475  36.762   7.719
 2379POPC   C1B31675  31.704  36.965   8.817
 2379POPC   C2B31676  31.955  37.061   8.455
 2379POPC   C3B31677  31.802  37.326   8.122
 2379POPC   C4B31678  31.604  37.253   7.739
 2380POPC   NC331679   4.749  41.855   9.325
 2380POPC   PO431680   5.226  41.393   9.492
 2380POPC   GL131681   5.234  41.538   9.095
 2380POPC   GL231682   5.535  41.330   9.086
 2380POPC   C1A31683   4.953  41.490   8.713
 2380POPC   D2A31684   5.073  41.366   8.296
 2380POPC   C3A31685   5.097  41.708   8.041
 2380POPC   C4A31686   4.767  41.746   7.790
 2380POPC   C1B31687   5.419  41.277   8.685
 2380POPC   C2B31688   5.555  41.501   8.349
 2380POPC   C3B31689   5.474  41.382   7.915
 2380POPC   C4B31690   5.238  41.345   7.483
 2381POPC   NC331691   7.798  37.064   9.513
 2381POPC   PO431692   7.109  37.100   9.439
 2381POPC   GL131693   7.393  37.081   9.083
 2381POPC   GL231694   7.613  36.807   9.131
 2381POPC   C1A31695   7.453  36.984   8.646
 2381POPC   D2A31696   7.605  37.140   8.243
 2381POPC   C3A31697   7.329  37.111   7.880
 2381POPC   C4A31698   7.315  36.704   7.717
 2381POPC   C1B31699   7.813  36.650   8.758
 2381POPC   C2B31700   7.655  36.609   8.335
 2381POPC   C3B31701   7.837  36.548   7.936
 2381POPC   C4B31702   7.769  36.569   7.484
 2382POPC   NC331703  40.598  31.891   9.422
 2382POPC   PO431704  40.934  32.508   9.356
 2382POPC   GL131705  40.597  32.443   9.023
 2382POPC   GL231706  40.518  32.077   8.955
 2382POPC   C1A31707  40.661  32.433   8.561
 2382POPC   D2A31708  41.008  32.433   8.257
 2382POPC   C3A31709  40.920  32.312   7.852
 2382POPC   C4A31710  40.516  32.422   7.785
 2382POPC   C1B31711  40.951  31.990   8.837
 2382POPC   C2B31712  41.009  31.919   8.398
 2382POPC   C3B31713  40.634  32.034   8.162
 2382POPC   C4B31714  40.562  31.904   7.756
 2383POPC   NC331715  18.529  16.983   9.255
 2383POPC   PO431716  18.102  16.530   9.564
 2383POPC   GL131717  18.201  16.564   9.113
 2383POPC   GL231718  18.530  16.452   8.941
 2383POPC   C1A31719  18.181  16.748   8.705
 2383POPC   D2A31720  18.190  16.599   8.326
 2383POPC   C3A31721  18.171  16.792   7.994
 2383POPC   C4A31722  18.228  16.585   7.638
 2383POPC   C1B31723  18.687  16.739   8.639
 2383POPC   C2B31724  18.589  16.937   8.273
 2383POPC   C3B31725  18.649  16.881   7.852
 2383POPC   C4B31726  18.805  17.027   7.506
 2384POPC   NC331727  17.283  15.241   9.450
 2384POPC   PO431728  17.721  15.778   9.477
 2384POPC   GL131729  17.614  15.475   9.068
 2384POPC   GL231730  17.443  15.114   9.006
 2384POPC   C1A31731  17.692  15.288   8.624
 2384POPC   D2A31732  17.543  15.374   8.189
 2384POPC   C3A31733  17.758  15.229   7.851
 2384POPC   C4A31734  17.794  15.070   7.433
 2384POPC   C1B31735  17.184  15.263   8.686
 2384POPC   C2B31736  17.176  15.040   8.328
 2384POPC   C3B31737  17.402  14.888   8.013
 2384POPC   C4B31738  17.299  14.964   7.617
 2385POPC   NC331739  39.898   2.520   9.329
 2385POPC   PO431740  40.293   1.914   9.519
 2385POPC   GL131741  40.210   2.109   9.165
 2385POPC   GL231742  39.866   2.019   9.131
 2385POPC   C1A31743  40.172   1.971   8.721
 2385POPC   D2A31744  40.024   2.142   8.320
 2385POPC   C3A31745  40.310   1.996   8.044
 2385POPC   C4A31746  40.251   1.726   7.712
 2385POPC   C1B31747  39.784   2.307   8.756
 2385POPC   C2B31748  39.737   2.565   8.404
 2385POPC   C3B31749  39.647   2.456   7.996
 2385POPC   C4B31750  39.825   2.070   7.807
 2386POPC   NC331751  14.697  12.459   9.495
 2386POPC   PO431752  14.367  13.078   9.626
 2386POPC   GL131753  14.593  12.987   9.235
 2386POPC   GL231754  14.477  12.767   9.050
 2386POPC   C1A31755  14.731  13.135   8.806
 2386POPC   D2A31756  14.692  13.320   8.373
 2386POPC   C3A31757  14.671  13.022   8.047
 2386POPC   C4A31758  14.312  12.886   7.813
 2386POPC   C1B31759  14.298  12.809   8.673
 2386POPC   C2B31760  14.369  12.654   8.283
 2386POPC   C3B31761  14.452  12.402   7.961
 2386POPC   C4B31762  14.575  12.503   7.554
 2387POPC   NC331763   7.381  14.595  10.119
 2387POPC   PO431764   7.750  14.662   9.716
 2387POPC   GL131765   7.792  14.605   9.234
 2387POPC   GL231766   7.955  14.867   9.037
 2387POPC   C1A31767   7.624  14.467   8.789
 2387POPC   D2A31768   7.588  14.477   8.285
 2387POPC   C3A31769   7.238  14.474   7.956
 2387POPC   C4A31770   6.913  14.506   7.618
 2387POPC   C1B31771   7.964  14.762   8.561
 2387POPC   C2B31772   7.983  14.728   8.103
 2387POPC   C3B31773   7.711  14.596   7.757
 2387POPC   C4B31774   7.715  14.692   7.297
 2388POPC   NC331775  28.586  17.237   9.576
 2388POPC   PO431776  27.981  17.404   9.381
 2388POPC   GL131777  28.334  17.568   9.103
 2388POPC   GL231778  28.686  17.417   9.098
 2388POPC   C1A31779  28.390  17.492   8.645
 2388POPC   D2A31780  28.573  17.598   8.236
 2388POPC   C3A31781  28.212  17.636   7.972
 2388POPC   C4A31782  28.173  17.630   7.515
 2388POPC   C1B31783  28.396  17.068   8.960
 2388POPC   C2B31784  28.193  16.998   8.576
 2388POPC   C3B31785  28.243  17.132   8.154
 2388POPC   C4B31786  28.114  17.170   7.742
 2389POPC   NC331787  36.025  22.552   9.473
 2389POPC   PO431788  35.932  21.919   9.545
 2389POPC   GL131789  36.121  22.071   9.136
 2389POPC   GL231790  35.875  22.273   9.101
 2389POPC   C1A31791  36.121  22.243   8.676
 2389POPC   D2A31792  35.898  22.362   8.296
 2389POPC   C3A31793  36.025  22.364   7.878
 2389POPC   C4A31794  36.179  21.970   7.798
 2389POPC   C1B31795  35.682  21.976   8.874
 2389POPC   C2B31796  35.735  21.922   8.481
 2389POPC   C3B31797  35.770  21.847   8.067
 2389POPC   C4B31798  35.678  21.914   7.641
 2390POPC   NC331799  16.987  22.284   9.448
 2390POPC   PO431800  16.522  21.848   9.509
 2390POPC   GL131801  16.570  22.041   9.153
 2390POPC   GL231802  16.914  21.973   9.043
 2390POPC   C1A31803  16.445  22.291   8.815
 2390POPC   D2A31804  16.702  22.328   8.464
 2390POPC   C3A31805  16.602  22.077   8.125
 2390POPC   C4A31806  16.891  22.076   7.793
 2390POPC   C1B31807  16.659  21.837   8.683
 2390POPC   C2B31808  16.735  21.604   8.339
 2390POPC   C3B31809  16.739  21.608   7.922
 2390POPC   C4B31810  16.839  21.652   7.502
 2391POPC   NC331811  23.452   7.636   9.406
 2391POPC   PO431812  23.864   7.173   9.644
 2391POPC   GL131813  23.772   7.246   9.216
 2391POPC   GL231814  23.914   7.525   9.171
 2391POPC   C1A31815  23.653   7.322   8.758
 2391POPC   D2A31816  23.685   7.531   8.325
 2391POPC   C3A31817  23.678   7.376   7.851
 2391POPC   C4A31818  23.521   7.411   7.389
 2391POPC   C1B31819  24.036   7.792   8.855
 2391POPC   C2B31820  24.176   7.697   8.477
 2391POPC   C3B31821  24.114   7.629   8.059
 2391POPC   C4B31822  24.239   7.370   7.729
 2392POPC   NC331823  25.927  39.736   9.319
 2392POPC   PO431824  26.446  40.111   9.555
 2392POPC   GL131825  26.328  39.973   9.092
 2392POPC   GL231826  26.061  40.115   9.014
 2392POPC   C1A31827  26.172  39.707   8.675
 2392POPC   D2A31828  26.011  39.793   8.207
 2392POPC   C3A31829  26.218  39.695   7.773
 2392POPC   C4A31830  26.366  39.768   7.349
 2392POPC   C1B31831  25.785  40.060   8.679
 2392POPC   C2B31832  25.649  40.411   8.439
 2392POPC   C3B31833  25.951  40.425   8.089
 2392POPC   C4B31834  25.963  40.153   7.749
 2393POPC   NC331835  24.201  13.507   9.806
 2393POPC   PO431836  24.806  13.537   9.720
 2393POPC   GL131837  24.785  13.700   9.249
 2393POPC   GL231838  24.966  14.030   9.137
 2393POPC   C1A31839  24.870  13.700   8.773
 2393POPC   D2A31840  24.590  13.838   8.439
 2393POPC   C3A31841  24.526  13.528   8.156
 2393POPC   C4A31842  24.502  13.530   7.743
 2393POPC   C1B31843  24.803  14.226   8.725
 2393POPC   C2B31844  24.760  14.272   8.248
 2393POPC   C3B31845  24.779  13.961   7.906
 2393POPC   C4B31846  24.812  13.832   7.473
 2394POPC   NC331847  14.649  19.696   9.417
 2394POPC   PO431848  14.090  20.133   9.359
 2394POPC   GL131849  14.330  19.941   9.088
 2394POPC   GL231850  14.637  20.159   9.151
 2394POPC   C1A31851  14.246  19.724   8.681
 2394POPC   D2A31852  14.281  19.479   8.320
 2394POPC   C3A31853  14.290  19.757   7.974
 2394POPC   C4A31854  14.568  19.786   7.607
 2394POPC   C1B31855  14.649  20.021   8.724
 2394POPC   C2B31856  14.700  19.869   8.324
 2394POPC   C3B31857  14.668  20.117   7.974
 2394POPC   C4B31858  14.363  20.234   7.680
 2395POPC   NC331859   0.391  18.565   9.514
 2395POPC   PO431860   0.430  17.942   9.523
 2395POPC   GL131861   0.502  18.035   9.081
 2395POPC   GL231862   0.463  18.367   9.019
 2395POPC   C1A31863   0.527  18.024   8.616
 2395POPC   D2A31864   0.601  17.985   8.173
 2395POPC   C3A31865   0.670  18.408   8.014
 2395POPC   C4A31866   0.681  18.857   7.961
 2395POPC   C1B31867   0.157  18.401   8.641
 2395POPC   C2B31868   0.176  18.624   8.240
 2395POPC   C3B31869   0.172  18.516   7.807
 2395POPC   C4B31870   0.073  18.585   7.362
 2396POPC   NC331871   1.668  25.967   9.614
 2396POPC   PO431872   1.007  26.184   9.400
 2396POPC   GL131873   1.114  26.210   8.988
 2396POPC   GL231874   1.470  26.229   9.094
 2396POPC   C1A31875   0.968  26.008   8.612
 2396POPC   D2A31876   0.851  26.140   8.194
 2396POPC   C3A31877   1.105  26.086   7.830
 2396POPC   C4A31878   0.925  26.045   7.387
 2396POPC   C1B31879   1.500  25.959   8.711
 2396POPC   C2B31880   1.370  25.967   8.290
 2396POPC   C3B31881   1.609  26.021   7.922
 2396POPC   C4B31882   1.622  26.341   7.646
 2397POPC   NC331883  18.770   9.677   9.385
 2397POPC   PO431884  19.404   9.958   9.422
 2397POPC   GL131885  19.272   9.782   9.061
 2397POPC   GL231886  19.390   9.467   8.914
 2397POPC   C1A31887  19.392   9.930   8.659
 2397POPC   D2A31888  19.476   9.680   8.314
 2397POPC   C3A31889  19.121   9.697   8.031
 2397POPC   C4A31890  19.153   9.388   7.730
 2397POPC   C1B31891  18.971   9.508   8.714
 2397POPC   C2B31892  18.704   9.434   8.343
 2397POPC   C3B31893  18.676   9.466   7.900
 2397POPC   C4B31894  18.735   9.768   7.595
 2398POPC   NC331895  16.957  13.059   9.464
 2398POPC   PO431896  16.771  12.427   9.475
 2398POPC   GL131897  16.925  12.656   9.160
 2398POPC   GL231898  16.584  12.774   9.110
 2398POPC   C1A31899  16.966  12.855   8.751
 2398POPC   D2A31900  16.706  12.979   8.402
 2398POPC   C3A31901  16.837  12.849   7.999
 2398POPC   C4A31902  16.645  13.048   7.644
 2398POPC   C1B31903  16.520  12.360   8.876
 2398POPC   C2B31904  16.629  12.482   8.466
 2398POPC   C3B31905  16.508  12.441   8.066
 2398POPC   C4B31906  16.557  12.542   7.656
 2399POPC   NC331907  21.931  15.577   9.620
 2399POPC   PO431908  22.235  16.099   9.634
 2399POPC   GL131909  22.072  15.943   9.251
 2399POPC   GL231910  22.271  15.686   9.096
 2399POPC   C1A31911  21.888  15.930   8.834
 2399POPC   D2A31912  21.953  16.119   8.440
 2399POPC   C3A31913  22.277  16.046   8.203
 2399POPC   C4A31914  22.356  16.089   7.791
 2399POPC   C1B31915  22.270  15.632   8.621
 2399POPC   C2B31916  21.999  15.623   8.269
 2399POPC   C3B31917  22.138  15.627   7.850
 2399POPC   C4B31918  22.491  15.616   7.566
 2400POPC   NC331919   8.375   2.285   9.238
 2400POPC   PO431920   8.340   2.891   9.571
 2400POPC   GL131921   8.199   2.961   9.090
 2400POPC   GL231922   8.442   2.742   9.030
 2400POPC   C1A31923   8.070   2.804   8.644
 2400POPC   D2A31924   7.872   2.805   8.249
 2400POPC   C3A31925   7.958   2.645   7.874
 2400POPC   C4A31926   8.135   2.967   7.635
 2400POPC   C1B31927   8.492   2.541   8.652
 2400POPC   C2B31928   8.420   2.734   8.272
 2400POPC   C3B31929   8.448   2.567   7.844
 2400POPC   C4B31930   8.252   2.270   7.538
 2401POPC   NC331931  37.238   5.822   9.460
 2401POPC   PO431932  37.832   6.156   9.408
 2401POPC   GL131933  37.621   5.841   9.122
 2401POPC   GL231934  37.335   6.055   9.019
 2401POPC   C1A31935  37.581   5.638   8.713
 2401POPC   D2A31936  37.895   5.670   8.368
 2401POPC   C3A31937  37.918   5.830   7.916
 2401POPC   C4A31938  37.498   5.735   7.695
 2401POPC   C1B31939  37.636   6.151   8.700
 2401POPC   C2B31940  37.769   6.177   8.281
 2401POPC   C3B31941  37.581   6.207   7.881
 2401POPC   C4B31942  37.698   6.190   7.438
 2402POPC   NC331943   3.424   2.250   9.352
 2402POPC   PO431944   3.479   2.930   9.605
 2402POPC   GL131945   3.630   2.723   9.216
 2402POPC   GL231946   3.275   2.704   9.138
 2402POPC   C1A31947   3.918   2.697   8.827
 2402POPC   D2A31948   4.000   2.832   8.363
 2402POPC   C3A31949   3.780   2.934   7.940
 2402POPC   C4A31950   3.574   2.920   7.497
 2402POPC   C1B31951   3.442   2.806   8.724
 2402POPC   C2B31952   3.464   2.750   8.297
 2402POPC   C3B31953   3.269   2.900   7.916
 2402POPC   C4B31954   3.167   2.618   7.564
 2403POPC   NC331955  15.765  13.489   9.509
 2403POPC   PO431956  16.089  14.146   9.520
 2403POPC   GL131957  16.176  13.914   9.123
 2403POPC   GL231958  16.140  13.535   9.116
 2403POPC   C1A31959  16.046  13.842   8.700
 2403POPC   D2A31960  15.834  13.542   8.461
 2403POPC   C3A31961  15.829  13.621   8.039
 2403POPC   C4A31962  15.941  13.934   7.758
 2403POPC   C1B31963  16.161  13.252   8.729
 2403POPC   C2B31964  16.290  13.280   8.278
 2403POPC   C3B31965  16.229  13.396   7.823
 2403POPC   C4B31966  15.895  13.505   7.490
 2404POPC   NC331967  24.001   9.235   9.466
 2404POPC   PO431968  23.353   9.068   9.520
 2404POPC   GL131969  23.539   9.000   9.116
 2404POPC   GL231970  23.315   9.210   8.995
 2404POPC   C1A31971  23.733   9.066   8.677
 2404POPC   D2A31972  24.017   8.952   8.310
 2404POPC   C3A31973  23.898   8.944   7.900
 2404POPC   C4A31974  23.693   8.726   7.650
 2404POPC   C1B31975  23.259   8.872   8.663
 2404POPC   C2B31976  23.486   8.902   8.255
 2404POPC   C3B31977  23.457   9.203   7.940
 2404POPC   C4B31978  23.234   8.952   7.641
 2405POPC   NC331979  12.359  29.702   9.424
 2405POPC   PO431980  11.924  30.196   9.554
 2405POPC   GL131981  12.035  29.990   9.199
 2405POPC   GL231982  11.861  29.663   9.221
 2405POPC   C1A31983  12.288  29.960   8.820
 2405POPC   D2A31984  12.136  30.014   8.414
 2405POPC   C3A31985  12.426  30.014   8.055
 2405POPC   C4A31986  12.266  29.977   7.600
 2405POPC   C1B31987  11.776  29.832   8.817
 2405POPC   C2B31988  11.706  29.719   8.445
 2405POPC   C3B31989  11.847  29.751   8.063
 2405POPC   C4B31990  11.654  29.860   7.709
 2406POPC   NC331991  34.315  14.658   9.389
 2406POPC   PO431992  34.720  14.157   9.665
 2406POPC   GL131993  34.644  14.283   9.225
 2406POPC   GL231994  34.326  14.121   9.218
 2406POPC   C1A31995  34.568  14.495   8.809
 2406POPC   D2A31996  34.388  14.415   8.423
 2406POPC   C3A31997  34.557  14.519   8.025
 2406POPC   C4A31998  34.608  14.850   7.702
 2406POPC   C1B31999  34.507  14.001   8.813
 2406POPC   C2B32000  34.598  13.937   8.381
 2406POPC   C3B32001  34.360  14.035   8.018
 2406POPC   C4B32002  34.493  14.177   7.616
 2407POPC   NC332003   2.546  28.624   9.401
 2407POPC   PO432004   2.078  29.108   9.442
 2407POPC   GL132005   1.783  29.110   9.111
 2407POPC   GL232006   1.589  29.391   9.158
 2407POPC   C1A32007   1.830  29.031   8.701
 2407POPC   D2A32008   1.621  29.038   8.335
 2407POPC   C3A32009   1.906  29.066   8.008
 2407POPC   C4A32010   2.087  28.756   7.758
 2407POPC   C1B32011   1.695  29.546   8.732
 2407POPC   C2B32012   1.819  29.516   8.287
 2407POPC   C3B32013   1.740  29.538   7.826
 2407POPC   C4B32014   1.838  29.550   7.355
 2408POPC   NC332015   0.172  13.732   9.540
 2408POPC   PO432016  44.540  13.572   9.488
 2408POPC   GL132017  44.745  13.554   9.146
 2408POPC   GL232018  44.877  13.861   9.147
 2408POPC   C1A32019  44.649  13.448   8.744
 2408POPC   D2A32020  44.824  13.657   8.441
 2408POPC   C3A32021  44.730  13.571   8.113
 2408POPC   C4A32022  44.769  13.436   7.765
 2408POPC   C1B32023  44.621  13.975   8.800
 2408POPC   C2B32024  44.320  13.772   8.503
 2408POPC   C3B32025  44.267  13.775   8.060
 2408POPC   C4B32026  44.575  13.949   7.792
 2409POPC   NC332027  31.387   3.990   9.398
 2409POPC   PO432028  31.106   4.606   9.466
 2409POPC   GL132029  31.286   4.394   9.102
 2409POPC   GL232030  31.073   4.076   8.986
 2409POPC   C1A32031  31.481   4.569   8.749
 2409POPC   D2A32032  31.194   4.625   8.442
 2409POPC   C3A32033  31.304   4.721   8.067
 2409POPC   C4A32034  31.536   4.520   7.761
 2409POPC   C1B32035  31.436   4.055   8.691
 2409POPC   C2B32036  31.613   4.176   8.272
 2409POPC   C3B32037  31.803   4.090   7.846
 2409POPC   C4B32038  31.600   3.856   7.509
 2410POPC   NC332039  39.239  24.706   9.517
 2410POPC   PO432040  39.620  24.156   9.556
 2410POPC   GL132041  39.337  24.361   9.155
 2410POPC   GL232042  39.370  24.699   9.040
 2410POPC   C1A32043  39.103  24.501   8.687
 2410POPC   D2A32044  38.914  24.390   8.281
 2410POPC   C3A32045  39.121  24.494   7.879
 2410POPC   C4A32046  39.060  24.400   7.444
 2410POPC   C1B32047  39.471  24.867   8.675
 2410POPC   C2B32048  39.275  24.837   8.265
 2410POPC   C3B32049  39.522  24.830   7.906
 2410POPC   C4B32050  39.436  24.741   7.465
 2411POPC   NC332051  44.955   8.919   9.518
 2411POPC   PO432052   0.547   8.701   9.426
 2411POPC   GL132053   0.306   8.830   9.117
 2411POPC   GL232054   0.358   9.189   9.066
 2411POPC   C1A32055   0.214   8.814   8.679
 2411POPC   D2A32056   0.589   8.749   8.388
 2411POPC   C3A32057   0.460   8.742   7.969
 2411POPC   C4A32058   0.061   8.765   7.780
 2411POPC   C1B32059   0.525   9.210   8.646
 2411POPC   C2B32060   0.498   9.220   8.191
 2411POPC   C3B32061   0.518   9.297   7.752
 2411POPC   C4B32062   0.526   9.409   7.303
 2412POPC   NC332063  22.201  41.970   9.437
 2412POPC   PO432064  22.058  42.635   9.517
 2412POPC   GL132065  22.005  42.399   9.128
 2412POPC   GL232066  21.713  42.152   9.095
 2412POPC   C1A32067  22.159  42.511   8.710
 2412POPC   D2A32068  22.333  42.335   8.311
 2412POPC   C3A32069  22.375  42.647   8.005
 2412POPC   C4A32070  22.100  42.712   7.698
 2412POPC   C1B32071  21.670  42.357   8.657
 2412POPC   C2B32072  21.717  42.279   8.199
 2412POPC   C3B32073  21.907  41.983   7.900
 2412POPC   C4B32074  21.973  41.930   7.401
 2413POPC   NC332075  34.708  29.546   9.420
 2413POPC   PO432076  34.394  29.004   9.579
 2413POPC   GL132077  34.597  29.054   9.219
 2413POPC   GL232078  34.318  29.305   9.165
 2413POPC   C1A32079  34.828  28.895   8.861
 2413POPC   D2A32080  34.602  28.976   8.477
 2413POPC   C3A32081  34.654  28.791   8.110
 2413POPC   C4A32082  34.682  28.894   7.720
 2413POPC   C1B32083  34.578  29.364   8.807
 2413POPC   C2B32084  34.462  29.492   8.438
 2413POPC   C3B32085  34.544  29.304   8.083
 2413POPC   C4B32086  34.474  29.351   7.700
 2414POPC   NC332087  38.019  42.854   9.368
 2414POPC   PO432088  37.607  43.379   9.504
 2414POPC   GL132089  37.785  43.226   9.130
 2414POPC   GL232090  37.616  42.921   9.063
 2414POPC   C1A32091  38.007  43.077   8.762
 2414POPC   D2A32092  37.722  43.177   8.476
 2414POPC   C3A32093  37.847  43.198   8.062
 2414POPC   C4A32094  37.540  43.296   7.769
 2414POPC   C1B32095  37.674  42.702   8.690
 2414POPC   C2B32096  37.764  42.718   8.282
 2414POPC   C3B32097  37.625  42.780   7.843
 2414POPC   C4B32098  37.340  42.903   7.524
 2415POPC   NC332099   8.908   0.997   9.420
 2415POPC   PO432100   9.231   1.579   9.661
 2415POPC   GL132101   9.175   1.415   9.231
 2415POPC   GL232102   8.798   1.488   9.167
 2415POPC   C1A32103   9.074   1.227   8.803
 2415POPC   D2A32104   8.979   1.281   8.366
 2415POPC   C3A32105   9.209   1.031   8.071
 2415POPC   C4A32106   9.163   1.201   7.699
 2415POPC   C1B32107   8.539   1.224   8.849
 2415POPC   C2B32108   8.543   0.989   8.423
 2415POPC   C3B32109   8.652   1.116   7.953
 2415POPC   C4B32110   8.457   1.385   7.570
 2416POPC   NC332111   8.961   1.948   9.530
 2416POPC   PO432112   9.506   1.896   9.222
 2416POPC   GL132113   9.121   1.879   9.029
 2416POPC   GL232114   8.800   2.033   9.050
 2416POPC   C1A32115   9.136   1.730   8.636
 2416POPC   D2A32116   9.376   1.932   8.330
 2416POPC   C3A32117   9.046   1.959   8.076
 2416POPC   C4A32118   8.820   1.608   7.860
 2416POPC   C1B32119   8.911   2.240   8.664
 2416POPC   C2B32120   8.680   2.280   8.253
 2416POPC   C3B32121   8.618   2.096   7.836
 2416POPC   C4B32122   8.720   2.312   7.393
 2417POPC   NC332123  15.086   2.238   9.551
 2417POPC   PO432124  14.823   1.691   9.565
 2417POPC   GL132125  15.013   1.751   9.169
 2417POPC   GL232126  15.376   1.754   9.094
 2417POPC   C1A32127  14.988   1.842   8.738
 2417POPC   D2A32128  15.183   2.073   8.391
 2417POPC   C3A32129  15.002   2.082   7.986
 2417POPC   C4A32130  15.094   1.810   7.701
 2417POPC   C1B32131  15.388   2.152   8.861
 2417POPC   C2B32132  15.536   2.428   8.504
 2417POPC   C3B32133  15.391   2.437   8.071
 2417POPC   C4B32134  15.362   2.258   7.644
 2418POPC   NC332135  35.186  18.429   9.404
 2418POPC   PO432136  35.767  18.051   9.416
 2418POPC   GL132137  35.467  18.156   9.093
 2418POPC   GL232138  35.086  18.087   9.051
 2418POPC   C1A32139  35.431  18.345   8.691
 2418POPC   D2A32140  35.447  18.194   8.313
 2418POPC   C3A32141  35.382  18.433   7.958
 2418POPC   C4A32142  35.055  18.661   7.760
 2418POPC   C1B32143  34.958  18.133   8.621
 2418POPC   C2B32144  34.927  18.329   8.220
 2418POPC   C3B32145  35.006  18.133   7.834
 2418POPC   C4B32146  35.013  18.086   7.354
 2419POPC   NC332147  13.297   3.007   9.291
 2419POPC   PO432148  12.759   2.776   9.513
 2419POPC   GL132149  12.925   2.726   9.110
 2419POPC   GL232150  13.091   2.437   9.030
 2419POPC   C1A32151  12.991   2.836   8.675
 2419POPC   D2A32152  12.835   3.131   8.377
 2419POPC   C3A32153  12.760   2.957   7.969
 2419POPC   C4A32154  12.946   3.153   7.603
 2419POPC   C1B32155  12.631   2.444   8.825
 2419POPC   C2B32156  12.591   2.563   8.375
 2419POPC   C3B32157  12.874   2.475   8.022
 2419POPC   C4B32158  12.745   2.550   7.603
 2420POPC   NC332159  32.700  34.198   9.572
 2420POPC   PO432160  33.380  34.250   9.710
 2420POPC   GL132161  33.073  34.437   9.305
 2420POPC   GL232162  32.668  34.534   9.186
 2420POPC   C1A32163  33.018  34.471   8.831
 2420POPC   D2A32164  32.997  34.659   8.447
 2420POPC   C3A32165  33.180  34.400   8.157
 2420POPC   C4A32166  33.213  34.118   7.794
 2420POPC   C1B32167  32.654  34.823   8.839
 2420POPC   C2B32168  32.528  34.820   8.375
 2420POPC   C3B32169  32.786  34.888   8.037
 2420POPC   C4B32170  32.812  34.472   7.823
 2421POPC   NC332171  22.287  35.895   9.487
 2421POPC   PO432172  22.240  36.520   9.822
 2421POPC   GL132173  22.289  36.389   9.302
 2421POPC   GL232174  22.444  36.081   9.054
 2421POPC   C1A32175  22.215  36.449   8.814
 2421POPC   D2A32176  22.102  36.041   8.590
 2421POPC   C3A32177  21.891  36.055   8.197
 2421POPC   C4A32178  22.112  36.173   7.862
 2421POPC   C1B32179  22.568  35.807   8.703
 2421POPC   C2B32180  22.500  35.796   8.243
 2421POPC   C3B32181  22.549  35.914   7.828
 2421POPC   C4B32182  22.434  35.681   7.496
 2422POPC   NC332183  29.543   4.733   9.515
 2422POPC   PO432184  30.148   4.421   9.626
 2422POPC   GL132185  29.898   4.451   9.229
 2422POPC   GL232186  29.743   4.223   9.121
 2422POPC   C1A32187  30.065   4.379   8.756
 2422POPC   D2A32188  29.900   4.483   8.350
 2422POPC   C3A32189  30.054   4.354   7.980
 2422POPC   C4A32190  29.909   4.438   7.604
 2422POPC   C1B32191  29.702   4.036   8.747
 2422POPC   C2B32192  29.532   4.085   8.369
 2422POPC   C3B32193  29.648   4.058   7.974
 2422POPC   C4B32194  29.909   3.937   7.690
 2423POPC   NC332195   5.729  11.467   9.619
 2423POPC   PO432196   6.179  11.641   9.209
 2423POPC   GL132197   6.034  11.209   9.166
 2423POPC   GL232198   5.637  11.180   9.218
 2423POPC   C1A32199   6.070  11.088   8.714
 2423POPC   D2A32200   5.780  11.235   8.369
 2423POPC   C3A32201   5.837  11.266   7.935
 2423POPC   C4A32202   5.506  11.117   7.676
 2423POPC   C1B32203   5.677  11.403   8.842
 2423POPC   C2B32204   5.908  11.688   8.599
 2423POPC   C3B32205   6.028  11.704   8.191
 2423POPC   C4B32206   6.048  11.693   7.766
 2424POPC   NC332207  35.740   6.768   9.335
 2424POPC   PO432208  36.286   6.491   9.621
 2424POPC   GL132209  36.127   6.404   9.120
 2424POPC   GL232210  35.799   6.444   8.945
 2424POPC   C1A32211  36.235   6.500   8.657
 2424POPC   D2A32212  36.025   6.607   8.238
 2424POPC   C3A32213  36.263   6.763   7.882
 2424POPC   C4A32214  36.414   6.411   7.644
 2424POPC   C1B32215  35.812   6.832   8.671
 2424POPC   C2B32216  35.918   7.100   8.306
 2424POPC   C3B32217  35.748   6.973   7.906
 2424POPC   C4B32218  35.660   7.061   7.468
 2425POPC   NC332219  34.236  38.009   9.552
 2425POPC   PO432220  33.534  37.877   9.621
 2425POPC   GL132221  33.681  37.893   9.195
 2425POPC   GL232222  33.896  38.159   9.157
 2425POPC   C1A32223  33.794  37.659   8.819
 2425POPC   D2A32224  34.098  37.548   8.500
 2425POPC   C3A32225  33.876  37.439   8.135
 2425POPC   C4A32226  34.022  37.318   7.733
 2425POPC   C1B32227  33.656  38.164   8.744
 2425POPC   C2B32228  33.562  37.886   8.378
 2425POPC   C3B32229  33.696  37.950   7.954
 2425POPC   C4B32230  33.577  38.001   7.517
 2426POPC   NC332231  28.318  14.666   9.496
 2426POPC   PO432232  28.388  14.047   9.227
 2426POPC   GL132233  28.242  14.441   9.037
 2426POPC   GL232234  28.441  14.766   9.029
 2426POPC   C1A32235  28.371  14.454   8.603
 2426POPC   D2A32236  28.749  14.422   8.418
 2426POPC   C3A32237  28.628  14.178   8.058
 2426POPC   C4A32238  28.360  14.247   7.692
 2426POPC   C1B32239  28.121  14.856   8.729
 2426POPC   C2B32240  28.217  14.892   8.322
 2426POPC   C3B32241  28.398  14.668   8.012
 2426POPC   C4B32242  28.351  14.737   7.569
 2427POPC   NC332243  32.081  29.835   9.471
 2427POPC   PO432244  31.864  30.442   9.314
 2427POPC   GL132245  32.117  30.165   9.061
 2427POPC   GL232246  32.436  29.996   9.023
 2427POPC   C1A32247  32.034  29.792   8.784
 2427POPC   D2A32248  32.203  29.843   8.401
 2427POPC   C3A32249  32.355  29.630   8.021
 2427POPC   C4A32250  32.475  29.880   7.663
 2427POPC   C1B32251  32.442  30.257   8.662
 2427POPC   C2B32252  32.259  30.374   8.317
 2427POPC   C3B32253  32.180  30.160   7.983
 2427POPC   C4B32254  32.136  30.344   7.657
 2428POPC   NC332255  11.169  31.221   9.458
 2428POPC   PO432256  11.689  31.655   9.698
 2428POPC   GL132257  11.426  31.702   9.224
 2428POPC   GL232258  11.241  31.394   8.997
 2428POPC   C1A32259  11.527  31.699   8.757
 2428POPC   D2A32260  11.355  31.461   8.404
 2428POPC   C3A32261  11.427  31.636   8.001
 2428POPC   C4A32262  11.550  31.550   7.587
 2428POPC   C1B32263  11.005  31.681   8.758
 2428POPC   C2B32264  10.823  31.581   8.357
 2428POPC   C3B32265  10.952  31.425   7.984
 2428POPC   C4B32266  11.005  31.654   7.648
 2429POPC   NC332267  41.583  19.530   9.507
 2429POPC   PO432268  41.613  20.176   9.410
 2429POPC   GL132269  41.605  20.016   9.071
 2429POPC   GL232270  41.395  20.250   8.950
 2429POPC   C1A32271  41.391  19.749   8.819
 2429POPC   D2A32272  41.565  19.551   8.510
 2429POPC   C3A32273  41.459  19.624   8.073
 2429POPC   C4A32274  41.758  19.638   7.725
 2429POPC   C1B32275  41.600  20.233   8.598
 2429POPC   C2B32276  41.525  20.099   8.215
 2429POPC   C3B32277  41.344  20.121   7.817
 2429POPC   C4B32278  41.351  20.052   7.369
 2430POPC   NC332279  31.504   9.522   9.579
 2430POPC   PO432280  30.958   9.912   9.508
 2430POPC   GL132281  31.353   9.907   9.184
 2430POPC   GL232282  31.554   9.593   9.100
 2430POPC   C1A32283  31.522   9.891   8.703
 2430POPC   D2A32284  31.380   9.603   8.386
 2430POPC   C3A32285  31.540   9.610   7.948
 2430POPC   C4A32286  31.491  10.008   7.744
 2430POPC   C1B32287  31.793   9.453   8.764
 2430POPC   C2B32288  31.884   9.592   8.339
 2430POPC   C3B32289  32.039   9.472   7.964
 2430POPC   C4B32290  31.874   9.294   7.614
 2431POPC   NC332291  26.953  38.580   9.464
 2431POPC   PO432292  26.585  37.959   9.478
 2431POPC   GL132293  26.728  38.191   9.132
 2431POPC   GL232294  26.557  38.524   9.131
 2431POPC   C1A32295  26.632  38.275   8.707
 2431POPC   D2A32296  26.543  38.572   8.418
 2431POPC   C3A32297  26.881  38.559   8.152
 2431POPC   C4A32298  27.111  38.437   7.817
 2431POPC   C1B32299  26.872  38.721   8.816
 2431POPC   C2B32300  26.902  38.977   8.457
 2431POPC   C3B32301  26.585  38.992   8.133
 2431POPC   C4B32302  26.522  38.657   7.801
 2432POPC   NC332303  14.416  32.521   9.432
 2432POPC   PO432304  14.652  33.155   9.566
 2432POPC   GL132305  14.372  32.999   9.209
 2432POPC   GL232306  14.057  33.199   9.173
 2432POPC   C1A32307  14.245  32.801   8.800
 2432POPC   D2A32308  14.171  32.956   8.386
 2432POPC   C3A32309  14.191  32.754   7.998
 2432POPC   C4A32310  14.429  32.874   7.650
 2432POPC   C1B32311  14.234  33.330   8.750
 2432POPC   C2B32312  14.155  33.477   8.323
 2432POPC   C3B32313  14.297  33.340   7.909
 2432POPC   C4B32314  14.060  33.207   7.539
 2433POPC   NC332315  41.745   5.596   9.449
 2433POPC   PO432316  41.668   4.861   9.451
 2433POPC   GL132317  41.594   5.182   9.161
 2433POPC   GL232318  41.925   5.309   9.059
 2433POPC   C1A32319  41.253   5.196   8.856
 2433POPC   D2A32320  41.123   5.152   8.411
 2433POPC   C3A32321  41.382   4.940   8.110
 2433POPC   C4A32322  41.142   4.816   7.767
 2433POPC   C1B32323  41.648   5.473   8.727
 2433POPC   C2B32324  41.578   5.396   8.291
 2433POPC   C3B32325  41.622   5.327   7.848
 2433POPC   C4B32326  42.011   5.346   7.661
 2434POPC   NC332327   9.196  29.380   9.464
 2434POPC   PO432328   8.498  29.176   9.429
 2434POPC   GL132329   8.849  29.155   9.153
 2434POPC   GL232330   9.138  28.951   9.175
 2434POPC   C1A32331   9.078  29.321   8.801
 2434POPC   D2A32332   9.227  29.159   8.421
 2434POPC   C3A32333   9.075  29.295   8.058
 2434POPC   C4A32334   8.937  29.154   7.651
 2434POPC   C1B32335   9.053  28.799   8.776
 2434POPC   C2B32336   9.195  28.661   8.374
 2434POPC   C3B32337   9.122  28.777   7.957
 2434POPC   C4B32338   9.394  28.913   7.625
 2435POPC   NC332339  33.961  28.918   9.641
 2435POPC   PO432340  33.453  28.672   9.633
 2435POPC   GL132341  33.731  28.829   9.199
 2435POPC   GL232342  34.140  28.768   9.187
 2435POPC   C1A32343  33.704  29.086   8.774
 2435POPC   D2A32344  33.700  29.446   8.429
 2435POPC   C3A32345  33.805  29.360   7.989
 2435POPC   C4A32346  33.651  28.971   7.757
 2435POPC   C1B32347  34.199  29.002   8.787
 2435POPC   C2B32348  34.108  29.108   8.349
 2435POPC   C3B32349  34.161  28.999   7.894
 2435POPC   C4B32350  34.073  29.112   7.446
 2436POPC   NC332351   1.292  42.798   9.289
 2436POPC   PO432352   0.994  43.307   9.650
 2436POPC   GL132353   1.110  43.278   9.183
 2436POPC   GL232354   0.812  43.163   9.011
 2436POPC   C1A32355   1.224  43.305   8.723
 2436POPC   D2A32356   1.437  43.084   8.349
 2436POPC   C3A32357   1.271  43.274   7.959
 2436POPC   C4A32358   1.172  43.326   7.523
 2436POPC   C1B32359   0.927  42.875   8.634
 2436POPC   C2B32360   0.986  42.889   8.182
 2436POPC   C3B32361   0.810  43.092   7.798
 2436POPC   C4B32362   0.904  42.940   7.356
 2437POPC   NC332363  41.632  43.424   9.777
 2437POPC   PO432364  41.449  44.098   9.537
 2437POPC   GL132365  41.670  43.940   9.173
 2437POPC   GL232366  41.336  43.897   9.072
 2437POPC   C1A32367  41.732  43.758   8.719
 2437POPC   D2A32368  41.936  43.442   8.448
 2437POPC   C3A32369  41.807  43.455   8.045
 2437POPC   C4A32370  41.866  43.420   7.577
 2437POPC   C1B32371  41.494  44.208   8.772
 2437POPC   C2B32372  41.366  44.142   8.354
 2437POPC   C3B32373  41.535  44.193   7.965
 2437POPC   C4B32374  41.712  43.867   7.774
 2438POPC   NC332375   0.287  34.139   9.679
 2438POPC   PO432376   0.756  34.588   9.472
 2438POPC   GL132377   0.537  34.453   9.100
 2438POPC   GL232378   0.606  34.105   9.082
 2438POPC   C1A32379   0.481  34.495   8.638
 2438POPC   D2A32380   0.309  34.398   8.207
 2438POPC   C3A32381   0.401  34.616   7.833
 2438POPC   C4A32382   0.818  34.706   7.629
 2438POPC   C1B32383   0.837  34.089   8.718
 2438POPC   C2B32384   0.811  34.241   8.292
 2438POPC   C3B32385   0.761  34.241   7.863
 2438POPC   C4B32386   0.816  34.187   7.410
 2439POPC   NC332387  35.417  13.440   9.599
 2439POPC   PO432388  35.447  14.131   9.702
 2439POPC   GL132389  35.472  13.846   9.245
 2439POPC   GL232390  35.193  13.630   9.194
 2439POPC   C1A32391  35.446  13.748   8.784
 2439POPC   D2A32392  35.137  13.869   8.451
 2439POPC   C3A32393  35.387  13.953   8.113
 2439POPC   C4A32394  35.446  13.707   7.761
 2439POPC   C1B32395  35.189  13.315   8.871
 2439POPC   C2B32396  35.272  13.373   8.446
 2439POPC   C3B32397  35.415  13.301   8.062
 2439POPC   C4B32398  35.180  13.284   7.683
 2440POPC   NC332399  36.392  36.786   9.462
 2440POPC   PO432400  35.764  36.960   9.503
 2440POPC   GL132401  35.953  36.778   9.102
 2440POPC   GL232402  36.280  36.577   9.008
 2440POPC   C1A32403  36.006  36.805   8.642
 2440POPC   D2A32404  36.005  36.599   8.262
 2440POPC   C3A32405  35.936  36.840   7.928
 2440POPC   C4A32406  36.039  37.236   7.813
 2440POPC   C1B32407  36.486  36.940   8.796
 2440POPC   C2B32408  36.357  37.151   8.416
 2440POPC   C3B32409  36.465  37.025   8.006
 2440POPC   C4B32410  36.445  36.746   7.694
 2441POPC   NC332411   8.108   2.397   9.648
 2441POPC   PO432412   8.487   1.860   9.432
 2441POPC   GL132413   8.349   1.759   9.073
 2441POPC   GL232414   8.039   1.889   9.089
 2441POPC   C1A32415   8.234   1.650   8.670
 2441POPC   D2A32416   8.360   1.859   8.295
 2441POPC   C3A32417   8.217   1.639   7.945
 2441POPC   C4A32418   8.092   1.783   7.544
 2441POPC   C1B32419   8.114   2.146   8.693
 2441POPC   C2B32420   8.122   2.334   8.320
 2441POPC   C3B32421   8.048   2.129   7.969
 2441POPC   C4B32422   7.760   2.176   7.651
 2442POPC   NC332423  43.891   1.415   9.594
 2442POPC   PO432424  44.232   0.954   9.139
 2442POPC   GL132425  43.836   1.225   9.093
 2442POPC   GL232426  43.811   1.598   9.119
 2442POPC   C1A32427  43.831   1.348   8.672
 2442POPC   D2A32428  44.204   1.214   8.444
 2442POPC   C3A32429  44.068   0.959   8.117
 2442POPC   C4A32430  43.999   1.117   7.733
 2442POPC   C1B32431  43.653   1.834   8.771
 2442POPC   C2B32432  43.673   1.703   8.328
 2442POPC   C3B32433  43.586   1.353   8.030
 2442POPC   C4B32434  43.591   1.446   7.571
 2443POPC   NC332435  24.990  21.583   9.567
 2443POPC   PO432436  25.670  21.437   9.543
 2443POPC   GL132437  25.354  21.528   9.226
 2443POPC   GL232438  25.101  21.252   9.200
 2443POPC   C1A32439  25.174  21.657   8.831
 2443POPC   D2A32440  24.942  21.574   8.455
 2443POPC   C3A32441  25.066  21.758   8.068
 2443POPC   C4A32442  24.991  21.561   7.671
 2443POPC   C1B32443  25.415  21.193   8.867
 2443POPC   C2B32444  25.282  21.201   8.466
 2443POPC   C3B32445  25.163  21.261   8.075
 2443POPC   C4B32446  25.435  21.345   7.726
 2444POPC   NC332447  41.311   0.523   9.527
 2444POPC   PO432448  41.878   0.733   9.673
 2444POPC   GL132449  41.667   0.483   9.188
 2444POPC   GL232450  41.354   0.261   9.109
 2444POPC   C1A32451  41.718   0.375   8.734
 2444POPC   D2A32452  42.041   0.405   8.388
 2444POPC   C3A32453  41.856   0.638   8.031
 2444POPC   C4A32454  41.563   0.586   7.669
 2444POPC   C1B32455  41.305   0.054   8.734
 2444POPC   C2B32456  41.323   0.216   8.310
 2444POPC   C3B32457  41.451   0.084   7.894
 2444POPC   C4B32458  41.526   0.115   7.443
 2445POPC   NC332459  37.371   9.014   9.551
 2445POPC   PO432460  36.788   8.911   9.449
 2445POPC   GL132461  36.976   8.967   9.123
 2445POPC   GL232462  37.305   8.876   9.057
 2445POPC   C1A32463  36.877   8.859   8.753
 2445POPC   D2A32464  37.079   8.937   8.421
 2445POPC   C3A32465  36.898   8.831   8.020
 2445POPC   C4A32466  36.704   8.797   7.646
 2445POPC   C1B32467  37.225   9.295   8.828
 2445POPC   C2B32468  37.264   9.422   8.388
 2445POPC   C3B32469  37.323   9.114   8.028
 2445POPC   C4B32470  37.223   8.937   7.593
 2446POPC   NC332471  21.966  39.722   9.588
 2446POPC   PO432472  22.375  40.275   9.575
 2446POPC   GL132473  22.131  40.275   9.201
 2446POPC   GL232474  21.890  40.024   9.153
 2446POPC   C1A32475  22.044  40.392   8.790
 2446POPC   D2A32476  21.875  40.212   8.398
 2446POPC   C3A32477  22.093  40.332   8.030
 2446POPC   C4A32478  22.159  40.160   7.630
 2446POPC   C1B32479  22.253  39.944   8.819
 2446POPC   C2B32480  22.254  39.834   8.372
 2446POPC   C3B32481  22.004  39.803   7.993
 2446POPC   C4B32482  21.952  39.698   7.565
 2447POPC   NC332483  26.311  20.131   9.405
 2447POPC   PO432484  25.925  19.737   9.716
 2447POPC   GL132485  25.936  19.793   9.275
 2447POPC   GL232486  26.289  19.670   9.189
 2447POPC   C1A32487  25.927  19.747   8.818
 2447POPC   D2A32488  25.897  19.502   8.424
 2447POPC   C3A32489  25.974  19.763   8.076
 2447POPC   C4A32490  25.805  19.924   7.691
 2447POPC   C1B32491  26.462  19.777   8.799
 2447POPC   C2B32492  26.417  19.645   8.390
 2447POPC   C3B32493  26.482  19.854   8.018
 2447POPC   C4B32494  26.311  19.694   7.661
 2448POPC   NC332495  44.724  24.871   9.493
 2448POPC   PO432496   0.009  25.460   9.496
 2448POPC   GL132497  44.681  25.309   9.167
 2448POPC   GL232498  44.430  24.996   9.102
 2448POPC   C1A32499  44.431  25.394   8.797
 2448POPC   D2A32500  44.334  25.533   8.402
 2448POPC   C3A32501  44.556  25.337   8.063
 2448POPC   C4A32502  44.642  25.507   7.664
 2448POPC   C1B32503  44.806  24.945   8.804
 2448POPC   C2B32504  44.968  25.055   8.377
 2448POPC   C3B32505  44.821  24.903   7.969
 2448POPC   C4B32506  44.783  25.019   7.549
 2449POPC   NC332507  44.320  10.803   9.494
 2449POPC   PO432508  43.998  11.398   9.494
 2449POPC   GL132509  43.997  11.325   9.099
 2449POPC   GL232510  44.005  10.980   9.114
 2449POPC   C1A32511  43.804  11.443   8.719
 2449POPC   D2A32512  43.750  11.337   8.286
 2449POPC   C3A32513  44.087  11.591   8.076
 2449POPC   C4A32514  44.120  11.733   7.648
 2449POPC   C1B32515  43.786  10.929   8.712
 2449POPC   C2B32516  43.542  10.862   8.324
 2449POPC   C3B32517  43.785  10.920   7.947
 2449POPC   C4B32518  43.796  11.324   7.762
 2450POPC   NC332519   6.123  37.541   9.477
 2450POPC   PO432520   6.621  37.973   9.414
 2450POPC   GL132521   6.526  37.822   9.031
 2450POPC   GL232522   6.478  37.502   9.129
 2450POPC   C1A32523   6.597  37.848   8.580
 2450POPC   D2A32524   6.909  37.767   8.256
 2450POPC   C3A32525   6.752  37.824   7.836
 2450POPC   C4A32526   6.733  37.955   7.416
 2450POPC   C1B32527   6.714  37.387   8.773
 2450POPC   C2B32528   6.603  37.352   8.341
 2450POPC   C3B32529   6.849  37.333   7.957
 2450POPC   C4B32530   6.857  37.422   7.514
 2451POPC   NC332531  23.176  20.291   9.452
 2451POPC   PO432532  22.944  20.990   9.319
 2451POPC   GL132533  22.945  20.629   9.093
 2451POPC   GL232534  22.804  20.308   9.093
 2451POPC   C1A32535  22.903  20.675   8.683
 2451POPC   D2A32536  23.216  20.745   8.393
 2451POPC   C3A32537  23.025  20.637   8.027
 2451POPC   C4A32538  23.152  20.454   7.658
 2451POPC   C1B32539  22.636  20.227   8.713
 2451POPC   C2B32540  22.845  20.291   8.343
 2451POPC   C3B32541  22.747  20.200   7.944
 2451POPC   C4B32542  22.812  20.103   7.537
 2452POPC   NC332543  11.603   0.167   9.658
 2452POPC   PO432544  11.112   0.665   9.654
 2452POPC   GL132545  11.294   0.435   9.299
 2452POPC   GL232546  11.070   0.207   9.123
 2452POPC   C1A32547  11.395   0.433   8.831
 2452POPC   D2A32548  11.152   0.401   8.440
 2452POPC   C3A32549  11.278   0.666   8.099
 2452POPC   C4A32550  11.371   0.592   7.670
 2452POPC   C1B32551  11.166  44.959   8.718
 2452POPC   C2B32552  11.128  44.922   8.249
 2452POPC   C3B32553  11.151   0.184   7.910
 2452POPC   C4B32554  10.901   0.081   7.569
 2453POPC   NC332555  36.335  35.151   9.500
 2453POPC   PO432556  35.839  35.541   9.386
 2453POPC   GL132557  36.101  35.353   9.055
 2453POPC   GL232558  36.470  35.238   9.032
 2453POPC   C1A32559  36.282  35.596   8.712
 2453POPC   D2A32560  36.456  35.462   8.332
 2453POPC   C3A32561  36.220  35.639   8.026
 2453POPC   C4A32562  36.286  35.602   7.621
 2453POPC   C1B32563  36.331  35.064   8.667
 2453POPC   C2B32564  36.419  34.944   8.266
 2453POPC   C3B32565  36.246  35.123   7.902
 2453POPC   C4B32566  36.199  35.141   7.450
 2454POPC   NC332567  40.877   5.608   9.495
 2454POPC   PO432568  40.715   6.263   9.734
 2454POPC   GL132569  40.694   6.087   9.256
 2454POPC   GL232570  40.481   6.285   8.986
 2454POPC   C1A32571  40.662   5.830   8.852
 2454POPC   D2A32572  40.596   5.954   8.417
 2454POPC   C3A32573  40.713   5.770   8.023
 2454POPC   C4A32574  40.849   5.680   7.601
 2454POPC   C1B32575  40.847   6.314   8.761
 2454POPC   C2B32576  41.089   6.157   8.434
 2454POPC   C3B32577  41.065   6.150   7.980
 2454POPC   C4B32578  40.780   6.198   7.608
 2455POPC   NC332579  26.689   7.689   9.548
 2455POPC   PO432580  27.239   7.305   9.682
 2455POPC   GL132581  26.981   7.385   9.268
 2455POPC   GL232582  27.027   7.667   9.139
 2455POPC   C1A32583  26.698   7.254   8.890
 2455POPC   D2A32584  26.433   7.123   8.535
 2455POPC   C3A32585  26.562   7.204   8.097
 2455POPC   C4A32586  26.720   7.236   7.655
 2455POPC   C1B32587  26.843   7.723   8.751
 2455POPC   C2B32588  26.637   7.692   8.357
 2455POPC   C3B32589  26.778   7.651   7.939
 2455POPC   C4B32590  26.973   7.684   7.526
 2456POPC   NC332591  17.010  30.823   9.559
 2456POPC   PO432592  16.357  30.520   9.510
 2456POPC   GL132593  16.661  30.558   9.157
 2456POPC   GL232594  16.962  30.357   9.159
 2456POPC   C1A32595  16.614  30.731   8.728
 2456POPC   D2A32596  16.754  30.686   8.306
 2456POPC   C3A32597  16.527  30.670   7.920
 2456POPC   C4A32598  16.586  31.001   7.641
 2456POPC   C1B32599  17.076  30.500   8.716
 2456POPC   C2B32600  17.240  30.598   8.288
 2456POPC   C3B32601  17.068  30.667   7.864
 2456POPC   C4B32602  17.005  30.367   7.562
 2457POPC   NC332603   4.031  28.980   9.453
 2457POPC   PO432604   4.613  29.339   9.423
 2457POPC   GL132605   4.334  29.232   9.114
 2457POPC   GL232606   4.442  28.901   9.059
 2457POPC   C1A32607   4.156  29.162   8.710
 2457POPC   D2A32608   4.301  28.964   8.322
 2457POPC   C3A32609   4.584  29.252   8.113
 2457POPC   C4A32610   4.512  29.505   7.758
 2457POPC   C1B32611   4.686  29.088   8.709
 2457POPC   C2B32612   4.830  28.849   8.347
 2457POPC   C3B32613   4.642  28.753   7.951
 2457POPC   C4B32614   4.332  29.017   7.708
 2458POPC   NC332615  34.994   6.731   9.395
 2458POPC   PO432616  34.687   6.179   9.558
 2458POPC   GL132617  34.660   6.429   9.140
 2458POPC   GL232618  34.627   6.788   9.040
 2458POPC   C1A32619  34.774   6.426   8.716
 2458POPC   D2A32620  34.643   6.656   8.395
 2458POPC   C3A32621  34.707   6.536   7.997
 2458POPC   C4A32622  34.410   6.517   7.655
 2458POPC   C1B32623  34.483   7.077   8.722
 2458POPC   C2B32624  34.276   7.008   8.340
 2458POPC   C3B32625  34.404   6.955   7.935
 2458POPC   C4B32626  34.492   6.966   7.448
 2459POPC   NC332627  34.737  36.359   9.473
 2459POPC   PO432628  34.199  36.561   9.291
 2459POPC   GL132629  34.475  36.370   8.981
 2459POPC   GL232630  34.840  36.276   8.991
 2459POPC   C1A32631  34.591  36.371   8.549
 2459POPC   D2A32632  34.623  36.102   8.228
 2459POPC   C3A32633  34.586  36.214   7.804
 2459POPC   C4A32634  34.950  36.212   7.512
 2459POPC   C1B32635  34.728  35.898   8.735
 2459POPC   C2B32636  34.892  35.663   8.366
 2459POPC   C3B32637  35.014  35.868   7.962
 2459POPC   C4B32638  34.956  35.697   7.582
 2460POPC   NC332639  30.933   8.800   9.637
 2460POPC   PO432640  30.469   9.199   9.465
 2460POPC   GL132641  30.865   9.155   9.211
 2460POPC   GL232642  31.054   9.475   9.236
 2460POPC   C1A32643  30.820   8.988   8.764
 2460POPC   D2A32644  30.595   9.119   8.349
 2460POPC   C3A32645  30.623   8.913   7.953
 2460POPC   C4A32646  30.384   8.553   7.888
 2460POPC   C1B32647  31.211   9.339   8.813
 2460POPC   C2B32648  31.100   9.186   8.390
 2460POPC   C3B32649  30.996   9.297   7.979
 2460POPC   C4B32650  30.808   9.272   7.566
 2461POPC   NC332651   7.780   0.698   9.363
 2461POPC   PO432652   7.085   0.687   9.414
 2461POPC   GL132653   7.283   0.708   9.068
 2461POPC   GL232654   7.387   0.360   9.151
 2461POPC   C1A32655   7.152   0.615   8.645
 2461POPC   D2A32656   7.102   0.348   8.274
 2461POPC   C3A32657   6.952   0.565   7.951
 2461POPC   C4A32658   7.215   0.864   7.764
 2461POPC   C1B32659   7.616   0.462   8.783
 2461POPC   C2B32660   7.601   0.337   8.379
 2461POPC   C3B32661   7.612   0.414   7.956
 2461POPC   C4B32662   7.899   0.173   7.682
 2462POPC   NC332663   7.989   8.059   9.479
 2462POPC   PO432664   8.519   8.484   9.467
 2462POPC   GL132665   8.333   8.263   9.138
 2462POPC   GL232666   7.985   8.365   9.082
 2462POPC   C1A32667   8.426   8.129   8.735
 2462POPC   D2A32668   8.285   7.925   8.380
 2462POPC   C3A32669   8.384   8.135   7.988
 2462POPC   C4A32670   8.263   8.566   7.829
 2462POPC   C1B32671   7.956   7.978   8.821
 2462POPC   C2B32672   7.760   7.883   8.435
 2462POPC   C3B32673   7.942   7.827   8.014
 2462POPC   C4B32674   7.951   8.144   7.704
 2463POPC   NC332675   0.563   0.788   9.569
 2463POPC   PO432676   0.818   1.423   9.543
 2463POPC   GL132677   0.481   1.315   9.190
 2463POPC   GL232678   0.349   1.005   9.145
 2463POPC   C1A32679   0.155   1.358   8.813
 2463POPC   D2A32680   0.153   1.155   8.411
 2463POPC   C3A32681   0.182   1.456   8.091
 2463POPC   C4A32682   0.335   1.362   7.697
 2463POPC   C1B32683   0.558   1.070   8.742
 2463POPC   C2B32684   0.710   1.288   8.417
 2463POPC   C3B32685   0.600   1.136   8.054
 2463POPC   C4B32686   0.727   0.913   7.718
 2464POPC   NC332687  18.682   2.187   9.281
 2464POPC   PO432688  19.345   2.129   9.417
 2464POPC   GL132689  19.186   1.984   9.084
 2464POPC   GL232690  18.946   1.736   9.204
 2464POPC   C1A32691  19.177   2.233   8.715
 2464POPC   D2A32692  18.896   2.227   8.381
 2464POPC   C3A32693  19.038   1.870   8.119
 2464POPC   C4A32694  19.331   2.008   7.811
 2464POPC   C1B32695  18.954   1.699   8.741
 2464POPC   C2B32696  18.631   1.763   8.445
 2464POPC   C3B32697  18.523   2.005   8.097
 2464POPC   C4B32698  18.688   1.863   7.723
 2465POPC   NC332699  14.058  12.964   9.262
 2465POPC   PO432700  13.372  13.036   9.542
 2465POPC   GL132701  13.562  12.977   9.130
 2465POPC   GL232702  13.657  12.641   9.204
 2465POPC   C1A32703  13.733  12.883   8.688
 2465POPC   D2A32704  13.983  12.984   8.312
 2465POPC   C3A32705  13.798  12.843   7.950
 2465POPC   C4A32706  13.437  12.951   7.705
 2465POPC   C1B32707  13.358  12.572   8.865
 2465POPC   C2B32708  13.394  12.555   8.453
 2465POPC   C3B32709  13.419  12.496   8.033
 2465POPC   C4B32710  13.468  12.425   7.612
 2466POPC   NC332711  23.869  17.565   9.507
 2466POPC   PO432712  23.283  17.426   9.273
 2466POPC   GL132713  23.405  17.673   8.922
 2466POPC   GL232714  23.701  17.806   9.087
 2466POPC   C1A32715  23.512  17.524   8.531
 2466POPC   D2A32716  23.739  17.195   8.354
 2466POPC   C3A32717  23.761  17.296   7.944
 2466POPC   C4A32718  23.402  17.543   7.814
 2466POPC   C1B32719  23.979  17.657   8.788
 2466POPC   C2B32720  23.995  17.635   8.364
 2466POPC   C3B32721  23.775  17.800   8.063
 2466POPC   C4B32722  23.945  17.728   7.726
 2467POPC   NC332723  39.884  42.648   9.507
 2467POPC   PO432724  40.429  42.151   9.551
 2467POPC   GL132725  40.178  42.206   9.165
 2467POPC   GL232726  39.819  42.258   9.174
 2467POPC   C1A32727  40.041  42.356   8.736
 2467POPC   D2A32728  40.190  42.440   8.349
 2467POPC   C3A32729  40.006  42.382   7.963
 2467POPC   C4A32730  40.280  42.420   7.559
 2467POPC   C1B32731  39.645  42.608   8.898
 2467POPC   C2B32732  39.648  42.569   8.446
 2467POPC   C3B32733  39.560  42.637   7.995
 2467POPC   C4B32734  39.764  42.578   7.558
 2468POPC   NC332735  39.599  22.626   9.442
 2468POPC   PO432736  40.298  22.656   9.381
 2468POPC   GL132737  39.923  22.848   9.103
 2468POPC   GL232738  39.553  23.019   9.134
 2468POPC   C1A32739  39.868  23.125   8.720
 2468POPC   D2A32740  40.130  23.176   8.345
 2468POPC   C3A32741  40.175  22.818   8.017
 2468POPC   C4A32742  40.305  22.751   7.552
 2468POPC   C1B32743  39.378  23.042   8.749
 2468POPC   C2B32744  39.473  23.074   8.336
 2468POPC   C3B32745  39.760  23.139   8.006
 2468POPC   C4B32746  39.889  23.039   7.577
 2469POPC   NC332747   5.007  29.612   9.466
 2469POPC   PO432748   4.873  30.300   9.327
 2469POPC   GL132749   5.030  30.213   8.999
 2469POPC   GL232750   5.124  29.919   9.090
 2469POPC   C1A32751   4.908  30.177   8.617
 2469POPC   D2A32752   4.930  30.425   8.281
 2469POPC   C3A32753   5.045  30.172   7.944
 2469POPC   C4A32754   4.967  30.205   7.539
 2469POPC   C1B32755   5.100  29.690   8.735
 2469POPC   C2B32756   5.074  29.808   8.308
 2469POPC   C3B32757   5.025  29.618   7.907
 2469POPC   C4B32758   5.287  29.376   7.572
 2470POPC   NC332759   6.645  28.698   9.507
 2470POPC   PO432760   7.046  28.150   9.474
 2470POPC   GL132761   6.779  28.312   9.141
 2470POPC   GL232762   6.413  28.370   9.184
 2470POPC   C1A32763   6.656  28.111   8.741
 2470POPC   D2A32764   6.911  28.143   8.362
 2470POPC   C3A32765   6.914  27.902   8.051
 2470POPC   C4A32766   6.824  28.016   7.642
 2470POPC   C1B32767   6.514  28.641   8.822
 2470POPC   C2B32768   6.554  28.495   8.406
 2470POPC   C3B32769   6.518  28.227   8.037
 2470POPC   C4B32770   6.387  28.303   7.645
 2471POPC   NC332771   7.502  27.071   9.499
 2471POPC   PO432772   7.646  26.354   9.489
 2471POPC   GL132773   7.621  26.683   9.132
 2471POPC   GL232774   7.306  26.869   9.097
 2471POPC   C1A32775   7.608  26.949   8.713
 2471POPC   D2A32776   7.276  27.025   8.391
 2471POPC   C3A32777   7.409  27.062   7.940
 2471POPC   C4A32778   7.741  26.743   7.807
 2471POPC   C1B32779   7.109  26.553   8.895
 2471POPC   C2B32780   7.012  26.534   8.473
 2471POPC   C3B32781   7.233  26.598   8.092
 2471POPC   C4B32782   7.225  26.357   7.705
 2472POPC   NC332783  11.489  21.131   9.421
 2472POPC   PO432784  11.174  20.570   9.586
 2472POPC   GL132785  11.142  20.543   9.161
 2472POPC   GL232786  10.965  20.866   9.154
 2472POPC   C1A32787  11.460  20.564   8.812
 2472POPC   D2A32788  11.515  20.415   8.380
 2472POPC   C3A32789  11.556  20.686   8.028
 2472POPC   C4A32790  11.377  20.505   7.699
 2472POPC   C1B32791  11.013  20.798   8.734
 2472POPC   C2B32792  11.208  20.828   8.389
 2472POPC   C3B32793  11.040  20.766   8.016
 2472POPC   C4B32794  11.229  20.978   7.717
 2473POPC   NC332795  38.445  10.175   9.518
 2473POPC   PO432796  38.472   9.506   9.599
 2473POPC   GL132797  38.439   9.738   9.200
 2473POPC   GL232798  38.186   9.980   9.133
 2473POPC   C1A32799  38.579   9.832   8.776
 2473POPC   D2A32800  38.487   9.507   8.456
 2473POPC   C3A32801  38.228   9.548   8.107
 2473POPC   C4A32802  38.405   9.511   7.704
 2473POPC   C1B32803  38.090   9.718   8.764
 2473POPC   C2B32804  38.215   9.961   8.422
 2473POPC   C3B32805  38.295  10.222   8.092
 2473POPC   C4B32806  38.237  10.021   7.724
 2474POPC   NC332807  28.070  12.119   9.748
 2474POPC   PO432808  28.687  12.098   9.557
 2474POPC   GL132809  28.559  12.094   9.146
 2474POPC   GL232810  28.523  11.768   9.073
 2474POPC   C1A32811  28.617  12.121   8.714
 2474POPC   D2A32812  28.682  11.894   8.350
 2474POPC   C3A32813  28.472  12.132   8.096
 2474POPC   C4A32814  28.404  12.273   7.721
 2474POPC   C1B32815  28.218  11.805   8.728
 2474POPC   C2B32816  28.202  11.684   8.292
 2474POPC   C3B32817  28.183  11.770   7.843
 2474POPC   C4B32818  28.052  11.550   7.447
 2475POPC   NC332819  17.115   8.429   9.606
 2475POPC   PO432820  17.503   7.963   9.336
 2475POPC   GL132821  17.392   8.096   9.002
 2475POPC   GL232822  17.229   8.376   9.114
 2475POPC   C1A32823  17.552   8.101   8.632
 2475POPC   D2A32824  17.520   7.934   8.255
 2475POPC   C3A32825  17.659   8.107   7.865
 2475POPC   C4A32826  17.596   7.950   7.433
 2475POPC   C1B32827  17.449   8.585   8.773
 2475POPC   C2B32828  17.597   8.521   8.339
 2475POPC   C3B32829  17.318   8.533   7.988
 2475POPC   C4B32830  17.335   8.391   7.582
 2476POPC   NC332831  17.233  16.933   9.379
 2476POPC   PO432832  17.189  16.429   9.859
 2476POPC   GL132833  17.588  16.561   9.471
 2476POPC   GL232834  17.760  16.890   9.328
 2476POPC   C1A32835  17.624  16.606   8.930
 2476POPC   D2A32836  17.372  16.798   8.565
 2476POPC   C3A32837  17.343  16.668   8.115
 2476POPC   C4A32838  17.322  16.819   7.673
 2476POPC   C1B32839  17.832  17.067   8.870
 2476POPC   C2B32840  17.823  16.969   8.384
 2476POPC   C3B32841  17.872  17.187   7.955
 2476POPC   C4B32842  17.814  16.897   7.619
 2477POPC   NC332843  13.075   2.246   9.503
 2477POPC   PO432844  12.516   1.813   9.580
 2477POPC   GL132845  12.717   2.019   9.210
 2477POPC   GL232846  12.502   1.809   9.049
 2477POPC   C1A32847  12.906   2.034   8.765
 2477POPC   D2A32848  12.720   2.084   8.345
 2477POPC   C3A32849  12.860   1.968   7.913
 2477POPC   C4A32850  13.107   2.199   7.585
 2477POPC   C1B32851  12.356   1.855   8.653
 2477POPC   C2B32852  12.474   1.657   8.263
 2477POPC   C3B32853  12.406   1.602   7.837
 2477POPC   C4B32854  12.449   1.877   7.493
 2478POPC   NC332855  10.680  42.604   9.254
 2478POPC   PO432856  10.227  42.205   9.613
 2478POPC   GL132857  10.226  42.308   9.166
 2478POPC   GL232858  10.150  42.629   9.048
 2478POPC   C1A32859  10.422  42.251   8.752
 2478POPC   D2A32860  10.506  41.976   8.401
 2478POPC   C3A32861  10.550  42.076   7.979
 2478POPC   C4A32862  10.534  41.838   7.609
 2478POPC   C1B32863  10.238  42.714   8.593
 2478POPC   C2B32864  10.536  42.514   8.286
 2478POPC   C3B32865  10.669  42.561   7.830
 2478POPC   C4B32866  10.721  42.578   7.336
 2479POPC   NC332867  17.900  17.575   9.759
 2479POPC   PO432868  17.331  17.339   9.579
 2479POPC   GL132869  17.563  17.393   9.198
 2479POPC   GL232870  17.769  17.666   9.030
 2479POPC   C1A32871  17.435  17.360   8.759
 2479POPC   D2A32872  17.624  17.436   8.361
 2479POPC   C3A32873  17.378  17.219   8.047
 2479POPC   C4A32874  17.469  17.300   7.624
 2479POPC   C1B32875  17.531  17.865   8.670
 2479POPC   C2B32876  17.459  17.933   8.265
 2479POPC   C3B32877  17.399  17.758   7.886
 2479POPC   C4B32878  17.378  18.088   7.581
 2480POPC   NC332879  15.969  16.354   9.568
 2480POPC   PO432880  16.398  16.922   9.579
 2480POPC   GL132881  16.176  16.858   9.198
 2480POPC   GL232882  16.265  16.531   9.167
 2480POPC   C1A32883  15.943  16.822   8.786
 2480POPC   D2A32884  15.916  16.559   8.398
 2480POPC   C3A32885  15.661  16.581   8.030
 2480POPC   C4A32886  15.814  16.723   7.659
 2480POPC   C1B32887  16.468  16.516   8.779
 2480POPC   C2B32888  16.384  16.355   8.376
 2480POPC   C3B32889  16.379  16.539   7.963
 2480POPC   C4B32890  16.251  16.494   7.516
 2481POPC   NC332891   2.281  28.076   9.797
 2481POPC   PO432892   1.749  28.297   9.517
 2481POPC   GL132893   1.959  28.507   9.188
 2481POPC   GL232894   2.246  28.300   9.174
 2481POPC   C1A32895   2.101  28.572   8.756
 2481POPC   D2A32896   1.840  28.579   8.397
 2481POPC   C3A32897   1.872  28.368   8.023
 2481POPC   C4A32898   1.667  28.487   7.636
 2481POPC   C1B32899   2.291  28.023   8.850
 2481POPC   C2B32900   2.170  28.139   8.439
 2481POPC   C3B32901   2.268  28.031   8.026
 2481POPC   C4B32902   2.156  28.196   7.626
 2482POPC   NC332903  34.259  41.522   9.504
 2482POPC   PO432904  34.812  41.727   9.345
 2482POPC   GL132905  34.674  41.377   9.099
 2482POPC   GL232906  34.342  41.356   9.027
 2482POPC   C1A32907  34.703  41.179   8.693
 2482POPC   D2A32908  34.508  41.349   8.311
 2482POPC   C3A32909  34.509  41.161   7.923
 2482POPC   C4A32910  34.410  41.325   7.506
 2482POPC   C1B32911  34.526  41.672   8.707
 2482POPC   C2B32912  34.424  41.850   8.288
 2482POPC   C3B32913  34.338  41.700   7.884
 2482POPC   C4B32914  34.169  41.908   7.563
 2483POPC   NC332915  43.124  34.898   9.503
 2483POPC   PO432916  43.304  34.329   9.743
 2483POPC   GL132917  43.103  34.421   9.292
 2483POPC   GL232918  43.260  34.255   9.031
 2483POPC   C1A32919  43.068  34.691   8.864
 2483POPC   D2A32920  43.166  34.729   8.398
 2483POPC   C3A32921  43.066  34.819   7.946
 2483POPC   C4A32922  43.177  34.807   7.470
 2483POPC   C1B32923  42.872  34.255   8.711
 2483POPC   C2B32924  42.954  34.234   8.295
 2483POPC   C3B32925  43.319  34.346   8.065
 2483POPC   C4B32926  43.391  34.392   7.644
 2484POPC   NC332927  35.876  14.194   9.512
 2484POPC   PO432928  36.399  14.739   9.540
 2484POPC   GL132929  36.320  14.389   9.237
 2484POPC   GL232930  36.001  14.484   9.120
 2484POPC   C1A32931  36.321  14.256   8.797
 2484POPC   D2A32932  36.312  14.496   8.421
 2484POPC   C3A32933  36.051  14.470   8.053
 2484POPC   C4A32934  36.214  14.368   7.649
 2484POPC   C1B32935  35.872  14.559   8.726
 2484POPC   C2B32936  35.923  14.849   8.397
 2484POPC   C3B32937  35.688  14.881   8.010
 2484POPC   C4B32938  35.707  14.590   7.671
 2485POPC   NC332939   8.311  29.598   9.365
 2485POPC   PO432940   8.218  30.205   9.640
 2485POPC   GL132941   8.169  30.060   9.216
 2485POPC   GL232942   7.880  30.106   9.050
 2485POPC   C1A32943   8.329  29.984   8.789
 2485POPC   D2A32944   8.318  29.670   8.445
 2485POPC   C3A32945   8.227  29.838   8.036
 2485POPC   C4A32946   8.416  29.793   7.612
 2485POPC   C1B32947   7.895  29.713   8.797
 2485POPC   C2B32948   7.827  29.540   8.388
 2485POPC   C3B32949   7.715  29.767   8.029
 2485POPC   C4B32950   7.891  29.918   7.653
 2486POPC   NC332951   2.319  41.561   9.294
 2486POPC   PO432952   2.841  41.986   9.523
 2486POPC   GL132953   2.875  41.721   9.146
 2486POPC   GL232954   2.707  41.438   8.989
 2486POPC   C1A32955   3.003  41.749   8.714
 2486POPC   D2A32956   2.898  41.421   8.408
 2486POPC   C3A32957   2.779  41.476   7.984
 2486POPC   C4A32958   2.796  41.379   7.545
 2486POPC   C1B32959   2.418  41.543   8.661
 2486POPC   C2B32960   2.146  41.819   8.458
 2486POPC   C3B32961   2.262  41.697   8.049
 2486POPC   C4B32962   2.488  41.758   7.666
 2487POPC   NC332963  17.778  43.967   9.410
 2487POPC   PO432964  17.254  43.505   9.347
 2487POPC   GL132965  17.388  43.855   9.100
 2487POPC   GL232966  17.173  44.201   9.148
 2487POPC   C1A32967  17.696  43.853   8.752
 2487POPC   D2A32968  17.653  44.091   8.381
 2487POPC   C3A32969  17.740  43.872   8.038
 2487POPC   C4A32970  17.567  43.773   7.670
 2487POPC   C1B32971  17.328  44.232   8.755
 2487POPC   C2B32972  17.145  44.116   8.343
 2487POPC   C3B32973  17.363  44.203   7.945
 2487POPC   C4B32974  17.265  44.152   7.510
 2488POPC   NC332975  33.317   4.304   9.481
 2488POPC   PO432976  32.631   4.273   9.446
 2488POPC   GL132977  32.939   4.291   9.139
 2488POPC   GL232978  32.753   4.127   8.961
 2488POPC   C1A32979  33.247   4.223   8.804
 2488POPC   D2A32980  33.386   4.157   8.401
 2488POPC   C3A32981  33.114   4.380   8.113
 2488POPC   C4A32982  33.039   4.345   7.667
 2488POPC   C1B32983  32.788   4.462   8.663
 2488POPC   C2B32984  32.508   4.613   8.322
 2488POPC   C3B32985  32.588   4.466   7.898
 2488POPC   C4B32986  32.612   4.405   7.410
 2489POPC   NC332987   2.594  16.313   9.492
 2489POPC   PO432988   3.095  15.861   9.629
 2489POPC   GL132989   2.890  16.042   9.195
 2489POPC   GL232990   2.713  15.765   9.104
 2489POPC   C1A32991   2.657  16.121   8.756
 2489POPC   D2A32992   2.821  16.164   8.337
 2489POPC   C3A32993   2.899  15.868   7.997
 2489POPC   C4A32994   2.776  16.105   7.669
 2489POPC   C1B32995   2.472  15.617   8.738
 2489POPC   C2B32996   2.439  15.739   8.277
 2489POPC   C3B32997   2.404  15.769   7.807
 2489POPC   C4B32998   2.378  15.927   7.372
 2490POPC   NC332999  17.382  13.602   9.621
 2490POPC   PO433000  17.787  14.073   9.426
 2490POPC   GL133001  17.701  13.660   9.193
 2490POPC   GL233002  17.357  13.468   9.132
 2490POPC   C1A33003  17.761  13.490   8.796
 2490POPC   D2A33004  17.464  13.557   8.445
 2490POPC   C3A33005  17.593  13.804   8.065
 2490POPC   C4A33006  17.696  13.597   7.713
 2490POPC   C1B33007  17.219  13.848   8.911
 2490POPC   C2B33008  17.240  14.017   8.492
 2490POPC   C3B33009  17.105  13.800   8.115
 2490POPC   C4B33010  17.176  13.531   7.744
 2491POPC   NC333011  26.137  38.007   9.576
 2491POPC   PO433012  25.763  38.529   9.472
 2491POPC   GL133013  26.047  38.359   9.193
 2491POPC   GL233014  25.861  38.038   9.142
 2491POPC   C1A33015  26.158  38.525   8.799
 2491POPC   D2A33016  25.905  38.644   8.474
 2491POPC   C3A33017  26.121  38.720   8.116
 2491POPC   C4A33018  26.026  38.630   7.700
 2491POPC   C1B33019  26.209  38.023   8.834
 2491POPC   C2B33020  26.199  38.197   8.398
 2491POPC   C3B33021  26.106  38.183   7.961
 2491POPC   C4B33022  26.421  38.054   7.690
 2492POPC   NC333023  12.935  41.860   9.237
 2492POPC   PO433024  12.646  41.219   9.432
 2492POPC   GL133025  12.783  41.403   9.088
 2492POPC   GL233026  12.514  41.559   9.055
 2492POPC   C1A33027  12.786  41.387   8.666
 2492POPC   D2A33028  12.895  41.641   8.315
 2492POPC   C3A33029  13.067  41.413   8.005
 2492POPC   C4A33030  12.774  41.227   7.730
 2492POPC   C1B33031  12.588  41.864   8.694
 2492POPC   C2B33032  12.499  41.954   8.269
 2492POPC   C3B33033  12.590  41.798   7.865
 2492POPC   C4B33034  12.386  41.844   7.447
 2493POPC   NC333035  25.293  31.509   9.575
 2493POPC   PO433036  24.948  31.099   9.211
 2493POPC   GL133037  25.027  31.525   9.105
 2493POPC   GL233038  25.413  31.547   9.092
 2493POPC   C1A33039  25.143  31.803   8.770
 2493POPC   D2A33040  25.365  31.816   8.432
 2493POPC   C3A33041  25.380  31.503   8.114
 2493POPC   C4A33042  25.338  31.645   7.699
 2493POPC   C1B33043  25.555  31.168   8.888
 2493POPC   C2B33044  25.666  31.171   8.470
 2493POPC   C3B33045  25.803  31.194   8.068
 2493POPC   C4B33046  25.656  31.239   7.669
 2494POPC   NC333047  22.790  40.505   9.510
 2494POPC   PO433048  23.210  41.090   9.486
 2494POPC   GL133049  22.992  40.857   9.172
 2494POPC   GL233050  23.053  40.473   9.080
 2494POPC   C1A33051  22.850  40.892   8.801
 2494POPC   D2A33052  22.805  40.700   8.450
 2494POPC   C3A33053  22.870  41.017   8.129
 2494POPC   C4A33054  22.789  40.896   7.715
 2494POPC   C1B33055  23.277  40.574   8.707
 2494POPC   C2B33056  23.277  40.725   8.281
 2494POPC   C3B33057  23.040  40.510   7.991
 2494POPC   C4B33058  23.005  40.446   7.557
 2495POPC   NC333059  33.191  17.843   9.953
 2495POPC   PO433060  32.812  18.167   9.505
 2495POPC   GL133061  32.912  18.264   9.119
 2495POPC   GL233062  33.258  18.268   9.119
 2495POPC   C1A33063  32.955  18.490   8.751
 2495POPC   D2A33064  32.792  18.283   8.410
 2495POPC   C3A33065  33.013  18.194   8.052
 2495POPC   C4A33066  32.763  18.228   7.684
 2495POPC   C1B33067  33.134  18.005   8.739
 2495POPC   C2B33068  33.310  17.895   8.358
 2495POPC   C3B33069  33.436  17.897   7.930
 2495POPC   C4B33070  33.285  18.176   7.613
 2496POPC   NC333071   6.694  25.560   9.340
 2496POPC   PO433072   6.654  26.228   9.493
 2496POPC   GL133073   6.612  26.023   9.134
 2496POPC   GL233074   6.322  25.824   9.112
 2496POPC   C1A33075   6.779  26.179   8.770
 2496POPC   D2A33076   6.665  26.161   8.362
 2496POPC   C3A33077   6.788  26.367   8.020
 2496POPC   C4A33078   6.710  26.268   7.619
 2496POPC   C1B33079   6.283  26.077   8.740
 2496POPC   C2B33080   6.268  25.865   8.331
 2496POPC   C3B33081   6.409  25.857   7.924
 2496POPC   C4B33082   6.348  25.637   7.548
 2497POPC   NC333083   3.234  13.686   9.395
 2497POPC   PO433084   2.630  13.937   9.638
 2497POPC   GL133085   2.729  13.622   9.256
 2497POPC   GL233086   2.463  13.385   9.132
 2497POPC   C1A33087   2.811  13.654   8.803
 2497POPC   D2A33088   2.656  13.516   8.372
 2497POPC   C3A33089   2.890  13.604   8.023
 2497POPC   C4A33090   2.625  13.616   7.694
 2497POPC   C1B33091   2.593  13.196   8.751
 2497POPC   C2B33092   2.549  12.990   8.369
 2497POPC   C3B33093   2.657  13.119   7.975
 2497POPC   C4B33094   2.976  13.219   7.678
 2498POPC   NC333095  32.341  16.254   9.454
 2498POPC   PO433096  32.051  16.751   9.632
 2498POPC   GL133097  32.176  16.746   9.202
 2498POPC   GL233098  31.964  17.027   9.175
 2498POPC   C1A33099  32.340  16.580   8.794
 2498POPC   D2A33100  32.580  16.706   8.419
 2498POPC   C3A33101  32.368  16.663   8.029
 2498POPC   C4A33102  31.980  16.481   7.903
 2498POPC   C1B33103  32.170  17.069   8.785
 2498POPC   C2B33104  31.998  17.026   8.379
 2498POPC   C3B33105  32.149  17.128   7.984
 2498POPC   C4B33106  32.355  17.018   7.603
 2499POPC   NC333107  18.650  25.657   9.445
 2499POPC   PO433108  18.347  26.264   9.574
 2499POPC   GL133109  18.307  26.040   9.158
 2499POPC   GL233110  18.627  26.087   9.091
 2499POPC   C1A33111  18.084  25.941   8.730
 2499POPC   D2A33112  18.085  25.710   8.298
 2499POPC   C3A33113  18.050  25.939   7.908
 2499POPC   C4A33114  18.072  26.090   7.467
 2499POPC   C1B33115  18.690  25.931   8.638
 2499POPC   C2B33116  18.620  25.776   8.193
 2499POPC   C3B33117  18.541  25.998   7.772
 2499POPC   C4B33118  18.549  26.144   7.280
 2500POPC   NC333119  35.623  31.426   9.497
 2500POPC   PO433120  35.142  31.762   9.740
 2500POPC   GL133121  35.196  31.567   9.248
 2500POPC   GL233122  35.094  31.318   9.116
 2500POPC   C1A33123  35.498  31.466   8.861
 2500POPC   D2A33124  35.494  31.393   8.408
 2500POPC   C3A33125  35.322  31.604   8.044
 2500POPC   C4A33126  35.548  31.599   7.661
 2500POPC   C1B33127  35.029  31.569   8.746
 2500POPC   C2B33128  34.974  31.339   8.391
 2500POPC   C3B33129  35.155  31.112   8.061
 2500POPC   C4B33130  34.992  31.299   7.719
 2501POPC   NC333131  43.826  15.488   9.528
 2501POPC   PO433132  43.919  14.808   9.516
 2501POPC   GL133133  43.910  15.081   9.105
 2501POPC   GL233134  43.715  15.423   9.039
 2501POPC   C1A33135  43.942  15.170   8.644
 2501POPC   D2A33136  43.772  14.988   8.243
 2501POPC   C3A33137  43.989  15.199   7.901
 2501POPC   C4A33138  44.407  15.285   7.813
 2501POPC   C1B33139  43.975  15.680   8.755
 2501POPC   C2B33140  44.003  15.610   8.297
 2501POPC   C3B33141  43.653  15.564   8.013
 2501POPC   C4B33142  43.567  15.361   7.620
 2502POPC   NC333143  33.644   7.856   9.353
 2502POPC   PO433144  33.612   8.484   9.654
 2502POPC   GL133145  33.567   8.341   9.174
 2502POPC   GL233146  33.894   8.165   9.032
 2502POPC   C1A33147  33.553   8.283   8.684
 2502POPC   D2A33148  33.864   8.377   8.359
 2502POPC   C3A33149  33.816   8.219   7.928
 2502POPC   C4A33150  33.704   7.988   7.562
 2502POPC   C1B33151  34.185   8.125   8.664
 2502POPC   C2B33152  34.234   8.078   8.188
 2502POPC   C3B33153  34.139   7.859   7.768
 2502POPC   C4B33154  34.109   8.069   7.288
 2503POPC   NC333155  28.565   4.855   9.686
 2503POPC   PO433156  28.511   4.189   9.688
 2503POPC   GL133157  28.601   4.323   9.236
 2503POPC   GL233158  28.762   4.653   9.227
 2503POPC   C1A33159  28.334   4.258   8.840
 2503POPC   D2A33160  28.112   4.366   8.463
 2503POPC   C3A33161  28.142   4.250   8.022
 2503POPC   C4A33162  28.150   4.356   7.580
 2503POPC   C1B33163  28.722   4.596   8.823
 2503POPC   C2B33164  28.802   4.717   8.432
 2503POPC   C3B33165  28.933   4.592   8.074
 2503POPC   C4B33166  28.583   4.580   7.768
 2504POPC   NC333167   5.521  31.163   9.502
 2504POPC   PO433168   4.919  31.540   9.436
 2504POPC   GL133169   4.957  31.549   9.059
 2504POPC   GL233170   5.318  31.609   9.108
 2504POPC   C1A33171   5.057  31.452   8.673
 2504POPC   D2A33172   4.832  31.402   8.329
 2504POPC   C3A33173   5.039  31.538   7.993
 2504POPC   C4A33174   4.949  31.482   7.556
 2504POPC   C1B33175   5.242  31.951   8.829
 2504POPC   C2B33176   5.213  31.888   8.406
 2504POPC   C3B33177   5.150  32.030   8.021
 2504POPC   C4B33178   5.278  31.848   7.681
 2505POPC   NC333179  19.275  16.707   9.530
 2505POPC   PO433180  18.625  16.558   9.420
 2505POPC   GL133181  18.956  16.709   9.123
 2505POPC   GL233182  19.211  16.986   9.122
 2505POPC   C1A33183  19.167  16.626   8.758
 2505POPC   D2A33184  19.032  16.409   8.406
 2505POPC   C3A33185  19.067  16.612   8.031
 2505POPC   C4A33186  18.952  16.531   7.636
 2505POPC   C1B33187  19.026  17.126   8.769
 2505POPC   C2B33188  19.093  16.986   8.375
 2505POPC   C3B33189  19.074  17.129   7.965
 2505POPC   C4B33190  19.282  16.911   7.632
 2506POPC   NC333191   7.537  20.453   9.635
 2506POPC   PO433192   7.576  19.864   9.292
 2506POPC   GL133193   7.423  19.858   8.945
 2506POPC   GL233194   7.136  20.064   9.032
 2506POPC   C1A33195   7.630  19.907   8.567
 2506POPC   D2A33196   7.516  20.110   8.191
 2506POPC   C3A33197   7.663  19.849   7.894
 2506POPC   C4A33198   7.517  19.628   7.550
 2506POPC   C1B33199   7.157  20.108   8.590
 2506POPC   C2B33200   6.958  19.993   8.246
 2506POPC   C3B33201   7.119  19.854   7.918
 2506POPC   C4B33202   7.289  20.062   7.642
 2507POPC   NC333203  17.932  42.183   9.498
 2507POPC   PO433204  18.562  42.371   9.449
 2507POPC   GL133205  18.280  42.317   9.130
 2507POPC   GL233206  18.388  41.989   9.093
 2507POPC   C1A33207  18.359  42.285   8.678
 2507POPC   D2A33208  18.540  42.365   8.282
 2507POPC   C3A33209  18.247  42.580   7.983
 2507POPC   C4A33210  18.293  42.631   7.509
 2507POPC   C1B33211  18.000  41.958   8.853
 2507POPC   C2B33212  17.933  42.080   8.444
 2507POPC   C3B33213  18.084  42.049   8.035
 2507POPC   C4B33214  18.242  42.170   7.685
 2508POPC   NC333215   5.342  30.353   9.387
 2508POPC   PO433216   6.060  30.246   9.338
 2508POPC   GL133217   6.020  30.718   9.225
 2508POPC   GL233218   5.650  30.753   9.218
 2508POPC   C1A33219   5.890  31.042   8.878
 2508POPC   D2A33220   5.602  31.037   8.535
 2508POPC   C3A33221   5.829  31.022   8.129
 2508POPC   C4A33222   5.745  30.845   7.709
 2508POPC   C1B33223   5.726  30.528   8.842
 2508POPC   C2B33224   5.791  30.567   8.426
 2508POPC   C3B33225   5.526  30.588   8.084
 2508POPC   C4B33226   5.511  30.343   7.730
 2509POPC   NC333227  24.878   7.434   9.425
 2509POPC   PO433228  25.591   7.310   9.336
 2509POPC   GL133229  25.254   7.320   9.098
 2509POPC   GL233230  25.250   7.681   9.189
 2509POPC   C1A33231  24.976   7.220   8.760
 2509POPC   D2A33232  25.112   7.290   8.343
 2509POPC   C3A33233  25.075   7.117   7.918
 2509POPC   C4A33234  25.107   7.279   7.484
 2509POPC   C1B33235  25.214   7.697   8.743
 2509POPC   C2B33236  25.037   7.804   8.350
 2509POPC   C3B33237  25.160   7.633   7.955
 2509POPC   C4B33238  25.119   7.772   7.573
 2510POPC   NC333239   5.291  10.943   9.594
 2510POPC   PO433240   4.930  10.360   9.588
 2510POPC   GL133241   4.858  10.379   9.169
 2510POPC   GL233242   4.891  10.736   9.190
 2510POPC   C1A33243   4.877  10.255   8.751
 2510POPC   D2A33244   5.017  10.454   8.368
 2510POPC   C3A33245   4.828  10.345   7.972
 2510POPC   C4A33246   4.941  10.485   7.575
 2510POPC   C1B33247   5.127  10.712   8.806
 2510POPC   C2B33248   5.254  10.919   8.390
 2510POPC   C3B33249   5.214  10.766   7.938
 2510POPC   C4B33250   5.433  10.579   7.544
 2511POPC   NC333251   6.954  44.311   9.422
 2511POPC   PO433252   6.491  43.836   9.525
 2511POPC   GL133253   6.533  44.100   9.195
 2511POPC   GL233254   6.739  43.856   9.052
 2511POPC   C1A33255   6.669  44.287   8.801
 2511POPC   D2A33256   6.899  44.033   8.484
 2511POPC   C3A33257   6.632  43.949   8.137
 2511POPC   C4A33258   6.680  43.985   7.703
 2511POPC   C1B33259   6.732  43.585   8.703
 2511POPC   C2B33260   6.880  43.516   8.291
 2511POPC   C3B33261   6.967  43.621   7.904
 2511POPC   C4B33262   6.854  43.523   7.482
 2512POPC   NC333263   7.743  38.309   9.417
 2512POPC   PO433264   7.233  38.738   9.615
 2512POPC   GL133265   7.404  38.618   9.169
 2512POPC   GL233266   7.805  38.697   9.101
 2512POPC   C1A33267   7.245  38.389   8.758
 2512POPC   D2A33268   7.271  38.110   8.386
 2512POPC   C3A33269   7.162  38.363   8.019
 2512POPC   C4A33270   7.236  38.803   7.969
 2512POPC   C1B33271   7.742  38.491   8.724
 2512POPC   C2B33272   7.529  38.580   8.347
 2512POPC   C3B33273   7.752  38.537   7.982
 2512POPC   C4B33274   8.051  38.227   7.802
 2513POPC   NC333275  42.531  35.928   9.492
 2513POPC   PO433276  42.242  36.566   9.440
 2513POPC   GL133277  42.372  36.282   9.139
 2513POPC   GL233278  42.143  36.014   9.159
 2513POPC   C1A33279  42.394  36.155   8.711
 2513POPC   D2A33280  42.362  36.481   8.419
 2513POPC   C3A33281  42.268  36.284   8.055
 2513POPC   C4A33282  42.510  35.969   7.837
 2513POPC   C1B33283  41.909  36.191   8.829
 2513POPC   C2B33284  41.909  36.041   8.411
 2513POPC   C3B33285  41.812  36.037   7.990
 2513POPC   C4B33286  42.036  36.026   7.656
 2514POPC   NC333287   1.757  40.197   9.590
 2514POPC   PO433288   2.329  40.360   9.401
 2514POPC   GL133289   2.042  40.233   9.108
 2514POPC   GL233290   1.794  39.989   9.104
 2514POPC   C1A33291   2.086  40.075   8.692
 2514POPC   D2A33292   2.181  40.255   8.293
 2514POPC   C3A33293   2.142  39.886   8.051
 2514POPC   C4A33294   1.958  39.803   7.652
 2514POPC   C1B33295   1.692  39.720   8.773
 2514POPC   C2B33296   1.884  39.615   8.391
 2514POPC   C3B33297   1.661  39.666   8.032
 2514POPC   C4B33298   1.340  39.578   7.782
 2515POPC   NC333299  22.466  21.087   9.261
 2515POPC   PO433300  21.851  21.150   9.510
 2515POPC   GL133301  22.033  21.341   9.155
 2515POPC   GL233302  22.086  21.693   9.240
 2515POPC   C1A33303  22.105  21.236   8.704
 2515POPC   D2A33304  22.267  21.132   8.275
 2515POPC   C3A33305  22.107  21.240   7.826
 2515POPC   C4A33306  22.213  21.085   7.362
 2515POPC   C1B33307  21.906  21.722   8.816
 2515POPC   C2B33308  22.085  21.652   8.389
 2515POPC   C3B33309  22.224  21.751   7.974
 2515POPC   C4B33310  21.983  21.749   7.621
 2516POPC   NC333311   2.450  24.662   9.413
 2516POPC   PO433312   1.768  24.748   9.495
 2516POPC   GL133313   1.982  24.578   9.154
 2516POPC   GL233314   1.860  24.238   9.115
 2516POPC   C1A33315   2.106  24.675   8.744
 2516POPC   D2A33316   1.929  24.486   8.398
 2516POPC   C3A33317   1.995  24.751   8.075
 2516POPC   C4A33318   2.295  24.884   7.823
 2516POPC   C1B33319   2.197  24.160   8.795
 2516POPC   C2B33320   2.367  24.214   8.370
 2516POPC   C3B33321   2.141  24.256   7.973
 2516POPC   C4B33322   1.948  24.005   7.618
 2517POPC   NC333323  44.532  29.897   9.364
 2517POPC   PO433324  43.752  29.943   9.536
 2517POPC   GL133325  43.955  29.929   9.171
 2517POPC   GL233326  43.805  30.225   9.080
 2517POPC   C1A33327  43.750  29.754   8.802
 2517POPC   D2A33328  43.625  29.430   8.490
 2517POPC   C3A33329  43.688  29.623   8.076
 2517POPC   C4A33330  43.839  29.542   7.612
 2517POPC   C1B33331  43.990  30.221   8.677
 2517POPC   C2B33332  43.940  30.150   8.239
 2517POPC   C3B33333  43.880  30.049   7.812
 2517POPC   C4B33334  43.580  30.309   7.616
 2518POPC   NC333335  24.700  36.665   9.508
 2518POPC   PO433336  24.284  37.254   9.456
 2518POPC   GL133337  24.436  36.974   9.160
 2518POPC   GL233338  24.241  36.639   9.213
 2518POPC   C1A33339  24.627  37.054   8.736
 2518POPC   D2A33340  24.729  36.751   8.402
 2518POPC   C3A33341  24.674  36.752   7.943
 2518POPC   C4A33342  24.676  36.903   7.508
 2518POPC   C1B33343  24.283  36.689   8.769
 2518POPC   C2B33344  24.183  36.834   8.347
 2518POPC   C3B33345  24.207  36.571   7.966
 2518POPC   C4B33346  24.294  36.587   7.513
 2519POPC   NC333347  37.252  26.042   9.502
 2519POPC   PO433348  36.703  25.842   9.683
 2519POPC   GL133349  36.826  25.905   9.235
 2519POPC   GL233350  36.542  25.917   9.071
 2519POPC   C1A33351  36.924  26.198   8.846
 2519POPC   D2A33352  37.023  26.334   8.416
 2519POPC   C3A33353  36.922  26.229   7.970
 2519POPC   C4A33354  37.251  25.961   7.765
 2519POPC   C1B33355  36.617  25.838   8.691
 2519POPC   C2B33356  36.639  25.965   8.330
 2519POPC   C3B33357  36.853  25.733   8.060
 2519POPC   C4B33358  36.766  25.782   7.685
 2520POPC   NC333359  20.626  38.787   9.580
 2520POPC   PO433360  20.436  38.078   9.485
 2520POPC   GL133361  20.614  38.411   9.175
 2520POPC   GL233362  20.758  38.778   9.096
 2520POPC   C1A33363  20.709  38.415   8.742
 2520POPC   D2A33364  20.426  38.342   8.429
 2520POPC   C3A33365  20.583  38.436   8.041
 2520POPC   C4A33366  20.419  38.199   7.759
 2520POPC   C1B33367  21.037  38.805   8.740
 2520POPC   C2B33368  21.021  38.645   8.346
 2520POPC   C3B33369  20.925  38.814   7.995
 2520POPC   C4B33370  20.652  38.918   7.670
 2521POPC   NC333371  30.374  37.586   9.276
 2521POPC   PO433372  29.980  38.024   9.552
 2521POPC   GL133373  29.917  37.799   9.150
 2521POPC   GL233374  29.632  37.908   8.953
 2521POPC   C1A33375  30.089  37.727   8.720
 2521POPC   D2A33376  29.967  37.848   8.336
 2521POPC   C3A33377  30.144  37.579   7.997
 2521POPC   C4A33378  30.076  37.820   7.661
 2521POPC   C1B33379  29.614  37.517   8.717
 2521POPC   C2B33380  29.690  37.403   8.295
 2521POPC   C3B33381  29.658  37.702   7.952
 2521POPC   C4B33382  29.569  37.711   7.540
 2522POPC   NC333383   6.994   2.127   9.406
 2522POPC   PO433384   6.301   2.330   9.542
 2522POPC   GL133385   6.499   2.083   9.223
 2522POPC   GL233386   6.497   1.721   9.275
 2522POPC   C1A33387   6.684   1.958   8.837
 2522POPC   D2A33388   6.581   2.105   8.452
 2522POPC   C3A33389   6.853   2.185   8.122
 2522POPC   C4A33390   6.755   2.152   7.706
 2522POPC   C1B33391   6.248   1.668   8.922
 2522POPC   C2B33392   6.252   1.678   8.473
 2522POPC   C3B33393   6.475   1.818   8.078
 2522POPC   C4B33394   6.437   1.725   7.676
 2523POPC   NC333395  21.914   2.677   9.566
 2523POPC   PO433396  22.462   2.996   9.320
 2523POPC   GL133397  22.263   2.649   9.104
 2523POPC   GL233398  21.980   2.396   9.162
 2523POPC   C1A33399  22.251   2.675   8.665
 2523POPC   D2A33400  22.341   2.950   8.358
 2523POPC   C3A33401  22.194   2.786   8.004
 2523POPC   C4A33402  22.076   2.998   7.616
 2523POPC   C1B33403  22.005   2.196   8.793
 2523POPC   C2B33404  21.904   2.326   8.398
 2523POPC   C3B33405  21.744   2.486   8.024
 2523POPC   C4B33406  21.936   2.512   7.669
 2524POPC   NC333407  18.485  16.096   9.491
 2524POPC   PO433408  18.983  15.688   9.495
 2524POPC   GL133409  18.762  15.819   9.155
 2524POPC   GL233410  18.901  16.175   9.169
 2524POPC   C1A33411  18.707  15.956   8.752
 2524POPC   D2A33412  18.944  15.855   8.387
 2524POPC   C3A33413  18.741  15.918   8.002
 2524POPC   C4A33414  18.909  15.826   7.589
 2524POPC   C1B33415  19.190  16.102   8.808
 2524POPC   C2B33416  19.417  16.084   8.394
 2524POPC   C3B33417  19.218  16.112   8.002
 2524POPC   C4B33418  19.306  16.183   7.580
 2525POPC   NC333419  41.155  37.295   9.874
 2525POPC   PO433420  40.835  37.769   9.505
 2525POPC   GL133421  40.796  37.713   9.115
 2525POPC   GL233422  40.687  37.389   9.168
 2525POPC   C1A33423  40.607  37.707   8.737
 2525POPC   D2A33424  40.698  37.912   8.364
 2525POPC   C3A33425  40.853  37.848   7.932
 2525POPC   C4A33426  40.692  37.773   7.506
 2525POPC   C1B33427  40.911  37.304   8.791
 2525POPC   C2B33428  40.693  37.319   8.439
 2525POPC   C3B33429  40.703  37.378   8.066
 2525POPC   C4B33430  41.016  37.382   7.766
 2526POPC   NC333431  23.817  28.106   9.948
 2526POPC   PO433432  23.402  28.597   9.745
 2526POPC   GL133433  23.714  28.444   9.410
 2526POPC   GL233434  23.947  28.719   9.304
 2526POPC   C1A33435  23.689  28.436   8.926
 2526POPC   D2A33436  23.796  28.384   8.464
 2526POPC   C3A33437  23.552  28.454   8.076
 2526POPC   C4A33438  23.268  28.264   7.746
 2526POPC   C1B33439  24.139  28.676   8.881
 2526POPC   C2B33440  24.193  28.678   8.433
 2526POPC   C3B33441  24.029  28.675   7.992
 2526POPC   C4B33442  23.922  28.436   7.638
 2527POPC   NC333443  17.686   6.329   9.604
 2527POPC   PO433444  17.154   5.960   9.458
 2527POPC   GL133445  17.363   5.781   9.133
 2527POPC   GL233446  17.650   6.004   9.156
 2527POPC   C1A33447  17.551   5.696   8.702
 2527POPC   D2A33448  17.730   5.831   8.308
 2527POPC   C3A33449  17.666   5.590   7.940
 2527POPC   C4A33450  17.216   5.523   7.891
 2527POPC   C1B33451  17.390   6.178   8.822
 2527POPC   C2B33452  17.265   6.055   8.392
 2527POPC   C3B33453  17.431   6.062   7.954
 2527POPC   C4B33454  17.611   5.916   7.550
 2528POPC   NC333455  35.714  17.584   9.487
 2528POPC   PO433456  35.155  17.348   9.776
 2528POPC   GL133457  35.318  17.303   9.325
 2528POPC   GL233458  35.173  17.596   9.175
 2528POPC   C1A33459  35.392  17.268   8.851
 2528POPC   D2A33460  35.177  17.335   8.442
 2528POPC   C3A33461  35.440  17.284   8.102
 2528POPC   C4A33462  35.517  17.442   7.698
 2528POPC   C1B33463  35.389  17.771   8.787
 2528POPC   C2B33464  35.567  17.700   8.405
 2528POPC   C3B33465  35.351  17.784   8.042
 2528POPC   C4B33466  35.439  17.967   7.676
 2529POPC   NC333467  29.405  30.720   9.545
 2529POPC   PO433468  28.835  30.933   9.396
 2529POPC   GL133469  29.116  30.863   9.055
 2529POPC   GL233470  29.325  30.549   9.057
 2529POPC   C1A33471  29.015  30.639   8.671
 2529POPC   D2A33472  29.190  30.636   8.274
 2529POPC   C3A33473  28.944  30.476   7.950
 2529POPC   C4A33474  29.153  30.604   7.596
 2529POPC   C1B33475  29.631  30.399   8.716
 2529POPC   C2B33476  29.685  30.504   8.296
 2529POPC   C3B33477  29.497  30.343   7.914
 2529POPC   C4B33478  29.604  30.414   7.465
 2530POPC   NC333479  33.427  30.319   9.601
 2530POPC   PO433480  33.889  30.779   9.421
 2530POPC   GL133481  33.618  30.727   9.120
 2530POPC   GL233482  33.629  30.353   9.135
 2530POPC   C1A33483  33.506  30.884   8.700
 2530POPC   D2A33484  33.597  30.654   8.289
 2530POPC   C3A33485  33.789  30.890   7.927
 2530POPC   C4A33486  34.008  31.005   7.560
 2530POPC   C1B33487  33.866  30.505   8.744
 2530POPC   C2B33488  34.084  30.338   8.399
 2530POPC   C3B33489  34.072  30.222   7.997
 2530POPC   C4B33490  33.756  30.398   7.764
 2531POPC   NC333491   0.629  26.413   9.570
 2531POPC   PO433492   0.077  26.055   9.547
 2531POPC   GL133493   0.373  26.157   9.207
 2531POPC   GL233494   0.622  25.896   9.198
 2531POPC   C1A33495   0.565  26.260   8.818
 2531POPC   D2A33496   0.414  26.415   8.428
 2531POPC   C3A33497   0.369  26.245   8.042
 2531POPC   C4A33498   0.387  26.115   7.634
 2531POPC   C1B33499   0.525  25.680   8.804
 2531POPC   C2B33500   0.465  25.876   8.383
 2531POPC   C3B33501   0.530  25.750   7.951
 2531POPC   C4B33502   0.562  25.644   7.483
 2532POPC   NC333503   8.096   1.555   9.517
 2532POPC   PO433504   8.453   0.968   9.516
 2532POPC   GL133505   8.150   1.028   9.217
 2532POPC   GL233506   8.060   1.338   9.064
 2532POPC   C1A33507   8.117   0.904   8.807
 2532POPC   D2A33508   8.026   1.209   8.521
 2532POPC   C3A33509   8.167   1.123   8.107
 2532POPC   C4A33510   8.100   1.076   7.697
 2532POPC   C1B33511   7.717   1.523   8.854
 2532POPC   C2B33512   7.513   1.420   8.477
 2532POPC   C3B33513   7.759   1.407   8.138
 2532POPC   C4B33514   7.761   1.456   7.742
 2533POPC   NC333515  19.818  10.184   9.422
 2533POPC   PO433516  19.994   9.469   9.451
 2533POPC   GL133517  19.829   9.737   9.142
 2533POPC   GL233518  20.128   9.974   9.067
 2533POPC   C1A33519  19.831   9.670   8.716
 2533POPC   D2A33520  20.143   9.591   8.407
 2533POPC   C3A33521  19.993   9.539   7.997
 2533POPC   C4A33522  19.577   9.667   7.801
 2533POPC   C1B33523  19.884  10.187   8.738
 2533POPC   C2B33524  19.868  10.022   8.317
 2533POPC   C3B33525  19.924  10.022   7.874
 2533POPC   C4B33526  20.152  10.258   7.603
 2534POPC   NC333527   3.924  42.408   9.439
 2534POPC   PO433528   4.463  42.095   9.620
 2534POPC   GL133529   4.295  42.152   9.181
 2534POPC   GL233530   4.306  42.529   9.119
 2534POPC   C1A33531   4.392  42.139   8.719
 2534POPC   D2A33532   4.427  42.287   8.304
 2534POPC   C3A33533   4.375  42.044   7.955
 2534POPC   C4A33534   4.032  42.081   7.749
 2534POPC   C1B33535   4.246  42.697   8.709
 2534POPC   C2B33536   4.281  42.787   8.277
 2534POPC   C3B33537   4.178  42.544   7.926
 2534POPC   C4B33538   4.527  42.486   7.756
 2535POPC   NC333539   6.353   8.679   9.531
 2535POPC   PO433540   6.648   9.280   9.640
 2535POPC   GL133541   6.544   9.060   9.241
 2535POPC   GL233542   6.795   8.825   9.085
 2535POPC   C1A33543   6.456   9.115   8.820
 2535POPC   D2A33544   6.718   9.070   8.483
 2535POPC   C3A33545   6.508   9.119   8.147
 2535POPC   C4A33546   6.520   9.250   7.760
 2535POPC   C1B33547   7.071   9.157   8.856
 2535POPC   C2B33548   7.204   9.252   8.398
 2535POPC   C3B33549   6.998   9.170   7.995
 2535POPC   C4B33550   6.794   8.814   7.847
 2536POPC   NC333551  13.980  20.563   9.465
 2536POPC   PO433552  14.648  20.862   9.493
 2536POPC   GL133553  14.440  20.655   9.195
 2536POPC   GL233554  14.194  20.889   9.145
 2536POPC   C1A33555  14.465  20.512   8.777
 2536POPC   D2A33556  14.342  20.320   8.368
 2536POPC   C3A33557  14.422  20.596   8.021
 2536POPC   C4A33558  14.664  20.656   7.646
 2536POPC   C1B33559  14.040  20.878   8.758
 2536POPC   C2B33560  14.064  20.806   8.352
 2536POPC   C3B33561  14.089  20.991   7.961
 2536POPC   C4B33562  14.166  20.830   7.547
 2537POPC   NC333563  10.860  32.947   9.574
 2537POPC   PO433564  11.501  33.315   9.552
 2537POPC   GL133565  11.483  33.126   9.131
 2537POPC   GL233566  11.139  33.128   9.039
 2537POPC   C1A33567  11.503  32.935   8.740
 2537POPC   D2A33568  11.192  33.053   8.497
 2537POPC   C3A33569  11.210  33.018   8.092
 2537POPC   C4A33570  11.141  32.984   7.667
 2537POPC   C1B33571  11.407  33.437   8.743
 2537POPC   C2B33572  11.295  33.525   8.302
 2537POPC   C3B33573  11.137  33.467   7.870
 2537POPC   C4B33574  10.959  33.396   7.430
 2538POPC   NC333575  37.853  11.439   9.763
 2538POPC   PO433576  37.289  11.067   9.534
 2538POPC   GL133577  37.487  11.206   9.159
 2538POPC   GL233578  37.533  11.568   9.167
 2538POPC   C1A33579  37.484  11.301   8.710
 2538POPC   D2A33580  37.551  11.393   8.276
 2538POPC   C3A33581  37.754  11.081   8.077
 2538POPC   C4A33582  37.488  10.910   7.762
 2538POPC   C1B33583  37.909  11.493   8.933
 2538POPC   C2B33584  37.977  11.562   8.486
 2538POPC   C3B33585  38.031  11.548   8.048
 2538POPC   C4B33586  37.797  11.499   7.666
 2539POPC   NC333587  30.520   9.670   9.481
 2539POPC   PO433588  30.487  10.321   9.592
 2539POPC   GL133589  30.431  10.029   9.148
 2539POPC   GL233590  30.740   9.881   9.073
 2539POPC   C1A33591  30.464   9.561   8.849
 2539POPC   D2A33592  30.734   9.575   8.487
 2539POPC   C3A33593  30.572   9.854   8.183
 2539POPC   C4A33594  30.646   9.763   7.747
 2539POPC   C1B33595  31.029   9.829   8.807
 2539POPC   C2B33596  31.046   9.990   8.421
 2539POPC   C3B33597  31.072   9.810   8.029
 2539POPC   C4B33598  31.133   9.665   7.617
 2540POPC   NC333599  38.182  32.206   9.428
 2540POPC   PO433600  38.652  32.618   9.674
 2540POPC   GL133601  38.658  32.410   9.242
 2540POPC   GL233602  38.783  32.070   9.129
 2540POPC   C1A33603  38.479  32.403   8.828
 2540POPC   D2A33604  38.530  32.650   8.467
 2540POPC   C3A33605  38.552  32.442   8.076
 2540POPC   C4A33606  38.259  32.376   7.772
 2540POPC   C1B33607  38.488  31.887   8.825
 2540POPC   C2B33608  38.298  31.990   8.444
 2540POPC   C3B33609  38.382  31.931   8.019
 2540POPC   C4B33610  38.550  31.983   7.622
 2541POPC   NC333611  14.145   2.527   9.374
 2541POPC   PO433612  14.458   3.043   9.501
 2541POPC   GL133613  14.385   2.925   9.117
 2541POPC   GL233614  14.046   3.016   9.204
 2541POPC   C1A33615  14.575   2.810   8.726
 2541POPC   D2A33616  14.869   2.968   8.443
 2541POPC   C3A33617  14.589   2.921   8.130
 2541POPC   C4A33618  14.518   2.589   7.816
 2541POPC   C1B33619  14.041   2.824   8.760
 2541POPC   C2B33620  14.108   2.917   8.326
 2541POPC   C3B33621  14.147   2.932   7.866
 2541POPC   C4B33622  14.277   3.142   7.482
 2542POPC   NC333623  39.338  41.775   9.454
 2542POPC   PO433624  39.462  42.430   9.502
 2542POPC   GL133625  39.300  42.204   9.155
 2542POPC   GL233626  38.995  42.366   9.096
 2542POPC   C1A33627  39.394  42.206   8.724
 2542POPC   D2A33628  39.212  42.354   8.334
 2542POPC   C3A33629  39.368  42.175   7.950
 2542POPC   C4A33630  39.205  42.175   7.549
 2542POPC   C1B33631  39.011  42.661   8.728
 2542POPC   C2B33632  38.774  42.600   8.315
 2542POPC   C3B33633  38.908  42.414   7.918
 2542POPC   C4B33634  38.946  42.588   7.506
 2543POPC   NC333635  39.431   7.668   9.384
 2543POPC   PO433636  39.318   7.002   9.462
 2543POPC   GL133637  39.109   7.115   9.067
 2543POPC   GL233638  39.115   7.464   9.044
 2543POPC   C1A33639  39.216   7.215   8.617
 2543POPC   D2A33640  39.444   7.426   8.316
 2543POPC   C3A33641  39.473   7.346   7.880
 2543POPC   C4A33642  39.395   7.627   7.507
 2543POPC   C1B33643  39.308   7.721   8.729
 2543POPC   C2B33644  39.133   7.857   8.367
 2543POPC   C3B33645  39.183   7.751   7.988
 2543POPC   C4B33646  38.910   7.727   7.696
 2544POPC   NC333647   6.744  35.874   9.499
 2544POPC   PO433648   6.368  36.460   9.546
 2544POPC   GL133649   6.422  36.233   9.158
 2544POPC   GL233650   6.778  36.207   9.087
 2544POPC   C1A33651   6.499  36.430   8.732
 2544POPC   D2A33652   6.704  36.304   8.391
 2544POPC   C3A33653   6.460  36.424   8.067
 2544POPC   C4A33654   6.668  36.444   7.715
 2544POPC   C1B33655   6.619  35.918   8.758
 2544POPC   C2B33656   6.449  35.863   8.347
 2544POPC   C3B33657   6.670  35.970   7.953
 2544POPC   C4B33658   6.993  36.056   7.633
 2545POPC   NC333659  41.209  13.104   9.460
 2545POPC   PO433660  41.587  12.605   9.612
 2545POPC   GL133661  41.615  12.857   9.224
 2545POPC   GL233662  41.829  12.643   9.080
 2545POPC   C1A33663  41.488  13.011   8.782
 2545POPC   D2A33664  41.308  12.994   8.333
 2545POPC   C3A33665  41.571  13.155   8.004
 2545POPC   C4A33666  41.942  13.299   7.736
 2545POPC   C1B33667  41.541  12.503   8.814
 2545POPC   C2B33668  41.697  12.658   8.442
 2545POPC   C3B33669  41.595  12.631   8.047
 2545POPC   C4B33670  41.849  12.573   7.701
 2546POPC   NC333671   4.729  34.055   9.346
 2546POPC   PO433672   5.040  34.566   9.735
 2546POPC   GL133673   5.151  34.786   9.245
 2546POPC   GL233674   4.830  34.852   8.971
 2546POPC   C1A33675   5.265  34.691   8.776
 2546POPC   D2A33676   5.015  34.727   8.357
 2546POPC   C3A33677   5.171  34.639   7.934
 2546POPC   C4A33678   5.365  35.002   7.703
 2546POPC   C1B33679   4.797  34.434   8.698
 2546POPC   C2B33680   4.732  34.274   8.283
 2546POPC   C3B33681   4.709  34.311   7.834
 2546POPC   C4B33682   5.001  34.339   7.497
 2547POPC   NC333683  23.629  24.691   9.445
 2547POPC   PO433684  23.713  24.057   9.324
 2547POPC   GL133685  23.748  24.356   9.065
 2547POPC   GL233686  24.069  24.391   9.100
 2547POPC   C1A33687  23.572  24.503   8.708
 2547POPC   D2A33688  23.480  24.267   8.338
 2547POPC   C3A33689  23.388  24.401   7.931
 2547POPC   C4A33690  23.293  24.109   7.625
 2547POPC   C1B33691  24.062  24.667   8.752
 2547POPC   C2B33692  23.879  24.637   8.323
 2547POPC   C3B33693  23.885  24.566   7.880
 2547POPC   C4B33694  24.002  24.774   7.501
 2548POPC   NC333695   3.985   3.331   9.713
 2548POPC   PO433696   4.306   3.845   9.892
 2548POPC   GL133697   4.112   3.733   9.370
 2548POPC   GL233698   4.074   3.345   9.210
 2548POPC   C1A33699   4.101   3.701   8.873
 2548POPC   D2A33700   4.028   3.750   8.462
 2548POPC   C3A33701   4.340   3.840   8.148
 2548POPC   C4A33702   4.166   3.881   7.746
 2548POPC   C1B33703   4.066   3.206   8.749
 2548POPC   C2B33704   4.293   3.331   8.340
 2548POPC   C3B33705   4.204   3.314   7.910
 2548POPC   C4B33706   4.050   3.066   7.534
 2549POPC   NC333707  37.298  42.178   9.523
 2549POPC   PO433708  36.854  42.700   9.473
 2549POPC   GL133709  36.900  42.340   9.126
 2549POPC   GL233710  37.144  42.019   9.058
 2549POPC   C1A33711  36.801  42.245   8.699
 2549POPC   D2A33712  36.867  42.568   8.362
 2549POPC   C3A33713  36.733  42.443   7.960
 2549POPC   C4A33714  36.549  42.070   7.826
 2549POPC   C1B33715  37.239  41.960   8.615
 2549POPC   C2B33716  36.982  42.049   8.244
 2549POPC   C3B33717  37.048  42.021   7.799
 2549POPC   C4B33718  37.165  41.957   7.359
 2550POPC   NC333719  42.286  33.415   9.497
 2550POPC   PO433720  42.609  33.988   9.436
 2550POPC   GL133721  42.333  33.871   9.160
 2550POPC   GL233722  42.313  33.547   9.021
 2550POPC   C1A33723  42.418  33.960   8.762
 2550POPC   D2A33724  42.351  33.753   8.388
 2550POPC   C3A33725  42.630  33.881   8.077
 2550POPC   C4A33726  42.420  34.055   7.766
 2550POPC   C1B33727  41.988  33.506   8.711
 2550POPC   C2B33728  41.846  33.601   8.281
 2550POPC   C3B33729  42.167  33.590   7.948
 2550POPC   C4B33730  42.261  33.629   7.535
 2551POPC   NC333731  28.776   9.964   9.464
 2551POPC   PO433732  29.274   9.526   9.516
 2551POPC   GL133733  29.126   9.651   9.106
 2551POPC   GL233734  28.753   9.591   9.141
 2551POPC   C1A33735  29.182   9.734   8.652
 2551POPC   D2A33736  29.199   9.438   8.299
 2551POPC   C3A33737  29.448   9.655   8.002
 2551POPC   C4A33738  29.254   9.881   7.680
 2551POPC   C1B33739  28.681   9.812   8.753
 2551POPC   C2B33740  28.832   9.924   8.307
 2551POPC   C3B33741  28.831   9.697   7.909
 2551POPC   C4B33742  28.831   9.760   7.418
 2552POPC   NC333743  20.553  30.572   9.479
 2552POPC   PO433744  20.074  31.006   9.391
 2552POPC   GL133745  20.438  30.852   9.083
 2552POPC   GL233746  20.834  30.803   9.094
 2552POPC   C1A33747  20.586  30.486   8.800
 2552POPC   D2A33748  20.486  30.422   8.388
 2552POPC   C3A33749  20.522  30.707   8.084
 2552POPC   C4A33750  20.600  30.708   7.661
 2552POPC   C1B33751  20.728  30.984   8.690
 2552POPC   C2B33752  20.923  30.890   8.330
 2552POPC   C3B33753  21.067  31.062   7.993
 2552POPC   C4B33754  20.918  31.094   7.576
 2553POPC   NC333755  15.130  13.951   9.499
 2553POPC   PO433756  15.186  14.531   9.710
 2553POPC   GL133757  15.287  14.488   9.254
 2553POPC   GL233758  15.440  14.151   9.139
 2553POPC   C1A33759  15.364  14.553   8.802
 2553POPC   D2A33760  15.239  14.376   8.409
 2553POPC   C3A33761  15.370  14.462   7.982
 2553POPC   C4A33762  15.063  14.428   7.631
 2553POPC   C1B33763  15.510  13.882   8.760
 2553POPC   C2B33764  15.603  13.999   8.338
 2553POPC   C3B33765  15.458  13.946   7.926
 2553POPC   C4B33766  15.497  14.166   7.548
 2554POPC   NC333767  29.495   9.994   9.374
 2554POPC   PO433768  30.019   9.601   9.361
 2554POPC   GL133769  29.961   9.845   8.997
 2554POPC   GL233770  29.618   9.754   8.939
 2554POPC   C1A33771  30.186   9.880   8.592
 2554POPC   D2A33772  30.195   9.491   8.366
 2554POPC   C3A33773  29.968   9.555   7.992
 2554POPC   C4A33774  30.149   9.825   7.694
 2554POPC   C1B33775  29.699   9.758   8.499
 2554POPC   C2B33776  29.882  10.043   8.194
 2554POPC   C3B33777  29.724  10.060   7.796
 2554POPC   C4B33778  29.684   9.788   7.443
 2555POPC   NC333779  32.090   0.301   9.941
 2555POPC   PO433780  32.538   0.656   9.675
 2555POPC   GL133781  32.395   0.551   9.238
 2555POPC   GL233782  32.496   0.221   9.154
 2555POPC   C1A33783  32.198   0.581   8.789
 2555POPC   D2A33784  31.922   0.634   8.391
 2555POPC   C3A33785  32.221   0.704   8.037
 2555POPC   C4A33786  32.150   0.581   7.545
 2555POPC   C1B33787  32.539   0.151   8.699
 2555POPC   C2B33788  32.234   0.256   8.370
 2555POPC   C3B33789  32.115   0.217   7.949
 2555POPC   C4B33790  32.373  44.978   7.689
 2556POPC   NC333791  39.120   9.590   9.635
 2556POPC   PO433792  39.610   9.454   9.194
 2556POPC   GL133793  39.296   9.746   9.083
 2556POPC   GL233794  38.957   9.780   9.185
 2556POPC   C1A33795  39.146   9.997   8.730
 2556POPC   D2A33796  39.386   9.992   8.336
 2556POPC   C3A33797  39.185   9.962   7.932
 2556POPC   C4A33798  39.296   9.977   7.479
 2556POPC   C1B33799  38.954   9.508   8.796
 2556POPC   C2B33800  38.966   9.650   8.372
 2556POPC   C3B33801  38.704   9.777   8.024
 2556POPC   C4B33802  38.823   9.810   7.581
 2557POPC   NC333803  40.982  44.139   9.518
 2557POPC   PO433804  40.473  43.721   9.415
 2557POPC   GL133805  40.477  44.002   9.038
 2557POPC   GL233806  40.770  44.195   9.077
 2557POPC   C1A33807  40.476  43.993   8.589
 2557POPC   D2A33808  40.409  44.205   8.226
 2557POPC   C3A33809  40.650  43.987   7.925
 2557POPC   C4A33810  40.740  43.522   7.967
 2557POPC   C1B33811  40.983  44.038   8.739
 2557POPC   C2B33812  40.947  43.828   8.343
 2557POPC   C3B33813  41.144  43.871   7.952
 2557POPC   C4B33814  41.069  44.210   7.710
 2558POPC   NC333815  27.065  27.347   9.454
 2558POPC   PO433816  26.796  28.060   9.505
 2558POPC   GL133817  27.058  27.839   9.146
 2558POPC   GL233818  26.911  27.523   9.033
 2558POPC   C1A33819  27.142  27.752   8.677
 2558POPC   D2A33820  26.919  27.592   8.364
 2558POPC   C3A33821  27.053  27.727   7.940
 2558POPC   C4A33822  26.918  27.547   7.567
 2558POPC   C1B33823  26.727  27.240   8.767
 2558POPC   C2B33824  26.475  27.329   8.430
 2558POPC   C3B33825  26.678  27.328   8.007
 2558POPC   C4B33826  26.566  27.166   7.644
 2559POPC   NC333827  17.168  11.982   9.521
 2559POPC   PO433828  17.759  12.330   9.356
 2559POPC   GL133829  17.398  12.151   9.100
 2559POPC   GL233830  17.506  11.807   9.105
 2559POPC   C1A33831  17.274  11.945   8.667
 2559POPC   D2A33832  17.506  12.099   8.294
 2559POPC   C3A33833  17.439  11.985   7.872
 2559POPC   C4A33834  17.099  11.963   7.597
 2559POPC   C1B33835  17.756  12.059   8.769
 2559POPC   C2B33836  18.055  12.302   8.536
 2559POPC   C3B33837  17.940  12.302   8.122
 2559POPC   C4B33838  17.924  12.134   7.679
 2560POPC   NC333839  25.587  19.457   9.549
 2560POPC   PO433840  26.080  19.035   9.557
 2560POPC   GL133841  25.969  19.275   9.212
 2560POPC   GL233842  25.774  19.054   9.069
 2560POPC   C1A33843  26.193  19.323   8.803
 2560POPC   D2A33844  26.311  19.153   8.409
 2560POPC   C3A33845  26.159  19.295   8.016
 2560POPC   C4A33846  25.853  19.399   7.708
 2560POPC   C1B33847  25.950  18.887   8.717
 2560POPC   C2B33848  25.837  18.980   8.358
 2560POPC   C3B33849  25.973  18.755   8.076
 2560POPC   C4B33850  26.012  18.898   7.706
 2561POPC   NC333851  35.479  19.279   9.482
 2561POPC   PO433852  35.504  18.692   9.221
 2561POPC   GL133853  35.369  19.038   8.984
 2561POPC   GL233854  35.178  19.316   9.032
 2561POPC   C1A33855  35.328  18.912   8.587
 2561POPC   D2A33856  35.588  18.732   8.309
 2561POPC   C3A33857  35.465  18.941   7.939
 2561POPC   C4A33858  35.638  18.826   7.553
 2561POPC   C1B33859  35.235  19.418   8.595
 2561POPC   C2B33860  35.049  19.195   8.240
 2561POPC   C3B33861  35.015  19.159   7.789
 2561POPC   C4B33862  35.319  19.229   7.523
 2562POPC   NC333863   6.887  36.665   9.478
 2562POPC   PO433864   6.518  37.288   9.644
 2562POPC   GL133865   6.650  37.045   9.226
 2562POPC   GL233866   6.540  36.728   9.129
 2562POPC   C1A33867   6.916  36.921   8.819
 2562POPC   D2A33868   7.028  37.082   8.394
 2562POPC   C3A33869   6.899  36.819   8.057
 2562POPC   C4A33870   6.827  36.915   7.647
 2562POPC   C1B33871   6.405  36.969   8.767
 2562POPC   C2B33872   6.467  36.842   8.363
 2562POPC   C3B33873   6.437  37.025   7.967
 2562POPC   C4B33874   6.396  37.169   7.546
 2563POPC   NC333875  23.067  28.765  10.000
 2563POPC   PO433876  23.140  29.233   9.457
 2563POPC   GL133877  22.943  29.444   9.048
 2563POPC   GL233878  22.704  29.211   8.933
 2563POPC   C1A33879  22.777  29.590   8.611
 2563POPC   D2A33880  22.560  29.381   8.274
 2563POPC   C3A33881  22.767  29.121   8.001
 2563POPC   C4A33882  23.012  29.220   7.672
 2563POPC   C1B33883  22.878  29.054   8.534
 2563POPC   C2B33884  23.145  28.817   8.216
 2563POPC   C3B33885  23.023  28.714   7.805
 2563POPC   C4B33886  22.758  28.441   7.530
 2564POPC   NC333887  35.045  23.846   9.855
 2564POPC   PO433888  34.428  23.687   9.631
 2564POPC   GL133889  34.611  23.850   9.237
 2564POPC   GL233890  34.462  23.595   9.056
 2564POPC   C1A33891  34.502  24.060   8.815
 2564POPC   D2A33892  34.141  24.140   8.517
 2564POPC   C3A33893  34.231  23.979   8.120
 2564POPC   C4A33894  34.433  23.771   7.784
 2564POPC   C1B33895  34.532  23.434   8.644
 2564POPC   C2B33896  34.419  23.451   8.204
 2564POPC   C3B33897  34.410  23.248   7.802
 2564POPC   C4B33898  34.391  23.374   7.394
 2565POPC   NC333899  29.463  43.904   9.514
 2565POPC   PO433900  28.906  44.357   9.454
 2565POPC   GL133901  29.030  44.034   9.124
 2565POPC   GL233902  28.888  43.677   9.154
 2565POPC   C1A33903  28.906  43.894   8.695
 2565POPC   D2A33904  29.028  43.642   8.345
 2565POPC   C3A33905  29.135  43.910   8.001
 2565POPC   C4A33906  29.554  44.034   7.830
 2565POPC   C1B33907  29.229  43.533   8.848
 2565POPC   C2B33908  29.493  43.423   8.464
 2565POPC   C3B33909  29.480  43.535   8.005
 2565POPC   C4B33910  29.386  43.616   7.529
 2566POPC   NC333911  28.232  24.479   9.504
 2566POPC   PO433912  28.877  24.576   9.562
 2566POPC   GL133913  28.599  24.369   9.147
 2566POPC   GL233914  28.232  24.219   9.069
 2566POPC   C1A33915  28.470  24.442   8.668
 2566POPC   D2A33916  28.379  24.654   8.229
 2566POPC   C3A33917  28.448  24.423   7.815
 2566POPC   C4A33918  28.808  24.486   7.522
 2566POPC   C1B33919  27.960  24.410   8.748
 2566POPC   C2B33920  27.954  24.399   8.320
 2566POPC   C3B33921  27.944  24.556   7.910
 2566POPC   C4B33922  27.993  24.376   7.519
 2567POPC   NC333923   4.500  31.726   9.518
 2567POPC   PO433924   3.920  31.499   9.426
 2567POPC   GL133925   4.296  31.382   9.156
 2567POPC   GL233926   4.434  31.696   9.030
 2567POPC   C1A33927   4.496  31.337   8.711
 2567POPC   D2A33928   4.343  31.588   8.363
 2567POPC   C3A33929   4.505  31.525   7.938
 2567POPC   C4A33930   4.479  31.319   7.548
 2567POPC   C1B33931   4.027  31.592   8.780
 2567POPC   C2B33932   3.824  31.572   8.394
 2567POPC   C3B33933   3.993  31.510   7.991
 2567POPC   C4B33934   4.108  31.692   7.610
 2568POPC   NC333935  38.853  25.179   9.598
 2568POPC   PO433936  38.233  25.561   9.555
 2568POPC   GL133937  38.432  25.229   9.264
 2568POPC   GL233938  38.342  24.857   9.208
 2568POPC   C1A33939  38.356  25.198   8.819
 2568POPC   D2A33940  38.192  25.380   8.464
 2568POPC   C3A33941  38.488  25.295   8.156
 2568POPC   C4A33942  38.620  25.215   7.766
 2568POPC   C1B33943  38.632  24.774   8.811
 2568POPC   C2B33944  38.796  24.938   8.453
 2568POPC   C3B33945  38.737  24.820   8.067
 2568POPC   C4B33946  38.664  24.690   7.665
 2569POPC   NC333947  14.442  16.325   9.399
 2569POPC   PO433948  14.086  15.822   9.160
 2569POPC   GL133949  14.526  15.870   9.112
 2569POPC   GL233950  14.579  15.487   9.052
 2569POPC   C1A33951  14.711  16.170   8.813
 2569POPC   D2A33952  14.739  15.977   8.432
 2569POPC   C3A33953  14.445  15.970   8.105
 2569POPC   C4A33954  14.443  15.783   7.704
 2569POPC   C1B33955  14.385  15.615   8.612
 2569POPC   C2B33956  14.062  15.936   8.443
 2569POPC   C3B33957  13.956  16.087   8.010
 2569POPC   C4B33958  13.949  15.706   7.753
 2570POPC   NC333959  30.546   7.916   9.503
 2570POPC   PO433960  30.964   8.342   9.607
 2570POPC   GL133961  30.941   8.188   9.166
 2570POPC   GL233962  30.838   7.844   9.093
 2570POPC   C1A33963  30.719   8.334   8.781
 2570POPC   D2A33964  30.618   8.597   8.408
 2570POPC   C3A33965  30.878   8.478   8.068
 2570POPC   C4A33966  30.787   8.425   7.629
 2570POPC   C1B33967  30.523   7.851   8.759
 2570POPC   C2B33968  30.476   8.092   8.390
 2570POPC   C3B33969  30.542   8.075   7.989
 2570POPC   C4B33970  30.412   8.077   7.602
 2571POPC   NC333971  32.742  44.618   9.612
 2571POPC   PO433972  33.270  44.455   9.615
 2571POPC   GL133973  33.122  44.760   9.242
 2571POPC   GL233974  32.753  44.776   9.128
 2571POPC   C1A33975  33.081  44.985   8.821
 2571POPC   D2A33976  32.910  44.907   8.417
 2571POPC   C3A33977  33.125  44.954   8.041
 2571POPC   C4A33978  33.286  44.708   7.717
 2571POPC   C1B33979  32.585  44.634   8.718
 2571POPC   C2B33980  32.711  44.432   8.342
 2571POPC   C3B33981  32.898  44.494   7.951
 2571POPC   C4B33982  32.811  44.731   7.548
 2572POPC   NC333983  30.843  16.696   9.457
 2572POPC   PO433984  30.221  16.954   9.559
 2572POPC   GL133985  30.410  16.725   9.156
 2572POPC   GL233986  30.766  16.633   8.936
 2572POPC   C1A33987  30.296  16.701   8.721
 2572POPC   D2A33988  30.534  16.813   8.336
 2572POPC   C3A33989  30.523  16.807   7.877
 2572POPC   C4A33990  30.469  16.497   7.560
 2572POPC   C1B33991  31.101  16.368   8.659
 2572POPC   C2B33992  31.201  16.393   8.183
 2572POPC   C3B33993  30.933  16.431   7.801
 2572POPC   C4B33994  30.951  16.426   7.328
 2573POPC   NC333995  29.507  11.317   9.433
 2573POPC   PO433996  28.796  11.104   9.533
 2573POPC   GL133997  29.064  11.196   9.210
 2573POPC   GL233998  28.990  11.509   9.182
 2573POPC   C1A33999  29.252  11.291   8.792
 2573POPC   D2A34000  29.478  11.237   8.401
 2573POPC   C3A34001  29.284  11.200   7.968
 2573POPC   C4A34002  29.208  11.073   7.495
 2573POPC   C1B34003  28.910  11.674   8.788
 2573POPC   C2B34004  29.152  11.674   8.428
 2573POPC   C3B34005  29.044  11.650   8.024
 2573POPC   C4B34006  29.037  11.517   7.611
 2574POPC   NC334007  16.947  26.951   9.821
 2574POPC   PO434008  16.667  26.660   9.287
 2574POPC   GL134009  16.708  26.813   8.923
 2574POPC   GL234010  16.729  27.119   8.989
 2574POPC   C1A34011  16.914  26.903   8.568
 2574POPC   D2A34012  16.930  26.990   8.160
 2574POPC   C3A34013  16.830  26.702   7.842
 2574POPC   C4A34014  16.775  26.496   7.472
 2574POPC   C1B34015  16.461  27.247   8.690
 2574POPC   C2B34016  16.369  27.331   8.267
 2574POPC   C3B34017  16.486  27.089   7.907
 2574POPC   C4B34018  16.907  27.173   7.695
 2575POPC   NC334019  37.221   1.483   9.536
 2575POPC   PO434020  37.263   0.884   9.257
 2575POPC   GL134021  37.136   1.235   9.043
 2575POPC   GL234022  36.777   1.331   9.071
 2575POPC   C1A34023  37.082   1.142   8.620
 2575POPC   D2A34024  37.093   1.247   8.223
 2575POPC   C3A34025  37.099   1.069   7.889
 2575POPC   C4A34026  37.112   1.440   7.706
 2575POPC   C1B34027  36.568   1.144   8.706
 2575POPC   C2B34028  36.603   1.328   8.319
 2575POPC   C3B34029  36.651   1.326   7.892
 2575POPC   C4B34030  36.714   1.038   7.576
 2576POPC   NC334031  14.086  17.064   9.252
 2576POPC   PO434032  14.510  16.691   9.661
 2576POPC   GL134033  14.561  16.815   9.216
 2576POPC   GL234034  14.834  16.997   9.059
 2576POPC   C1A34035  14.488  16.660   8.790
 2576POPC   D2A34036  14.377  16.361   8.442
 2576POPC   C3A34037  14.299  16.516   8.013
 2576POPC   C4A34038  14.194  16.916   7.778
 2576POPC   C1B34039  14.933  16.835   8.628
 2576POPC   C2B34040  14.749  16.996   8.260
 2576POPC   C3B34041  14.770  16.919   7.840
 2576POPC   C4B34042  14.572  16.631   7.570
 2577POPC   NC334043  42.648  40.793   9.436
 2577POPC   PO434044  42.056  41.020   9.569
 2577POPC   GL134045  42.207  40.880   9.181
 2577POPC   GL234046  42.442  41.189   9.119
 2577POPC   C1A34047  42.404  40.596   8.827
 2577POPC   D2A34048  42.672  40.564   8.462
 2577POPC   C3A34049  42.542  40.639   8.039
 2577POPC   C4A34050  42.172  40.592   7.793
 2577POPC   C1B34051  42.238  41.070   8.724
 2577POPC   C2B34052  42.162  40.759   8.405
 2577POPC   C3B34053  42.218  41.031   8.082
 2577POPC   C4B34054  42.440  41.080   7.702
 2578POPC   NC334055  15.700   2.740   9.415
 2578POPC   PO434056  16.316   2.514   9.458
 2578POPC   GL134057  16.294   2.814   9.134
 2578POPC   GL234058  16.044   3.077   9.211
 2578POPC   C1A34059  16.076   2.730   8.761
 2578POPC   D2A34060  16.039   2.453   8.426
 2578POPC   C3A34061  15.849   2.654   8.105
 2578POPC   C4A34062  15.784   2.542   7.699
 2578POPC   C1B34063  15.787   3.146   8.798
 2578POPC   C2B34064  15.860   3.094   8.344
 2578POPC   C3B34065  15.727   3.192   7.906
 2578POPC   C4B34066  15.772   3.006   7.453
 2579POPC   NC334067  20.290  35.956   9.246
 2579POPC   PO434068  20.740  36.386   9.592
 2579POPC   GL134069  20.797  36.190   9.178
 2579POPC   GL234070  20.772  35.843   9.106
 2579POPC   C1A34071  20.703  36.202   8.729
 2579POPC   D2A34072  20.837  36.135   8.339
 2579POPC   C3A34073  20.634  36.386   8.050
 2579POPC   C4A34074  20.770  36.361   7.650
 2579POPC   C1B34075  20.656  35.694   8.673
 2579POPC   C2B34076  20.567  35.694   8.238
 2579POPC   C3B34077  20.599  35.920   7.854
 2579POPC   C4B34078  20.630  35.837   7.413
 2580POPC   NC334079   4.681  40.956   9.360
 2580POPC   PO434080   4.057  40.671   9.433
 2580POPC   GL134081   4.309  40.575   9.078
 2580POPC   GL234082   4.563  40.765   8.915
 2580POPC   C1A34083   4.242  40.419   8.691
 2580POPC   D2A34084   4.434  40.732   8.426
 2580POPC   C3A34085   4.219  40.871   8.081
 2580POPC   C4A34086   4.103  40.499   7.927
 2580POPC   C1B34087   4.530  41.162   8.682
 2580POPC   C2B34088   4.605  41.180   8.244
 2580POPC   C3B34089   4.728  40.796   8.000
 2580POPC   C4B34090   4.499  40.630   7.663
 2581POPC   NC334091  36.569  11.501   9.433
 2581POPC   PO434092  35.887  11.411   9.468
 2581POPC   GL134093  36.147  11.451   9.145
 2581POPC   GL234094  36.317  11.146   9.084
 2581POPC   C1A34095  36.229  11.510   8.721
 2581POPC   D2A34096  36.078  11.351   8.331
 2581POPC   C3A34097  36.095  11.571   7.957
 2581POPC   C4A34098  35.892  11.436   7.600
 2581POPC   C1B34099  36.025  11.012   8.739
 2581POPC   C2B34100  36.086  10.843   8.297
 2581POPC   C3B34101  36.183  11.045   7.884
 2581POPC   C4B34102  36.533  11.157   7.593
 2582POPC   NC334103  18.038  34.424   9.375
 2582POPC   PO434104  18.560  34.830   9.204
 2582POPC   GL134105  18.387  34.455   8.981
 2582POPC   GL234106  18.103  34.245   8.923
 2582POPC   C1A34107  18.366  34.466   8.527
 2582POPC   D2A34108  18.496  34.824   8.287
 2582POPC   C3A34109  18.439  34.719   7.886
 2582POPC   C4A34110  18.606  34.330   7.762
 2582POPC   C1B34111  17.977  34.682   8.762
 2582POPC   C2B34112  17.876  34.601   8.360
 2582POPC   C3B34113  18.116  34.363   8.067
 2582POPC   C4B34114  17.950  34.331   7.675
 2583POPC   NC334115  19.174  20.538   9.546
 2583POPC   PO434116  18.780  21.160   9.454
 2583POPC   GL134117  18.959  20.805   9.148
 2583POPC   GL234118  19.305  20.631   9.052
 2583POPC   C1A34119  18.849  20.592   8.746
 2583POPC   D2A34120  18.770  20.301   8.383
 2583POPC   C3A34121  18.791  20.526   7.984
 2583POPC   C4A34122  18.878  20.925   7.782
 2583POPC   C1B34123  19.283  20.344   8.669
 2583POPC   C2B34124  19.249  20.496   8.250
 2583POPC   C3B34125  19.290  20.519   7.808
 2583POPC   C4B34126  19.290  20.238   7.481
 2584POPC   NC334127  27.939  38.652   9.315
 2584POPC   PO434128  28.426  38.282   9.482
 2584POPC   GL134129  28.372  38.437   9.107
 2584POPC   GL234130  28.376  38.802   9.084
 2584POPC   C1A34131  28.187  38.491   8.719
 2584POPC   D2A34132  28.102  38.409   8.309
 2584POPC   C3A34133  28.398  38.191   7.990
 2584POPC   C4A34134  28.413  38.202   7.502
 2584POPC   C1B34135  28.650  38.731   8.789
 2584POPC   C2B34136  28.611  38.540   8.409
 2584POPC   C3B34137  28.473  38.699   8.061
 2584POPC   C4B34138  28.708  38.562   7.730
 2585POPC   NC334139  29.640  30.025   9.427
 2585POPC   PO434140  30.128  29.566   9.509
 2585POPC   GL134141  30.023  29.700   9.148
 2585POPC   GL234142  29.726  29.522   9.150
 2585POPC   C1A34143  29.937  30.013   8.852
 2585POPC   D2A34144  29.885  29.922   8.446
 2585POPC   C3A34145  30.023  30.177   8.127
 2585POPC   C4A34146  29.946  30.113   7.699
 2585POPC   C1B34147  29.589  29.613   8.750
 2585POPC   C2B34148  29.582  29.500   8.310
 2585POPC   C3B34149  29.657  29.826   8.005
 2585POPC   C4B34150  29.489  29.932   7.603
 2586POPC   NC334151  40.184  30.197   9.351
 2586POPC   PO434152  39.793  29.605   9.480
 2586POPC   GL134153  39.922  29.814   9.139
 2586POPC   GL234154  39.711  30.117   9.102
 2586POPC   C1A34155  40.023  29.932   8.739
 2586POPC   D2A34156  40.056  29.690   8.416
 2586POPC   C3A34157  39.975  29.915   8.104
 2586POPC   C4A34158  40.050  29.793   7.720
 2586POPC   C1B34159  39.504  30.029   8.682
 2586POPC   C2B34160  39.498  29.708   8.346
 2586POPC   C3B34161  39.566  29.682   7.895
 2586POPC   C4B34162  39.617  30.028   7.577
 2587POPC   NC334163  42.114  16.166   9.869
 2587POPC   PO434164  42.412  15.667   9.472
 2587POPC   GL134165  42.404  15.925   9.144
 2587POPC   GL234166  42.216  16.178   9.336
 2587POPC   C1A34167  42.572  15.908   8.727
 2587POPC   D2A34168  42.634  15.976   8.295
 2587POPC   C3A34169  42.302  15.987   8.028
 2587POPC   C4A34170  42.249  15.835   7.626
 2587POPC   C1B34171  42.217  16.337   8.903
 2587POPC   C2B34172  42.189  16.254   8.474
 2587POPC   C3B34173  42.047  16.434   8.064
 2587POPC   C4B34174  42.192  16.340   7.647
 2588POPC   NC334175  37.353  42.965   9.499
 2588POPC   PO434176  36.842  43.422   9.478
 2588POPC   GL134177  36.923  43.150   9.120
 2588POPC   GL234178  37.106  42.855   9.077
 2588POPC   C1A34179  36.724  42.915   8.774
 2588POPC   D2A34180  36.809  43.085   8.387
 2588POPC   C3A34181  36.530  42.913   8.105
 2588POPC   C4A34182  36.484  43.133   7.739
 2588POPC   C1B34183  37.252  43.012   8.705
 2588POPC   C2B34184  37.296  42.913   8.282
 2588POPC   C3B34185  37.028  42.899   7.948
 2588POPC   C4B34186  36.828  42.783   7.565
 2589POPC   NC334187   8.121  17.303   9.589
 2589POPC   PO434188   8.559  17.693   9.242
 2589POPC   GL134189   8.170  17.610   9.137
 2589POPC   GL234190   8.305  17.269   9.112
 2589POPC   C1A34191   8.181  17.797   8.739
 2589POPC   D2A34192   8.436  17.568   8.425
 2589POPC   C3A34193   8.199  17.527   8.045
 2589POPC   C4A34194   8.187  17.641   7.616
 2589POPC   C1B34195   8.093  17.278   8.727
 2589POPC   C2B34196   8.169  17.114   8.370
 2589POPC   C3B34197   8.505  17.116   8.117
 2589POPC   C4B34198   8.225  17.135   7.718
 2590POPC   NC334199  26.585   8.527   9.859
 2590POPC   PO434200  27.029   8.024   9.535
 2590POPC   GL134201  26.820   8.123   9.151
 2590POPC   GL234202  26.654   8.412   9.150
 2590POPC   C1A34203  26.952   8.270   8.740
 2590POPC   D2A34204  27.012   8.477   8.340
 2590POPC   C3A34205  26.860   8.141   8.068
 2590POPC   C4A34206  26.526   8.039   7.740
 2590POPC   C1B34207  26.489   8.552   8.746
 2590POPC   C2B34208  26.496   8.416   8.311
 2590POPC   C3B34209  26.661   8.573   7.888
 2590POPC   C4B34210  26.542   8.460   7.452
 2591POPC   NC334211  41.498  30.949   9.590
 2591POPC   PO434212  41.853  30.308   9.570
 2591POPC   GL134213  41.681  30.564   9.174
 2591POPC   GL234214  41.683  30.951   9.121
 2591POPC   C1A34215  41.642  30.611   8.689
 2591POPC   D2A34216  41.922  30.695   8.314
 2591POPC   C3A34217  41.905  30.649   7.852
 2591POPC   C4A34218  41.792  30.928   7.473
 2591POPC   C1B34219  41.433  31.088   8.792
 2591POPC   C2B34220  41.326  30.908   8.408
 2591POPC   C3B34221  41.504  30.943   7.997
 2591POPC   C4B34222  41.433  30.651   7.662
 2592POPC   NC334223   2.774  17.890   9.485
 2592POPC   PO434224   3.166  17.361   9.459
 2592POPC   GL134225   2.888  17.522   9.177
 2592POPC   GL234226   2.949  17.270   8.981
 2592POPC   C1A34227   2.719  17.673   8.785
 2592POPC   D2A34228   2.734  17.376   8.462
 2592POPC   C3A34229   2.564  17.514   8.068
 2592POPC   C4A34230   2.470  17.613   7.660
 2592POPC   C1B34231   3.217  17.541   8.733
 2592POPC   C2B34232   3.098  17.700   8.327
 2592POPC   C3B34233   3.045  17.418   7.984
 2592POPC   C4B34234   2.951  17.496   7.591
 2593POPC   NC334235  24.419  41.296   9.589
 2593POPC   PO434236  24.841  41.645   9.279
 2593POPC   GL134237  24.499  41.535   9.146
 2593POPC   GL234238  24.359  41.873   9.201
 2593POPC   C1A34239  24.570  41.341   8.745
 2593POPC   D2A34240  24.625  41.171   8.344
 2593POPC   C3A34241  24.395  41.317   7.992
 2593POPC   C4A34242  24.683  41.310   7.708
 2593POPC   C1B34243  24.512  41.858   8.777
 2593POPC   C2B34244  24.452  41.668   8.375
 2593POPC   C3B34245  24.699  41.756   8.029
 2593POPC   C4B34246  24.547  41.795   7.632
 2594POPC   NC334247  38.793  38.337   9.203
 2594POPC   PO434248  39.417  38.428   9.420
 2594POPC   GL134249  39.227  38.085   9.089
 2594POPC   GL234250  38.877  37.994   8.870
 2594POPC   C1A34251  39.343  38.077   8.692
 2594POPC   D2A34252  39.429  38.394   8.428
 2594POPC   C3A34253  39.281  38.291   8.046
 2594POPC   C4A34254  39.443  38.547   7.733
 2594POPC   C1B34255  38.900  38.359   8.576
 2594POPC   C2B34256  38.801  38.718   8.336
 2594POPC   C3B34257  38.983  38.743   7.938
 2594POPC   C4B34258  39.031  38.904   7.552
 2595POPC   NC334259  19.626  27.334   9.632
 2595POPC   PO434260  19.011  27.696   9.587
 2595POPC   GL134261  19.085  27.649   9.147
 2595POPC   GL234262  19.229  27.286   9.162
 2595POPC   C1A34263  18.788  27.758   8.810
 2595POPC   D2A34264  18.617  27.533   8.452
 2595POPC   C3A34265  18.709  27.723   8.106
 2595POPC   C4A34266  18.873  27.719   7.756
 2595POPC   C1B34267  18.974  27.274   8.798
 2595POPC   C2B34268  19.126  27.536   8.495
 2595POPC   C3B34269  19.207  27.515   8.076
 2595POPC   C4B34270  19.110  27.223   7.777
 2596POPC   NC334271  38.868  19.585   9.346
 2596POPC   PO434272  38.322  19.986   9.285
 2596POPC   GL134273  38.558  19.783   8.988
 2596POPC   GL234274  38.828  20.009   9.087
 2596POPC   C1A34275  38.569  19.670   8.545
 2596POPC   D2A34276  38.242  19.637   8.220
 2596POPC   C3A34277  38.420  19.710   7.837
 2596POPC   C4A34278  38.679  19.605   7.473
 2596POPC   C1B34279  38.742  20.155   8.692
 2596POPC   C2B34280  38.404  20.132   8.409
 2596POPC   C3B34281  38.473  20.201   8.003
 2596POPC   C4B34282  38.380  20.146   7.597
 2597POPC   NC334283  36.546  43.064   9.442
 2597POPC   PO434284  35.929  42.991   9.549
 2597POPC   GL134285  36.094  43.059   9.160
 2597POPC   GL234286  35.982  43.359   9.149
 2597POPC   C1A34287  36.128  42.965   8.726
 2597POPC   D2A34288  36.049  42.727   8.353
 2597POPC   C3A34289  36.022  42.948   7.964
 2597POPC   C4A34290  36.004  43.200   7.566
 2597POPC   C1B34291  36.149  43.471   8.745
 2597POPC   C2B34292  36.309  43.317   8.361
 2597POPC   C3B34293  36.086  43.456   8.011
 2597POPC   C4B34294  35.783  43.673   7.734
 2598POPC   NC334295  44.424  11.650   9.443
 2598POPC   PO434296  44.788  11.047   9.479
 2598POPC   GL134297  44.800  11.347   9.167
 2598POPC   GL234298  44.498  11.376   9.009
 2598POPC   C1A34299  44.929  11.494   8.757
 2598POPC   D2A34300  44.640  11.399   8.433
 2598POPC   C3A34301  44.734  11.432   8.005
 2598POPC   C4A34302  44.548  11.403   7.570
 2598POPC   C1B34303  44.286  11.115   8.708
 2598POPC   C2B34304  44.220  11.130   8.268
 2598POPC   C3B34305  44.252  11.104   7.831
 2598POPC   C4B34306  44.187  11.094   7.385
 2599POPC   NC334307   6.380  33.147   9.551
 2599POPC   PO434308   6.429  32.471   9.504
 2599POPC   GL134309   6.552  32.834   9.208
 2599POPC   GL234310   6.340  32.898   9.026
 2599POPC   C1A34311   6.777  33.074   8.896
 2599POPC   D2A34312   6.794  33.046   8.477
 2599POPC   C3A34313   7.017  32.914   8.141
 2599POPC   C4A34314   6.855  33.100   7.783
 2599POPC   C1B34315   6.311  33.216   8.717
 2599POPC   C2B34316   6.262  33.249   8.287
 2599POPC   C3B34317   6.362  33.275   7.854
 2599POPC   C4B34318   6.203  33.362   7.420
 2600POPC   NC334319  19.443  15.646   9.421
 2600POPC   PO434320  19.814  16.244   9.474
 2600POPC   GL134321  19.907  16.113   9.074
 2600POPC   GL234322  19.608  15.923   9.019
 2600POPC   C1A34323  19.907  16.005   8.624
 2600POPC   D2A34324  19.879  16.261   8.239
 2600POPC   C3A34325  19.721  16.018   7.900
 2600POPC   C4A34326  19.874  15.709   7.588
 2600POPC   C1B34327  19.434  15.654   8.671
 2600POPC   C2B34328  19.455  15.608   8.200
 2600POPC   C3B34329  19.383  15.683   7.756
 2600POPC   C4B34330  19.361  15.764   7.307
 2601POPC   NC334331  19.532  41.803   9.849
 2601POPC   PO434332  19.077  41.514   9.461
 2601POPC   GL134333  19.105  41.739   9.094
 2601POPC   GL234334  19.096  41.395   8.949
 2601POPC   C1A34335  19.294  41.792   8.715
 2601POPC   D2A34336  19.144  41.477   8.431
 2601POPC   C3A34337  19.042  41.618   8.035
 2601POPC   C4A34338  19.104  41.838   7.684
 2601POPC   C1B34339  18.764  41.202   8.694
 2601POPC   C2B34340  18.580  41.350   8.310
 2601POPC   C3B34341  18.626  41.352   7.856
 2601POPC   C4B34342  18.746  41.555   7.452
 2602POPC   NC334343  14.461   9.374   9.411
 2602POPC   PO434344  14.465   8.687   9.443
 2602POPC   GL134345  14.304   8.843   9.043
 2602POPC   GL234346  14.195   9.207   8.960
 2602POPC   C1A34347  14.593   9.023   8.709
 2602POPC   D2A34348  14.789   9.016   8.299
 2602POPC   C3A34349  14.514   8.933   7.934
 2602POPC   C4A34350  14.239   8.640   7.716
 2602POPC   C1B34351  14.020   8.945   8.625
 2602POPC   C2B34352  14.030   8.914   8.160
 2602POPC   C3B34353  14.067   9.101   7.751
 2602POPC   C4B34354  14.342   9.335   7.560
 2603POPC   NC334355  10.716  30.331   9.506
 2603POPC   PO434356  10.228  30.736   9.684
 2603POPC   GL134357  10.413  30.636   9.228
 2603POPC   GL234358  10.782  30.709   9.139
 2603POPC   C1A34359  10.511  30.465   8.785
 2603POPC   D2A34360  10.739  30.607   8.424
 2603POPC   C3A34361  10.520  30.618   8.026
 2603POPC   C4A34362  10.237  30.393   7.766
 2603POPC   C1B34363  10.901  30.999   8.779
 2603POPC   C2B34364  11.018  31.052   8.330
 2603POPC   C3B34365  10.951  30.897   7.881
 2603POPC   C4B34366  10.805  30.865   7.405
 2604POPC   NC334367  38.178  25.933   9.863
 2604POPC   PO434368  37.649  26.214   9.605
 2604POPC   GL134369  37.719  26.283   9.169
 2604POPC   GL234370  37.605  26.600   9.131
 2604POPC   C1A34371  37.767  26.052   8.754
 2604POPC   D2A34372  37.512  26.029   8.373
 2604POPC   C3A34373  37.742  26.020   7.980
 2604POPC   C4A34374  37.834  25.738   7.688
 2604POPC   C1B34375  37.409  26.406   8.780
 2604POPC   C2B34376  37.476  26.564   8.389
 2604POPC   C3B34377  37.411  26.402   8.015
 2604POPC   C4B34378  37.568  26.410   7.618
 2605POPC   NC334379  40.890  23.748   9.533
 2605POPC   PO434380  40.238  23.649   9.465
 2605POPC   GL134381  40.567  23.542   9.177
 2605POPC   GL234382  40.687  23.840   9.083
 2605POPC   C1A34383  40.767  23.470   8.735
 2605POPC   D2A34384  41.026  23.634   8.381
 2605POPC   C3A34385  40.835  23.658   7.950
 2605POPC   C4A34386  40.863  23.332   7.615
 2605POPC   C1B34387  40.690  23.977   8.677
 2605POPC   C2B34388  40.820  24.294   8.432
 2605POPC   C3B34389  41.009  24.296   8.053
 2605POPC   C4B34390  40.729  24.225   7.740
 2606POPC   NC334391  31.031   1.606   9.523
 2606POPC   PO434392  30.969   2.280   9.274
 2606POPC   GL134393  30.870   2.018   9.039
 2606POPC   GL234394  30.599   1.858   9.157
 2606POPC   C1A34395  30.952   1.876   8.663
 2606POPC   D2A34396  30.862   1.533   8.418
 2606POPC   C3A34397  30.840   1.728   8.019
 2606POPC   C4A34398  30.763   1.829   7.593
 2606POPC   C1B34399  30.433   1.972   8.759
 2606POPC   C2B34400  30.429   1.823   8.343
 2606POPC   C3B34401  30.453   2.051   7.952
 2606POPC   C4B34402  30.312   2.451   7.988
 2607POPC   NC334403  44.128  36.088   9.447
 2607POPC   PO434404  43.677  35.561   9.518
 2607POPC   GL134405  43.624  35.818   9.112
 2607POPC   GL234406  43.663  36.187   9.080
 2607POPC   C1A34407  43.721  35.940   8.653
 2607POPC   D2A34408  43.975  36.021   8.277
 2607POPC   C3A34409  44.275  35.919   7.958
 2607POPC   C4A34410  44.194  35.908   7.508
 2607POPC   C1B34411  43.848  36.470   8.749
 2607POPC   C2B34412  43.888  36.520   8.307
 2607POPC   C3B34413  43.799  36.316   7.886
 2607POPC   C4B34414  43.987  36.404   7.502
 2608POPC   NC334415   2.988   0.649   9.429
 2608POPC   PO434416   2.592   0.130   9.546
 2608POPC   GL134417   2.517   0.345   9.160
 2608POPC   GL234418   2.784   0.496   8.991
 2608POPC   C1A34419   2.268   0.294   8.785
 2608POPC   D2A34420   2.294   0.095   8.411
 2608POPC   C3A34421   2.258   0.220   8.001
 2608POPC   C4A34422   2.555   0.132   7.675
 2608POPC   C1B34423   2.754   0.220   8.619
 2608POPC   C2B34424   2.735   0.197   8.165
 2608POPC   C3B34425   2.673   0.559   7.893
 2608POPC   C4B34426   2.970   0.797   7.735
 2609POPC   NC334427   5.304  25.906   9.800
 2609POPC   PO434428   5.306  25.293   9.559
 2609POPC   GL134429   5.252  25.192   9.162
 2609POPC   GL234430   5.360  25.538   9.070
 2609POPC   C1A34431   5.292  25.155   8.738
 2609POPC   D2A34432   5.214  25.453   8.407
 2609POPC   C3A34433   5.231  25.195   8.039
 2609POPC   C4A34434   5.546  25.155   7.714
 2609POPC   C1B34435   4.923  25.512   8.891
 2609POPC   C2B34436   4.684  25.622   8.516
 2609POPC   C3B34437   4.781  25.458   8.096
 2609POPC   C4B34438   4.991  25.480   7.705
 2610POPC   NC334439  33.627  15.380   9.435
 2610POPC   PO434440  34.032  14.840   9.719
 2610POPC   GL134441  33.984  15.021   9.256
 2610POPC   GL234442  34.029  15.319   8.989
 2610POPC   C1A34443  33.778  14.900   8.870
 2610POPC   D2A34444  33.858  15.064   8.482
 2610POPC   C3A34445  33.731  14.944   8.136
 2610POPC   C4A34446  33.769  14.905   7.738
 2610POPC   C1B34447  33.742  15.500   8.677
 2610POPC   C2B34448  33.610  15.438   8.201
 2610POPC   C3B34449  33.780  15.445   7.741
 2610POPC   C4B34450  34.100  15.522   7.382
 2611POPC   NC334451   2.074  30.429   9.591
 2611POPC   PO434452   2.290  31.039   9.296
 2611POPC   GL134453   1.970  30.778   9.159
 2611POPC   GL234454   2.117  30.482   9.106
 2611POPC   C1A34455   1.777  30.669   8.787
 2611POPC   D2A34456   2.033  30.647   8.417
 2611POPC   C3A34457   1.890  30.841   8.050
 2611POPC   C4A34458   1.747  30.615   7.689
 2611POPC   C1B34459   2.244  30.328   8.760
 2611POPC   C2B34460   2.478  30.296   8.384
 2611POPC   C3B34461   2.307  30.247   7.943
 2611POPC   C4B34462   2.323  30.281   7.470
 2612POPC   NC334463   4.834  20.318   9.402
 2612POPC   PO434464   5.286  20.741   9.499
 2612POPC   GL134465   5.377  20.633   9.077
 2612POPC   GL234466   5.191  20.323   9.026
 2612POPC   C1A34467   5.490  20.722   8.641
 2612POPC   D2A34468   5.369  20.671   8.211
 2612POPC   C3A34469   5.215  20.881   7.872
 2612POPC   C4A34470   4.766  20.876   7.723
 2612POPC   C1B34471   5.173  20.099   8.648
 2612POPC   C2B34472   5.065  20.263   8.237
 2612POPC   C3B34473   5.001  20.412   7.822
 2612POPC   C4B34474   4.944  20.224   7.390
 2613POPC   NC334475  26.230  37.202   9.446
 2613POPC   PO434476  25.803  37.666   9.572
 2613POPC   GL134477  25.882  37.500   9.197
 2613POPC   GL234478  26.215  37.660   9.205
 2613POPC   C1A34479  25.869  37.653   8.794
 2613POPC   D2A34480  26.101  37.698   8.446
 2613POPC   C3A34481  25.884  37.743   8.123
 2613POPC   C4A34482  26.013  37.679   7.748
 2613POPC   C1B34483  26.366  37.492   8.854
 2613POPC   C2B34484  26.401  37.288   8.482
 2613POPC   C3B34485  26.342  37.386   8.073
 2613POPC   C4B34486  26.198  37.183   7.693
 2614POPC   NC334487  13.952  43.072   9.553
 2614POPC   PO434488  14.556  43.195   9.652
 2614POPC   GL134489  14.493  43.253   9.187
 2614POPC   GL234490  14.720  43.486   8.987
 2614POPC   C1A34491  14.443  43.092   8.760
 2614POPC   D2A34492  14.385  42.697   8.544
 2614POPC   C3A34493  14.463  42.706   8.103
 2614POPC   C4A34494  14.149  42.821   7.789
 2614POPC   C1B34495  14.780  43.389   8.524
 2614POPC   C2B34496  14.471  43.187   8.268
 2614POPC   C3B34497  14.171  43.292   8.012
 2614POPC   C4B34498  14.137  43.639   7.806
 2615POPC   NC334499  27.739  37.407   9.566
 2615POPC   PO434500  27.458  38.033   9.453
 2615POPC   GL134501  27.718  37.770   9.196
 2615POPC   GL234502  27.404  37.760   9.011
 2615POPC   C1A34503  27.832  37.606   8.784
 2615POPC   D2A34504  27.529  37.666   8.440
 2615POPC   C3A34505  27.661  37.646   7.990
 2615POPC   C4A34506  27.299  37.556   7.711
 2615POPC   C1B34507  27.178  38.147   8.834
 2615POPC   C2B34508  27.023  38.115   8.421
 2615POPC   C3B34509  27.182  37.862   8.116
 2615POPC   C4B34510  27.422  38.039   7.783
 2616POPC   NC334511  18.957  42.649   9.518
 2616POPC   PO434512  19.387  42.098   9.524
 2616POPC   GL134513  19.057  42.240   9.211
 2616POPC   GL234514  19.046  42.567   9.037
 2616POPC   C1A34515  18.844  42.156   8.812
 2616POPC   D2A34516  18.921  41.959   8.412
 2616POPC   C3A34517  18.961  42.179   8.029
 2616POPC   C4A34518  18.689  42.439   7.793
 2616POPC   C1B34519  18.877  42.685   8.644
 2616POPC   C2B34520  19.009  42.648   8.230
 2616POPC   C3B34521  19.375  42.497   8.043
 2616POPC   C4B34522  19.511  42.548   7.614
 2617POPC   NC334523  19.220  21.219   9.347
 2617POPC   PO434524  19.263  21.937   9.546
 2617POPC   GL134525  19.251  21.682   9.145
 2617POPC   GL234526  18.927  21.678   9.053
 2617POPC   C1A34527  19.265  21.373   8.745
 2617POPC   D2A34528  19.159  20.974   8.502
 2617POPC   C3A34529  19.301  20.993   8.065
 2617POPC   C4A34530  19.174  21.352   7.841
 2617POPC   C1B34531  19.044  21.817   8.683
 2617POPC   C2B34532  19.073  21.592   8.305
 2617POPC   C3B34533  18.898  21.762   7.961
 2617POPC   C4B34534  18.891  21.643   7.552
 2618POPC   NC334535  42.745  40.130   9.478
 2618POPC   PO434536  43.356  39.811   9.454
 2618POPC   GL134537  43.179  39.829   9.103
 2618POPC   GL234538  43.133  40.157   9.143
 2618POPC   C1A34539  43.327  39.987   8.716
 2618POPC   D2A34540  43.373  39.746   8.360
 2618POPC   C3A34541  43.221  39.923   7.986
 2618POPC   C4A34542  43.025  39.822   7.629
 2618POPC   C1B34543  42.881  40.249   8.827
 2618POPC   C2B34544  42.966  40.154   8.404
 2618POPC   C3B34545  42.803  40.205   8.019
 2618POPC   C4B34546  43.006  40.381   7.704
 2619POPC   NC334547  23.208  19.532   9.492
 2619POPC   PO434548  22.772  20.021   9.496
 2619POPC   GL134549  22.886  19.787   9.150
 2619POPC   GL234550  23.213  19.905   9.096
 2619POPC   C1A34551  22.849  19.699   8.705
 2619POPC   D2A34552  22.680  19.820   8.308
 2619POPC   C3A34553  22.909  19.714   7.921
 2619POPC   C4A34554  22.955  19.301   7.752
 2619POPC   C1B34555  23.155  20.128   8.716
 2619POPC   C2B34556  23.218  19.926   8.290
 2619POPC   C3B34557  23.387  20.051   7.869
 2619POPC   C4B34558  23.320  20.025   7.400
 2620POPC   NC334559  30.904  36.795   9.483
 2620POPC   PO434560  30.396  37.137   9.355
 2620POPC   GL134561  30.633  36.918   9.088
 2620POPC   GL234562  30.514  36.603   9.042
 2620POPC   C1A34563  30.888  36.817   8.722
 2620POPC   D2A34564  30.816  36.760   8.280
 2620POPC   C3A34565  31.022  36.960   7.957
 2620POPC   C4A34566  31.013  36.790   7.551
 2620POPC   C1B34567  30.381  36.816   8.672
 2620POPC   C2B34568  30.297  36.686   8.272
 2620POPC   C3B34569  30.459  36.879   7.900
 2620POPC   C4B34570  30.288  37.188   7.632
 2621POPC   NC334571  32.381  28.891   9.333
 2621POPC   PO434572  31.952  29.405   9.353
 2621POPC   GL134573  32.255  29.335   9.065
 2621POPC   GL234574  32.041  29.076   8.954
 2621POPC   C1A34575  32.343  29.418   8.639
 2621POPC   D2A34576  32.015  29.359   8.316
 2621POPC   C3A34577  32.097  29.190   7.879
 2621POPC   C4A34578  32.466  29.273   7.538
 2621POPC   C1B34579  32.294  28.918   8.621
 2621POPC   C2B34580  32.444  29.088   8.256
 2621POPC   C3B34581  32.520  28.908   7.899
 2621POPC   C4B34582  32.523  28.668   7.591
 2622POPC   NC334583  25.078  13.904   9.617
 2622POPC   PO434584  25.619  13.493   9.598
 2622POPC   GL134585  25.482  13.823   9.285
 2622POPC   GL234586  25.272  13.576   9.196
 2622POPC   C1A34587  25.379  13.902   8.813
 2622POPC   D2A34588  25.410  13.701   8.388
 2622POPC   C3A34589  25.278  13.851   8.008
 2622POPC   C4A34590  25.270  13.657   7.611
 2622POPC   C1B34591  25.293  13.392   8.784
 2622POPC   C2B34592  25.024  13.328   8.399
 2622POPC   C3B34593  24.992  13.419   7.958
 2622POPC   C4B34594  24.909  13.297   7.522
 2623POPC   NC334595  44.378   2.275   9.445
 2623POPC   PO434596   0.088   2.105   9.488
 2623POPC   GL134597  44.966   1.898   9.106
 2623POPC   GL234598  44.611   1.967   9.036
 2623POPC   C1A34599  44.973   1.835   8.665
 2623POPC   D2A34600  44.635   1.916   8.407
 2623POPC   C3A34601  44.749   1.801   8.001
 2623POPC   C4A34602   0.049   1.781   7.702
 2623POPC   C1B34603  44.420   2.260   8.722
 2623POPC   C2B34604  44.449   2.408   8.327
 2623POPC   C3B34605  44.340   2.125   8.037
 2623POPC   C4B34606  44.365   1.884   7.682
 2624POPC   NC334607  14.458   1.488   9.761
 2624POPC   PO434608  14.188   2.079   9.482
 2624POPC   GL134609  14.282   2.152   9.058
 2624POPC   GL234610  13.984   2.332   8.933
 2624POPC   C1A34611  14.624   2.259   8.764
 2624POPC   D2A34612  14.662   2.012   8.382
 2624POPC   C3A34613  14.483   2.102   7.986
 2624POPC   C4A34614  14.547   1.776   7.683
 2624POPC   C1B34615  14.164   2.173   8.558
 2624POPC   C2B34616  14.168   1.808   8.310
 2624POPC   C3B34617  14.056   1.821   7.901
 2624POPC   C4B34618  13.950   2.064   7.528
 2625POPC   NC334619   2.082  31.893   9.523
 2625POPC   PO434620   1.763  32.509   9.837
 2625POPC   GL134621   1.805  32.304   9.328
 2625POPC   GL234622   1.755  31.947   9.150
 2625POPC   C1A34623   1.873  32.302   8.823
 2625POPC   D2A34624   2.064  32.145   8.411
 2625POPC   C3A34625   2.168  32.401   8.016
 2625POPC   C4A34626   2.332  32.315   7.583
 2625POPC   C1B34627   1.493  31.941   8.760
 2625POPC   C2B34628   1.639  31.874   8.350
 2625POPC   C3B34629   1.735  32.083   7.991
 2625POPC   C4B34630   1.710  31.919   7.592
 2626POPC   NC334631  31.152  11.889   9.527
 2626POPC   PO434632  30.481  11.846   9.420
 2626POPC   GL134633  30.653  11.957   9.027
 2626POPC   GL234634  31.018  11.988   9.045
 2626POPC   C1A34635  30.433  12.191   8.687
 2626POPC   D2A34636  30.438  12.521   8.402
 2626POPC   C3A34637  30.649  12.427   8.005
 2626POPC   C4A34638  30.733  12.244   7.587
 2626POPC   C1B34639  30.930  12.055   8.618
 2626POPC   C2B34640  30.676  11.973   8.303
 2626POPC   C3B34641  30.761  11.671   8.030
 2626POPC   C4B34642  30.918  11.782   7.691
 2627POPC   NC334643   3.229  36.186   9.887
 2627POPC   PO434644   3.739  35.936   9.497
 2627POPC   GL134645   3.601  36.289   9.290
 2627POPC   GL234646   3.522  36.070   9.034
 2627POPC   C1A34647   3.661  36.532   8.915
 2627POPC   D2A34648   3.466  36.333   8.558
 2627POPC   C3A34649   3.483  36.333   8.120
 2627POPC   C4A34650   3.659  36.086   7.793
 2627POPC   C1B34651   3.288  35.881   8.738
 2627POPC   C2B34652   3.445  35.836   8.361
 2627POPC   C3B34653   3.237  35.878   8.014
 2627POPC   C4B34654   3.354  35.720   7.613
 2628POPC   NC334655  41.541  26.363   9.839
 2628POPC   PO434656  41.406  26.941   9.392
 2628POPC   GL134657  41.726  26.732   9.192
 2628POPC   GL234658  41.719  27.025   8.982
 2628POPC   C1A34659  41.957  26.597   8.812
 2628POPC   D2A34660  41.856  26.694   8.379
 2628POPC   C3A34661  41.665  26.454   8.046
 2628POPC   C4A34662  41.571  26.569   7.614
 2628POPC   C1B34663  41.445  26.797   8.727
 2628POPC   C2B34664  41.330  26.932   8.336
 2628POPC   C3B34665  41.559  26.950   7.975
 2628POPC   C4B34666  41.506  27.104   7.578
 2629POPC   NC334667  18.765  30.471   9.463
 2629POPC   PO434668  19.214  30.943   9.545
 2629POPC   GL134669  19.070  30.784   9.199
 2629POPC   GL234670  18.743  30.963   9.241
 2629POPC   C1A34671  19.160  30.607   8.816
 2629POPC   D2A34672  18.991  30.561   8.445
 2629POPC   C3A34673  19.275  30.344   8.181
 2629POPC   C4A34674  19.024  30.421   7.859
 2629POPC   C1B34675  18.669  30.771   8.869
 2629POPC   C2B34676  18.527  30.855   8.520
 2629POPC   C3B34677  18.639  30.829   8.102
 2629POPC   C4B34678  18.814  30.867   7.705
 2630POPC   NC334679  12.171  24.776   9.442
 2630POPC   PO434680  12.439  24.213   9.329
 2630POPC   GL134681  12.179  24.426   9.058
 2630POPC   GL234682  11.848  24.540   9.099
 2630POPC   C1A34683  12.163  24.702   8.713
 2630POPC   D2A34684  12.320  24.490   8.361
 2630POPC   C3A34685  12.245  24.659   7.979
 2630POPC   C4A34686  12.194  24.517   7.577
 2630POPC   C1B34687  11.890  24.261   8.685
 2630POPC   C2B34688  11.850  24.297   8.230
 2630POPC   C3B34689  11.766  24.392   7.805
 2630POPC   C4B34690  11.401  24.352   7.539
 2631POPC   NC334691  26.444  35.174   9.538
 2631POPC   PO434692  26.895  35.515   9.456
 2631POPC   GL134693  26.825  35.390   9.088
 2631POPC   GL234694  26.786  35.066   9.145
 2631POPC   C1A34695  26.678  35.396   8.702
 2631POPC   D2A34696  26.943  35.299   8.373
 2631POPC   C3A34697  26.776  35.298   8.014
 2631POPC   C4A34698  26.829  35.617   7.825
 2631POPC   C1B34699  27.104  35.052   8.790
 2631POPC   C2B34700  27.363  34.988   8.407
 2631POPC   C3B34701  27.287  35.151   8.013
 2631POPC   C4B34702  27.131  35.249   7.623
 2632POPC   NC334703  39.787  23.717   9.482
 2632POPC   PO434704  39.729  23.055   9.604
 2632POPC   GL134705  39.938  23.341   9.173
 2632POPC   GL234706  39.822  23.595   8.999
 2632POPC   C1A34707  40.250  23.439   8.798
 2632POPC   D2A34708  40.263  23.749   8.499
 2632POPC   C3A34709  40.189  23.632   8.099
 2632POPC   C4A34710  39.961  23.525   7.767
 2632POPC   C1B34711  39.793  23.911   8.692
 2632POPC   C2B34712  39.871  24.043   8.306
 2632POPC   C3B34713  39.813  24.028   7.901
 2632POPC   C4B34714  39.558  24.258   7.613
 2633POPC   NC334715  31.784  37.002   9.491
 2633POPC   PO434716  32.470  36.716   9.433
 2633POPC   GL134717  32.436  36.790   9.049
 2633POPC   GL234718  32.138  37.002   9.094
 2633POPC   C1A34719  32.642  36.734   8.676
 2633POPC   D2A34720  32.436  36.617   8.326
 2633POPC   C3A34721  32.618  36.764   7.970
 2633POPC   C4A34722  32.347  36.843   7.692
 2633POPC   C1B34723  32.397  37.240   8.804
 2633POPC   C2B34724  32.392  37.400   8.414
 2633POPC   C3B34725  32.290  37.179   8.069
 2633POPC   C4B34726  32.120  37.324   7.691
 2634POPC   NC334727  33.592  21.803   9.368
 2634POPC   PO434728  33.694  22.423   9.429
 2634POPC   GL134729  33.907  22.166   9.166
 2634POPC   GL234730  34.072  21.847   9.201
 2634POPC   C1A34731  33.814  22.030   8.760
 2634POPC   D2A34732  33.863  22.246   8.381
 2634POPC   C3A34733  33.664  22.115   8.002
 2634POPC   C4A34734  33.814  22.260   7.639
 2634POPC   C1B34735  34.211  21.742   8.812
 2634POPC   C2B34736  34.027  21.745   8.380
 2634POPC   C3B34737  34.106  21.869   7.990
 2634POPC   C4B34738  33.843  21.749   7.663
 2635POPC   NC334739  43.263  17.405   9.528
 2635POPC   PO434740  42.616  17.418   9.387
 2635POPC   GL134741  43.004  17.385   9.079
 2635POPC   GL234742  43.245  17.669   9.102
 2635POPC   C1A34743  43.172  17.416   8.641
 2635POPC   D2A34744  42.861  17.525   8.329
 2635POPC   C3A34745  42.919  17.394   7.909
 2635POPC   C4A34746  43.323  17.368   7.709
 2635POPC   C1B34747  43.463  17.910   8.830
 2635POPC   C2B34748  43.366  17.886   8.442
 2635POPC   C3B34749  43.299  17.707   8.094
 2635POPC   C4B34750  43.449  17.930   7.764
 2636POPC   NC334751  42.201  32.602   9.515
 2636POPC   PO434752  42.700  33.112   9.538
 2636POPC   GL134753  42.513  32.961   9.167
 2636POPC   GL234754  42.166  33.037   9.173
 2636POPC   C1A34755  42.445  33.160   8.739
 2636POPC   D2A34756  42.247  33.257   8.353
 2636POPC   C3A34757  42.382  33.128   7.910
 2636POPC   C4A34758  42.370  32.890   7.475
 2636POPC   C1B34759  41.976  32.952   8.781
 2636POPC   C2B34760  41.825  32.954   8.380
 2636POPC   C3B34761  41.879  33.167   8.034
 2636POPC   C4B34762  41.999  33.205   7.595
 2637POPC   NC334763  13.108   8.585   9.543
 2637POPC   PO434764  13.079   7.965   9.356
 2637POPC   GL134765  12.935   8.339   9.121
 2637POPC   GL234766  13.228   8.572   9.053
 2637POPC   C1A34767  12.699   8.314   8.727
 2637POPC   D2A34768  12.529   7.890   8.543
 2637POPC   C3A34769  12.509   7.757   8.104
 2637POPC   C4A34770  12.559   8.014   7.765
 2637POPC   C1B34771  13.231   8.245   8.714
 2637POPC   C2B34772  12.984   8.174   8.321
 2637POPC   C3B34773  12.990   8.263   7.891
 2637POPC   C4B34774  13.230   8.032   7.574
 2638POPC   NC334775   9.169  40.991   9.579
 2638POPC   PO434776   8.744  40.563   9.495
 2638POPC   GL134777   9.016  40.640   9.165
 2638POPC   GL234778   9.000  40.981   9.116
 2638POPC   C1A34779   9.168  40.704   8.742
 2638POPC   D2A34780   8.997  40.857   8.362
 2638POPC   C3A34781   9.130  40.623   7.993
 2638POPC   C4A34782   8.908  40.463   7.654
 2638POPC   C1B34783   8.824  41.208   8.802
 2638POPC   C2B34784   8.915  41.386   8.426
 2638POPC   C3B34785   8.887  41.256   8.019
 2638POPC   C4B34786   8.954  41.002   7.672
 2639POPC   NC334787  32.322  27.996   9.353
 2639POPC   PO434788  32.078  27.365   9.585
 2639POPC   GL134789  32.167  27.542   9.192
 2639POPC   GL234790  32.516  27.501   9.289
 2639POPC   C1A34791  32.222  27.744   8.761
 2639POPC   D2A34792  32.455  27.831   8.365
 2639POPC   C3A34793  32.247  27.760   7.978
 2639POPC   C4A34794  32.228  27.915   7.561
 2639POPC   C1B34795  32.657  27.244   8.953
 2639POPC   C2B34796  32.703  27.257   8.503
 2639POPC   C3B34797  32.629  27.324   8.051
 2639POPC   C4B34798  32.457  27.439   7.643
 2640POPC   NC334799  43.369  19.744   9.270
 2640POPC   PO434800  42.818  19.328   9.386
 2640POPC   GL134801  42.945  19.607   9.059
 2640POPC   GL234802  42.886  19.953   9.132
 2640POPC   C1A34803  42.957  19.759   8.628
 2640POPC   D2A34804  42.920  19.815   8.183
 2640POPC   C3A34805  43.274  19.722   7.905
 2640POPC   C4A34806  43.212  19.611   7.472
 2640POPC   C1B34807  43.156  20.188   8.826
 2640POPC   C2B34808  43.294  20.135   8.403
 2640POPC   C3B34809  43.180  20.222   7.997
 2640POPC   C4B34810  43.396  20.141   7.611
 2641POPC   NC334811  33.380  14.411   9.436
 2641POPC   PO434812  32.763  14.504   9.464
 2641POPC   GL134813  32.951  14.399   9.083
 2641POPC   GL234814  33.066  14.091   9.138
 2641POPC   C1A34815  32.967  14.387   8.628
 2641POPC   D2A34816  32.762  14.516   8.250
 2641POPC   C3A34817  32.934  14.726   7.948
 2641POPC   C4A34818  32.975  14.433   7.642
 2641POPC   C1B34819  33.256  13.965   8.771
 2641POPC   C2B34820  33.429  14.163   8.419
 2641POPC   C3B34821  33.191  14.192   8.063
 2641POPC   C4B34822  33.312  14.066   7.658
 2642POPC   NC334823  24.997  29.968   9.425
 2642POPC   PO434824  25.663  30.198   9.415
 2642POPC   GL134825  25.415  30.235   9.072
 2642POPC   GL234826  25.320  29.873   9.023
 2642POPC   C1A34827  25.447  30.162   8.615
 2642POPC   D2A34828  25.432  29.795   8.352
 2642POPC   C3A34829  25.348  29.849   7.910
 2642POPC   C4A34830  25.401  30.048   7.489
 2642POPC   C1B34831  24.985  29.888   8.695
 2642POPC   C2B34832  24.926  29.882   8.247
 2642POPC   C3B34833  24.916  29.581   7.896
 2642POPC   C4B34834  25.246  29.371   7.711
 2643POPC   NC334835  38.106  35.192   9.428
 2643POPC   PO434836  38.738  35.358   9.601
 2643POPC   GL134837  38.549  35.350   9.174
 2643POPC   GL234838  38.304  35.612   9.196
 2643POPC   C1A34839  38.646  35.284   8.717
 2643POPC   D2A34840  38.580  35.061   8.309
 2643POPC   C3A34841  38.768  35.072   7.892
 2643POPC   C4A34842  38.811  35.364   7.555
 2643POPC   C1B34843  38.242  35.619   8.754
 2643POPC   C2B34844  38.474  35.625   8.360
 2643POPC   C3B34845  38.399  35.448   7.969
 2643POPC   C4B34846  38.111  35.562   7.656
 2644POPC   NC334847   2.054  44.082   9.520
 2644POPC   PO434848   1.602  43.570   9.289
 2644POPC   GL134849   1.812  43.895   9.066
 2644POPC   GL234850   2.178  43.921   9.056
 2644POPC   C1A34851   1.930  43.868   8.641
 2644POPC   D2A34852   2.044  44.117   8.323
 2644POPC   C3A34853   1.910  43.942   7.915
 2644POPC   C4A34854   2.004  43.532   7.734
 2644POPC   C1B34855   2.365  44.205   8.728
 2644POPC   C2B34856   2.545  44.264   8.291
 2644POPC   C3B34857   2.249  44.334   7.937
 2644POPC   C4B34858   2.232  44.162   7.567
 2645POPC   NC334859  28.792  23.099   9.413
 2645POPC   PO434860  29.297  22.640   9.540
 2645POPC   GL134861  29.248  22.897   9.182
 2645POPC   GL234862  29.489  22.773   8.947
 2645POPC   C1A34863  29.007  22.896   8.779
 2645POPC   D2A34864  29.147  22.790   8.335
 2645POPC   C3A34865  28.921  22.856   7.917
 2645POPC   C4A34866  28.770  22.729   7.471
 2645POPC   C1B34867  29.427  23.138   8.614
 2645POPC   C2B34868  29.260  23.294   8.215
 2645POPC   C3B34869  29.338  23.172   7.780
 2645POPC   C4B34870  29.364  23.284   7.331
 2646POPC   NC334871   2.554   6.745   9.467
 2646POPC   PO434872   3.081   6.550   9.399
 2646POPC   GL134873   2.920   6.729   9.043
 2646POPC   GL234874   2.669   6.492   9.038
 2646POPC   C1A34875   2.970   6.595   8.605
 2646POPC   D2A34876   2.956   6.418   8.182
 2646POPC   C3A34877   2.989   6.776   7.902
 2646POPC   C4A34878   2.886   6.817   7.469
 2646POPC   C1B34879   2.470   6.705   8.707
 2646POPC   C2B34880   2.585   6.768   8.264
 2646POPC   C3B34881   2.471   6.581   7.863
 2646POPC   C4B34882   2.430   6.359   7.455
 2647POPC   NC334883   3.457   6.306   9.446
 2647POPC   PO434884   3.745   6.895   9.490
 2647POPC   GL134885   3.760   6.616   9.138
 2647POPC   GL234886   3.442   6.664   9.062
 2647POPC   C1A34887   3.728   6.421   8.700
 2647POPC   D2A34888   3.972   6.353   8.292
 2647POPC   C3A34889   3.719   6.340   7.916
 2647POPC   C4A34890   3.356   6.465   7.706
 2647POPC   C1B34891   3.419   6.846   8.687
 2647POPC   C2B34892   3.417   6.632   8.291
 2647POPC   C3B34893   3.519   6.871   7.956
 2647POPC   C4B34894   3.367   6.974   7.576
 2648POPC   NC334895   3.905  38.705   9.526
 2648POPC   PO434896   3.523  38.157   9.464
 2648POPC   GL134897   3.689  38.394   9.156
 2648POPC   GL234898   3.906  38.094   9.080
 2648POPC   C1A34899   3.515  38.675   8.812
 2648POPC   D2A34900   3.365  38.581   8.392
 2648POPC   C3A34901   3.575  38.699   8.019
 2648POPC   C4A34902   3.324  38.605   7.621
 2648POPC   C1B34903   4.001  37.911   8.683
 2648POPC   C2B34904   3.755  37.925   8.289
 2648POPC   C3B34905   3.528  38.190   7.956
 2648POPC   C4B34906   3.489  38.152   7.502
 2649POPC   NC334907  24.125   5.643   9.432
 2649POPC   PO434908  24.177   6.385   9.393
 2649POPC   GL134909  24.300   6.141   9.009
 2649POPC   GL234910  24.193   5.781   8.954
 2649POPC   C1A34911  24.677   5.892   8.809
 2649POPC   D2A34912  24.821   5.752   8.384
 2649POPC   C3A34913  24.587   5.968   8.063
 2649POPC   C4A34914  24.653   6.149   7.652
 2649POPC   C1B34915  23.985   5.419   8.762
 2649POPC   C2B34916  23.979   5.389   8.323
 2649POPC   C3B34917  23.983   5.683   7.980
 2649POPC   C4B34918  24.303   5.770   7.642
 2650POPC   NC334919  28.874  30.484   9.321
 2650POPC   PO434920  28.232  30.673   9.615
 2650POPC   GL134921  28.316  30.448   9.227
 2650POPC   GL234922  28.480  30.710   9.110
 2650POPC   C1A34923  28.331  30.410   8.750
 2650POPC   D2A34924  28.137  30.449   8.361
 2650POPC   C3A34925  28.356  30.558   7.978
 2650POPC   C4A34926  28.225  30.702   7.581
 2650POPC   C1B34927  28.585  30.916   8.713
 2650POPC   C2B34928  28.675  30.842   8.271
 2650POPC   C3B34929  28.754  30.949   7.832
 2650POPC   C4B34930  28.713  30.794   7.414
 2651POPC   NC334931  39.143  18.950   9.502
 2651POPC   PO434932  39.529  19.397   9.778
 2651POPC   GL134933  39.554  18.983   9.247
 2651POPC   GL234934  39.492  18.634   9.247
 2651POPC   C1A34935  39.423  19.112   8.762
 2651POPC   D2A34936  39.194  19.351   8.405
 2651POPC   C3A34937  39.322  19.281   7.979
 2651POPC   C4A34938  39.498  19.214   7.547
 2651POPC   C1B34939  39.686  18.687   8.820
 2651POPC   C2B34940  39.658  18.816   8.388
 2651POPC   C3B34941  39.387  18.755   8.023
 2651POPC   C4B34942  38.968  18.881   7.958
 2652POPC   NC334943  38.827  28.831   9.372
 2652POPC   PO434944  38.287  29.378   9.471
 2652POPC   GL134945  38.440  29.080   9.174
 2652POPC   GL234946  38.215  29.112   8.981
 2652POPC   C1A34947  38.639  28.992   8.734
 2652POPC   D2A34948  38.563  28.902   8.304
 2652POPC   C3A34949  38.642  29.169   7.950
 2652POPC   C4A34950  38.788  29.033   7.528
 2652POPC   C1B34951  38.134  28.762   8.775
 2652POPC   C2B34952  37.954  28.770   8.378
 2652POPC   C3B34953  38.130  29.028   8.065
 2652POPC   C4B34954  38.072  29.328   7.748
 2653POPC   NC334955  16.174  10.131   9.564
 2653POPC   PO434956  15.815  10.729   9.612
 2653POPC   GL134957  15.893  10.510   9.225
 2653POPC   GL234958  16.231  10.405   9.123
 2653POPC   C1A34959  15.674  10.475   8.821
 2653POPC   D2A34960  15.902  10.368   8.459
 2653POPC   C3A34961  15.751  10.485   8.053
 2653POPC   C4A34962  15.738  10.442   7.624
 2653POPC   C1B34963  16.116  10.714   8.792
 2653POPC   C2B34964  16.067  10.848   8.363
 2653POPC   C3B34965  16.218  10.716   7.962
 2653POPC   C4B34966  16.269  10.571   7.538
 2654POPC   NC334967  16.214   8.431   9.458
 2654POPC   PO434968  15.799   7.885   9.518
 2654POPC   GL134969  15.956   8.082   9.151
 2654POPC   GL234970  16.270   7.978   9.042
 2654POPC   C1A34971  15.795   7.922   8.738
 2654POPC   D2A34972  15.668   8.165   8.405
 2654POPC   C3A34973  15.677   8.072   7.969
 2654POPC   C4A34974  15.937   8.367   7.724
 2654POPC   C1B34975  16.091   8.326   8.714
 2654POPC   C2B34976  16.141   8.364   8.251
 2654POPC   C3B34977  16.175   8.009   7.994
 2654POPC   C4B34978  16.184   7.593   7.830
 2655POPC   NC334979  27.794  25.158   9.555
 2655POPC   PO434980  27.547  25.701   9.673
 2655POPC   GL134981  27.615  25.542   9.237
 2655POPC   GL234982  27.425  25.239   9.185
 2655POPC   C1A34983  27.738  25.321   8.794
 2655POPC   D2A34984  27.961  25.189   8.377
 2655POPC   C3A34985  27.851  25.345   7.959
 2655POPC   C4A34986  27.707  24.997   7.725
 2655POPC   C1B34987  27.246  25.568   8.899
 2655POPC   C2B34988  27.291  25.667   8.465
 2655POPC   C3B34989  27.345  25.389   8.103
 2655POPC   C4B34990  27.249  25.475   7.677
 2656POPC   NC334991  39.117  12.204   9.648
 2656POPC   PO434992  39.540  11.735   9.654
 2656POPC   GL134993  39.409  12.016   9.284
 2656POPC   GL234994  39.042  12.033   9.173
 2656POPC   C1A34995  39.408  12.225   8.901
 2656POPC   D2A34996  39.164  12.076   8.566
 2656POPC   C3A34997  39.343  12.102   8.166
 2656POPC   C4A34998  39.113  12.346   7.899
 2656POPC   C1B34999  39.227  11.690   8.919
 2656POPC   C2B35000  39.152  11.541   8.513
 2656POPC   C3B35001  38.995  11.745   8.214
 2656POPC   C4B35002  39.081  11.825   7.803
 2657POPC   NC335003  32.015  35.592   9.549
 2657POPC   PO435004  32.546  35.258   9.490
 2657POPC   GL135005  32.360  35.182   9.125
 2657POPC   GL235006  32.111  35.414   9.079
 2657POPC   C1A35007  32.294  35.142   8.704
 2657POPC   D2A35008  32.417  35.302   8.382
 2657POPC   C3A35009  32.264  35.181   8.047
 2657POPC   C4A35010  32.356  35.207   7.652
 2657POPC   C1B35011  32.150  35.654   8.671
 2657POPC   C2B35012  32.072  35.651   8.226
 2657POPC   C3B35013  32.264  35.718   7.827
 2657POPC   C4B35014  32.232  35.638   7.378
 2658POPC   NC335015  35.793  38.653   9.230
 2658POPC   PO435016  35.205  38.262   9.359
 2658POPC   GL135017  35.371  38.401   9.051
 2658POPC   GL235018  35.143  38.675   9.063
 2658POPC   C1A35019  35.138  38.330   8.681
 2658POPC   D2A35020  35.184  38.465   8.285
 2658POPC   C3A35021  34.956  38.195   8.036
 2658POPC   C4A35022  35.026  38.240   7.636
 2658POPC   C1B35023  35.411  38.792   8.714
 2658POPC   C2B35024  35.585  38.823   8.308
 2658POPC   C3B35025  35.354  38.834   7.939
 2658POPC   C4B35026  35.560  38.885   7.565
 2659POPC   NC335027  13.060  41.052   9.313
 2659POPC   PO435028  12.735  40.421   9.451
 2659POPC   GL135029  12.807  40.652   9.082
 2659POPC   GL235030  12.590  40.926   9.035
 2659POPC   C1A35031  12.978  40.847   8.698
 2659POPC   D2A35032  12.885  41.048   8.309
 2659POPC   C3A35033  13.043  40.833   7.987
 2659POPC   C4A35034  13.260  41.012   7.721
 2659POPC   C1B35035  12.475  40.966   8.616
 2659POPC   C2B35036  12.547  40.676   8.272
 2659POPC   C3B35037  12.578  40.743   7.840
 2659POPC   C4B35038  12.553  40.854   7.441
 2660POPC   NC335039  27.762  39.123   9.613
 2660POPC   PO435040  27.368  39.550   9.303
 2660POPC   GL135041  27.307  39.199   9.019
 2660POPC   GL235042  27.563  38.961   9.107
 2660POPC   C1A35043  27.429  39.068   8.599
 2660POPC   D2A35044  27.748  39.297   8.364
 2660POPC   C3A35045  27.663  39.369   7.946
 2660POPC   C4A35046  27.488  39.098   7.671
 2660POPC   C1B35047  27.906  39.057   8.813
 2660POPC   C2B35048  28.101  38.920   8.461
 2660POPC   C3B35049  27.918  38.867   8.083
 2660POPC   C4B35050  28.023  39.078   7.733
 2661POPC   NC335051  29.500  12.312   9.334
 2661POPC   PO435052  28.949  12.674   9.589
 2661POPC   GL135053  28.903  12.821   9.149
 2661POPC   GL235054  29.229  12.842   8.970
 2661POPC   C1A35055  28.825  13.060   8.796
 2661POPC   D2A35056  28.912  12.847   8.428
 2661POPC   C3A35057  29.130  13.007   8.103
 2661POPC   C4A35058  28.965  13.053   7.707
 2661POPC   C1B35059  29.457  12.570   8.728
 2661POPC   C2B35060  29.375  12.601   8.345
 2661POPC   C3B35061  29.457  12.386   8.000
 2661POPC   C4B35062  29.187  12.606   7.782
 2662POPC   NC335063  39.422  17.980   9.734
 2662POPC   PO435064  39.074  18.504   9.643
 2662POPC   GL135065  39.217  18.189   9.303
 2662POPC   GL235066  39.398  17.866   9.245
 2662POPC   C1A35067  39.529  18.222   8.930
 2662POPC   D2A35068  39.427  18.365   8.496
 2662POPC   C3A35069  39.318  18.235   8.081
 2662POPC   C4A35070  38.999  18.391   7.773
 2662POPC   C1B35071  39.112  17.966   8.862
 2662POPC   C2B35072  38.965  17.975   8.426
 2662POPC   C3B35073  38.946  17.911   7.991
 2662POPC   C4B35074  39.308  17.828   7.758
 2663POPC   NC335075  39.888  27.955   9.962
 2663POPC   PO435076  40.077  28.251   9.404
 2663POPC   GL135077  39.879  28.284   9.070
 2663POPC   GL235078  39.758  28.606   9.179
 2663POPC   C1A35079  39.912  28.095   8.716
 2663POPC   D2A35080  40.278  28.220   8.497
 2663POPC   C3A35081  40.361  28.439   8.107
 2663POPC   C4A35082  40.349  28.318   7.691
 2663POPC   C1B35083  39.626  28.568   8.745
 2663POPC   C2B35084  39.665  28.298   8.334
 2663POPC   C3B35085  39.859  28.405   7.904
 2663POPC   C4B35086  39.704  28.645   7.493
 2664POPC   NC335087   7.864  21.080   9.569
 2664POPC   PO435088   7.873  21.712   9.527
 2664POPC   GL135089   8.000  21.525   9.143
 2664POPC   GL235090   8.074  21.183   9.125
 2664POPC   C1A35091   8.142  21.570   8.720
 2664POPC   D2A35092   7.947  21.494   8.353
 2664POPC   C3A35093   8.106  21.583   7.980
 2664POPC   C4A35094   8.142  21.391   7.605
 2664POPC   C1B35095   8.094  21.047   8.697
 2664POPC   C2B35096   8.298  21.077   8.324
 2664POPC   C3B35097   8.080  21.071   7.992
 2664POPC   C4B35098   7.978  20.910   7.595
 2665POPC   NC335099   9.885  32.723   9.559
 2665POPC   PO435100  10.448  33.147   9.614
 2665POPC   GL135101  10.601  33.094   9.160
 2665POPC   GL235102  10.303  33.052   8.977
 2665POPC   C1A35103  10.745  33.006   8.721
 2665POPC   D2A35104  10.776  32.824   8.296
 2665POPC   C3A35105  10.646  33.034   7.907
 2665POPC   C4A35106  10.194  32.968   7.780
 2665POPC   C1B35107  10.391  33.347   8.604
 2665POPC   C2B35108  10.290  33.285   8.178
 2665POPC   C3B35109  10.180  33.470   7.775
 2665POPC   C4B35110  10.439  33.657   7.462
 2666POPC   NC335111   6.428  31.133   9.466
 2666POPC   PO435112   7.173  31.368   9.483
 2666POPC   GL135113   6.872  31.247   9.202
 2666POPC   GL235114   6.696  31.555   9.228
 2666POPC   C1A35115   6.667  31.172   8.821
 2666POPC   D2A35116   6.629  31.388   8.440
 2666POPC   C3A35117   6.901  31.364   8.136
 2666POPC   C4A35118   6.775  31.294   7.740
 2666POPC   C1B35119   6.654  31.701   8.817
 2666POPC   C2B35120   6.352  31.801   8.410
 2666POPC   C3B35121   6.485  31.636   7.985
 2666POPC   C4B35122   6.282  31.430   7.638
 2667POPC   NC335123   4.903   3.066   9.419
 2667POPC   PO435124   5.331   2.575   9.557
 2667POPC   GL135125   5.243   2.693   9.170
 2667POPC   GL235126   4.927   2.515   9.120
 2667POPC   C1A35127   5.406   2.720   8.746
 2667POPC   D2A35128   5.281   2.421   8.437
 2667POPC   C3A35129   5.322   2.561   8.020
 2667POPC   C4A35130   5.119   2.894   7.808
 2667POPC   C1B35131   4.919   2.814   8.795
 2667POPC   C2B35132   5.016   2.841   8.367
 2667POPC   C3B35133   4.827   2.523   8.137
 2667POPC   C4B35134   4.717   2.589   7.752
 2668POPC   NC335135  11.378  21.864   9.619
 2668POPC   PO435136  11.033  21.278   9.521
 2668POPC   GL135137  11.184  21.328   9.089
 2668POPC   GL235138  11.124  21.635   9.038
 2668POPC   C1A35139  11.394  21.166   8.747
 2668POPC   D2A35140  11.254  21.350   8.397
 2668POPC   C3A35141  11.388  21.340   8.022
 2668POPC   C4A35142  11.285  21.678   7.762
 2668POPC   C1B35143  11.481  21.692   8.715
 2668POPC   C2B35144  11.686  21.653   8.309
 2668POPC   C3B35145  11.797  21.598   7.870
 2668POPC   C4B35146  11.709  21.818   7.482
 2669POPC   NC335147  16.118  30.911   9.452
 2669POPC   PO435148  15.487  30.619   9.436
 2669POPC   GL135149  15.797  30.666   9.088
 2669POPC   GL235150  16.174  30.670   9.019
 2669POPC   C1A35151  15.777  30.812   8.656
 2669POPC   D2A35152  15.756  31.038   8.245
 2669POPC   C3A35153  15.748  30.705   7.927
 2669POPC   C4A35154  16.033  30.370   7.919
 2669POPC   C1B35155  16.216  31.039   8.763
 2669POPC   C2B35156  16.237  30.856   8.345
 2669POPC   C3B35157  16.171  31.054   7.963
 2669POPC   C4B35158  16.157  31.335   7.641
 2670POPC   NC335159   0.508   9.521   9.433
 2670POPC   PO435160   0.197  10.169   9.546
 2670POPC   GL135161   0.240   9.896   9.187
 2670POPC   GL235162   0.586   9.955   9.078
 2670POPC   C1A35163   0.325   9.653   8.789
 2670POPC   D2A35164   0.599   9.671   8.426
 2670POPC   C3A35165   0.504   9.732   8.002
 2670POPC   C4A35166   0.568   9.937   7.575
 2670POPC   C1B35167   0.329  10.156   8.746
 2670POPC   C2B35168   0.259  10.057   8.324
 2670POPC   C3B35169   0.177  10.096   7.888
 2670POPC   C4B35170  44.880  10.075   7.544
 2671POPC   NC335171  42.322  35.006   9.337
 2671POPC   PO435172  42.116  35.655   9.524
 2671POPC   GL135173  42.324  35.509   9.183
 2671POPC   GL235174  42.004  35.391   9.086
 2671POPC   C1A35175  42.474  35.323   8.775
 2671POPC   D2A35176  42.798  35.132   8.474
 2671POPC   C3A35177  42.594  35.089   8.035
 2671POPC   C4A35178  42.552  35.463   7.804
 2671POPC   C1B35179  42.053  35.690   8.771
 2671POPC   C2B35180  42.296  35.715   8.387
 2671POPC   C3B35181  42.110  35.620   7.994
 2671POPC   C4B35182  42.101  35.229   7.760
 2672POPC   NC335183  29.093  12.267   9.721
 2672POPC   PO435184  29.483  11.806   9.434
 2672POPC   GL135185  29.111  11.995   9.207
 2672POPC   GL235186  29.010  12.332   9.205
 2672POPC   C1A35187  29.218  12.064   8.770
 2672POPC   D2A35188  29.480  12.112   8.430
 2672POPC   C3A35189  29.514  11.855   8.087
 2672POPC   C4A35190  29.342  11.976   7.693
 2672POPC   C1B35191  28.954  12.481   8.784
 2672POPC   C2B35192  28.949  12.330   8.376
 2672POPC   C3B35193  28.983  12.170   7.991
 2672POPC   C4B35194  28.895  12.266   7.548
 2673POPC   NC335195  43.319   3.760   9.479
 2673POPC   PO435196  42.949   3.101   9.451
 2673POPC   GL135197  43.014   3.437   9.170
 2673POPC   GL235198  43.372   3.360   9.157
 2673POPC   C1A35199  43.126   3.708   8.816
 2673POPC   D2A35200  43.384   3.636   8.452
 2673POPC   C3A35201  43.270   3.492   8.033
 2673POPC   C4A35202  43.283   3.838   7.787
 2673POPC   C1B35203  43.323   3.229   8.761
 2673POPC   C2B35204  43.231   3.110   8.379
 2673POPC   C3B35205  43.269   2.976   7.969
 2673POPC   C4B35206  43.363   3.174   7.580
 2674POPC   NC335207  35.155  23.938   9.304
 2674POPC   PO435208  35.406  23.538   9.773
 2674POPC   GL135209  35.507  23.595   9.214
 2674POPC   GL235210  35.233  23.570   8.963
 2674POPC   C1A35211  35.618  23.846   8.805
 2674POPC   D2A35212  35.789  23.890   8.399
 2674POPC   C3A35213  35.623  23.688   8.061
 2674POPC   C4A35214  35.360  23.784   7.732
 2674POPC   C1B35215  34.905  23.747   8.708
 2674POPC   C2B35216  34.731  23.996   8.349
 2674POPC   C3B35217  34.905  23.978   7.928
 2674POPC   C4B35218  34.891  23.591   7.711
 2675POPC   NC335219  17.323  28.348   9.404
 2675POPC   PO435220  17.839  28.709   9.457
 2675POPC   GL135221  17.687  28.632   9.054
 2675POPC   GL235222  17.676  28.260   9.010
 2675POPC   C1A35223  17.356  28.559   8.757
 2675POPC   D2A35224  17.293  28.376   8.353
 2675POPC   C3A35225  17.703  28.330   8.197
 2675POPC   C4A35226  17.772  28.659   7.923
 2675POPC   C1B35227  17.357  28.029   8.743
 2675POPC   C2B35228  17.153  27.866   8.353
 2675POPC   C3B35229  17.045  28.096   7.985
 2675POPC   C4B35230  17.377  28.375   7.806
 2676POPC   NC335231   2.784  14.492   9.549
 2676POPC   PO435232   3.333  14.123   9.309
 2676POPC   GL135233   2.946  14.320   9.085
 2676POPC   GL235234   2.676  14.115   9.151
 2676POPC   C1A35235   2.692  14.494   8.710
 2676POPC   D2A35236   2.472  14.450   8.313
 2676POPC   C3A35237   2.796  14.492   7.981
 2676POPC   C4A35238   2.943  14.840   7.744
 2676POPC   C1B35239   2.480  14.044   8.755
 2676POPC   C2B35240   2.734  14.023   8.397
 2676POPC   C3B35241   2.575  14.020   8.006
 2676POPC   C4B35242   2.659  14.131   7.609
 2677POPC   NC335243  23.613  39.908   9.439
 2677POPC   PO435244  23.852  40.516   9.255
 2677POPC   GL135245  23.590  40.226   9.043
 2677POPC   GL235246  23.882  39.980   8.992
 2677POPC   C1A35247  23.399  40.049   8.676
 2677POPC   D2A35248  23.492  40.278   8.296
 2677POPC   C3A35249  23.456  40.180   7.849
 2677POPC   C4A35250  23.464  39.751   7.696
 2677POPC   C1B35251  23.892  40.013   8.536
 2677POPC   C2B35252  23.676  39.810   8.184
 2677POPC   C3B35253  23.928  39.942   7.866
 2677POPC   C4B35254  24.145  40.359   7.864
 2678POPC   NC335255  34.001   9.745   9.421
 2678POPC   PO435256  33.339   9.979   9.599
 2678POPC   GL135257  33.501   9.741   9.189
 2678POPC   GL235258  33.772   9.484   9.066
 2678POPC   C1A35259  33.611   9.827   8.740
 2678POPC   D2A35260  33.657  10.014   8.327
 2678POPC   C3A35261  33.487   9.845   7.934
 2678POPC   C4A35262  33.779   9.920   7.569
 2678POPC   C1B35263  33.631   9.297   8.705
 2678POPC   C2B35264  33.881   9.385   8.382
 2678POPC   C3B35265  33.906   9.620   8.057
 2678POPC   C4B35266  34.030   9.486   7.702
 2679POPC   NC335267  39.795  14.272   9.917
 2679POPC   PO435268  40.306  14.666   9.579
 2679POPC   GL135269  40.151  14.406   9.227
 2679POPC   GL235270  39.798  14.370   9.314
 2679POPC   C1A35271  40.140  14.563   8.783
 2679POPC   D2A35272  40.274  14.378   8.385
 2679POPC   C3A35273  40.305  14.543   7.975
 2679POPC   C4A35274  40.313  14.381   7.560
 2679POPC   C1B35275  39.688  14.320   8.881
 2679POPC   C2B35276  39.721  14.526   8.486
 2679POPC   C3B35277  39.813  14.515   8.087
 2679POPC   C4B35278  39.842  14.595   7.667
 2680POPC   NC335279  35.278  29.863   9.655
 2680POPC   PO435280  34.532  30.014   9.461
 2680POPC   GL135281  34.739  29.978   9.089
 2680POPC   GL235282  34.427  29.792   9.017
 2680POPC   C1A35283  34.832  29.802   8.673
 2680POPC   D2A35284  34.934  29.590   8.298
 2680POPC   C3A35285  34.779  29.742   7.879
 2680POPC   C4A35286  34.829  29.997   7.484
 2680POPC   C1B35287  34.394  30.075   8.697
 2680POPC   C2B35288  34.539  30.023   8.275
 2680POPC   C3B35289  34.575  30.230   7.878
 2680POPC   C4B35290  34.308  30.090   7.530
 2681POPC   NC335291  27.521  28.628   9.773
 2681POPC   PO435292  27.777  28.089   9.743
 2681POPC   GL135293  27.689  28.400   9.359
 2681POPC   GL235294  27.318  28.471   9.306
 2681POPC   C1A35295  27.771  28.529   8.927
 2681POPC   D2A35296  27.884  28.288   8.567
 2681POPC   C3A35297  27.781  28.438   8.161
 2681POPC   C4A35298  27.914  28.722   7.846
 2681POPC   C1B35299  27.226  28.603   8.879
 2681POPC   C2B35300  27.401  28.617   8.464
 2681POPC   C3B35301  27.366  28.707   7.988
 2681POPC   C4B35302  27.493  28.569   7.530
 2682POPC   NC335303   7.841  41.399   9.448
 2682POPC   PO435304   8.260  41.929   9.513
 2682POPC   GL135305   8.233  41.656   9.148
 2682POPC   GL235306   7.929  41.796   9.105
 2682POPC   C1A35307   8.308  41.329   8.805
 2682POPC   D2A35308   8.478  41.150   8.404
 2682POPC   C3A35309   8.374  41.339   8.007
 2682POPC   C4A35310   7.960  41.356   7.825
 2682POPC   C1B35311   7.985  41.714   8.668
 2682POPC   C2B35312   7.722  41.641   8.302
 2682POPC   C3B35313   7.802  41.859   7.940
 2682POPC   C4B35314   8.226  41.810   7.828
 2683POPC   NC335315   1.230  25.792   9.258
 2683POPC   PO435316   1.162  25.242   9.640
 2683POPC   GL135317   1.252  25.279   9.166
 2683POPC   GL235318   1.217  24.991   8.946
 2683POPC   C1A35319   1.437  25.406   8.741
 2683POPC   D2A35320   1.347  25.276   8.338
 2683POPC   C3A35321   1.353  25.556   7.999
 2683POPC   C4A35322   0.979  25.589   7.798
 2683POPC   C1B35323   0.912  25.105   8.621
 2683POPC   C2B35324   0.878  25.143   8.170
 2683POPC   C3B35325   1.195  25.097   7.847
 2683POPC   C4B35326   1.153  24.933   7.442
 2684POPC   NC335327   0.435  39.850   9.552
 2684POPC   PO435328  44.855  40.243   9.564
 2684POPC   GL135329   0.053  40.241   9.146
 2684POPC   GL235330   0.405  40.083   9.090
 2684POPC   C1A35331   0.076  40.106   8.694
 2684POPC   D2A35332   0.294  39.903   8.370
 2684POPC   C3A35333   0.274  40.014   7.925
 2684POPC   C4A35334   0.490  39.811   7.582
 2684POPC   C1B35335   0.612  40.199   8.688
 2684POPC   C2B35336   0.582  40.356   8.239
 2684POPC   C3B35337   0.758  40.223   7.819
 2684POPC   C4B35338   0.733  40.200   7.325
 2685POPC   NC335339  18.691  15.344   9.416
 2685POPC   PO435340  19.332  15.183   9.425
 2685POPC   GL135341  19.125  15.357   9.116
 2685POPC   GL235342  18.927  15.052   9.072
 2685POPC   C1A35343  18.954  15.482   8.753
 2685POPC   D2A35344  19.101  15.292   8.393
 2685POPC   C3A35345  18.992  15.473   8.004
 2685POPC   C4A35346  19.065  15.330   7.583
 2685POPC   C1B35347  18.649  15.061   8.721
 2685POPC   C2B35348  18.604  15.273   8.310
 2685POPC   C3B35349  18.719  15.060   7.914
 2685POPC   C4B35350  18.599  14.674   7.789
 2686POPC   NC335351  12.324  13.972   9.628
 2686POPC   PO435352  11.737  14.423   9.404
 2686POPC   GL135353  11.906  14.620   9.101
 2686POPC   GL235354  12.145  14.408   8.892
 2686POPC   C1A35355  11.725  14.580   8.719
 2686POPC   D2A35356  11.914  14.299   8.410
 2686POPC   C3A35357  11.921  14.401   7.958
 2686POPC   C4A35358  12.001  14.696   7.585
 2686POPC   C1B35359  12.436  14.460   8.614
 2686POPC   C2B35360  12.353  14.546   8.221
 2686POPC   C3B35361  12.409  14.519   7.822
 2686POPC   C4B35362  12.243  14.284   7.456
 2687POPC   NC335363  10.991  11.665   9.481
 2687POPC   PO435364  11.293  11.104   9.785
 2687POPC   GL135365  11.406  11.121   9.341
 2687POPC   GL235366  11.089  11.172   9.302
 2687POPC   C1A35367  11.588  11.061   8.898
 2687POPC   D2A35368  11.768  11.042   8.461
 2687POPC   C3A35369  11.531  11.261   8.122
 2687POPC   C4A35370  11.402  11.137   7.693
 2687POPC   C1B35371  11.121  11.321   8.889
 2687POPC   C2B35372  11.123  11.426   8.448
 2687POPC   C3B35373  11.013  11.228   8.074
 2687POPC   C4B35374  10.933  11.319   7.685
 2688POPC   NC335375  38.282  15.376   9.548
 2688POPC   PO435376  38.823  14.968   9.679
 2688POPC   GL135377  38.650  15.148   9.227
 2688POPC   GL235378  38.281  15.206   9.082
 2688POPC   C1A35379  38.656  15.286   8.759
 2688POPC   D2A35380  38.518  15.043   8.392
 2688POPC   C3A35381  38.566  15.248   7.993
 2688POPC   C4A35382  38.839  15.502   7.746
 2688POPC   C1B35383  38.221  14.847   8.801
 2688POPC   C2B35384  38.108  14.724   8.367
 2688POPC   C3B35385  38.254  14.859   7.958
 2688POPC   C4B35386  38.037  14.959   7.516
 2689POPC   NC335387  10.161  37.842   9.827
 2689POPC   PO435388   9.791  37.292   9.716
 2689POPC   GL135389   9.900  37.462   9.278
 2689POPC   GL235390   9.902  37.817   9.142
 2689POPC   C1A35391   9.965  37.442   8.800
 2689POPC   D2A35392   9.679  37.579   8.461
 2689POPC   C3A35393   9.584  37.413   8.048
 2689POPC   C4A35394  10.009  37.360   7.835
 2689POPC   C1B35395   9.825  38.038   8.731
 2689POPC   C2B35396   9.684  38.055   8.281
 2689POPC   C3B35397   9.833  37.837   7.908
 2689POPC   C4B35398   9.954  38.013   7.513
 2690POPC   NC335399  40.409   4.136   9.246
 2690POPC   PO435400  40.804   4.434   9.660
 2690POPC   GL135401  40.720   4.532   9.195
 2690POPC   GL235402  40.856   4.255   9.007
 2690POPC   C1A35403  40.528   4.487   8.712
 2690POPC   D2A35404  40.721   4.296   8.352
 2690POPC   C3A35405  40.544   4.274   7.949
 2690POPC   C4A35406  40.803   4.430   7.582
 2690POPC   C1B35407  40.929   3.928   8.701
 2690POPC   C2B35408  41.044   3.895   8.261
 2690POPC   C3B35409  41.028   4.030   7.848
 2690POPC   C4B35410  41.374   3.924   7.544
 2691POPC   NC335411  36.490  38.239   9.215
 2691POPC   PO435412  36.741  38.649   9.709
 2691POPC   GL135413  36.916  38.627   9.281
 2691POPC   GL235414  36.697  38.839   9.110
 2691POPC   C1A35415  36.950  38.487   8.834
 2691POPC   D2A35416  36.719  38.338   8.458
 2691POPC   C3A35417  36.984  38.402   8.128
 2691POPC   C4A35418  37.040  38.526   7.721
 2691POPC   C1B35419  36.510  38.749   8.700
 2691POPC   C2B35420  36.487  38.866   8.302
 2691POPC   C3B35421  36.578  38.654   7.967
 2691POPC   C4B35422  36.463  38.656   7.558
 2692POPC   NC335423  11.015  42.877   9.682
 2692POPC   PO435424  10.360  42.869   9.458
 2692POPC   GL135425  10.540  43.178   9.194
 2692POPC   GL235426  10.505  42.981   8.947
 2692POPC   C1A35427  10.539  43.461   8.801
 2692POPC   D2A35428  10.734  43.573   8.428
 2692POPC   C3A35429  10.496  43.540   8.057
 2692POPC   C4A35430  10.799  43.502   7.765
 2692POPC   C1B35431  10.759  42.874   8.628
 2692POPC   C2B35432  10.595  43.029   8.262
 2692POPC   C3B35433  10.358  42.948   7.922
 2692POPC   C4B35434  10.684  43.025   7.595
 2693POPC   NC335435  12.938  19.956   9.492
 2693POPC   PO435436  12.465  19.416   9.451
 2693POPC   GL135437  12.608  19.492   9.031
 2693POPC   GL235438  12.916  19.675   9.074
 2693POPC   C1A35439  12.583  19.808   8.703
 2693POPC   D2A35440  12.739  20.034   8.332
 2693POPC   C3A35441  12.639  19.861   7.924
 2693POPC   C4A35442  12.676  20.070   7.555
 2693POPC   C1B35443  13.050  19.940   8.723
 2693POPC   C2B35444  13.245  19.783   8.384
 2693POPC   C3B35445  13.133  19.882   8.008
 2693POPC   C4B35446  13.103  19.724   7.618
 2694POPC   NC335447  24.232  33.915   9.521
 2694POPC   PO435448  24.867  33.581   9.383
 2694POPC   GL135449  24.525  33.758   9.130
 2694POPC   GL235450  24.266  33.519   9.025
 2694POPC   C1A35451  24.412  33.915   8.723
 2694POPC   D2A35452  24.663  33.834   8.351
 2694POPC   C3A35453  24.447  33.940   7.948
 2694POPC   C4A35454  24.620  34.047   7.515
 2694POPC   C1B35455  24.640  33.449   8.726
 2694POPC   C2B35456  24.725  33.294   8.305
 2694POPC   C3B35457  24.773  33.540   7.941
 2694POPC   C4B35458  24.520  33.556   7.609
 2695POPC   NC335459  11.594   4.956   9.443
 2695POPC   PO435460  11.003   4.869   9.716
 2695POPC   GL135461  11.090   4.940   9.259
 2695POPC   GL235462  11.280   5.226   9.112
 2695POPC   C1A35463  11.151   4.864   8.803
 2695POPC   D2A35464  11.220   5.130   8.404
 2695POPC   C3A35465  11.387   4.912   8.034
 2695POPC   C4A35466  11.095   4.815   7.693
 2695POPC   C1B35467  11.496   5.528   8.834
 2695POPC   C2B35468  11.586   5.548   8.404
 2695POPC   C3B35469  11.493   5.429   8.040
 2695POPC   C4B35470  11.275   5.311   7.722
 2696POPC   NC335471  34.908  32.087   9.374
 2696POPC   PO435472  34.511  32.389   9.807
 2696POPC   GL135473  34.512  32.380   9.225
 2696POPC   GL235474  34.616  32.081   8.965
 2696POPC   C1A35475  34.400  32.438   8.733
 2696POPC   D2A35476  34.660  32.318   8.351
 2696POPC   C3A35477  34.413  32.094   8.032
 2696POPC   C4A35478  34.222  32.322   7.704
 2696POPC   C1B35479  35.005  32.092   8.711
 2696POPC   C2B35480  35.183  32.026   8.321
 2696POPC   C3B35481  34.955  32.069   7.951
 2696POPC   C4B35482  34.730  32.422   7.791
 2697POPC   NC335483  34.810  33.074   9.505
 2697POPC   PO435484  35.392  32.607   9.556
 2697POPC   GL135485  35.467  32.817   9.128
 2697POPC   GL235486  35.202  33.020   9.159
 2697POPC   C1A35487  35.574  32.915   8.703
 2697POPC   D2A35488  35.314  33.024   8.356
 2697POPC   C3A35489  35.525  33.052   8.010
 2697POPC   C4A35490  35.634  32.672   7.843
 2697POPC   C1B35491  35.059  33.147   8.790
 2697POPC   C2B35492  34.966  33.404   8.452
 2697POPC   C3B35493  34.921  33.256   8.051
 2697POPC   C4B35494  35.059  32.912   7.790
 2698POPC   NC335495  42.674  36.756   9.464
 2698POPC   PO435496  43.011  36.099   9.487
 2698POPC   GL135497  43.161  36.061   9.091
 2698POPC   GL235498  42.827  36.091   8.989
 2698POPC   C1A35499  43.213  36.139   8.637
 2698POPC   D2A35500  43.484  36.192   8.274
 2698POPC   C3A35501  43.344  36.021   7.878
 2698POPC   C4A35502  42.986  35.761   7.829
 2698POPC   C1B35503  42.760  36.511   8.782
 2698POPC   C2B35504  42.924  36.558   8.397
 2698POPC   C3B35505  42.715  36.605   8.023
 2698POPC   C4B35506  42.749  36.401   7.642
 2699POPC   NC335507  28.491   2.072   9.639
 2699POPC   PO435508  28.013   1.708   9.400
 2699POPC   GL135509  28.430   1.797   9.194
 2699POPC   GL235510  28.557   2.163   9.128
 2699POPC   C1A35511  28.567   1.824   8.772
 2699POPC   D2A35512  28.493   1.979   8.362
 2699POPC   C3A35513  28.274   1.710   8.089
 2699POPC   C4A35514  28.407   1.735   7.656
 2699POPC   C1B35515  28.395   2.303   8.739
 2699POPC   C2B35516  28.104   2.279   8.388
 2699POPC   C3B35517  28.262   2.194   7.938
 2699POPC   C4B35518  28.238   2.202   7.470
 2700POPC   NC335519  19.650  22.405   9.447
 2700POPC   PO435520  20.254  22.040   9.485
 2700POPC   GL135521  20.005  22.168   9.179
 2700POPC   GL235522  19.698  21.942   9.241
 2700POPC   C1A35523  19.960  22.244   8.761
 2700POPC   D2A35524  19.926  22.406   8.362
 2700POPC   C3A35525  19.837  22.124   8.059
 2700POPC   C4A35526  19.921  22.351   7.665
 2700POPC   C1B35527  19.523  21.975   8.829
 2700POPC   C2B35528  19.506  21.845   8.408
 2700POPC   C3B35529  19.345  21.976   8.004
 2700POPC   C4B35530  19.431  21.856   7.587
 2701POPC   NC335531  43.964   0.476   9.609
 2701POPC   PO435532  44.257   1.029   9.641
 2701POPC   GL135533  44.295   0.496   9.256
 2701POPC   GL235534  43.937   0.299   9.152
 2701POPC   C1A35535  44.237   0.411   8.778
 2701POPC   D2A35536  43.960   0.512   8.431
 2701POPC   C3A35537  44.074   0.443   8.016
 2701POPC   C4A35538  43.764   0.511   7.743
 2701POPC   C1B35539  43.682   0.529   8.874
 2701POPC   C2B35540  43.441   0.484   8.516
 2701POPC   C3B35541  43.537   0.283   8.134
 2701POPC   C4B35542  43.553   0.032   7.761
 2702POPC   NC335543  19.253   8.636   9.564
 2702POPC   PO435544  18.995   9.246   9.373
 2702POPC   GL135545  19.331   8.993   9.194
 2702POPC   GL235546  19.092   8.755   9.094
 2702POPC   C1A35547  19.393   8.979   8.767
 2702POPC   D2A35548  19.057   9.047   8.472
 2702POPC   C3A35549  19.200   9.022   8.087
 2702POPC   C4A35550  19.320   8.912   7.706
 2702POPC   C1B35551  18.796   8.718   8.765
 2702POPC   C2B35552  18.629   8.654   8.366
 2702POPC   C3B35553  18.681   8.980   8.084
 2702POPC   C4B35554  18.825   9.003   7.699
 2703POPC   NC335555  39.877  38.685   9.464
 2703POPC   PO435556  40.385  38.224   9.456
 2703POPC   GL135557  40.209  38.447   9.163
 2703POPC   GL235558  39.892  38.242   9.220
 2703POPC   C1A35559  40.215  38.629   8.773
 2703POPC   D2A35560  39.975  38.597   8.406
 2703POPC   C3A35561  40.211  38.557   8.011
 2703POPC   C4A35562  39.939  38.674   7.706
 2703POPC   C1B35563  39.882  38.209   8.793
 2703POPC   C2B35564  39.794  38.038   8.412
 2703POPC   C3B35565  39.799  38.264   8.063
 2703POPC   C4B35566  39.899  38.165   7.689
 2704POPC   NC335567  19.582  37.321   9.594
 2704POPC   PO435568  20.294  37.090   9.547
 2704POPC   GL135569  19.956  37.096   9.175
 2704POPC   GL235570  19.600  37.148   9.098
 2704POPC   C1A35571  19.909  36.997   8.729
 2704POPC   D2A35572  20.119  36.762   8.389
 2704POPC   C3A35573  19.975  36.846   7.962
 2704POPC   C4A35574  19.903  36.535   7.653
 2704POPC   C1B35575  19.386  36.931   8.730
 2704POPC   C2B35576  19.265  36.653   8.371
 2704POPC   C3B35577  19.311  36.660   7.942
 2704POPC   C4B35578  19.536  36.931   7.652
 2705POPC   NC335579  13.350  43.298   9.444
 2705POPC   PO435580  13.694  42.697   9.552
 2705POPC   GL135581  13.636  42.995   9.174
 2705POPC   GL235582  13.314  42.875   9.131
 2705POPC   C1A35583  13.842  43.234   8.831
 2705POPC   D2A35584  13.991  43.051   8.431
 2705POPC   C3A35585  13.699  43.090   8.048
 2705POPC   C4A35586  13.743  43.360   7.681
 2705POPC   C1B35587  13.317  43.128   8.759
 2705POPC   C2B35588  13.266  43.399   8.400
 2705POPC   C3B35589  13.293  43.479   7.991
 2705POPC   C4B35590  13.281  43.142   7.702
 2706POPC   NC335591  36.663   0.396   9.618
 2706POPC   PO435592  37.044   0.852   9.702
 2706POPC   GL135593  36.904   0.546   9.208
 2706POPC   GL235594  36.855   0.802   8.947
 2706POPC   C1A35595  36.935   0.338   8.788
 2706POPC   D2A35596  36.792   0.393   8.344
 2706POPC   C3A35597  37.116   0.246   8.039
 2706POPC   C4A35598  37.185   0.322   7.584
 2706POPC   C1B35599  36.499   0.608   8.740
 2706POPC   C2B35600  36.354   0.733   8.352
 2706POPC   C3B35601  36.660   0.862   8.103
 2706POPC   C4B35602  36.867   0.627   7.835
 2707POPC   NC335603   9.490   4.792   9.469
 2707POPC   PO435604  10.106   5.076   9.520
 2707POPC   GL135605   9.915   5.003   9.123
 2707POPC   GL235606   9.621   5.162   9.105
 2707POPC   C1A35607   9.878   4.981   8.669
 2707POPC   D2A35608   9.738   4.963   8.246
 2707POPC   C3A35609   9.992   4.972   7.888
 2707POPC   C4A35610  10.084   4.779   7.475
 2707POPC   C1B35611   9.783   5.459   8.799
 2707POPC   C2B35612   9.917   5.437   8.347
 2707POPC   C3B35613   9.694   5.407   7.948
 2707POPC   C4B35614   9.384   5.472   7.617
 2708POPC   NC335615  10.868  37.409   9.268
 2708POPC   PO435616  10.609  37.904   9.753
 2708POPC   GL135617  10.361  37.735   9.340
 2708POPC   GL235618  10.385  37.443   9.137
 2708POPC   C1A35619  10.307  37.857   8.842
 2708POPC   D2A35620  10.146  37.787   8.389
 2708POPC   C3A35621  10.358  37.822   7.965
 2708POPC   C4A35622  10.358  37.694   7.537
 2708POPC   C1B35623  10.472  37.379   8.673
 2708POPC   C2B35624  10.650  37.518   8.270
 2708POPC   C3B35625  10.767  37.387   7.842
 2708POPC   C4B35626  10.754  37.412   7.392
 2709POPC   NC335627  30.078  41.929   9.513
 2709POPC   PO435628  30.204  41.284   9.444
 2709POPC   GL135629  29.884  41.451   9.158
 2709POPC   GL235630  29.862  41.791   9.027
 2709POPC   C1A35631  29.769  41.281   8.775
 2709POPC   D2A35632  29.713  41.284   8.344
 2709POPC   C3A35633  29.989  41.501   7.998
 2709POPC   C4A35634  30.261  41.286   7.666
 2709POPC   C1B35635  29.566  41.762   8.667
 2709POPC   C2B35636  29.531  41.766   8.202
 2709POPC   C3B35637  29.614  41.892   7.801
 2709POPC   C4B35638  29.956  42.040   7.536
 2710POPC   NC335639  34.456   5.780   9.630
 2710POPC   PO435640  35.025   5.499   9.450
 2710POPC   GL135641  34.724   5.682   9.179
 2710POPC   GL235642  34.506   5.942   9.148
 2710POPC   C1A35643  34.476   5.549   8.820
 2710POPC   D2A35644  34.340   5.663   8.414
 2710POPC   C3A35645  34.653   5.741   8.101
 2710POPC   C4A35646  34.543   5.644   7.678
 2710POPC   C1B35647  34.344   6.094   8.775
 2710POPC   C2B35648  34.444   6.171   8.369
 2710POPC   C3B35649  34.349   6.116   7.960
 2710POPC   C4B35650  34.723   6.121   7.701
 2711POPC   NC335651  14.477   1.592   9.247
 2711POPC   PO435652  14.018   1.107   9.458
 2711POPC   GL135653  14.313   1.074   9.103
 2711POPC   GL235654  14.671   1.001   8.992
 2711POPC   C1A35655  14.276   1.167   8.671
 2711POPC   D2A35656  14.181   0.995   8.246
 2711POPC   C3A35657  14.346   1.345   8.004
 2711POPC   C4A35658  14.193   1.416   7.602
 2711POPC   C1B35659  14.874   1.318   8.732
 2711POPC   C2B35660  14.885   1.519   8.315
 2711POPC   C3B35661  14.839   1.404   7.880
 2711POPC   C4B35662  14.647   1.230   7.495
 2712POPC   NC335663  41.369  39.069   9.477
 2712POPC   PO435664  42.006  39.256   9.437
 2712POPC   GL135665  41.697  39.173   9.097
 2712POPC   GL235666  41.397  39.398   9.080
 2712POPC   C1A35667  41.800  39.020   8.690
 2712POPC   D2A35668  41.893  39.317   8.370
 2712POPC   C3A35669  41.617  39.372   8.030
 2712POPC   C4A35670  41.744  39.057   7.723
 2712POPC   C1B35671  41.434  39.362   8.656
 2712POPC   C2B35672  41.380  39.031   8.353
 2712POPC   C3B35673  41.249  38.996   7.914
 2712POPC   C4B35674  41.270  39.329   7.616
 2713POPC   NC335675  40.634  19.852   9.424
 2713POPC   PO435676  41.214  19.726   9.729
 2713POPC   GL135677  41.121  19.870   9.247
 2713POPC   GL235678  40.949  19.616   9.036
 2713POPC   C1A35679  40.960  20.042   8.796
 2713POPC   D2A35680  41.114  19.842   8.395
 2713POPC   C3A35681  40.948  19.836   7.970
 2713POPC   C4A35682  40.576  20.032   7.797
 2713POPC   C1B35683  40.521  19.588   8.852
 2713POPC   C2B35684  40.543  19.717   8.435
 2713POPC   C3B35685  40.496  19.597   8.033
 2713POPC   C4B35686  40.432  19.566   7.582
 2714POPC   NC335687  15.483  34.708   9.844
 2714POPC   PO435688  15.497  35.345   9.466
 2714POPC   GL135689  15.113  35.351   9.217
 2714POPC   GL235690  14.917  35.015   9.256
 2714POPC   C1A35691  15.132  35.544   8.800
 2714POPC   D2A35692  15.380  35.352   8.469
 2714POPC   C3A35693  15.433  35.569   8.071
 2714POPC   C4A35694  15.217  35.408   7.719
 2714POPC   C1B35695  14.806  35.146   8.824
 2714POPC   C2B35696  14.906  34.949   8.416
 2714POPC   C3B35697  14.684  34.893   8.022
 2714POPC   C4B35698  14.731  35.255   7.787
 2715POPC   NC335699  28.770  18.956   9.419
 2715POPC   PO435700  28.090  18.956   9.442
 2715POPC   GL135701  28.344  19.091   9.152
 2715POPC   GL235702  28.291  19.436   9.068
 2715POPC   C1A35703  28.294  19.013   8.740
 2715POPC   D2A35704  28.346  19.295   8.415
 2715POPC   C3A35705  28.192  19.063   8.103
 2715POPC   C4A35706  28.244  19.017   7.701
 2715POPC   C1B35707  28.688  19.346   8.817
 2715POPC   C2B35708  28.877  19.262   8.406
 2715POPC   C3B35709  28.664  19.377   8.002
 2715POPC   C4B35710  28.665  19.310   7.557
 2716POPC   NC335711  35.213  15.740   9.738
 2716POPC   PO435712  35.106  16.376   9.625
 2716POPC   GL135713  35.228  16.090   9.314
 2716POPC   GL235714  34.894  16.070   9.236
 2716POPC   C1A35715  35.288  16.017   8.860
 2716POPC   D2A35716  35.494  16.019   8.464
 2716POPC   C3A35717  35.373  15.820   8.104
 2716POPC   C4A35718  35.616  15.856   7.744
 2716POPC   C1B35719  34.890  16.362   8.885
 2716POPC   C2B35720  34.957  16.221   8.464
 2716POPC   C3B35721  35.138  16.320   8.105
 2716POPC   C4B35722  35.176  16.132   7.738
 2717POPC   NC335723  26.426   7.003   9.444
 2717POPC   PO435724  26.001   6.469   9.450
 2717POPC   GL135725  26.209   6.443   9.075
 2717POPC   GL235726  26.165   6.799   9.034
 2717POPC   C1A35727  26.166   6.514   8.613
 2717POPC   D2A35728  26.298   6.714   8.248
 2717POPC   C3A35729  26.162   6.463   7.931
 2717POPC   C4A35730  25.780   6.478   7.666
 2717POPC   C1B35731  25.823   6.849   8.701
 2717POPC   C2B35732  25.780   6.660   8.277
 2717POPC   C3B35733  25.914   6.910   7.894
 2717POPC   C4B35734  25.901   7.049   7.445
 2718POPC   NC335735  17.293  31.459   9.602
 2718POPC   PO435736  17.845  31.806   9.439
 2718POPC   GL135737  17.526  31.625   9.166
 2718POPC   GL235738  17.143  31.754   9.221
 2718POPC   C1A35739  17.582  31.304   8.851
 2718POPC   D2A35740  17.707  31.218   8.436
 2718POPC   C3A35741  17.522  31.468   8.158
 2718POPC   C4A35742  17.449  31.488   7.756
 2718POPC   C1B35743  17.122  31.534   8.840
 2718POPC   C2B35744  17.116  31.662   8.420
 2718POPC   C3B35745  17.023  31.633   8.002
 2718POPC   C4B35746  17.009  31.945   7.704
 2719POPC   NC335747  32.552  13.364   9.497
 2719POPC   PO435748  33.056  13.777   9.528
 2719POPC   GL135749  33.056  13.551   9.138
 2719POPC   GL235750  32.740  13.652   9.095
 2719POPC   C1A35751  33.002  13.535   8.663
 2719POPC   D2A35752  33.239  13.696   8.300
 2719POPC   C3A35753  33.033  13.720   7.931
 2719POPC   C4A35754  33.003  13.472   7.602
 2719POPC   C1B35755  32.698  13.982   8.786
 2719POPC   C2B35756  32.815  13.991   8.353
 2719POPC   C3B35757  32.680  14.089   7.932
 2719POPC   C4B35758  32.822  13.958   7.491
 2720POPC   NC335759  24.702   4.084   9.412
 2720POPC   PO435760  24.174   4.532   9.487
 2720POPC   GL135761  24.417   4.425   9.051
 2720POPC   GL235762  24.595   4.095   8.930
 2720POPC   C1A35763  24.474   4.386   8.551
 2720POPC   D2A35764  24.770   4.205   8.238
 2720POPC   C3A35765  24.655   4.107   7.821
 2720POPC   C4A35766  24.385   4.417   7.753
 2720POPC   C1B35767  24.288   3.907   8.649
 2720POPC   C2B35768  24.334   3.901   8.234
 2720POPC   C3B35769  24.142   3.984   7.858
 2720POPC   C4B35770  24.251   3.926   7.438
 2721POPC   NC335771   3.844   4.282   9.436
 2721POPC   PO435772   3.256   4.604   9.571
 2721POPC   GL135773   3.426   4.648   9.150
 2721POPC   GL235774   3.555   4.341   9.015
 2721POPC   C1A35775   3.269   4.650   8.707
 2721POPC   D2A35776   3.457   4.382   8.387
 2721POPC   C3A35777   3.579   4.551   7.983
 2721POPC   C4A35778   3.354   4.451   7.612
 2721POPC   C1B35779   3.627   3.966   8.755
 2721POPC   C2B35780   3.528   3.830   8.345
 2721POPC   C3B35781   3.515   4.042   7.955
 2721POPC   C4B35782   3.631   3.948   7.551
 2722POPC   NC335783  39.300  19.814   9.780
 2722POPC   PO435784  39.307  19.416   9.306
 2722POPC   GL135785  39.273  19.734   9.085
 2722POPC   GL235786  39.341  20.017   9.246
 2722POPC   C1A35787  39.041  19.710   8.729
 2722POPC   D2A35788  39.015  19.875   8.356
 2722POPC   C3A35789  38.930  19.628   8.023
 2722POPC   C4A35790  39.166  19.618   7.643
 2722POPC   C1B35791  39.244  20.166   8.807
 2722POPC   C2B35792  39.183  20.359   8.412
 2722POPC   C3B35793  39.048  20.241   8.013
 2722POPC   C4B35794  38.860  20.017   7.705
 2723POPC   NC335795  31.650  27.497   9.492
 2723POPC   PO435796  31.072  27.725   9.354
 2723POPC   GL135797  31.373  27.557   9.057
 2723POPC   GL235798  31.694  27.732   9.036
 2723POPC   C1A35799  31.444  27.458   8.608
 2723POPC   D2A35800  31.250  27.453   8.187
 2723POPC   C3A35801  31.551  27.357   7.864
 2723POPC   C4A35802  31.844  27.613   7.657
 2723POPC   C1B35803  31.407  27.947   8.733
 2723POPC   C2B35804  31.568  27.871   8.288
 2723POPC   C3B35805  31.440  27.887   7.849
 2723POPC   C4B35806  31.269  28.114   7.491
 2724POPC   NC335807  15.410  17.582   9.709
 2724POPC   PO435808  14.963  17.260   9.482
 2724POPC   GL135809  15.081  17.438   9.111
 2724POPC   GL235810  15.308  17.676   9.124
 2724POPC   C1A35811  15.018  17.359   8.711
 2724POPC   D2A35812  15.224  17.201   8.395
 2724POPC   C3A35813  15.079  17.327   8.016
 2724POPC   C4A35814  14.986  17.320   7.586
 2724POPC   C1B35815  15.640  17.806   8.870
 2724POPC   C2B35816  15.756  17.679   8.459
 2724POPC   C3B35817  15.495  17.697   8.090
 2724POPC   C4B35818  15.437  17.521   7.699
 2725POPC   NC335819  31.847   5.574   9.491
 2725POPC   PO435820  31.259   6.045   9.512
 2725POPC   GL135821  31.492   5.914   9.213
 2725POPC   GL235822  31.340   5.599   9.203
 2725POPC   C1A35823  31.566   5.828   8.799
 2725POPC   D2A35824  31.824   5.907   8.450
 2725POPC   C3A35825  31.608   6.116   8.156
 2725POPC   C4A35826  31.658   5.943   7.741
 2725POPC   C1B35827  31.034   5.663   8.818
 2725POPC   C2B35828  30.922   5.610   8.348
 2725POPC   C3B35829  31.223   5.790   7.994
 2725POPC   C4B35830  31.357   5.577   7.595
 2726POPC   NC335831   6.264  21.333   9.500
 2726POPC   PO435832   6.960  21.335   9.397
 2726POPC   GL135833   6.887  21.285   9.028
 2726POPC   GL235834   6.522  21.247   9.065
 2726POPC   C1A35835   6.748  21.451   8.645
 2726POPC   D2A35836   6.424  21.450   8.331
 2726POPC   C3A35837   6.675  21.357   7.978
 2726POPC   C4A35838   6.824  21.503   7.558
 2726POPC   C1B35839   6.287  21.103   8.715
 2726POPC   C2B35840   6.392  20.945   8.282
 2726POPC   C3B35841   6.200  21.126   7.906
 2726POPC   C4B35842   6.147  21.121   7.374
 2727POPC   NC335843  36.376  31.096   9.795
 2727POPC   PO435844  36.177  30.554   9.444
 2727POPC   GL135845  36.014  30.815   9.132
 2727POPC   GL235846  35.907  31.167   9.152
 2727POPC   C1A35847  36.120  30.688   8.735
 2727POPC   D2A35848  35.969  30.517   8.391
 2727POPC   C3A35849  36.246  30.569   8.059
 2727POPC   C4A35850  36.103  30.566   7.655
 2727POPC   C1B35851  36.205  31.185   8.796
 2727POPC   C2B35852  36.257  31.046   8.362
 2727POPC   C3B35853  36.125  31.046   7.923
 2727POPC   C4B35854  36.242  31.045   7.510
 2728POPC   NC335855  35.635  38.202   9.515
 2728POPC   PO435856  35.430  37.503   9.524
 2728POPC   GL135857  35.286  37.510   9.095
 2728POPC   GL235858  35.248  37.875   9.021
 2728POPC   C1A35859  35.287  37.558   8.626
 2728POPC   D2A35860  35.217  37.874   8.328
 2728POPC   C3A35861  35.214  37.661   7.929
 2728POPC   C4A35862  34.963  37.290   7.814
 2728POPC   C1B35863  35.553  38.021   8.712
 2728POPC   C2B35864  35.646  38.162   8.297
 2728POPC   C3B35865  35.458  38.165   7.913
 2728POPC   C4B35866  35.405  37.921   7.532
 2729POPC   NC335867  33.659  12.285   9.516
 2729POPC   PO435868  33.604  12.947   9.420
 2729POPC   GL135869  33.715  12.662   9.131
 2729POPC   GL235870  33.446  12.452   9.092
 2729POPC   C1A35871  33.863  12.890   8.766
 2729POPC   D2A35872  33.950  13.168   8.452
 2729POPC   C3A35873  34.000  13.029   8.039
 2729POPC   C4A35874  33.632  13.108   7.870
 2729POPC   C1B35875  33.433  12.629   8.694
 2729POPC   C2B35876  33.639  12.740   8.320
 2729POPC   C3B35877  33.542  12.612   7.937
 2729POPC   C4B35878  33.425  12.448   7.587
 2730POPC   NC335879  12.801   0.781   9.324
 2730POPC   PO435880  12.727   0.230   9.501
 2730POPC   GL135881  12.959   0.322   9.156
 2730POPC   GL235882  13.242   0.550   9.213
 2730POPC   C1A35883  12.823   0.334   8.748
 2730POPC   D2A35884  12.981   0.150   8.392
 2730POPC   C3A35885  12.832   0.400   8.091
 2730POPC   C4A35886  12.792   0.414   7.722
 2730POPC   C1B35887  13.199   0.764   8.820
 2730POPC   C2B35888  13.058   0.692   8.429
 2730POPC   C3B35889  13.230   0.734   8.006
 2730POPC   C4B35890  13.125   0.796   7.581
 2731POPC   NC335891   2.368  18.144   9.660
 2731POPC   PO435892   2.979  18.292   9.663
 2731POPC   GL135893   2.675  18.322   9.241
 2731POPC   GL235894   2.507  18.017   9.100
 2731POPC   C1A35895   2.680  18.385   8.777
 2731POPC   D2A35896   2.953  18.517   8.430
 2731POPC   C3A35897   2.807  18.302   8.066
 2731POPC   C4A35898   2.854  17.897   7.885
 2731POPC   C1B35899   2.303  17.998   8.720
 2731POPC   C2B35900   2.521  17.932   8.355
 2731POPC   C3B35901   2.366  18.038   7.958
 2731POPC   C4B35902   2.324  18.118   7.513
 2732POPC   NC335903  42.332  17.768   9.481
 2732POPC   PO435904  41.869  17.301   9.534
 2732POPC   GL135905  41.888  17.358   9.124
 2732POPC   GL235906  41.993  17.674   9.122
 2732POPC   C1A35907  42.110  17.217   8.768
 2732POPC   D2A35908  42.395  17.283   8.436
 2732POPC   C3A35909  42.220  17.289   8.033
 2732POPC   C4A35910  42.469  17.231   7.679
 2732POPC   C1B35911  42.343  17.672   8.824
 2732POPC   C2B35912  42.455  17.857   8.457
 2732POPC   C3B35913  42.494  17.730   8.040
 2732POPC   C4B35914  42.213  17.691   7.720
 2733POPC   NC335915  21.234  11.072   9.478
 2733POPC   PO435916  21.467  10.437   9.542
 2733POPC   GL135917  21.392  10.618   9.188
 2733POPC   GL235918  21.154  10.351   9.124
 2733POPC   C1A35919  21.382  10.751   8.778
 2733POPC   D2A35920  21.166  10.575   8.507
 2733POPC   C3A35921  21.290  10.552   8.084
 2733POPC   C4A35922  21.073  10.573   7.691
 2733POPC   C1B35923  21.438  10.248   8.814
 2733POPC   C2B35924  21.594  10.264   8.403
 2733POPC   C3B35925  21.704  10.231   7.975
 2733POPC   C4B35926  21.640  10.579   7.704
 2734POPC   NC335927  40.826  38.372   9.517
 2734POPC   PO435928  41.058  38.909   9.177
 2734POPC   GL135929  40.699  38.654   9.053
 2734POPC   GL235930  40.761  38.271   9.028
 2734POPC   C1A35931  40.696  38.584   8.611
 2734POPC   D2A35932  40.676  38.409   8.211
 2734POPC   C3A35933  40.783  38.681   7.892
 2734POPC   C4A35934  41.089  38.638   7.561
 2734POPC   C1B35935  40.417  38.165   8.787
 2734POPC   C2B35936  40.263  38.175   8.398
 2734POPC   C3B35937  40.348  38.057   7.993
 2734POPC   C4B35938  40.565  38.244   7.697
 2735POPC   NC335939  26.131  27.019   9.601
 2735POPC   PO435940  26.232  26.279   9.603
 2735POPC   GL135941  26.194  26.659   9.256
 2735POPC   GL235942  25.876  26.805   9.206
 2735POPC   C1A35943  26.266  26.960   8.884
 2735POPC   D2A35944  26.313  26.837   8.444
 2735POPC   C3A35945  26.222  27.044   8.059
 2735POPC   C4A35946  26.021  26.767   7.781
 2735POPC   C1B35947  25.732  27.071   8.885
 2735POPC   C2B35948  25.873  27.121   8.458
 2735POPC   C3B35949  25.687  27.056   8.062
 2735POPC   C4B35950  25.688  27.176   7.657
 2736POPC   NC335951  17.824  11.220   9.444
 2736POPC   PO435952  17.202  11.526   9.436
 2736POPC   GL135953  17.345  11.287   9.136
 2736POPC   GL235954  17.389  10.936   9.239
 2736POPC   C1A35955  17.412  11.446   8.749
 2736POPC   D2A35956  17.664  11.633   8.454
 2736POPC   C3A35957  17.476  11.502   8.083
 2736POPC   C4A35958  17.557  11.139   7.822
 2736POPC   C1B35959  17.487  10.935   8.789
 2736POPC   C2B35960  17.310  11.105   8.374
 2736POPC   C3B35961  17.107  10.972   7.985
 2736POPC   C4B35962  17.190  10.946   7.525
 2737POPC   NC335963  28.805  33.035   9.535
 2737POPC   PO435964  29.403  32.830   9.385
 2737POPC   GL135965  29.084  32.877   9.103
 2737POPC   GL235966  29.110  33.220   9.079
 2737POPC   C1A35967  28.957  32.936   8.670
 2737POPC   D2A35968  28.663  32.984   8.328
 2737POPC   C3A35969  28.875  32.985   7.940
 2737POPC   C4A35970  28.956  32.827   7.562
 2737POPC   C1B35971  29.474  33.035   8.761
 2737POPC   C2B35972  29.498  33.129   8.314
 2737POPC   C3B35973  29.546  33.141   7.880
 2737POPC   C4B35974  29.397  33.067   7.473
 2738POPC   NC335975  35.214  33.979   9.464
 2738POPC   PO435976  35.268  33.354   9.540
 2738POPC   GL135977  35.142  33.567   9.163
 2738POPC   GL235978  35.513  33.691   9.185
 2738POPC   C1A35979  35.236  33.849   8.790
 2738POPC   D2A35980  35.488  34.042   8.461
 2738POPC   C3A35981  35.240  34.108   8.096
 2738POPC   C4A35982  35.226  33.893   7.690
 2738POPC   C1B35983  35.509  33.379   8.878
 2738POPC   C2B35984  35.473  33.508   8.470
 2738POPC   C3B35985  35.323  33.579   8.092
 2738POPC   C4B35986  35.270  33.394   7.711
 2739POPC   NC335987  18.186  31.574   9.631
 2739POPC   PO435988  17.631  31.137   9.524
 2739POPC   GL135989  17.973  31.331   9.227
 2739POPC   GL235990  18.379  31.350   9.219
 2739POPC   C1A35991  18.095  31.408   8.808
 2739POPC   D2A35992  18.000  31.656   8.495
 2739POPC   C3A35993  18.065  31.506   8.121
 2739POPC   C4A35994  17.950  31.552   7.712
 2739POPC   C1B35995  18.600  31.305   8.797
 2739POPC   C2B35996  18.518  31.322   8.336
 2739POPC   C3B35997  18.773  31.325   7.964
 2739POPC   C4B35998  18.748  31.348   7.530
 2740POPC   NC335999   1.200  34.747   9.483
 2740POPC   PO436000   1.411  34.262   9.175
 2740POPC   GL136001   1.046  34.517   9.044
 2740POPC   GL236002   0.938  34.875   9.077
 2740POPC   C1A36003   0.981  34.564   8.659
 2740POPC   D2A36004   1.321  34.462   8.391
 2740POPC   C3A36005   1.194  34.516   7.984
 2740POPC   C4A36006   1.368  34.737   7.662
 2740POPC   C1B36007   1.293  34.937   8.747
 2740POPC   C2B36008   1.465  34.957   8.301
 2740POPC   C3B36009   1.620  35.138   7.879
 2740POPC   C4B36010   1.620  35.099   7.395
 2741POPC   NC336011  29.854   3.020   9.524
 2741POPC   PO436012  30.060   2.377   9.450
 2741POPC   GL136013  29.981   2.693   9.139
 2741POPC   GL236014  30.241   2.988   9.192
 2741POPC   C1A36015  29.776   2.672   8.724
 2741POPC   D2A36016  29.604   2.747   8.312
 2741POPC   C3A36017  29.796   2.517   7.972
 2741POPC   C4A36018  29.615   2.416   7.560
 2741POPC   C1B36019  30.014   3.118   8.827
 2741POPC   C2B36020  30.020   3.043   8.372
 2741POPC   C3B36021  29.853   3.024   7.936
 2741POPC   C4B36022  30.146   3.039   7.602
 2742POPC   NC336023  35.966   3.495   9.733
 2742POPC   PO436024  36.097   4.143   9.424
 2742POPC   GL136025  36.187   3.718   9.270
 2742POPC   GL236026  35.926   3.446   9.216
 2742POPC   C1A36027  36.343   3.582   8.867
 2742POPC   D2A36028  36.267   3.398   8.483
 2742POPC   C3A36029  36.556   3.416   8.170
 2742POPC   C4A36030  36.513   3.413   7.745
 2742POPC   C1B36031  35.835   3.790   8.893
 2742POPC   C2B36032  36.007   3.890   8.494
 2742POPC   C3B36033  36.111   3.702   8.090
 2742POPC   C4B36034  35.881   3.837   7.749
 2743POPC   NC336035  14.318  44.553   9.551
 2743POPC   PO436036  14.901  44.642   9.351
 2743POPC   GL136037  14.604  44.387   9.105
 2743POPC   GL236038  14.207  44.329   9.116
 2743POPC   C1A36039  14.480  44.493   8.686
 2743POPC   D2A36040  14.592  44.734   8.308
 2743POPC   C3A36041  14.588  44.476   7.937
 2743POPC   C4A36042  14.478  44.773   7.614
 2743POPC   C1B36043  13.964  44.387   8.735
 2743POPC   C2B36044  14.067  44.520   8.322
 2743POPC   C3B36045  14.098  44.584   7.898
 2743POPC   C4B36046  14.173  44.378   7.468
 2744POPC   NC336047  18.809  40.240   9.237
 2744POPC   PO436048  18.146  40.331   9.470
 2744POPC   GL136049  18.304  40.110   9.107
 2744POPC   GL236050  18.550  39.835   9.109
 2744POPC   C1A36051  18.097  39.822   8.818
 2744POPC   D2A36052  18.195  39.743   8.372
 2744POPC   C3A36053  18.098  40.123   8.160
 2744POPC   C4A36054  17.941  40.163   7.737
 2744POPC   C1B36055  18.540  40.007   8.651
 2744POPC   C2B36056  18.614  40.246   8.283
 2744POPC   C3B36057  18.553  40.143   7.870
 2744POPC   C4B36058  18.296  39.811   7.807
 2745POPC   NC336059  11.957  38.116   9.638
 2745POPC   PO436060  11.566  37.614   9.723
 2745POPC   GL136061  11.819  37.723   9.302
 2745POPC   GL236062  12.141  37.788   9.099
 2745POPC   C1A36063  11.751  37.705   8.832
 2745POPC   D2A36064  11.958  37.542   8.472
 2745POPC   C3A36065  12.054  37.751   8.118
 2745POPC   C4A36066  11.792  37.818   7.764
 2745POPC   C1B36067  12.364  37.727   8.677
 2745POPC   C2B36068  12.551  37.777   8.252
 2745POPC   C3B36069  12.473  37.613   7.849
 2745POPC   C4B36070  12.134  37.282   7.840
 2746POPC   NC336071  28.671  38.725   9.494
 2746POPC   PO436072  29.140  38.238   9.450
 2746POPC   GL136073  28.898  38.413   9.137
 2746POPC   GL236074  29.105  38.694   8.994
 2746POPC   C1A36075  28.704  38.191   8.781
 2746POPC   D2A36076  28.835  38.049   8.344
 2746POPC   C3A36077  29.062  38.389   8.128
 2746POPC   C4A36078  29.248  38.511   7.731
 2746POPC   C1B36079  29.201  38.347   8.720
 2746POPC   C2B36080  29.553  38.174   8.528
 2746POPC   C3B36081  29.573  38.190   8.105
 2746POPC   C4B36082  29.667  38.180   7.683
 2747POPC   NC336083   8.145  16.251   9.616
 2747POPC   PO436084   7.946  16.879   9.577
 2747POPC   GL136085   8.097  16.793   9.170
 2747POPC   GL236086   8.000  16.450   9.153
 2747POPC   C1A36087   8.365  16.865   8.806
 2747POPC   D2A36088   8.421  16.666   8.402
 2747POPC   C3A36089   8.236  16.719   7.999
 2747POPC   C4A36090   8.125  16.625   7.594
 2747POPC   C1B36091   8.028  16.511   8.724
 2747POPC   C2B36092   7.897  16.674   8.362
 2747POPC   C3B36093   7.796  16.481   7.979
 2747POPC   C4B36094   7.756  16.233   7.599
 2748POPC   NC336095  10.628  32.063   9.454
 2748POPC   PO436096   9.987  32.278   9.434
 2748POPC   GL136097  10.306  32.283   9.117
 2748POPC   GL236098  10.520  32.576   9.216
 2748POPC   C1A36099  10.460  32.018   8.739
 2748POPC   D2A36100  10.364  32.041   8.286
 2748POPC   C3A36101  10.752  31.979   8.019
 2748POPC   C4A36102  10.806  32.159   7.632
 2748POPC   C1B36103  10.592  32.523   8.770
 2748POPC   C2B36104  10.752  32.334   8.397
 2748POPC   C3B36105  10.551  32.467   7.986
 2748POPC   C4B36106  10.678  32.655   7.591
 2749POPC   NC336107  29.710   7.667   9.567
 2749POPC   PO436108  29.876   7.015   9.456
 2749POPC   GL136109  29.936   7.195   9.078
 2749POPC   GL236110  29.867   7.532   9.102
 2749POPC   C1A36111  29.810   7.172   8.659
 2749POPC   D2A36112  29.765   7.436   8.306
 2749POPC   C3A36113  29.760   7.221   7.912
 2749POPC   C4A36114  29.738   7.254   7.467
 2749POPC   C1B36115  30.010   7.657   8.709
 2749POPC   C2B36116  30.256   7.629   8.339
 2749POPC   C3B36117  30.146   7.751   7.933
 2749POPC   C4B36118  30.217   7.618   7.486
 2750POPC   NC336119  12.819   9.537   9.643
 2750POPC   PO436120  12.771   8.888   9.585
 2750POPC   GL136121  12.819   8.852   9.174
 2750POPC   GL236122  13.028   9.133   9.116
 2750POPC   C1A36123  12.899   8.798   8.740
 2750POPC   D2A36124  12.738   8.810   8.346
 2750POPC   C3A36125  12.953   9.026   8.058
 2750POPC   C4A36126  12.851   8.752   7.747
 2750POPC   C1B36127  12.616   9.215   8.884
 2750POPC   C2B36128  12.588   9.290   8.446
 2750POPC   C3B36129  12.547   9.358   8.005
 2750POPC   C4B36130  12.758   9.248   7.623
 2751POPC   NC336131  40.507  14.187   9.564
 2751POPC   PO436132  41.104  14.483   9.499
 2751POPC   GL136133  40.991  14.543   9.120
 2751POPC   GL236134  40.652  14.577   9.216
 2751POPC   C1A36135  41.034  14.401   8.695
 2751POPC   D2A36136  40.770  14.552   8.351
 2751POPC   C3A36137  41.038  14.784   8.094
 2751POPC   C4A36138  41.012  14.841   7.682
 2751POPC   C1B36139  40.565  14.294   8.874
 2751POPC   C2B36140  40.668  14.070   8.510
 2751POPC   C3B36141  40.589  14.101   8.067
 2751POPC   C4B36142  40.759  14.416   7.815
 2752POPC   NC336143  36.922  41.352   9.491
 2752POPC   PO436144  36.884  41.984   9.514
 2752POPC   GL136145  36.741  41.719   9.148
 2752POPC   GL236146  37.032  41.506   9.040
 2752POPC   C1A36147  36.785  41.731   8.677
 2752POPC   D2A36148  36.731  41.419   8.372
 2752POPC   C3A36149  36.758  41.637   8.009
 2752POPC   C4A36150  36.827  41.608   7.582
 2752POPC   C1B36151  37.227  41.438   8.674
 2752POPC   C2B36152  37.212  41.558   8.253
 2752POPC   C3B36153  37.278  41.556   7.797
 2752POPC   C4B36154  37.267  41.465   7.326
 2753POPC   NC336155  37.692  36.004   9.472
 2753POPC   PO436156  37.835  36.622   9.268
 2753POPC   GL136157  37.642  36.354   9.019
 2753POPC   GL236158  37.587  36.022   8.984
 2753POPC   C1A36159  37.587  36.444   8.597
 2753POPC   D2A36160  37.294  36.538   8.263
 2753POPC   C3A36161  37.404  36.259   7.927
 2753POPC   C4A36162  37.833  36.307   7.857
 2753POPC   C1B36163  37.743  35.753   8.675
 2753POPC   C2B36164  37.926  35.704   8.293
 2753POPC   C3B36165  37.714  35.784   7.896
 2753POPC   C4B36166  37.614  35.514   7.529
 2754POPC   NC336167  18.040   8.810   9.589
 2754POPC   PO436168  17.339   8.866   9.639
 2754POPC   GL136169  17.351   8.877   9.210
 2754POPC   GL236170  17.687   8.878   9.163
 2754POPC   C1A36171  17.210   9.049   8.835
 2754POPC   D2A36172  17.361   8.965   8.416
 2754POPC   C3A36173  17.156   9.015   8.021
 2754POPC   C4A36174  17.230   8.890   7.610
 2754POPC   C1B36175  17.822   8.981   8.731
 2754POPC   C2B36176  17.830   9.065   8.288
 2754POPC   C3B36177  17.733   8.800   7.922
 2754POPC   C4B36178  17.711   8.895   7.498
 2755POPC   NC336179  28.943  10.634   9.580
 2755POPC   PO436180  29.096  10.142   9.193
 2755POPC   GL136181  29.181  10.577   9.110
 2755POPC   GL236182  28.830  10.763   9.107
 2755POPC   C1A36183  29.357  10.594   8.696
 2755POPC   D2A36184  29.408  10.188   8.437
 2755POPC   C3A36185  29.288  10.277   8.013
 2755POPC   C4A36186  29.195  10.709   7.869
 2755POPC   C1B36187  28.804  10.518   8.751
 2755POPC   C2B36188  28.960  10.478   8.367
 2755POPC   C3B36189  28.768  10.481   8.009
 2755POPC   C4B36190  28.834  10.174   7.758
 2756POPC   NC336191  37.324  31.223   9.838
 2756POPC   PO436192  37.647  31.741   9.556
 2756POPC   GL136193  37.711  31.469   9.154
 2756POPC   GL236194  37.972  31.226   9.094
 2756POPC   C1A36195  37.552  31.467   8.739
 2756POPC   D2A36196  37.517  31.253   8.362
 2756POPC   C3A36197  37.447  31.528   8.035
 2756POPC   C4A36198  37.498  31.329   7.640
 2756POPC   C1B36199  38.059  31.566   8.772
 2756POPC   C2B36200  37.865  31.662   8.358
 2756POPC   C3B36201  37.922  31.608   7.911
 2756POPC   C4B36202  38.051  31.875   7.603
 2757POPC   NC336203  15.697  11.126   9.808
 2757POPC   PO436204  16.243  11.245   9.459
 2757POPC   GL136205  16.048  11.068   9.144
 2757POPC   GL236206  15.695  11.001   9.210
 2757POPC   C1A36207  16.128  11.228   8.743
 2757POPC   D2A36208  15.910  11.339   8.387
 2757POPC   C3A36209  16.142  11.243   8.022
 2757POPC   C4A36210  16.047  11.417   7.656
 2757POPC   C1B36211  15.624  11.027   8.784
 2757POPC   C2B36212  15.550  10.814   8.413
 2757POPC   C3B36213  15.673  11.020   8.043
 2757POPC   C4B36214  15.858  10.934   7.676
 2758POPC   NC336215  34.190  32.157   9.543
 2758POPC   PO436216  33.578  32.300   9.360
 2758POPC   GL136217  33.731  32.088   9.041
 2758POPC   GL236218  34.043  32.231   9.045
 2758POPC   C1A36219  33.786  32.052   8.593
 2758POPC   D2A36220  33.579  32.204   8.234
 2758POPC   C3A36221  33.833  32.062   7.916
 2758POPC   C4A36222  34.128  31.825   7.658
 2758POPC   C1B36223  33.910  32.520   8.700
 2758POPC   C2B36224  34.053  32.430   8.291
 2758POPC   C3B36225  33.841  32.594   7.956
 2758POPC   C4B36226  33.754  32.476   7.568
 2759POPC   NC336227  21.956  36.943   9.623
 2759POPC   PO436228  22.588  36.958   9.341
 2759POPC   GL136229  22.182  36.925   9.117
 2759POPC   GL236230  21.892  36.675   9.153
 2759POPC   C1A36231  22.094  36.961   8.673
 2759POPC   D2A36232  22.354  36.789   8.356
 2759POPC   C3A36233  22.218  36.798   7.963
 2759POPC   C4A36234  22.179  37.039   7.603
 2759POPC   C1B36235  21.691  36.663   8.733
 2759POPC   C2B36236  21.799  36.575   8.307
 2759POPC   C3B36237  21.767  36.562   7.857
 2759POPC   C4B36238  22.106  36.549   7.533
 2760POPC   NC336239   1.852  40.999   9.638
 2760POPC   PO436240   2.409  41.105   9.329
 2760POPC   GL136241   2.167  40.761   9.138
 2760POPC   GL236242   1.828  40.713   9.168
 2760POPC   C1A36243   2.063  40.581   8.728
 2760POPC   D2A36244   1.999  40.816   8.370
 2760POPC   C3A36245   1.985  40.647   7.981
 2760POPC   C4A36246   2.282  40.749   7.641
 2760POPC   C1B36247   1.717  40.955   8.811
 2760POPC   C2B36248   1.520  41.086   8.463
 2760POPC   C3B36249   1.600  40.987   8.076
 2760POPC   C4B36250   1.805  41.077   7.724
 2761POPC   NC336251  16.953  10.007   9.692
 2761POPC   PO436252  16.633   9.386   9.657
 2761POPC   GL136253  16.732   9.664   9.231
 2761POPC   GL236254  17.036   9.914   9.196
 2761POPC   C1A36255  16.527   9.641   8.773
 2761POPC   D2A36256  16.359   9.482   8.374
 2761POPC   C3A36257  16.477   9.728   7.991
 2761POPC   C4A36258  16.685   9.542   7.633
 2761POPC   C1B36259  17.035   9.691   8.802
 2761POPC   C2B36260  16.842   9.768   8.396
 2761POPC   C3B36261  16.990   9.710   8.000
 2761POPC   C4B36262  17.032   9.974   7.654
 2762POPC   NC336263  22.641   7.964   9.431
 2762POPC   PO436264  23.043   8.489   9.473
 2762POPC   GL136265  22.844   8.333   9.130
 2762POPC   GL236266  22.483   8.401   9.131
 2762POPC   C1A36267  22.988   8.191   8.754
 2762POPC   D2A36268  22.890   8.360   8.374
 2762POPC   C3A36269  23.009   8.116   8.037
 2762POPC   C4A36270  23.030   8.138   7.633
 2762POPC   C1B36271  22.488   8.203   8.697
 2762POPC   C2B36272  22.431   8.147   8.253
 2762POPC   C3B36273  22.542   8.285   7.840
 2762POPC   C4B36274  22.569   8.065   7.441
 2763POPC   NC336275  16.276  34.757   9.877
 2763POPC   PO436276  15.723  34.405   9.581
 2763POPC   GL136277  15.850  34.510   9.210
 2763POPC   GL236278  16.032  34.208   9.134
 2763POPC   C1A36279  15.872  34.609   8.799
 2763POPC   D2A36280  15.945  34.523   8.391
 2763POPC   C3A36281  15.878  34.856   8.124
 2763POPC   C4A36282  15.878  34.750   7.700
 2763POPC   C1B36283  16.211  34.205   8.709
 2763POPC   C2B36284  16.377  34.280   8.272
 2763POPC   C3B36285  16.185  34.283   7.849
 2763POPC   C4B36286  16.292  34.297   7.392
 2764POPC   NC336287  21.656  42.882   9.531
 2764POPC   PO436288  21.007  43.225   9.383
 2764POPC   GL136289  21.266  43.068   9.105
 2764POPC   GL236290  21.572  43.203   9.135
 2764POPC   C1A36291  21.303  43.179   8.680
 2764POPC   D2A36292  21.335  42.978   8.308
 2764POPC   C3A36293  21.140  43.105   7.972
 2764POPC   C4A36294  21.225  43.031   7.579
 2764POPC   C1B36295  21.732  43.429   8.774
 2764POPC   C2B36296  21.710  43.310   8.304
 2764POPC   C3B36297  21.551  43.378   7.839
 2764POPC   C4B36298  21.629  43.237   7.361
 2765POPC   NC336299  13.754   2.188   9.636
 2765POPC   PO436300  13.256   1.749   9.544
 2765POPC   GL136301  13.647   1.848   9.288
 2765POPC   GL236302  13.529   2.165   9.140
 2765POPC   C1A36303  13.859   1.822   8.887
 2765POPC   D2A36304  13.646   2.086   8.609
 2765POPC   C3A36305  13.773   2.163   8.219
 2765POPC   C4A36306  13.556   2.154   7.839
 2765POPC   C1B36307  13.333   1.794   8.900
 2765POPC   C2B36308  13.463   1.594   8.542
 2765POPC   C3B36309  13.562   1.711   8.133
 2765POPC   C4B36310  13.276   1.704   7.802
 2766POPC   NC336311  38.541  38.162   9.652
 2766POPC   PO436312  38.633  38.756   9.350
 2766POPC   GL136313  38.317  38.634   9.099
 2766POPC   GL236314  38.256  38.287   9.193
 2766POPC   C1A36315  38.389  38.510   8.691
 2766POPC   D2A36316  38.298  38.612   8.294
 2766POPC   C3A36317  38.494  38.460   7.934
 2766POPC   C4A36318  38.216  38.674   7.644
 2766POPC   C1B36319  38.135  38.067   8.818
 2766POPC   C2B36320  38.313  38.094   8.402
 2766POPC   C3B36321  38.087  38.147   8.020
 2766POPC   C4B36322  38.221  38.174   7.587
 2767POPC   NC336323  40.270  10.716   9.426
 2767POPC   PO436324  39.611  10.795   9.321
 2767POPC   GL136325  39.937  10.560   9.053
 2767POPC   GL236326  40.250  10.747   8.911
 2767POPC   C1A36327  39.981  10.271   8.677
 2767POPC   D2A36328  39.872  10.176   8.226
 2767POPC   C3A36329  40.030  10.484   7.924
 2767POPC   C4A36330  39.809  10.646   7.599
 2767POPC   C1B36331  40.489  10.414   8.761
 2767POPC   C2B36332  40.705  10.174   8.483
 2767POPC   C3B36333  40.492  10.269   8.073
 2767POPC   C4B36334  40.216   9.986   7.840
 2768POPC   NC336335   7.262   6.954   9.473
 2768POPC   PO436336   7.523   7.552   9.512
 2768POPC   GL136337   7.463   7.400   9.131
 2768POPC   GL236338   7.131   7.566   9.117
 2768POPC   C1A36339   7.415   7.558   8.700
 2768POPC   D2A36340   7.558   7.434   8.322
 2768POPC   C3A36341   7.460   7.573   7.935
 2768POPC   C4A36342   7.488   7.127   7.790
 2768POPC   C1B36343   6.916   7.556   8.680
 2768POPC   C2B36344   7.033   7.391   8.259
 2768POPC   C3B36345   7.024   7.334   7.820
 2768POPC   C4B36346   6.836   7.296   7.399
 2769POPC   NC336347  15.321   8.881   9.485
 2769POPC   PO436348  14.988   9.486   9.440
 2769POPC   GL136349  15.072   9.189   9.065
 2769POPC   GL236350  15.357   8.931   8.985
 2769POPC   C1A36351  15.163   9.213   8.605
 2769POPC   D2A36352  15.520   9.113   8.307
 2769POPC   C3A36353  15.440   9.005   7.881
 2769POPC   C4A36354  15.010   9.089   7.848
 2769POPC   C1B36355  15.031   8.724   8.704
 2769POPC   C2B36356  14.927   8.520   8.284
 2769POPC   C3B36357  14.887   8.606   7.837
 2769POPC   C4B36358  15.105   8.677   7.452
 2770POPC   NC336359  14.017  11.992   9.493
 2770POPC   PO436360  14.258  12.584   9.460
 2770POPC   GL136361  14.341  12.286   9.111
 2770POPC   GL236362  14.292  11.941   9.035
 2770POPC   C1A36363  14.391  12.278   8.647
 2770POPC   D2A36364  14.598  12.023   8.353
 2770POPC   C3A36365  14.501  11.905   7.939
 2770POPC   C4A36366  14.338  12.045   7.568
 2770POPC   C1B36367  14.028  11.904   8.667
 2770POPC   C2B36368  14.067  11.958   8.228
 2770POPC   C3B36369  14.025  11.724   7.818
 2770POPC   C4B36370  14.102  11.647   7.336
 2771POPC   NC336371   3.442  22.182   9.917
 2771POPC   PO436372   3.809  22.302   9.298
 2771POPC   GL136373   3.554  22.143   9.014
 2771POPC   GL236374   3.288  21.980   9.169
 2771POPC   C1A36375   3.238  22.261   8.709
 2771POPC   D2A36376   3.254  22.490   8.339
 2771POPC   C3A36377   3.445  22.299   7.990
 2771POPC   C4A36378   3.231  22.344   7.633
 2771POPC   C1B36379   3.379  21.761   8.753
 2771POPC   C2B36380   3.490  21.935   8.361
 2771POPC   C3B36381   3.564  21.792   7.942
 2771POPC   C4B36382   3.567  21.972   7.532
 2772POPC   NC336383  29.931   4.017   9.556
 2772POPC   PO436384  30.174   3.362   9.578
 2772POPC   GL136385  29.888   3.476   9.237
 2772POPC   GL236386  29.982   3.784   9.120
 2772POPC   C1A36387  29.740   3.533   8.772
 2772POPC   D2A36388  29.949   3.552   8.375
 2772POPC   C3A36389  29.773   3.524   7.959
 2772POPC   C4A36390  29.754   3.409   7.506
 2772POPC   C1B36391  30.208   3.827   8.759
 2772POPC   C2B36392  30.122   4.019   8.382
 2772POPC   C3B36393  30.316   3.911   8.020
 2772POPC   C4B36394  30.416   4.063   7.622
 2773POPC   NC336395   3.870  10.500   9.865
 2773POPC   PO436396   3.234  10.596   9.571
 2773POPC   GL136397   3.208  10.517   9.163
 2773POPC   GL236398   3.548  10.612   9.135
 2773POPC   C1A36399   3.254  10.456   8.741
 2773POPC   D2A36400   3.463  10.536   8.383
 2773POPC   C3A36401   3.248  10.504   8.007
 2773POPC   C4A36402   3.437  10.439   7.610
 2773POPC   C1B36403   3.785  10.666   8.782
 2773POPC   C2B36404   4.079  10.705   8.447
 2773POPC   C3B36405   3.878  10.667   8.082
 2773POPC   C4B36406   3.930  10.571   7.692
 2774POPC   NC336407  19.005  34.923   9.257
 2774POPC   PO436408  19.283  35.435   9.539
 2774POPC   GL136409  19.355  35.302   9.094
 2774POPC   GL236410  19.043  35.372   8.962
 2774POPC   C1A36411  19.303  34.974   8.721
 2774POPC   D2A36412  19.051  34.960   8.371
 2774POPC   C3A36413  19.248  35.265   8.133
 2774POPC   C4A36414  19.369  35.342   7.695
 2774POPC   C1B36415  19.204  35.527   8.576
 2774POPC   C2B36416  18.913  35.704   8.261
 2774POPC   C3B36417  18.910  35.527   7.882
 2774POPC   C4B36418  18.804  35.092   7.814
 2775POPC   NC336419  20.870  42.766   9.275
 2775POPC   PO436420  20.386  43.196   9.586
 2775POPC   GL136421  20.372  42.993   9.206
 2775POPC   GL236422  20.601  43.249   9.080
 2775POPC   C1A36423  20.478  42.793   8.791
 2775POPC   D2A36424  20.845  42.928   8.538
 2775POPC   C3A36425  20.765  42.802   8.140
 2775POPC   C4A36426  20.785  42.778   7.700
 2775POPC   C1B36427  20.318  43.267   8.745
 2775POPC   C2B36428  20.420  43.166   8.349
 2775POPC   C3B36429  20.720  43.371   8.100
 2775POPC   C4B36430  20.788  43.320   7.660
 2776POPC   NC336431  12.155   1.536   9.438
 2776POPC   PO436432  11.800   0.979   9.671
 2776POPC   GL136433  11.945   1.118   9.238
 2776POPC   GL236434  11.737   1.375   9.154
 2776POPC   C1A36435  12.165   1.089   8.810
 2776POPC   D2A36436  12.216   0.886   8.409
 2776POPC   C3A36437  12.271   1.125   8.038
 2776POPC   C4A36438  12.120   1.007   7.666
 2776POPC   C1B36439  11.934   1.551   8.768
 2776POPC   C2B36440  12.002   1.496   8.315
 2776POPC   C3B36441  11.904   1.448   7.870
 2776POPC   C4B36442  12.043   1.488   7.446
 2777POPC   NC336443  11.946  43.227   9.793
 2777POPC   PO436444  12.079  42.660   9.449
 2777POPC   GL136445  12.032  42.985   9.148
 2777POPC   GL236446  11.798  43.266   9.183
 2777POPC   C1A36447  12.124  43.163   8.749
 2777POPC   D2A36448  12.207  43.293   8.336
 2777POPC   C3A36449  12.096  43.123   7.945
 2777POPC   C4A36450  12.108  43.248   7.507
 2777POPC   C1B36451  11.620  43.268   8.726
 2777POPC   C2B36452  11.678  43.264   8.247
 2777POPC   C3B36453  11.603  43.026   7.831
 2777POPC   C4B36454  11.629  43.152   7.363
 2778POPC   NC336455  13.664  38.893   9.551
 2778POPC   PO436456  14.055  39.315   9.553
 2778POPC   GL136457  13.651  39.300   9.210
 2778POPC   GL236458  13.496  39.639   9.128
 2778POPC   C1A36459  13.434  39.228   8.757
 2778POPC   D2A36460  13.291  39.168   8.304
 2778POPC   C3A36461  13.469  38.885   7.951
 2778POPC   C4A36462  13.421  38.936   7.493
 2778POPC   C1B36463  13.808  39.558   8.781
 2778POPC   C2B36464  13.759  39.427   8.326
 2778POPC   C3B36465  13.732  39.386   7.863
 2778POPC   C4B36466  14.029  39.438   7.504
 2779POPC   NC336467  14.018  18.344   9.375
 2779POPC   PO436468  13.482  18.022   9.659
 2779POPC   GL136469  13.356  18.208   9.261
 2779POPC   GL236470  13.560  18.468   9.130
 2779POPC   C1A36471  13.307  18.100   8.815
 2779POPC   D2A36472  13.338  18.322   8.423
 2779POPC   C3A36473  13.381  18.098   8.050
 2779POPC   C4A36474  13.577  18.127   7.636
 2779POPC   C1B36475  13.739  18.461   8.710
 2779POPC   C2B36476  13.676  18.671   8.293
 2779POPC   C3B36477  13.490  18.575   7.881
 2779POPC   C4B36478  13.678  18.600   7.448
 2780POPC   NC336479  17.258  24.418   9.458
 2780POPC   PO436480  17.868  24.031   9.433
 2780POPC   GL136481  17.799  24.330   9.104
 2780POPC   GL236482  17.468  24.461   9.013
 2780POPC   C1A36483  17.850  24.498   8.677
 2780POPC   D2A36484  17.622  24.702   8.329
 2780POPC   C3A36485  17.527  24.454   7.975
 2780POPC   C4A36486  17.551  24.288   7.609
 2780POPC   C1B36487  17.292  24.773   8.739
 2780POPC   C2B36488  17.022  24.693   8.393
 2780POPC   C3B36489  17.128  24.762   7.997
 2780POPC   C4B36490  17.439  24.867   7.694
 2781POPC   NC336491  41.653   9.594   9.425
 2781POPC   PO436492  41.120  10.021   9.381
 2781POPC   GL136493  41.347   9.771   9.062
 2781POPC   GL236494  41.747   9.826   8.979
 2781POPC   C1A36495  41.401   9.588   8.683
 2781POPC   D2A36496  41.692   9.720   8.370
 2781POPC   C3A36497  41.451   9.682   8.028
 2781POPC   C4A36498  41.391   9.494   7.612
 2781POPC   C1B36499  41.876   9.411   8.762
 2781POPC   C2B36500  41.951   9.258   8.323
 2781POPC   C3B36501  41.815   9.335   7.921
 2781POPC   C4B36502  41.848   9.701   7.684
 2782POPC   NC336503  40.622  42.565   9.550
 2782POPC   PO436504  41.178  42.318   9.509
 2782POPC   GL136505  40.877  42.335   9.158
 2782POPC   GL236506  40.680  42.025   9.099
 2782POPC   C1A36507  40.971  42.284   8.714
 2782POPC   D2A36508  40.718  42.361   8.360
 2782POPC   C3A36509  40.843  42.494   7.967
 2782POPC   C4A36510  40.855  42.419   7.529
 2782POPC   C1B36511  40.477  42.130   8.758
 2782POPC   C2B36512  40.361  41.966   8.378
 2782POPC   C3B36513  40.456  42.144   7.977
 2782POPC   C4B36514  40.577  41.980   7.595
 2783POPC   NC336515  22.877  37.317   9.426
 2783POPC   PO436516  22.599  37.955   9.425
 2783POPC   GL136517  22.906  37.770   9.141
 2783POPC   GL236518  22.717  37.506   8.970
 2783POPC   C1A36519  23.138  37.672   8.722
 2783POPC   D2A36520  22.904  37.536   8.304
 2783POPC   C3A36521  23.041  37.552   7.833
 2783POPC   C4A36522  22.800  37.631   7.437
 2783POPC   C1B36523  22.680  37.882   8.692
 2783POPC   C2B36524  22.768  38.045   8.269
 2783POPC   C3B36525  22.725  37.983   7.807
 2783POPC   C4B36526  22.655  38.107   7.323
 2784POPC   NC336527  24.806  39.990   9.457
 2784POPC   PO436528  24.123  39.858   9.470
 2784POPC   GL136529  24.399  39.928   9.133
 2784POPC   GL236530  24.547  40.288   9.125
 2784POPC   C1A36531  24.409  40.025   8.714
 2784POPC   D2A36532  24.579  39.804   8.403
 2784POPC   C3A36533  24.450  39.968   8.035
 2784POPC   C4A36534  24.365  39.987   7.605
 2784POPC   C1B36535  24.820  40.325   8.747
 2784POPC   C2B36536  24.827  40.291   8.268
 2784POPC   C3B36537  24.682  40.358   7.817
 2784POPC   C4B36538  24.780  40.212   7.371
 2785POPC   NC336539  14.176   3.399   9.563
 2785POPC   PO436540  14.015   4.017   9.523
 2785POPC   GL136541  14.354   3.815   9.175
 2785POPC   GL236542  14.429   3.435   9.144
 2785POPC   C1A36543  14.508   3.668   8.722
 2785POPC   D2A36544  14.468   3.283   8.494
 2785POPC   C3A36545  14.293   3.365   8.111
 2785POPC   C4A36546  14.348   3.578   7.742
 2785POPC   C1B36547  14.104   3.342   8.838
 2785POPC   C2B36548  13.856   3.422   8.489
 2785POPC   C3B36549  13.774   3.251   8.111
 2785POPC   C4B36550  13.899   3.365   7.759
 2786POPC   NC336551  19.942  43.321   9.509
 2786POPC   PO436552  19.396  42.863   9.600
 2786POPC   GL136553  19.705  42.898   9.263
 2786POPC   GL236554  19.648  43.195   9.136
 2786POPC   C1A36555  19.975  42.920   8.879
 2786POPC   D2A36556  19.922  43.050   8.438
 2786POPC   C3A36557  20.089  42.936   8.000
 2786POPC   C4A36558  19.954  42.784   7.549
 2786POPC   C1B36559  19.762  43.416   8.805
 2786POPC   C2B36560  19.544  43.486   8.460
 2786POPC   C3B36561  19.704  43.364   8.089
 2786POPC   C4B36562  19.839  43.248   7.705
 2787POPC   NC336563   7.478  28.175   9.285
 2787POPC   PO436564   7.471  27.540   9.548
 2787POPC   GL136565   7.346  27.430   9.144
 2787POPC   GL236566   7.214  27.759   9.131
 2787POPC   C1A36567   7.338  27.465   8.688
 2787POPC   D2A36568   7.345  27.749   8.320
 2787POPC   C3A36569   7.557  27.621   7.932
 2787POPC   C4A36570   7.802  27.720   7.525
 2787POPC   C1B36571   7.170  27.988   8.758
 2787POPC   C2B36572   7.396  28.269   8.446
 2787POPC   C3B36573   7.345  28.166   8.004
 2787POPC   C4B36574   7.337  27.930   7.590
 2788POPC   NC336575  36.215   3.997   9.851
 2788POPC   PO436576  35.991   4.592   9.803
 2788POPC   GL136577  36.116   4.638   9.270
 2788POPC   GL236578  36.434   4.549   9.084
 2788POPC   C1A36579  36.026   4.455   8.817
 2788POPC   D2A36580  35.818   4.417   8.419
 2788POPC   C3A36581  36.028   4.223   8.086
 2788POPC   C4A36582  36.094   4.311   7.679
 2788POPC   C1B36583  36.514   4.217   8.768
 2788POPC   C2B36584  36.509   3.878   8.454
 2788POPC   C3B36585  36.603   3.907   8.044
 2788POPC   C4B36586  36.410   3.920   7.669
 2789POPC   NC336587   7.553  11.253   9.441
 2789POPC   PO436588   6.941  11.219   9.651
 2789POPC   GL136589   7.087  11.265   9.199
 2789POPC   GL236590   7.231  10.923   9.142
 2789POPC   C1A36591   7.309  11.344   8.782
 2789POPC   D2A36592   7.212  11.258   8.343
 2789POPC   C3A36593   7.480  11.464   8.062
 2789POPC   C4A36594   7.384  11.631   7.666
 2789POPC   C1B36595   7.592  10.924   8.844
 2789POPC   C2B36596   7.671  11.045   8.414
 2789POPC   C3B36597   7.557  10.881   8.015
 2789POPC   C4B36598   7.173  10.900   7.743
 2790POPC   NC336599  28.074  41.761   9.648
 2790POPC   PO436600  28.698  41.482   9.617
 2790POPC   GL136601  28.521  41.386   9.205
 2790POPC   GL236602  28.620  41.662   9.011
 2790POPC   C1A36603  28.196  41.314   8.879
 2790POPC   D2A36604  28.194  41.243   8.438
 2790POPC   C3A36605  28.357  41.565   8.190
 2790POPC   C4A36606  28.216  41.624   7.777
 2790POPC   C1B36607  28.740  41.341   8.703
 2790POPC   C2B36608  28.742  41.201   8.259
 2790POPC   C3B36609  28.667  41.374   7.838
 2790POPC   C4B36610  28.659  41.833   7.673
 2791POPC   NC336611  15.630  19.850   9.536
 2791POPC   PO436612  14.995  20.011   9.499
 2791POPC   GL136613  15.064  19.810   9.145
 2791POPC   GL236614  15.339  20.023   9.066
 2791POPC   C1A36615  15.026  19.697   8.732
 2791POPC   D2A36616  15.200  20.015   8.511
 2791POPC   C3A36617  15.164  19.995   8.088
 2791POPC   C4A36618  15.047  19.748   7.728
 2791POPC   C1B36619  15.476  19.599   8.928
 2791POPC   C2B36620  15.465  19.538   8.490
 2791POPC   C3B36621  15.592  19.695   8.106
 2791POPC   C4B36622  15.537  19.865   7.701
 2792POPC   NC336623  31.770  31.743   9.356
 2792POPC   PO436624  31.429  31.240   9.544
 2792POPC   GL136625  31.432  31.401   9.150
 2792POPC   GL236626  31.089  31.418   9.075
 2792POPC   C1A36627  31.428  31.536   8.725
 2792POPC   D2A36628  31.528  31.607   8.338
 2792POPC   C3A36629  31.672  31.327   8.041
 2792POPC   C4A36630  31.634  31.459   7.637
 2792POPC   C1B36631  30.961  31.725   8.725
 2792POPC   C2B36632  31.204  31.972   8.472
 2792POPC   C3B36633  31.125  31.922   8.087
 2792POPC   C4B36634  31.225  31.546   7.933
 2793POPC   NC336635  31.096  40.137   9.393
 2793POPC   PO436636  31.740  40.038   9.359
 2793POPC   GL136637  31.577  39.826   9.026
 2793POPC   GL236638  31.293  40.052   8.942
 2793POPC   C1A36639  31.574  39.795   8.564
 2793POPC   D2A36640  31.716  39.591   8.214
 2793POPC   C3A36641  31.925  39.923   8.016
 2793POPC   C4A36642  31.745  40.275   7.753
 2793POPC   C1B36643  31.142  39.685   8.787
 2793POPC   C2B36644  31.035  39.834   8.397
 2793POPC   C3B36645  31.281  39.976   8.083
 2793POPC   C4B36646  31.504  39.793   7.787
 2794POPC   NC336647  38.155  28.264   9.434
 2794POPC   PO436648  37.603  28.653   9.548
 2794POPC   GL136649  37.687  28.404   9.238
 2794POPC   GL236650  37.390  28.495   9.106
 2794POPC   C1A36651  37.825  28.353   8.838
 2794POPC   D2A36652  37.708  28.236   8.438
 2794POPC   C3A36653  37.863  28.372   8.047
 2794POPC   C4A36654  37.721  28.331   7.626
 2794POPC   C1B36655  37.301  28.284   8.770
 2794POPC   C2B36656  37.182  28.192   8.381
 2794POPC   C3B36657  37.356  28.262   8.001
 2794POPC   C4B36658  37.257  28.505   7.658
 2795POPC   NC336659   2.221   3.917   9.414
 2795POPC   PO436660   1.884   4.461   9.517
 2795POPC   GL136661   2.105   4.471   9.108
 2795POPC   GL236662   2.279   4.179   8.999
 2795POPC   C1A36663   1.913   4.343   8.692
 2795POPC   D2A36664   2.053   4.513   8.303
 2795POPC   C3A36665   1.828   4.403   7.932
 2795POPC   C4A36666   2.150   4.547   7.660
 2795POPC   C1B36667   2.106   3.865   8.731
 2795POPC   C2B36668   2.053   3.993   8.319
 2795POPC   C3B36669   2.214   4.088   7.960
 2795POPC   C4B36670   1.965   3.970   7.625
 2796POPC   NC336671  18.615   8.947   9.342
 2796POPC   PO436672  18.002   9.278   9.482
 2796POPC   GL136673  18.187   9.197   9.128
 2796POPC   GL236674  18.186   8.874   9.093
 2796POPC   C1A36675  18.473   9.264   8.798
 2796POPC   D2A36676  18.330   9.082   8.456
 2796POPC   C3A36677  18.230   9.312   8.095
 2796POPC   C4A36678  18.328   9.152   7.675
 2796POPC   C1B36679  18.279   8.643   8.770
 2796POPC   C2B36680  18.099   8.626   8.401
 2796POPC   C3B36681  18.219   8.795   8.036
 2796POPC   C4B36682  18.160   8.685   7.622
 2797POPC   NC336683   4.841  19.318   9.411
 2797POPC   PO436684   5.147  19.944   9.384
 2797POPC   GL136685   5.135  19.628   9.109
 2797POPC   GL236686   4.877  19.450   8.942
 2797POPC   C1A36687   5.344  19.558   8.767
 2797POPC   D2A36688   5.455  19.746   8.392
 2797POPC   C3A36689   5.312  19.600   8.009
 2797POPC   C4A36690   5.136  19.923   7.784
 2797POPC   C1B36691   4.808  19.735   8.658
 2797POPC   C2B36692   4.913  19.777   8.253
 2797POPC   C3B36693   4.798  19.562   7.873
 2797POPC   C4B36694   4.815  19.734   7.438
 2798POPC   NC336695  39.510   5.694   9.340
 2798POPC   PO436696  40.118   5.743   9.631
 2798POPC   GL136697  40.150   5.926   9.184
 2798POPC   GL236698  39.811   6.039   9.068
 2798POPC   C1A36699  40.169   5.965   8.703
 2798POPC   D2A36700  39.884   6.042   8.328
 2798POPC   C3A36701  40.005   5.976   7.889
 2798POPC   C4A36702  39.913   6.026   7.444
 2798POPC   C1B36703  39.699   5.741   8.713
 2798POPC   C2B36704  39.641   5.554   8.301
 2798POPC   C3B36705  39.753   5.514   7.867
 2798POPC   C4B36706  39.533   5.705   7.518
 2799POPC   NC336707   3.911  25.757   9.381
 2799POPC   PO436708   3.560  26.412   9.466
 2799POPC   GL136709   3.625  26.151   9.125
 2799POPC   GL236710   3.474  25.821   9.107
 2799POPC   C1A36711   3.826  26.070   8.758
 2799POPC   D2A36712   3.703  26.283   8.438
 2799POPC   C3A36713   3.803  26.158   8.065
 2799POPC   C4A36714   3.509  26.168   7.762
 2799POPC   C1B36715   3.360  25.838   8.660
 2799POPC   C2B36716   3.560  25.748   8.250
 2799POPC   C3B36717   3.421  25.672   7.797
 2799POPC   C4B36718   3.212  25.509   7.407
 2800POPC   NC336719  13.313  15.213   9.526
 2800POPC   PO436720  13.958  14.882   9.475
 2800POPC   GL136721  13.689  15.036   9.195
 2800POPC   GL236722  13.446  14.790   9.153
 2800POPC   C1A36723  13.613  15.303   8.860
 2800POPC   D2A36724  13.516  15.263   8.456
 2800POPC   C3A36725  13.779  15.327   8.117
 2800POPC   C4A36726  13.603  15.294   7.716
 2800POPC   C1B36727  13.331  14.888   8.781
 2800POPC   C2B36728  13.344  14.747   8.402
 2800POPC   C3B36729  13.428  14.931   8.049
 2800POPC   C4B36730  13.426  14.799   7.635
 2801POPC   NC336731  43.698  29.391   9.520
 2801POPC   PO436732  44.297  29.105   9.509
 2801POPC   GL136733  44.063  29.387   9.162
 2801POPC   GL236734  43.664  29.317   9.036
 2801POPC   C1A36735  44.049  29.268   8.738
 2801POPC   D2A36736  43.935  28.995   8.403
 2801POPC   C3A36737  43.950  29.196   8.017
 2801POPC   C4A36738  44.143  29.114   7.637
 2801POPC   C1B36739  43.578  28.959   8.778
 2801POPC   C2B36740  43.443  28.801   8.385
 2801POPC   C3B36741  43.522  28.923   7.973
 2801POPC   C4B36742  43.425  29.309   7.776
 2802POPC   NC336743  26.757  42.393   9.460
 2802POPC   PO436744  27.069  41.737   9.376
 2802POPC   GL136745  26.807  42.006   9.118
 2802POPC   GL236746  27.015  42.310   9.029
 2802POPC   C1A36747  26.678  42.057   8.697
 2802POPC   D2A36748  26.976  41.949   8.399
 2802POPC   C3A36749  26.739  41.910   8.052
 2802POPC   C4A36750  26.694  42.196   7.734
 2802POPC   C1B36751  26.916  42.496   8.659
 2802POPC   C2B36752  26.820  42.409   8.249
 2802POPC   C3B36753  26.859  42.632   7.918
 2802POPC   C4B36754  26.984  42.928   7.678
 2803POPC   NC336755  36.142  10.003   9.612
 2803POPC   PO436756  36.071   9.427   9.240
 2803POPC   GL136757  36.027   9.883   9.137
 2803POPC   GL236758  36.320  10.136   9.153
 2803POPC   C1A36759  35.952   9.980   8.732
 2803POPC   D2A36760  35.931   9.654   8.435
 2803POPC   C3A36761  35.951   9.869   8.069
 2803POPC   C4A36762  36.112   9.691   7.716
 2803POPC   C1B36763  36.462   9.849   8.833
 2803POPC   C2B36764  36.566   9.966   8.425
 2803POPC   C3B36765  36.441  10.019   8.001
 2803POPC   C4B36766  36.610   9.786   7.654
 2804POPC   NC336767  16.835  43.617   9.510
 2804POPC   PO436768  16.745  44.288   9.530
 2804POPC   GL136769  16.627  43.996   9.179
 2804POPC   GL236770  16.886  43.790   9.042
 2804POPC   C1A36771  16.623  44.077   8.700
 2804POPC   D2A36772  16.572  44.278   8.265
 2804POPC   C3A36773  16.834  44.123   7.921
 2804POPC   C4A36774  17.100  43.757   7.903
 2804POPC   C1B36775  16.552  43.573   8.837
 2804POPC   C2B36776  16.428  43.430   8.404
 2804POPC   C3B36777  16.557  43.592   7.986
 2804POPC   C4B36778  16.799  43.372   7.661
 2805POPC   NC336779  17.653  27.412   9.522
 2805POPC   PO436780  17.251  27.903   9.384
 2805POPC   GL136781  17.597  27.753   9.126
 2805POPC   GL236782  17.426  27.469   9.069
 2805POPC   C1A36783  17.833  27.523   8.765
 2805POPC   D2A36784  17.784  27.395   8.318
 2805POPC   C3A36785  17.793  27.729   8.045
 2805POPC   C4A36786  17.480  27.881   7.813
 2805POPC   C1B36787  17.215  27.217   8.818
 2805POPC   C2B36788  17.346  27.138   8.406
 2805POPC   C3B36789  17.358  27.362   7.999
 2805POPC   C4B36790  17.383  27.296   7.551
 2806POPC   NC336791   2.943  42.496   9.612
 2806POPC   PO436792   2.327  42.272   9.882
 2806POPC   GL136793   2.446  42.316   9.400
 2806POPC   GL236794   2.467  42.034   9.176
 2806POPC   C1A36795   2.637  42.496   8.984
 2806POPC   D2A36796   2.827  42.454   8.531
 2806POPC   C3A36797   2.671  42.542   8.083
 2806POPC   C4A36798   2.837  42.582   7.640
 2806POPC   C1B36799   2.563  42.034   8.729
 2806POPC   C2B36800   2.554  42.075   8.259
 2806POPC   C3B36801   2.835  42.090   7.877
 2806POPC   C4B36802   3.063  41.792   7.627
 2807POPC   NC336803  27.288   5.810   9.491
 2807POPC   PO436804  27.991   5.619   9.510
 2807POPC   GL136805  27.718   5.747   9.219
 2807POPC   GL236806  27.761   6.077   9.139
 2807POPC   C1A36807  27.560   5.611   8.830
 2807POPC   D2A36808  27.482   5.799   8.431
 2807POPC   C3A36809  27.338   5.578   8.096
 2807POPC   C4A36810  27.459   5.640   7.706
 2807POPC   C1B36811  27.448   6.165   8.803
 2807POPC   C2B36812  27.506   6.325   8.361
 2807POPC   C3B36813  27.490   6.086   7.971
 2807POPC   C4B36814  27.826   6.054   7.651
 2808POPC   NC336815  13.232  11.856   9.476
 2808POPC   PO436816  13.578  11.264   9.557
 2808POPC   GL136817  13.581  11.327   9.122
 2808POPC   GL236818  13.531  11.667   9.091
 2808POPC   C1A36819  13.755  11.396   8.724
 2808POPC   D2A36820  13.766  11.562   8.326
 2808POPC   C3A36821  13.935  11.258   8.068
 2808POPC   C4A36822  13.923  11.260   7.644
 2808POPC   C1B36823  13.335  11.672   8.666
 2808POPC   C2B36824  13.262  11.469   8.255
 2808POPC   C3B36825  13.496  11.470   7.849
 2808POPC   C4B36826  13.609  11.611   7.418
 2809POPC   NC336827  28.050  13.251   9.518
 2809POPC   PO436828  28.701  13.390   9.422
 2809POPC   GL136829  28.460  13.538   9.074
 2809POPC   GL236830  28.110  13.602   9.140
 2809POPC   C1A36831  28.318  13.708   8.664
 2809POPC   D2A36832  28.143  13.606   8.266
 2809POPC   C3A36833  28.251  13.762   7.850
 2809POPC   C4A36834  28.672  13.832   7.679
 2809POPC   C1B36835  27.914  13.363   8.784
 2809POPC   C2B36836  27.700  13.395   8.365
 2809POPC   C3B36837  27.897  13.352   7.907
 2809POPC   C4B36838  27.947  13.488   7.459
 2810POPC   NC336839  17.636   3.160   9.451
 2810POPC   PO436840  17.301   3.767   9.574
 2810POPC   GL136841  17.556   3.597   9.203
 2810POPC   GL236842  17.536   3.294   8.986
 2810POPC   C1A36843  17.768   3.709   8.811
 2810POPC   D2A36844  17.571   3.888   8.483
 2810POPC   C3A36845  17.662   3.622   8.157
 2810POPC   C4A36846  17.740   3.900   7.827
 2810POPC   C1B36847  17.254   3.168   8.671
 2810POPC   C2B36848  17.230   3.255   8.235
 2810POPC   C3B36849  17.305   3.236   7.826
 2810POPC   C4B36850  17.683   3.365   7.726
 2811POPC   NC336851   9.530  13.399   9.908
 2811POPC   PO436852   9.809  13.843   9.508
 2811POPC   GL136853   9.965  13.577   9.150
 2811POPC   GL236854  10.170  13.852   9.041
 2811POPC   C1A36855   9.778  13.341   8.782
 2811POPC   D2A36856   9.485  13.255   8.437
 2811POPC   C3A36857   9.610  13.284   8.012
 2811POPC   C4A36858   9.646  13.599   7.674
 2811POPC   C1B36859   9.763  13.878   8.799
 2811POPC   C2B36860   9.691  13.728   8.387
 2811POPC   C3B36861   9.987  13.636   8.066
 2811POPC   C4B36862  10.256  13.673   7.721
 2812POPC   NC336863  39.508  44.377   9.408
 2812POPC   PO436864  39.473   0.100   9.369
 2812POPC   GL136865  39.269  44.970   9.028
 2812POPC   GL236866  39.119  44.666   9.147
 2812POPC   C1A36867  39.355  44.992   8.592
 2812POPC   D2A36868  39.399  44.874   8.170
 2812POPC   C3A36869  39.139  44.809   7.821
 2812POPC   C4A36870  39.329  44.546   7.505
 2812POPC   C1B36871  39.015  44.627   8.721
 2812POPC   C2B36872  39.191  44.435   8.357
 2812POPC   C3B36873  39.043  44.337   7.948
 2812POPC   C4B36874  38.680  44.303   7.709
 2813POPC   NC336875  37.564  16.218   9.377
 2813POPC   PO436876  38.007  15.753   9.586
 2813POPC   GL136877  37.980  15.654   9.161
 2813POPC   GL236878  37.962  16.011   9.108
 2813POPC   C1A36879  37.784  15.744   8.743
 2813POPC   D2A36880  37.587  15.911   8.415
 2813POPC   C3A36881  37.710  15.662   8.114
 2813POPC   C4A36882  37.540  15.697   7.722
 2813POPC   C1B36883  37.782  16.273   8.743
 2813POPC   C2B36884  37.692  16.409   8.304
 2813POPC   C3B36885  37.739  16.151   7.956
 2813POPC   C4B36886  38.030  16.246   7.656
 2814POPC   NC336887  38.890  13.532   9.687
 2814POPC   PO436888  38.428  14.056   9.782
 2814POPC   GL136889  38.439  13.831   9.323
 2814POPC   GL236890  38.223  13.538   9.220
 2814POPC   C1A36891  38.373  13.837   8.827
 2814POPC   D2A36892  38.604  13.658   8.464
 2814POPC   C3A36893  38.626  13.917   8.107
 2814POPC   C4A36894  38.301  13.878   7.811
 2814POPC   C1B36895  38.336  13.328   8.809
 2814POPC   C2B36896  38.383  13.149   8.397
 2814POPC   C3B36897  38.500  13.377   8.030
 2814POPC   C4B36898  38.381  13.384   7.612
 2815POPC   NC336899   8.187  28.804   9.390
 2815POPC   PO436900   7.862  29.466   9.419
 2815POPC   GL136901   7.894  29.136   9.099
 2815POPC   GL236902   8.225  29.210   9.012
 2815POPC   C1A36903   7.944  29.081   8.628
 2815POPC   D2A36904   8.228  29.180   8.310
 2815POPC   C3A36905   8.030  29.349   7.955
 2815POPC   C4A36906   7.762  29.072   7.785
 2815POPC   C1B36907   8.556  29.067   8.761
 2815POPC   C2B36908   8.732  29.117   8.410
 2815POPC   C3B36909   8.621  29.037   8.020
 2815POPC   C4B36910   8.445  29.271   7.676
 2816POPC   NC336911  37.874   8.322   9.547
 2816POPC   PO436912  37.249   8.160   9.413
 2816POPC   GL136913  37.541   8.141   9.113
 2816POPC   GL236914  37.599   8.456   9.143
 2816POPC   C1A36915  37.572   8.114   8.678
 2816POPC   D2A36916  37.414   7.927   8.303
 2816POPC   C3A36917  37.744   8.007   8.022
 2816POPC   C4A36918  37.551   8.213   7.732
 2816POPC   C1B36919  37.990   8.345   8.892
 2816POPC   C2B36920  38.133   8.252   8.461
 2816POPC   C3B36921  38.138   8.344   8.001
 2816POPC   C4B36922  38.012   8.230   7.563
 2817POPC   NC336923  17.535   9.264   9.491
 2817POPC   PO436924  17.465   9.926   9.532
 2817POPC   GL136925  17.557   9.714   9.132
 2817POPC   GL236926  17.684   9.381   9.032
 2817POPC   C1A36927  17.662   9.857   8.752
 2817POPC   D2A36928  17.337   9.955   8.474
 2817POPC   C3A36929  17.402  10.025   8.082
 2817POPC   C4A36930  17.476   9.757   7.793
 2817POPC   C1B36931  17.459   9.423   8.629
 2817POPC   C2B36932  17.369   9.441   8.194
 2817POPC   C3B36933  17.624   9.286   7.840
 2817POPC   C4B36934  17.727   9.388   7.384
 2818POPC   NC336935  14.577  24.776   9.525
 2818POPC   PO436936  14.225  25.352   9.563
 2818POPC   GL136937  14.192  25.341   9.115
 2818POPC   GL236938  14.440  25.101   9.140
 2818POPC   C1A36939  14.414  25.366   8.705
 2818POPC   D2A36940  14.659  25.597   8.403
 2818POPC   C3A36941  14.615  25.428   7.990
 2818POPC   C4A36942  14.403  25.317   7.604
 2818POPC   C1B36943  14.165  24.926   8.810
 2818POPC   C2B36944  14.042  25.036   8.398
 2818POPC   C3B36945  14.161  25.066   7.981
 2818POPC   C4B36946  14.208  24.845   7.579
 2819POPC   NC336947  13.242  35.572   9.780
 2819POPC   PO436948  13.432  35.031   9.350
 2819POPC   GL136949  13.510  35.407   9.111
 2819POPC   GL236950  13.241  35.709   9.047
 2819POPC   C1A36951  13.804  35.346   8.782
 2819POPC   D2A36952  13.984  35.121   8.433
 2819POPC   C3A36953  13.789  35.163   8.015
 2819POPC   C4A36954  13.788  34.995   7.569
 2819POPC   C1B36955  13.533  35.771   8.715
 2819POPC   C2B36956  13.579  35.534   8.363
 2819POPC   C3B36957  13.456  35.616   7.989
 2819POPC   C4B36958  13.648  35.488   7.633
 2820POPC   NC336959  33.889   0.188   9.584
 2820POPC   PO436960  34.427   0.672   9.373
 2820POPC   GL136961  34.072   0.482   9.211
 2820POPC   GL236962  34.052   0.130   9.121
 2820POPC   C1A36963  33.743   0.568   8.948
 2820POPC   D2A36964  33.613   0.507   8.527
 2820POPC   C3A36965  33.714   0.511   8.115
 2820POPC   C4A36966  33.521   0.261   7.792
 2820POPC   C1B36967  33.818   0.088   8.783
 2820POPC   C2B36968  33.941   0.128   8.380
 2820POPC   C3B36969  33.967   0.091   7.957
 2820POPC   C4B36970  34.169   0.076   7.612
 2821POPC   NC336971  24.633  34.786   9.805
 2821POPC   PO436972  24.546  35.329   9.457
 2821POPC   GL136973  24.516  35.521   9.079
 2821POPC   GL236974  24.566  35.226   8.869
 2821POPC   C1A36975  24.570  35.695   8.668
 2821POPC   D2A36976  24.673  35.378   8.357
 2821POPC   C3A36977  24.501  35.531   8.002
 2821POPC   C4A36978  24.301  35.645   7.620
 2821POPC   C1B36979  24.967  35.113   8.694
 2821POPC   C2B36980  25.167  35.196   8.303
 2821POPC   C3B36981  24.928  35.158   7.932
 2821POPC   C4B36982  24.573  35.207   7.630
 2822POPC   NC336983  23.494   1.192   9.584
 2822POPC   PO436984  23.574   0.630   9.448
 2822POPC   GL136985  23.548   0.994   9.120
 2822POPC   GL236986  23.814   1.248   9.171
 2822POPC   C1A36987  23.567   1.246   8.712
 2822POPC   D2A36988  23.476   1.118   8.291
 2822POPC   C3A36989  23.589   1.364   7.956
 2822POPC   C4A36990  23.650   1.146   7.610
 2822POPC   C1B36991  24.046   1.421   8.792
 2822POPC   C2B36992  23.934   1.475   8.329
 2822POPC   C3B36993  24.087   1.270   7.917
 2822POPC   C4B36994  24.118   0.937   7.557
 2823POPC   NC336995  39.621   4.739   9.370
 2823POPC   PO436996  39.297   4.168   9.591
 2823POPC   GL136997  39.194   4.403   9.215
 2823POPC   GL236998  39.459   4.373   9.053
 2823POPC   C1A36999  39.099   4.446   8.740
 2823POPC   D2A37000  39.327   4.307   8.375
 2823POPC   C3A37001  39.002   4.324   8.098
 2823POPC   C4A37002  38.953   4.692   7.826
 2823POPC   C1B37003  39.561   4.053   8.752
 2823POPC   C2B37004  39.618   3.878   8.349
 2823POPC   C3B37005  39.572   4.045   7.947
 2823POPC   C4B37006  39.255   4.249   7.669
 2824POPC   NC337007  20.506   2.083   9.525
 2824POPC   PO437008  21.061   2.184   9.265
 2824POPC   GL137009  20.699   2.175   9.068
 2824POPC   GL237010  20.565   1.853   9.048
 2824POPC   C1A37011  20.463   2.274   8.734
 2824POPC   D2A37012  20.611   2.202   8.334
 2824POPC   C3A37013  20.344   2.265   8.007
 2824POPC   C4A37014  20.341   2.044   7.622
 2824POPC   C1B37015  20.872   1.894   8.675
 2824POPC   C2B37016  21.035   1.939   8.237
 2824POPC   C3B37017  20.785   1.969   7.848
 2824POPC   C4B37018  20.801   1.677   7.461
 2825POPC   NC337019  37.599  33.675   9.777
 2825POPC   PO437020  37.199  33.344   9.368
 2825POPC   GL137021  37.554  33.644   9.201
 2825POPC   GL237022  37.702  33.973   9.134
 2825POPC   C1A37023  37.699  33.708   8.734
 2825POPC   D2A37024  37.615  33.937   8.358
 2825POPC   C3A37025  37.680  33.654   8.017
 2825POPC   C4A37026  37.430  33.479   7.687
 2825POPC   C1B37027  37.960  34.151   8.787
 2825POPC   C2B37028  38.051  34.235   8.339
 2825POPC   C3B37029  37.945  34.105   7.915
 2825POPC   C4B37030  38.072  34.141   7.482
 2826POPC   NC337031  40.029   3.269   9.568
 2826POPC   PO437032  40.183   3.985   9.615
 2826POPC   GL137033  40.150   3.675   9.241
 2826POPC   GL237034  40.329   3.400   9.147
 2826POPC   C1A37035  39.899   3.598   8.850
 2826POPC   D2A37036  39.797   3.402   8.438
 2826POPC   C3A37037  40.024   3.656   8.109
 2826POPC   C4A37038  40.128   3.558   7.672
 2826POPC   C1B37039  40.324   3.205   8.779
 2826POPC   C2B37040  40.303   3.379   8.419
 2826POPC   C3B37041  40.336   3.250   8.024
 2826POPC   C4B37042  40.564   3.300   7.658
 2827POPC   NC337043  36.500  12.464   9.172
 2827POPC   PO437044  37.082  12.695   9.525
 2827POPC   GL137045  36.896  12.789   9.180
 2827POPC   GL237046  37.019  12.448   9.083
 2827POPC   C1A37047  36.860  13.104   8.867
 2827POPC   D2A37048  36.785  13.147   8.416
 2827POPC   C3A37049  37.132  13.221   8.141
 2827POPC   C4A37050  37.146  13.131   7.719
 2827POPC   C1B37051  36.986  12.650   8.685
 2827POPC   C2B37052  37.043  12.725   8.272
 2827POPC   C3B37053  36.785  12.851   7.972
 2827POPC   C4B37054  36.800  12.567   7.694
 2828POPC   NC337055  18.323  39.141   9.593
 2828POPC   PO437056  17.789  39.367   9.332
 2828POPC   GL137057  18.239  39.424   9.158
 2828POPC   GL237058  18.389  39.089   9.068
 2828POPC   C1A37059  18.470  39.484   8.755
 2828POPC   D2A37060  18.434  39.195   8.423
 2828POPC   C3A37061  18.371  39.376   8.054
 2828POPC   C4A37062  18.541  39.340   7.674
 2828POPC   C1B37063  18.446  38.758   8.717
 2828POPC   C2B37064  18.588  38.708   8.273
 2828POPC   C3B37065  18.386  38.889   7.877
 2828POPC   C4B37066  18.005  39.175   7.753
 2829POPC   NC337067   8.946  14.062   9.438
 2829POPC   PO437068   8.703  14.684   9.413
 2829POPC   GL137069   8.883  14.591   9.017
 2829POPC   GL237070   9.230  14.697   8.973
 2829POPC   C1A37071   8.709  14.466   8.629
 2829POPC   D2A37072   8.393  14.463   8.321
 2829POPC   C3A37073   8.616  14.374   7.974
 2829POPC   C4A37074   8.949  14.582   7.767
 2829POPC   C1B37075   9.198  14.336   8.650
 2829POPC   C2B37076   9.141  14.302   8.184
 2829POPC   C3B37077   9.423  14.427   7.815
 2829POPC   C4B37078   9.402  14.819   7.589
 2830POPC   NC337079  44.171  28.661   9.535
 2830POPC   PO437080  43.720  28.179   9.453
 2830POPC   GL137081  43.732  28.558   9.126
 2830POPC   GL237082  43.920  28.888   9.158
 2830POPC   C1A37083  43.792  28.494   8.665
 2830POPC   D2A37084  43.867  28.136   8.385
 2830POPC   C3A37085  43.853  28.282   7.968
 2830POPC   C4A37086  43.942  28.150   7.529
 2830POPC   C1B37087  44.198  28.763   8.816
 2830POPC   C2B37088  44.262  28.594   8.401
 2830POPC   C3B37089  44.195  28.742   7.990
 2830POPC   C4B37090  43.875  28.689   7.678
 2831POPC   NC337091  25.952  10.805   9.576
 2831POPC   PO437092  26.142  10.332   9.998
 2831POPC   GL137093  26.202  10.391   9.416
 2831POPC   GL237094  26.508  10.308   9.184
 2831POPC   C1A37095  26.139  10.684   8.975
 2831POPC   D2A37096  25.904  10.591   8.557
 2831POPC   C3A37097  25.883  10.778   8.137
 2831POPC   C4A37098  26.138  10.867   7.816
 2831POPC   C1B37099  26.223  10.217   8.829
 2831POPC   C2B37100  26.096  10.122   8.412
 2831POPC   C3B37101  25.947  10.269   8.064
 2831POPC   C4B37102  26.204  10.347   7.753
 2832POPC   NC337103  26.137  41.220   9.566
 2832POPC   PO437104  25.713  41.676   9.450
 2832POPC   GL137105  25.961  41.490   9.140
 2832POPC   GL237106  26.091  41.826   9.105
 2832POPC   C1A37107  25.994  41.456   8.687
 2832POPC   D2A37108  25.882  41.332   8.268
 2832POPC   C3A37109  26.036  41.437   7.870
 2832POPC   C4A37110  26.146  41.482   7.438
 2832POPC   C1B37111  26.145  41.939   8.683
 2832POPC   C2B37112  26.203  41.746   8.279
 2832POPC   C3B37113  26.214  41.926   7.866
 2832POPC   C4B37114  25.971  41.960   7.482
 2833POPC   NC337115   7.648  29.105   9.612
 2833POPC   PO437116   7.031  28.917   9.331
 2833POPC   GL137117   7.169  29.103   9.034
 2833POPC   GL237118   7.415  29.279   9.187
 2833POPC   C1A37119   7.138  29.049   8.608
 2833POPC   D2A37120   7.482  28.968   8.304
 2833POPC   C3A37121   7.320  28.842   7.910
 2833POPC   C4A37122   7.237  29.089   7.576
 2833POPC   C1B37123   7.525  29.354   8.764
 2833POPC   C2B37124   7.327  29.464   8.369
 2833POPC   C3B37125   7.403  29.377   7.963
 2833POPC   C4B37126   7.565  29.493   7.579
 2834POPC   NC337127  35.390  23.025   9.638
 2834POPC   PO437128  36.084  23.029   9.499
 2834POPC   GL137129  35.872  23.061   9.165
 2834POPC   GL237130  35.769  22.773   9.106
 2834POPC   C1A37131  36.075  23.031   8.776
 2834POPC   D2A37132  36.248  22.719   8.516
 2834POPC   C3A37133  36.058  22.823   8.148
 2834POPC   C4A37134  36.225  22.963   7.768
 2834POPC   C1B37135  35.762  22.639   8.712
 2834POPC   C2B37136  35.545  22.720   8.326
 2834POPC   C3B37137  35.642  22.764   7.888
 2834POPC   C4B37138  35.714  23.026   7.574
 2835POPC   NC337139  24.572  28.039   9.433
 2835POPC   PO437140  24.779  28.706   9.429
 2835POPC   GL137141  24.501  28.494   9.177
 2835POPC   GL237142  24.188  28.286   9.230
 2835POPC   C1A37143  24.557  28.408   8.759
 2835POPC   D2A37144  24.717  28.598   8.364
 2835POPC   C3A37145  24.474  28.442   8.029
 2835POPC   C4A37146  24.417  28.297   7.597
 2835POPC   C1B37147  24.100  28.151   8.822
 2835POPC   C2B37148  24.272  28.153   8.409
 2835POPC   C3B37149  24.038  28.150   8.040
 2835POPC   C4B37150  24.071  27.921   7.648
 2836POPC   NC337151  39.767  19.380   9.376
 2836POPC   PO437152  40.192  19.807   9.692
 2836POPC   GL137153  40.126  19.896   9.248
 2836POPC   GL237154  39.794  19.791   9.086
 2836POPC   C1A37155  40.179  19.973   8.803
 2836POPC   D2A37156  40.026  19.717   8.481
 2836POPC   C3A37157  40.067  19.877   8.100
 2836POPC   C4A37158  40.083  19.938   7.674
 2836POPC   C1B37159  39.563  19.744   8.681
 2836POPC   C2B37160  39.524  19.792   8.237
 2836POPC   C3B37161  39.493  19.993   7.851
 2836POPC   C4B37162  39.596  19.818   7.463
 2837POPC   NC337163  25.590  30.678   9.420
 2837POPC   PO437164  25.017  30.891   9.736
 2837POPC   GL137165  25.062  30.565   9.321
 2837POPC   GL237166  25.259  30.740   9.049
 2837POPC   C1A37167  24.998  30.381   8.833
 2837POPC   D2A37168  24.858  30.385   8.369
 2837POPC   C3A37169  25.163  30.383   8.021
 2837POPC   C4A37170  25.144  30.491   7.564
 2837POPC   C1B37171  25.566  30.664   8.729
 2837POPC   C2B37172  25.485  30.696   8.289
 2837POPC   C3B37173  25.411  30.836   7.863
 2837POPC   C4B37174  25.434  30.876   7.399
 2838POPC   NC337175  37.094  16.696   9.881
 2838POPC   PO437176  36.686  16.499   9.368
 2838POPC   GL137177  36.700  16.683   8.994
 2838POPC   GL237178  37.033  16.621   8.875
 2838POPC   C1A37179  36.687  16.688   8.532
 2838POPC   D2A37180  37.012  16.952   8.385
 2838POPC   C3A37181  36.966  16.814   8.008
 2838POPC   C4A37182  36.859  16.969   7.656
 2838POPC   C1B37183  36.779  16.233   8.752
 2838POPC   C2B37184  36.640  16.159   8.330
 2838POPC   C3B37185  36.748  16.180   7.906
 2838POPC   C4B37186  36.914  16.422   7.572
 2839POPC   NC337187  34.710  16.638   9.484
 2839POPC   PO437188  34.296  17.187   9.658
 2839POPC   GL137189  34.391  17.000   9.213
 2839POPC   GL237190  34.133  17.057   8.981
 2839POPC   C1A37191  34.570  16.999   8.735
 2839POPC   D2A37192  34.642  17.237   8.329
 2839POPC   C3A37193  34.680  17.007   7.922
 2839POPC   C4A37194  34.835  16.570   7.759
 2839POPC   C1B37195  34.268  16.612   8.872
 2839POPC   C2B37196  34.465  16.337   8.579
 2839POPC   C3B37197  34.530  16.368   8.137
 2839POPC   C4B37198  34.330  16.645   7.819
 2840POPC   NC337199  39.865   9.254   9.522
 2840POPC   PO437200  40.163   8.634   9.508
 2840POPC   GL137201  40.222   8.951   9.199
 2840POPC   GL237202  39.918   8.998   9.087
 2840POPC   C1A37203  40.352   8.991   8.793
 2840POPC   D2A37204  40.216   9.054   8.393
 2840POPC   C3A37205  40.338   8.858   8.044
 2840POPC   C4A37206  40.171   8.971   7.694
 2840POPC   C1B37207  39.813   9.149   8.680
 2840POPC   C2B37208  39.726   8.981   8.291
 2840POPC   C3B37209  39.720   9.161   7.902
 2840POPC   C4B37210  39.391   9.127   7.622
 2841POPC   NC337211  21.095  23.221   9.529
 2841POPC   PO437212  21.680  22.844   9.661
 2841POPC   GL137213  21.445  22.889   9.250
 2841POPC   GL237214  21.102  22.844   9.218
 2841POPC   C1A37215  21.416  23.030   8.832
 2841POPC   D2A37216  21.476  22.783   8.471
 2841POPC   C3A37217  21.418  22.968   8.111
 2841POPC   C4A37218  21.475  22.879   7.704
 2841POPC   C1B37219  20.916  23.055   8.864
 2841POPC   C2B37220  21.085  23.208   8.467
 2841POPC   C3B37221  20.918  23.054   8.074
 2841POPC   C4B37222  20.991  22.903   7.677
 2842POPC   NC337223  26.648  13.170   9.376
 2842POPC   PO437224  26.986  12.574   9.470
 2842POPC   GL137225  26.762  12.623   9.096
 2842POPC   GL237226  26.864  12.980   8.971
 2842POPC   C1A37227  26.896  12.605   8.654
 2842POPC   D2A37228  26.938  12.994   8.417
 2842POPC   C3A37229  26.981  12.857   7.995
 2842POPC   C4A37230  26.656  12.541   7.866
 2842POPC   C1B37231  26.634  13.336   8.750
 2842POPC   C2B37232  26.343  13.338   8.427
 2842POPC   C3B37233  26.543  13.270   8.051
 2842POPC   C4B37234  26.621  13.033   7.700
 2843POPC   NC337235  42.599  41.626   9.410
 2843POPC   PO437236  41.994  41.822   9.504
 2843POPC   GL137237  41.973  41.947   9.063
 2843POPC   GL237238  42.320  41.814   9.007
 2843POPC   C1A37239  41.919  41.747   8.696
 2843POPC   D2A37240  42.143  41.498   8.470
 2843POPC   C3A37241  41.977  41.602   8.117
 2843POPC   C4A37242  42.066  41.480   7.733
 2843POPC   C1B37243  42.545  41.941   8.635
 2843POPC   C2B37244  42.402  41.882   8.238
 2843POPC   C3B37245  42.467  41.477   8.045
 2843POPC   C4B37246  42.805  41.436   7.768
 2844POPC   NC337247   0.111  34.078   9.161
 2844POPC   PO437248   0.600  33.788   9.518
 2844POPC   GL137249   0.444  33.614   9.152
 2844POPC   GL237250   0.093  33.520   9.112
 2844POPC   C1A37251   0.457  33.729   8.751
 2844POPC   D2A37252   0.370  33.988   8.485
 2844POPC   C3A37253   0.348  33.838   8.085
 2844POPC   C4A37254   0.293  34.107   7.770
 2844POPC   C1B37255   0.102  33.354   8.738
 2844POPC   C2B37256  44.990  33.568   8.395
 2844POPC   C3B37257  44.952  33.415   7.997
 2844POPC   C4B37258   0.048  33.681   7.656
 2845POPC   NC337259  25.466  37.309   9.520
 2845POPC   PO437260  25.018  37.901   9.399
 2845POPC   GL137261  25.293  37.630   9.171
 2845POPC   GL237262  25.064  37.359   9.158
 2845POPC   C1A37263  25.404  37.476   8.778
 2845POPC   D2A37264  25.473  37.655   8.407
 2845POPC   C3A37265  25.399  37.475   8.012
 2845POPC   C4A37266  25.489  37.840   7.801
 2845POPC   C1B37267  24.887  37.509   8.747
 2845POPC   C2B37268  24.961  37.527   8.289
 2845POPC   C3B37269  24.981  37.759   7.866
 2845POPC   C4B37270  25.153  37.573   7.470
 2846POPC   NC337271  18.419  33.510   9.515
 2846POPC   PO437272  18.012  33.968   9.359
 2846POPC   GL137273  18.423  33.937   9.194
 2846POPC   GL237274  18.268  33.656   9.021
 2846POPC   C1A37275  18.525  34.012   8.765
 2846POPC   D2A37276  18.181  33.992   8.467
 2846POPC   C3A37277  18.420  33.969   8.111
 2846POPC   C4A37278  18.281  33.969   7.692
 2846POPC   C1B37279  17.998  33.538   8.664
 2846POPC   C2B37280  18.111  33.310   8.290
 2846POPC   C3B37281  18.181  33.523   7.925
 2846POPC   C4B37282  18.035  33.550   7.509
 2847POPC   NC337283  12.567  42.678   9.417
 2847POPC   PO437284  12.874  43.265   9.494
 2847POPC   GL137285  12.890  43.169   9.090
 2847POPC   GL237286  12.545  43.078   9.050
 2847POPC   C1A37287  12.867  43.396   8.721
 2847POPC   D2A37288  12.712  43.373   8.327
 2847POPC   C3A37289  12.889  43.142   8.032
 2847POPC   C4A37290  12.576  43.163   7.734
 2847POPC   C1B37291  12.612  42.931   8.622
 2847POPC   C2B37292  12.485  42.874   8.189
 2847POPC   C3B37293  12.399  42.701   7.772
 2847POPC   C4B37294  12.468  42.861   7.342
 2848POPC   NC337295  36.587  12.468   9.687
 2848POPC   PO437296  36.838  11.876   9.432
 2848POPC   GL137297  36.989  11.909   9.065
 2848POPC   GL237298  37.311  12.017   9.049
 2848POPC   C1A37299  36.938  12.141   8.699
 2848POPC   D2A37300  36.799  12.012   8.354
 2848POPC   C3A37301  36.820  12.250   8.069
 2848POPC   C4A37302  36.882  12.020   7.739
 2848POPC   C1B37303  37.234  11.737   8.653
 2848POPC   C2B37304  37.091  11.613   8.236
 2848POPC   C3B37305  37.307  11.662   7.845
 2848POPC   C4B37306  37.257  11.865   7.432
 2849POPC   NC337307  43.334  28.462   9.460
 2849POPC   PO437308  42.723  28.217   9.448
 2849POPC   GL137309  43.012  28.301   9.106
 2849POPC   GL237310  43.090  27.953   8.997
 2849POPC   C1A37311  43.290  28.474   8.787
 2849POPC   D2A37312  43.364  28.297   8.368
 2849POPC   C3A37313  43.134  28.482   8.030
 2849POPC   C4A37314  43.377  28.543   7.663
 2849POPC   C1B37315  42.927  28.140   8.610
 2849POPC   C2B37316  42.670  28.346   8.309
 2849POPC   C3B37317  42.674  28.206   7.889
 2849POPC   C4B37318  43.002  28.174   7.609
 2850POPC   NC337319   4.092  22.608   9.488
 2850POPC   PO437320   4.542  23.063   9.630
 2850POPC   GL137321   4.259  23.153   9.258
 2850POPC   GL237322   4.243  22.857   9.065
 2850POPC   C1A37323   4.084  23.252   8.820
 2850POPC   D2A37324   4.137  22.954   8.470
 2850POPC   C3A37325   4.202  23.086   8.043
 2850POPC   C4A37326   4.025  23.203   7.677
 2850POPC   C1B37327   4.571  23.095   8.810
 2850POPC   C2B37328   4.647  23.079   8.362
 2850POPC   C3B37329   4.530  22.707   8.141
 2850POPC   C4B37330   4.496  22.553   7.742
 2851POPC   NC337331   1.813   7.112   9.623
 2851POPC   PO437332   2.008   7.772   9.447
 2851POPC   GL137333   2.033   7.566   9.090
 2851POPC   GL237334   1.830   7.253   9.126
 2851POPC   C1A37335   1.860   7.547   8.704
 2851POPC   D2A37336   1.876   7.349   8.314
 2851POPC   C3A37337   1.836   7.594   7.951
 2851POPC   C4A37338   1.682   7.555   7.542
 2851POPC   C1B37339   2.194   7.109   8.908
 2851POPC   C2B37340   2.324   7.146   8.481
 2851POPC   C3B37341   2.242   7.089   8.028
 2851POPC   C4B37342   2.456   7.043   7.636
 2852POPC   NC337343  13.601  35.829   9.382
 2852POPC   PO437344  13.932  36.423   9.415
 2852POPC   GL137345  13.865  36.246   9.041
 2852POPC   GL237346  13.533  36.258   9.095
 2852POPC   C1A37347  13.730  36.275   8.617
 2852POPC   D2A37348  13.681  36.029   8.258
 2852POPC   C3A37349  13.752  36.181   7.849
 2852POPC   C4A37350  13.900  36.029   7.434
 2852POPC   C1B37351  13.260  36.190   8.760
 2852POPC   C2B37352  13.185  35.994   8.385
 2852POPC   C3B37353  13.237  36.083   7.973
 2852POPC   C4B37354  13.408  35.944   7.583
 2853POPC   NC337355  14.378  36.453   9.461
 2853POPC   PO437356  14.737  35.922   9.766
 2853POPC   GL137357  14.661  36.049   9.289
 2853POPC   GL237358  14.954  35.865   9.172
 2853POPC   C1A37359  14.364  36.191   8.867
 2853POPC   D2A37360  14.160  36.108   8.439
 2853POPC   C3A37361  14.221  36.185   8.013
 2853POPC   C4A37362  14.366  36.133   7.586
 2853POPC   C1B37363  14.635  35.734   8.885
 2853POPC   C2B37364  14.570  35.827   8.481
 2853POPC   C3B37365  14.480  35.747   8.060
 2853POPC   C4B37366  14.693  35.735   7.675
 2854POPC   NC337367  14.182  37.060   9.420
 2854POPC   PO437368  14.720  36.744   9.423
 2854POPC   GL137369  14.470  36.741   9.029
 2854POPC   GL237370  14.230  37.022   8.925
 2854POPC   C1A37371  14.523  36.827   8.564
 2854POPC   D2A37372  14.440  36.948   8.134
 2854POPC   C3A37373  14.461  36.604   7.864
 2854POPC   C4A37374  14.584  36.592   7.437
 2854POPC   C1B37375  14.081  36.630   8.730
 2854POPC   C2B37376  14.117  36.585   8.325
 2854POPC   C3B37377  13.963  36.716   7.976
 2854POPC   C4B37378  13.995  36.554   7.600
 2855POPC   NC337379   4.452  44.215   9.468
 2855POPC   PO437380   4.119  43.593   9.424
 2855POPC   GL137381   4.304  43.536   9.045
 2855POPC   GL237382   4.568  43.752   9.077
 2855POPC   C1A37383   4.319  43.703   8.622
 2855POPC   D2A37384   4.404  43.757   8.190
 2855POPC   C3A37385   4.089  43.919   7.957
 2855POPC   C4A37386   4.027  44.242   7.688
 2855POPC   C1B37387   4.602  44.112   8.807
 2855POPC   C2B37388   4.417  44.249   8.401
 2855POPC   C3B37389   4.501  44.213   7.975
 2855POPC   C4B37390   4.733  44.202   7.631
 2856POPC   NC337391   4.465  21.705   9.517
 2856POPC   PO437392   4.016  21.324   9.318
 2856POPC   GL137393   4.435  21.251   9.118
 2856POPC   GL237394   4.539  21.584   9.023
 2856POPC   C1A37395   4.592  21.076   8.697
 2856POPC   D2A37396   4.335  20.965   8.300
 2856POPC   C3A37397   4.403  21.185   7.899
 2856POPC   C4A37398   4.462  21.631   7.768
 2856POPC   C1B37399   4.227  21.487   8.689
 2856POPC   C2B37400   4.276  21.540   8.255
 2856POPC   C3B37401   3.998  21.524   7.901
 2856POPC   C4B37402   4.079  21.288   7.503
 2857POPC   NC337403   9.753   5.450   9.491
 2857POPC   PO437404   9.341   6.049   9.515
 2857POPC   GL137405   9.598   5.869   9.214
 2857POPC   GL237406   9.384   5.610   9.173
 2857POPC   C1A37407   9.671   5.960   8.780
 2857POPC   D2A37408   9.550   6.154   8.382
 2857POPC   C3A37409   9.812   6.041   8.045
 2857POPC   C4A37410   9.957   5.781   7.701
 2857POPC   C1B37411   9.278   5.605   8.773
 2857POPC   C2B37412   9.461   5.644   8.396
 2857POPC   C3B37413   9.315   5.789   8.024
 2857POPC   C4B37414   9.450   6.014   7.681
 2858POPC   NC337415  28.052   4.345   9.623
 2858POPC   PO437416  27.388   4.492   9.629
 2858POPC   GL137417  27.493   4.237   9.261
 2858POPC   GL237418  27.860   4.187   9.137
 2858POPC   C1A37419  27.386   4.231   8.835
 2858POPC   D2A37420  27.660   4.181   8.550
 2858POPC   C3A37421  27.610   4.166   8.124
 2858POPC   C4A37422  27.221   4.198   7.895
 2858POPC   C1B37423  27.843   4.578   8.864
 2858POPC   C2B37424  27.822   4.793   8.437
 2858POPC   C3B37425  27.845   4.675   7.980
 2858POPC   C4B37426  27.655   4.400   7.666
 2859POPC   NC337427   1.531   3.299   9.451
 2859POPC   PO437428   1.072   3.878   9.515
 2859POPC   GL137429   1.093   3.862   9.108
 2859POPC   GL237430   1.121   3.503   9.139
 2859POPC   C1A37431   1.005   3.759   8.680
 2859POPC   D2A37432   1.262   3.609   8.331
 2859POPC   C3A37433   1.135   3.677   7.910
 2859POPC   C4A37434   0.828   3.553   7.606
 2859POPC   C1B37435   1.245   3.293   8.787
 2859POPC   C2B37436   1.482   3.159   8.451
 2859POPC   C3B37437   1.259   3.140   8.072
 2859POPC   C4B37438   1.275   3.235   7.658
 2860POPC   NC337439   3.075  41.097   9.632
 2860POPC   PO437440   3.629  41.552   9.525
 2860POPC   GL137441   3.546  41.515   9.129
 2860POPC   GL237442   3.244  41.352   9.218
 2860POPC   C1A37443   3.699  41.783   8.799
 2860POPC   D2A37444   3.967  41.969   8.481
 2860POPC   C3A37445   3.754  41.890   8.127
 2860POPC   C4A37446   3.791  41.627   7.784
 2860POPC   C1B37447   3.232  41.302   8.795
 2860POPC   C2B37448   3.414  41.514   8.449
 2860POPC   C3B37449   3.323  41.599   8.035
 2860POPC   C4B37450   3.300  41.344   7.686
 2861POPC   NC337451  22.701  30.680   9.602
 2861POPC   PO437452  23.315  30.910   9.509
 2861POPC   GL137453  23.047  30.747   9.188
 2861POPC   GL237454  22.763  30.960   9.182
 2861POPC   C1A37455  23.099  30.873   8.767
 2861POPC   D2A37456  23.178  31.162   8.452
 2861POPC   C3A37457  23.223  30.915   8.083
 2861POPC   C4A37458  23.252  30.607   7.733
 2861POPC   C1B37459  22.581  30.835   8.822
 2861POPC   C2B37460  22.723  30.926   8.416
 2861POPC   C3B37461  22.821  30.608   8.164
 2861POPC   C4B37462  22.671  30.524   7.786
 2862POPC   NC337463  31.408  35.211   9.570
 2862POPC   PO437464  31.630  35.808   9.725
 2862POPC   GL137465  31.636  35.504   9.242
 2862POPC   GL237466  31.292  35.386   9.094
 2862POPC   C1A37467  31.668  35.531   8.773
 2862POPC   D2A37468  31.398  35.607   8.420
 2862POPC   C3A37469  31.602  35.588   8.019
 2862POPC   C4A37470  31.881  35.381   7.755
 2862POPC   C1B37471  31.338  35.133   8.686
 2862POPC   C2B37472  31.377  35.131   8.216
 2862POPC   C3B37473  31.422  35.102   7.764
 2862POPC   C4B37474  31.128  35.179   7.429
 2863POPC   NC337475   4.985  26.653   9.683
 2863POPC   PO437476   5.489  27.070   9.420
 2863POPC   GL137477   5.233  26.793   9.117
 2863POPC   GL237478   4.931  26.543   9.171
 2863POPC   C1A37479   4.991  26.844   8.725
 2863POPC   D2A37480   4.949  27.150   8.377
 2863POPC   C3A37481   4.991  26.959   7.972
 2863POPC   C4A37482   5.400  26.868   7.826
 2863POPC   C1B37483   4.908  26.350   8.753
 2863POPC   C2B37484   5.002  26.460   8.330
 2863POPC   C3B37485   4.758  26.474   7.969
 2863POPC   C4B37486   4.769  26.518   7.545
 2864POPC   NC337487  13.163  27.671   9.570
 2864POPC   PO437488  13.671  27.193   9.540
 2864POPC   GL137489  13.795  27.434   9.156
 2864POPC   GL237490  13.560  27.712   9.186
 2864POPC   C1A37491  13.770  27.634   8.707
 2864POPC   D2A37492  13.589  27.713   8.264
 2864POPC   C3A37493  13.789  27.513   7.905
 2864POPC   C4A37494  14.042  27.148   7.810
 2864POPC   C1B37495  13.311  27.407   8.950
 2864POPC   C2B37496  13.272  27.341   8.511
 2864POPC   C3B37497  13.113  27.329   8.108
 2864POPC   C4B37498  13.286  27.500   7.749
 2865POPC   NC337499   0.150   7.502   9.455
 2865POPC   PO437500   0.756   7.214   9.522
 2865POPC   GL137501   0.570   7.363   9.147
 2865POPC   GL237502   0.241   7.237   9.046
 2865POPC   C1A37503   0.560   7.507   8.719
 2865POPC   D2A37504   0.699   7.261   8.356
 2865POPC   C3A37505   0.520   7.232   7.923
 2865POPC   C4A37506   0.449   7.602   7.677
 2865POPC   C1B37507   0.069   7.425   8.683
 2865POPC   C2B37508   0.214   7.510   8.280
 2865POPC   C3B37509  44.997   7.423   7.916
 2865POPC   C4B37510   0.079   7.267   7.542
 2866POPC   NC337511  34.300   6.434   9.499
 2866POPC   PO437512  33.703   6.640   9.753
 2866POPC   GL137513  33.767   6.583   9.286
 2866POPC   GL237514  34.090   6.717   9.138
 2866POPC   C1A37515  33.595   6.722   8.862
 2866POPC   D2A37516  33.701   6.842   8.448
 2866POPC   C3A37517  33.501   6.716   8.053
 2866POPC   C4A37518  33.593   6.661   7.620
 2866POPC   C1B37519  34.257   6.615   8.739
 2866POPC   C2B37520  34.093   6.522   8.342
 2866POPC   C3B37521  33.996   6.682   7.938
 2866POPC   C4B37522  34.008   7.018   7.624
 2867POPC   NC337523  26.993  41.464   9.743
 2867POPC   PO437524  27.699  41.493   9.563
 2867POPC   GL137525  27.684  41.462   9.108
 2867POPC   GL237526  27.331  41.368   9.146
 2867POPC   C1A37527  27.785  41.782   8.762
 2867POPC   D2A37528  27.954  41.865   8.343
 2867POPC   C3A37529  27.839  41.486   8.101
 2867POPC   C4A37530  27.599  41.481   7.733
 2867POPC   C1B37531  27.277  41.580   8.731
 2867POPC   C2B37532  27.454  41.761   8.351
 2867POPC   C3B37533  27.306  41.865   7.964
 2867POPC   C4B37534  27.009  41.801   7.634
 2868POPC   NC337535   3.923  21.860   9.263
 2868POPC   PO437536   4.494  22.170   9.556
 2868POPC   GL137537   4.376  22.088   9.140
 2868POPC   GL237538   4.178  22.353   8.967
 2868POPC   C1A37539   4.407  21.982   8.712
 2868POPC   D2A37540   4.377  22.292   8.401
 2868POPC   C3A37541   4.430  22.097   8.015
 2868POPC   C4A37542   4.646  22.097   7.648
 2868POPC   C1B37543   3.917  22.126   8.638
 2868POPC   C2B37544   3.979  21.951   8.226
 2868POPC   C3B37545   3.943  22.177   7.852
 2868POPC   C4B37546   4.010  22.645   7.850
 2869POPC   NC337547  39.363  27.351   9.572
 2869POPC   PO437548  39.212  28.066   9.731
 2869POPC   GL137549  39.247  27.817   9.293
 2869POPC   GL237550  38.993  27.916   9.047
 2869POPC   C1A37551  39.406  27.659   8.902
 2869POPC   D2A37552  39.541  27.801   8.495
 2869POPC   C3A37553  39.324  27.638   8.160
 2869POPC   C4A37554  39.348  27.741   7.763
 2869POPC   C1B37555  38.990  27.737   8.608
 2869POPC   C2B37556  38.832  27.604   8.187
 2869POPC   C3B37557  38.856  27.872   7.777
 2869POPC   C4B37558  39.106  27.993   7.368
 2870POPC   NC337559  22.228  21.113   9.775
 2870POPC   PO437560  22.086  20.524   9.508
 2870POPC   GL137561  22.060  20.766   9.159
 2870POPC   GL237562  22.392  20.611   9.091
 2870POPC   C1A37563  21.817  20.793   8.778
 2870POPC   D2A37564  21.935  20.597   8.403
 2870POPC   C3A37565  21.930  20.805   8.057
 2870POPC   C4A37566  22.100  20.734   7.678
 2870POPC   C1B37567  22.354  20.767   8.685
 2870POPC   C2B37568  22.474  20.636   8.300
 2870POPC   C3B37569  22.540  20.664   7.895
 2870POPC   C4B37570  22.614  21.045   7.697
 2871POPC   NC337571  39.384  43.511   9.433
 2871POPC   PO437572  39.096  44.177   9.290
 2871POPC   GL137573  39.435  44.012   9.050
 2871POPC   GL237574  39.557  43.684   8.997
 2871POPC   C1A37575  39.622  44.121   8.684
 2871POPC   D2A37576  39.471  44.005   8.291
 2871POPC   C3A37577  39.494  44.146   7.851
 2871POPC   C4A37578  39.151  43.956   7.650
 2871POPC   C1B37579  39.340  43.515   8.670
 2871POPC   C2B37580  39.214  43.522   8.257
 2871POPC   C3B37581  39.479  43.641   7.952
 2871POPC   C4B37582  39.562  43.707   7.564
 2872POPC   NC337583  43.626  34.401   9.403
 2872POPC   PO437584  44.207  34.714   9.552
 2872POPC   GL137585  43.997  34.659   9.146
 2872POPC   GL237586  44.026  34.263   9.095
 2872POPC   C1A37587  44.098  34.638   8.703
 2872POPC   D2A37588  44.086  34.319   8.396
 2872POPC   C3A37589  43.900  34.412   7.994
 2872POPC   C4A37590  44.133  34.365   7.638
 2872POPC   C1B37591  43.707  34.291   8.748
 2872POPC   C2B37592  43.648  34.601   8.412
 2872POPC   C3B37593  43.563  34.798   8.001
 2872POPC   C4B37594  43.758  34.755   7.606
 2873POPC   NC337595  17.464  16.091   9.743
 2873POPC   PO437596  16.876  15.659   9.619
 2873POPC   GL137597  17.235  15.765   9.341
 2873POPC   GL237598  17.405  16.091   9.219
 2873POPC   C1A37599  17.232  15.776   8.885
 2873POPC   D2A37600  17.431  15.713   8.539
 2873POPC   C3A37601  17.415  15.879   8.127
 2873POPC   C4A37602  17.756  15.776   7.883
 2873POPC   C1B37603  17.605  16.126   8.769
 2873POPC   C2B37604  17.730  16.413   8.417
 2873POPC   C3B37605  17.774  16.447   7.948
 2873POPC   C4B37606  17.452  16.242   7.706
 2874POPC   NC337607   1.822   1.885   9.446
 2874POPC   PO437608   2.481   1.611   9.505
 2874POPC   GL137609   2.198   1.668   9.148
 2874POPC   GL237610   1.840   1.696   8.990
 2874POPC   C1A37611   2.226   1.935   8.777
 2874POPC   D2A37612   2.240   2.166   8.401
 2874POPC   C3A37613   2.066   2.117   8.032
 2874POPC   C4A37614   2.270   1.983   7.691
 2874POPC   C1B37615   1.583   1.806   8.654
 2874POPC   C2B37616   1.641   1.932   8.229
 2874POPC   C3B37617   1.711   1.870   7.771
 2874POPC   C4B37618   1.911   1.613   7.463
 2875POPC   NC337619  18.165  17.909   9.361
 2875POPC   PO437620  18.445  18.486   9.417
 2875POPC   GL137621  18.348  18.307   9.065
 2875POPC   GL237622  18.002  18.321   9.098
 2875POPC   C1A37623  18.246  18.473   8.673
 2875POPC   D2A37624  18.297  18.235   8.321
 2875POPC   C3A37625  18.198  18.416   7.954
 2875POPC   C4A37626  18.383  18.380   7.570
 2875POPC   C1B37627  18.012  18.025   8.719
 2875POPC   C2B37628  17.972  17.818   8.307
 2875POPC   C3B37629  17.852  17.978   7.907
 2875POPC   C4B37630  17.929  18.129   7.500
 2876POPC   NC337631   2.186   4.848   9.526
 2876POPC   PO437632   1.684   5.204   9.414
 2876POPC   GL137633   1.812   4.903   9.128
 2876POPC   GL237634   2.156   5.005   9.021
 2876POPC   C1A37635   1.792   4.828   8.686
 2876POPC   D2A37636   1.971   5.033   8.343
 2876POPC   C3A37637   1.898   4.919   7.922
 2876POPC   C4A37638   1.578   4.738   7.643
 2876POPC   C1B37639   2.329   5.278   8.630
 2876POPC   C2B37640   2.334   5.326   8.119
 2876POPC   C3B37641   2.379   5.021   7.732
 2876POPC   C4B37642   2.400   5.163   7.292
 2877POPC   NC337643  40.691   2.226   9.458
 2877POPC   PO437644  41.065   1.692   9.315
 2877POPC   GL137645  40.748   1.893   9.075
 2877POPC   GL237646  40.889   2.255   8.991
 2877POPC   C1A37647  40.703   1.904   8.643
 2877POPC   D2A37648  40.918   2.187   8.385
 2877POPC   C3A37649  40.914   1.990   7.996
 2877POPC   C4A37650  40.912   1.774   7.612
 2877POPC   C1B37651  40.501   2.343   8.820
 2877POPC   C2B37652  40.433   2.438   8.413
 2877POPC   C3B37653  40.626   2.401   8.019
 2877POPC   C4B37654  40.581   2.155   7.647
 2878POPC   NC337655  41.804  38.173   9.570
 2878POPC   PO437656  41.241  38.624   9.625
 2878POPC   GL137657  41.555  38.665   9.206
 2878POPC   GL237658  41.395  38.759   8.847
 2878POPC   C1A37659  41.825  38.505   8.819
 2878POPC   D2A37660  41.692  38.577   8.367
 2878POPC   C3A37661  41.950  38.561   7.970
 2878POPC   C4A37662  41.814  38.606   7.482
 2878POPC   C1B37663  41.205  38.338   8.704
 2878POPC   C2B37664  41.158  38.100   8.307
 2878POPC   C3B37665  41.113  38.290   7.942
 2878POPC   C4B37666  41.473  38.507   7.846
 2879POPC   NC337667   8.580  30.898   9.305
 2879POPC   PO437668   9.136  30.592   9.553
 2879POPC   GL137669   9.002  30.588   9.091
 2879POPC   GL237670   8.955  30.902   8.966
 2879POPC   C1A37671   8.757  30.562   8.655
 2879POPC   D2A37672   8.866  30.504   8.232
 2879POPC   C3A37673   9.097  30.767   7.962
 2879POPC   C4A37674   8.984  30.883   7.549
 2879POPC   C1B37675   9.229  30.731   8.611
 2879POPC   C2B37676   9.531  30.982   8.437
 2879POPC   C3B37677   9.441  31.172   8.066
 2879POPC   C4B37678   9.449  31.026   7.665
 2880POPC   NC337679  28.862   8.198   9.586
 2880POPC   PO437680  29.369   7.867   9.326
 2880POPC   GL137681  29.215   8.168   9.056
 2880POPC   GL237682  29.353   8.467   9.097
 2880POPC   C1A37683  28.953   8.418   8.763
 2880POPC   D2A37684  29.054   8.458   8.327
 2880POPC   C3A37685  29.186   8.074   8.160
 2880POPC   C4A37686  29.073   7.789   7.843
 2880POPC   C1B37687  29.619   8.507   8.760
 2880POPC   C2B37688  29.644   8.722   8.360
 2880POPC   C3B37689  29.556   8.428   8.058
 2880POPC   C4B37690  29.412   8.177   7.719
 2881POPC   NC337691  39.214  10.602   9.493
 2881POPC   PO437692  39.354   9.973   9.538
 2881POPC   GL137693  39.379  10.256   9.145
 2881POPC   GL237694  39.041  10.416   9.043
 2881POPC   C1A37695  39.450  10.442   8.713
 2881POPC   D2A37696  39.189  10.460   8.331
 2881POPC   C3A37697  39.403  10.445   7.927
 2881POPC   C4A37698  39.132  10.441   7.576
 2881POPC   C1B37699  39.018  10.772   8.727
 2881POPC   C2B37700  39.198  10.970   8.314
 2881POPC   C3B37701  39.076  10.862   7.862
 2881POPC   C4B37702  38.797  10.821   7.466
 2882POPC   NC337703   0.961  32.456   9.733
 2882POPC   PO437704   1.325  32.130   9.361
 2882POPC   GL137705   1.017  32.144   9.076
 2882POPC   GL237706   0.918  31.795   8.943
 2882POPC   C1A37707   1.262  32.430   8.805
 2882POPC   D2A37708   1.493  32.358   8.422
 2882POPC   C3A37709   1.235  32.146   8.109
 2882POPC   C4A37710   1.254  32.139   7.660
 2882POPC   C1B37711   0.994  32.043   8.577
 2882POPC   C2B37712   0.953  32.462   8.416
 2882POPC   C3B37713   0.809  32.510   8.046
 2882POPC   C4B37714   0.820  32.406   7.647
 2883POPC   NC337715  34.339   2.757   9.284
 2883POPC   PO437716  34.930   2.940   9.543
 2883POPC   GL137717  34.913   2.954   9.064
 2883POPC   GL237718  34.556   2.989   8.899
 2883POPC   C1A37719  34.932   2.968   8.586
 2883POPC   D2A37720  34.580   2.789   8.367
 2883POPC   C3A37721  34.623   2.759   7.961
 2883POPC   C4A37722  34.449   3.102   7.783
 2883POPC   C1B37723  34.672   2.523   8.788
 2883POPC   C2B37724  34.500   2.269   8.432
 2883POPC   C3B37725  34.159   2.334   8.151
 2883POPC   C4B37726  34.127   2.627   7.804
 2884POPC   NC337727  17.394  22.807   9.571
 2884POPC   PO437728  17.443  23.415   9.506
 2884POPC   GL137729  17.557  23.128   9.142
 2884POPC   GL237730  17.424  22.745   9.080
 2884POPC   C1A37731  17.659  22.998   8.712
 2884POPC   D2A37732  17.389  22.675   8.521
 2884POPC   C3A37733  17.288  22.751   8.090
 2884POPC   C4A37734  17.336  22.971   7.703
 2884POPC   C1B37735  17.832  22.570   8.922
 2884POPC   C2B37736  17.896  22.554   8.477
 2884POPC   C3B37737  17.800  22.807   8.086
 2884POPC   C4B37738  17.759  22.707   7.630
 2885POPC   NC337739   4.033  41.354   9.508
 2885POPC   PO437740   4.615  41.400   9.293
 2885POPC   GL137741   4.296  41.426   9.065
 2885POPC   GL237742   4.189  41.084   9.094
 2885POPC   C1A37743   4.296  41.627   8.680
 2885POPC   D2A37744   4.514  41.695   8.292
 2885POPC   C3A37745   4.294  41.510   7.930
 2885POPC   C4A37746   4.404  41.158   7.672
 2885POPC   C1B37747   3.885  41.292   8.802
 2885POPC   C2B37748   3.913  41.442   8.383
 2885POPC   C3B37749   3.716  41.229   8.072
 2885POPC   C4B37750   3.902  41.079   7.743
 2886POPC   NC337751  10.502  12.062   9.656
 2886POPC   PO437752  10.912  12.489   9.308
 2886POPC   GL137753  10.765  12.087   9.213
 2886POPC   GL237754  10.409  12.069   9.172
 2886POPC   C1A37755  10.849  11.995   8.809
 2886POPC   D2A37756  10.929  12.060   8.378
 2886POPC   C3A37757  10.623  12.268   8.133
 2886POPC   C4A37758  10.561  12.127   7.730
 2886POPC   C1B37759  10.327  11.854   8.843
 2886POPC   C2B37760  10.440  11.903   8.446
 2886POPC   C3B37761  10.221  11.952   8.091
 2886POPC   C4B37762  10.129  11.887   7.703
 2887POPC   NC337763  32.566   6.550   9.376
 2887POPC   PO437764  31.890   6.730   9.296
 2887POPC   GL137765  32.169   6.486   9.015
 2887POPC   GL237766  32.517   6.613   8.886
 2887POPC   C1A37767  32.195   6.355   8.587
 2887POPC   D2A37768  32.554   6.382   8.308
 2887POPC   C3A37769  32.348   6.315   7.956
 2887POPC   C4A37770  31.938   6.350   7.834
 2887POPC   C1B37771  32.307   7.009   8.836
 2887POPC   C2B37772  32.200   7.154   8.443
 2887POPC   C3B37773  32.185   6.812   8.152
 2887POPC   C4B37774  32.200   6.776   7.739
 2888POPC   NC337775  15.907  32.590   9.322
 2888POPC   PO437776  16.178  32.073   9.804
 2888POPC   GL137777  16.120  32.152   9.301
 2888POPC   GL237778  16.382  32.453   9.206
 2888POPC   C1A37779  16.078  32.146   8.790
 2888POPC   D2A37780  15.924  32.022   8.372
 2888POPC   C3A37781  15.753  32.311   8.045
 2888POPC   C4A37782  15.751  32.191   7.603
 2888POPC   C1B37783  16.359  32.600   8.766
 2888POPC   C2B37784  16.129  32.500   8.391
 2888POPC   C3B37785  16.263  32.345   8.012
 2888POPC   C4B37786  16.171  32.467   7.630
 2889POPC   NC337787  22.528  17.236   9.608
 2889POPC   PO437788  21.916  17.539   9.582
 2889POPC   GL137789  22.206  17.626   9.276
 2889POPC   GL237790  21.943  17.801   9.084
 2889POPC   C1A37791  22.335  17.570   8.860
 2889POPC   D2A37792  22.169  17.458   8.483
 2889POPC   C3A37793  22.303  17.463   8.077
 2889POPC   C4A37794  22.110  17.762   7.831
 2889POPC   C1B37795  21.848  17.367   8.883
 2889POPC   C2B37796  21.774  17.150   8.459
 2889POPC   C3B37797  21.814  17.354   8.081
 2889POPC   C4B37798  21.951  17.309   7.653
 2890POPC   NC337799   5.704   8.732   9.825
 2890POPC   PO437800   6.090   9.049   9.477
 2890POPC   GL137801   6.014   8.831   9.156
 2890POPC   GL237802   5.699   8.661   9.313
 2890POPC   C1A37803   5.932   9.009   8.730
 2890POPC   D2A37804   6.065   8.902   8.304
 2890POPC   C3A37805   6.039   9.141   7.915
 2890POPC   C4A37806   6.059   8.934   7.485
 2890POPC   C1B37807   5.706   8.571   8.879
 2890POPC   C2B37808   5.639   8.645   8.463
 2890POPC   C3B37809   5.645   8.718   8.031
 2890POPC   C4B37810   5.528   9.142   7.912
 2891POPC   NC337811   7.181  19.572   9.325
 2891POPC   PO437812   7.277  18.959   9.588
 2891POPC   GL137813   7.488  19.078   9.183
 2891POPC   GL237814   7.449  18.722   9.132
 2891POPC   C1A37815   7.431  19.360   8.771
 2891POPC   D2A37816   7.217  19.579   8.414
 2891POPC   C3A37817   7.241  19.362   7.993
 2891POPC   C4A37818   7.541  19.159   7.705
 2891POPC   C1B37819   7.238  18.873   8.767
 2891POPC   C2B37820   7.350  19.019   8.372
 2891POPC   C3B37821   7.435  18.777   7.994
 2891POPC   C4B37822   7.710  18.485   7.802
 2892POPC   NC337823  37.900  21.840   9.670
 2892POPC   PO437824  37.468  21.275   9.649
 2892POPC   GL137825  37.536  21.295   9.195
 2892POPC   GL237826  37.900  21.301   9.156
 2892POPC   C1A37827  37.601  21.639   8.861
 2892POPC   D2A37828  37.835  21.758   8.469
 2892POPC   C3A37829  37.622  21.614   8.086
 2892POPC   C4A37830  37.615  21.323   7.733
 2892POPC   C1B37831  37.989  21.337   8.703
 2892POPC   C2B37832  38.118  21.316   8.265
 2892POPC   C3B37833  38.025  20.994   7.943
 2892POPC   C4B37834  38.125  20.963   7.479
 2893POPC   NC337835   9.675   1.523   9.452
 2893POPC   PO437836   9.350   0.903   9.320
 2893POPC   GL137837   9.715   1.082   9.055
 2893POPC   GL237838   9.887   1.451   9.010
 2893POPC   C1A37839   9.966   0.809   8.779
 2893POPC   D2A37840  10.075   0.750   8.349
 2893POPC   C3A37841   9.812   1.034   8.108
 2893POPC   C4A37842   9.829   1.404   7.849
 2893POPC   C1B37843   9.560   1.426   8.695
 2893POPC   C2B37844   9.480   1.438   8.249
 2893POPC   C3B37845   9.372   1.639   7.850
 2893POPC   C4B37846   9.406   1.629   7.391
 2894POPC   NC337847  21.626  35.468   9.492
 2894POPC   PO437848  21.083  35.851   9.520
 2894POPC   GL137849  21.228  35.592   9.152
 2894POPC   GL237850  21.246  35.222   9.177
 2894POPC   C1A37851  21.356  35.664   8.721
 2894POPC   D2A37852  21.600  35.658   8.350
 2894POPC   C3A37853  21.409  35.631   7.970
 2894POPC   C4A37854  21.634  35.565   7.586
 2894POPC   C1B37855  21.536  35.187   8.834
 2894POPC   C2B37856  21.728  35.156   8.414
 2894POPC   C3B37857  21.646  35.198   7.964
 2894POPC   C4B37858  21.265  35.237   7.638
 2895POPC   NC337859  19.663  38.806   9.746
 2895POPC   PO437860  19.696  39.426   9.681
 2895POPC   GL137861  19.774  39.201   9.290
 2895POPC   GL237862  20.025  39.422   9.201
 2895POPC   C1A37863  19.896  39.083   8.835
 2895POPC   D2A37864  19.743  39.123   8.401
 2895POPC   C3A37865  19.732  39.287   7.999
 2895POPC   C4A37866  19.369  39.175   7.848
 2895POPC   C1B37867  20.205  39.486   8.796
 2895POPC   C2B37868  20.243  39.242   8.428
 2895POPC   C3B37869  20.217  39.397   8.002
 2895POPC   C4B37870  20.092  39.496   7.580
 2896POPC   NC337871  42.963  30.995   9.413
 2896POPC   PO437872  42.804  30.386   9.577
 2896POPC   GL137873  42.950  30.493   9.184
 2896POPC   GL237874  43.296  30.635   9.209
 2896POPC   C1A37875  42.764  30.631   8.811
 2896POPC   D2A37876  42.906  30.901   8.509
 2896POPC   C3A37877  42.795  30.812   8.116
 2896POPC   C4A37878  42.906  30.863   7.709
 2896POPC   C1B37879  43.305  30.948   8.857
 2896POPC   C2B37880  43.404  30.872   8.424
 2896POPC   C3B37881  43.334  30.888   7.992
 2896POPC   C4B37882  43.445  30.791   7.570
 2897POPC   NC337883   2.234   0.485   9.571
 2897POPC   PO437884   1.809  44.979   9.541
 2897POPC   GL137885   1.958   0.282   9.191
 2897POPC   GL237886   2.130   0.669   9.117
 2897POPC   C1A37887   1.766   0.424   8.821
 2897POPC   D2A37888   1.941   0.497   8.395
 2897POPC   C3A37889   1.725   0.349   8.039
 2897POPC   C4A37890   1.858   0.190   7.666
 2897POPC   C1B37891   2.412   0.786   8.767
 2897POPC   C2B37892   2.436   0.609   8.348
 2897POPC   C3B37893   2.138   0.689   7.969
 2897POPC   C4B37894   2.212   0.521   7.590
 2898POPC   NC337895   7.664  20.312   9.176
 2898POPC   PO437896   7.411  20.929   9.638
 2898POPC   GL137897   7.326  20.996   9.197
 2898POPC   GL237898   7.253  20.622   9.201
 2898POPC   C1A37899   7.419  20.898   8.756
 2898POPC   D2A37900   7.451  20.583   8.435
 2898POPC   C3A37901   7.561  20.730   8.020
 2898POPC   C4A37902   7.617  20.412   7.734
 2898POPC   C1B37903   7.078  20.554   8.818
 2898POPC   C2B37904   6.928  20.529   8.387
 2898POPC   C3B37905   7.145  20.421   8.030
 2898POPC   C4B37906   7.090  20.515   7.640
 2899POPC   NC337907  37.402  39.428   9.322
 2899POPC   PO437908  37.864  39.185   9.728
 2899POPC   GL137909  37.731  39.075   9.141
 2899POPC   GL237910  37.954  39.260   8.873
 2899POPC   C1A37911  37.728  38.878   8.690
 2899POPC   D2A37912  37.530  38.994   8.280
 2899POPC   C3A37913  37.825  39.149   7.927
 2899POPC   C4A37914  37.682  39.106   7.471
 2899POPC   C1B37915  37.507  39.346   8.699
 2899POPC   C2B37916  37.373  39.709   8.476
 2899POPC   C3B37917  37.528  39.683   8.083
 2899POPC   C4B37918  37.693  39.580   7.650
 2900POPC   NC337919  13.437  44.923   9.606
 2900POPC   PO437920  13.866  44.439   9.588
 2900POPC   GL137921  13.683  44.353   9.172
 2900POPC   GL237922  13.348  44.471   9.195
 2900POPC   C1A37923  13.496  44.189   8.792
 2900POPC   D2A37924  13.547  44.400   8.392
 2900POPC   C3A37925  13.689  44.292   8.017
 2900POPC   C4A37926  13.699  44.428   7.616
 2900POPC   C1B37927  13.490  44.695   8.817
 2900POPC   C2B37928  13.453  44.898   8.426
 2900POPC   C3B37929  13.650  44.817   8.031
 2900POPC   C4B37930  13.454  44.861   7.647
 2901POPC   NC337931  10.596  41.077   9.525
 2901POPC   PO437932  10.203  40.557   9.278
 2901POPC   GL137933  10.609  40.693   9.110
 2901POPC   GL237934  10.626  41.074   9.020
 2901POPC   C1A37935  10.708  40.693   8.667
 2901POPC   D2A37936  10.901  41.016   8.414
 2901POPC   C3A37937  10.731  40.929   8.037
 2901POPC   C4A37938  10.490  40.555   7.884
 2901POPC   C1B37939  10.275  40.968   8.742
 2901POPC   C2B37940  10.281  40.821   8.308
 2901POPC   C3B37941  10.248  41.041   7.925
 2901POPC   C4B37942   9.931  41.081   7.669
 2902POPC   NC337943  27.634  43.727   9.655
 2902POPC   PO437944  27.122  43.563   9.377
 2902POPC   GL137945  27.514  43.519   9.183
 2902POPC   GL237946  27.883  43.516   9.250
 2902POPC   C1A37947  27.552  43.659   8.781
 2902POPC   D2A37948  27.446  43.982   8.453
 2902POPC   C3A37949  27.680  44.160   8.077
 2902POPC   C4A37950  27.544  44.194   7.605
 2902POPC   C1B37951  28.000  43.841   8.947
 2902POPC   C2B37952  27.938  43.817   8.504
 2902POPC   C3B37953  28.077  43.812   8.091
 2902POPC   C4B37954  27.901  43.864   7.729
 2903POPC   NC337955  41.123  30.279   9.360
 2903POPC   PO437956  40.789  29.742   9.536
 2903POPC   GL137957  40.542  29.805   9.191
 2903POPC   GL237958  40.883  29.818   9.039
 2903POPC   C1A37959  40.473  29.685   8.763
 2903POPC   D2A37960  40.486  29.950   8.403
 2903POPC   C3A37961  40.490  29.719   8.024
 2903POPC   C4A37962  40.550  29.983   7.696
 2903POPC   C1B37963  40.939  30.052   8.681
 2903POPC   C2B37964  40.986  29.887   8.292
 2903POPC   C3B37965  41.025  29.882   7.883
 2903POPC   C4B37966  41.011  29.779   7.480
 2904POPC   NC337967  28.555  40.268   9.525
 2904POPC   PO437968  28.126  39.760   9.427
 2904POPC   GL137969  28.343  40.053   9.111
 2904POPC   GL237970  28.710  40.053   9.057
 2904POPC   C1A37971  28.431  40.315   8.731
 2904POPC   D2A37972  28.211  40.350   8.382
 2904POPC   C3A37973  28.358  39.996   8.180
 2904POPC   C4A37974  28.333  39.973   7.748
 2904POPC   C1B37975  28.560  39.748   8.739
 2904POPC   C2B37976  28.714  39.570   8.344
 2904POPC   C3B37977  28.685  39.673   7.925
 2904POPC   C4B37978  28.804  39.737   7.483
 2905POPC   NC337979  34.237  20.683   9.418
 2905POPC   PO437980  34.758  20.196   9.609
 2905POPC   GL137981  34.785  20.216   9.150
 2905POPC   GL237982  34.660  20.561   9.156
 2905POPC   C1A37983  34.861  20.365   8.721
 2905POPC   D2A37984  34.501  20.563   8.504
 2905POPC   C3A37985  34.490  20.519   8.057
 2905POPC   C4A37986  34.861  20.503   7.798
 2905POPC   C1B37987  34.734  20.878   8.833
 2905POPC   C2B37988  34.649  21.039   8.423
 2905POPC   C3B37989  34.664  20.990   8.016
 2905POPC   C4B37990  34.231  20.968   7.891
 2906POPC   NC337991  42.726  38.266   9.486
 2906POPC   PO437992  42.118  38.535   9.531
 2906POPC   GL137993  42.369  38.611   9.167
 2906POPC   GL237994  42.092  38.848   9.109
 2906POPC   C1A37995  42.350  38.460   8.756
 2906POPC   D2A37996  42.513  38.337   8.370
 2906POPC   C3A37997  42.513  38.601   8.006
 2906POPC   C4A37998  42.319  38.338   7.688
 2906POPC   C1B37999  42.304  38.960   8.773
 2906POPC   C2B38000  42.182  38.834   8.380
 2906POPC   C3B38001  42.188  39.034   8.001
 2906POPC   C4B38002  42.220  38.821   7.625
 2907POPC   NC338003  28.761   0.836   9.507
 2907POPC   PO438004  29.427   0.924   9.550
 2907POPC   GL138005  29.141   1.100   9.193
 2907POPC   GL238006  29.279   1.415   9.080
 2907POPC   C1A38007  29.007   1.206   8.738
 2907POPC   D2A38008  28.981   1.120   8.315
 2907POPC   C3A38009  29.066   1.440   8.024
 2907POPC   C4A38010  28.997   1.130   7.728
 2907POPC   C1B38011  29.537   1.595   8.801
 2907POPC   C2B38012  29.424   1.762   8.393
 2907POPC   C3B38013  29.532   1.660   7.985
 2907POPC   C4B38014  29.374   1.463   7.615
 2908POPC   NC338015  42.204  34.270   9.475
 2908POPC   PO438016  41.899  34.900   9.172
 2908POPC   GL138017  42.186  34.559   9.044
 2908POPC   GL238018  42.539  34.417   9.100
 2908POPC   C1A38019  42.260  34.413   8.649
 2908POPC   D2A38020  42.418  34.254   8.324
 2908POPC   C3A38021  42.268  34.508   8.013
 2908POPC   C4A38022  42.044  34.371   7.696
 2908POPC   C1B38023  42.589  34.757   8.761
 2908POPC   C2B38024  42.679  34.666   8.307
 2908POPC   C3B38025  42.742  34.448   7.878
 2908POPC   C4B38026  42.686  34.797   7.597
 2909POPC   NC338027  25.669  32.292   9.553
 2909POPC   PO438028  26.349  32.563   9.464
 2909POPC   GL138029  25.960  32.571   9.217
 2909POPC   GL238030  25.979  32.241   9.142
 2909POPC   C1A38031  25.847  32.531   8.757
 2909POPC   D2A38032  26.130  32.457   8.398
 2909POPC   C3A38033  25.876  32.474   8.021
 2909POPC   C4A38034  26.055  32.465   7.621
 2909POPC   C1B38035  26.144  32.052   8.792
 2909POPC   C2B38036  26.312  31.903   8.418
 2909POPC   C3B38037  26.149  32.027   8.034
 2909POPC   C4B38038  26.135  31.977   7.598
 2910POPC   NC338039  30.081  31.021   9.448
 2910POPC   PO438040  29.721  30.465   9.355
 2910POPC   GL138041  29.831  30.746   9.078
 2910POPC   GL238042  29.633  30.973   9.080
 2910POPC   C1A38043  30.017  30.826   8.700
 2910POPC   D2A38044  30.231  30.553   8.433
 2910POPC   C3A38045  30.138  30.749   8.079
 2910POPC   C4A38046  29.925  30.588   7.811
 2910POPC   C1B38047  29.492  30.876   8.683
 2910POPC   C2B38048  29.598  31.014   8.302
 2910POPC   C3B38049  29.512  30.859   7.894
 2910POPC   C4B38050  29.711  30.910   7.499
 2911POPC   NC338051  16.245  34.826   9.340
 2911POPC   PO438052  16.711  34.618   9.724
 2911POPC   GL138053  16.792  34.468   9.283
 2911POPC   GL238054  16.487  34.461   9.086
 2911POPC   C1A38055  16.895  34.659   8.852
 2911POPC   D2A38056  16.808  34.523   8.439
 2911POPC   C3A38057  16.846  34.658   8.034
 2911POPC   C4A38058  16.687  34.470   7.674
 2911POPC   C1B38059  16.389  34.693   8.713
 2911POPC   C2B38060  16.385  34.805   8.317
 2911POPC   C3B38061  16.345  34.750   7.920
 2911POPC   C4B38062  16.328  34.794   7.465
 2912POPC   NC338063  22.089   7.326   9.580
 2912POPC   PO438064  22.275   7.899   9.720
 2912POPC   GL138065  22.343   7.589   9.244
 2912POPC   GL238066  22.397   7.209   9.182
 2912POPC   C1A38067  22.014   7.448   8.892
 2912POPC   D2A38068  21.763   7.471   8.485
 2912POPC   C3A38069  21.963   7.376   8.082
 2912POPC   C4A38070  22.172   7.521   7.704
 2912POPC   C1B38071  22.473   7.332   8.743
 2912POPC   C2B38072  22.349   7.623   8.365
 2912POPC   C3B38073  22.562   7.759   7.945
 2912POPC   C4B38074  22.652   7.566   7.537
 2913POPC   NC338075  24.629   1.575   9.472
 2913POPC   PO438076  24.141   2.005   9.461
 2913POPC   GL138077  24.393   1.964   9.117
 2913POPC   GL238078  24.651   2.175   9.199
 2913POPC   C1A38079  24.643   1.938   8.726
 2913POPC   D2A38080  24.877   1.926   8.323
 2913POPC   C3A38081  24.694   1.774   7.935
 2913POPC   C4A38082  24.386   1.961   7.687
 2913POPC   C1B38083  24.658   2.486   8.861
 2913POPC   C2B38084  24.550   2.374   8.465
 2913POPC   C3B38085  24.579   2.249   8.063
 2913POPC   C4B38086  24.557   2.444   7.668
 2914POPC   NC338087   9.090  14.946   9.422
 2914POPC   PO438088   8.914  15.585   9.502
 2914POPC   GL138089   9.020  15.374   9.126
 2914POPC   GL238090   8.780  15.100   9.056
 2914POPC   C1A38091   9.165  15.228   8.722
 2914POPC   D2A38092   9.087  14.828   8.485
 2914POPC   C3A38093   9.218  14.902   8.065
 2914POPC   C4A38094   9.306  15.321   7.877
 2914POPC   C1B38095   8.668  15.247   8.653
 2914POPC   C2B38096   8.818  15.201   8.198
 2914POPC   C3B38097   8.865  15.099   7.731
 2914POPC   C4B38098   8.716  15.219   7.305
 2915POPC   NC338099  28.861  44.841   9.495
 2915POPC   PO438100  29.504   0.160   9.450
 2915POPC   GL138101  29.364  44.769   9.265
 2915POPC   GL238102  29.163  44.887   9.079
 2915POPC   C1A38103  29.277  44.424   8.901
 2915POPC   D2A38104  29.255  44.207   8.468
 2915POPC   C3A38105  29.250  44.395   8.050
 2915POPC   C4A38106  29.137  44.347   7.622
 2915POPC   C1B38107  29.071  44.831   8.663
 2915POPC   C2B38108  28.934  44.734   8.271
 2915POPC   C3B38109  28.994  44.788   7.862
 2915POPC   C4B38110  29.445  44.816   7.782
 2916POPC   NC338111  21.957  34.951   9.490
 2916POPC   PO438112  22.330  34.376   9.550
 2916POPC   GL138113  22.273  34.620   9.213
 2916POPC   GL238114  21.934  34.534   9.168
 2916POPC   C1A38115  22.266  34.506   8.794
 2916POPC   D2A38116  22.454  34.436   8.406
 2916POPC   C3A38117  22.188  34.479   8.044
 2916POPC   C4A38118  22.306  34.523   7.644
 2916POPC   C1B38119  21.840  34.212   8.838
 2916POPC   C2B38120  21.946  34.261   8.434
 2916POPC   C3B38121  21.775  34.170   8.021
 2916POPC   C4B38122  21.810  34.411   7.659
 2917POPC   NC338123  26.707  16.125   9.748
 2917POPC   PO438124  27.097  15.770   9.290
 2917POPC   GL138125  26.866  15.875   9.013
 2917POPC   GL238126  26.603  16.018   9.200
 2917POPC   C1A38127  26.990  15.940   8.583
 2917POPC   D2A38128  27.003  16.189   8.206
 2917POPC   C3A38129  26.879  15.985   7.813
 2917POPC   C4A38130  26.712  16.109   7.408
 2917POPC   C1B38131  26.556  16.151   8.726
 2917POPC   C2B38132  26.541  15.960   8.253
 2917POPC   C3B38133  26.390  15.816   7.789
 2917POPC   C4B38134  26.445  15.657   7.323
 2918POPC   NC338135  24.811  20.704   9.631
 2918POPC   PO438136  24.457  20.159   9.466
 2918POPC   GL138137  24.454  20.601   9.196
 2918POPC   GL238138  24.776  20.825   9.150
 2918POPC   C1A38139  24.451  20.823   8.758
 2918POPC   D2A38140  24.645  20.568   8.418
 2918POPC   C3A38141  24.529  20.413   7.991
 2918POPC   C4A38142  24.588  20.129   7.619
 2918POPC   C1B38143  24.941  21.000   8.789
 2918POPC   C2B38144  24.778  21.078   8.398
 2918POPC   C3B38145  24.710  20.895   8.004
 2918POPC   C4B38146  24.390  20.799   7.677
 2919POPC   NC338147   1.401  38.464   9.571
 2919POPC   PO438148   0.935  38.744   9.254
 2919POPC   GL138149   1.340  38.718   9.120
 2919POPC   GL238150   1.296  38.365   9.064
 2919POPC   C1A38151   1.476  38.668   8.727
 2919POPC   D2A38152   1.446  38.273   8.522
 2919POPC   C3A38153   1.229  38.360   8.185
 2919POPC   C4A38154   1.367  38.640   7.883
 2919POPC   C1B38155   1.002  38.492   8.673
 2919POPC   C2B38156   0.758  38.274   8.374
 2919POPC   C3B38157   0.653  38.275   7.965
 2919POPC   C4B38158   0.952  38.395   7.675
 2920POPC   NC338159   0.811  44.579   9.787
 2920POPC   PO438160   0.160  44.589   9.644
 2920POPC   GL138161   0.407  44.726   9.220
 2920POPC   GL238162   0.682  44.940   9.038
 2920POPC   C1A38163   0.562  44.488   8.830
 2920POPC   D2A38164   0.430  44.389   8.405
 2920POPC   C3A38165   0.225  44.725   8.158
 2920POPC   C4A38166   0.420  44.633   7.795
 2920POPC   C1B38167   0.641  44.940   8.584
 2920POPC   C2B38168   0.693  44.942   8.134
 2920POPC   C3B38169   0.799   0.030   7.703
 2920POPC   C4B38170   0.755   0.135   7.249
 2921POPC   NC338171  20.155  33.355   9.317
 2921POPC   PO438172  20.458  32.825   9.614
 2921POPC   GL138173  20.592  32.926   9.205
 2921POPC   GL238174  20.274  32.833   9.109
 2921POPC   C1A38175  20.693  33.138   8.798
 2921POPC   D2A38176  20.514  33.112   8.353
 2921POPC   C3A38177  20.838  33.237   8.027
 2921POPC   C4A38178  20.949  33.131   7.599
 2921POPC   C1B38179  20.450  32.704   8.700
 2921POPC   C2B38180  20.546  32.553   8.272
 2921POPC   C3B38181  20.596  32.799   7.916
 2921POPC   C4B38182  20.347  33.176   7.855
 2922POPC   NC338183  44.372  34.111   9.551
 2922POPC   PO438184   0.027  33.791   9.513
 2922POPC   GL138185  44.669  33.812   9.219
 2922POPC   GL238186  44.537  33.499   9.129
 2922POPC   C1A38187  44.678  33.824   8.756
 2922POPC   D2A38188  44.505  33.743   8.365
 2922POPC   C3A38189  44.710  33.870   8.008
 2922POPC   C4A38190  44.565  34.076   7.634
 2922POPC   C1B38191  44.596  33.312   8.682
 2922POPC   C2B38192  44.276  33.269   8.359
 2922POPC   C3B38193  44.241  33.492   7.998
 2922POPC   C4B38194  44.538  33.544   7.661
 2923POPC   NC338195  25.325  14.756  10.078
 2923POPC   PO438196  25.284  14.317   9.583
 2923POPC   GL138197  25.387  14.313   9.139
 2923POPC   GL238198  25.188  14.600   9.100
 2923POPC   C1A38199  25.452  14.405   8.711
 2923POPC   D2A38200  25.225  14.201   8.401
 2923POPC   C3A38201  25.364  14.349   7.978
 2923POPC   C4A38202  25.194  14.171   7.583
 2923POPC   C1B38203  25.020  14.684   8.695
 2923POPC   C2B38204  25.083  14.672   8.273
 2923POPC   C3B38205  24.926  14.613   7.844
 2923POPC   C4B38206  24.972  14.898   7.477
 2924POPC   NC338207  27.231  35.206   9.406
 2924POPC   PO438208  27.798  35.504   9.508
 2924POPC   GL138209  27.595  35.433   9.132
 2924POPC   GL238210  27.281  35.616   9.107
 2924POPC   C1A38211  27.644  35.167   8.808
 2924POPC   D2A38212  27.895  35.256   8.496
 2924POPC   C3A38213  27.808  35.120   8.090
 2924POPC   C4A38214  27.655  35.299   7.686
 2924POPC   C1B38215  27.318  35.516   8.663
 2924POPC   C2B38216  27.516  35.552   8.257
 2924POPC   C3B38217  27.334  35.674   7.855
 2924POPC   C4B38218  27.141  35.712   7.412
 2925POPC   NC338219  19.775  35.496   9.508
 2925POPC   PO438220  19.550  34.876   9.342
 2925POPC   GL138221  19.857  35.200   9.092
 2925POPC   GL238222  19.891  35.613   9.034
 2925POPC   C1A38223  19.709  35.297   8.672
 2925POPC   D2A38224  19.644  34.996   8.347
 2925POPC   C3A38225  19.744  35.174   7.980
 2925POPC   C4A38226  19.899  35.304   7.575
 2925POPC   C1B38227  20.127  35.617   8.636
 2925POPC   C2B38228  20.134  35.411   8.235
 2925POPC   C3B38229  20.296  35.507   7.824
 2925POPC   C4B38230  20.115  35.764   7.485
 2926POPC   NC338231   3.177  37.814   9.520
 2926POPC   PO438232   3.727  37.540   9.725
 2926POPC   GL138233   3.621  37.681   9.263
 2926POPC   GL238234   3.882  37.540   9.076
 2926POPC   C1A38235   3.521  37.819   8.796
 2926POPC   D2A38236   3.311  37.562   8.453
 2926POPC   C3A38237   3.333  37.701   8.020
 2926POPC   C4A38238   3.711  37.751   7.780
 2926POPC   C1B38239   3.819  37.417   8.633
 2926POPC   C2B38240   3.745  37.421   8.180
 2926POPC   C3B38241   3.531  37.263   7.819
 2926POPC   C4B38242   3.721  37.347   7.429
 2927POPC   NC338243  27.570  26.151   9.631
 2927POPC   PO438244  27.982  26.489   9.240
 2927POPC   GL138245  27.791  26.061   9.181
 2927POPC   GL238246  27.412  26.032   9.169
 2927POPC   C1A38247  27.706  25.821   8.795
 2927POPC   D2A38248  27.787  25.663   8.391
 2927POPC   C3A38249  27.671  25.825   8.000
 2927POPC   C4A38250  27.844  26.132   7.713
 2927POPC   C1B38251  27.550  26.290   8.803
 2927POPC   C2B38252  27.513  26.139   8.403
 2927POPC   C3B38253  27.440  26.273   8.007
 2927POPC   C4B38254  27.216  26.009   7.706
 2928POPC   NC338255  11.776   7.083   9.374
 2928POPC   PO438256  12.446   7.174   9.328
 2928POPC   GL138257  12.108   7.326   9.036
 2928POPC   GL238258  11.831   7.559   9.135
 2928POPC   C1A38259  12.136   7.428   8.596
 2928POPC   D2A38260  12.358   7.235   8.237
 2928POPC   C3A38261  12.246   7.188   7.792
 2928POPC   C4A38262  12.329   7.580   7.581
 2928POPC   C1B38263  11.659   7.322   8.762
 2928POPC   C2B38264  11.669   7.408   8.334
 2928POPC   C3B38265  11.863   7.482   7.944
 2928POPC   C4B38266  11.775   7.308   7.522
 2929POPC   NC338267  27.117   3.044   9.384
 2929POPC   PO438268  26.994   3.716   9.550
 2929POPC   GL138269  26.909   3.639   9.138
 2929POPC   GL238270  27.066   3.940   9.087
 2929POPC   C1A38271  26.850   3.414   8.743
 2929POPC   D2A38272  26.752   3.589   8.325
 2929POPC   C3A38273  26.849   3.363   7.936
 2929POPC   C4A38274  26.620   3.201   7.608
 2929POPC   C1B38275  27.020   3.894   8.672
 2929POPC   C2B38276  27.252   3.855   8.335
 2929POPC   C3B38277  27.238   3.676   8.006
 2929POPC   C4B38278  27.069   3.770   7.621
 2930POPC   NC338279  22.690   5.080   9.488
 2930POPC   PO438280  23.323   4.863   9.256
 2930POPC   GL138281  23.038   5.172   9.056
 2930POPC   GL238282  22.667   5.246   9.014
 2930POPC   C1A38283  22.975   5.251   8.617
 2930POPC   D2A38284  22.832   4.956   8.292
 2930POPC   C3A38285  23.136   4.929   7.974
 2930POPC   C4A38286  23.182   5.302   7.706
 2930POPC   C1B38287  22.560   4.854   8.776
 2930POPC   C2B38288  22.435   4.606   8.379
 2930POPC   C3B38289  22.452   4.785   7.972
 2930POPC   C4B38290  22.701   5.110   7.777
 2931POPC   NC338291   1.291  36.580   9.424
 2931POPC   PO438292   1.491  37.245   9.514
 2931POPC   GL138293   1.252  37.048   9.136
 2931POPC   GL238294   0.929  36.817   9.153
 2931POPC   C1A38295   1.161  36.944   8.676
 2931POPC   D2A38296   1.404  36.910   8.259
 2931POPC   C3A38297   1.272  36.998   7.845
 2931POPC   C4A38298   1.084  37.234   7.529
 2931POPC   C1B38299   0.771  37.203   8.979
 2931POPC   C2B38300   0.801  37.266   8.541
 2931POPC   C3B38301   0.864  36.982   8.237
 2931POPC   C4B38302   0.742  37.005   7.827
 2932POPC   NC338303  12.220  41.422   9.484
 2932POPC   PO438304  11.713  41.864   9.451
 2932POPC   GL138305  11.969  41.693   9.116
 2932POPC   GL238306  11.816  41.356   9.161
 2932POPC   C1A38307  12.176  41.529   8.712
 2932POPC   D2A38308  12.400  41.437   8.318
 2932POPC   C3A38309  12.154  41.538   7.944
 2932POPC   C4A38310  11.895  41.796   7.681
 2932POPC   C1B38311  11.676  41.453   8.760
 2932POPC   C2B38312  11.850  41.336   8.376
 2932POPC   C3B38313  11.724  41.258   8.004
 2932POPC   C4B38314  11.822  41.301   7.601
 2933POPC   NC338315  41.419  14.831   9.423
 2933POPC   PO438316  41.725  14.210   9.564
 2933POPC   GL138317  41.490  14.350   9.194
 2933POPC   GL238318  41.246  14.099   9.101
 2933POPC   C1A38319  41.559  14.468   8.767
 2933POPC   D2A38320  41.457  14.727   8.398
 2933POPC   C3A38321  41.582  14.571   7.991
 2933POPC   C4A38322  41.746  14.336   7.607
 2933POPC   C1B38323  41.373  13.974   8.687
 2933POPC   C2B38324  41.422  14.194   8.337
 2933POPC   C3B38325  41.401  14.100   7.933
 2933POPC   C4B38326  41.229  14.376   7.662
 2934POPC   NC338327   4.046  17.600   9.631
 2934POPC   PO438328   4.479  17.192   9.830
 2934POPC   GL138329   4.507  17.278   9.347
 2934POPC   GL238330   4.347  17.598   9.226
 2934POPC   C1A38331   4.689  17.428   8.901
 2934POPC   D2A38332   4.641  17.696   8.512
 2934POPC   C3A38333   4.458  17.571   8.114
 2934POPC   C4A38334   4.305  17.666   7.715
 2934POPC   C1B38335   4.219  17.658   8.795
 2934POPC   C2B38336   4.080  17.448   8.425
 2934POPC   C3B38337   4.077  17.250   8.021
 2934POPC   C4B38338   3.903  17.249   7.636
 2935POPC   NC338339  34.651  39.604   9.561
 2935POPC   PO438340  34.532  40.260   9.543
 2935POPC   GL138341  34.518  39.969   9.170
 2935POPC   GL238342  34.792  39.733   9.100
 2935POPC   C1A38343  34.539  40.173   8.758
 2935POPC   D2A38344  34.298  40.344   8.447
 2935POPC   C3A38345  34.306  40.134   8.071
 2935POPC   C4A38346  34.422  40.242   7.646
 2935POPC   C1B38347  34.803  39.747   8.707
 2935POPC   C2B38348  34.816  39.960   8.375
 2935POPC   C3B38349  34.720  39.881   7.998
 2935POPC   C4B38350  34.903  39.628   7.763
 2936POPC   NC338351  44.426  30.964   9.487
 2936POPC   PO438352  44.460  30.332   9.537
 2936POPC   GL138353  44.705  30.584   9.223
 2936POPC   GL238354  44.779  30.948   9.115
 2936POPC   C1A38355  44.728  30.565   8.773
 2936POPC   D2A38356  44.728  30.806   8.422
 2936POPC   C3A38357  44.722  30.595   7.994
 2936POPC   C4A38358  44.604  30.582   7.545
 2936POPC   C1B38359   0.146  30.823   8.883
 2936POPC   C2B38360   0.238  30.795   8.451
 2936POPC   C3B38361   0.088  30.939   8.049
 2936POPC   C4B38362   0.119  30.745   7.611
 2937POPC   NC338363  24.628  30.668   9.673
 2937POPC   PO438364  24.110  30.505   9.291
 2937POPC   GL138365  24.342  30.741   9.006
 2937POPC   GL238366  24.667  30.709   9.034
 2937POPC   C1A38367  24.358  30.648   8.578
 2937POPC   D2A38368  24.051  30.621   8.238
 2937POPC   C3A38369  24.405  30.751   8.024
 2937POPC   C4A38370  24.672  30.456   7.853
 2937POPC   C1B38371  24.846  30.841   8.625
 2937POPC   C2B38372  24.988  30.865   8.188
 2937POPC   C3B38373  24.890  30.901   7.759
 2937POPC   C4B38374  24.490  31.002   7.575
 2938POPC   NC338375  42.714   7.464   9.570
 2938POPC   PO438376  43.313   7.201   9.477
 2938POPC   GL138377  43.220   7.421   9.109
 2938POPC   GL238378  42.860   7.336   9.088
 2938POPC   C1A38379  43.046   7.590   8.704
 2938POPC   D2A38380  42.892   7.412   8.334
 2938POPC   C3A38381  43.195   7.517   8.003
 2938POPC   C4A38382  43.228   7.675   7.584
 2938POPC   C1B38383  42.755   7.058   8.723
 2938POPC   C2B38384  42.726   6.896   8.292
 2938POPC   C3B38385  42.952   7.074   7.932
 2938POPC   C4B38386  42.812   7.370   7.654
 2939POPC   NC338387   3.506  23.401   9.599
 2939POPC   PO438388   3.656  22.747   9.608
 2939POPC   GL138389   3.749  22.949   9.220
 2939POPC   GL238390   3.745  23.319   9.169
 2939POPC   C1A38391   3.710  22.884   8.788
 2939POPC   D2A38392   3.457  22.962   8.427
 2939POPC   C3A38393   3.674  23.021   8.055
 2939POPC   C4A38394   3.508  22.761   7.788
 2939POPC   C1B38395   3.372  23.259   8.910
 2939POPC   C2B38396   3.130  23.339   8.533
 2939POPC   C3B38397   3.314  23.383   8.120
 2939POPC   C4B38398   3.281  23.196   7.698
 2940POPC   NC338399  43.318  42.987   9.662
 2940POPC   PO438400  42.674  43.046   9.359
 2940POPC   GL138401  42.841  43.114   9.035
 2940POPC   GL238402  43.147  43.230   9.131
 2940POPC   C1A38403  42.996  43.070   8.651
 2940POPC   D2A38404  42.946  43.259   8.297
 2940POPC   C3A38405  43.126  43.009   7.984
 2940POPC   C4A38406  42.988  43.029   7.586
 2940POPC   C1B38407  43.229  43.504   8.766
 2940POPC   C2B38408  43.381  43.695   8.409
 2940POPC   C3B38409  43.261  43.567   8.022
 2940POPC   C4B38410  43.380  43.339   7.687
 2941POPC   NC338411  25.020  12.316   9.435
 2941POPC   PO438412  25.467  11.852   9.502
 2941POPC   GL138413  25.328  11.946   9.104
 2941POPC   GL238414  25.493  12.250   9.123
 2941POPC   C1A38415  25.002  11.946   8.773
 2941POPC   D2A38416  24.924  11.792   8.362
 2941POPC   C3A38417  25.286  11.807   8.104
 2941POPC   C4A38418  25.176  11.940   7.739
 2941POPC   C1B38419  25.251  12.385   8.772
 2941POPC   C2B38420  25.173  12.264   8.348
 2941POPC   C3B38421  25.269  12.395   7.937
 2941POPC   C4B38422  25.622  12.213   7.699
 2942POPC   NC338423  31.354  28.242   9.434
 2942POPC   PO438424  31.887  27.906   9.540
 2942POPC   GL138425  31.835  28.192   9.186
 2942POPC   GL238426  31.583  28.450   9.033
 2942POPC   C1A38427  31.863  28.157   8.726
 2942POPC   D2A38428  31.536  28.356   8.460
 2942POPC   C3A38429  31.733  28.344   8.106
 2942POPC   C4A38430  31.661  28.356   7.719
 2942POPC   C1B38431  31.249  28.642   8.782
 2942POPC   C2B38432  31.143  28.737   8.361
 2942POPC   C3B38433  31.215  28.453   8.018
 2942POPC   C4B38434  31.226  28.602   7.620
 2943POPC   NC338435  33.972  23.676   9.850
 2943POPC   PO438436  33.476  23.824   9.356
 2943POPC   GL138437  33.928  23.745   9.155
 2943POPC   GL238438  34.054  24.070   9.042
 2943POPC   C1A38439  34.088  23.659   8.710
 2943POPC   D2A38440  33.906  23.588   8.290
 2943POPC   C3A38441  33.984  23.540   7.847
 2943POPC   C4A38442  33.922  23.219   7.542
 2943POPC   C1B38443  33.685  23.992   8.728
 2943POPC   C2B38444  33.462  23.844   8.341
 2943POPC   C3B38445  33.531  23.834   7.901
 2943POPC   C4B38446  33.892  24.030   7.740
 2944POPC   NC338447  27.774  23.589   9.491
 2944POPC   PO438448  27.198  24.033   9.262
 2944POPC   GL138449  27.595  23.849   9.090
 2944POPC   GL238450  27.579  23.504   9.023
 2944POPC   C1A38451  27.930  23.898   8.776
 2944POPC   D2A38452  27.957  23.718   8.347
 2944POPC   C3A38453  28.024  23.975   7.958
 2944POPC   C4A38454  27.877  23.788   7.554
 2944POPC   C1B38455  27.531  23.618   8.597
 2944POPC   C2B38456  27.234  23.753   8.276
 2944POPC   C3B38457  27.373  23.707   7.843
 2944POPC   C4B38458  27.345  23.277   7.693
 2945POPC   NC338459  20.719  24.134   9.607
 2945POPC   PO438460  20.148  24.397   9.497
 2945POPC   GL138461  20.457  24.345   9.130
 2945POPC   GL238462  20.841  24.266   9.132
 2945POPC   C1A38463  20.605  24.498   8.718
 2945POPC   D2A38464  20.522  24.659   8.297
 2945POPC   C3A38465  20.370  24.379   7.955
 2945POPC   C4A38466  20.589  24.337   7.571
 2945POPC   C1B38467  21.062  24.299   8.734
 2945POPC   C2B38468  21.054  24.485   8.355
 2945POPC   C3B38469  20.883  24.475   7.973
 2945POPC   C4B38470  20.675  24.806   7.727
 2946POPC   NC338471  14.203   5.049   9.587
 2946POPC   PO438472  14.688   5.327   9.801
 2946POPC   GL138473  14.506   5.097   9.212
 2946POPC   GL238474  14.143   5.110   9.083
 2946POPC   C1A38475  14.488   5.282   8.752
 2946POPC   D2A38476  14.288   5.249   8.348
 2946POPC   C3A38477  14.565   5.294   7.999
 2946POPC   C4A38478  14.463   5.161   7.569
 2946POPC   C1B38479  14.220   4.839   8.718
 2946POPC   C2B38480  14.371   4.737   8.316
 2946POPC   C3B38481  14.328   4.847   7.951
 2946POPC   C4B38482  14.082   4.759   7.658
 2947POPC   NC338483  35.888  40.791   9.539
 2947POPC   PO438484  36.528  40.347   9.395
 2947POPC   GL138485  36.239  40.556   9.032
 2947POPC   GL238486  36.060  40.924   9.082
 2947POPC   C1A38487  36.384  40.853   8.706
 2947POPC   D2A38488  36.430  41.009   8.301
 2947POPC   C3A38489  36.371  40.672   7.980
 2947POPC   C4A38490  36.127  40.470   7.660
 2947POPC   C1B38491  35.900  41.098   8.683
 2947POPC   C2B38492  35.927  41.006   8.248
 2947POPC   C3B38493  36.039  41.022   7.828
 2947POPC   C4B38494  35.873  40.878   7.441
 2948POPC   NC338495  27.199  43.119   9.479
 2948POPC   PO438496  26.782  42.726   9.776
 2948POPC   GL138497  26.801  42.846   9.241
 2948POPC   GL238498  27.097  42.869   9.017
 2948POPC   C1A38499  26.627  42.903   8.759
 2948POPC   D2A38500  26.448  42.762   8.311
 2948POPC   C3A38501  26.458  42.954   7.866
 2948POPC   C4A38502  26.632  43.272   7.544
 2948POPC   C1B38503  27.039  43.226   8.745
 2948POPC   C2B38504  27.231  43.356   8.354
 2948POPC   C3B38505  27.327  43.234   7.913
 2948POPC   C4B38506  27.336  43.178   7.444
 2949POPC   NC338507   9.990  14.915   9.399
 2949POPC   PO438508   9.723  15.548   9.632
 2949POPC   GL138509   9.555  15.342   9.238
 2949POPC   GL238510   9.621  15.692   9.133
 2949POPC   C1A38511   9.612  15.030   8.846
 2949POPC   D2A38512   9.804  15.013   8.443
 2949POPC   C3A38513   9.714  15.038   7.994
 2949POPC   C4A38514   9.741  15.211   7.534
 2949POPC   C1B38515   9.765  15.488   8.734
 2949POPC   C2B38516   9.963  15.477   8.326
 2949POPC   C3B38517   9.824  15.527   7.934
 2949POPC   C4B38518   9.835  15.767   7.577
 2950POPC   NC338519  14.135  29.035   9.537
 2950POPC   PO438520  14.443  29.534   9.740
 2950POPC   GL138521  14.439  29.314   9.246
 2950POPC   GL238522  14.145  29.337   9.119
 2950POPC   C1A38523  14.455  29.032   8.856
 2950POPC   D2A38524  14.237  28.937   8.455
 2950POPC   C3A38525  14.511  28.996   8.074
 2950POPC   C4A38526  14.323  28.954   7.672
 2950POPC   C1B38527  14.026  29.460   8.725
 2950POPC   C2B38528  13.845  29.323   8.355
 2950POPC   C3B38529  14.055  29.260   7.978
 2950POPC   C4B38530  14.005  29.351   7.541
 2951POPC   NC338531  32.418  27.033   9.605
 2951POPC   PO438532  32.169  26.426   9.598
 2951POPC   GL138533  32.313  26.712   9.211
 2951POPC   GL238534  32.127  27.028   9.180
 2951POPC   C1A38535  32.503  26.797   8.764
 2951POPC   D2A38536  32.366  26.924   8.312
 2951POPC   C3A38537  32.525  26.746   7.911
 2951POPC   C4A38538  32.484  26.410   7.578
 2951POPC   C1B38539  32.188  27.225   8.764
 2951POPC   C2B38540  32.174  27.392   8.334
 2951POPC   C3B38541  32.086  27.207   7.905
 2951POPC   C4B38542  31.857  27.128   7.494
 2952POPC   NC338543  33.992  41.007   9.377
 2952POPC   PO438544  33.674  40.453   9.372
 2952POPC   GL138545  33.664  40.701   9.032
 2952POPC   GL238546  33.969  40.870   8.904
 2952POPC   C1A38547  33.657  40.564   8.635
 2952POPC   D2A38548  33.864  40.539   8.271
 2952POPC   C3A38549  33.739  40.772   7.950
 2952POPC   C4A38550  33.632  40.716   7.577
 2952POPC   C1B38551  34.166  41.114   8.618
 2952POPC   C2B38552  34.082  41.037   8.206
 2952POPC   C3B38553  34.020  41.162   7.780
 2952POPC   C4B38554  33.939  41.015   7.331
 2953POPC   NC338555  40.774  26.127   9.583
 2953POPC   PO438556  40.392  26.507   9.211
 2953POPC   GL138557  40.672  26.175   9.064
 2953POPC   GL238558  40.850  25.857   9.123
 2953POPC   C1A38559  40.798  26.112   8.661
 2953POPC   D2A38560  40.624  26.323   8.343
 2953POPC   C3A38561  40.780  26.110   8.026
 2953POPC   C4A38562  40.640  26.000   7.653
 2953POPC   C1B38563  41.092  25.682   8.717
 2953POPC   C2B38564  41.004  25.664   8.224
 2953POPC   C3B38565  41.086  25.783   7.732
 2953POPC   C4B38566  40.946  25.970   7.263
 2954POPC   NC338567  10.078  16.902   9.518
 2954POPC   PO438568  10.740  16.801   9.557
 2954POPC   GL138569  10.549  16.701   9.175
 2954POPC   GL238570  10.382  17.000   9.105
 2954POPC   C1A38571  10.676  16.790   8.737
 2954POPC   D2A38572  10.563  16.924   8.306
 2954POPC   C3A38573  10.675  16.693   7.894
 2954POPC   C4A38574  10.747  16.720   7.436
 2954POPC   C1B38575  10.190  16.944   8.672
 2954POPC   C2B38576  10.070  17.084   8.255
 2954POPC   C3B38577  10.279  17.023   7.864
 2954POPC   C4B38578  10.424  17.084   7.459
 2955POPC   NC338579  22.789   1.697   9.350
 2955POPC   PO438580  23.064   1.097   9.721
 2955POPC   GL138581  23.067   1.122   9.297
 2955POPC   GL238582  22.741   1.198   9.243
 2955POPC   C1A38583  23.103   1.081   8.857
 2955POPC   D2A38584  23.005   1.252   8.446
 2955POPC   C3A38585  22.990   1.010   8.090
 2955POPC   C4A38586  23.140   1.205   7.743
 2955POPC   C1B38587  22.690   1.381   8.823
 2955POPC   C2B38588  22.520   1.428   8.427
 2955POPC   C3B38589  22.692   1.404   7.996
 2955POPC   C4B38590  22.607   1.064   7.713
 2956POPC   NC338591  14.960  16.728   9.572
 2956POPC   PO438592  15.524  16.445   9.670
 2956POPC   GL138593  15.328  16.595   9.257
 2956POPC   GL238594  15.000  16.532   9.071
 2956POPC   C1A38595  15.354  16.858   8.904
 2956POPC   D2A38596  15.451  16.741   8.481
 2956POPC   C3A38597  15.180  16.757   8.131
 2956POPC   C4A38598  15.121  16.539   7.736
 2956POPC   C1B38599  15.248  16.364   8.775
 2956POPC   C2B38600  15.109  16.322   8.389
 2956POPC   C3B38601  14.792  16.408   8.116
 2956POPC   C4B38602  14.739  16.191   7.746
 2957POPC   NC338603  44.691  19.391   9.737
 2957POPC   PO438604   0.039  18.865   9.494
 2957POPC   GL138605  44.828  18.933   9.117
 2957POPC   GL238606   0.080  18.710   9.018
 2957POPC   C1A38607  44.581  19.109   8.750
 2957POPC   D2A38608  44.307  19.042   8.391
 2957POPC   C3A38609  44.410  19.193   7.992
 2957POPC   C4A38610  44.321  18.867   7.676
 2957POPC   C1B38611   0.083  18.947   8.652
 2957POPC   C2B38612  44.848  19.027   8.302
 2957POPC   C3B38613  44.789  18.865   7.913
 2957POPC   C4B38614  44.767  19.052   7.487
 2958POPC   NC338615   0.632  33.304   9.521
 2958POPC   PO438616   0.024  32.941   9.567
 2958POPC   GL138617   0.230  32.787   9.177
 2958POPC   GL238618   0.383  33.100   9.116
 2958POPC   C1A38619   0.383  32.820   8.715
 2958POPC   D2A38620   0.662  32.893   8.365
 2958POPC   C3A38621   0.478  32.906   8.009
 2958POPC   C4A38622   0.419  32.893   7.587
 2958POPC   C1B38623   0.599  33.266   8.710
 2958POPC   C2B38624   0.447  33.361   8.286
 2958POPC   C3B38625   0.451  33.373   7.828
 2958POPC   C4B38626   0.762  33.285   7.475
 2959POPC   NC338627   1.089   6.913   9.399
 2959POPC   PO438628   1.502   6.567   9.679
 2959POPC   GL138629   1.459   6.601   9.235
 2959POPC   GL238630   1.117   6.410   9.259
 2959POPC   C1A38631   1.335   6.680   8.792
 2959POPC   D2A38632   1.099   6.888   8.456
 2959POPC   C3A38633   1.189   6.732   8.048
 2959POPC   C4A38634   1.366   6.733   7.641
 2959POPC   C1B38635   0.938   6.377   8.859
 2959POPC   C2B38636   0.961   6.393   8.438
 2959POPC   C3B38637   0.861   6.318   8.030
 2959POPC   C4B38638   1.084   6.252   7.701
 2960POPC   NC338639  28.444   0.171   9.965
 2960POPC   PO438640  28.309   0.738   9.509
 2960POPC   GL138641  28.533   0.515   9.179
 2960POPC   GL238642  28.519   0.175   9.293
 2960POPC   C1A38643  28.530   0.598   8.702
 2960POPC   D2A38644  28.512   0.752   8.253
 2960POPC   C3A38645  28.270   0.505   7.908
 2960POPC   C4A38646  28.404   0.531   7.470
 2960POPC   C1B38647  28.758   0.161   8.898
 2960POPC   C2B38648  28.761   0.182   8.460
 2960POPC   C3B38649  28.603   0.114   8.070
 2960POPC   C4B38650  28.651   0.108   7.635
 2961POPC   NC338651  38.951  33.014   9.636
 2961POPC   PO438652  39.566  32.936   9.420
 2961POPC   GL138653  39.339  33.189   9.104
 2961POPC   GL238654  38.974  33.180   9.162
 2961POPC   C1A38655  39.321  33.210   8.650
 2961POPC   D2A38656  39.478  32.921   8.302
 2961POPC   C3A38657  39.198  32.754   7.960
 2961POPC   C4A38658  38.800  32.777   7.723
 2961POPC   C1B38659  38.818  32.926   8.843
 2961POPC   C2B38660  38.962  32.914   8.417
 2961POPC   C3B38661  38.915  33.154   8.060
 2961POPC   C4B38662  38.636  33.263   7.734
 2962POPC   NC338663  25.893  11.778   9.352
 2962POPC   PO438664  25.843  11.234   9.687
 2962POPC   GL138665  25.998  11.253   9.250
 2962POPC   GL238666  26.290  11.452   9.261
 2962POPC   C1A38667  26.044  11.379   8.803
 2962POPC   D2A38668  25.846  11.539   8.437
 2962POPC   C3A38669  26.063  11.286   8.127
 2962POPC   C4A38670  26.136  11.400   7.707
 2962POPC   C1B38671  26.440  11.109   8.985
 2962POPC   C2B38672  26.395  11.080   8.506
 2962POPC   C3B38673  26.555  11.043   8.052
 2962POPC   C4B38674  26.540  11.029   7.577
 2963POPC   NC338675  27.625  39.917   9.417
 2963POPC   PO438676  27.542  40.570   9.477
 2963POPC   GL138677  27.426  40.318   9.166
 2963POPC   GL238678  27.787  40.297   9.117
 2963POPC   C1A38679  27.428  40.056   8.793
 2963POPC   D2A38680  27.365  40.210   8.383
 2963POPC   C3A38681  27.368  40.042   7.968
 2963POPC   C4A38682  27.186  40.102   7.573
 2963POPC   C1B38683  27.952  40.117   8.776
 2963POPC   C2B38684  27.865  39.956   8.384
 2963POPC   C3B38685  27.890  40.139   7.985
 2963POPC   C4B38686  27.775  39.850   7.682
 2964POPC   NC338687  22.315   0.081   9.476
 2964POPC   PO438688  21.943   0.632   9.534
 2964POPC   GL138689  21.985   0.445   9.152
 2964POPC   GL238690  21.854   0.117   9.179
 2964POPC   C1A38691  22.019   0.671   8.757
 2964POPC   D2A38692  22.250   0.697   8.402
 2964POPC   C3A38693  22.146   0.676   7.992
 2964POPC   C4A38694  22.511   0.562   7.767
 2964POPC   C1B38695  22.115   0.130   8.767
 2964POPC   C2B38696  22.338   0.128   8.335
 2964POPC   C3B38697  22.173   0.183   7.883
 2964POPC   C4B38698  21.881   0.159   7.534
 2965POPC   NC338699  43.757  32.347   9.474
 2965POPC   PO438700  44.394  32.354   9.520
 2965POPC   GL138701  44.131  32.345   9.092
 2965POPC   GL238702  43.784  32.148   9.005
 2965POPC   C1A38703  43.991  32.390   8.623
 2965POPC   D2A38704  43.733  32.097   8.352
 2965POPC   C3A38705  43.925  32.062   7.931
 2965POPC   C4A38706  44.221  31.908   7.625
 2965POPC   C1B38707  43.522  32.483   8.797
 2965POPC   C2B38708  43.538  32.559   8.392
 2965POPC   C3B38709  43.717  32.515   8.031
 2965POPC   C4B38710  43.619  32.434   7.631
 2966POPC   NC338711  14.963  43.010   9.701
 2966POPC   PO438712  15.527  43.091   9.436
 2966POPC   GL138713  15.237  42.850   9.179
 2966POPC   GL238714  14.883  42.923   9.201
 2966POPC   C1A38715  15.310  42.837   8.759
 2966POPC   D2A38716  15.367  43.145   8.481
 2966POPC   C3A38717  15.356  43.003   8.100
 2966POPC   C4A38718  15.276  43.161   7.722
 2966POPC   C1B38719  14.815  42.731   8.811
 2966POPC   C2B38720  14.898  42.888   8.395
 2966POPC   C3B38721  14.855  43.069   7.985
 2966POPC   C4B38722  14.662  42.917   7.649
 2967POPC   NC338723   5.565  17.961   9.434
 2967POPC   PO438724   5.047  18.433   9.526
 2967POPC   GL138725   5.190  18.189   9.178
 2967POPC   GL238726   5.206  18.472   9.018
 2967POPC   C1A38727   5.090  18.044   8.756
 2967POPC   D2A38728   5.143  18.256   8.356
 2967POPC   C3A38729   4.958  18.083   8.021
 2967POPC   C4A38730   5.029  18.157   7.590
 2967POPC   C1B38731   4.901  18.526   8.730
 2967POPC   C2B38732   4.805  18.661   8.296
 2967POPC   C3B38733   4.944  18.581   7.868
 2967POPC   C4B38734   4.850  18.629   7.409
 2968POPC   NC338735  13.980  24.144   9.357
 2968POPC   PO438736  14.705  24.063   9.386
 2968POPC   GL138737  14.406  24.235   9.108
 2968POPC   GL238738  14.447  24.591   9.083
 2968POPC   C1A38739  14.162  24.386   8.744
 2968POPC   D2A38740  14.321  24.617   8.419
 2968POPC   C3A38741  14.287  24.520   8.002
 2968POPC   C4A38742  14.358  24.139   7.755
 2968POPC   C1B38743  14.658  24.854   8.751
 2968POPC   C2B38744  14.584  25.042   8.323
 2968POPC   C3B38745  14.637  24.890   7.879
 2968POPC   C4B38746  14.586  24.552   7.544
 2969POPC   NC338747  24.271  40.658   9.369
 2969POPC   PO438748  24.889  40.500   9.463
 2969POPC   GL138749  24.856  40.776   9.119
 2969POPC   GL238750  24.565  41.025   9.156
 2969POPC   C1A38751  24.677  40.815   8.712
 2969POPC   D2A38752  24.490  40.673   8.315
 2969POPC   C3A38753  24.690  40.851   7.933
 2969POPC   C4A38754  24.817  40.716   7.489
 2969POPC   C1B38755  24.210  41.005   8.810
 2969POPC   C2B38756  24.132  41.059   8.373
 2969POPC   C3B38757  24.166  40.860   7.961
 2969POPC   C4B38758  24.376  40.935   7.548
 2970POPC   NC338759  14.399  26.262   9.587
 2970POPC   PO438760  14.589  26.902   9.558
 2970POPC   GL138761  14.317  26.654   9.258
 2970POPC   GL238762  14.388  26.917   9.068
 2970POPC   C1A38763  14.142  26.519   8.828
 2970POPC   D2A38764  14.082  26.691   8.421
 2970POPC   C3A38765  14.376  26.610   8.096
 2970POPC   C4A38766  14.363  26.747   7.671
 2970POPC   C1B38767  14.367  27.120   8.695
 2970POPC   C2B38768  14.270  27.188   8.276
 2970POPC   C3B38769  14.526  27.324   7.939
 2970POPC   C4B38770  14.690  27.152   7.579
 2971POPC   NC338771  21.991   1.894   9.559
 2971POPC   PO438772  22.305   2.439   9.628
 2971POPC   GL138773  22.432   2.194   9.267
 2971POPC   GL238774  22.315   1.920   9.167
 2971POPC   C1A38775  22.499   2.273   8.817
 2971POPC   D2A38776  22.388   2.064   8.401
 2971POPC   C3A38777  22.259   2.250   7.994
 2971POPC   C4A38778  22.342   2.254   7.526
 2971POPC   C1B38779  22.271   1.714   8.793
 2971POPC   C2B38780  22.068   1.662   8.425
 2971POPC   C3B38781  22.250   1.675   8.041
 2971POPC   C4B38782  22.125   1.839   7.691
 2972POPC   NC338783  37.293  28.271   9.544
 2972POPC   PO438784  36.736  28.697   9.452
 2972POPC   GL138785  36.879  28.409   9.141
 2972POPC   GL238786  36.988  28.077   9.177
 2972POPC   C1A38787  36.789  28.320   8.719
 2972POPC   D2A38788  36.672  28.284   8.298
 2972POPC   C3A38789  36.890  28.475   7.990
 2972POPC   C4A38790  36.743  28.555   7.571
 2972POPC   C1B38791  36.982  27.852   8.786
 2972POPC   C2B38792  37.004  27.700   8.355
 2972POPC   C3B38793  36.898  27.953   8.000
 2972POPC   C4B38794  37.025  28.074   7.605
 2973POPC   NC338795  40.748   3.958   9.651
 2973POPC   PO438796  40.548   3.327   9.580
 2973POPC   GL138797  40.844   3.435   9.264
 2973POPC   GL238798  40.729   3.748   9.153
 2973POPC   C1A38799  40.814   3.327   8.843
 2973POPC   D2A38800  40.801   3.498   8.438
 2973POPC   C3A38801  40.924   3.343   8.021
 2973POPC   C4A38802  40.979   3.578   7.635
 2973POPC   C1B38803  40.459   3.714   8.779
 2973POPC   C2B38804  40.447   3.868   8.375
 2973POPC   C3B38805  40.567   3.725   7.999
 2973POPC   C4B38806  40.524   3.880   7.614
 2974POPC   NC338807  13.645  34.122   9.474
 2974POPC   PO438808  13.816  33.503   9.608
 2974POPC   GL138809  13.797  33.665   9.211
 2974POPC   GL238810  13.448  33.722   9.153
 2974POPC   C1A38811  13.796  33.588   8.778
 2974POPC   D2A38812  13.829  33.861   8.427
 2974POPC   C3A38813  13.764  33.705   8.021
 2974POPC   C4A38814  13.995  33.691   7.677
 2974POPC   C1B38815  13.490  34.029   8.816
 2974POPC   C2B38816  13.439  34.192   8.409
 2974POPC   C3B38817  13.309  33.933   8.100
 2974POPC   C4B38818  13.249  33.815   7.711
 2975POPC   NC338819   1.757  35.288   9.673
 2975POPC   PO438820   1.089  35.188   9.518
 2975POPC   GL138821   1.310  35.286   9.132
 2975POPC   GL238822   0.990  35.365   8.928
 2975POPC   C1A38823   1.449  35.418   8.696
 2975POPC   D2A38824   1.129  35.346   8.353
 2975POPC   C3A38825   1.250  35.539   7.941
 2975POPC   C4A38826   1.389  35.540   7.531
 2975POPC   C1B38827   0.770  35.063   8.646
 2975POPC   C2B38828   0.921  34.865   8.266
 2975POPC   C3B38829   1.085  35.054   7.921
 2975POPC   C4B38830   0.907  35.258   7.576
 2976POPC   NC338831  13.240  17.710   9.395
 2976POPC   PO438832  12.574  17.742   9.432
 2976POPC   GL138833  12.745  17.441   9.116
 2976POPC   GL238834  13.114  17.387   9.020
 2976POPC   C1A38835  12.764  17.341   8.663
 2976POPC   D2A38836  13.058  17.168   8.365
 2976POPC   C3A38837  12.938  17.184   7.941
 2976POPC   C4A38838  12.721  17.550   7.868
 2976POPC   C1B38839  13.235  17.604   8.619
 2976POPC   C2B38840  13.185  17.625   8.153
 2976POPC   C3B38841  13.247  17.700   7.706
 2976POPC   C4B38842  13.273  17.797   7.252
 2977POPC   NC338843  38.244  18.794   9.431
 2977POPC   PO438844  38.726  19.158   9.414
 2977POPC   GL138845  38.368  19.270   9.072
 2977POPC   GL238846  38.057  19.059   9.024
 2977POPC   C1A38847  38.304  19.240   8.588
 2977POPC   D2A38848  38.688  19.226   8.285
 2977POPC   C3A38849  38.637  19.246   7.848
 2977POPC   C4A38850  38.245  19.233   7.747
 2977POPC   C1B38851  38.352  18.769   8.793
 2977POPC   C2B38852  38.459  18.740   8.367
 2977POPC   C3B38853  38.454  18.775   7.931
 2977POPC   C4B38854  38.674  18.783   7.545
 2978POPC   NC338855  17.334  29.859   9.520
 2978POPC   PO438856  17.934  29.874   9.846
 2978POPC   GL138857  17.826  29.722   9.370
 2978POPC   GL238858  17.602  29.921   9.101
 2978POPC   C1A38859  17.792  29.503   8.924
 2978POPC   D2A38860  17.650  29.787   8.601
 2978POPC   C3A38861  17.763  29.684   8.183
 2978POPC   C4A38862  17.711  29.693   7.748
 2978POPC   C1B38863  17.224  30.013   8.857
 2978POPC   C2B38864  17.098  29.923   8.443
 2978POPC   C3B38865  17.024  30.145   8.060
 2978POPC   C4B38866  17.334  30.041   7.764
 2979POPC   NC338867   4.715  32.548   9.845
 2979POPC   PO438868   4.181  32.892   9.499
 2979POPC   GL138869   4.175  33.003   9.093
 2979POPC   GL238870   4.479  33.211   9.064
 2979POPC   C1A38871   3.993  33.050   8.658
 2979POPC   D2A38872   4.215  33.063   8.230
 2979POPC   C3A38873   3.935  33.078   7.867
 2979POPC   C4A38874   3.931  33.050   7.391
 2979POPC   C1B38875   4.474  32.892   8.703
 2979POPC   C2B38876   4.749  32.788   8.375
 2979POPC   C3B38877   4.691  32.933   7.977
 2979POPC   C4B38878   4.375  32.963   7.667
 2980POPC   NC338879  22.711  31.405   9.504
 2980POPC   PO438880  23.334  31.629   9.570
 2980POPC   GL138881  23.076  31.602   9.179
 2980POPC   GL238882  23.171  31.264   9.113
 2980POPC   C1A38883  23.189  31.639   8.711
 2980POPC   D2A38884  23.260  31.843   8.290
 2980POPC   C3A38885  22.953  31.736   7.971
 2980POPC   C4A38886  22.481  31.638   7.948
 2980POPC   C1B38887  22.810  31.308   8.802
 2980POPC   C2B38888  22.777  31.451   8.369
 2980POPC   C3B38889  22.855  31.251   7.997
 2980POPC   C4B38890  22.907  30.951   7.692
 2981POPC   NC338891  19.110  28.165   9.518
 2981POPC   PO438892  19.257  28.826   9.561
 2981POPC   GL138893  19.030  28.714   9.229
 2981POPC   GL238894  19.278  28.454   9.099
 2981POPC   C1A38895  19.032  28.791   8.796
 2981POPC   D2A38896  19.249  28.541   8.510
 2981POPC   C3A38897  19.076  28.545   8.110
 2981POPC   C4A38898  19.212  28.510   7.704
 2981POPC   C1B38899  19.168  28.107   8.790
 2981POPC   C2B38900  19.064  28.014   8.353
 2981POPC   C3B38901  19.226  28.032   7.931
 2981POPC   C4B38902  19.104  28.075   7.486
 2982POPC   NC338903  22.151  37.993   9.557
 2982POPC   PO438904  21.820  37.388   9.658
 2982POPC   GL138905  21.993  37.586   9.251
 2982POPC   GL238906  21.862  37.934   9.170
 2982POPC   C1A38907  22.215  37.424   8.872
 2982POPC   D2A38908  22.476  37.274   8.490
 2982POPC   C3A38909  22.241  37.323   8.071
 2982POPC   C4A38910  22.266  37.541   7.662
 2982POPC   C1B38911  22.195  37.952   8.866
 2982POPC   C2B38912  22.271  37.738   8.460
 2982POPC   C3B38913  22.286  37.853   8.063
 2982POPC   C4B38914  22.256  38.069   7.673
 2983POPC   NC338915  34.668  27.010   9.822
 2983POPC   PO438916  34.366  26.479   9.480
 2983POPC   GL138917  34.405  26.784   9.134
 2983POPC   GL238918  34.750  26.866   9.142
 2983POPC   C1A38919  34.563  26.732   8.684
 2983POPC   D2A38920  34.823  26.876   8.343
 2983POPC   C3A38921  34.579  27.029   7.972
 2983POPC   C4A38922  34.452  26.822   7.594
 2983POPC   C1B38923  34.853  27.150   8.794
 2983POPC   C2B38924  35.030  27.343   8.384
 2983POPC   C3B38925  35.085  27.160   7.981
 2983POPC   C4B38926  34.849  27.156   7.562
 2984POPC   NC338927  20.766  37.066   9.939
 2984POPC   PO438928  21.300  36.853   9.556
 2984POPC   GL138929  21.428  36.931   9.166
 2984POPC   GL238930  21.719  37.145   9.213
 2984POPC   C1A38931  21.172  36.964   8.775
 2984POPC   D2A38932  20.955  37.130   8.402
 2984POPC   C3A38933  21.203  37.272   8.056
 2984POPC   C4A38934  21.366  37.018   7.749
 2984POPC   C1B38935  21.636  37.182   8.793
 2984POPC   C2B38936  21.526  37.028   8.394
 2984POPC   C3B38937  21.783  37.055   8.049
 2984POPC   C4B38938  21.778  37.316   7.715
 2985POPC   NC338939  34.613  35.486   9.649
 2985POPC   PO438940  34.135  35.124   9.435
 2985POPC   GL138941  34.546  35.178   9.221
 2985POPC   GL238942  34.722  35.507   9.148
 2985POPC   C1A38943  34.695  35.097   8.811
 2985POPC   D2A38944  34.437  35.185   8.456
 2985POPC   C3A38945  34.649  35.172   8.072
 2985POPC   C4A38946  34.483  35.256   7.666
 2985POPC   C1B38947  34.365  35.543   8.846
 2985POPC   C2B38948  34.371  35.690   8.395
 2985POPC   C3B38949  34.534  35.668   7.972
 2985POPC   C4B38950  34.441  35.765   7.552
 2986POPC   NC338951   9.594   8.838   9.516
 2986POPC   PO438952   9.663   9.436   9.163
 2986POPC   GL138953   9.772   9.050   9.095
 2986POPC   GL238954  10.105   8.978   9.215
 2986POPC   C1A38955   9.847   8.752   8.799
 2986POPC   D2A38956   9.979   8.600   8.409
 2986POPC   C3A38957   9.704   8.816   8.140
 2986POPC   C4A38958   9.680   8.982   7.759
 2986POPC   C1B38959  10.190   9.147   8.788
 2986POPC   C2B38960   9.987   9.167   8.395
 2986POPC   C3B38961  10.124   9.088   7.979
 2986POPC   C4B38962  10.092   8.656   7.827
 2987POPC   NC338963   3.917  20.879   9.386
 2987POPC   PO438964   4.363  20.358   9.393
 2987POPC   GL138965   4.495  20.608   9.029
 2987POPC   GL238966   4.849  20.731   9.073
 2987POPC   C1A38967   4.324  20.525   8.595
 2987POPC   D2A38968   4.078  20.197   8.325
 2987POPC   C3A38969   4.104  20.301   7.901
 2987POPC   C4A38970   4.063  20.764   7.839
 2987POPC   C1B38971   4.982  20.638   8.647
 2987POPC   C2B38972   4.846  20.768   8.249
 2987POPC   C3B38973   4.526  20.557   8.034
 2987POPC   C4B38974   4.523  20.420   7.607
 2988POPC   NC338975  26.974  24.818   9.462
 2988POPC   PO438976  26.513  24.346   9.447
 2988POPC   GL138977  26.701  24.555   9.117
 2988POPC   GL238978  27.068  24.503   9.095
 2988POPC   C1A38979  26.618  24.694   8.730
 2988POPC   D2A38980  26.594  24.428   8.392
 2988POPC   C3A38981  26.691  24.505   7.981
 2988POPC   C4A38982  26.456  24.322   7.645
 2988POPC   C1B38983  27.017  24.370   8.716
 2988POPC   C2B38984  27.150  24.332   8.326
 2988POPC   C3B38985  27.127  24.179   7.965
 2988POPC   C4B38986  27.060  24.463   7.648
 2989POPC   NC338987   9.446  44.214   9.499
 2989POPC   PO438988   9.876  43.661   9.505
 2989POPC   GL138989   9.589  43.830   9.174
 2989POPC   GL238990   9.729  44.153   9.070
 2989POPC   C1A38991   9.523  43.861   8.722
 2989POPC   D2A38992   9.764  43.641   8.418
 2989POPC   C3A38993   9.649  43.710   7.995
 2989POPC   C4A38994   9.687  43.477   7.630
 2989POPC   C1B38995   9.854  44.254   8.617
 2989POPC   C2B38996   9.701  44.248   8.186
 2989POPC   C3B38997   9.797  44.211   7.747
 2989POPC   C4B38998   9.755  44.427   7.302
 2990POPC   NC338999  44.312  22.526   9.610
 2990POPC   PO439000  44.043  23.128   9.469
 2990POPC   GL139001  43.862  22.991   9.085
 2990POPC   GL239002  43.603  22.711   9.146
 2990POPC   C1A39003  44.054  22.957   8.667
 2990POPC   D2A39004  44.122  23.248   8.308
 2990POPC   C3A39005  44.016  23.217   7.900
 2990POPC   C4A39006  44.189  22.882   7.695
 2990POPC   C1B39007  43.426  22.933   8.803
 2990POPC   C2B39008  43.632  23.128   8.447
 2990POPC   C3B39009  43.521  23.147   8.021
 2990POPC   C4B39010  43.677  22.895   7.676
 2991POPC   NC339011  14.305  43.580   9.541
 2991POPC   PO439012  14.583  44.156   9.577
 2991POPC   GL139013  14.451  43.894   9.156
 2991POPC   GL239014  14.190  43.636   9.042
 2991POPC   C1A39015  14.319  44.004   8.708
 2991POPC   D2A39016  13.986  44.006   8.368
 2991POPC   C3A39017  14.159  44.101   7.987
 2991POPC   C4A39018  14.461  44.018   7.704
 2991POPC   C1B39019  14.229  43.524   8.587
 2991POPC   C2B39020  14.439  43.702   8.220
 2991POPC   C3B39021  14.638  43.535   7.814
 2991POPC   C4B39022  14.803  43.345   7.420
 2992POPC   NC339023  38.923  22.130   9.622
 2992POPC   PO439024  38.278  22.213   9.733
 2992POPC   GL139025  38.491  22.159   9.314
 2992POPC   GL239026  38.714  21.855   9.242
 2992POPC   C1A39027  38.332  22.117   8.867
 2992POPC   D2A39028  38.339  21.937   8.482
 2992POPC   C3A39029  38.416  22.197   8.166
 2992POPC   C4A39030  38.331  22.164   7.780
 2992POPC   C1B39031  38.789  21.854   8.785
 2992POPC   C2B39032  38.876  21.997   8.363
 2992POPC   C3B39033  38.779  21.891   7.927
 2992POPC   C4B39034  39.001  21.912   7.573
 2993POPC   NC339035  25.418  11.438   9.700
 2993POPC   PO439036  24.885  11.039   9.477
 2993POPC   GL139037  25.189  11.295   9.229
 2993POPC   GL239038  25.525  11.455   9.187
 2993POPC   C1A39039  25.138  11.462   8.842
 2993POPC   D2A39040  25.331  11.492   8.504
 2993POPC   C3A39041  25.087  11.329   8.196
 2993POPC   C4A39042  25.171  11.411   7.762
 2993POPC   C1B39043  25.587  11.168   8.862
 2993POPC   C2B39044  25.580  11.064   8.430
 2993POPC   C3B39045  25.577  11.316   8.047
 2993POPC   C4B39046  25.705  11.146   7.649
 2994POPC   NC339047  22.623   3.411   9.441
 2994POPC   PO439048  22.003   3.731   9.459
 2994POPC   GL139049  22.102   3.364   9.196
 2994POPC   GL239050  22.370   3.530   8.993
 2994POPC   C1A39051  22.090   3.179   8.758
 2994POPC   D2A39052  22.232   3.465   8.430
 2994POPC   C3A39053  22.178   3.313   8.022
 2994POPC   C4A39054  22.309   3.447   7.618
 2994POPC   C1B39055  21.930   3.673   8.826
 2994POPC   C2B39056  21.829   3.871   8.466
 2994POPC   C3B39057  21.922   3.746   8.092
 2994POPC   C4B39058  22.052   3.864   7.728
 2995POPC   NC339059  30.364   7.014   9.362
 2995POPC   PO439060  30.857   7.565   9.516
 2995POPC   GL139061  30.695   7.349   9.162
 2995POPC   GL239062  30.380   7.509   9.111
 2995POPC   C1A39063  30.839   7.163   8.768
 2995POPC   D2A39064  30.744   7.472   8.486
 2995POPC   C3A39065  30.736   7.456   8.061
 2995POPC   C4A39066  30.717   7.668   7.690
 2995POPC   C1B39067  30.324   7.239   8.719
 2995POPC   C2B39068  30.172   7.112   8.289
 2995POPC   C3B39069  30.287   7.269   7.886
 2995POPC   C4B39070  30.631   7.157   7.631
 2996POPC   NC339071   5.192  44.304   9.475
 2996POPC   PO439072   4.757  43.848   9.541
 2996POPC   GL139073   5.060  43.838   9.178
 2996POPC   GL239074   5.251  44.122   9.030
 2996POPC   C1A39075   5.023  43.813   8.721
 2996POPC   D2A39076   5.217  43.845   8.293
 2996POPC   C3A39077   4.962  43.891   7.968
 2996POPC   C4A39078   5.174  43.636   7.678
 2996POPC   C1B39079   5.456  44.073   8.662
 2996POPC   C2B39080   5.439  44.344   8.339
 2996POPC   C3B39081   5.462  44.362   7.942
 2996POPC   C4B39082   5.281  44.143   7.635
 2997POPC   NC339083  26.796  33.647   9.610
 2997POPC   PO439084  27.052  33.017   9.683
 2997POPC   GL139085  27.029  33.351   9.274
 2997POPC   GL239086  26.909  33.723   9.130
 2997POPC   C1A39087  26.973  33.377   8.786
 2997POPC   D2A39088  26.881  33.597   8.403
 2997POPC   C3A39089  27.009  33.495   7.986
 2997POPC   C4A39090  26.994  33.709   7.567
 2997POPC   C1B39091  27.006  33.981   8.747
 2997POPC   C2B39092  26.951  34.150   8.318
 2997POPC   C3B39093  26.759  34.131   7.933
 2997POPC   C4B39094  26.288  34.152   7.883
 2998POPC   NC339095  36.700   0.949   9.405
 2998POPC   PO439096  36.249   0.319   9.413
 2998POPC   GL139097  36.075   0.587   9.085
 2998POPC   GL239098  36.296   0.871   9.103
 2998POPC   C1A39099  36.008   0.455   8.651
 2998POPC   D2A39100  36.333   0.215   8.432
 2998POPC   C3A39101  36.339   0.306   8.035
 2998POPC   C4A39102  36.008   0.203   7.746
 2998POPC   C1B39103  36.071   0.985   8.701
 2998POPC   C2B39104  35.846   0.847   8.332
 2998POPC   C3B39105  35.944   0.679   7.941
 2998POPC   C4B39106  36.352   0.700   7.718
 2999POPC   NC339107   9.182  42.725   9.544
 2999POPC   PO439108   8.725  42.293   9.814
 2999POPC   GL139109   8.798  42.285   9.316
 2999POPC   GL239110   8.931  42.586   9.134
 2999POPC   C1A39111   8.910  42.176   8.850
 2999POPC   D2A39112   8.953  42.398   8.436
 2999POPC   C3A39113   9.135  42.189   8.055
 2999POPC   C4A39114   9.063  42.043   7.634
 2999POPC   C1B39115   9.254  42.625   8.798
 2999POPC   C2B39116   9.459  42.590   8.396
 2999POPC   C3B39117   9.236  42.688   8.005
 2999POPC   C4B39118   9.015  42.819   7.591
 3000POPC   NC339119  26.381  14.842   9.519
 3000POPC   PO439120  26.269  15.498   9.544
 3000POPC   GL139121  26.109  15.197   9.244
 3000POPC   GL239122  25.973  15.488   9.115
 3000POPC   C1A39123  26.302  14.991   8.853
 3000POPC   D2A39124  26.502  15.098   8.438
 3000POPC   C3A39125  26.303  15.014   8.019
 3000POPC   C4A39126  26.263  15.285   7.642
 3000POPC   C1B39127  26.085  15.443   8.705
 3000POPC   C2B39128  25.865  15.534   8.344
 3000POPC   C3B39129  25.863  15.500   7.912
 3000POPC   C4B39130  25.755  15.119   7.698
 3001POPC   NC339131  30.836  39.329   9.685
 3001POPC   PO439132  30.361  39.578   9.348
 3001POPC   GL139133  30.653  39.229   9.210
 3001POPC   GL239134  30.875  39.377   9.072
 3001POPC   C1A39135  30.825  38.934   8.849
 3001POPC   D2A39136  30.724  38.993   8.425
 3001POPC   C3A39137  30.960  38.966   8.073
 3001POPC   C4A39138  30.763  38.928   7.711
 3001POPC   C1B39139  30.443  39.259   8.774
 3001POPC   C2B39140  30.411  39.408   8.391
 3001POPC   C3B39141  30.711  39.489   8.094
 3001POPC   C4B39142  30.610  39.398   7.699
 3002POPC   NC339143   2.600  27.693   9.411
 3002POPC   PO439144   3.094  27.275   9.480
 3002POPC   GL139145   2.850  27.392   9.099
 3002POPC   GL239146   2.505  27.259   9.084
 3002POPC   C1A39147   2.695  27.697   8.795
 3002POPC   D2A39148   2.491  27.733   8.437
 3002POPC   C3A39149   2.731  27.776   8.087
 3002POPC   C4A39150   2.767  27.604   7.700
 3002POPC   C1B39151   2.566  27.183   8.687
 3002POPC   C2B39152   2.513  27.113   8.280
 3002POPC   C3B39153   2.624  27.134   7.860
 3002POPC   C4B39154   2.339  27.301   7.567
 3003POPC   NC339155  38.444  43.254   9.661
 3003POPC   PO439156  39.039  43.204   9.513
 3003POPC   GL139157  38.680  43.150   9.200
 3003POPC   GL239158  38.312  43.249   9.181
 3003POPC   C1A39159  38.507  42.905   8.840
 3003POPC   D2A39160  38.566  43.047   8.433
 3003POPC   C3A39161  38.364  43.058   8.040
 3003POPC   C4A39162  38.586  42.926   7.691
 3003POPC   C1B39163  38.362  43.444   8.798
 3003POPC   C2B39164  38.200  43.389   8.404
 3003POPC   C3B39165  38.284  43.555   8.020
 3003POPC   C4B39166  38.109  43.391   7.653
 3004POPC   NC339167  23.956  36.250   9.518
 3004POPC   PO439168  23.831  35.678   9.753
 3004POPC   GL139169  23.918  35.869   9.194
 3004POPC   GL239170  23.676  36.142   9.097
 3004POPC   C1A39171  23.767  35.800   8.729
 3004POPC   D2A39172  23.478  36.023   8.426
 3004POPC   C3A39173  23.453  35.853   8.002
 3004POPC   C4A39174  23.814  35.842   7.706
 3004POPC   C1B39175  23.961  36.277   8.785
 3004POPC   C2B39176  23.879  36.406   8.362
 3004POPC   C3B39177  23.740  36.280   7.993
 3004POPC   C4B39178  23.835  36.433   7.622
 3005POPC   NC339179  27.632   1.560   9.636
 3005POPC   PO439180  27.725   1.010   9.535
 3005POPC   GL139181  27.757   1.347   9.134
 3005POPC   GL239182  28.119   1.432   8.980
 3005POPC   C1A39183  27.731   1.372   8.647
 3005POPC   D2A39184  27.678   1.048   8.303
 3005POPC   C3A39185  27.467   1.088   7.881
 3005POPC   C4A39186  27.555   0.935   7.453
 3005POPC   C1B39187  28.090   1.750   8.637
 3005POPC   C2B39188  27.817   1.799   8.289
 3005POPC   C3B39189  27.810   1.453   7.993
 3005POPC   C4B39190  27.815   1.375   7.543
 3006POPC   NC339191  14.018  11.180   9.449
 3006POPC   PO439192  14.464  11.718   9.461
 3006POPC   GL139193  14.360  11.429   9.071
 3006POPC   GL239194  14.131  11.129   8.972
 3006POPC   C1A39195  14.243  11.444   8.618
 3006POPC   D2A39196  14.389  11.566   8.286
 3006POPC   C3A39197  14.414  11.374   7.925
 3006POPC   C4A39198  14.521  11.553   7.586
 3006POPC   C1B39199  14.533  11.043   8.754
 3006POPC   C2B39200  14.581  11.091   8.363
 3006POPC   C3B39201  14.637  10.927   7.978
 3006POPC   C4B39202  14.236  10.893   7.774
 3007POPC   NC339203   4.447   4.241  10.055
 3007POPC   PO439204   4.303   4.278   9.450
 3007POPC   GL139205   4.384   4.077   9.057
 3007POPC   GL239206   4.051   4.175   8.988
 3007POPC   C1A39207   4.369   4.130   8.581
 3007POPC   D2A39208   4.358   4.446   8.212
 3007POPC   C3A39209   4.547   4.228   7.811
 3007POPC   C4A39210   4.561   4.013   7.375
 3007POPC   C1B39211   3.919   4.356   8.618
 3007POPC   C2B39212   3.919   4.183   8.227
 3007POPC   C3B39213   4.026   4.340   7.855
 3007POPC   C4B39214   3.852   4.398   7.532
 3008POPC   NC339215  30.884  30.504   9.746
 3008POPC   PO439216  30.526  30.979   9.592
 3008POPC   GL139217  30.750  30.703   9.275
 3008POPC   GL239218  30.941  30.879   9.059
 3008POPC   C1A39219  30.874  30.411   8.901
 3008POPC   D2A39220  30.598  30.215   8.601
 3008POPC   C3A39221  30.636  30.273   8.144
 3008POPC   C4A39222  30.374  30.340   7.798
 3008POPC   C1B39223  30.554  30.824   8.782
 3008POPC   C2B39224  30.531  30.971   8.326
 3008POPC   C3B39225  30.640  30.751   7.917
 3008POPC   C4B39226  31.022  30.487   7.783
 3009POPC   NC339227  24.365   4.882   9.722
 3009POPC   PO439228  24.602   5.430   9.387
 3009POPC   GL139229  24.338   5.276   9.080
 3009POPC   GL239230  24.227   4.921   9.105
 3009POPC   C1A39231  24.500   5.393   8.652
 3009POPC   D2A39232  24.774   5.233   8.290
 3009POPC   C3A39233  24.627   5.420   7.890
 3009POPC   C4A39234  24.184   5.286   7.765
 3009POPC   C1B39235  24.484   4.882   8.681
 3009POPC   C2B39236  24.450   4.785   8.217
 3009POPC   C3B39237  24.533   4.921   7.789
 3009POPC   C4B39238  24.451   4.758   7.377
 3010POPC   NC339239  28.557  39.556   9.400
 3010POPC   PO439240  28.198  38.954   9.531
 3010POPC   GL139241  28.170  39.257   9.206
 3010POPC   GL239242  27.841  39.403   9.183
 3010POPC   C1A39243  28.402  39.240   8.797
 3010POPC   D2A39244  28.578  39.075   8.410
 3010POPC   C3A39245  28.468  39.211   8.029
 3010POPC   C4A39246  28.514  39.022   7.654
 3010POPC   C1B39247  28.011  39.587   8.794
 3010POPC   C2B39248  28.208  39.523   8.397
 3010POPC   C3B39249  28.121  39.574   7.970
 3010POPC   C4B39250  28.330  39.495   7.575
 3011POPC   NC339251  42.863  16.640   9.615
 3011POPC   PO439252  43.448  16.963   9.622
 3011POPC   GL139253  43.233  16.822   9.245
 3011POPC   GL239254  43.390  16.555   9.046
 3011POPC   C1A39255  42.955  16.855   8.894
 3011POPC   D2A39256  42.811  16.989   8.474
 3011POPC   C3A39257  42.910  16.802   8.062
 3011POPC   C4A39258  43.097  16.899   7.662
 3011POPC   C1B39259  43.259  16.506   8.667
 3011POPC   C2B39260  43.506  16.466   8.338
 3011POPC   C3B39261  43.364  16.553   7.968
 3011POPC   C4B39262  43.517  16.471   7.627
 3012POPC   NC339263  16.378  10.790   9.452
 3012POPC   PO439264  16.611  10.150   9.433
 3012POPC   GL139265  16.751  10.359   9.120
 3012POPC   GL239266  16.640  10.116   8.904
 3012POPC   C1A39267  16.622  10.639   8.826
 3012POPC   D2A39268  16.459  10.520   8.439
 3012POPC   C3A39269  16.705  10.669   8.102
 3012POPC   C4A39270  16.678  10.852   7.702
 3012POPC   C1B39271  16.915  10.249   8.595
 3012POPC   C2B39272  16.920  10.210   8.146
 3012POPC   C3B39273  16.617  10.229   7.806
 3012POPC   C4B39274  16.686  10.298   7.369
 3013POPC   NC339275  25.566  17.176   9.531
 3013POPC   PO439276  25.027  17.659   9.391
 3013POPC   GL139277  25.256  17.399   9.155
 3013POPC   GL239278  25.308  17.720   8.986
 3013POPC   C1A39279  25.114  17.269   8.774
 3013POPC   D2A39280  24.975  17.567   8.500
 3013POPC   C3A39281  25.203  17.536   8.161
 3013POPC   C4A39282  25.199  17.381   7.766
 3013POPC   C1B39283  25.508  17.552   8.657
 3013POPC   C2B39284  25.558  17.228   8.371
 3013POPC   C3B39285  25.668  17.338   7.967
 3013POPC   C4B39286  25.611  17.445   7.494
 3014POPC   NC339287   3.061  30.369   9.478
 3014POPC   PO439288   2.858  29.623   9.531
 3014POPC   GL139289   2.631  29.824   9.206
 3014POPC   GL239290   2.961  29.956   9.139
 3014POPC   C1A39291   2.583  29.946   8.785
 3014POPC   D2A39292   2.864  29.932   8.444
 3014POPC   C3A39293   2.761  29.742   8.079
 3014POPC   C4A39294   2.547  29.862   7.696
 3014POPC   C1B39295   3.231  29.927   8.807
 3014POPC   C2B39296   3.387  30.016   8.436
 3014POPC   C3B39297   3.229  30.022   8.071
 3014POPC   C4B39298   3.054  29.927   7.729
 3015POPC   NC339299  27.427  29.298   9.511
 3015POPC   PO439300  27.923  28.804   9.639
 3015POPC   GL139301  27.661  28.906   9.277
 3015POPC   GL239302  27.848  29.209   9.211
 3015POPC   C1A39303  27.602  29.001   8.815
 3015POPC   D2A39304  27.823  28.927   8.414
 3015POPC   C3A39305  27.665  29.134   8.050
 3015POPC   C4A39306  27.483  29.071   7.629
 3015POPC   C1B39307  27.871  29.484   8.850
 3015POPC   C2B39308  28.032  29.474   8.449
 3015POPC   C3B39309  27.981  29.586   8.039
 3015POPC   C4B39310  27.653  29.568   7.742
 3016POPC   NC339311   8.416   4.225   9.600
 3016POPC   PO439312   8.337   4.811   9.517
 3016POPC   GL139313   8.430   4.498   9.147
 3016POPC   GL239314   8.275   4.141   9.095
 3016POPC   C1A39315   8.446   4.360   8.681
 3016POPC   D2A39316   8.492   4.038   8.357
 3016POPC   C3A39317   8.498   4.259   7.975
 3016POPC   C4A39318   8.267   4.376   7.614
 3016POPC   C1B39319   8.038   4.003   8.684
 3016POPC   C2B39320   7.944   3.824   8.248
 3016POPC   C3B39321   7.937   3.953   7.757
 3016POPC   C4B39322   8.024   3.915   7.281
 3017POPC   NC339323  19.344  25.658   9.794
 3017POPC   PO439324  19.695  25.221   9.409
 3017POPC   GL139325  19.691  25.115   9.035
 3017POPC   GL239326  19.514  24.824   9.099
 3017POPC   C1A39327  19.543  25.339   8.664
 3017POPC   D2A39328  19.520  25.635   8.337
 3017POPC   C3A39329  19.820  25.571   8.030
 3017POPC   C4A39330  19.947  25.313   7.704
 3017POPC   C1B39331  19.657  24.811   8.644
 3017POPC   C2B39332  19.769  25.078   8.278
 3017POPC   C3B39333  19.675  24.889   7.891
 3017POPC   C4B39334  19.792  24.906   7.462
 3018POPC   NC339335  33.231   5.172   9.572
 3018POPC   PO439336  32.550   5.231   9.500
 3018POPC   GL139337  32.667   5.017   9.150
 3018POPC   GL239338  32.925   4.788   9.243
 3018POPC   C1A39339  32.831   5.002   8.749
 3018POPC   D2A39340  32.983   4.839   8.383
 3018POPC   C3A39341  32.748   5.087   8.118
 3018POPC   C4A39342  32.869   5.300   7.742
 3018POPC   C1B39343  33.247   4.743   8.896
 3018POPC   C2B39344  33.462   4.996   8.561
 3018POPC   C3B39345  33.339   5.073   8.102
 3018POPC   C4B39346  33.074   4.817   7.848
 3019POPC   NC339347  17.174  41.155   9.499
 3019POPC   PO439348  16.560  41.483   9.558
 3019POPC   GL139349  16.710  41.604   9.151
 3019POPC   GL239350  16.433  41.768   8.950
 3019POPC   C1A39351  16.885  41.626   8.720
 3019POPC   D2A39352  16.674  41.713   8.305
 3019POPC   C3A39353  16.870  41.585   7.903
 3019POPC   C4A39354  16.984  41.698   7.480
 3019POPC   C1B39355  16.465  41.353   8.718
 3019POPC   C2B39356  16.508  41.221   8.317
 3019POPC   C3B39357  16.387  41.354   7.909
 3019POPC   C4B39358  16.560  41.425   7.525
 3020POPC   NC339359  30.946  10.349   9.649
 3020POPC   PO439360  30.640  10.881   9.433
 3020POPC   GL139361  30.555  10.575   9.130
 3020POPC   GL239362  30.841  10.367   9.162
 3020POPC   C1A39363  30.406  10.751   8.748
 3020POPC   D2A39364  30.562  11.043   8.443
 3020POPC   C3A39365  30.492  10.775   8.102
 3020POPC   C4A39366  30.698  10.586   7.749
 3020POPC   C1B39367  30.701  10.265   8.743
 3020POPC   C2B39368  30.819  10.455   8.358
 3020POPC   C3B39369  31.047  10.323   8.014
 3020POPC   C4B39370  30.975  10.150   7.646
 3021POPC   NC339371  12.901  22.546   9.618
 3021POPC   PO439372  13.336  22.986   9.359
 3021POPC   GL139373  12.997  23.094   9.077
 3021POPC   GL239374  12.651  23.063   9.211
 3021POPC   C1A39375  13.041  23.027   8.653
 3021POPC   D2A39376  13.066  22.757   8.310
 3021POPC   C3A39377  12.953  22.948   7.932
 3021POPC   C4A39378  12.971  22.626   7.660
 3021POPC   C1B39379  12.526  23.192   8.781
 3021POPC   C2B39380  12.658  23.154   8.328
 3021POPC   C3B39381  12.404  23.153   7.959
 3021POPC   C4B39382  12.366  23.124   7.518
 3022POPC   NC339383  35.659  26.608   9.473
 3022POPC   PO439384  35.029  26.845   9.579
 3022POPC   GL139385  35.243  27.005   9.215
 3022POPC   GL239386  35.604  27.109   9.192
 3022POPC   C1A39387  35.241  26.834   8.807
 3022POPC   D2A39388  35.309  26.567   8.480
 3022POPC   C3A39389  35.182  26.631   8.063
 3022POPC   C4A39390  35.206  26.800   7.640
 3022POPC   C1B39391  35.721  27.033   8.746
 3022POPC   C2B39392  35.467  27.025   8.354
 3022POPC   C3B39393  35.573  26.975   7.936
 3022POPC   C4B39394  35.462  27.242   7.599
 3023POPC   NC339395  31.980  21.086   9.732
 3023POPC   PO439396  32.410  21.548   9.528
 3023POPC   GL139397  32.449  21.280   9.158
 3023POPC   GL239398  32.097  21.316   9.136
 3023POPC   C1A39399  32.397  21.378   8.724
 3023POPC   D2A39400  32.435  21.663   8.361
 3023POPC   C3A39401  32.407  21.402   8.003
 3023POPC   C4A39402  32.276  21.100   7.737
 3023POPC   C1B39403  31.876  21.251   8.774
 3023POPC   C2B39404  32.019  21.336   8.365
 3023POPC   C3B39405  31.891  21.340   7.962
 3023POPC   C4B39406  32.005  21.478   7.542
 3024POPC   NC339407  31.554  17.851   9.376
 3024POPC   PO439408  31.193  17.252   9.514
 3024POPC   GL139409  31.524  17.368   9.177
 3024POPC   GL239410  31.588  17.658   8.919
 3024POPC   C1A39411  31.656  17.170   8.794
 3024POPC   D2A39412  31.472  17.104   8.406
 3024POPC   C3A39413  31.655  17.283   8.040
 3024POPC   C4A39414  31.556  17.531   7.691
 3024POPC   C1B39415  31.450  17.642   8.470
 3024POPC   C2B39416  31.185  17.875   8.149
 3024POPC   C3B39417  31.431  18.073   7.805
 3024POPC   C4B39418  31.845  17.933   7.823
 3025POPC   NC339419   2.985  44.102   9.411
 3025POPC   PO439420   2.436  43.635   9.398
 3025POPC   GL139421   2.682  43.879   9.077
 3025POPC   GL239422   2.983  43.752   9.030
 3025POPC   C1A39423   2.759  43.917   8.623
 3025POPC   D2A39424   2.413  43.755   8.413
 3025POPC   C3A39425   2.405  43.858   7.993
 3025POPC   C4A39426   2.693  44.141   7.784
 3025POPC   C1B39427   3.208  43.646   8.655
 3025POPC   C2B39428   3.140  43.847   8.270
 3025POPC   C3B39429   3.175  44.084   7.902
 3025POPC   C4B39430   3.057  43.887   7.521
 3026POPC   NC339431   1.843  15.856   9.970
 3026POPC   PO439432   2.333  15.879   9.411
 3026POPC   GL139433   2.259  16.100   9.084
 3026POPC   GL239434   2.100  16.419   9.175
 3026POPC   C1A39435   2.079  15.945   8.707
 3026POPC   D2A39436   1.927  15.664   8.388
 3026POPC   C3A39437   1.996  15.913   8.071
 3026POPC   C4A39438   1.974  16.023   7.660
 3026POPC   C1B39439   2.243  16.448   8.723
 3026POPC   C2B39440   2.308  16.257   8.322
 3026POPC   C3B39441   2.347  16.299   7.874
 3026POPC   C4B39442   2.463  16.416   7.432
 3027POPC   NC339443  10.088  26.364   9.596
 3027POPC   PO439444  10.676  26.187   9.576
 3027POPC   GL139445  10.705  26.242   9.158
 3027POPC   GL239446  10.382  26.382   9.156
 3027POPC   C1A39447  10.694  25.977   8.794
 3027POPC   D2A39448  10.487  26.084   8.404
 3027POPC   C3A39449  10.714  25.997   8.029
 3027POPC   C4A39450  10.614  25.691   7.729
 3027POPC   C1B39451  10.179  26.509   8.778
 3027POPC   C2B39452  10.287  26.578   8.335
 3027POPC   C3B39453  10.389  26.411   7.927
 3027POPC   C4B39454  10.221  26.035   7.804
 3028POPC   NC339455  28.031   0.417   9.706
 3028POPC   PO439456  28.421  44.779   9.660
 3028POPC   GL139457  28.474  44.674   9.171
 3028POPC   GL239458  28.773  44.575   9.032
 3028POPC   C1A39459  28.471  44.785   8.692
 3028POPC   D2A39460  28.456  44.614   8.270
 3028POPC   C3A39461  28.262  44.785   7.908
 3028POPC   C4A39462  28.408  44.675   7.522
 3028POPC   C1B39463  28.803  44.386   8.644
 3028POPC   C2B39464  28.775  44.201   8.239
 3028POPC   C3B39465  28.673  44.360   7.836
 3028POPC   C4B39466  28.684  44.288   7.378
 3029POPC   NC339467  39.505  41.044   9.469
 3029POPC   PO439468  38.990  41.467   9.522
 3029POPC   GL139469  39.213  41.349   9.157
 3029POPC   GL239470  39.048  41.637   9.050
 3029POPC   C1A39471  39.274  41.334   8.694
 3029POPC   D2A39472  39.540  41.462   8.332
 3029POPC   C3A39473  39.247  41.486   7.988
 3029POPC   C4A39474  39.336  41.692   7.628
 3029POPC   C1B39475  39.016  41.879   8.745
 3029POPC   C2B39476  39.215  41.857   8.364
 3029POPC   C3B39477  38.951  41.907   8.038
 3029POPC   C4B39478  38.832  41.826   7.666
 3030POPC   NC339479   1.715  17.652   9.438
 3030POPC   PO439480   2.424  17.612   9.646
 3030POPC   GL139481   2.359  17.512   9.169
 3030POPC   GL239482   2.008  17.417   9.112
 3030POPC   C1A39483   2.280  17.439   8.692
 3030POPC   D2A39484   2.260  17.193   8.299
 3030POPC   C3A39485   2.077  17.404   7.948
 3030POPC   C4A39486   2.002  17.776   7.709
 3030POPC   C1B39487   1.840  17.697   8.790
 3030POPC   C2B39488   1.895  17.621   8.377
 3030POPC   C3B39489   1.666  17.797   8.060
 3030POPC   C4B39490   1.452  17.741   7.694
 3031POPC   NC339491  35.869  18.557   9.454
 3031POPC   PO439492  36.379  18.157   9.579
 3031POPC   GL139493  36.196  18.187   9.123
 3031POPC   GL239494  35.891  18.415   8.983
 3031POPC   C1A39495  36.281  18.354   8.684
 3031POPC   D2A39496  36.506  18.497   8.326
 3031POPC   C3A39497  36.232  18.401   8.023
 3031POPC   C4A39498  36.258  18.095   7.747
 3031POPC   C1B39499  35.861  18.036   8.752
 3031POPC   C2B39500  36.004  18.008   8.357
 3031POPC   C3B39501  35.819  18.055   7.998
 3031POPC   C4B39502  35.800  18.357   7.697
 3032POPC   NC339503  16.543   2.117   9.469
 3032POPC   PO439504  16.678   1.574   9.699
 3032POPC   GL139505  16.750   1.766   9.191
 3032POPC   GL239506  16.641   2.038   9.003
 3032POPC   C1A39507  16.791   1.657   8.740
 3032POPC   D2A39508  17.022   1.707   8.358
 3032POPC   C3A39509  16.727   1.840   8.060
 3032POPC   C4A39510  16.665   1.764   7.628
 3032POPC   C1B39511  16.427   2.319   8.759
 3032POPC   C2B39512  16.551   2.413   8.346
 3032POPC   C3B39513  16.279   2.395   7.994
 3032POPC   C4B39514  16.225   2.336   7.597
 3033POPC   NC339515  38.807  18.125   9.651
 3033POPC   PO439516  38.223  18.294   9.478
 3033POPC   GL139517  38.443  18.164   9.108
 3033POPC   GL239518  38.699  17.954   9.190
 3033POPC   C1A39519  38.703  18.325   8.735
 3033POPC   D2A39520  38.880  18.455   8.302
 3033POPC   C3A39521  38.583  18.280   8.015
 3033POPC   C4A39522  38.374  18.373   7.632
 3033POPC   C1B39523  38.634  17.807   8.776
 3033POPC   C2B39524  38.457  17.968   8.416
 3033POPC   C3B39525  38.471  17.763   8.062
 3033POPC   C4B39526  38.498  17.887   7.682
 3034POPC   NC339527  36.438   5.784   9.454
 3034POPC   PO439528  36.959   6.236   9.461
 3034POPC   GL139529  36.834   5.967   9.127
 3034POPC   GL239530  36.579   6.189   9.121
 3034POPC   C1A39531  36.985   5.890   8.697
 3034POPC   D2A39532  37.104   5.519   8.463
 3034POPC   C3A39533  36.861   5.491   8.082
 3034POPC   C4A39534  36.941   5.709   7.699
 3034POPC   C1B39535  36.727   6.340   8.732
 3034POPC   C2B39536  37.058   6.339   8.457
 3034POPC   C3B39537  37.101   6.093   8.084
 3034POPC   C4B39538  36.886   6.210   7.727
 3035POPC   NC339539  25.835  29.709   9.391
 3035POPC   PO439540  26.465  29.987   9.456
 3035POPC   GL139541  26.214  30.037   9.077
 3035POPC   GL239542  25.844  29.974   8.973
 3035POPC   C1A39543  26.180  30.085   8.642
 3035POPC   D2A39544  25.941  30.045   8.309
 3035POPC   C3A39545  26.275  29.974   8.009
 3035POPC   C4A39546  26.209  29.669   7.754
 3035POPC   C1B39547  25.760  29.588   8.720
 3035POPC   C2B39548  25.700  29.344   8.338
 3035POPC   C3B39549  25.788  29.617   8.021
 3035POPC   C4B39550  25.811  30.019   7.797
 3036POPC   NC339551  38.250  33.549   9.527
 3036POPC   PO439552  37.895  34.026   9.593
 3036POPC   GL139553  38.222  33.971   9.220
 3036POPC   GL239554  38.581  33.848   9.270
 3036POPC   C1A39555  38.273  33.751   8.813
 3036POPC   D2A39556  38.094  33.707   8.395
 3036POPC   C3A39557  38.376  33.892   8.085
 3036POPC   C4A39558  38.453  33.771   7.676
 3036POPC   C1B39559  38.737  33.997   8.877
 3036POPC   C2B39560  38.772  33.996   8.405
 3036POPC   C3B39561  38.827  34.133   7.926
 3036POPC   C4B39562  38.977  33.930   7.527
 3037POPC   NC339563   1.328  13.601   9.531
 3037POPC   PO439564   0.846  13.267   9.211
 3037POPC   GL139565   1.103  13.642   9.053
 3037POPC   GL239566   0.917  14.008   9.081
 3037POPC   C1A39567   1.365  13.584   8.664
 3037POPC   D2A39568   1.381  13.486   8.211
 3037POPC   C3A39569   0.999  13.455   7.947
 3037POPC   C4A39570   0.983  13.401   7.455
 3037POPC   C1B39571   0.888  13.909   8.666
 3037POPC   C2B39572   0.961  13.848   8.247
 3037POPC   C3B39573   1.043  14.037   7.857
 3037POPC   C4B39574   1.323  13.713   7.661
 3038POPC   NC339575  11.361   1.040   9.788
 3038POPC   PO439576  10.930   1.464   9.767
 3038POPC   GL139577  11.113   1.109   9.359
 3038POPC   GL239578  11.442   0.940   9.293
 3038POPC   C1A39579  11.144   1.023   8.873
 3038POPC   D2A39580  11.029   1.276   8.474
 3038POPC   C3A39581  11.095   1.157   8.028
 3038POPC   C4A39582  11.127   1.198   7.562
 3038POPC   C1B39583  11.665   0.879   8.900
 3038POPC   C2B39584  11.743   1.096   8.525
 3038POPC   C3B39585  11.669   1.033   8.093
 3038POPC   C4B39586  11.606   1.054   7.665
 3039POPC   NC339587   9.833   6.290   9.449
 3039POPC   PO439588   9.385   6.821   9.432
 3039POPC   GL139589   9.748   6.737   9.174
 3039POPC   GL239590  10.114   6.890   9.223
 3039POPC   C1A39591   9.704   6.491   8.800
 3039POPC   D2A39592   9.874   6.554   8.408
 3039POPC   C3A39593   9.635   6.714   8.104
 3039POPC   C4A39594   9.712   6.494   7.780
 3039POPC   C1B39595  10.050   6.878   8.774
 3039POPC   C2B39596   9.952   7.072   8.365
 3039POPC   C3B39597  10.005   6.972   7.892
 3039POPC   C4B39598  10.019   7.165   7.505
 3040POPC   NC339599  12.603  25.658   9.287
 3040POPC   PO439600  12.997  26.185   9.448
 3040POPC   GL139601  12.964  26.030   9.075
 3040POPC   GL239602  13.106  25.707   9.078
 3040POPC   C1A39603  12.868  26.263   8.727
 3040POPC   D2A39604  12.625  26.439   8.420
 3040POPC   C3A39605  12.576  26.305   8.037
 3040POPC   C4A39606  12.902  26.385   7.794
 3040POPC   C1B39607  12.832  25.694   8.700
 3040POPC   C2B39608  12.716  25.940   8.372
 3040POPC   C3B39609  12.903  25.912   7.998
 3040POPC   C4B39610  12.673  25.703   7.719
 3041POPC   NC339611   0.883   5.935   9.443
 3041POPC   PO439612   1.522   6.101   9.203
 3041POPC   GL139613   1.242   5.869   9.043
 3041POPC   GL239614   1.460   5.634   8.885
 3041POPC   C1A39615   0.960   5.900   8.711
 3041POPC   D2A39616   0.739   5.899   8.334
 3041POPC   C3A39617   0.937   5.802   7.950
 3041POPC   C4A39618   1.303   5.560   7.959
 3041POPC   C1B39619   1.443   5.871   8.536
 3041POPC   C2B39620   1.294   6.078   8.198
 3041POPC   C3B39621   1.521   6.356   7.958
 3041POPC   C4B39622   1.553   6.262   7.535
 3042POPC   NC339623   7.190  28.588   9.632
 3042POPC   PO439624   7.847  28.696   9.731
 3042POPC   GL139625   7.534  28.758   9.272
 3042POPC   GL239626   7.243  28.553   9.094
 3042POPC   C1A39627   7.559  28.794   8.798
 3042POPC   D2A39628   7.840  28.605   8.449
 3042POPC   C3A39629   7.720  28.530   8.025
 3042POPC   C4A39630   7.776  28.195   7.716
 3042POPC   C1B39631   7.020  28.526   8.719
 3042POPC   C2B39632   7.028  28.654   8.293
 3042POPC   C3B39633   6.922  28.499   7.898
 3042POPC   C4B39634   7.218  28.419   7.589
 3043POPC   NC339635  42.165  25.623   9.513
 3043POPC   PO439636  42.519  25.126   9.400
 3043POPC   GL139637  42.210  25.264   9.132
 3043POPC   GL239638  42.314  24.957   8.937
 3043POPC   C1A39639  42.068  25.372   8.709
 3043POPC   D2A39640  41.871  25.064   8.384
 3043POPC   C3A39641  41.862  25.219   7.954
 3043POPC   C4A39642  42.158  25.370   7.627
 3043POPC   C1B39643  42.574  25.313   8.782
 3043POPC   C2B39644  42.624  25.484   8.407
 3043POPC   C3B39645  42.374  25.463   8.082
 3043POPC   C4B39646  42.650  25.498   7.767
 3044POPC   NC339647   6.594  24.633   9.385
 3044POPC   PO439648   6.659  23.963   9.407
 3044POPC   GL139649   6.558  24.238   9.031
 3044POPC   GL239650   6.606  24.615   8.899
 3044POPC   C1A39651   6.622  24.236   8.590
 3044POPC   D2A39652   6.715  24.586   8.328
 3044POPC   C3A39653   6.711  24.367   7.940
 3044POPC   C4A39654   6.531  24.294   7.552
 3044POPC   C1B39655   6.808  24.968   8.690
 3044POPC   C2B39656   6.848  25.102   8.261
 3044POPC   C3B39657   6.666  24.883   7.898
 3044POPC   C4B39658   6.899  24.638   7.544
 3045POPC   NC339659   6.248   9.491   9.466
 3045POPC   PO439660   5.660   9.951   9.508
 3045POPC   GL139661   5.747  10.157   9.106
 3045POPC   GL239662   6.066  10.031   9.027
 3045POPC   C1A39663   5.650   9.965   8.695
 3045POPC   D2A39664   5.930   9.810   8.369
 3045POPC   C3A39665   5.774   9.596   8.017
 3045POPC   C4A39666   5.696   9.845   7.641
 3045POPC   C1B39667   6.002   9.588   8.844
 3045POPC   C2B39668   6.186   9.381   8.473
 3045POPC   C3B39669   6.318   9.583   8.112
 3045POPC   C4B39670   6.163   9.647   7.696
 3046POPC   NC339671  35.800  23.407   9.558
 3046POPC   PO439672  36.337  23.880   9.641
 3046POPC   GL139673  36.354  23.728   9.220
 3046POPC   GL239674  36.206  23.435   9.205
 3046POPC   C1A39675  36.532  23.732   8.814
 3046POPC   D2A39676  36.377  23.565   8.437
 3046POPC   C3A39677  36.183  23.775   8.091
 3046POPC   C4A39678  36.258  23.657   7.676
 3046POPC   C1B39679  36.021  23.536   8.806
 3046POPC   C2B39680  35.924  23.340   8.387
 3046POPC   C3B39681  35.939  23.318   7.953
 3046POPC   C4B39682  35.766  23.522   7.597
 3047POPC   NC339683   1.393  15.098   9.498
 3047POPC   PO439684   0.721  14.907   9.495
 3047POPC   GL139685   1.001  14.949   9.165
 3047POPC   GL239686   1.073  15.325   9.172
 3047POPC   C1A39687   1.049  15.046   8.729
 3047POPC   D2A39688   1.055  14.845   8.335
 3047POPC   C3A39689   1.149  15.078   7.958
 3047POPC   C4A39690   1.217  15.023   7.479
 3047POPC   C1B39691   1.082  15.584   8.801
 3047POPC   C2B39692   0.932  15.511   8.383
 3047POPC   C3B39693   0.957  15.681   7.972
 3047POPC   C4B39694   1.208  15.517   7.649
 3048POPC   NC339695  30.702  22.818   9.447
 3048POPC   PO439696  30.193  22.267   9.348
 3048POPC   GL139697  29.725  22.240   9.171
 3048POPC   GL239698  29.852  22.011   8.994
 3048POPC   C1A39699  29.600  22.312   8.703
 3048POPC   D2A39700  29.711  22.053   8.330
 3048POPC   C3A39701  29.743  22.323   7.983
 3048POPC   C4A39702  29.727  22.469   7.530
 3048POPC   C1B39703  30.130  22.104   8.684
 3048POPC   C2B39704  30.212  21.883   8.336
 3048POPC   C3B39705  30.203  22.103   7.986
 3048POPC   C4B39706  30.336  22.264   7.653
 3049POPC   NC339707  10.707  18.202   9.514
 3049POPC   PO439708  10.124  18.452   9.474
 3049POPC   GL139709  10.441  18.399   9.099
 3049POPC   GL239710  10.789  18.188   9.025
 3049POPC   C1A39711  10.487  18.381   8.644
 3049POPC   D2A39712  10.310  18.214   8.269
 3049POPC   C3A39713  10.475  18.499   7.967
 3049POPC   C4A39714  10.784  18.521   7.645
 3049POPC   C1B39715  10.535  17.888   8.791
 3049POPC   C2B39716  10.665  17.835   8.355
 3049POPC   C3B39717  10.690  18.038   7.944
 3049POPC   C4B39718  10.719  18.013   7.460
 3050POPC   NC339719  10.112  40.146   9.471
 3050POPC   PO439720   9.690  39.840   9.925
 3050POPC   GL139721   9.625  40.153   9.435
 3050POPC   GL239722   9.775  39.952   9.136
 3050POPC   C1A39723   9.436  40.284   8.927
 3050POPC   D2A39724   9.543  40.140   8.460
 3050POPC   C3A39725   9.538  40.279   8.012
 3050POPC   C4A39726   9.705  40.080   7.629
 3050POPC   C1B39727   9.914  40.245   8.795
 3050POPC   C2B39728   9.989  40.403   8.383
 3050POPC   C3B39729  10.070  40.267   7.953
 3050POPC   C4B39730  10.050  40.520   7.572
 3051POPC   NC339731  18.446  37.489   9.561
 3051POPC   PO439732  18.747  38.104   9.453
 3051POPC   GL139733  18.538  37.915   9.059
 3051POPC   GL239734  18.284  37.687   9.119
 3051POPC   C1A39735  18.403  37.734   8.624
 3051POPC   D2A39736  18.554  37.438   8.290
 3051POPC   C3A39737  18.497  37.686   7.914
 3051POPC   C4A39738  18.301  38.040   7.706
 3051POPC   C1B39739  18.203  37.319   8.875
 3051POPC   C2B39740  18.098  37.293   8.465
 3051POPC   C3B39741  18.003  37.565   8.123
 3051POPC   C4B39742  18.049  37.511   7.700
 3052POPC   NC339743  37.865  37.489   9.459
 3052POPC   PO439744  37.246  37.945   9.439
 3052POPC   GL139745  37.581  37.818   9.187
 3052POPC   GL239746  37.449  37.526   9.144
 3052POPC   C1A39747  37.740  37.659   8.768
 3052POPC   D2A39748  37.861  37.854   8.414
 3052POPC   C3A39749  37.650  37.838   8.048
 3052POPC   C4A39750  37.855  37.794   7.680
 3052POPC   C1B39751  37.237  37.504   8.815
 3052POPC   C2B39752  37.320  37.572   8.447
 3052POPC   C3B39753  37.195  37.584   8.076
 3052POPC   C4B39754  37.374  37.555   7.719
 3053POPC   NC339755  32.143  15.570   9.767
 3053POPC   PO439756  32.717  15.978   9.612
 3053POPC   GL139757  32.540  15.855   9.180
 3053POPC   GL239758  32.212  15.670   9.189
 3053POPC   C1A39759  32.286  16.029   8.815
 3053POPC   D2A39760  32.125  16.229   8.434
 3053POPC   C3A39761  32.181  16.029   8.054
 3053POPC   C4A39762  32.489  16.201   7.827
 3053POPC   C1B39763  32.012  15.602   8.767
 3053POPC   C2B39764  31.875  15.745   8.366
 3053POPC   C3B39765  31.894  15.607   7.944
 3053POPC   C4B39766  32.104  15.643   7.533
 3054POPC   NC339767   6.296  19.137   9.421
 3054POPC   PO439768   5.616  19.254   9.449
 3054POPC   GL139769   5.812  19.040   9.158
 3054POPC   GL239770   6.014  18.746   9.269
 3054POPC   C1A39771   5.808  19.229   8.768
 3054POPC   D2A39772   5.510  19.232   8.431
 3054POPC   C3A39773   5.668  19.243   8.079
 3054POPC   C4A39774   5.669  19.165   7.697
 3054POPC   C1B39775   6.051  18.769   8.809
 3054POPC   C2B39776   5.858  18.856   8.420
 3054POPC   C3B39777   5.934  18.787   8.003
 3054POPC   C4B39778   5.793  18.563   7.648
 3055POPC   NC339779  19.335  44.962   9.351
 3055POPC   PO439780  18.941   0.573   9.459
 3055POPC   GL139781  18.948   0.281   9.162
 3055POPC   GL239782  18.666   0.427   8.981
 3055POPC   C1A39783  19.089   0.223   8.729
 3055POPC   D2A39784  19.300   0.005   8.363
 3055POPC   C3A39785  19.154   0.172   7.959
 3055POPC   C4A39786  19.268   0.606   7.891
 3055POPC   C1B39787  18.917   0.757   8.742
 3055POPC   C2B39788  19.073   0.886   8.303
 3055POPC   C3B39789  18.864   0.889   7.924
 3055POPC   C4B39790  18.709   0.504   7.781
 3056POPC   NC339791  33.228   6.730   9.501
 3056POPC   PO439792  32.844   6.187   9.506
 3056POPC   GL139793  32.983   6.437   9.107
 3056POPC   GL239794  33.132   6.815   9.015
 3056POPC   C1A39795  32.967   6.512   8.671
 3056POPC   D2A39796  33.173   6.782   8.436
 3056POPC   C3A39797  33.064   6.480   8.152
 3056POPC   C4A39798  33.124   6.423   7.745
 3056POPC   C1B39799  32.827   7.016   8.736
 3056POPC   C2B39800  32.641   6.869   8.372
 3056POPC   C3B39801  32.682   6.714   7.923
 3056POPC   C4B39802  32.621   6.804   7.485
 3057POPC   NC339803  28.734  41.024   9.504
 3057POPC   PO439804  29.340  40.818   9.461
 3057POPC   GL139805  29.055  40.823   9.085
 3057POPC   GL239806  28.756  40.586   9.157
 3057POPC   C1A39807  29.076  40.923   8.612
 3057POPC   D2A39808  29.336  40.888   8.213
 3057POPC   C3A39809  29.081  41.079   7.864
 3057POPC   C4A39810  28.912  41.208   7.418
 3057POPC   C1B39811  28.912  40.457   8.744
 3057POPC   C2B39812  28.912  40.552   8.303
 3057POPC   C3B39813  29.117  40.543   7.900
 3057POPC   C4B39814  29.026  40.729   7.511
 3058POPC   NC339815  19.604   4.408   9.611
 3058POPC   PO439816  20.166   4.175   9.479
 3058POPC   GL139817  19.893   4.230   9.153
 3058POPC   GL239818  19.615   4.507   9.123
 3058POPC   C1A39819  19.958   4.439   8.766
 3058POPC   D2A39820  19.671   4.514   8.449
 3058POPC   C3A39821  19.795   4.381   8.032
 3058POPC   C4A39822  19.587   4.341   7.647
 3058POPC   C1B39823  19.497   4.184   8.838
 3058POPC   C2B39824  19.539   4.006   8.443
 3058POPC   C3B39825  19.388   4.037   8.070
 3058POPC   C4B39826  19.289   3.909   7.711
 3059POPC   NC339827  34.172  18.194   9.468
 3059POPC   PO439828  34.793  18.247   9.528
 3059POPC   GL139829  34.579  18.197   9.158
 3059POPC   GL239830  34.426  18.536   9.164
 3059POPC   C1A39831  34.478  17.983   8.779
 3059POPC   D2A39832  34.448  18.193   8.394
 3059POPC   C3A39833  34.534  18.027   8.015
 3059POPC   C4A39834  34.664  17.841   7.631
 3059POPC   C1B39835  34.626  18.520   8.764
 3059POPC   C2B39836  34.516  18.701   8.376
 3059POPC   C3B39837  34.587  18.658   7.971
 3059POPC   C4B39838  34.626  18.380   7.628
 3060POPC   NC339839  36.374  17.744   9.394
 3060POPC   PO439840  35.975  17.180   9.412
 3060POPC   GL139841  36.060  17.483   9.093
 3060POPC   GL239842  36.427  17.496   8.961
 3060POPC   C1A39843  35.964  17.531   8.691
 3060POPC   D2A39844  36.181  17.538   8.333
 3060POPC   C3A39845  35.904  17.553   8.043
 3060POPC   C4A39846  35.903  17.192   7.875
 3060POPC   C1B39847  36.391  17.849   8.683
 3060POPC   C2B39848  36.508  17.920   8.219
 3060POPC   C3B39849  36.381  17.620   7.853
 3060POPC   C4B39850  36.362  17.762   7.377
 3061POPC   NC339851   5.192   9.961   9.556
 3061POPC   PO439852   4.746   9.486   9.445
 3061POPC   GL139853   4.985   9.763   9.093
 3061POPC   GL239854   5.254  10.035   9.068
 3061POPC   C1A39855   5.143   9.802   8.639
 3061POPC   D2A39856   4.932   9.961   8.311
 3061POPC   C3A39857   4.877   9.763   7.953
 3061POPC   C4A39858   4.813   9.983   7.565
 3061POPC   C1B39859   5.458   9.593   8.985
 3061POPC   C2B39860   5.532   9.425   8.566
 3061POPC   C3B39861   5.290   9.527   8.188
 3061POPC   C4B39862   5.287   9.560   7.733
 3062POPC   NC339863  44.443  37.437   9.830
 3062POPC   PO439864  44.640  37.981   9.635
 3062POPC   GL139865  44.394  37.763   9.293
 3062POPC   GL239866  44.503  37.417   9.214
 3062POPC   C1A39867  44.403  37.777   8.827
 3062POPC   D2A39868  44.674  37.736   8.428
 3062POPC   C3A39869  44.523  37.853   7.996
 3062POPC   C4A39870  44.729  37.908   7.579
 3062POPC   C1B39871  44.772  37.373   8.839
 3062POPC   C2B39872  44.844  37.229   8.432
 3062POPC   C3B39873  44.664  37.358   8.062
 3062POPC   C4B39874  44.526  37.458   7.633
 3063POPC   NC339875  42.685  44.647   9.469
 3063POPC   PO439876  42.000  44.812   9.433
 3063POPC   GL139877  42.324  44.822   9.136
 3063POPC   GL239878  42.360  44.473   9.059
 3063POPC   C1A39879  42.233  44.847   8.705
 3063POPC   D2A39880  42.093  44.554   8.437
 3063POPC   C3A39881  42.380  44.570   8.113
 3063POPC   C4A39882  42.271  44.715   7.715
 3063POPC   C1B39883  42.529  44.391   8.623
 3063POPC   C2B39884  42.671  44.175   8.270
 3063POPC   C3B39885  42.541  44.147   7.841
 3063POPC   C4B39886  42.499  44.346   7.430
 3064POPC   NC339887   4.573   7.891   9.528
 3064POPC   PO439888   3.935   8.192   9.476
 3064POPC   GL139889   4.130   8.246   9.093
 3064POPC   GL239890   4.464   8.313   9.227
 3064POPC   C1A39891   4.298   8.542   8.783
 3064POPC   D2A39892   4.210   8.707   8.408
 3064POPC   C3A39893   4.232   8.481   8.056
 3064POPC   C4A39894   4.368   8.281   7.684
 3064POPC   C1B39895   4.565   8.123   8.818
 3064POPC   C2B39896   4.587   8.274   8.382
 3064POPC   C3B39897   4.638   8.010   8.009
 3064POPC   C4B39898   4.781   7.729   7.683
 3065POPC   NC339899  24.279  42.921   9.686
 3065POPC   PO439900  24.561  43.466   9.479
 3065POPC   GL139901  24.352  43.290   9.104
 3065POPC   GL239902  24.279  42.939   9.139
 3065POPC   C1A39903  24.517  43.259   8.662
 3065POPC   D2A39904  24.695  42.927   8.425
 3065POPC   C3A39905  24.553  42.898   8.010
 3065POPC   C4A39906  24.461  43.235   7.717
 3065POPC   C1B39907  24.054  43.049   8.717
 3065POPC   C2B39908  24.010  42.895   8.298
 3065POPC   C3B39909  24.045  42.968   7.852
 3065POPC   C4B39910  24.107  43.102   7.366
 3066POPC   NC339911  40.482  28.585   9.466
 3066POPC   PO439912  41.033  28.197   9.390
 3066POPC   GL139913  40.795  28.405   9.109
 3066POPC   GL239914  40.447  28.243   9.053
 3066POPC   C1A39915  40.924  28.597   8.739
 3066POPC   D2A39916  40.802  28.790   8.365
 3066POPC   C3A39917  40.910  28.550   8.042
 3066POPC   C4A39918  40.653  28.723   7.776
 3066POPC   C1B39919  40.710  28.085   8.717
 3066POPC   C2B39920  40.756  28.156   8.292
 3066POPC   C3B39921  40.655  27.985   7.880
 3066POPC   C4B39922  40.600  28.035   7.359
 3067POPC   NC339923  36.319  25.881   9.925
 3067POPC   PO439924  36.077  26.414   9.616
 3067POPC   GL139925  35.900  26.216   9.255
 3067POPC   GL239926  36.066  25.942   9.265
 3067POPC   C1A39927  35.880  26.358   8.823
 3067POPC   D2A39928  35.935  26.144   8.429
 3067POPC   C3A39929  36.114  26.329   8.083
 3067POPC   C4A39930  36.390  26.069   7.875
 3067POPC   C1B39931  36.107  25.872   8.822
 3067POPC   C2B39932  36.200  25.641   8.453
 3067POPC   C3B39933  36.363  25.595   8.070
 3067POPC   C4B39934  36.193  25.628   7.674
 3068POPC   NC339935  38.386  16.083   9.575
 3068POPC   PO439936  38.789  15.569   9.475
 3068POPC   GL139937  38.490  15.700   9.165
 3068POPC   GL239938  38.469  16.067   9.086
 3068POPC   C1A39939  38.329  15.712   8.734
 3068POPC   D2A39940  38.561  15.843   8.345
 3068POPC   C3A39941  38.414  15.730   7.932
 3068POPC   C4A39942  38.043  15.762   7.746
 3068POPC   C1B39943  38.297  16.243   8.728
 3068POPC   C2B39944  38.116  16.107   8.338
 3068POPC   C3B39945  38.410  16.227   8.024
 3068POPC   C4B39946  38.531  16.420   7.659
 3069POPC   NC339947  13.854   6.834   9.512
 3069POPC   PO439948  13.915   7.484   9.620
 3069POPC   GL139949  13.705   7.301   9.270
 3069POPC   GL239950  13.895   7.093   9.081
 3069POPC   C1A39951  13.610   7.451   8.839
 3069POPC   D2A39952  13.346   7.275   8.481
 3069POPC   C3A39953  13.454   7.406   8.064
 3069POPC   C4A39954  13.336   7.495   7.619
 3069POPC   C1B39955  14.076   7.254   8.749
 3069POPC   C2B39956  13.849   7.324   8.407
 3069POPC   C3B39957  13.969   7.308   8.040
 3069POPC   C4B39958  14.181   7.299   7.746
 3070POPC   NC339959  33.087  19.443   9.421
 3070POPC   PO439960  32.892  20.079   9.425
 3070POPC   GL139961  32.958  19.843   9.088
 3070POPC   GL239962  33.277  19.795   9.024
 3070POPC   C1A39963  32.809  19.727   8.705
 3070POPC   D2A39964  32.631  19.488   8.426
 3070POPC   C3A39965  32.855  19.572   8.047
 3070POPC   C4A39966  33.071  19.846   7.755
 3070POPC   C1B39967  33.295  19.905   8.578
 3070POPC   C2B39968  33.349  19.626   8.187
 3070POPC   C3B39969  33.302  19.394   7.770
 3070POPC   C4B39970  33.307  19.580   7.330
 3071POPC   NC339971  42.140   6.512   9.550
 3071POPC   PO439972  42.470   7.101   9.419
 3071POPC   GL139973  42.498   6.736   9.107
 3071POPC   GL239974  42.279   6.418   9.079
 3071POPC   C1A39975  42.422   6.649   8.658
 3071POPC   D2A39976  42.121   6.551   8.326
 3071POPC   C3A39977  42.345   6.651   7.973
 3071POPC   C4A39978  42.520   6.932   7.695
 3071POPC   C1B39979  42.119   6.200   8.690
 3071POPC   C2B39980  42.104   6.054   8.254
 3071POPC   C3B39981  42.098   6.223   7.799
 3071POPC   C4B39982  42.205   6.115   7.331
 3072POPC   NC339983  28.946  22.250   9.589
 3072POPC   PO439984  28.588  22.690   9.290
 3072POPC   GL139985  28.981  22.476   9.121
 3072POPC   GL239986  29.154  22.124   9.147
 3072POPC   C1A39987  29.087  22.393   8.712
 3072POPC   D2A39988  28.884  22.322   8.331
 3072POPC   C3A39989  29.258  22.313   8.147
 3072POPC   C4A39990  29.406  22.674   7.888
 3072POPC   C1B39991  29.266  21.882   8.785
 3072POPC   C2B39992  29.271  21.725   8.367
 3072POPC   C3B39993  29.433  21.785   7.953
 3072POPC   C4B39994  29.359  22.162   7.683
 3073POPC   NC339995  33.307  27.491   9.582
 3073POPC   PO439996  33.195  28.109   9.352
 3073POPC   GL139997  32.926  27.805   9.172
 3073POPC   GL239998  33.037  27.498   9.168
 3073POPC   C1A39999  32.749  27.725   8.770
 3073POPC   D2A40000  32.960  27.687   8.358
 3073POPC   C3A40001  32.784  27.813   7.962
 3073POPC   C4A40002  32.945  27.583   7.633
 3073POPC   C1B40003  33.137  27.388   8.769
 3073POPC   C2B40004  33.243  27.191   8.389
 3073POPC   C3B40005  33.263  27.394   8.007
 3073POPC   C4B40006  33.279  27.174   7.668
 3074POPC   NC340007  42.831   2.495   9.818
 3074POPC   PO440008  42.291   2.821   9.527
 3074POPC   GL140009  42.241   2.836   9.125
 3074POPC   GL240010  41.932   2.965   9.086
 3074POPC   C1A40011  42.500   2.994   8.768
 3074POPC   D2A40012  42.735   3.005   8.394
 3074POPC   C3A40013  42.483   2.940   8.033
 3074POPC   C4A40014  42.443   2.776   7.596
 3074POPC   C1B40015  42.024   2.840   8.672
 3074POPC   C2B40016  42.007   2.929   8.231
 3074POPC   C3B40017  41.882   2.852   7.800
 3074POPC   C4B40018  41.981   2.642   7.420
 3075POPC   NC340019  27.141  32.753   9.324
 3075POPC   PO440020  27.678  33.076   9.615
 3075POPC   GL140021  27.661  33.197   9.198
 3075POPC   GL240022  27.381  33.118   9.010
 3075POPC   C1A40023  27.842  33.171   8.790
 3075POPC   D2A40024  27.606  33.129   8.412
 3075POPC   C3A40025  27.697  33.333   8.015
 3075POPC   C4A40026  27.361  33.272   7.691
 3075POPC   C1B40027  27.421  32.760   8.745
 3075POPC   C2B40028  27.263  32.553   8.392
 3075POPC   C3B40029  27.362  32.833   8.059
 3075POPC   C4B40030  27.723  32.863   7.808
 3076POPC   NC340031  11.869   9.473   9.338
 3076POPC   PO440032  12.390   9.895   9.449
 3076POPC   GL140033  12.233   9.732   9.081
 3076POPC   GL240034  11.949   9.933   9.099
 3076POPC   C1A40035  12.166   9.448   8.720
 3076POPC   D2A40036  12.222   9.638   8.325
 3076POPC   C3A40037  12.057   9.513   7.929
 3076POPC   C4A40038  11.947   9.881   7.727
 3076POPC   C1B40039  11.789  10.107   8.717
 3076POPC   C2B40040  11.860  10.064   8.263
 3076POPC   C3B40041  11.701  10.284   7.887
 3076POPC   C4B40042  11.545  10.135   7.437
 3077POPC   NC340043  26.311  19.438   9.653
 3077POPC   PO440044  26.793  18.929   9.537
 3077POPC   GL140045  26.813  19.064   9.136
 3077POPC   GL240046  26.475  19.159   9.181
 3077POPC   C1A40047  26.948  19.024   8.728
 3077POPC   D2A40048  26.792  19.035   8.336
 3077POPC   C3A40049  27.008  18.994   7.937
 3077POPC   C4A40050  27.045  18.870   7.504
 3077POPC   C1B40051  26.456  18.848   8.816
 3077POPC   C2B40052  26.415  18.661   8.383
 3077POPC   C3B40053  26.467  18.890   7.976
 3077POPC   C4B40054  26.489  18.966   7.539
 3078POPC   NC340055  24.489   3.365   9.702
 3078POPC   PO440056  24.328   3.847   9.293
 3078POPC   GL140057  24.413   3.425   9.159
 3078POPC   GL240058  24.728   3.317   9.227
 3078POPC   C1A40059  24.581   3.486   8.754
 3078POPC   D2A40060  24.806   3.805   8.543
 3078POPC   C3A40061  24.865   3.718   8.094
 3078POPC   C4A40062  24.478   3.598   7.837
 3078POPC   C1B40063  24.934   3.121   8.876
 3078POPC   C2B40064  24.962   3.315   8.444
 3078POPC   C3B40065  24.764   3.222   8.031
 3078POPC   C4B40066  24.779   2.984   7.622
 3079POPC   NC340067   6.590  16.627   9.695
 3079POPC   PO440068   6.252  17.123   9.732
 3079POPC   GL140069   6.447  16.998   9.335
 3079POPC   GL240070   6.190  17.065   9.112
 3079POPC   C1A40071   6.718  17.004   8.925
 3079POPC   D2A40072   6.786  16.709   8.564
 3079POPC   C3A40073   6.811  16.824   8.132
 3079POPC   C4A40074   6.857  17.115   7.802
 3079POPC   C1B40075   6.271  16.785   8.750
 3079POPC   C2B40076   6.326  16.638   8.310
 3079POPC   C3B40077   6.462  16.522   7.890
 3079POPC   C4B40078   6.402  16.336   7.455
 3080POPC   NC340079  20.100  12.343   9.443
 3080POPC   PO440080  19.833  12.982   9.443
 3080POPC   GL140081  19.901  12.857   9.042
 3080POPC   GL240082  19.821  12.506   9.025
 3080POPC   C1A40083  19.911  13.131   8.684
 3080POPC   D2A40084  19.655  13.327   8.376
 3080POPC   C3A40085  19.787  13.115   8.010
 3080POPC   C4A40086  20.191  13.155   7.771
 3080POPC   C1B40087  19.634  12.360   8.645
 3080POPC   C2B40088  19.732  12.628   8.267
 3080POPC   C3B40089  20.031  12.684   7.890
 3080POPC   C4B40090  20.204  12.791   7.421
 3081POPC   NC340091  32.578  13.997   9.457
 3081POPC   PO440092  32.101  13.483   9.511
 3081POPC   GL140093  32.244  13.588   9.124
 3081POPC   GL240094  32.261  13.923   9.075
 3081POPC   C1A40095  32.413  13.571   8.697
 3081POPC   D2A40096  32.376  13.749   8.281
 3081POPC   C3A40097  32.530  13.564   7.888
 3081POPC   C4A40098  32.530  13.519   7.439
 3081POPC   C1B40099  32.075  13.969   8.705
 3081POPC   C2B40100  31.887  13.879   8.304
 3081POPC   C3B40101  32.066  13.822   7.874
 3081POPC   C4B40102  32.323  13.964   7.576
 3082POPC   NC340103  44.081   3.784   9.521
 3082POPC   PO440104  43.469   4.246   9.507
 3082POPC   GL140105  43.878   4.221   9.278
 3082POPC   GL240106  43.957   3.921   9.062
 3082POPC   C1A40107  43.914   4.428   8.877
 3082POPC   D2A40108  43.625   4.574   8.535
 3082POPC   C3A40109  43.845   4.515   8.155
 3082POPC   C4A40110  43.744   4.548   7.749
 3082POPC   C1B40111  43.947   3.954   8.631
 3082POPC   C2B40112  43.677   4.055   8.321
 3082POPC   C3B40113  43.809   4.057   7.880
 3082POPC   C4B40114  44.266   4.001   7.757
 3083POPC   NC340115  20.214   8.904   9.512
 3083POPC   PO440116  20.874   9.004   9.534
 3083POPC   GL140117  20.652   8.962   9.152
 3083POPC   GL240118  20.345   9.203   9.134
 3083POPC   C1A40119  20.794   8.856   8.746
 3083POPC   D2A40120  20.857   9.049   8.371
 3083POPC   C3A40121  20.713   8.836   8.033
 3083POPC   C4A40122  20.614   8.931   7.635
 3083POPC   C1B40123  20.265   8.883   8.782
 3083POPC   C2B40124  20.147   8.698   8.342
 3083POPC   C3B40125  20.165   8.907   7.913
 3083POPC   C4B40126  20.166   8.779   7.448
 3084POPC   NC340127  44.628  14.960   9.466
 3084POPC   PO440128  44.276  15.567   9.394
 3084POPC   GL140129  44.386  15.292   9.094
 3084POPC   GL240130  44.726  15.321   9.113
 3084POPC   C1A40131  44.460  15.112   8.697
 3084POPC   D2A40132  44.300  15.043   8.285
 3084POPC   C3A40133  44.581  14.856   8.019
 3084POPC   C4A40134  44.794  14.901   7.672
 3084POPC   C1B40135  44.901  15.400   8.712
 3084POPC   C2B40136  44.875  15.116   8.374
 3084POPC   C3B40137   0.050  15.170   8.007
 3084POPC   C4B40138  44.886  15.415   7.698
 3085POPC   NC340139   8.959  13.209   9.477
 3085POPC   PO440140   8.595  12.602   9.449
 3085POPC   GL140141   8.866  12.829   9.147
 3085POPC   GL240142   9.095  12.636   9.032
 3085POPC   C1A40143   9.047  13.137   8.844
 3085POPC   D2A40144   8.996  13.303   8.435
 3085POPC   C3A40145   8.843  13.070   8.099
 3085POPC   C4A40146   8.700  13.257   7.727
 3085POPC   C1B40147   9.053  12.700   8.590
 3085POPC   C2B40148   9.271  12.778   8.209
 3085POPC   C3B40149   8.994  12.620   7.883
 3085POPC   C4B40150   8.880  12.785   7.470
 3086POPC   NC340151  41.862  40.597   9.497
 3086POPC   PO440152  41.640  39.955   9.611
 3086POPC   GL140153  41.631  39.846   9.200
 3086POPC   GL240154  41.921  40.048   9.070
 3086POPC   C1A40155  41.496  39.861   8.789
 3086POPC   D2A40156  41.533  39.828   8.349
 3086POPC   C3A40157  41.356  40.208   8.139
 3086POPC   C4A40158  41.216  40.207   7.737
 3086POPC   C1B40159  41.998  40.283   8.653
 3086POPC   C2B40160  41.860  40.208   8.207
 3086POPC   C3B40161  41.688  39.941   7.855
 3086POPC   C4B40162  41.769  40.026   7.396
 3087POPC   NC340163  17.821  29.174   9.510
 3087POPC   PO440164  18.463  29.098   9.501
 3087POPC   GL140165  18.281  28.988   9.107
 3087POPC   GL240166  18.547  28.768   9.034
 3087POPC   C1A40167  18.007  29.014   8.768
 3087POPC   D2A40168  18.012  29.258   8.384
 3087POPC   C3A40169  18.118  29.006   8.016
 3087POPC   C4A40170  17.893  29.034   7.612
 3087POPC   C1B40171  18.542  28.942   8.623
 3087POPC   C2B40172  18.619  28.863   8.176
 3087POPC   C3B40173  18.566  29.148   7.800
 3087POPC   C4B40174  18.542  29.437   7.428
 3088POPC   NC340175  37.895  29.693   9.465
 3088POPC   PO440176  37.456  30.109   9.433
 3088POPC   GL140177  37.711  29.979   9.087
 3088POPC   GL240178  37.557  29.662   9.069
 3088POPC   C1A40179  37.800  29.831   8.649
 3088POPC   D2A40180  37.563  29.716   8.267
 3088POPC   C3A40181  37.741  29.724   7.852
 3088POPC   C4A40182  37.873  30.071   7.597
 3088POPC   C1B40183  37.316  29.581   8.708
 3088POPC   C2B40184  37.104  29.513   8.313
 3088POPC   C3B40185  37.242  29.454   7.880
 3088POPC   C4B40186  37.356  29.622   7.487
 3089POPC   NC340187   2.523  21.830   9.818
 3089POPC   PO440188   2.805  21.249   9.534
 3089POPC   GL140189   2.717  21.281   9.072
 3089POPC   GL240190   2.528  21.591   8.941
 3089POPC   C1A40191   2.929  21.394   8.681
 3089POPC   D2A40192   2.825  21.271   8.269
 3089POPC   C3A40193   2.863  21.477   7.856
 3089POPC   C4A40194   3.240  21.562   7.611
 3089POPC   C1B40195   2.391  21.406   8.619
 3089POPC   C2B40196   2.356  21.433   8.226
 3089POPC   C3B40197   2.425  21.176   7.934
 3089POPC   C4B40198   2.472  21.173   7.499
 3090POPC   NC340199  25.779   7.700   9.134
 3090POPC   PO440200  26.256   7.431   9.545
 3090POPC   GL140201  26.257   7.415   9.129
 3090POPC   GL240202  25.955   7.261   8.965
 3090POPC   C1A40203  26.306   7.581   8.743
 3090POPC   D2A40204  26.058   7.485   8.394
 3090POPC   C3A40205  26.253   7.616   8.017
 3090POPC   C4A40206  26.225   7.311   7.707
 3090POPC   C1B40207  25.569   7.287   8.670
 3090POPC   C2B40208  25.597   7.141   8.259
 3090POPC   C3B40209  25.770   7.400   7.951
 3090POPC   C4B40210  25.554   7.457   7.621
 3091POPC   NC340211  33.404  22.761   9.572
 3091POPC   PO440212  32.900  23.011   9.277
 3091POPC   GL140213  33.118  22.635   9.074
 3091POPC   GL240214  33.484  22.728   9.072
 3091POPC   C1A40215  32.984  22.484   8.626
 3091POPC   D2A40216  32.886  22.468   8.162
 3091POPC   C3A40217  32.858  22.811   7.866
 3091POPC   C4A40218  32.585  22.837   7.491
 3091POPC   C1B40219  33.307  22.890   8.676
 3091POPC   C2B40220  33.249  22.893   8.226
 3091POPC   C3B40221  33.479  23.053   7.887
 3091POPC   C4B40222  33.340  23.352   7.591
 3092POPC   NC340223  25.949   7.780   9.662
 3092POPC   PO440224  26.423   8.188   9.556
 3092POPC   GL140225  26.328   7.966   9.172
 3092POPC   GL240226  26.053   8.124   8.973
 3092POPC   C1A40227  26.474   8.057   8.732
 3092POPC   D2A40228  26.182   7.991   8.412
 3092POPC   C3A40229  26.107   8.175   8.020
 3092POPC   C4A40230  26.000   7.897   7.680
 3092POPC   C1B40231  25.995   8.434   8.630
 3092POPC   C2B40232  25.746   8.648   8.312
 3092POPC   C3B40233  25.701   8.478   7.890
 3092POPC   C4B40234  25.928   8.378   7.517
 3093POPC   NC340235  41.752  27.916   9.605
 3093POPC   PO440236  42.191  27.362   9.550
 3093POPC   GL140237  42.143  27.431   9.121
 3093POPC   GL240238  42.397  27.599   8.987
 3093POPC   C1A40239  41.979  27.584   8.726
 3093POPC   D2A40240  42.178  27.575   8.338
 3093POPC   C3A40241  41.931  27.530   7.979
 3093POPC   C4A40242  42.274  27.428   7.705
 3093POPC   C1B40243  42.698  27.680   8.694
 3093POPC   C2B40244  42.665  27.828   8.275
 3093POPC   C3B40245  42.703  27.657   7.877
 3093POPC   C4B40246  42.678  27.807   7.480
 3094POPC   NC340247  37.275  31.507   9.386
 3094POPC   PO440248  36.729  31.357   9.666
 3094POPC   GL140249  36.881  31.267   9.180
 3094POPC   GL240250  37.265  31.183   9.031
 3094POPC   C1A40251  36.965  31.511   8.801
 3094POPC   D2A40252  37.157  31.651   8.450
 3094POPC   C3A40253  36.923  31.671   8.091
 3094POPC   C4A40254  37.051  31.590   7.679
 3094POPC   C1B40255  37.174  31.055   8.674
 3094POPC   C2B40256  36.974  31.184   8.337
 3094POPC   C3B40257  37.107  31.173   7.970
 3094POPC   C4B40258  37.033  31.062   7.595
 3095POPC   NC340259   9.912  17.874   9.485
 3095POPC   PO440260   9.693  17.155   9.492
 3095POPC   GL140261   9.453  17.251   9.140
 3095POPC   GL240262   9.585  17.585   9.158
 3095POPC   C1A40263   9.370  17.425   8.723
 3095POPC   D2A40264   9.391  17.842   8.457
 3095POPC   C3A40265   9.427  17.782   8.016
 3095POPC   C4A40266   9.391  17.421   7.779
 3095POPC   C1B40267   9.875  17.424   8.821
 3095POPC   C2B40268   9.755  17.482   8.377
 3095POPC   C3B40269   9.928  17.554   7.983
 3095POPC   C4B40270  10.127  17.464   7.584
 3096POPC   NC340271   8.220  28.443   9.864
 3096POPC   PO440272   7.886  28.402   9.280
 3096POPC   GL140273   8.288  28.401   9.083
 3096POPC   GL240274   8.508  28.093   9.161
 3096POPC   C1A40275   8.285  28.645   8.701
 3096POPC   D2A40276   8.396  28.589   8.271
 3096POPC   C3A40277   8.183  28.764   7.918
 3096POPC   C4A40278   8.510  28.738   7.627
 3096POPC   C1B40279   8.299  28.008   8.732
 3096POPC   C2B40280   8.146  28.130   8.293
 3096POPC   C3B40281   8.285  28.218   7.847
 3096POPC   C4B40282   8.201  27.996   7.413
 3097POPC   NC340283  37.257  30.516   9.456
 3097POPC   PO440284  37.703  31.061   9.610
 3097POPC   GL140285  37.604  30.856   9.202
 3097POPC   GL240286  37.597  30.502   9.093
 3097POPC   C1A40287  37.672  30.929   8.767
 3097POPC   D2A40288  37.763  30.747   8.361
 3097POPC   C3A40289  37.733  30.978   7.986
 3097POPC   C4A40290  37.460  30.832   7.710
 3097POPC   C1B40291  37.778  30.359   8.730
 3097POPC   C2B40292  37.667  30.233   8.322
 3097POPC   C3B40293  37.681  30.436   7.927
 3097POPC   C4B40294  37.985  30.649   7.646
 3098POPC   NC340295   1.160   1.120   9.401
 3098POPC   PO440296   1.734   1.439   9.424
 3098POPC   GL140297   1.438   1.390   9.068
 3098POPC   GL240298   1.112   1.191   8.898
 3098POPC   C1A40299   1.588   1.293   8.698
 3098POPC   D2A40300   1.434   1.129   8.357
 3098POPC   C3A40301   1.516   1.459   8.092
 3098POPC   C4A40302   1.556   1.343   7.699
 3098POPC   C1B40303   0.978   0.845   8.576
 3098POPC   C2B40304   1.013   0.827   8.152
 3098POPC   C3B40305   1.105   1.199   7.940
 3098POPC   C4B40306   0.867   1.391   7.642
 3099POPC   NC340307  35.963  27.419   9.405
 3099POPC   PO440308  36.554  27.830   9.384
 3099POPC   GL140309  36.213  27.710   9.074
 3099POPC   GL240310  36.122  27.331   8.950
 3099POPC   C1A40311  35.945  27.745   8.717
 3099POPC   D2A40312  35.984  27.732   8.265
 3099POPC   C3A40313  35.845  28.017   7.966
 3099POPC   C4A40314  36.027  27.930   7.570
 3099POPC   C1B40315  36.123  27.288   8.532
 3099POPC   C2B40316  35.941  27.240   8.156
 3099POPC   C3B40317  36.127  27.428   7.796
 3099POPC   C4B40318  36.573  27.540   7.735
 3100POPC   NC340319  18.818  36.692   9.475
 3100POPC   PO440320  19.502  36.870   9.524
 3100POPC   GL140321  19.162  37.025   9.304
 3100POPC   GL240322  19.143  36.706   9.099
 3100POPC   C1A40323  18.979  37.189   8.941
 3100POPC   D2A40324  18.764  36.968   8.609
 3100POPC   C3A40325  18.929  37.010   8.200
 3100POPC   C4A40326  19.005  37.045   7.778
 3100POPC   C1B40327  18.955  36.483   8.755
 3100POPC   C2B40328  18.779  36.498   8.340
 3100POPC   C3B40329  18.779  36.612   7.902
 3100POPC   C4B40330  18.648  36.788   7.479
 3101POPC   NC340331  32.689  10.841   9.399
 3101POPC   PO440332  32.656  11.519   9.459
 3101POPC   GL140333  32.874  11.442   9.094
 3101POPC   GL240334  33.025  11.112   9.120
 3101POPC   C1A40335  33.181  11.577   8.798
 3101POPC   D2A40336  33.176  11.726   8.380
 3101POPC   C3A40337  33.137  11.342   8.099
 3101POPC   C4A40338  32.973  11.384   7.680
 3101POPC   C1B40339  32.786  10.952   8.751
 3101POPC   C2B40340  32.673  11.038   8.299
 3101POPC   C3B40341  32.828  10.948   7.887
 3101POPC   C4B40342  32.840  10.960   7.402
 3102POPC   NC340343  30.082  27.122   9.587
 3102POPC   PO440344  29.542  26.650   9.666
 3102POPC   GL140345  29.691  26.935   9.278
 3102POPC   GL240346  29.401  27.071   9.193
 3102POPC   C1A40347  29.863  27.096   8.810
 3102POPC   D2A40348  29.955  27.249   8.325
 3102POPC   C3A40349  30.003  26.939   7.947
 3102POPC   C4A40350  30.112  26.862   7.475
 3102POPC   C1B40351  29.428  26.849   8.822
 3102POPC   C2B40352  29.495  27.034   8.412
 3102POPC   C3B40353  29.543  27.181   7.996
 3102POPC   C4B40354  29.628  26.969   7.608
 3103POPC   NC340355   8.279  32.893  10.237
 3103POPC   PO440356   7.902  32.793   9.794
 3103POPC   GL140357   7.918  32.806   9.279
 3103POPC   GL240358   8.026  33.145   9.088
 3103POPC   C1A40359   7.949  32.755   8.791
 3103POPC   D2A40360   7.929  32.916   8.356
 3103POPC   C3A40361   8.058  32.728   7.988
 3103POPC   C4A40362   8.121  32.885   7.564
 3103POPC   C1B40363   8.202  33.239   8.617
 3103POPC   C2B40364   8.370  33.106   8.177
 3103POPC   C3B40365   8.352  33.304   7.748
 3103POPC   C4B40366   8.609  33.563   7.461
 3104POPC   NC340367   8.639  31.740   9.521
 3104POPC   PO440368   8.157  31.191   9.489
 3104POPC   GL140369   8.200  31.323   9.089
 3104POPC   GL240370   8.487  31.455   9.111
 3104POPC   C1A40371   8.116  31.457   8.660
 3104POPC   D2A40372   7.895  31.538   8.267
 3104POPC   C3A40373   7.950  31.338   7.831
 3104POPC   C4A40374   8.189  31.277   7.395
 3104POPC   C1B40375   8.618  31.258   8.757
 3104POPC   C2B40376   8.561  31.444   8.389
 3104POPC   C3B40377   8.378  31.670   8.135
 3104POPC   C4B40378   8.438  31.516   7.765
 3105POPC   NC340379   3.529  10.192   9.446
 3105POPC   PO440380   3.496   9.591   9.513
 3105POPC   GL140381   3.442   9.769   9.122
 3105POPC   GL240382   3.795   9.869   9.144
 3105POPC   C1A40383   3.357   9.573   8.709
 3105POPC   D2A40384   3.588   9.516   8.318
 3105POPC   C3A40385   3.510   9.641   7.889
 3105POPC   C4A40386   3.126   9.654   7.636
 3105POPC   C1B40387   3.689  10.156   8.811
 3105POPC   C2B40388   3.873  10.225   8.418
 3105POPC   C3B40389   3.666  10.194   8.028
 3105POPC   C4B40390   3.833  10.086   7.661
 3106POPC   NC340391   9.166  17.308   9.578
 3106POPC   PO440392   8.589  17.653   9.733
 3106POPC   GL140393   9.008  17.551   9.198
 3106POPC   GL240394   8.910  17.240   9.087
 3106POPC   C1A40395   9.012  17.774   8.793
 3106POPC   D2A40396   8.882  17.835   8.355
 3106POPC   C3A40397   8.940  17.657   7.941
 3106POPC   C4A40398   8.629  17.457   7.777
 3106POPC   C1B40399   8.866  17.292   8.642
 3106POPC   C2B40400   9.133  17.347   8.278
 3106POPC   C3B40401   9.027  17.097   7.921
 3106POPC   C4B40402   8.686  16.961   7.662
 3107POPC   NC340403  27.039  17.937   9.475
 3107POPC   PO440404  26.587  17.494   9.515
 3107POPC   GL140405  26.866  17.544   9.164
 3107POPC   GL240406  27.057  17.259   9.060
 3107POPC   C1A40407  26.830  17.515   8.714
 3107POPC   D2A40408  27.039  17.688   8.353
 3107POPC   C3A40409  26.794  17.652   7.983
 3107POPC   C4A40410  26.595  17.296   7.808
 3107POPC   C1B40411  27.272  17.278   8.675
 3107POPC   C2B40412  27.219  17.089   8.287
 3107POPC   C3B40413  27.123  17.285   7.907
 3107POPC   C4B40414  27.286  17.652   7.735
 3108POPC   NC340415  28.477  31.081   9.639
 3108POPC   PO440416  28.284  31.680   9.637
 3108POPC   GL140417  28.331  31.471   9.234
 3108POPC   GL240418  28.477  31.207   9.129
 3108POPC   C1A40419  28.212  31.468   8.776
 3108POPC   D2A40420  28.275  31.252   8.387
 3108POPC   C3A40421  28.113  31.518   8.069
 3108POPC   C4A40422  28.355  31.689   7.736
 3108POPC   C1B40423  28.103  30.968   8.890
 3108POPC   C2B40424  27.932  30.892   8.464
 3108POPC   C3B40425  27.994  30.966   8.013
 3108POPC   C4B40426  28.296  31.176   7.747
 3109POPC   NC340427  23.665  30.556   9.430
 3109POPC   PO440428  24.063  31.077   9.527
 3109POPC   GL140429  23.895  30.966   9.130
 3109POPC   GL240430  23.535  30.882   9.057
 3109POPC   C1A40431  23.893  30.791   8.727
 3109POPC   D2A40432  23.573  30.858   8.494
 3109POPC   C3A40433  23.714  31.018   8.108
 3109POPC   C4A40434  24.035  31.047   7.807
 3109POPC   C1B40435  23.388  30.464   8.860
 3109POPC   C2B40436  23.329  30.324   8.460
 3109POPC   C3B40437  23.521  30.515   8.139
 3109POPC   C4B40438  23.759  30.606   7.792
 3110POPC   NC340439  14.649   4.169   9.420
 3110POPC   PO440440  14.220   4.653   9.364
 3110POPC   GL140441  14.409   4.478   9.072
 3110POPC   GL240442  14.707   4.639   9.082
 3110POPC   C1A40443  14.511   4.167   8.775
 3110POPC   D2A40444  14.322   4.054   8.404
 3110POPC   C3A40445  14.468   3.991   8.003
 3110POPC   C4A40446  14.308   4.139   7.595
 3110POPC   C1B40447  14.706   4.611   8.659
 3110POPC   C2B40448  14.736   4.368   8.290
 3110POPC   C3B40449  14.633   4.452   7.868
 3110POPC   C4B40450  14.530   4.638   7.463
 3111POPC   NC340451   9.409   7.287   9.409
 3111POPC   PO440452   9.846   7.702   9.539
 3111POPC   GL140453   9.990   7.432   9.227
 3111POPC   GL240454   9.707   7.467   9.057
 3111POPC   C1A40455  10.094   7.377   8.776
 3111POPC   D2A40456  10.197   7.603   8.432
 3111POPC   C3A40457  10.080   7.451   8.045
 3111POPC   C4A40458  10.040   7.645   7.667
 3111POPC   C1B40459   9.591   7.129   8.786
 3111POPC   C2B40460   9.423   7.072   8.392
 3111POPC   C3B40461   9.338   7.380   8.086
 3111POPC   C4B40462   9.585   7.451   7.738
 3112POPC   NC340463   8.293  26.504   9.607
 3112POPC   PO440464   7.973  27.085   9.531
 3112POPC   GL140465   8.045  26.966   9.098
 3112POPC   GL240466   8.245  26.686   9.104
 3112POPC   C1A40467   8.100  27.111   8.664
 3112POPC   D2A40468   8.335  27.172   8.277
 3112POPC   C3A40469   8.192  26.936   7.928
 3112POPC   C4A40470   8.248  26.911   7.472
 3112POPC   C1B40471   7.969  26.585   8.755
 3112POPC   C2B40472   7.933  26.718   8.330
 3112POPC   C3B40473   8.095  26.441   8.032
 3112POPC   C4B40474   8.218  26.437   7.675
 3113POPC   NC340475  30.447  31.880   9.450
 3113POPC   PO440476  30.891  32.521   9.525
 3113POPC   GL140477  30.808  32.271   9.180
 3113POPC   GL240478  30.481  32.223   9.081
 3113POPC   C1A40479  30.944  32.236   8.797
 3113POPC   D2A40480  31.031  32.444   8.398
 3113POPC   C3A40481  30.879  32.384   7.992
 3113POPC   C4A40482  30.922  32.172   7.658
 3113POPC   C1B40483  30.490  31.955   8.721
 3113POPC   C2B40484  30.622  32.093   8.322
 3113POPC   C3B40485  30.447  32.119   7.893
 3113POPC   C4B40486  30.491  32.037   7.444
 3114POPC   NC340487  31.702  14.477   9.419
 3114POPC   PO440488  31.201  14.105   9.326
 3114POPC   GL140489  31.458  14.333   9.001
 3114POPC   GL240490  31.673  14.670   8.951
 3114POPC   C1A40491  31.636  14.214   8.639
 3114POPC   D2A40492  31.775  14.395   8.269
 3114POPC   C3A40493  31.642  14.143   7.932
 3114POPC   C4A40494  31.480  14.158   7.504
 3114POPC   C1B40495  31.423  14.684   8.600
 3114POPC   C2B40496  31.226  14.375   8.336
 3114POPC   C3B40497  31.150  14.330   7.897
 3114POPC   C4B40498  31.261  14.614   7.593
 3115POPC   NC340499  31.656  16.994   9.591
 3115POPC   PO440500  31.179  16.493   9.694
 3115POPC   GL140501  31.302  16.536   9.237
 3115POPC   GL240502  31.350  16.881   9.198
 3115POPC   C1A40503  31.644  16.587   8.894
 3115POPC   D2A40504  31.733  16.557   8.434
 3115POPC   C3A40505  31.563  16.745   8.064
 3115POPC   C4A40506  31.441  16.508   7.713
 3115POPC   C1B40507  31.220  16.851   8.798
 3115POPC   C2B40508  31.038  16.819   8.412
 3115POPC   C3B40509  31.063  16.897   7.990
 3115POPC   C4B40510  31.356  17.049   7.677
 3116POPC   NC340511   9.974  21.454   9.572
 3116POPC   PO440512   9.343  21.596   9.474
 3116POPC   GL140513   9.596  21.380   9.136
 3116POPC   GL240514   9.378  21.148   9.024
 3116POPC   C1A40515   9.870  21.095   8.843
 3116POPC   D2A40516   9.825  20.983   8.380
 3116POPC   C3A40517   9.800  21.358   8.111
 3116POPC   C4A40518   9.914  21.510   7.692
 3116POPC   C1B40519   9.457  21.285   8.586
 3116POPC   C2B40520   9.299  21.288   8.159
 3116POPC   C3B40521   9.428  21.335   7.719
 3116POPC   C4B40522   9.551  21.254   7.307
 3117POPC   NC340523  25.010  10.563   9.437
 3117POPC   PO440524  25.694  10.455   9.406
 3117POPC   GL140525  25.384  10.456   9.090
 3117POPC   GL240526  25.337  10.813   9.129
 3117POPC   C1A40527  25.240  10.418   8.658
 3117POPC   D2A40528  25.489  10.404   8.282
 3117POPC   C3A40529  25.325  10.366   7.882
 3117POPC   C4A40530  25.369  10.420   7.441
 3117POPC   C1B40531  25.133  10.939   8.744
 3117POPC   C2B40532  25.131  10.811   8.321
 3117POPC   C3B40533  25.384  10.856   7.978
 3117POPC   C4B40534  25.275  10.908   7.574
 3118POPC   NC340535  26.272  31.323   9.496
 3118POPC   PO440536  25.978  31.950   9.550
 3118POPC   GL140537  26.149  31.722   9.191
 3118POPC   GL240538  25.928  31.421   9.131
 3118POPC   C1A40539  26.297  31.549   8.804
 3118POPC   D2A40540  26.179  31.308   8.446
 3118POPC   C3A40541  26.264  31.503   8.065
 3118POPC   C4A40542  26.172  31.333   7.686
 3118POPC   C1B40543  25.793  31.626   8.735
 3118POPC   C2B40544  25.841  31.655   8.292
 3118POPC   C3B40545  25.825  31.673   7.845
 3118POPC   C4B40546  25.752  31.699   7.381
 3119POPC   NC340547  35.965  41.674   9.489
 3119POPC   PO440548  36.460  41.233   9.523
 3119POPC   GL140549  36.280  41.411   9.160
 3119POPC   GL240550  35.945  41.463   9.033
 3119POPC   C1A40551  36.340  41.509   8.742
 3119POPC   D2A40552  36.170  41.454   8.367
 3119POPC   C3A40553  36.225  41.791   8.122
 3119POPC   C4A40554  36.310  41.618   7.750
 3119POPC   C1B40555  35.795  41.654   8.684
 3119POPC   C2B40556  35.662  41.445   8.309
 3119POPC   C3B40557  35.839  41.473   7.908
 3119POPC   C4B40558  35.962  41.379   7.446
 3120POPC   NC340559  24.511  31.084   9.363
 3120POPC   PO440560  24.235  31.692   9.555
 3120POPC   GL140561  24.386  31.505   9.102
 3120POPC   GL240562  24.582  31.222   8.895
 3120POPC   C1A40563  24.115  31.260   8.768
 3120POPC   D2A40564  24.148  31.096   8.357
 3120POPC   C3A40565  24.434  31.287   8.069
 3120POPC   C4A40566  24.410  31.720   8.028
 3120POPC   C1B40567  24.671  31.586   8.696
 3120POPC   C2B40568  24.895  31.560   8.357
 3120POPC   C3B40569  24.911  31.691   7.981
 3120POPC   C4B40570  24.809  31.395   7.679
 3121POPC   NC340571   8.404  11.261   9.497
 3121POPC   PO440572   7.852  10.829   9.530
 3121POPC   GL140573   8.000  11.086   9.172
 3121POPC   GL240574   8.359  11.049   9.055
 3121POPC   C1A40575   7.937  11.315   8.773
 3121POPC   D2A40576   7.930  11.505   8.349
 3121POPC   C3A40577   7.988  11.278   7.964
 3121POPC   C4A40578   7.974  11.511   7.576
 3121POPC   C1B40579   8.444  11.210   8.676
 3121POPC   C2B40580   8.417  11.355   8.290
 3121POPC   C3B40581   8.525  11.082   7.997
 3121POPC   C4B40582   8.359  11.021   7.646
 3122POPC   NC340583  10.982  25.865   9.662
 3122POPC   PO440584  11.393  26.489   9.575
 3122POPC   GL140585  11.209  26.318   9.207
 3122POPC   GL240586  11.482  26.113   9.181
 3122POPC   C1A40587  11.121  26.263   8.757
 3122POPC   D2A40588  11.275  26.334   8.332
 3122POPC   C3A40589  11.288  26.063   7.990
 3122POPC   C4A40590  11.059  25.939   7.654
 3122POPC   C1B40591  11.706  25.903   8.859
 3122POPC   C2B40592  11.575  25.927   8.437
 3122POPC   C3B40593  11.609  25.677   8.044
 3122POPC   C4B40594  11.510  25.715   7.621
 3123POPC   NC340595  19.311   0.826   9.302
 3123POPC   PO440596  19.790   1.300   9.539
 3123POPC   GL140597  19.909   1.087   9.199
 3123POPC   GL240598  19.922   0.730   9.300
 3123POPC   C1A40599  20.086   1.265   8.832
 3123POPC   D2A40600  19.857   1.449   8.464
 3123POPC   C3A40601  20.021   1.347   8.073
 3123POPC   C4A40602  19.968   1.173   7.675
 3123POPC   C1B40603  19.897   0.743   8.845
 3123POPC   C2B40604  20.067   0.947   8.447
 3123POPC   C3B40605  20.018   0.817   8.036
 3123POPC   C4B40606  19.725   0.690   7.707
 3124POPC   NC340607  23.664   6.517   9.460
 3124POPC   PO440608  23.668   5.777   9.470
 3124POPC   GL140609  23.655   5.715   9.075
 3124POPC   GL240610  23.747   6.034   9.019
 3124POPC   C1A40611  23.321   5.836   8.779
 3124POPC   D2A40612  23.283   6.061   8.391
 3124POPC   C3A40613  23.556   5.963   8.048
 3124POPC   C4A40614  23.538   5.648   7.707
 3124POPC   C1B40615  23.816   5.868   8.593
 3124POPC   C2B40616  24.113   6.079   8.328
 3124POPC   C3B40617  24.140   6.172   7.916
 3124POPC   C4B40618  23.852   6.032   7.610
 3125POPC   NC340619  40.633  43.274   9.410
 3125POPC   PO440620  41.302  43.178   9.519
 3125POPC   GL140621  41.028  42.827   9.294
 3125POPC   GL240622  40.689  42.840   9.138
 3125POPC   C1A40623  41.040  42.777   8.811
 3125POPC   D2A40624  41.112  42.739   8.344
 3125POPC   C3A40625  40.903  43.018   8.036
 3125POPC   C4A40626  40.989  43.210   7.620
 3125POPC   C1B40627  40.538  42.641   8.759
 3125POPC   C2B40628  40.501  42.839   8.355
 3125POPC   C3B40629  40.383  42.748   7.952
 3125POPC   C4B40630  40.636  42.850   7.626
 3126POPC   NC340631  37.461  32.899   9.448
 3126POPC   PO440632  37.918  33.295   9.725
 3126POPC   GL140633  37.910  33.226   9.242
 3126POPC   GL240634  37.564  33.164   9.027
 3126POPC   C1A40635  37.976  33.297   8.774
 3126POPC   D2A40636  37.621  33.306   8.429
 3126POPC   C3A40637  37.707  33.113   8.023
 3126POPC   C4A40638  37.897  32.714   7.901
 3126POPC   C1B40639  37.429  32.776   8.802
 3126POPC   C2B40640  37.351  32.487   8.456
 3126POPC   C3B40641  37.453  32.484   8.039
 3126POPC   C4B40642  37.422  32.788   7.712
 3127POPC   NC340643   3.288  29.486   9.391
 3127POPC   PO440644   2.945  28.847   9.532
 3127POPC   GL140645   2.735  29.029   9.162
 3127POPC   GL240646   2.806  29.341   9.137
 3127POPC   C1A40647   2.536  28.915   8.755
 3127POPC   D2A40648   2.262  29.100   8.411
 3127POPC   C3A40649   2.451  29.051   7.993
 3127POPC   C4A40650   2.825  28.888   7.782
 3127POPC   C1B40651   2.885  29.528   8.773
 3127POPC   C2B40652   2.796  29.249   8.462
 3127POPC   C3B40653   2.914  29.254   8.090
 3127POPC   C4B40654   2.854  29.408   7.677
 3128POPC   NC340655  27.097  25.705   9.685
 3128POPC   PO440656  26.570  25.342   9.518
 3128POPC   GL140657  26.619  25.078   9.181
 3128POPC   GL240658  26.919  25.257   9.135
 3128POPC   C1A40659  26.581  25.204   8.754
 3128POPC   D2A40660  26.902  25.342   8.463
 3128POPC   C3A40661  26.743  25.354   8.039
 3128POPC   C4A40662  26.475  25.001   7.906
 3128POPC   C1B40663  27.065  24.966   8.827
 3128POPC   C2B40664  27.006  24.813   8.409
 3128POPC   C3B40665  27.002  24.912   7.987
 3128POPC   C4B40666  27.200  24.964   7.628
 3129POPC   NC340667  41.286   8.777   9.582
 3129POPC   PO440668  41.854   9.230   9.645
 3129POPC   GL140669  41.568   9.109   9.278
 3129POPC   GL240670  41.873   9.063   9.135
 3129POPC   C1A40671  41.387   9.040   8.813
 3129POPC   D2A40672  41.249   8.809   8.382
 3129POPC   C3A40673  41.393   9.024   7.988
 3129POPC   C4A40674  41.442   8.994   7.532
 3129POPC   C1B40675  41.941   8.760   8.836
 3129POPC   C2B40676  41.745   8.818   8.467
 3129POPC   C3B40677  41.817   8.748   8.042
 3129POPC   C4B40678  41.920   8.911   7.673
 3130POPC   NC340679  36.904  39.079   9.565
 3130POPC   PO440680  36.363  39.451   9.594
 3130POPC   GL140681  36.628  39.352   9.171
 3130POPC   GL240682  36.989  39.252   9.099
 3130POPC   C1A40683  36.701  39.212   8.694
 3130POPC   D2A40684  37.053  39.320   8.370
 3130POPC   C3A40685  36.859  39.413   7.983
 3130POPC   C4A40686  36.598  39.128   7.799
 3130POPC   C1B40687  37.145  38.983   8.771
 3130POPC   C2B40688  36.977  38.811   8.427
 3130POPC   C3B40689  37.047  38.931   8.026
 3130POPC   C4B40690  37.331  39.254   7.853
 3131POPC   NC340691   5.699  44.664   5.379
 3131POPC   PO440692   6.358  44.839   5.368
 3131POPC   GL140693   6.145  44.613   5.739
 3131POPC   GL240694   5.792  44.573   5.875
 3131POPC   C1A40695   6.154  44.738   6.194
 3131POPC   D2A40696   5.938  44.592   6.567
 3131POPC   C3A40697   5.869  44.708   7.003
 3131POPC   C4A40698   6.094  44.395   7.230
 3131POPC   C1B40699   5.552  44.493   6.265
 3131POPC   C2B40700   5.449  44.496   6.721
 3131POPC   C3B40701   5.525  44.362   7.162
 3131POPC   C4B40702   5.509  44.626   7.501
 3132POPC   NC340703  26.232  38.071   5.242
 3132POPC   PO440704  25.817  37.439   5.403
 3132POPC   GL140705  25.845  37.612   5.811
 3132POPC   GL240706  26.206  37.513   5.898
 3132POPC   C1A40707  25.903  37.763   6.247
 3132POPC   D2A40708  26.122  37.618   6.613
 3132POPC   C3A40709  26.203  37.876   6.977
 3132POPC   C4A40710  26.024  38.027   7.378
 3132POPC   C1B40711  25.966  37.239   6.187
 3132POPC   C2B40712  25.715  37.265   6.561
 3132POPC   C3B40713  25.814  37.424   6.961
 3132POPC   C4B40714  26.114  37.506   7.292
 3133POPC   NC340715  41.360  34.776   5.432
 3133POPC   PO440716  41.471  35.408   5.346
 3133POPC   GL140717  41.652  35.409   5.774
 3133POPC   GL240718  41.779  35.059   5.847
 3133POPC   C1A40719  41.540  35.601   6.144
 3133POPC   D2A40720  41.357  35.622   6.532
 3133POPC   C3A40721  41.614  35.377   6.792
 3133POPC   C4A40722  41.561  35.450   7.200
 3133POPC   C1B40723  41.781  35.114   6.306
 3133POPC   C2B40724  41.987  35.043   6.708
 3133POPC   C3B40725  41.978  35.141   7.167
 3133POPC   C4B40726  41.686  35.064   7.519
 3134POPC   NC340727  15.484  17.223   5.424
 3134POPC   PO440728  14.875  16.821   5.430
 3134POPC   GL140729  15.213  16.849   5.732
 3134POPC   GL240730  14.967  16.924   5.957
 3134POPC   C1A40731  15.452  16.899   6.149
 3134POPC   D2A40732  15.408  17.066   6.568
 3134POPC   C3A40733  15.266  16.845   6.931
 3134POPC   C4A40734  15.428  16.663   7.341
 3134POPC   C1B40735  15.067  16.605   6.254
 3134POPC   C2B40736  15.347  16.417   6.561
 3134POPC   C3B40737  15.290  16.341   6.996
 3134POPC   C4B40738  14.969  16.322   7.300
 3135POPC   NC340739  20.221  23.077   5.569
 3135POPC   PO440740  19.716  22.616   5.308
 3135POPC   GL140741  19.853  22.773   5.715
 3135POPC   GL240742  20.094  22.502   5.803
 3135POPC   C1A40743  19.972  22.938   6.149
 3135POPC   D2A40744  19.761  22.897   6.538
 3135POPC   C3A40745  19.990  23.025   6.879
 3135POPC   C4A40746  19.819  23.128   7.246
 3135POPC   C1B40747  20.412  22.656   6.119
 3135POPC   C2B40748  20.361  22.817   6.556
 3135POPC   C3B40749  20.359  22.675   7.009
 3135POPC   C4B40750  20.296  22.667   7.473
 3136POPC   NC340751  13.979  14.905   5.334
 3136POPC   PO440752  14.533  15.259   5.191
 3136POPC   GL140753  14.314  15.177   5.650
 3136POPC   GL240754  14.147  15.472   5.751
 3136POPC   C1A40755  14.391  15.141   6.158
 3136POPC   D2A40756  14.528  14.889   6.573
 3136POPC   C3A40757  14.658  15.067   7.001
 3136POPC   C4A40758  14.613  15.443   7.290
 3136POPC   C1B40759  13.983  15.465   6.159
 3136POPC   C2B40760  14.186  15.650   6.496
 3136POPC   C3B40761  14.361  15.470   6.840
 3136POPC   C4B40762  14.172  15.181   7.145
 3137POPC   NC340763  27.156   5.494   5.456
 3137POPC   PO440764  27.099   6.143   5.375
 3137POPC   GL140765  26.949   5.883   5.717
 3137POPC   GL240766  26.598   5.763   5.753
 3137POPC   C1A40767  26.904   5.953   6.131
 3137POPC   D2A40768  26.725   6.156   6.423
 3137POPC   C3A40769  26.716   6.091   6.855
 3137POPC   C4A40770  26.827   6.038   7.287
 3137POPC   C1B40771  26.453   5.697   6.197
 3137POPC   C2B40772  26.512   5.664   6.663
 3137POPC   C3B40773  26.358   5.847   7.124
 3137POPC   C4B40774  26.513   5.772   7.583
 3138POPC   NC340775  20.837   6.486   5.372
 3138POPC   PO440776  20.227   6.532   5.587
 3138POPC   GL140777  20.547   6.334   5.784
 3138POPC   GL240778  20.692   6.679   5.834
 3138POPC   C1A40779  20.877   6.239   6.075
 3138POPC   D2A40780  20.975   6.481   6.475
 3138POPC   C3A40781  20.807   6.530   6.902
 3138POPC   C4A40782  21.053   6.668   7.294
 3138POPC   C1B40783  20.528   6.569   6.246
 3138POPC   C2B40784  20.313   6.795   6.559
 3138POPC   C3B40785  20.380   7.022   6.941
 3138POPC   C4B40786  20.528   6.761   7.277
 3139POPC   NC340787  34.377  11.816   5.530
 3139POPC   PO440788  34.862  12.174   5.207
 3139POPC   GL140789  34.770  12.082   5.693
 3139POPC   GL240790  34.794  12.441   5.801
 3139POPC   C1A40791  34.682  11.903   6.158
 3139POPC   D2A40792  34.414  11.776   6.507
 3139POPC   C3A40793  34.423  11.954   6.925
 3139POPC   C4A40794  34.714  12.001   7.259
 3139POPC   C1B40795  34.690  12.414   6.249
 3139POPC   C2B40796  34.362  12.348   6.567
 3139POPC   C3B40797  34.228  12.478   6.982
 3139POPC   C4B40798  34.286  12.269   7.354
 3140POPC   NC340799  12.754  16.616   5.204
 3140POPC   PO440800  12.011  16.788   5.387
 3140POPC   GL140801  12.013  16.872   5.830
 3140POPC   GL240802  12.347  16.906   5.931
 3140POPC   C1A40803  11.820  16.885   6.219
 3140POPC   D2A40804  11.898  16.668   6.597
 3140POPC   C3A40805  12.199  16.820   6.924
 3140POPC   C4A40806  11.986  16.699   7.304
 3140POPC   C1B40807  12.326  16.899   6.377
 3140POPC   C2B40808  12.485  17.213   6.683
 3140POPC   C3B40809  12.514  17.230   7.096
 3140POPC   C4B40810  12.366  17.000   7.432
 3141POPC   NC340811  36.798  43.511   5.576
 3141POPC   PO440812  37.066  44.124   5.492
 3141POPC   GL140813  36.926  43.994   5.850
 3141POPC   GL240814  36.587  44.118   5.754
 3141POPC   C1A40815  37.075  43.719   6.184
 3141POPC   D2A40816  37.238  43.553   6.600
 3141POPC   C3A40817  36.992  43.610   6.995
 3141POPC   C4A40818  36.981  43.775   7.448
 3141POPC   C1B40819  36.526  43.834   6.113
 3141POPC   C2B40820  36.703  43.827   6.525
 3141POPC   C3B40821  36.498  43.713   6.872
 3141POPC   C4B40822  36.534  43.847   7.239
 3142POPC   NC340823  44.167  42.253   5.377
 3142POPC   PO440824  43.479  42.075   5.528
 3142POPC   GL140825  43.872  42.111   5.777
 3142POPC   GL240826  44.047  42.424   5.841
 3142POPC   C1A40827  44.128  41.987   6.133
 3142POPC   D2A40828  44.031  41.834   6.557
 3142POPC   C3A40829  43.823  42.121   6.851
 3142POPC   C4A40830  43.916  42.220   7.278
 3142POPC   C1B40831  43.918  42.458   6.267
 3142POPC   C2B40832  43.892  42.682   6.652
 3142POPC   C3B40833  43.625  42.621   6.999
 3142POPC   C4B40834  43.520  42.530   7.403
 3143POPC   NC340835  13.104  16.853   5.568
 3143POPC   PO440836  12.706  16.235   5.485
 3143POPC   GL140837  12.790  16.548   5.793
 3143POPC   GL240838  13.019  16.385   5.896
 3143POPC   C1A40839  12.813  16.804   6.174
 3143POPC   D2A40840  12.742  16.755   6.605
 3143POPC   C3A40841  12.949  16.941   6.909
 3143POPC   C4A40842  12.848  16.893   7.318
 3143POPC   C1B40843  12.704  16.288   6.221
 3143POPC   C2B40844  12.820  16.252   6.632
 3143POPC   C3B40845  12.756  16.446   7.027
 3143POPC   C4B40846  12.941  16.414   7.424
 3144POPC   NC340847  24.030   7.159   5.510
 3144POPC   PO440848  24.571   7.587   5.412
 3144POPC   GL140849  24.372   7.487   5.826
 3144POPC   GL240850  24.434   7.129   5.840
 3144POPC   C1A40851  24.405   7.512   6.315
 3144POPC   D2A40852  24.590   7.289   6.689
 3144POPC   C3A40853  24.674   7.605   7.003
 3144POPC   C4A40854  24.318   7.704   7.254
 3144POPC   C1B40855  24.131   7.120   6.164
 3144POPC   C2B40856  24.186   6.928   6.549
 3144POPC   C3B40857  24.230   6.986   6.950
 3144POPC   C4B40858  24.516   7.172   7.210
 3145POPC   NC340859   4.526  43.626   5.594
 3145POPC   PO440860   3.954  43.942   5.375
 3145POPC   GL140861   4.243  44.065   5.741
 3145POPC   GL240862   4.604  43.990   5.961
 3145POPC   C1A40863   4.160  43.934   6.162
 3145POPC   D2A40864   4.425  44.067   6.507
 3145POPC   C3A40865   4.225  44.034   6.895
 3145POPC   C4A40866   4.358  44.130   7.311
 3145POPC   C1B40867   4.564  43.623   6.284
 3145POPC   C2B40868   4.408  43.573   6.732
 3145POPC   C3B40869   4.414  43.642   7.190
 3145POPC   C4B40870   4.486  43.752   7.669
 3146POPC   NC340871  15.707  28.502   5.389
 3146POPC   PO440872  16.262  28.153   5.298
 3146POPC   GL140873  16.034  28.138   5.716
 3146POPC   GL240874  15.762  28.378   5.885
 3146POPC   C1A40875  16.207  28.237   6.124
 3146POPC   D2A40876  16.025  28.434   6.480
 3146POPC   C3A40877  16.131  28.255   6.872
 3146POPC   C4A40878  16.053  28.395   7.273
 3146POPC   C1B40879  16.042  28.733   6.038
 3146POPC   C2B40880  16.278  28.874   6.415
 3146POPC   C3B40881  16.341  28.725   6.830
 3146POPC   C4B40882  16.193  28.863   7.204
 3147POPC   NC340883  33.354  17.795   5.475
 3147POPC   PO440884  32.763  17.664   5.157
 3147POPC   GL140885  32.937  17.594   5.715
 3147POPC   GL240886  33.281  17.595   5.928
 3147POPC   C1A40887  32.841  17.693   6.156
 3147POPC   D2A40888  33.045  17.783   6.553
 3147POPC   C3A40889  32.773  17.699   6.904
 3147POPC   C4A40890  32.897  17.520   7.276
 3147POPC   C1B40891  33.541  17.860   6.235
 3147POPC   C2B40892  33.531  17.899   6.691
 3147POPC   C3B40893  33.327  17.643   6.985
 3147POPC   C4B40894  33.373  17.641   7.410
 3148POPC   NC340895  28.557  24.451   5.507
 3148POPC   PO440896  27.916  24.293   5.405
 3148POPC   GL140897  28.098  24.457   5.748
 3148POPC   GL240898  28.257  24.155   5.850
 3148POPC   C1A40899  28.320  24.639   6.105
 3148POPC   D2A40900  28.448  24.717   6.537
 3148POPC   C3A40901  28.345  24.402   6.834
 3148POPC   C4A40902  28.374  24.539   7.251
 3148POPC   C1B40903  28.421  24.177   6.293
 3148POPC   C2B40904  28.778  24.328   6.552
 3148POPC   C3B40905  28.831  24.467   6.981
 3148POPC   C4B40906  28.655  24.124   7.184
 3149POPC   NC340907  23.400  10.255   5.257
 3149POPC   PO440908  22.832  10.635   5.160
 3149POPC   GL140909  22.822  10.588   5.631
 3149POPC   GL240910  23.180  10.477   5.718
 3149POPC   C1A40911  22.836  10.591   6.116
 3149POPC   D2A40912  22.939  10.725   6.554
 3149POPC   C3A40913  22.767  10.506   6.929
 3149POPC   C4A40914  22.867  10.399   7.350
 3149POPC   C1B40915  23.375  10.611   6.128
 3149POPC   C2B40916  23.382  10.485   6.571
 3149POPC   C3B40917  23.307  10.667   7.015
 3149POPC   C4B40918  23.354  10.518   7.468
 3150POPC   NC340919  25.507  15.575   5.440
 3150POPC   PO440920  25.211  15.010   5.282
 3150POPC   GL140921  25.219  15.195   5.694
 3150POPC   GL240922  25.049  15.490   5.640
 3150POPC   C1A40923  25.333  15.053   6.106
 3150POPC   D2A40924  25.542  15.063   6.498
 3150POPC   C3A40925  25.276  14.925   6.866
 3150POPC   C4A40926  25.445  15.047   7.275
 3150POPC   C1B40927  24.960  15.565   6.051
 3150POPC   C2B40928  25.076  15.434   6.449
 3150POPC   C3B40929  24.884  15.258   6.784
 3150POPC   C4B40930  25.032  15.308   7.168
 3151POPC   NC340931   3.410   6.047   5.216
 3151POPC   PO440932   3.612   5.472   5.112
 3151POPC   GL140933   3.416   5.628   5.552
 3151POPC   GL240934   3.456   5.384   5.828
 3151POPC   C1A40935   3.437   5.894   5.975
 3151POPC   D2A40936   3.587   5.948   6.465
 3151POPC   C3A40937   3.505   6.198   6.900
 3151POPC   C4A40938   3.690   6.223   7.353
 3151POPC   C1B40939   3.571   5.469   6.265
 3151POPC   C2B40940   3.379   5.509   6.682
 3151POPC   C3B40941   3.604   5.550   7.038
 3151POPC   C4B40942   3.534   5.744   7.407
 3152POPC   NC340943  17.937  35.728   5.368
 3152POPC   PO440944  18.234  36.336   5.213
 3152POPC   GL140945  18.369  36.088   5.604
 3152POPC   GL240946  18.075  36.228   5.762
 3152POPC   C1A40947  18.464  36.052   6.089
 3152POPC   D2A40948  18.606  36.178   6.537
 3152POPC   C3A40949  18.412  36.122   6.966
 3152POPC   C4A40950  18.430  36.275   7.460
 3152POPC   C1B40951  17.908  36.155   6.174
 3152POPC   C2B40952  18.052  36.167   6.576
 3152POPC   C3B40953  17.903  35.982   6.936
 3152POPC   C4B40954  17.912  36.240   7.269
 3153POPC   NC340955  21.487  34.317   5.287
 3153POPC   PO440956  21.210  34.887   5.302
 3153POPC   GL140957  21.230  34.623   5.658
 3153POPC   GL240958  21.589  34.591   5.709
 3153POPC   C1A40959  21.251  34.603   6.117
 3153POPC   D2A40960  21.277  34.880   6.471
 3153POPC   C3A40961  21.234  34.715   6.851
 3153POPC   C4A40962  21.159  34.951   7.224
 3153POPC   C1B40963  21.795  34.574   6.094
 3153POPC   C2B40964  21.678  34.512   6.484
 3153POPC   C3B40965  21.736  34.667   6.859
 3153POPC   C4B40966  21.518  34.577   7.244
 3154POPC   NC340967   2.475   1.315   5.494
 3154POPC   PO440968   2.851   0.795   5.418
 3154POPC   GL140969   2.905   0.925   5.861
 3154POPC   GL240970   2.844   1.274   5.846
 3154POPC   C1A40971   3.045   1.167   6.274
 3154POPC   D2A40972   2.992   1.474   6.589
 3154POPC   C3A40973   3.051   1.233   6.947
 3154POPC   C4A40974   2.964   0.906   7.245
 3154POPC   C1B40975   2.495   1.223   6.152
 3154POPC   C2B40976   2.554   1.163   6.568
 3154POPC   C3B40977   2.554   1.028   6.969
 3154POPC   C4B40978   2.670   1.376   7.231
 3155POPC   NC340979  12.194  26.737   5.278
 3155POPC   PO440980  12.057  27.372   5.321
 3155POPC   GL140981  12.002  27.047   5.698
 3155POPC   GL240982  12.193  26.706   5.782
 3155POPC   C1A40983  11.920  26.902   6.148
 3155POPC   D2A40984  12.186  26.912   6.535
 3155POPC   C3A40985  12.062  26.777   6.943
 3155POPC   C4A40986  12.292  26.801   7.322
 3155POPC   C1B40987  12.306  26.521   6.219
 3155POPC   C2B40988  12.272  26.398   6.661
 3155POPC   C3B40989  12.456  26.386   7.085
 3155POPC   C4B40990  12.392  26.367   7.567
 3156POPC   NC340991  31.425  29.500   5.337
 3156POPC   PO440992  31.467  28.848   5.096
 3156POPC   GL140993  31.530  29.080   5.602
 3156POPC   GL240994  31.281  29.139   5.780
 3156POPC   C1A40995  31.690  29.129   6.076
 3156POPC   D2A40996  31.651  29.101   6.549
 3156POPC   C3A40997  31.539  29.351   6.909
 3156POPC   C4A40998  31.678  29.235   7.313
 3156POPC   C1B40999  31.205  29.033   6.202
 3156POPC   C2B41000  31.124  29.198   6.609
 3156POPC   C3B41001  31.035  29.255   7.044
 3156POPC   C4B41002  31.211  29.051   7.413
 3157POPC   NC341003  33.436  33.603   5.495
 3157POPC   PO441004  33.863  34.126   5.317
 3157POPC   GL141005  33.708  33.913   5.799
 3157POPC   GL241006  33.605  33.550   5.972
 3157POPC   C1A41007  33.664  33.933   6.286
 3157POPC   D2A41008  33.890  34.132   6.645
 3157POPC   C3A41009  33.755  33.891   6.985
 3157POPC   C4A41010  33.883  33.892   7.389
 3157POPC   C1B41011  33.981  33.412   6.244
 3157POPC   C2B41012  34.053  33.259   6.684
 3157POPC   C3B41013  34.066  33.489   7.095
 3157POPC   C4B41014  33.641  33.451   7.299
 3158POPC   NC341015   8.588  20.502   5.557
 3158POPC   PO441016   7.898  20.488   5.445
 3158POPC   GL141017   7.949  20.345   5.840
 3158POPC   GL241018   8.218  20.568   5.915
 3158POPC   C1A41019   7.838  20.457   6.256
 3158POPC   D2A41020   8.093  20.477   6.593
 3158POPC   C3A41021   7.887  20.380   6.947
 3158POPC   C4A41022   7.797  20.562   7.288
 3158POPC   C1B41023   8.570  20.684   6.189
 3158POPC   C2B41024   8.598  20.492   6.585
 3158POPC   C3B41025   8.526  20.727   6.942
 3158POPC   C4B41026   8.314  20.622   7.324
 3159POPC   NC341027  28.689  43.218   5.477
 3159POPC   PO441028  28.033  43.355   5.518
 3159POPC   GL141029  28.193  43.124   5.855
 3159POPC   GL241030  28.495  43.297   5.928
 3159POPC   C1A41031  28.261  43.079   6.325
 3159POPC   D2A41032  28.574  42.852   6.598
 3159POPC   C3A41033  28.494  42.859   7.053
 3159POPC   C4A41034  28.248  43.055   7.439
 3159POPC   C1B41035  28.660  43.418   6.313
 3159POPC   C2B41036  28.502  43.345   6.720
 3159POPC   C3B41037  28.517  43.360   7.132
 3159POPC   C4B41038  28.616  43.431   7.553
 3160POPC   NC341039  32.875  35.843   5.426
 3160POPC   PO441040  33.185  36.447   5.365
 3160POPC   GL141041  32.960  36.267   5.710
 3160POPC   GL241042  32.600  36.251   5.637
 3160POPC   C1A41043  33.035  36.143   6.125
 3160POPC   D2A41044  33.086  36.359   6.504
 3160POPC   C3A41045  33.183  36.081   6.810
 3160POPC   C4A41046  33.062  36.190   7.219
 3160POPC   C1B41047  32.532  36.066   6.051
 3160POPC   C2B41048  32.560  36.247   6.464
 3160POPC   C3B41049  32.676  36.097   6.845
 3160POPC   C4B41050  32.628  35.922   7.240
 3161POPC   NC341051   7.409   2.646   5.381
 3161POPC   PO441052   7.004   3.232   5.426
 3161POPC   GL141053   7.325   2.992   5.762
 3161POPC   GL241054   7.294   2.595   5.868
 3161POPC   C1A41055   7.582   2.893   6.159
 3161POPC   D2A41056   7.657   2.610   6.545
 3161POPC   C3A41057   7.581   2.759   6.993
 3161POPC   C4A41058   7.659   3.019   7.377
 3161POPC   C1B41059   7.292   2.369   6.275
 3161POPC   C2B41060   7.192   2.547   6.709
 3161POPC   C3B41061   7.101   2.722   7.126
 3161POPC   C4B41062   7.033   2.536   7.518
 3162POPC   NC341063  28.446  17.807   5.361
 3162POPC   PO441064  27.914  17.464   5.453
 3162POPC   GL141065  28.261  17.499   5.781
 3162POPC   GL241066  28.438  17.807   5.863
 3162POPC   C1A41067  28.428  17.348   6.185
 3162POPC   D2A41068  28.282  17.152   6.577
 3162POPC   C3A41069  28.407  17.278   6.968
 3162POPC   C4A41070  28.537  17.317   7.362
 3162POPC   C1B41071  28.173  17.821   6.197
 3162POPC   C2B41072  28.244  17.664   6.605
 3162POPC   C3B41073  28.210  17.771   7.015
 3162POPC   C4B41074  28.568  17.840   7.250
 3163POPC   NC341075  34.034  17.571   5.249
 3163POPC   PO441076  33.406  17.321   5.426
 3163POPC   GL141077  33.741  17.463   5.715
 3163POPC   GL241078  33.781  17.804   5.764
 3163POPC   C1A41079  33.719  17.386   6.171
 3163POPC   D2A41080  33.445  17.385   6.538
 3163POPC   C3A41081  33.678  17.252   6.908
 3163POPC   C4A41082  33.793  17.339   7.328
 3163POPC   C1B41083  34.059  17.773   6.140
 3163POPC   C2B41084  33.982  17.699   6.573
 3163POPC   C3B41085  33.944  17.740   7.028
 3163POPC   C4B41086  34.267  17.646   7.358
 3164POPC   NC341087  12.403  35.564   5.383
 3164POPC   PO441088  11.835  35.463   5.422
 3164POPC   GL141089  12.119  35.225   5.750
 3164POPC   GL241090  11.951  34.967   5.916
 3164POPC   C1A41091  12.284  35.208   6.226
 3164POPC   D2A41092  12.133  35.314   6.647
 3164POPC   C3A41093  12.267  35.266   7.056
 3164POPC   C4A41094  12.265  35.565   7.356
 3164POPC   C1B41095  11.761  35.209   6.294
 3164POPC   C2B41096  11.636  35.210   6.765
 3164POPC   C3B41097  11.808  35.076   7.177
 3164POPC   C4B41098  11.708  34.909   7.604
 3165POPC   NC341099  27.011  28.950   5.424
 3165POPC   PO441100  26.325  28.984   5.416
 3165POPC   GL141101  26.567  29.081   5.803
 3165POPC   GL241102  26.828  29.353   5.708
 3165POPC   C1A41103  26.628  29.049   6.289
 3165POPC   D2A41104  26.848  28.775   6.564
 3165POPC   C3A41105  26.704  28.876   6.968
 3165POPC   C4A41106  26.619  29.196   7.270
 3165POPC   C1B41107  27.038  29.247   6.100
 3165POPC   C2B41108  27.018  29.332   6.537
 3165POPC   C3B41109  27.076  29.263   6.983
 3165POPC   C4B41110  27.139  29.404   7.427
 3166POPC   NC341111  14.048  35.800   5.408
 3166POPC   PO441112  14.391  35.155   5.373
 3166POPC   GL141113  14.347  35.224   5.808
 3166POPC   GL241114  13.996  35.118   5.813
 3166POPC   C1A41115  14.479  35.385   6.231
 3166POPC   D2A41116  14.368  35.633   6.587
 3166POPC   C3A41117  14.553  35.421   6.919
 3166POPC   C4A41118  14.506  35.354   7.336
 3166POPC   C1B41119  14.124  34.996   6.241
 3166POPC   C2B41120  14.216  35.140   6.646
 3166POPC   C3B41121  14.116  35.111   7.066
 3166POPC   C4B41122  14.170  34.755   7.281
 3167POPC   NC341123  17.919  16.332   5.308
 3167POPC   PO441124  17.243  16.332   5.433
 3167POPC   GL141125  17.400  16.136   5.841
 3167POPC   GL241126  17.512  15.785   5.885
 3167POPC   C1A41127  17.381  16.097   6.321
 3167POPC   D2A41128  17.574  15.975   6.709
 3167POPC   C3A41129  17.456  16.157   7.106
 3167POPC   C4A41130  17.689  15.925   7.394
 3167POPC   C1B41131  17.324  15.600   6.262
 3167POPC   C2B41132  17.181  15.526   6.718
 3167POPC   C3B41133  17.298  15.673   7.147
 3167POPC   C4B41134  17.464  15.501   7.556
 3168POPC   NC341135  26.900  19.578   5.379
 3168POPC   PO441136  26.890  20.310   5.353
 3168POPC   GL141137  26.865  20.004   5.689
 3168POPC   GL241138  26.515  19.883   5.659
 3168POPC   C1A41139  26.988  19.926   6.126
 3168POPC   D2A41140  26.768  19.865   6.502
 3168POPC   C3A41141  26.979  19.849   6.887
 3168POPC   C4A41142  27.133  19.561   7.225
 3168POPC   C1B41143  26.519  19.668   6.064
 3168POPC   C2B41144  26.429  19.496   6.504
 3168POPC   C3B41145  26.444  19.754   6.894
 3168POPC   C4B41146  26.650  19.816   7.291
 3169POPC   NC341147  27.214  33.022   5.310
 3169POPC   PO441148  27.894  32.692   5.430
 3169POPC   GL141149  27.640  32.973   5.727
 3169POPC   GL241150  27.307  32.856   5.794
 3169POPC   C1A41151  27.736  32.999   6.175
 3169POPC   D2A41152  27.726  32.782   6.610
 3169POPC   C3A41153  27.599  33.087   6.949
 3169POPC   C4A41154  27.722  33.121   7.371
 3169POPC   C1B41155  27.363  32.663   6.191
 3169POPC   C2B41156  27.185  32.637   6.598
 3169POPC   C3B41157  27.366  32.595   6.972
 3169POPC   C4B41158  27.309  32.843   7.319
 3170POPC   NC341159  22.494  34.820   5.406
 3170POPC   PO441160  21.874  34.581   5.261
 3170POPC   GL141161  22.139  34.566   5.677
 3170POPC   GL241162  22.305  34.233   5.767
 3170POPC   C1A41163  22.290  34.577   6.122
 3170POPC   D2A41164  22.167  34.691   6.539
 3170POPC   C3A41165  22.353  34.626   6.940
 3170POPC   C4A41166  22.014  34.648   7.261
 3170POPC   C1B41167  22.631  34.204   6.135
 3170POPC   C2B41168  22.603  34.365   6.550
 3170POPC   C3B41169  22.630  34.174   6.956
 3170POPC   C4B41170  22.671  34.398   7.337
 3171POPC   NC341171  11.471   2.787   5.429
 3171POPC   PO441172  12.165   2.830   5.381
 3171POPC   GL141173  11.939   2.807   5.760
 3171POPC   GL241174  12.027   2.488   5.948
 3171POPC   C1A41175  12.055   2.916   6.176
 3171POPC   D2A41176  12.157   2.686   6.579
 3171POPC   C3A41177  12.083   2.902   6.984
 3171POPC   C4A41178  12.010   2.796   7.431
 3171POPC   C1B41179  11.955   2.279   6.315
 3171POPC   C2B41180  11.828   2.271   6.731
 3171POPC   C3B41181  11.872   2.441   7.113
 3171POPC   C4B41182  11.779   2.332   7.555
 3172POPC   NC341183  16.015   2.020   5.118
 3172POPC   PO441184  16.609   2.019   5.356
 3172POPC   GL141185  16.268   1.896   5.740
 3172POPC   GL241186  15.951   1.917   5.669
 3172POPC   C1A41187  16.094   2.054   6.225
 3172POPC   D2A41188  16.164   2.404   6.563
 3172POPC   C3A41189  16.190   2.303   7.023
 3172POPC   C4A41190  15.814   2.222   7.271
 3172POPC   C1B41191  15.778   1.720   6.029
 3172POPC   C2B41192  15.685   1.842   6.486
 3172POPC   C3B41193  15.913   1.833   6.896
 3172POPC   C4B41194  15.809   1.609   7.267
 3173POPC   NC341195  44.454  18.559   5.592
 3173POPC   PO441196  43.868  18.264   5.440
 3173POPC   GL141197  43.935  18.074   5.826
 3173POPC   GL241198  44.294  18.126   5.834
 3173POPC   C1A41199  43.633  18.111   6.209
 3173POPC   D2A41200  43.448  18.426   6.532
 3173POPC   C3A41201  43.636  18.444   6.959
 3173POPC   C4A41202  43.883  18.116   7.203
 3173POPC   C1B41203  44.111  18.303   6.230
 3173POPC   C2B41204  43.968  18.212   6.637
 3173POPC   C3B41205  44.157  18.491   6.946
 3173POPC   C4B41206  43.999  18.587   7.347
 3174POPC   NC341207  31.726  31.834   5.234
 3174POPC   PO441208  31.518  31.156   5.338
 3174POPC   GL141209  31.443  31.408   5.736
 3174POPC   GL241210  31.212  31.648   5.632
 3174POPC   C1A41211  31.441  31.246   6.182
 3174POPC   D2A41212  31.424  31.435   6.589
 3174POPC   C3A41213  31.349  31.166   6.937
 3174POPC   C4A41214  31.531  31.109   7.301
 3174POPC   C1B41215  31.191  31.672   6.121
 3174POPC   C2B41216  31.021  31.795   6.526
 3174POPC   C3B41217  31.163  31.768   6.902
 3174POPC   C4B41218  31.418  31.629   7.203
 3175POPC   NC341219  10.465  39.067   5.446
 3175POPC   PO441220  11.037  39.166   5.171
 3175POPC   GL141221  10.767  39.452   5.603
 3175POPC   GL241222  10.375  39.415   5.795
 3175POPC   C1A41223  10.761  39.445   6.108
 3175POPC   D2A41224  10.674  39.127   6.449
 3175POPC   C3A41225  10.745  39.261   6.884
 3175POPC   C4A41226  10.603  39.149   7.276
 3175POPC   C1B41227  10.230  39.317   6.242
 3175POPC   C2B41228  10.239  39.261   6.721
 3175POPC   C3B41229  10.234  39.547   7.111
 3175POPC   C4B41230  10.245  39.540   7.583
 3176POPC   NC341231  19.871  39.772   5.405
 3176POPC   PO441232  20.213  40.327   5.531
 3176POPC   GL141233  19.933  40.103   5.831
 3176POPC   GL241234  19.732  39.790   5.888
 3176POPC   C1A41235  19.711  40.271   6.177
 3176POPC   D2A41236  19.615  40.299   6.614
 3176POPC   C3A41237  19.728  39.927   6.809
 3176POPC   C4A41238  19.919  39.735   7.164
 3176POPC   C1B41239  19.660  39.703   6.334
 3176POPC   C2B41240  19.446  39.514   6.720
 3176POPC   C3B41241  19.453  39.507   7.195
 3176POPC   C4B41242  19.600  39.615   7.609
 3177POPC   NC341243  28.010   2.254   5.362
 3177POPC   PO441244  27.358   1.972   5.350
 3177POPC   GL141245  27.642   1.986   5.711
 3177POPC   GL241246  27.814   2.282   5.826
 3177POPC   C1A41247  27.655   1.961   6.177
 3177POPC   D2A41248  27.736   1.985   6.611
 3177POPC   C3A41249  27.420   1.983   6.959
 3177POPC   C4A41250  27.552   1.798   7.339
 3177POPC   C1B41251  28.027   2.330   6.236
 3177POPC   C2B41252  27.999   2.423   6.683
 3177POPC   C3B41253  27.877   2.208   7.067
 3177POPC   C4B41254  27.730   2.263   7.480
 3178POPC   NC341255   3.097  14.664   5.597
 3178POPC   PO441256   2.790  14.110   5.546
 3178POPC   GL141257   2.606  14.170   5.912
 3178POPC   GL241258   2.505  14.502   5.807
 3178POPC   C1A41259   2.637  14.015   6.342
 3178POPC   D2A41260   2.744  13.902   6.790
 3178POPC   C3A41261   2.774  14.214   7.125
 3178POPC   C4A41262   3.067  14.403   7.456
 3178POPC   C1B41263   2.725  14.532   6.223
 3178POPC   C2B41264   2.572  14.565   6.645
 3178POPC   C3B41265   2.742  14.717   7.040
 3178POPC   C4B41266   2.586  14.619   7.433
 3179POPC   NC341267  29.710  22.191   5.279
 3179POPC   PO441268  30.209  21.813   5.595
 3179POPC   GL141269  29.841  22.082   5.762
 3179POPC   GL241270  29.977  22.383   5.916
 3179POPC   C1A41271  29.553  22.196   6.137
 3179POPC   D2A41272  29.738  22.254   6.572
 3179POPC   C3A41273  29.626  22.396   6.994
 3179POPC   C4A41274  29.518  22.067   7.223
 3179POPC   C1B41275  30.074  22.062   6.222
 3179POPC   C2B41276  30.269  22.094   6.619
 3179POPC   C3B41277  30.137  22.363   6.922
 3179POPC   C4B41278  30.018  22.148   7.261
 3180POPC   NC341279   8.805  18.876   5.336
 3180POPC   PO441280   8.997  19.455   5.591
 3180POPC   GL141281   8.840  19.101   5.819
 3180POPC   GL241282   9.096  18.841   5.778
 3180POPC   C1A41283   8.616  19.065   6.212
 3180POPC   D2A41284   8.647  19.151   6.654
 3180POPC   C3A41285   9.055  19.156   6.812
 3180POPC   C4A41286   8.971  19.290   7.193
 3180POPC   C1B41287   9.189  18.958   6.201
 3180POPC   C2B41288   8.959  18.735   6.504
 3180POPC   C3B41289   8.729  18.666   6.876
 3180POPC   C4B41290   8.933  18.786   7.234
 3181POPC   NC341291  30.998  15.169   5.281
 3181POPC   PO441292  30.469  15.444   5.568
 3181POPC   GL141293  30.588  15.206   5.851
 3181POPC   GL241294  30.873  15.112   5.840
 3181POPC   C1A41295  30.694  15.362   6.258
 3181POPC   D2A41296  30.594  15.711   6.481
 3181POPC   C3A41297  30.388  15.508   6.785
 3181POPC   C4A41298  30.315  15.574   7.187
 3181POPC   C1B41299  30.708  14.857   6.233
 3181POPC   C2B41300  30.533  15.001   6.641
 3181POPC   C3B41301  30.711  15.137   7.060
 3181POPC   C4B41302  30.982  15.021   7.419
 3182POPC   NC341303  29.397  34.868   5.426
 3182POPC   PO441304  28.905  34.355   5.461
 3182POPC   GL141305  29.061  34.637   5.725
 3182POPC   GL241306  29.359  34.457   5.805
 3182POPC   C1A41307  29.149  34.796   6.131
 3182POPC   D2A41308  29.137  34.920   6.541
 3182POPC   C3A41309  29.272  34.764   6.936
 3182POPC   C4A41310  28.964  34.827   7.279
 3182POPC   C1B41311  29.093  34.291   6.157
 3182POPC   C2B41312  29.094  34.385   6.610
 3182POPC   C3B41313  28.970  34.361   7.031
 3182POPC   C4B41314  28.777  34.380   7.428
 3183POPC   NC341315  28.648  30.900   5.380
 3183POPC   PO441316  27.959  30.947   5.275
 3183POPC   GL141317  28.192  30.959   5.696
 3183POPC   GL241318  28.462  30.691   5.804
 3183POPC   C1A41319  28.293  31.028   6.140
 3183POPC   D2A41320  28.182  30.796   6.515
 3183POPC   C3A41321  28.403  30.968   6.845
 3183POPC   C4A41322  28.331  31.065   7.249
 3183POPC   C1B41323  28.394  30.453   6.204
 3183POPC   C2B41324  28.465  30.376   6.668
 3183POPC   C3B41325  28.411  30.500   7.096
 3183POPC   C4B41326  28.106  30.275   7.334
 3184POPC   NC341327  14.975   0.047   5.521
 3184POPC   PO441328  15.257  44.405   5.427
 3184POPC   GL141329  15.208  44.661   5.765
 3184POPC   GL241330  14.978  44.485   5.874
 3184POPC   C1A41331  15.269  44.801   6.158
 3184POPC   D2A41332  15.148  44.582   6.524
 3184POPC   C3A41333  15.184  44.692   6.923
 3184POPC   C4A41334  15.305  44.898   7.323
 3184POPC   C1B41335  15.040  44.197   6.221
 3184POPC   C2B41336  15.185  44.090   6.640
 3184POPC   C3B41337  15.011  44.203   7.027
 3184POPC   C4B41338  15.194  44.403   7.334
 3185POPC   NC341339   1.011  25.441   5.434
 3185POPC   PO441340   1.663  25.224   5.335
 3185POPC   GL141341   1.365  25.150   5.725
 3185POPC   GL241342   1.168  25.433   5.903
 3185POPC   C1A41343   1.308  25.087   6.216
 3185POPC   D2A41344   1.353  25.368   6.585
 3185POPC   C3A41345   1.354  25.206   7.015
 3185POPC   C4A41346   1.487  25.292   7.447
 3185POPC   C1B41347   0.897  25.404   6.237
 3185POPC   C2B41348   0.879  25.567   6.629
 3185POPC   C3B41349   0.714  25.447   7.007
 3185POPC   C4B41350   1.004  25.420   7.329
 3186POPC   NC341351  23.376   4.893   5.114
 3186POPC   PO441352  22.957   5.332   5.308
 3186POPC   GL141353  22.875   5.190   5.756
 3186POPC   GL241354  23.227   5.249   5.902
 3186POPC   C1A41355  22.848   5.154   6.226
 3186POPC   D2A41356  23.187   5.337   6.487
 3186POPC   C3A41357  23.113   5.282   6.925
 3186POPC   C4A41358  22.846   5.253   7.303
 3186POPC   C1B41359  23.283   4.888   6.227
 3186POPC   C2B41360  23.049   4.846   6.625
 3186POPC   C3B41361  22.929   4.804   7.071
 3186POPC   C4B41362  23.189   4.876   7.456
 3187POPC   NC341363  15.500   4.465   5.417
 3187POPC   PO441364  15.260   3.896   5.142
 3187POPC   GL141365  15.124   4.219   5.623
 3187POPC   GL241366  14.813   4.227   5.844
 3187POPC   C1A41367  15.289   4.426   6.024
 3187POPC   D2A41368  15.268   4.330   6.464
 3187POPC   C3A41369  15.422   4.502   6.849
 3187POPC   C4A41370  15.472   4.320   7.266
 3187POPC   C1B41371  14.820   4.499   6.246
 3187POPC   C2B41372  14.858   4.472   6.715
 3187POPC   C3B41373  14.992   4.548   7.144
 3187POPC   C4B41374  14.971   4.301   7.526
 3188POPC   NC341375  16.308  22.148   5.145
 3188POPC   PO441376  15.676  22.385   5.394
 3188POPC   GL141377  15.963  22.189   5.739
 3188POPC   GL241378  15.627  22.047   5.803
 3188POPC   C1A41379  16.246  21.989   6.146
 3188POPC   D2A41380  16.189  21.802   6.555
 3188POPC   C3A41381  16.345  22.115   6.881
 3188POPC   C4A41382  16.235  22.237   7.301
 3188POPC   C1B41383  15.762  22.099   6.205
 3188POPC   C2B41384  16.013  22.271   6.525
 3188POPC   C3B41385  15.844  22.159   6.916
 3188POPC   C4B41386  15.724  22.322   7.292
 3189POPC   NC341387  13.806  20.339   5.549
 3189POPC   PO441388  13.474  19.665   5.512
 3189POPC   GL141389  13.664  19.909   5.829
 3189POPC   GL241390  13.978  19.739   5.898
 3189POPC   C1A41391  13.538  20.045   6.237
 3189POPC   D2A41392  13.658  20.186   6.645
 3189POPC   C3A41393  13.445  20.007   6.976
 3189POPC   C4A41394  13.307  19.577   7.139
 3189POPC   C1B41395  13.698  19.536   6.201
 3189POPC   C2B41396  13.553  19.643   6.611
 3189POPC   C3B41397  13.754  19.443   6.952
 3189POPC   C4B41398  14.152  19.408   7.141
 3190POPC   NC341399  43.556   2.902   5.493
 3190POPC   PO441400  42.900   2.675   5.444
 3190POPC   GL141401  43.094   2.744   5.862
 3190POPC   GL241402  43.304   3.059   5.955
 3190POPC   C1A41403  43.203   2.622   6.280
 3190POPC   D2A41404  43.281   2.871   6.658
 3190POPC   C3A41405  43.091   2.687   6.999
 3190POPC   C4A41406  43.223   2.309   7.153
 3190POPC   C1B41407  42.965   3.094   6.313
 3190POPC   C2B41408  42.824   3.096   6.784
 3190POPC   C3B41409  42.847   3.072   7.260
 3190POPC   C4B41410  42.841   3.137   7.723
 3191POPC   NC341411  40.881  17.804   5.216
 3191POPC   PO441412  40.851  18.503   5.268
 3191POPC   GL141413  40.781  18.342   5.644
 3191POPC   GL241414  41.063  18.119   5.700
 3191POPC   C1A41415  40.541  18.385   6.024
 3191POPC   D2A41416  40.696  18.571   6.381
 3191POPC   C3A41417  40.650  18.307   6.747
 3191POPC   C4A41418  40.550  18.276   7.170
 3191POPC   C1B41419  41.178  18.346   6.102
 3191POPC   C2B41420  41.143  18.278   6.576
 3191POPC   C3B41421  41.069  18.398   7.038
 3191POPC   C4B41422  41.052  18.504   7.536
 3192POPC   NC341423  35.321  41.746   5.481
 3192POPC   PO441424  35.389  41.081   5.330
 3192POPC   GL141425  35.326  41.142   5.802
 3192POPC   GL241426  35.173  41.467   5.897
 3192POPC   C1A41427  35.338  41.142   6.271
 3192POPC   D2A41428  35.474  41.345   6.682
 3192POPC   C3A41429  35.329  41.425   7.103
 3192POPC   C4A41430  35.458  41.316   7.558
 3192POPC   C1B41431  35.349  41.648   6.296
 3192POPC   C2B41432  35.405  41.891   6.706
 3192POPC   C3B41433  35.401  41.940   7.160
 3192POPC   C4B41434  35.156  41.737   7.516
 3193POPC   NC341435  41.371  13.436   5.516
 3193POPC   PO441436  41.531  14.041   5.240
 3193POPC   GL141437  41.644  13.906   5.718
 3193POPC   GL241438  41.539  13.600   5.949
 3193POPC   C1A41439  41.860  13.908   6.153
 3193POPC   D2A41440  41.681  13.603   6.493
 3193POPC   C3A41441  41.795  13.403   6.903
 3193POPC   C4A41442  41.650  13.474   7.333
 3193POPC   C1B41443  41.306  13.870   6.208
 3193POPC   C2B41444  41.302  13.941   6.640
 3193POPC   C3B41445  41.292  13.576   6.901
 3193POPC   C4B41446  41.119  13.662   7.269
 3194POPC   NC341447  40.852  23.236   5.632
 3194POPC   PO441448  40.706  22.672   5.424
 3194POPC   GL141449  40.853  22.689   5.815
 3194POPC   GL241450  41.147  22.864   5.818
 3194POPC   C1A41451  40.768  22.855   6.227
 3194POPC   D2A41452  40.619  22.791   6.644
 3194POPC   C3A41453  40.749  23.059   6.979
 3194POPC   C4A41454  40.788  22.882   7.408
 3194POPC   C1B41455  41.270  22.775   6.225
 3194POPC   C2B41456  41.150  22.933   6.627
 3194POPC   C3B41457  41.112  22.690   6.987
 3194POPC   C4B41458  41.285  22.606   7.359
 3195POPC   NC341459  10.735  31.269   5.232
 3195POPC   PO441460  10.669  31.870   5.456
 3195POPC   GL141461  10.645  31.580   5.813
 3195POPC   GL241462  10.672  31.226   5.742
 3195POPC   C1A41463  10.458  31.557   6.225
 3195POPC   D2A41464  10.233  31.748   6.593
 3195POPC   C3A41465  10.378  31.621   7.022
 3195POPC   C4A41466  10.225  31.320   7.335
 3195POPC   C1B41467  10.738  31.119   6.168
 3195POPC   C2B41468  10.588  31.213   6.580
 3195POPC   C3B41469  10.573  31.128   6.990
 3195POPC   C4B41470  10.776  31.373   7.259
 3196POPC   NC341471  28.093  38.919   5.673
 3196POPC   PO441472  28.539  39.357   5.443
 3196POPC   GL141473  28.475  39.211   5.845
 3196POPC   GL241474  28.683  38.921   5.811
 3196POPC   C1A41475  28.388  39.082   6.269
 3196POPC   D2A41476  28.062  39.060   6.543
 3196POPC   C3A41477  28.104  38.893   6.920
 3196POPC   C4A41478  28.213  39.117   7.259
 3196POPC   C1B41479  28.886  39.159   6.144
 3196POPC   C2B41480  28.756  39.448   6.463
 3196POPC   C3B41481  28.593  39.305   6.841
 3196POPC   C4B41482  28.687  39.310   7.250
 3197POPC   NC341483  43.004  10.265   5.413
 3197POPC   PO441484  43.070  10.952   5.354
 3197POPC   GL141485  43.211  10.640   5.724
 3197POPC   GL241486  42.933  10.449   5.866
 3197POPC   C1A41487  43.277  10.660   6.211
 3197POPC   D2A41488  43.407  10.500   6.636
 3197POPC   C3A41489  43.186  10.383   7.025
 3197POPC   C4A41490  43.222  10.740   7.364
 3197POPC   C1B41491  42.951  10.251   6.226
 3197POPC   C2B41492  42.876  10.372   6.608
 3197POPC   C3B41493  42.699  10.221   6.955
 3197POPC   C4B41494  42.787  10.505   7.300
 3198POPC   NC341495  11.045   9.235   5.443
 3198POPC   PO441496  11.485   8.634   5.411
 3198POPC   GL141497  11.232   8.821   5.750
 3198POPC   GL241498  11.401   9.163   5.833
 3198POPC   C1A41499  11.092   8.890   6.170
 3198POPC   D2A41500  11.169   9.080   6.587
 3198POPC   C3A41501  11.177   8.838   6.981
 3198POPC   C4A41502  11.617   8.761   7.171
 3198POPC   C1B41503  11.555   9.061   6.253
 3198POPC   C2B41504  11.681   8.991   6.704
 3198POPC   C3B41505  11.494   9.232   7.051
 3198POPC   C4B41506  11.070   9.285   7.214
 3199POPC   NC341507  39.504  14.330   5.422
 3199POPC   PO441508  38.916  14.492   5.410
 3199POPC   GL141509  39.151  14.689   5.701
 3199POPC   GL241510  39.417  14.495   5.897
 3199POPC   C1A41511  39.016  14.724   6.109
 3199POPC   D2A41512  39.138  14.515   6.483
 3199POPC   C3A41513  39.053  14.692   6.869
 3199POPC   C4A41514  39.219  14.541   7.176
 3199POPC   C1B41515  39.413  14.173   6.231
 3199POPC   C2B41516  39.581  14.054   6.605
 3199POPC   C3B41517  39.618  14.399   6.883
 3199POPC   C4B41518  39.625  14.306   7.310
 3200POPC   NC341519   5.396  31.268   5.081
 3200POPC   PO441520   5.767  31.727   5.489
 3200POPC   GL141521   6.015  31.522   5.824
 3200POPC   GL241522   5.813  31.267   5.976
 3200POPC   C1A41523   6.242  31.444   6.231
 3200POPC   D2A41524   6.399  31.593   6.631
 3200POPC   C3A41525   6.290  31.373   6.994
 3200POPC   C4A41526   5.971  31.579   7.253
 3200POPC   C1B41527   5.738  31.545   6.287
 3200POPC   C2B41528   5.843  31.573   6.709
 3200POPC   C3B41529   5.510  31.628   6.983
 3200POPC   C4B41530   5.468  31.523   7.378
 3201POPC   NC341531  39.590  11.628   5.438
 3201POPC   PO441532  39.359  12.280   5.297
 3201POPC   GL141533  39.317  12.120   5.755
 3201POPC   GL241534  39.525  11.854   5.893
 3201POPC   C1A41535  39.083  12.186   6.171
 3201POPC   D2A41536  39.143  12.113   6.624
 3201POPC   C3A41537  39.265  12.279   7.028
 3201POPC   C4A41538  39.064  12.197   7.419
 3201POPC   C1B41539  39.536  11.986   6.344
 3201POPC   C2B41540  39.583  11.924   6.815
 3201POPC   C3B41541  39.642  12.008   7.257
 3201POPC   C4B41542  39.517  12.087   7.685
 3202POPC   NC341543   2.566  10.514   5.202
 3202POPC   PO441544   3.140  10.909   5.254
 3202POPC   GL141545   2.917  10.646   5.622
 3202POPC   GL241546   2.864  10.273   5.740
 3202POPC   C1A41547   2.637  10.699   6.029
 3202POPC   D2A41548   2.526  10.857   6.488
 3202POPC   C3A41549   2.747  10.660   6.878
 3202POPC   C4A41550   2.619  10.324   7.191
 3202POPC   C1B41551   2.652  10.192   6.189
 3202POPC   C2B41552   2.755  10.168   6.666
 3202POPC   C3B41553   3.057  10.150   7.040
 3202POPC   C4B41554   2.987  10.200   7.539
 3203POPC   NC341555   6.220  18.871   5.298
 3203POPC   PO441556   5.574  19.156   5.332
 3203POPC   GL141557   5.891  19.151   5.711
 3203POPC   GL241558   5.886  18.837   5.859
 3203POPC   C1A41559   5.794  19.228   6.189
 3203POPC   D2A41560   5.612  19.415   6.574
 3203POPC   C3A41561   5.799  19.218   6.916
 3203POPC   C4A41562   5.938  19.360   7.330
 3203POPC   C1B41563   5.949  18.699   6.298
 3203POPC   C2B41564   5.816  18.727   6.746
 3203POPC   C3B41565   6.114  18.853   7.095
 3203POPC   C4B41566   6.122  18.936   7.550
 3204POPC   NC341567  32.604   9.337   5.597
 3204POPC   PO441568  32.012   9.160   5.480
 3204POPC   GL141569  32.110   9.161   5.882
 3204POPC   GL241570  32.318   8.888   5.902
 3204POPC   C1A41571  32.158   9.114   6.317
 3204POPC   D2A41572  32.119   9.351   6.666
 3204POPC   C3A41573  32.050   9.037   6.880
 3204POPC   C4A41574  31.868   8.941   7.255
 3204POPC   C1B41575  32.654   9.058   6.177
 3204POPC   C2B41576  32.612   9.310   6.501
 3204POPC   C3B41577  32.560   9.184   6.908
 3204POPC   C4B41578  32.382   8.968   7.233
 3205POPC   NC341579  18.047  17.754   5.523
 3205POPC   PO441580  18.429  17.287   5.165
 3205POPC   GL141581  18.485  17.437   5.616
 3205POPC   GL241582  18.253  17.235   5.788
 3205POPC   C1A41583  18.574  17.617   6.056
 3205POPC   D2A41584  18.601  17.833   6.475
 3205POPC   C3A41585  18.228  17.679   6.704
 3205POPC   C4A41586  18.006  17.772   7.077
 3205POPC   C1B41587  18.177  17.329   6.243
 3205POPC   C2B41588  18.168  17.105   6.641
 3205POPC   C3B41589  18.242  17.264   7.043
 3205POPC   C4B41590  17.890  17.280   7.299
 3206POPC   NC341591   3.894  21.208   5.455
 3206POPC   PO441592   3.750  21.843   5.499
 3206POPC   GL141593   3.641  21.569   5.855
 3206POPC   GL241594   3.372  21.330   5.802
 3206POPC   C1A41595   3.457  21.459   6.271
 3206POPC   D2A41596   3.270  21.300   6.624
 3206POPC   C3A41597   3.581  21.375   6.927
 3206POPC   C4A41598   3.662  21.521   7.333
 3206POPC   C1B41599   3.216  21.010   6.137
 3206POPC   C2B41600   3.216  20.798   6.545
 3206POPC   C3B41601   3.200  20.949   6.973
 3206POPC   C4B41602   3.389  21.090   7.320
 3207POPC   NC341603  39.757  31.576   5.366
 3207POPC   PO441604  40.097  30.962   5.364
 3207POPC   GL141605  39.870  31.178   5.712
 3207POPC   GL241606  39.999  31.546   5.805
 3207POPC   C1A41607  39.799  31.262   6.158
 3207POPC   D2A41608  40.041  31.234   6.538
 3207POPC   C3A41609  39.831  31.357   6.924
 3207POPC   C4A41610  39.933  31.209   7.313
 3207POPC   C1B41611  40.185  31.646   6.206
 3207POPC   C2B41612  40.218  31.738   6.660
 3207POPC   C3B41613  40.258  31.602   7.092
 3207POPC   C4B41614  40.136  31.668   7.533
 3208POPC   NC341615  32.544  32.836   5.518
 3208POPC   PO441616  32.068  33.374   5.681
 3208POPC   GL141617  32.200  33.001   5.883
 3208POPC   GL241618  32.554  32.999   5.988
 3208POPC   C1A41619  32.177  32.925   6.323
 3208POPC   D2A41620  32.254  33.195   6.666
 3208POPC   C3A41621  32.234  33.005   7.054
 3208POPC   C4A41622  32.187  33.097   7.494
 3208POPC   C1B41623  32.578  32.612   6.189
 3208POPC   C2B41624  32.612  32.438   6.579
 3208POPC   C3B41625  32.609  32.695   6.929
 3208POPC   C4B41626  32.471  32.705   7.383
 3209POPC   NC341627   9.972   2.951   5.303
 3209POPC   PO441628   9.589   2.569   5.609
 3209POPC   GL141629   9.882   2.737   5.926
 3209POPC   GL241630  10.004   3.057   5.794
 3209POPC   C1A41631   9.803   2.577   6.358
 3209POPC   D2A41632   9.448   2.407   6.567
 3209POPC   C3A41633   9.367   2.568   6.988
 3209POPC   C4A41634   9.617   2.631   7.330
 3209POPC   C1B41635   9.938   3.246   6.173
 3209POPC   C2B41636   9.860   3.048   6.549
 3209POPC   C3B41637   9.758   2.888   6.916
 3209POPC   C4B41638   9.749   3.108   7.329
 3210POPC   NC341639  19.038  33.699   5.477
 3210POPC   PO441640  19.390  34.159   5.068
 3210POPC   GL141641  19.289  34.170   5.646
 3210POPC   GL241642  19.001  33.988   5.867
 3210POPC   C1A41643  19.229  34.229   6.207
 3210POPC   D2A41644  19.010  34.006   6.581
 3210POPC   C3A41645  19.009  34.194   7.027
 3210POPC   C4A41646  18.868  34.023   7.431
 3210POPC   C1B41647  18.989  33.640   6.181
 3210POPC   C2B41648  18.955  33.440   6.601
 3210POPC   C3B41649  18.769  33.430   6.991
 3210POPC   C4B41650  18.908  33.524   7.372
 3211POPC   NC341651  41.495  23.927   5.461
 3211POPC   PO441652  41.959  23.482   5.517
 3211POPC   GL141653  41.801  23.723   5.855
 3211POPC   GL241654  41.433  23.730   5.930
 3211POPC   C1A41655  41.783  23.563   6.272
 3211POPC   D2A41656  41.914  23.345   6.635
 3211POPC   C3A41657  41.838  23.598   6.984
 3211POPC   C4A41658  41.759  23.780   7.403
 3211POPC   C1B41659  41.353  23.855   6.346
 3211POPC   C2B41660  41.467  23.916   6.787
 3211POPC   C3B41661  41.305  23.866   7.206
 3211POPC   C4B41662  41.293  23.969   7.697
 3212POPC   NC341663  31.923  35.045   5.383
 3212POPC   PO441664  32.274  34.336   5.501
 3212POPC   GL141665  32.202  34.505   5.902
 3212POPC   GL241666  32.106  34.855   5.814
 3212POPC   C1A41667  32.340  34.443   6.325
 3212POPC   D2A41668  32.611  34.283   6.661
 3212POPC   C3A41669  32.376  34.403   7.024
 3212POPC   C4A41670  32.429  34.388   7.468
 3212POPC   C1B41671  32.295  34.961   6.176
 3212POPC   C2B41672  32.126  34.869   6.550
 3212POPC   C3B41673  32.254  34.916   6.934
 3212POPC   C4B41674  32.288  34.825   7.321
 3213POPC   NC341675  26.666  23.898   5.443
 3213POPC   PO441676  27.282  23.624   5.357
 3213POPC   GL141677  26.991  23.582   5.714
 3213POPC   GL241678  27.158  23.862   5.825
 3213POPC   C1A41679  26.672  23.675   6.091
 3213POPC   D2A41680  26.490  23.517   6.517
 3213POPC   C3A41681  26.438  23.822   6.853
 3213POPC   C4A41682  26.591  23.847   7.258
 3213POPC   C1B41683  27.160  23.631   6.235
 3213POPC   C2B41684  26.977  23.639   6.664
 3213POPC   C3B41685  27.082  23.894   7.039
 3213POPC   C4B41686  27.193  24.027   7.458
 3214POPC   NC341687  36.771  44.509   5.452
 3214POPC   PO441688  37.074   0.120   5.402
 3214POPC   GL141689  36.843  44.934   5.835
 3214POPC   GL241690  36.620  44.618   5.920
 3214POPC   C1A41691  36.927  44.802   6.293
 3214POPC   D2A41692  37.209  44.590   6.596
 3214POPC   C3A41693  37.103  44.623   7.034
 3214POPC   C4A41694  37.062  44.878   7.389
 3214POPC   C1B41695  36.773  44.306   6.245
 3214POPC   C2B41696  36.762  44.315   6.695
 3214POPC   C3B41697  36.909  44.142   7.064
 3214POPC   C4B41698  36.952  44.325   7.471
 3215POPC   NC341699  28.609  18.478   5.458
 3215POPC   PO441700  28.100  18.146   5.341
 3215POPC   GL141701  28.258  18.268   5.751
 3215POPC   GL241702  28.190  18.624   5.782
 3215POPC   C1A41703  28.560  18.241   6.111
 3215POPC   D2A41704  28.724  18.406   6.507
 3215POPC   C3A41705  28.519  18.186   6.847
 3215POPC   C4A41706  28.420  18.328   7.244
 3215POPC   C1B41707  28.350  18.705   6.225
 3215POPC   C2B41708  28.299  18.625   6.660
 3215POPC   C3B41709  28.178  18.731   7.046
 3215POPC   C4B41710  28.036  18.603   7.431
 3216POPC   NC341711  15.432  24.152   5.432
 3216POPC   PO441712  15.422  24.793   5.345
 3216POPC   GL141713  15.266  24.612   5.784
 3216POPC   GL241714  15.017  24.299   5.818
 3216POPC   C1A41715  15.266  24.517   6.259
 3216POPC   D2A41716  15.201  24.368   6.692
 3216POPC   C3A41717  15.395  24.556   7.051
 3216POPC   C4A41718  15.333  24.281   7.379
 3216POPC   C1B41719  14.805  24.656   6.077
 3216POPC   C2B41720  14.925  24.940   6.431
 3216POPC   C3B41721  14.977  24.850   6.871
 3216POPC   C4B41722  14.915  24.512   7.176
 3217POPC   NC341723  17.836  32.305   5.450
 3217POPC   PO441724  17.218  32.096   5.463
 3217POPC   GL141725  17.438  32.376   5.791
 3217POPC   GL241726  17.792  32.405   5.951
 3217POPC   C1A41727  17.303  32.515   6.200
 3217POPC   D2A41728  17.175  32.286   6.580
 3217POPC   C3A41729  17.462  32.397   6.923
 3217POPC   C4A41730  17.373  32.498   7.357
 3217POPC   C1B41731  17.598  32.112   6.249
 3217POPC   C2B41732  17.568  31.945   6.663
 3217POPC   C3B41733  17.488  31.927   7.101
 3217POPC   C4B41734  17.504  31.956   7.530
 3218POPC   NC341735  27.999  16.287   5.412
 3218POPC   PO441736  27.313  16.072   5.433
 3218POPC   GL141737  27.475  15.888   5.787
 3218POPC   GL241738  27.828  15.877   5.732
 3218POPC   C1A41739  27.399  15.875   6.234
 3218POPC   D2A41740  27.262  15.757   6.654
 3218POPC   C3A41741  27.396  15.993   7.017
 3218POPC   C4A41742  27.286  16.050   7.464
 3218POPC   C1B41743  27.899  15.752   6.159
 3218POPC   C2B41744  27.761  15.670   6.571
 3218POPC   C3B41745  27.915  15.864   6.942
 3218POPC   C4B41746  27.802  15.996   7.335
 3219POPC   NC341747  43.810  24.289   5.568
 3219POPC   PO441748  44.269  24.621   5.203
 3219POPC   GL141749  43.948  24.788   5.646
 3219POPC   GL241750  43.566  24.881   5.665
 3219POPC   C1A41751  43.895  24.732   6.147
 3219POPC   D2A41752  43.972  24.503   6.579
 3219POPC   C3A41753  43.921  24.654   7.024
 3219POPC   C4A41754  43.945  24.759   7.490
 3219POPC   C1B41755  43.477  25.032   6.080
 3219POPC   C2B41756  43.520  24.845   6.492
 3219POPC   C3B41757  43.419  24.634   6.874
 3219POPC   C4B41758  43.497  24.838   7.258
 3220POPC   NC341759  19.562   9.321   5.448
 3220POPC   PO441760  19.974   9.856   5.307
 3220POPC   GL141761  19.943   9.746   5.756
 3220POPC   GL241762  20.047  10.069   5.856
 3220POPC   C1A41763  19.907   9.528   6.186
 3220POPC   D2A41764  20.047   9.461   6.635
 3220POPC   C3A41765  19.810   9.620   7.006
 3220POPC   C4A41766  19.969   9.666   7.457
 3220POPC   C1B41767  20.027  10.035   6.316
 3220POPC   C2B41768  20.134  10.157   6.746
 3220POPC   C3B41769  19.968  10.083   7.138
 3220POPC   C4B41770  19.649  10.052   7.452
 3221POPC   NC341771  28.573  36.252   5.415
 3221POPC   PO441772  28.234  35.754   5.389
 3221POPC   GL141773  28.307  35.972   5.763
 3221POPC   GL241774  28.626  35.930   5.830
 3221POPC   C1A41775  28.224  35.923   6.223
 3221POPC   D2A41776  28.135  35.625   6.572
 3221POPC   C3A41777  28.260  35.773   6.988
 3221POPC   C4A41778  28.179  36.132   7.215
 3221POPC   C1B41779  28.512  36.330   6.071
 3221POPC   C2B41780  28.457  36.312   6.519
 3221POPC   C3B41781  28.596  36.229   6.937
 3221POPC   C4B41782  28.495  36.501   7.300
 3222POPC   NC341783  38.087   3.693   5.519
 3222POPC   PO441784  38.768   3.692   5.435
 3222POPC   GL141785  38.727   3.548   5.860
 3222POPC   GL241786  38.399   3.685   5.918
 3222POPC   C1A41787  38.772   3.668   6.303
 3222POPC   D2A41788  38.712   3.916   6.683
 3222POPC   C3A41789  38.889   3.684   7.057
 3222POPC   C4A41790  38.676   3.479   7.384
 3222POPC   C1B41791  38.170   3.627   6.290
 3222POPC   C2B41792  38.396   3.512   6.614
 3222POPC   C3B41793  38.388   3.663   6.981
 3222POPC   C4B41794  38.162   3.624   7.289
 3223POPC   NC341795  22.502   5.282   5.404
 3223POPC   PO441796  22.151   4.755   5.444
 3223POPC   GL141797  22.298   4.986   5.815
 3223POPC   GL241798  22.155   5.352   5.781
 3223POPC   C1A41799  22.262   4.869   6.284
 3223POPC   D2A41800  21.978   4.976   6.660
 3223POPC   C3A41801  22.133   5.051   7.095
 3223POPC   C4A41802  22.354   4.859   7.466
 3223POPC   C1B41803  22.382   5.349   6.170
 3223POPC   C2B41804  22.280   5.395   6.631
 3223POPC   C3B41805  22.204   5.571   7.059
 3223POPC   C4B41806  22.368   5.366   7.450
 3224POPC   NC341807  13.615   2.975   5.330
 3224POPC   PO441808  14.084   2.530   5.409
 3224POPC   GL141809  13.885   2.807   5.751
 3224POPC   GL241810  13.532   2.804   5.821
 3224POPC   C1A41811  13.854   2.741   6.222
 3224POPC   D2A41812  13.670   2.871   6.617
 3224POPC   C3A41813  13.776   2.833   7.091
 3224POPC   C4A41814  13.729   2.926   7.571
 3224POPC   C1B41815  13.432   3.067   6.162
 3224POPC   C2B41816  13.158   3.098   6.519
 3224POPC   C3B41817  13.291   3.023   6.907
 3224POPC   C4B41818  13.393   3.143   7.286
 3225POPC   NC341819  34.826  28.934   5.408
 3225POPC   PO441820  34.350  29.502   5.388
 3225POPC   GL141821  34.507  29.235   5.697
 3225POPC   GL241822  34.847  29.384   5.664
 3225POPC   C1A41823  34.363  29.061   6.112
 3225POPC   D2A41824  34.284  29.152   6.554
 3225POPC   C3A41825  34.618  29.065   6.846
 3225POPC   C4A41826  34.551  29.143   7.252
 3225POPC   C1B41827  34.749  29.415   6.114
 3225POPC   C2B41828  34.677  29.483   6.556
 3225POPC   C3B41829  34.836  29.521   6.992
 3225POPC   C4B41830  34.917  29.422   7.456
 3226POPC   NC341831  12.593  25.409   5.541
 3226POPC   PO441832  12.224  24.850   5.322
 3226POPC   GL141833  12.215  25.109   5.728
 3226POPC   GL241834  11.935  25.400   5.756
 3226POPC   C1A41835  12.479  25.045   6.130
 3226POPC   D2A41836  12.577  25.050   6.573
 3226POPC   C3A41837  12.225  25.062   6.858
 3226POPC   C4A41838  12.173  24.921   7.283
 3226POPC   C1B41839  12.171  25.453   6.160
 3226POPC   C2B41840  12.215  25.534   6.629
 3226POPC   C3B41841  12.100  25.496   7.087
 3226POPC   C4B41842  11.806  25.266   7.311
 3227POPC   NC341843  37.836  15.245   5.015
 3227POPC   PO441844  37.264  15.317   5.316
 3227POPC   GL141845  37.575  15.137   5.648
 3227POPC   GL241846  37.876  15.345   5.594
 3227POPC   C1A41847  37.519  14.962   6.118
 3227POPC   D2A41848  37.509  14.770   6.564
 3227POPC   C3A41849  37.784  14.854   6.927
 3227POPC   C4A41850  37.573  15.034   7.291
 3227POPC   C1B41851  37.720  15.444   6.039
 3227POPC   C2B41852  37.762  15.254   6.490
 3227POPC   C3B41853  37.743  15.416   6.944
 3227POPC   C4B41854  37.850  15.433   7.401
 3228POPC   NC341855  26.218  33.504   5.479
 3228POPC   PO441856  25.849  34.078   5.519
 3228POPC   GL141857  26.106  33.897   5.803
 3228POPC   GL241858  25.874  33.672   5.852
 3228POPC   C1A41859  26.265  33.741   6.200
 3228POPC   D2A41860  26.526  33.754   6.561
 3228POPC   C3A41861  26.259  33.751   6.891
 3228POPC   C4A41862  26.126  33.835   7.290
 3228POPC   C1B41863  25.634  33.777   6.225
 3228POPC   C2B41864  25.756  33.812   6.680
 3228POPC   C3B41865  25.832  33.493   7.001
 3228POPC   C4B41866  25.813  33.443   7.439
 3229POPC   NC341867   1.951  28.569   5.429
 3229POPC   PO441868   2.389  28.045   5.259
 3229POPC   GL141869   2.276  28.251   5.676
 3229POPC   GL241870   2.075  27.948   5.697
 3229POPC   C1A41871   1.981  28.413   6.065
 3229POPC   D2A41872   1.754  28.635   6.433
 3229POPC   C3A41873   1.918  28.481   6.837
 3229POPC   C4A41874   2.015  28.563   7.281
 3229POPC   C1B41875   1.872  27.901   6.080
 3229POPC   C2B41876   1.739  28.119   6.459
 3229POPC   C3B41877   1.740  28.000   6.882
 3229POPC   C4B41878   2.082  28.073   7.129
 3230POPC   NC341879  33.118  12.529   5.301
 3230POPC   PO441880  32.838  13.098   5.361
 3230POPC   GL141881  32.991  12.929   5.715
 3230POPC   GL241882  32.854  13.196   5.920
 3230POPC   C1A41883  33.249  12.749   6.045
 3230POPC   D2A41884  33.115  12.558   6.431
 3230POPC   C3A41885  33.201  12.729   6.848
 3230POPC   C4A41886  33.068  12.629   7.267
 3230POPC   C1B41887  32.927  13.041   6.353
 3230POPC   C2B41888  32.894  13.166   6.788
 3230POPC   C3B41889  32.889  13.111   7.275
 3230POPC   C4B41890  32.712  13.081   7.759
 3231POPC   NC341891   0.171   1.443   5.063
 3231POPC   PO441892   0.496   0.907   5.388
 3231POPC   GL141893   0.546   1.003   5.817
 3231POPC   GL241894   0.630   1.361   5.847
 3231POPC   C1A41895   0.631   0.998   6.255
 3231POPC   D2A41896   0.461   1.279   6.531
 3231POPC   C3A41897   0.476   1.148   6.933
 3231POPC   C4A41898   0.573   1.431   7.250
 3231POPC   C1B41899   0.236   1.439   6.094
 3231POPC   C2B41900   0.091   1.673   6.482
 3231POPC   C3B41901   0.232   1.601   6.893
 3231POPC   C4B41902   0.065   1.484   7.285
 3232POPC   NC341903  14.535  14.082   5.431
 3232POPC   PO441904  15.106  13.751   5.472
 3232POPC   GL141905  15.030  13.649   5.891
 3232POPC   GL241906  14.795  13.353   5.823
 3232POPC   C1A41907  15.330  13.605   6.237
 3232POPC   D2A41908  15.572  13.890   6.528
 3232POPC   C3A41909  15.420  13.902   6.952
 3232POPC   C4A41910  15.404  13.715   7.360
 3232POPC   C1B41911  14.875  13.289   6.241
 3232POPC   C2B41912  15.050  13.391   6.629
 3232POPC   C3B41913  15.015  13.567   7.020
 3232POPC   C4B41914  15.010  13.396   7.424
 3233POPC   NC341915   4.586  18.025   5.393
 3233POPC   PO441916   4.990  17.461   5.437
 3233POPC   GL141917   5.067  17.611   5.846
 3233POPC   GL241918   4.747  17.805   5.843
 3233POPC   C1A41919   5.265  17.534   6.314
 3233POPC   D2A41920   5.062  17.326   6.712
 3233POPC   C3A41921   5.159  17.257   7.186
 3233POPC   C4A41922   4.982  17.183   7.641
 3233POPC   C1B41923   4.955  17.918   6.226
 3233POPC   C2B41924   5.122  17.934   6.630
 3233POPC   C3B41925   5.012  17.743   7.000
 3233POPC   C4B41926   5.194  17.729   7.380
 3234POPC   NC341927  24.428  21.571   5.447
 3234POPC   PO441928  24.416  20.899   5.332
 3234POPC   GL141929  24.312  21.121   5.718
 3234POPC   GL241930  24.633  21.306   5.823
 3234POPC   C1A41931  24.288  21.255   6.171
 3234POPC   D2A41932  24.538  21.464   6.476
 3234POPC   C3A41933  24.393  21.344   6.864
 3234POPC   C4A41934  24.346  21.049   7.184
 3234POPC   C1B41935  24.754  21.721   6.066
 3234POPC   C2B41936  24.805  21.895   6.501
 3234POPC   C3B41937  24.904  21.748   6.897
 3234POPC   C4B41938  24.803  21.416   7.198
 3235POPC   NC341939   1.395  35.931   5.402
 3235POPC   PO441940   0.949  36.544   5.447
 3235POPC   GL141941   1.277  36.326   5.709
 3235POPC   GL241942   1.260  35.973   5.900
 3235POPC   C1A41943   1.346  36.391   6.147
 3235POPC   D2A41944   1.235  36.085   6.445
 3235POPC   C3A41945   1.188  36.232   6.833
 3235POPC   C4A41946   1.374  36.396   7.181
 3235POPC   C1B41947   1.023  35.695   6.200
 3235POPC   C2B41948   0.930  35.642   6.655
 3235POPC   C3B41949   0.910  35.866   7.039
 3235POPC   C4B41950   0.921  35.757   7.483
 3236POPC   NC341951   8.419  21.210   5.228
 3236POPC   PO441952   7.891  21.488   5.430
 3236POPC   GL141953   8.223  21.414   5.760
 3236POPC   GL241954   8.372  21.065   5.842
 3236POPC   C1A41955   8.348  21.474   6.211
 3236POPC   D2A41956   8.451  21.296   6.636
 3236POPC   C3A41957   8.345  21.573   7.007
 3236POPC   C4A41958   7.957  21.636   7.179
 3236POPC   C1B41959   8.062  21.022   6.221
 3236POPC   C2B41960   7.913  21.257   6.621
 3236POPC   C3B41961   7.933  21.121   7.055
 3236POPC   C4B41962   8.330  21.116   7.232
 3237POPC   NC341963  36.720  22.731   5.249
 3237POPC   PO441964  37.137  23.180   5.282
 3237POPC   GL141965  36.871  22.913   5.688
 3237POPC   GL241966  36.608  22.632   5.762
 3237POPC   C1A41967  36.986  22.685   6.101
 3237POPC   D2A41968  36.976  22.922   6.497
 3237POPC   C3A41969  36.834  22.750   6.875
 3237POPC   C4A41970  36.911  22.941   7.252
 3237POPC   C1B41971  36.520  22.591   6.238
 3237POPC   C2B41972  36.376  22.467   6.643
 3237POPC   C3B41973  36.418  22.496   7.096
 3237POPC   C4B41974  36.546  22.706   7.488
 3238POPC   NC341975  34.673  14.115   5.300
 3238POPC   PO441976  34.088  14.459   5.366
 3238POPC   GL141977  34.351  14.394   5.713
 3238POPC   GL241978  34.726  14.372   5.732
 3238POPC   C1A41979  34.376  14.338   6.139
 3238POPC   D2A41980  34.601  14.532   6.491
 3238POPC   C3A41981  34.396  14.365   6.841
 3238POPC   C4A41982  34.322  14.460   7.235
 3238POPC   C1B41983  34.884  14.175   6.092
 3238POPC   C2B41984  35.057  14.282   6.466
 3238POPC   C3B41985  34.925  14.184   6.838
 3238POPC   C4B41986  34.811  14.311   7.201
 3239POPC   NC341987  38.479  18.252   5.208
 3239POPC   PO441988  38.139  18.842   5.266
 3239POPC   GL141989  38.255  18.506   5.608
 3239POPC   GL241990  38.169  18.155   5.644
 3239POPC   C1A41991  38.461  18.353   6.019
 3239POPC   D2A41992  38.361  18.201   6.445
 3239POPC   C3A41993  38.616  18.338   6.801
 3239POPC   C4A41994  38.847  18.435   7.220
 3239POPC   C1B41995  38.119  17.904   6.076
 3239POPC   C2B41996  38.082  17.784   6.545
 3239POPC   C3B41997  38.337  17.812   6.898
 3239POPC   C4B41998  38.446  18.097   7.217
 3240POPC   NC341999  22.081   7.121   5.171
 3240POPC   PO442000  22.227   7.783   5.237
 3240POPC   GL142001  22.179   7.600   5.665
 3240POPC   GL242002  22.519   7.666   5.747
 3240POPC   C1A42003  22.271   7.459   6.135
 3240POPC   D2A42004  22.186   7.132   6.436
 3240POPC   C3A42005  22.192   7.291   6.849
 3240POPC   C4A42006  22.220   7.226   7.285
 3240POPC   C1B42007  22.565   7.898   6.121
 3240POPC   C2B42008  22.475   7.796   6.549
 3240POPC   C3B42009  22.553   7.636   6.976
 3240POPC   C4B42010  22.258   7.725   7.244
 3241POPC   NC342011  19.670  17.839   5.371
 3241POPC   PO442012  20.155  17.458   5.444
 3241POPC   GL142013  19.860  17.538   5.805
 3241POPC   GL242014  19.510  17.453   5.701
 3241POPC   C1A42015  19.921  17.583   6.281
 3241POPC   D2A42016  19.968  17.879   6.655
 3241POPC   C3A42017  20.029  17.705   7.071
 3241POPC   C4A42018  19.687  17.681   7.376
 3241POPC   C1B42019  19.478  17.362   6.125
 3241POPC   C2B42020  19.612  17.222   6.524
 3241POPC   C3B42021  19.603  17.373   6.938
 3241POPC   C4B42022  19.644  17.105   7.282
 3242POPC   NC342023  24.661  27.818   5.295
 3242POPC   PO442024  24.249  27.790   5.835
 3242POPC   GL142025  24.653  27.877   5.949
 3242POPC   GL242026  24.730  27.564   5.741
 3242POPC   C1A42027  24.705  27.914   6.402
 3242POPC   D2A42028  24.515  27.588   6.685
 3242POPC   C3A42029  24.420  27.614   7.104
 3242POPC   C4A42030  23.970  27.712   7.193
 3242POPC   C1B42031  24.878  27.477   6.183
 3242POPC   C2B42032  24.994  27.469   6.642
 3242POPC   C3B42033  24.789  27.250   7.012
 3242POPC   C4B42034  24.762  27.294   7.482
 3243POPC   NC342035   9.180  29.413   5.426
 3243POPC   PO442036   9.261  28.809   5.775
 3243POPC   GL142037   9.027  29.164   5.849
 3243POPC   GL242038   8.673  29.195   5.770
 3243POPC   C1A42039   8.970  29.204   6.251
 3243POPC   D2A42040   9.206  29.319   6.587
 3243POPC   C3A42041   9.233  29.002   6.903
 3243POPC   C4A42042   9.227  29.241   7.256
 3243POPC   C1B42043   8.470  29.263   6.183
 3243POPC   C2B42044   8.648  29.417   6.585
 3243POPC   C3B42045   8.788  29.220   6.927
 3243POPC   C4B42046   8.590  29.024   7.233
 3244POPC   NC342047  36.308  30.884   5.458
 3244POPC   PO442048  35.831  30.509   5.219
 3244POPC   GL142049  36.030  30.453   5.666
 3244POPC   GL242050  36.307  30.621   5.892
 3244POPC   C1A42051  35.906  30.422   6.132
 3244POPC   D2A42052  36.031  30.217   6.536
 3244POPC   C3A42053  35.977  30.462   6.921
 3244POPC   C4A42054  35.855  30.760   7.256
 3244POPC   C1B42055  36.329  30.605   6.364
 3244POPC   C2B42056  36.200  30.839   6.680
 3244POPC   C3B42057  36.368  31.017   7.021
 3244POPC   C4B42058  36.350  30.650   7.210
 3245POPC   NC342059  33.284  16.326   5.389
 3245POPC   PO442060  32.964  15.791   5.563
 3245POPC   GL142061  33.278  15.924   5.864
 3245POPC   GL242062  33.269  16.287   5.898
 3245POPC   C1A42063  33.323  15.900   6.334
 3245POPC   D2A42064  32.950  15.779   6.577
 3245POPC   C3A42065  33.003  15.673   6.996
 3245POPC   C4A42066  33.145  15.917   7.329
 3245POPC   C1B42067  32.941  16.224   6.211
 3245POPC   C2B42068  33.054  16.287   6.626
 3245POPC   C3B42069  32.852  16.172   6.977
 3245POPC   C4B42070  32.729  16.229   7.385
 3246POPC   NC342071  31.096   6.411   5.516
 3246POPC   PO442072  30.380   6.462   5.384
 3246POPC   GL142073  30.641   6.555   5.770
 3246POPC   GL242074  30.845   6.868   5.743
 3246POPC   C1A42075  30.837   6.600   6.194
 3246POPC   D2A42076  30.692   6.679   6.617
 3246POPC   C3A42077  30.536   6.381   6.923
 3246POPC   C4A42078  30.841   6.215   7.195
 3246POPC   C1B42079  30.556   7.023   6.084
 3246POPC   C2B42080  30.500   7.166   6.523
 3246POPC   C3B42081  30.659   7.089   6.900
 3246POPC   C4B42082  30.602   6.801   7.218
 3247POPC   NC342083   1.512  34.922   5.041
 3247POPC   PO442084   1.420  35.488   5.245
 3247POPC   GL142085   1.360  35.471   5.716
 3247POPC   GL242086   1.654  35.640   5.814
 3247POPC   C1A42087   1.170  35.199   6.075
 3247POPC   D2A42088   1.114  34.928   6.477
 3247POPC   C3A42089   0.916  35.121   6.833
 3247POPC   C4A42090   1.113  35.409   7.122
 3247POPC   C1B42091   1.516  35.543   6.245
 3247POPC   C2B42092   1.388  35.374   6.653
 3247POPC   C3B42093   1.606  35.469   7.034
 3247POPC   C4B42094   1.452  35.866   7.126
 3248POPC   NC342095  21.180   5.838   5.557
 3248POPC   PO442096  21.698   6.247   5.686
 3248POPC   GL142097  21.424   6.070   5.921
 3248POPC   GL242098  21.593   5.766   5.871
 3248POPC   C1A42099  21.200   5.880   6.257
 3248POPC   D2A42100  21.113   6.017   6.665
 3248POPC   C3A42101  21.088   5.787   7.041
 3248POPC   C4A42102  20.997   6.152   7.257
 3248POPC   C1B42103  21.712   5.939   6.314
 3248POPC   C2B42104  21.855   5.675   6.655
 3248POPC   C3B42105  21.652   5.654   7.025
 3248POPC   C4B42106  21.512   6.039   7.088
 3249POPC   NC342107   8.611  16.692   5.295
 3249POPC   PO442108   8.038  16.696   5.077
 3249POPC   GL142109   8.054  16.831   5.530
 3249POPC   GL242110   8.381  16.964   5.656
 3249POPC   C1A42111   8.034  16.849   5.996
 3249POPC   D2A42112   8.162  16.588   6.366
 3249POPC   C3A42113   8.168  16.678   6.826
 3249POPC   C4A42114   7.855  16.552   7.162
 3249POPC   C1B42115   8.531  16.809   6.049
 3249POPC   C2B42116   8.524  16.920   6.500
 3249POPC   C3B42117   8.543  17.046   6.900
 3249POPC   C4B42118   8.435  16.809   7.247
 3250POPC   NC342119  42.742  35.496   5.589
 3250POPC   PO442120  43.329  35.153   5.451
 3250POPC   GL142121  43.160  35.176   5.859
 3250POPC   GL242122  42.802  35.083   5.954
 3250POPC   C1A42123  43.213  35.217   6.308
 3250POPC   D2A42124  43.018  35.018   6.674
 3250POPC   C3A42125  43.101  35.208   7.096
 3250POPC   C4A42126  43.467  35.198   7.394
 3250POPC   C1B42127  42.730  35.368   6.329
 3250POPC   C2B42128  43.019  35.547   6.653
 3250POPC   C3B42129  42.974  35.727   7.029
 3250POPC   C4B42130  42.742  35.684   7.391
 3251POPC   NC342131  25.497  20.211   5.704
 3251POPC   PO442132  26.073  20.049   5.351
 3251POPC   GL142133  25.973  19.841   5.794
 3251POPC   GL242134  25.751  19.971   6.073
 3251POPC   C1A42135  26.035  19.566   6.163
 3251POPC   D2A42136  25.984  19.762   6.561
 3251POPC   C3A42137  26.018  19.469   6.879
 3251POPC   C4A42138  25.978  19.670   7.275
 3251POPC   C1B42139  26.197  20.093   6.199
 3251POPC   C2B42140  26.341  20.189   6.618
 3251POPC   C3B42141  26.100  20.115   7.009
 3251POPC   C4B42142  26.183  20.173   7.448
 3252POPC   NC342143   0.467  22.750   5.428
 3252POPC   PO442144   0.139  23.285   5.125
 3252POPC   GL142145   0.144  23.285   5.633
 3252POPC   GL242146   0.472  23.189   5.755
 3252POPC   C1A42147   0.137  23.025   6.083
 3252POPC   D2A42148   0.152  22.730   6.460
 3252POPC   C3A42149   0.128  22.890   6.881
 3252POPC   C4A42150   0.364  23.021   7.249
 3252POPC   C1B42151   0.638  22.899   6.104
 3252POPC   C2B42152   0.672  22.756   6.538
 3252POPC   C3B42153   0.575  22.607   6.944
 3252POPC   C4B42154   0.812  22.524   7.292
 3253POPC   NC342155   6.113  37.111   5.366
 3253POPC   PO442156   6.795  36.953   5.451
 3253POPC   GL142157   6.479  36.943   5.812
 3253POPC   GL242158   6.279  37.233   5.892
 3253POPC   C1A42159   6.523  36.888   6.259
 3253POPC   D2A42160   6.775  36.705   6.576
 3253POPC   C3A42161   6.780  36.809   6.982
 3253POPC   C4A42162   6.526  36.717   7.291
 3253POPC   C1B42163   6.299  37.359   6.329
 3253POPC   C2B42164   6.224  37.076   6.672
 3253POPC   C3B42165   6.409  37.161   7.037
 3253POPC   C4B42166   6.526  37.565   7.154
 3254POPC   NC342167  29.757  14.190   5.389
 3254POPC   PO442168  30.255  14.640   5.274
 3254POPC   GL142169  30.034  14.608   5.677
 3254POPC   GL242170  29.841  14.901   5.748
 3254POPC   C1A42171  29.833  14.402   6.043
 3254POPC   D2A42172  30.032  14.163   6.403
 3254POPC   C3A42173  29.802  14.235   6.765
 3254POPC   C4A42174  29.874  14.426   7.114
 3254POPC   C1B42175  29.676  14.882   6.145
 3254POPC   C2B42176  29.646  14.675   6.548
 3254POPC   C3B42177  29.687  14.895   6.965
 3254POPC   C4B42178  29.547  14.750   7.370
 3255POPC   NC342179  26.566  14.599   5.351
 3255POPC   PO442180  27.009  14.135   5.454
 3255POPC   GL142181  27.019  14.267   5.881
 3255POPC   GL242182  26.890  14.622   5.852
 3255POPC   C1A42183  26.966  14.394   6.335
 3255POPC   D2A42184  26.600  14.394   6.636
 3255POPC   C3A42185  26.672  14.286   7.069
 3255POPC   C4A42186  27.065  14.175   7.162
 3255POPC   C1B42187  26.985  14.903   6.204
 3255POPC   C2B42188  27.051  14.891   6.619
 3255POPC   C3B42189  26.744  14.826   6.930
 3255POPC   C4B42190  26.868  14.714   7.329
 3256POPC   NC342191  13.254  21.440   4.863
 3256POPC   PO442192  13.786  21.477   5.319
 3256POPC   GL142193  13.497  21.495   5.678
 3256POPC   GL242194  13.718  21.285   5.847
 3256POPC   C1A42195  13.437  21.595   6.149
 3256POPC   D2A42196  13.640  21.558   6.585
 3256POPC   C3A42197  13.719  21.438   7.023
 3256POPC   C4A42198  13.470  21.271   7.372
 3256POPC   C1B42199  13.912  21.242   6.279
 3256POPC   C2B42200  14.016  21.127   6.733
 3256POPC   C3B42201  13.824  20.967   7.167
 3256POPC   C4B42202  13.908  21.278   7.594
 3257POPC   NC342203  18.440  22.598   5.465
 3257POPC   PO442204  18.011  21.993   5.516
 3257POPC   GL142205  18.297  22.026   5.852
 3257POPC   GL242206  18.164  21.768   6.020
 3257POPC   C1A42207  18.335  22.206   6.279
 3257POPC   D2A42208  18.507  22.194   6.703
 3257POPC   C3A42209  18.310  22.181   7.061
 3257POPC   C4A42210  18.501  22.235   7.459
 3257POPC   C1B42211  17.884  21.970   6.299
 3257POPC   C2B42212  17.920  22.133   6.694
 3257POPC   C3B42213  17.830  21.944   7.074
 3257POPC   C4B42214  18.071  21.926   7.408
 3258POPC   NC342215  14.545  32.209   5.557
 3258POPC   PO442216  13.941  32.441   5.476
 3258POPC   GL142217  14.106  32.304   5.864
 3258POPC   GL242218  14.247  31.951   5.909
 3258POPC   C1A42219  14.400  32.378   6.190
 3258POPC   D2A42220  14.366  32.267   6.598
 3258POPC   C3A42221  14.677  32.441   6.835
 3258POPC   C4A42222  14.597  32.610   7.224
 3258POPC   C1B42223  14.632  31.926   6.228
 3258POPC   C2B42224  14.792  31.967   6.669
 3258POPC   C3B42225  14.522  32.023   7.053
 3258POPC   C4B42226  14.458  31.887   7.455
 3259POPC   NC342227  41.213   9.923   5.122
 3259POPC   PO442228  41.820  10.101   5.428
 3259POPC   GL142229  41.707   9.871   5.811
 3259POPC   GL242230  41.503   9.565   5.815
 3259POPC   C1A42231  41.858   9.761   6.235
 3259POPC   D2A42232  41.960   9.635   6.646
 3259POPC   C3A42233  41.611   9.604   6.935
 3259POPC   C4A42234  41.525   9.844   7.278
 3259POPC   C1B42235  41.336   9.815   6.178
 3259POPC   C2B42236  41.469   9.966   6.576
 3259POPC   C3B42237  41.228  10.101   6.916
 3259POPC   C4B42238  41.025   9.983   7.263
 3260POPC   NC342239  11.780  35.913   5.479
 3260POPC   PO442240  12.459  36.019   5.424
 3260POPC   GL142241  12.441  35.860   5.801
 3260POPC   GL242242  12.138  35.734   5.797
 3260POPC   C1A42243  12.328  36.072   6.145
 3260POPC   D2A42244  12.085  36.073   6.517
 3260POPC   C3A42245  12.232  35.875   6.888
 3260POPC   C4A42246  12.221  36.071   7.293
 3260POPC   C1B42247  12.024  35.652   6.221
 3260POPC   C2B42248  11.780  35.676   6.611
 3260POPC   C3B42249  11.839  35.604   7.055
 3260POPC   C4B42250  11.734  35.894   7.382
 3261POPC   NC342251  43.726  34.879   5.399
 3261POPC   PO442252  44.280  34.460   5.512
 3261POPC   GL142253  43.880  34.408   5.733
 3261POPC   GL242254  43.918  34.734   5.856
 3261POPC   C1A42255  43.595  34.417   6.124
 3261POPC   D2A42256  43.644  34.348   6.571
 3261POPC   C3A42257  43.912  34.615   6.801
 3261POPC   C4A42258  44.104  34.579   7.186
 3261POPC   C1B42259  43.634  34.975   6.116
 3261POPC   C2B42260  43.499  34.851   6.530
 3261POPC   C3B42261  43.553  35.001   6.929
 3261POPC   C4B42262  43.898  35.028   7.205
 3262POPC   NC342263   7.732  37.896   5.517
 3262POPC   PO442264   8.270  37.480   5.271
 3262POPC   GL142265   8.349  37.501   5.732
 3262POPC   GL242266   8.018  37.595   5.837
 3262POPC   C1A42267   8.408  37.711   6.154
 3262POPC   D2A42268   8.211  37.732   6.580
 3262POPC   C3A42269   8.299  37.553   7.009
 3262POPC   C4A42270   8.164  37.306   7.395
 3262POPC   C1B42271   7.977  37.977   6.164
 3262POPC   C2B42272   7.968  38.180   6.592
 3262POPC   C3B42273   8.028  37.986   7.020
 3262POPC   C4B42274   8.182  37.816   7.460
 3263POPC   NC342275  36.225  21.360   5.351
 3263POPC   PO442276  35.769  20.970   5.651
 3263POPC   GL142277  36.133  21.222   5.857
 3263POPC   GL242278  36.139  21.585   5.819
 3263POPC   C1A42279  36.334  21.330   6.270
 3263POPC   D2A42280  36.287  21.143   6.701
 3263POPC   C3A42281  36.335  21.433   7.046
 3263POPC   C4A42282  35.932  21.283   7.193
 3263POPC   C1B42283  35.918  21.697   6.196
 3263POPC   C2B42284  36.022  21.593   6.614
 3263POPC   C3B42285  35.945  21.771   6.998
 3263POPC   C4B42286  36.062  21.709   7.399
 3264POPC   NC342287  39.787  10.023   5.518
 3264POPC   PO442288  40.208   9.451   5.379
 3264POPC   GL142289  40.075   9.676   5.787
 3264POPC   GL242290  40.254   9.935   5.979
 3264POPC   C1A42291  39.913   9.579   6.213
 3264POPC   D2A42292  40.120   9.305   6.533
 3264POPC   C3A42293  40.284   9.486   6.910
 3264POPC   C4A42294  40.036   9.638   7.257
 3264POPC   C1B42295  39.887  10.106   6.221
 3264POPC   C2B42296  39.683   9.965   6.626
 3264POPC   C3B42297  39.705   9.977   7.102
 3264POPC   C4B42298  39.783  10.081   7.573
 3265POPC   NC342299  19.435  12.808   5.406
 3265POPC   PO442300  20.111  12.909   5.457
 3265POPC   GL142301  19.777  12.901   5.786
 3265POPC   GL242302  19.734  12.543   5.753
 3265POPC   C1A42303  19.657  13.093   6.217
 3265POPC   D2A42304  19.693  13.314   6.643
 3265POPC   C3A42305  19.783  13.079   7.030
 3265POPC   C4A42306  19.760  13.019   7.500
 3265POPC   C1B42307  19.829  12.595   6.221
 3265POPC   C2B42308  19.749  12.753   6.644
 3265POPC   C3B42309  19.771  12.587   7.099
 3265POPC   C4B42310  19.841  12.427   7.509
 3266POPC   NC342311  26.280  13.660   5.578
 3266POPC   PO442312  26.904  13.433   5.415
 3266POPC   GL142313  26.970  13.669   5.805
 3266POPC   GL242314  26.657  13.645   5.932
 3266POPC   C1A42315  27.174  13.614   6.195
 3266POPC   D2A42316  26.942  13.433   6.536
 3266POPC   C3A42317  27.110  13.477   6.965
 3266POPC   C4A42318  26.932  13.293   7.364
 3266POPC   C1B42319  26.750  13.910   6.282
 3266POPC   C2B42320  26.793  13.900   6.730
 3266POPC   C3B42321  26.707  13.720   7.123
 3266POPC   C4B42322  26.676  13.919   7.472
 3267POPC   NC342323  12.183  17.211   5.496
 3267POPC   PO442324  12.035  17.744   5.097
 3267POPC   GL142325  11.948  17.695   5.637
 3267POPC   GL242326  12.195  17.562   5.846
 3267POPC   C1A42327  11.938  17.802   6.185
 3267POPC   D2A42328  12.168  17.679   6.608
 3267POPC   C3A42329  12.062  17.589   7.064
 3267POPC   C4A42330  11.962  17.822   7.468
 3267POPC   C1B42331  12.125  17.326   6.226
 3267POPC   C2B42332  11.971  17.180   6.649
 3267POPC   C3B42333  11.808  17.142   7.099
 3267POPC   C4B42334  11.921  17.265   7.533
 3268POPC   NC342335  17.984  12.174   5.593
 3268POPC   PO442336  18.254  11.591   5.673
 3268POPC   GL142337  18.385  11.958   5.850
 3268POPC   GL242338  18.552  12.260   5.778
 3268POPC   C1A42339  18.247  12.077   6.245
 3268POPC   D2A42340  18.447  11.984   6.619
 3268POPC   C3A42341  18.113  11.878   6.840
 3268POPC   C4A42342  17.994  11.980   7.207
 3268POPC   C1B42343  18.572  12.451   6.191
 3268POPC   C2B42344  18.358  12.491   6.582
 3268POPC   C3B42345  18.142  12.388   6.946
 3268POPC   C4B42346  18.235  12.416   7.370
 3269POPC   NC342347  21.979  29.454   5.350
 3269POPC   PO442348  22.302  28.943   5.398
 3269POPC   GL142349  22.298  29.235   5.797
 3269POPC   GL242350  22.017  29.468   5.861
 3269POPC   C1A42351  22.132  29.141   6.247
 3269POPC   D2A42352  21.881  28.941   6.617
 3269POPC   C3A42353  22.043  28.991   7.054
 3269POPC   C4A42354  22.167  29.091   7.490
 3269POPC   C1B42355  22.153  29.652   6.264
 3269POPC   C2B42356  22.254  29.597   6.714
 3269POPC   C3B42357  22.385  29.431   7.145
 3269POPC   C4B42358  22.557  29.450   7.596
 3270POPC   NC342359  19.513   7.750   5.479
 3270POPC   PO442360  19.036   7.269   5.350
 3270POPC   GL142361  19.222   7.364   5.720
 3270POPC   GL242362  19.373   7.061   5.837
 3270POPC   C1A42363  19.090   7.692   6.012
 3270POPC   D2A42364  18.989   7.836   6.416
 3270POPC   C3A42365  19.294   7.661   6.716
 3270POPC   C4A42366  19.296   7.646   7.189
 3270POPC   C1B42367  19.094   7.201   6.184
 3270POPC   C2B42368  19.328   7.180   6.555
 3270POPC   C3B42369  19.159   7.186   6.946
 3270POPC   C4B42370  19.039   6.986   7.281
 3271POPC   NC342371  11.233  40.735   5.446
 3271POPC   PO442372  10.536  40.584   5.380
 3271POPC   GL142373  10.684  40.654   5.830
 3271POPC   GL242374  10.713  40.994   5.948
 3271POPC   C1A42375  10.397  40.729   6.267
 3271POPC   D2A42376  10.347  41.123   6.489
 3271POPC   C3A42377  10.379  41.028   6.941
 3271POPC   C4A42378  10.349  40.911   7.407
 3271POPC   C1B42379  10.884  40.648   6.285
 3271POPC   C2B42380  10.757  40.754   6.700
 3271POPC   C3B42381  10.800  40.844   7.160
 3271POPC   C4B42382  10.893  40.706   7.600
 3272POPC   NC342383  36.764  10.760   4.984
 3272POPC   PO442384  37.049  10.269   5.376
 3272POPC   GL142385  36.850  10.482   5.702
 3272POPC   GL242386  37.132  10.628   5.874
 3272POPC   C1A42387  36.683  10.530   6.125
 3272POPC   D2A42388  36.746  10.354   6.520
 3272POPC   C3A42389  36.588  10.489   6.908
 3272POPC   C4A42390  36.878  10.661   7.138
 3272POPC   C1B42391  37.140  10.234   6.062
 3272POPC   C2B42392  37.209  10.165   6.457
 3272POPC   C3B42393  37.212  10.301   6.874
 3272POPC   C4B42394  37.062  10.224   7.279
 3273POPC   NC342395  11.972  37.143   5.472
 3273POPC   PO442396  12.118  37.830   5.462
 3273POPC   GL142397  12.066  37.537   5.799
 3273POPC   GL242398  11.708  37.494   5.801
 3273POPC   C1A42399  11.973  37.439   6.234
 3273POPC   D2A42400  12.173  37.434   6.640
 3273POPC   C3A42401  11.974  37.429   7.026
 3273POPC   C4A42402  12.119  37.608   7.428
 3273POPC   C1B42403  11.739  37.888   6.032
 3273POPC   C2B42404  11.874  37.941   6.444
 3273POPC   C3B42405  11.969  37.914   6.883
 3273POPC   C4B42406  11.759  37.977   7.284
 3274POPC   NC342407  14.077  33.005   5.445
 3274POPC   PO442408  14.679  33.426   5.374
 3274POPC   GL142409  14.582  33.103   5.752
 3274POPC   GL242410  14.387  32.761   5.784
 3274POPC   C1A42411  14.430  33.142   6.208
 3274POPC   D2A42412  14.453  33.459   6.530
 3274POPC   C3A42413  14.288  33.396   6.929
 3274POPC   C4A42414  14.388  33.069   7.179
 3274POPC   C1B42415  14.085  32.765   6.150
 3274POPC   C2B42416  14.192  32.808   6.599
 3274POPC   C3B42417  14.164  32.566   6.979
 3274POPC   C4B42418  14.044  32.718   7.354
 3275POPC   NC342419  18.411  39.064   5.439
 3275POPC   PO442420  17.986  39.529   5.353
 3275POPC   GL142421  18.117  39.393   5.740
 3275POPC   GL242422  18.417  39.592   5.812
 3275POPC   C1A42423  18.233  39.274   6.170
 3275POPC   D2A42424  18.302  39.412   6.600
 3275POPC   C3A42425  18.376  39.071   6.922
 3275POPC   C4A42426  18.293  39.011   7.370
 3275POPC   C1B42427  18.669  39.575   6.234
 3275POPC   C2B42428  18.726  39.682   6.698
 3275POPC   C3B42429  18.504  39.540   7.084
 3275POPC   C4B42430  18.169  39.523   7.408
 3276POPC   NC342431   8.334  43.526   5.305
 3276POPC   PO442432   7.985  44.052   5.502
 3276POPC   GL142433   8.124  43.687   5.772
 3276POPC   GL242434   8.509  43.602   5.782
 3276POPC   C1A42435   7.946  43.707   6.199
 3276POPC   D2A42436   8.055  44.031   6.493
 3276POPC   C3A42437   8.043  43.901   6.939
 3276POPC   C4A42438   8.297  44.001   7.330
 3276POPC   C1B42439   8.455  43.741   6.207
 3276POPC   C2B42440   8.294  43.591   6.600
 3276POPC   C3B42441   8.492  43.644   6.999
 3276POPC   C4B42442   8.440  43.425   7.361
 3277POPC   NC342443  16.318  44.032   5.349
 3277POPC   PO442444  15.737  43.604   5.368
 3277POPC   GL142445  15.891  43.894   5.633
 3277POPC   GL242446  16.213  43.785   5.791
 3277POPC   C1A42447  15.801  43.936   6.066
 3277POPC   D2A42448  15.670  43.955   6.489
 3277POPC   C3A42449  16.002  44.025   6.789
 3277POPC   C4A42450  16.072  43.971   7.229
 3277POPC   C1B42451  16.186  43.609   6.222
 3277POPC   C2B42452  16.362  43.630   6.644
 3277POPC   C3B42453  16.229  43.516   7.058
 3277POPC   C4B42454  16.349  43.609   7.509
 3278POPC   NC342455   0.674  15.856   5.198
 3278POPC   PO442456   0.096  15.919   5.446
 3278POPC   GL142457   0.302  16.056   5.821
 3278POPC   GL242458   0.645  16.050   5.962
 3278POPC   C1A42459   0.207  15.886   6.211
 3278POPC   D2A42460   0.226  15.668   6.570
 3278POPC   C3A42461   0.183  15.930   6.910
 3278POPC   C4A42462   0.398  16.003   7.266
 3278POPC   C1B42463   0.642  15.613   6.127
 3278POPC   C2B42464   0.706  15.457   6.557
 3278POPC   C3B42465   0.692  15.708   6.964
 3278POPC   C4B42466   0.777  15.728   7.451
 3279POPC   NC342467   4.874  36.036   5.479
 3279POPC   PO442468   5.169  36.620   5.382
 3279POPC   GL142469   5.234  36.345   5.751
 3279POPC   GL242470   4.895  36.313   5.907
 3279POPC   C1A42471   5.293  36.112   6.143
 3279POPC   D2A42472   5.052  36.114   6.532
 3279POPC   C3A42473   5.248  36.080   6.917
 3279POPC   C4A42474   5.568  36.295   7.141
 3279POPC   C1B42475   4.810  35.894   6.130
 3279POPC   C2B42476   4.759  35.687   6.550
 3279POPC   C3B42477   4.716  35.865   6.971
 3279POPC   C4B42478   4.892  36.207   7.256
 3280POPC   NC342479  41.369  24.773   5.114
 3280POPC   PO442480  40.763  24.772   5.506
 3280POPC   GL142481  40.902  24.465   5.796
 3280POPC   GL242482  40.675  24.154   5.780
 3280POPC   C1A42483  40.906  24.580   6.227
 3280POPC   D2A42484  40.759  24.798   6.571
 3280POPC   C3A42485  40.873  24.594   6.959
 3280POPC   C4A42486  40.628  24.555   7.350
 3280POPC   C1B42487  40.900  24.074   6.181
 3280POPC   C2B42488  41.060  24.210   6.586
 3280POPC   C3B42489  40.909  24.094   6.991
 3280POPC   C4B42490  41.050  24.283   7.366
 3281POPC   NC342491   3.231  30.640   5.421
 3281POPC   PO442492   3.803  30.972   5.495
 3281POPC   GL142493   3.519  30.825   5.796
 3281POPC   GL242494   3.485  30.482   5.827
 3281POPC   C1A42495   3.468  30.775   6.245
 3281POPC   D2A42496   3.661  30.864   6.610
 3281POPC   C3A42497   3.512  30.728   7.010
 3281POPC   C4A42498   3.182  30.620   7.305
 3281POPC   C1B42499   3.556  30.260   6.211
 3281POPC   C2B42500   3.494  30.369   6.615
 3281POPC   C3B42501   3.628  30.215   6.994
 3281POPC   C4B42502   3.628  30.385   7.400
 3282POPC   NC342503  40.471  26.307   5.492
 3282POPC   PO442504  40.862  25.728   5.429
 3282POPC   GL142505  40.771  25.989   5.802
 3282POPC   GL242506  41.034  26.179   5.962
 3282POPC   C1A42507  40.658  25.954   6.257
 3282POPC   D2A42508  40.625  25.793   6.704
 3282POPC   C3A42509  40.578  26.178   6.873
 3282POPC   C4A42510  40.555  26.326   7.277
 3282POPC   C1B42511  41.046  26.289   6.398
 3282POPC   C2B42512  41.085  26.255   6.838
 3282POPC   C3B42513  41.287  26.334   7.251
 3282POPC   C4B42514  41.090  26.295   7.652
 3283POPC   NC342515   9.487   7.417   5.476
 3283POPC   PO442516  10.057   7.686   5.285
 3283POPC   GL142517   9.916   7.575   5.746
 3283POPC   GL242518   9.606   7.696   5.879
 3283POPC   C1A42519   9.748   7.227   6.071
 3283POPC   D2A42520   9.854   7.092   6.521
 3283POPC   C3A42521   9.594   7.157   6.889
 3283POPC   C4A42522   9.636   7.374   7.243
 3283POPC   C1B42523   9.726   7.685   6.296
 3283POPC   C2B42524   9.489   7.674   6.661
 3283POPC   C3B42525   9.716   7.815   6.983
 3283POPC   C4B42526   9.666   7.853   7.396
 3284POPC   NC342527   3.478  27.053   5.447
 3284POPC   PO442528   3.900  26.563   5.591
 3284POPC   GL142529   3.602  26.764   5.853
 3284POPC   GL242530   3.520  26.415   5.915
 3284POPC   C1A42531   3.582  26.970   6.276
 3284POPC   D2A42532   3.321  26.969   6.675
 3284POPC   C3A42533   3.526  26.805   7.082
 3284POPC   C4A42534   3.928  26.815   7.363
 3284POPC   C1B42535   3.692  26.464   6.264
 3284POPC   C2B42536   3.647  26.554   6.665
 3284POPC   C3B42537   3.849  26.400   7.019
 3284POPC   C4B42538   3.871  26.306   7.438
 3285POPC   NC342539   0.915   5.095   5.295
 3285POPC   PO442540   1.582   4.831   5.166
 3285POPC   GL142541   1.574   4.971   5.634
 3285POPC   GL242542   1.436   5.275   5.823
 3285POPC   C1A42543   1.510   4.806   6.077
 3285POPC   D2A42544   1.487   4.831   6.546
 3285POPC   C3A42545   1.159   5.075   6.775
 3285POPC   C4A42546   0.961   5.137   7.161
 3285POPC   C1B42547   1.430   5.277   6.295
 3285POPC   C2B42548   1.602   5.306   6.731
 3285POPC   C3B42549   1.567   5.133   7.143
 3285POPC   C4B42550   1.586   5.338   7.559
 3286POPC   NC342551  43.569  17.875   5.546
 3286POPC   PO442552  44.048  17.431   5.405
 3286POPC   GL142553  44.136  17.592   5.803
 3286POPC   GL242554  43.775  17.544   5.893
 3286POPC   C1A42555  44.078  17.785   6.224
 3286POPC   D2A42556  43.758  17.719   6.531
 3286POPC   C3A42557  43.931  17.679   6.934
 3286POPC   C4A42558  44.238  17.441   7.161
 3286POPC   C1B42559  43.704  17.246   6.233
 3286POPC   C2B42560  43.779  17.122   6.644
 3286POPC   C3B42561  43.719  17.233   7.057
 3286POPC   C4B42562  43.345  17.307   7.213
 3287POPC   NC342563  12.910  35.940   5.508
 3287POPC   PO442564  12.969  36.543   5.273
 3287POPC   GL142565  12.984  36.400   5.746
 3287POPC   GL242566  12.632  36.334   5.807
 3287POPC   C1A42567  12.882  36.359   6.233
 3287POPC   D2A42568  12.589  36.164   6.555
 3287POPC   C3A42569  12.735  35.917   6.921
 3287POPC   C4A42570  13.000  35.946   7.279
 3287POPC   C1B42571  12.447  36.590   6.144
 3287POPC   C2B42572  12.583  36.681   6.597
 3287POPC   C3B42573  12.771  36.427   6.932
 3287POPC   C4B42574  12.640  36.356   7.359
 3288POPC   NC342575  35.727  34.020   5.419
 3288POPC   PO442576  36.353  33.980   5.282
 3288POPC   GL142577  36.220  33.766   5.709
 3288POPC   GL242578  35.875  33.600   5.753
 3288POPC   C1A42579  36.247  33.787   6.195
 3288POPC   D2A42580  36.542  33.977   6.543
 3288POPC   C3A42581  36.390  33.765   6.921
 3288POPC   C4A42582  36.133  33.547   7.224
 3288POPC   C1B42583  35.650  33.518   6.172
 3288POPC   C2B42584  35.855  33.632   6.572
 3288POPC   C3B42585  35.728  33.788   6.973
 3288POPC   C4B42586  35.689  33.798   7.434
 3289POPC   NC342587  24.540   3.131   5.360
 3289POPC   PO442588  24.453   3.825   5.294
 3289POPC   GL142589  24.331   3.675   5.725
 3289POPC   GL242590  24.453   3.371   5.815
 3289POPC   C1A42591  24.393   3.750   6.174
 3289POPC   D2A42592  24.311   3.518   6.571
 3289POPC   C3A42593  24.312   3.697   6.975
 3289POPC   C4A42594  24.472   3.464   7.339
 3289POPC   C1B42595  24.693   3.334   6.212
 3289POPC   C2B42596  24.813   3.483   6.636
 3289POPC   C3B42597  24.840   3.289   7.029
 3289POPC   C4B42598  25.133   3.017   7.210
 3290POPC   NC342599  33.198  38.289   5.604
 3290POPC   PO442600  33.403  38.923   5.551
 3290POPC   GL142601  33.135  38.750   5.839
 3290POPC   GL242602  32.793  38.615   5.738
 3290POPC   C1A42603  33.172  38.562   6.206
 3290POPC   D2A42604  33.003  38.477   6.579
 3290POPC   C3A42605  33.290  38.396   6.887
 3290POPC   C4A42606  33.183  38.181   7.229
 3290POPC   C1B42607  32.676  38.392   6.117
 3290POPC   C2B42608  32.491  38.287   6.512
 3290POPC   C3B42609  32.699  38.304   6.936
 3290POPC   C4B42610  32.902  38.700   7.079
 3291POPC   NC342611  20.161  13.390   5.393
 3291POPC   PO442612  20.789  13.602   5.238
 3291POPC   GL142613  20.554  13.601   5.695
 3291POPC   GL242614  20.212  13.718   5.811
 3291POPC   C1A42615  20.508  13.564   6.191
 3291POPC   D2A42616  20.343  13.653   6.630
 3291POPC   C3A42617  20.546  13.605   7.079
 3291POPC   C4A42618  20.801  13.752   7.455
 3291POPC   C1B42619  20.182  13.978   6.223
 3291POPC   C2B42620  20.191  14.143   6.670
 3291POPC   C3B42621  20.292  14.050   7.105
 3291POPC   C4B42622  20.385  14.203   7.505
 3292POPC   NC342623  42.582   0.712   5.619
 3292POPC   PO442624  42.050   1.148   5.505
 3292POPC   GL142625  42.209   1.207   5.892
 3292POPC   GL242626  42.547   1.240   5.790
 3292POPC   C1A42627  42.086   1.314   6.315
 3292POPC   D2A42628  41.996   1.354   6.743
 3292POPC   C3A42629  42.346   1.247   7.012
 3292POPC   C4A42630  42.321   1.156   7.458
 3292POPC   C1B42631  42.685   1.117   6.209
 3292POPC   C2B42632  42.626   0.987   6.647
 3292POPC   C3B42633  42.606   0.762   7.054
 3292POPC   C4B42634  42.580   0.741   7.562
 3293POPC   NC342635   6.123  27.056   5.155
 3293POPC   PO442636   6.268  27.672   5.421
 3293POPC   GL142637   6.035  27.512   5.812
 3293POPC   GL242638   5.721  27.643   5.894
 3293POPC   C1A42639   5.992  27.518   6.293
 3293POPC   D2A42640   6.170  27.764   6.664
 3293POPC   C3A42641   6.108  27.647   7.089
 3293POPC   C4A42642   6.057  27.203   7.164
 3293POPC   C1B42643   5.473  27.653   6.283
 3293POPC   C2B42644   5.679  27.647   6.693
 3293POPC   C3B42645   5.607  27.495   7.105
 3293POPC   C4B42646   5.759  27.469   7.518
 3294POPC   NC342647  19.138  39.764   5.397
 3294POPC   PO442648  18.877  39.093   5.481
 3294POPC   GL142649  19.131  39.381   5.748
 3294POPC   GL242650  19.176  39.099   5.933
 3294POPC   C1A42651  19.182  39.532   6.194
 3294POPC   D2A42652  19.071  39.222   6.533
 3294POPC   C3A42653  19.006  39.334   6.968
 3294POPC   C4A42654  18.763  39.140   7.273
 3294POPC   C1B42655  19.175  38.797   6.232
 3294POPC   C2B42656  19.342  38.754   6.629
 3294POPC   C3B42657  19.126  38.838   7.010
 3294POPC   C4B42658  19.233  39.052   7.379
 3295POPC   NC342659  14.800  23.491   5.464
 3295POPC   PO442660  15.352  23.749   5.237
 3295POPC   GL142661  15.281  23.740   5.706
 3295POPC   GL242662  14.944  23.758   5.894
 3295POPC   C1A42663  15.415  23.909   6.123
 3295POPC   D2A42664  15.225  23.858   6.537
 3295POPC   C3A42665  15.411  23.926   6.956
 3295POPC   C4A42666  15.049  23.891   7.219
 3295POPC   C1B42667  15.173  23.449   6.124
 3295POPC   C2B42668  15.276  23.340   6.527
 3295POPC   C3B42669  15.140  23.449   6.920
 3295POPC   C4B42670  14.946  23.397   7.312
 3296POPC   NC342671   6.820  41.041   5.199
 3296POPC   PO442672   6.527  40.474   5.174
 3296POPC   GL142673   6.701  40.570   5.584
 3296POPC   GL242674   6.374  40.497   5.735
 3296POPC   C1A42675   6.746  40.738   6.043
 3296POPC   D2A42676   6.542  40.660   6.474
 3296POPC   C3A42677   6.710  40.782   6.867
 3296POPC   C4A42678   6.769  40.796   7.295
 3296POPC   C1B42679   6.469  40.313   6.117
 3296POPC   C2B42680   6.598  40.133   6.478
 3296POPC   C3B42681   6.512  40.292   6.860
 3296POPC   C4B42682   6.546  40.334   7.285
 3297POPC   NC342683  24.730  38.137   5.379
 3297POPC   PO442684  24.707  38.785   5.365
 3297POPC   GL142685  24.562  38.547   5.713
 3297POPC   GL242686  24.259  38.348   5.678
 3297POPC   C1A42687  24.688  38.487   6.141
 3297POPC   D2A42688  24.783  38.321   6.574
 3297POPC   C3A42689  24.618  38.183   6.980
 3297POPC   C4A42690  24.807  38.413   7.305
 3297POPC   C1B42691  24.187  38.559   6.097
 3297POPC   C2B42692  24.325  38.573   6.526
 3297POPC   C3B42693  24.463  38.668   6.950
 3297POPC   C4B42694  24.244  38.648   7.370
 3298POPC   NC342695  41.987  37.836   5.368
 3298POPC   PO442696  42.640  37.566   5.410
 3298POPC   GL142697  42.386  37.686   5.766
 3298POPC   GL242698  42.161  37.942   5.842
 3298POPC   C1A42699  42.435  37.741   6.237
 3298POPC   D2A42700  42.578  37.601   6.644
 3298POPC   C3A42701  42.371  37.431   6.977
 3298POPC   C4A42702  42.606  37.556   7.320
 3298POPC   C1B42703  42.087  38.126   6.250
 3298POPC   C2B42704  42.146  37.921   6.640
 3298POPC   C3B42705  42.330  37.927   7.023
 3298POPC   C4B42706  42.184  37.808   7.423
 3299POPC   NC342707   7.072  29.557   5.435
 3299POPC   PO442708   7.323  28.991   5.368
 3299POPC   GL142709   7.457  29.122   5.805
 3299POPC   GL242710   7.236  29.356   5.879
 3299POPC   C1A42711   7.501  29.169   6.285
 3299POPC   D2A42712   7.388  29.452   6.612
 3299POPC   C3A42713   7.370  29.387   7.066
 3299POPC   C4A42714   7.649  29.111   7.262
 3299POPC   C1B42715   7.087  28.933   6.082
 3299POPC   C2B42716   7.156  28.732   6.474
 3299POPC   C3B42717   7.316  28.917   6.833
 3299POPC   C4B42718   7.272  28.751   7.217
 3300POPC   NC342719  16.798  33.572   5.282
 3300POPC   PO442720  16.584  34.189   5.605
 3300POPC   GL142721  16.606  33.770   5.797
 3300POPC   GL242722  16.934  33.601   5.762
 3300POPC   C1A42723  16.594  33.770   6.251
 3300POPC   D2A42724  16.623  34.109   6.592
 3300POPC   C3A42725  16.431  33.989   6.982
 3300POPC   C4A42726  16.581  33.590   7.106
 3300POPC   C1B42727  17.050  33.910   6.075
 3300POPC   C2B42728  17.197  33.828   6.493
 3300POPC   C3B42729  16.997  33.789   6.876
 3300POPC   C4B42730  17.142  33.910   7.255
 3301POPC   NC342731   3.548   3.634   5.368
 3301POPC   PO442732   3.558   3.002   5.327
 3301POPC   GL142733   3.520   3.279   5.749
 3301POPC   GL242734   3.320   3.612   5.811
 3301POPC   C1A42735   3.428   3.308   6.215
 3301POPC   D2A42736   3.595   3.374   6.650
 3301POPC   C3A42737   3.352   3.360   7.047
 3301POPC   C4A42738   3.145   3.034   7.235
 3301POPC   C1B42739   3.537   3.859   6.142
 3301POPC   C2B42740   3.592   3.900   6.596
 3301POPC   C3B42741   3.650   3.776   7.033
 3301POPC   C4B42742   3.244   3.832   7.229
 3302POPC   NC342743  17.997   8.870   5.254
 3302POPC   PO442744  18.420   9.341   5.462
 3302POPC   GL142745  18.196   9.025   5.697
 3302POPC   GL242746  17.897   9.154   5.699
 3302POPC   C1A42747  18.186   8.871   6.110
 3302POPC   D2A42748  18.388   8.616   6.424
 3302POPC   C3A42749  18.398   8.796   6.854
 3302POPC   C4A42750  18.556   8.844   7.307
 3302POPC   C1B42751  18.114   9.413   6.028
 3302POPC   C2B42752  18.176   9.339   6.456
 3302POPC   C3B42753  18.046   9.297   6.879
 3302POPC   C4B42754  18.095   9.015   7.211
 3303POPC   NC342755  21.436  20.768   5.400
 3303POPC   PO442756  21.996  20.333   5.215
 3303POPC   GL142757  21.806  20.296   5.676
 3303POPC   GL242758  21.509  20.506   5.820
 3303POPC   C1A42759  21.775  20.209   6.111
 3303POPC   D2A42760  21.655  20.415   6.483
 3303POPC   C3A42761  21.626  20.237   6.897
 3303POPC   C4A42762  21.412  20.476   7.220
 3303POPC   C1B42763  21.664  20.824   6.132
 3303POPC   C2B42764  21.904  20.869   6.522
 3303POPC   C3B42765  21.726  20.745   6.913
 3303POPC   C4B42766  21.719  20.879   7.349
 3304POPC   NC342767   1.587  37.573   5.536
 3304POPC   PO442768   2.215  37.491   5.538
 3304POPC   GL142769   2.090  37.676   5.920
 3304POPC   GL242770   1.733  37.753   5.977
 3304POPC   C1A42771   2.110  37.595   6.375
 3304POPC   D2A42772   2.217  37.305   6.689
 3304POPC   C3A42773   2.301  37.379   7.147
 3304POPC   C4A42774   2.040  37.551   7.498
 3304POPC   C1B42775   1.617  37.479   6.302
 3304POPC   C2B42776   1.691  37.743   6.659
 3304POPC   C3B42777   1.890  37.792   7.040
 3304POPC   C4B42778   1.620  37.916   7.366
 3305POPC   NC342779  25.152  38.894   5.464
 3305POPC   PO442780  25.180  38.209   5.385
 3305POPC   GL142781  25.083  38.409   5.752
 3305POPC   GL242782  25.445  38.513   5.787
 3305POPC   C1A42783  25.167  38.305   6.184
 3305POPC   D2A42784  25.242  38.556   6.554
 3305POPC   C3A42785  25.486  38.474   6.889
 3305POPC   C4A42786  25.361  38.566   7.310
 3305POPC   C1B42787  25.636  38.641   6.198
 3305POPC   C2B42788  25.599  38.948   6.553
 3305POPC   C3B42789  25.465  38.988   7.017
 3305POPC   C4B42790  25.735  38.937   7.403
 3306POPC   NC342791  16.600  44.579   5.217
 3306POPC   PO442792  17.012   0.070   5.169
 3306POPC   GL142793  16.880  44.808   5.597
 3306POPC   GL242794  16.677  44.998   5.809
 3306POPC   C1A42795  16.781  44.549   6.013
 3306POPC   D2A42796  16.765  44.634   6.485
 3306POPC   C3A42797  16.533  44.622   6.873
 3306POPC   C4A42798  16.371  44.947   7.143
 3306POPC   C1B42799  17.009   0.001   6.154
 3306POPC   C2B42800  17.058   0.042   6.622
 3306POPC   C3B42801  16.867  44.995   7.022
 3306POPC   C4B42802  16.805  44.911   7.494
 3307POPC   NC342803   3.978   3.027   5.528
 3307POPC   PO442804   4.619   2.917   5.503
 3307POPC   GL142805   4.515   2.739   5.925
 3307POPC   GL242806   4.138   2.756   5.931
 3307POPC   C1A42807   4.366   2.761   6.391
 3307POPC   D2A42808   4.103   3.002   6.698
 3307POPC   C3A42809   4.318   3.055   7.105
 3307POPC   C4A42810   4.395   2.710   7.384
 3307POPC   C1B42811   4.033   2.407   6.235
 3307POPC   C2B42812   4.109   2.423   6.693
 3307POPC   C3B42813   3.988   2.615   7.093
 3307POPC   C4B42814   3.946   2.564   7.559
 3308POPC   NC342815   8.890   4.030   5.361
 3308POPC   PO442816   8.727   4.690   5.446
 3308POPC   GL142817   8.961   4.405   5.753
 3308POPC   GL242818   9.188   4.101   5.778
 3308POPC   C1A42819   9.083   4.447   6.221
 3308POPC   D2A42820   9.141   4.657   6.659
 3308POPC   C3A42821   8.911   4.520   7.054
 3308POPC   C4A42822   8.532   4.252   7.184
 3308POPC   C1B42823   9.128   3.918   6.218
 3308POPC   C2B42824   9.016   4.008   6.682
 3308POPC   C3B42825   9.005   4.015   7.133
 3308POPC   C4B42826   9.312   4.150   7.426
 3309POPC   NC342827  21.036   8.335   5.431
 3309POPC   PO442828  20.343   8.250   5.398
 3309POPC   GL142829  20.598   8.397   5.748
 3309POPC   GL242830  20.580   8.080   5.842
 3309POPC   C1A42831  20.472   8.486   6.186
 3309POPC   D2A42832  20.656   8.366   6.580
 3309POPC   C3A42833  20.518   8.581   6.922
 3309POPC   C4A42834  20.526   8.430   7.309
 3309POPC   C1B42835  20.680   7.981   6.246
 3309POPC   C2B42836  20.439   7.906   6.663
 3309POPC   C3B42837  20.554   7.934   7.116
 3309POPC   C4B42838  20.445   7.997   7.577
 3310POPC   NC342839  25.865   3.472   5.200
 3310POPC   PO442840  25.760   3.913   5.714
 3310POPC   GL142841  25.900   3.450   5.779
 3310POPC   GL242842  26.247   3.425   5.830
 3310POPC   C1A42843  25.982   3.226   6.218
 3310POPC   D2A42844  25.911   3.452   6.620
 3310POPC   C3A42845  25.915   3.399   7.077
 3310POPC   C4A42846  25.704   3.561   7.457
 3310POPC   C1B42847  26.252   3.702   6.220
 3310POPC   C2B42848  26.238   3.882   6.664
 3310POPC   C3B42849  26.172   3.860   7.116
 3310POPC   C4B42850  26.266   4.032   7.528
 3311POPC   NC342851   3.038  16.453   5.418
 3311POPC   PO442852   2.803  17.018   5.149
 3311POPC   GL142853   2.728  16.925   5.597
 3311POPC   GL242854   2.488  16.658   5.680
 3311POPC   C1A42855   2.908  16.792   5.989
 3311POPC   D2A42856   2.929  16.916   6.417
 3311POPC   C3A42857   2.869  16.619   6.751
 3311POPC   C4A42858   2.715  16.730   7.141
 3311POPC   C1B42859   2.424  16.898   6.104
 3311POPC   C2B42860   2.411  16.831   6.566
 3311POPC   C3B42861   2.342  17.032   6.959
 3311POPC   C4B42862   2.318  16.906   7.413
 3312POPC   NC342863  12.964  28.529   5.335
 3312POPC   PO442864  12.488  28.176   5.435
 3312POPC   GL142865  12.787  28.336   5.782
 3312POPC   GL242866  13.128  28.168   5.716
 3312POPC   C1A42867  12.869  28.242   6.250
 3312POPC   D2A42868  12.752  28.093   6.678
 3312POPC   C3A42869  12.776  28.396   7.026
 3312POPC   C4A42870  13.074  28.748   7.144
 3312POPC   C1B42871  13.209  27.897   6.089
 3312POPC   C2B42872  13.270  28.029   6.534
 3312POPC   C3B42873  13.161  28.043   6.990
 3312POPC   C4B42874  13.235  28.265   7.403
 3313POPC   NC342875  22.414  39.871   5.332
 3313POPC   PO442876  21.815  40.203   5.427
 3313POPC   GL142877  22.180  40.166   5.713
 3313POPC   GL242878  22.185  39.815   5.786
 3313POPC   C1A42879  22.305  40.156   6.178
 3313POPC   D2A42880  22.464  39.973   6.587
 3313POPC   C3A42881  22.295  39.996   7.019
 3313POPC   C4A42882  22.428  39.786   7.421
 3313POPC   C1B42883  21.862  39.920   6.073
 3313POPC   C2B42884  21.846  40.033   6.499
 3313POPC   C3B42885  21.750  40.150   6.910
 3313POPC   C4B42886  21.767  40.083   7.319
 3314POPC   NC342887  24.731  43.438   5.443
 3314POPC   PO442888  24.577  42.826   5.342
 3314POPC   GL142889  24.454  42.915   5.781
 3314POPC   GL242890  24.267  43.228   5.857
 3314POPC   C1A42891  24.369  42.796   6.204
 3314POPC   D2A42892  24.222  42.728   6.623
 3314POPC   C3A42893  24.381  42.869   6.989
 3314POPC   C4A42894  24.607  42.972   7.318
 3314POPC   C1B42895  24.494  43.306   6.228
 3314POPC   C2B42896  24.463  43.286   6.673
 3314POPC   C3B42897  24.447  43.430   7.106
 3314POPC   C4B42898  24.819  43.421   7.398
 3315POPC   NC342899   0.072   5.533   5.608
 3315POPC   PO442900   0.360   5.169   5.064
 3315POPC   GL142901   0.304   5.019   5.537
 3315POPC   GL242902   0.080   4.737   5.652
 3315POPC   C1A42903   0.409   5.042   6.007
 3315POPC   D2A42904   0.555   5.334   6.360
 3315POPC   C3A42905   0.612   5.176   6.786
 3315POPC   C4A42906   0.421   5.211   7.194
 3315POPC   C1B42907   0.038   4.693   6.121
 3315POPC   C2B42908   0.194   4.603   6.548
 3315POPC   C3B42909   0.386   4.713   6.950
 3315POPC   C4B42910   0.251   4.745   7.365
 3316POPC   NC342911  16.535  23.691   5.420
 3316POPC   PO442912  17.193  23.440   5.422
 3316POPC   GL142913  17.062  23.674   5.825
 3316POPC   GL242914  16.680  23.743   5.903
 3316POPC   C1A42915  16.943  23.546   6.281
 3316POPC   D2A42916  16.694  23.480   6.660
 3316POPC   C3A42917  16.775  23.792   6.968
 3316POPC   C4A42918  16.825  23.681   7.364
 3316POPC   C1B42919  16.420  23.460   6.214
 3316POPC   C2B42920  16.176  23.509   6.622
 3316POPC   C3B42921  16.317  23.579   7.075
 3316POPC   C4B42922  16.335  23.698   7.537
 3317POPC   NC342923  39.151   1.804   5.096
 3317POPC   PO442924  39.533   2.231   5.399
 3317POPC   GL142925  39.356   2.188   5.795
 3317POPC   GL242926  39.066   1.977   5.748
 3317POPC   C1A42927  39.397   1.938   6.189
 3317POPC   D2A42928  39.458   1.799   6.636
 3317POPC   C3A42929  39.346   2.090   6.982
 3317POPC   C4A42930  39.555   2.136   7.361
 3317POPC   C1B42931  38.977   1.670   6.100
 3317POPC   C2B42932  38.835   1.590   6.531
 3317POPC   C3B42933  38.929   1.798   6.922
 3317POPC   C4B42934  39.035   1.897   7.349
 3318POPC   NC342935  26.386  11.272   5.348
 3318POPC   PO442936  26.990  10.915   5.342
 3318POPC   GL142937  26.937  11.125   5.771
 3318POPC   GL242938  26.659  11.358   5.778
 3318POPC   C1A42939  26.752  11.131   6.231
 3318POPC   D2A42940  26.945  11.379   6.542
 3318POPC   C3A42941  27.039  11.471   6.945
 3318POPC   C4A42942  26.918  11.242   7.288
 3318POPC   C1B42943  26.380  11.486   6.113
 3318POPC   C2B42944  26.444  11.545   6.531
 3318POPC   C3B42945  26.500  11.296   6.901
 3318POPC   C4B42946  26.436  11.434   7.304
 3319POPC   NC342947   1.201  38.270   4.932
 3319POPC   PO442948   0.922  38.766   5.314
 3319POPC   GL142949   1.034  38.554   5.747
 3319POPC   GL242950   1.352  38.411   5.822
 3319POPC   C1A42951   1.029  38.343   6.191
 3319POPC   D2A42952   1.059  38.570   6.600
 3319POPC   C3A42953   1.031  38.480   7.045
 3319POPC   C4A42954   1.025  38.803   7.393
 3319POPC   C1B42955   1.575  38.232   6.170
 3319POPC   C2B42956   1.751  38.298   6.578
 3319POPC   C3B42957   1.584  38.278   6.997
 3319POPC   C4B42958   1.407  38.451   7.376
 3320POPC   NC342959  39.613  25.028   5.568
 3320POPC   PO442960  39.996  25.558   5.306
 3320POPC   GL142961  39.978  25.397   5.713
 3320POPC   GL242962  40.158  25.078   5.727
 3320POPC   C1A42963  39.855  25.288   6.141
 3320POPC   D2A42964  40.087  25.351   6.513
 3320POPC   C3A42965  40.001  25.207   6.923
 3320POPC   C4A42966  39.666  25.458   7.083
 3320POPC   C1B42967  40.309  25.040   6.168
 3320POPC   C2B42968  40.252  24.842   6.569
 3320POPC   C3B42969  40.416  24.845   6.977
 3320POPC   C4B42970  40.199  24.955   7.325
 3321POPC   NC342971  37.114   3.575   5.321
 3321POPC   PO442972  36.479   3.677   5.411
 3321POPC   GL142973  36.763   3.483   5.744
 3321POPC   GL242974  37.142   3.407   5.809
 3321POPC   C1A42975  36.687   3.401   6.185
 3321POPC   D2A42976  36.674   3.725   6.529
 3321POPC   C3A42977  36.742   3.521   6.919
 3321POPC   C4A42978  36.486   3.307   7.193
 3321POPC   C1B42979  37.043   3.759   6.086
 3321POPC   C2B42980  37.171   3.835   6.517
 3321POPC   C3B42981  36.972   3.978   6.907
 3321POPC   C4B42982  37.192   3.999   7.278
 3322POPC   NC342983   4.308  20.813   5.308
 3322POPC   PO442984   4.764  20.378   5.509
 3322POPC   GL142985   4.477  20.656   5.802
 3322POPC   GL242986   4.122  20.845   5.779
 3322POPC   C1A42987   4.232  20.484   6.165
 3322POPC   D2A42988   4.129  20.219   6.515
 3322POPC   C3A42989   4.125  20.436   6.916
 3322POPC   C4A42990   4.082  20.421   7.360
 3322POPC   C1B42991   4.241  20.993   6.188
 3322POPC   C2B42992   4.163  20.838   6.600
 3322POPC   C3B42993   4.218  20.995   7.029
 3322POPC   C4B42994   4.357  20.858   7.423
 3323POPC   NC342995   5.103  34.235   5.725
 3323POPC   PO442996   5.225  34.894   5.506
 3323POPC   GL142997   4.978  34.724   5.838
 3323POPC   GL242998   5.277  34.615   6.026
 3323POPC   C1A42999   4.790  34.519   6.237
 3323POPC   D2A43000   4.943  34.296   6.630
 3323POPC   C3A43001   4.859  34.501   7.031
 3323POPC   C4A43002   5.141  34.786   7.290
 3323POPC   C1B43003   5.394  34.265   6.327
 3323POPC   C2B43004   5.416  34.087   6.757
 3323POPC   C3B43005   5.352  34.346   7.128
 3323POPC   C4B43006   5.493  34.503   7.559
 3324POPC   NC343007  20.721  33.729   5.355
 3324POPC   PO443008  20.088  33.855   5.365
 3324POPC   GL143009  20.367  33.811   5.765
 3324POPC   GL243010  20.681  33.580   5.843
 3324POPC   C1A43011  20.509  33.862   6.219
 3324POPC   D2A43012  20.343  33.702   6.604
 3324POPC   C3A43013  20.432  33.976   6.920
 3324POPC   C4A43014  20.677  33.899   7.271
 3324POPC   C1B43015  20.863  33.477   6.287
 3324POPC   C2B43016  20.907  33.590   6.751
 3324POPC   C3B43017  20.958  33.484   7.199
 3324POPC   C4B43018  20.979  33.654   7.654
 3325POPC   NC343019  23.555   5.655   5.524
 3325POPC   PO443020  23.999   6.093   5.382
 3325POPC   GL143021  23.926   5.945   5.821
 3325POPC   GL243022  23.912   5.604   5.904
 3325POPC   C1A43023  24.031   5.882   6.298
 3325POPC   D2A43024  24.163   5.951   6.724
 3325POPC   C3A43025  23.871   5.993   7.076
 3325POPC   C4A43026  23.465   6.057   7.302
 3325POPC   C1B43027  23.547   5.790   6.171
 3325POPC   C2B43028  23.584   5.858   6.612
 3325POPC   C3B43029  23.452   5.677   6.970
 3325POPC   C4B43030  23.152   5.656   7.310
 3326POPC   NC343031  22.553  42.496   5.434
 3326POPC   PO443032  21.908  42.610   5.395
 3326POPC   GL143033  22.010  42.221   5.660
 3326POPC   GL243034  22.343  42.246   5.846
 3326POPC   C1A43035  21.926  42.038   6.077
 3326POPC   D2A43036  22.094  41.986   6.501
 3326POPC   C3A43037  21.897  42.136   6.901
 3326POPC   C4A43038  22.014  42.439   7.268
 3326POPC   C1B43039  22.443  42.626   6.124
 3326POPC   C2B43040  22.483  42.867   6.533
 3326POPC   C3B43041  22.453  42.735   7.002
 3326POPC   C4B43042  22.571  42.586   7.441
 3327POPC   NC343043   4.775  30.113   5.057
 3327POPC   PO443044   5.328  30.175   5.413
 3327POPC   GL143045   5.169  29.920   5.731
 3327POPC   GL243046   4.835  29.768   5.707
 3327POPC   C1A43047   5.330  29.762   6.098
 3327POPC   D2A43048   5.274  29.765   6.526
 3327POPC   C3A43049   5.461  29.492   6.820
 3327POPC   C4A43050   5.275  29.714   7.142
 3327POPC   C1B43051   4.844  29.978   6.143
 3327POPC   C2B43052   4.808  30.023   6.623
 3327POPC   C3B43053   4.799  29.972   7.092
 3327POPC   C4B43054   4.866  29.677   7.435
 3328POPC   NC343055  43.331  42.567   5.182
 3328POPC   PO443056  43.000  43.145   5.488
 3328POPC   GL143057  43.147  43.238   5.907
 3328POPC   GL243058  43.438  43.051   5.768
 3328POPC   C1A43059  43.032  43.163   6.352
 3328POPC   D2A43060  42.847  42.838   6.656
 3328POPC   C3A43061  42.908  42.962   7.069
 3328POPC   C4A43062  43.041  43.361   7.212
 3328POPC   C1B43063  43.515  42.997   6.190
 3328POPC   C2B43064  43.389  42.855   6.575
 3328POPC   C3B43065  43.388  43.135   6.897
 3328POPC   C4B43066  43.420  43.008   7.307
 3329POPC   NC343067  28.674   8.923   5.220
 3329POPC   PO443068  28.104   9.293   5.237
 3329POPC   GL143069  28.083   9.152   5.704
 3329POPC   GL243070  28.310   8.871   5.801
 3329POPC   C1A43071  28.145   9.259   6.147
 3329POPC   D2A43072  28.319   8.987   6.476
 3329POPC   C3A43073  28.152   9.068   6.874
 3329POPC   C4A43074  28.322   9.199   7.242
 3329POPC   C1B43075  28.598   8.717   6.138
 3329POPC   C2B43076  28.769   8.704   6.535
 3329POPC   C3B43077  28.541   8.695   6.887
 3329POPC   C4B43078  28.706   8.779   7.250
 3330POPC   NC343079  43.896  20.797   5.259
 3330POPC   PO443080  43.748  20.134   5.342
 3330POPC   GL143081  43.784  20.462   5.664
 3330POPC   GL243082  44.097  20.681   5.758
 3330POPC   C1A43083  43.797  20.408   6.120
 3330POPC   D2A43084  43.885  20.172   6.507
 3330POPC   C3A43085  43.690  20.269   6.884
 3330POPC   C4A43086  43.773  20.241   7.297
 3330POPC   C1B43087  44.001  20.859   6.220
 3330POPC   C2B43088  43.747  20.718   6.615
 3330POPC   C3B43089  43.764  20.736   7.085
 3330POPC   C4B43090  44.176  20.859   7.278
 3331POPC   NC343091   3.525  28.052   5.440
 3331POPC   PO443092   3.123  28.610   5.269
 3331POPC   GL143093   3.243  28.580   5.715
 3331POPC   GL243094   3.586  28.463   5.757
 3331POPC   C1A43095   3.304  28.409   6.170
 3331POPC   D2A43096   3.406  28.139   6.497
 3331POPC   C3A43097   3.356  28.418   6.834
 3331POPC   C4A43098   3.398  28.550   7.218
 3331POPC   C1B43099   3.798  28.303   6.146
 3331POPC   C2B43100   3.780  28.497   6.554
 3331POPC   C3B43101   3.849  28.337   6.979
 3331POPC   C4B43102   3.878  28.446   7.421
 3332POPC   NC343103  21.601  42.214   5.313
 3332POPC   PO443104  21.208  42.831   5.381
 3332POPC   GL143105  21.258  42.495   5.658
 3332POPC   GL243106  21.037  42.204   5.605
 3332POPC   C1A43107  21.553  42.396   5.969
 3332POPC   D2A43108  21.584  42.241   6.384
 3332POPC   C3A43109  21.481  42.477   6.737
 3332POPC   C4A43110  21.506  42.359   7.151
 3332POPC   C1B43111  21.147  42.092   6.048
 3332POPC   C2B43112  21.102  42.152   6.518
 3332POPC   C3B43113  21.234  41.959   6.921
 3332POPC   C4B43114  21.201  42.017   7.381
 3333POPC   NC343115   6.312  30.996   5.371
 3333POPC   PO443116   6.888  30.815   5.127
 3333POPC   GL143117   6.792  30.892   5.733
 3333POPC   GL243118   6.660  30.582   5.957
 3333POPC   C1A43119   6.929  30.883   6.227
 3333POPC   D2A43120   6.762  30.623   6.603
 3333POPC   C3A43121   6.578  30.779   7.002
 3333POPC   C4A43122   6.528  31.065   7.344
 3333POPC   C1B43123   6.265  30.450   6.199
 3333POPC   C2B43124   6.128  30.229   6.583
 3333POPC   C3B43125   6.102  30.352   7.013
 3333POPC   C4B43126   6.229  30.629   7.354
 3334POPC   NC343127   7.158  17.672   5.533
 3334POPC   PO443128   7.368  17.055   5.394
 3334POPC   GL143129   7.473  17.336   5.772
 3334POPC   GL243130   7.625  17.689   5.755
 3334POPC   C1A43131   7.351  17.548   6.182
 3334POPC   D2A43132   7.275  17.803   6.557
 3334POPC   C3A43133   7.190  17.628   6.932
 3334POPC   C4A43134   7.369  17.644   7.311
 3334POPC   C1B43135   7.818  17.805   6.150
 3334POPC   C2B43136   7.903  17.641   6.559
 3334POPC   C3B43137   7.748  17.628   6.945
 3334POPC   C4B43138   7.836  17.803   7.312
 3335POPC   NC343139  17.342   2.811   5.356
 3335POPC   PO443140  17.950   2.455   5.450
 3335POPC   GL143141  17.750   2.773   5.732
 3335POPC   GL243142  17.390   2.912   5.868
 3335POPC   C1A43143  17.830   2.926   6.120
 3335POPC   D2A43144  17.595   2.961   6.488
 3335POPC   C3A43145  17.764   2.742   6.826
 3335POPC   C4A43146  17.652   2.643   7.213
 3335POPC   C1B43147  17.042   3.093   6.192
 3335POPC   C2B43148  16.826   3.123   6.655
 3335POPC   C3B43149  16.894   3.073   7.126
 3335POPC   C4B43150  17.190   2.892   7.438
 3336POPC   NC343151   5.322  32.902   5.424
 3336POPC   PO443152   5.842  33.401   5.457
 3336POPC   GL143153   5.783  32.958   5.689
 3336POPC   GL243154   6.022  32.652   5.784
 3336POPC   C1A43155   5.636  32.834   6.109
 3336POPC   D2A43156   5.752  33.057   6.468
 3336POPC   C3A43157   5.632  33.022   6.887
 3336POPC   C4A43158   5.721  33.204   7.299
 3336POPC   C1B43159   6.203  32.846   6.185
 3336POPC   C2B43160   6.238  33.114   6.565
 3336POPC   C3B43161   6.118  33.080   6.983
 3336POPC   C4B43162   6.045  32.767   7.266
 3337POPC   NC343163  16.905  20.297   5.371
 3337POPC   PO443164  16.668  20.894   5.094
 3337POPC   GL143165  16.731  20.791   5.571
 3337POPC   GL243166  16.567  20.481   5.716
 3337POPC   C1A43167  16.662  20.852   6.047
 3337POPC   D2A43168  16.487  20.782   6.469
 3337POPC   C3A43169  16.684  20.854   6.886
 3337POPC   C4A43170  16.457  20.894   7.281
 3337POPC   C1B43171  16.729  20.340   6.142
 3337POPC   C2B43172  16.848  20.449   6.570
 3337POPC   C3B43173  16.607  20.348   6.937
 3337POPC   C4B43174  16.818  20.232   7.273
 3338POPC   NC343175  36.822  37.078   5.188
 3338POPC   PO443176  37.181  36.575   5.465
 3338POPC   GL143177  37.031  36.911   5.757
 3338POPC   GL243178  36.866  36.646   5.909
 3338POPC   C1A43179  36.968  36.986   6.262
 3338POPC   D2A43180  37.107  36.824   6.689
 3338POPC   C3A43181  36.910  37.012   7.048
 3338POPC   C4A43182  36.527  36.821   7.193
 3338POPC   C1B43183  37.118  36.472   6.253
 3338POPC   C2B43184  36.987  36.303   6.651
 3338POPC   C3B43185  36.936  36.491   7.050
 3338POPC   C4B43186  37.283  36.739   7.211
 3339POPC   NC343187  39.018   2.414   5.426
 3339POPC   PO443188  39.448   2.960   5.409
 3339POPC   GL143189  39.399   2.736   5.814
 3339POPC   GL243190  39.036   2.631   5.880
 3339POPC   C1A43191  39.350   2.913   6.247
 3339POPC   D2A43192  39.325   3.041   6.690
 3339POPC   C3A43193  39.304   2.651   6.928
 3339POPC   C4A43194  39.340   2.642   7.368
 3339POPC   C1B43195  39.201   2.416   6.229
 3339POPC   C2B43196  39.058   2.126   6.518
 3339POPC   C3B43197  38.851   2.292   6.824
 3339POPC   C4B43198  38.968   2.360   7.210
 3340POPC   NC343199  10.200  42.191   5.558
 3340POPC   PO443200  10.619  42.568   5.194
 3340POPC   GL143201  10.557  42.499   5.743
 3340POPC   GL243202  10.463  42.233   5.981
 3340POPC   C1A43203  10.834  42.603   6.121
 3340POPC   D2A43204  10.933  42.593   6.571
 3340POPC   C3A43205  10.855  42.172   6.778
 3340POPC   C4A43206  10.653  41.980   7.140
 3340POPC   C1B43207  10.354  42.577   6.246
 3340POPC   C2B43208  10.412  42.397   6.646
 3340POPC   C3B43209  10.349  42.394   7.070
 3340POPC   C4B43210  10.334  42.285   7.511
 3341POPC   NC343211  34.129  31.870   5.341
 3341POPC   PO443212  34.712  32.261   5.368
 3341POPC   GL143213  34.737  32.366   5.783
 3341POPC   GL243214  34.693  32.053   5.948
 3341POPC   C1A43215  34.523  32.516   6.150
 3341POPC   D2A43216  34.736  32.457   6.536
 3341POPC   C3A43217  34.485  32.439   6.899
 3341POPC   C4A43218  34.539  32.363   7.312
 3341POPC   C1B43219  34.412  32.032   6.340
 3341POPC   C2B43220  34.206  32.028   6.767
 3341POPC   C3B43221  34.347  31.881   7.177
 3341POPC   C4B43222  34.609  31.932   7.564
 3342POPC   NC343223   3.714  32.142   5.385
 3342POPC   PO443224   3.315  32.770   5.337
 3342POPC   GL143225   3.377  32.400   5.684
 3342POPC   GL243226   3.539  32.112   5.859
 3342POPC   C1A43227   3.417  32.505   6.158
 3342POPC   D2A43228   3.592  32.202   6.430
 3342POPC   C3A43229   3.704  32.278   6.850
 3342POPC   C4A43230   3.380  32.225   7.150
 3342POPC   C1B43231   3.897  31.955   6.106
 3342POPC   C2B43232   4.091  32.000   6.535
 3342POPC   C3B43233   4.076  31.897   6.971
 3342POPC   C4B43234   3.884  32.076   7.319
 3343POPC   NC343235   4.025  41.712   5.631
 3343POPC   PO443236   4.691  41.784   5.354
 3343POPC   GL143237   4.574  41.714   5.784
 3343POPC   GL243238   4.513  41.371   5.929
 3343POPC   C1A43239   4.511  41.773   6.249
 3343POPC   D2A43240   4.275  41.814   6.621
 3343POPC   C3A43241   4.314  41.653   7.043
 3343POPC   C4A43242   4.376  41.799   7.489
 3343POPC   C1B43243   4.267  41.280   6.292
 3343POPC   C2B43244   3.995  41.373   6.634
 3343POPC   C3B43245   4.005  41.218   7.033
 3343POPC   C4B43246   4.043  41.420   7.405
 3344POPC   NC343247   3.440   5.139   5.371
 3344POPC   PO443248   3.919   4.714   5.496
 3344POPC   GL143249   3.672   4.903   5.797
 3344POPC   GL243250   3.320   4.873   5.810
 3344POPC   C1A43251   3.677   4.848   6.234
 3344POPC   D2A43252   3.576   5.061   6.615
 3344POPC   C3A43253   3.745   5.017   7.028
 3344POPC   C4A43254   3.943   4.622   7.099
 3344POPC   C1B43255   3.230   5.116   6.199
 3344POPC   C2B43256   3.075   5.101   6.617
 3344POPC   C3B43257   3.223   5.076   7.016
 3344POPC   C4B43258   3.389   5.235   7.371
 3345POPC   NC343259  10.613  28.934   5.547
 3345POPC   PO443260  10.271  29.540   5.478
 3345POPC   GL143261  10.417  29.334   5.813
 3345POPC   GL243262  10.251  29.038   5.936
 3345POPC   C1A43263  10.608  29.326   6.206
 3345POPC   D2A43264  10.702  29.079   6.550
 3345POPC   C3A43265  10.553  29.268   6.883
 3345POPC   C4A43266  10.642  29.193   7.295
 3345POPC   C1B43267  10.492  28.769   6.208
 3345POPC   C2B43268  10.516  28.572   6.615
 3345POPC   C3B43269  10.507  28.765   7.026
 3345POPC   C4B43270  10.220  28.857   7.359
 3346POPC   NC343271  36.662   1.529   5.451
 3346POPC   PO443272  37.365   1.620   5.277
 3346POPC   GL143273  37.219   1.319   5.710
 3346POPC   GL243274  36.867   1.286   5.868
 3346POPC   C1A43275  37.193   1.206   6.227
 3346POPC   D2A43276  36.987   1.441   6.623
 3346POPC   C3A43277  36.886   1.204   7.030
 3346POPC   C4A43278  37.176   1.072   7.373
 3346POPC   C1B43279  36.648   1.566   6.158
 3346POPC   C2B43280  36.464   1.612   6.571
 3346POPC   C3B43281  36.632   1.677   6.990
 3346POPC   C4B43282  36.669   1.500   7.397
 3347POPC   NC343283   3.757  34.028   4.955
 3347POPC   PO443284   3.603  33.850   5.499
 3347POPC   GL143285   3.389  33.787   5.867
 3347POPC   GL243286   3.047  33.891   5.896
 3347POPC   C1A43287   3.557  33.562   6.181
 3347POPC   D2A43288   3.495  33.392   6.536
 3347POPC   C3A43289   3.656  33.647   6.791
 3347POPC   C4A43290   3.490  33.659   7.177
 3347POPC   C1B43291   3.195  33.883   6.356
 3347POPC   C2B43292   3.224  33.919   6.810
 3347POPC   C3B43293   2.999  33.832   7.179
 3347POPC   C4B43294   2.896  33.951   7.609
 3348POPC   NC343295  32.423   3.742   5.373
 3348POPC   PO443296  32.409   3.178   5.783
 3348POPC   GL143297  32.188   3.554   5.901
 3348POPC   GL243298  32.396   3.835   5.898
 3348POPC   C1A43299  32.005   3.561   6.324
 3348POPC   D2A43300  31.736   3.564   6.698
 3348POPC   C3A43301  31.885   3.741   7.108
 3348POPC   C4A43302  32.049   3.606   7.538
 3348POPC   C1B43303  32.352   3.964   6.335
 3348POPC   C2B43304  32.237   3.771   6.738
 3348POPC   C3B43305  32.369   3.594   7.133
 3348POPC   C4B43306  32.589   3.728   7.532
 3349POPC   NC343307  44.987   0.270   5.425
 3349POPC   PO443308  44.615   0.865   5.415
 3349POPC   GL143309  44.692   0.567   5.775
 3349POPC   GL243310  44.525   0.261   5.880
 3349POPC   C1A43311  44.927   0.390   6.174
 3349POPC   D2A43312   0.110   0.313   6.607
 3349POPC   C3A43313  44.809   0.325   6.947
 3349POPC   C4A43314  44.827   0.159   7.370
 3349POPC   C1B43315  44.408   0.391   6.295
 3349POPC   C2B43316  44.328   0.359   6.751
 3349POPC   C3B43317  44.355   0.182   7.172
 3349POPC   C4B43318  44.385   0.235   7.637
 3350POPC   NC343319  34.120  37.045   5.383
 3350POPC   PO443320  33.693  36.555   5.643
 3350POPC   GL143321  33.925  36.843   5.860
 3350POPC   GL243322  33.698  36.735   6.130
 3350POPC   C1A43323  34.002  37.132   6.179
 3350POPC   D2A43324  33.826  37.243   6.585
 3350POPC   C3A43325  33.913  36.927   6.910
 3350POPC   C4A43326  33.968  36.965   7.346
 3350POPC   C1B43327  33.461  37.105   6.255
 3350POPC   C2B43328  33.335  37.045   6.676
 3350POPC   C3B43329  33.452  36.958   7.104
 3350POPC   C4B43330  33.217  36.701   7.347
 3351POPC   NC343331  40.977   4.096   5.311
 3351POPC   PO443332  40.356   4.284   5.545
 3351POPC   GL143333  40.713   4.377   5.818
 3351POPC   GL243334  41.000   4.124   5.815
 3351POPC   C1A43335  40.812   4.575   6.230
 3351POPC   D2A43336  40.882   4.730   6.660
 3351POPC   C3A43337  40.786   4.465   7.031
 3351POPC   C4A43338  40.468   4.226   7.222
 3351POPC   C1B43339  40.844   4.059   6.206
 3351POPC   C2B43340  40.958   4.194   6.598
 3351POPC   C3B43341  40.818   3.962   6.929
 3351POPC   C4B43342  40.914   4.009   7.341
 3352POPC   NC343343  25.710   4.372   5.606
 3352POPC   PO443344  25.017   4.509   5.409
 3352POPC   GL143345  25.276   4.486   5.850
 3352POPC   GL243346  25.309   4.102   5.898
 3352POPC   C1A43347  25.587   4.393   6.266
 3352POPC   D2A43348  25.449   4.250   6.710
 3352POPC   C3A43349  25.528   4.469   7.114
 3352POPC   C4A43350  25.818   4.594   7.442
 3352POPC   C1B43351  25.116   4.248   6.289
 3352POPC   C2B43352  25.050   4.574   6.600
 3352POPC   C3B43353  25.034   4.356   6.993
 3352POPC   C4B43354  25.255   4.052   7.221
 3353POPC   NC343355  42.929  25.609   5.135
 3353POPC   PO443356  42.442  25.646   5.602
 3353POPC   GL143357  42.892  25.520   5.713
 3353POPC   GL243358  43.062  25.173   5.775
 3353POPC   C1A43359  42.948  25.511   6.171
 3353POPC   D2A43360  42.819  25.392   6.589
 3353POPC   C3A43361  42.977  25.582   6.974
 3353POPC   C4A43362  42.986  25.451   7.412
 3353POPC   C1B43363  42.996  24.981   6.220
 3353POPC   C2B43364  43.033  24.935   6.677
 3353POPC   C3B43365  43.109  25.098   7.088
 3353POPC   C4B43366  43.179  25.029   7.615
 3354POPC   NC343367  19.647  14.488   5.537
 3354POPC   PO443368  19.930  13.845   5.398
 3354POPC   GL143369  19.938  14.158   5.783
 3354POPC   GL243370  19.935  14.520   5.949
 3354POPC   C1A43371  19.692  14.123   6.191
 3354POPC   D2A43372  19.702  14.301   6.585
 3354POPC   C3A43373  19.765  14.153   6.989
 3354POPC   C4A43374  19.999  14.443   7.238
 3354POPC   C1B43375  19.550  14.655   6.220
 3354POPC   C2B43376  19.330  14.621   6.646
 3354POPC   C3B43377  19.438  14.556   7.082
 3354POPC   C4B43378  19.555  14.363   7.482
 3355POPC   NC343379  34.201  26.417   5.612
 3355POPC   PO443380  33.973  25.923   5.129
 3355POPC   GL143381  33.896  26.012   5.661
 3355POPC   GL243382  33.716  26.306   5.794
 3355POPC   C1A43383  34.035  25.980   6.135
 3355POPC   D2A43384  34.285  25.853   6.541
 3355POPC   C3A43385  34.050  25.804   6.961
 3355POPC   C4A43386  33.848  26.069   7.334
 3355POPC   C1B43387  33.611  26.306   6.270
 3355POPC   C2B43388  33.784  26.433   6.706
 3355POPC   C3B43389  33.580  26.502   7.124
 3355POPC   C4B43390  33.390  26.320   7.502
 3356POPC   NC343391  38.964  30.126   5.382
 3356POPC   PO443392  39.445  29.617   5.446
 3356POPC   GL143393  39.351  29.970   5.730
 3356POPC   GL243394  39.299  30.356   5.687
 3356POPC   C1A43395  39.184  29.984   6.150
 3356POPC   D2A43396  39.232  29.768   6.515
 3356POPC   C3A43397  39.212  29.997   6.831
 3356POPC   C4A43398  39.111  29.906   7.212
 3356POPC   C1B43399  39.565  30.347   6.057
 3356POPC   C2B43400  39.472  30.330   6.495
 3356POPC   C3B43401  39.536  30.364   6.947
 3356POPC   C4B43402  39.235  30.378   7.295
 3357POPC   NC343403  29.429  11.590   5.325
 3357POPC   PO443404  28.879  11.221   5.408
 3357POPC   GL143405  29.069  11.265   5.838
 3357POPC   GL243406  29.360  11.451   5.824
 3357POPC   C1A43407  29.346  11.047   6.193
 3357POPC   D2A43408  29.535  11.027   6.637
 3357POPC   C3A43409  29.204  11.016   6.974
 3357POPC   C4A43410  28.844  11.259   7.137
 3357POPC   C1B43411  29.224  11.544   6.228
 3357POPC   C2B43412  29.099  11.364   6.585
 3357POPC   C3B43413  29.254  11.508   6.952
 3357POPC   C4B43414  29.332  11.740   7.259
 3358POPC   NC343415  40.810   7.089   5.432
 3358POPC   PO443416  40.636   6.468   5.342
 3358POPC   GL143417  40.775   6.677   5.743
 3358POPC   GL243418  40.564   6.985   5.866
 3358POPC   C1A43419  40.923   6.560   6.182
 3358POPC   D2A43420  41.168   6.664   6.572
 3358POPC   C3A43421  40.915   6.636   6.948
 3358POPC   C4A43422  40.926   6.650   7.390
 3358POPC   C1B43423  40.405   6.609   6.100
 3358POPC   C2B43424  40.458   6.589   6.548
 3358POPC   C3B43425  40.453   6.873   6.901
 3358POPC   C4B43426  40.438   6.751   7.315
 3359POPC   NC343427  39.529  25.673   5.173
 3359POPC   PO443428  39.573  26.316   5.401
 3359POPC   GL143429  39.942  26.256   5.706
 3359POPC   GL243430  40.129  25.929   5.653
 3359POPC   C1A43431  40.004  26.216   6.180
 3359POPC   D2A43432  40.150  26.401   6.623
 3359POPC   C3A43433  40.086  26.209   7.046
 3359POPC   C4A43434  39.772  25.937   7.262
 3359POPC   C1B43435  40.197  25.732   6.058
 3359POPC   C2B43436  40.165  25.857   6.498
 3359POPC   C3B43437  40.144  25.715   6.905
 3359POPC   C4B43438  40.431  25.840   7.214
 3360POPC   NC343439  26.995   3.340   5.204
 3360POPC   PO443440  26.326   3.465   5.320
 3360POPC   GL143441  26.700   3.519   5.622
 3360POPC   GL243442  26.678   3.878   5.719
 3360POPC   C1A43443  26.806   3.424   6.096
 3360POPC   D2A43444  26.942   3.244   6.539
 3360POPC   C3A43445  27.034   3.511   6.909
 3360POPC   C4A43446  27.024   3.357   7.330
 3360POPC   C1B43447  26.745   3.944   6.165
 3360POPC   C2B43448  26.708   3.704   6.546
 3360POPC   C3B43449  26.535   3.550   6.948
 3360POPC   C4B43450  26.633   3.688   7.372
 3361POPC   NC343451   2.270  44.707   5.333
 3361POPC   PO443452   1.739  44.306   5.374
 3361POPC   GL143453   1.886  44.569   5.689
 3361POPC   GL243454   2.167  44.376   5.739
 3361POPC   C1A43455   1.970  44.760   6.093
 3361POPC   D2A43456   1.875  44.620   6.530
 3361POPC   C3A43457   1.976  44.869   6.896
 3361POPC   C4A43458   1.746  44.842   7.292
 3361POPC   C1B43459   2.220  44.326   6.169
 3361POPC   C2B43460   2.391  44.580   6.496
 3361POPC   C3B43461   2.482  44.612   6.937
 3361POPC   C4B43462   2.167  44.529   7.240
 3362POPC   NC343463  14.440   8.662   5.403
 3362POPC   PO443464  13.915   9.133   5.404
 3362POPC   GL143465  14.326   9.176   5.716
 3362POPC   GL243466  14.438   8.861   5.859
 3362POPC   C1A43467  14.477   9.277   6.168
 3362POPC   D2A43468  14.212   9.302   6.579
 3362POPC   C3A43469  14.400   9.231   6.995
 3362POPC   C4A43470  14.208   8.916   7.290
 3362POPC   C1B43471  14.380   8.775   6.250
 3362POPC   C2B43472  14.574   8.913   6.593
 3362POPC   C3B43473  14.619   8.789   7.000
 3362POPC   C4B43474  14.703   8.993   7.426
 3363POPC   NC343475  18.040  34.166   5.619
 3363POPC   PO443476  17.959  33.562   5.316
 3363POPC   GL143477  18.146  33.604   5.724
 3363POPC   GL243478  18.510  33.718   5.708
 3363POPC   C1A43479  18.076  33.758   6.153
 3363POPC   D2A43480  18.166  34.092   6.481
 3363POPC   C3A43481  18.110  33.887   6.889
 3363POPC   C4A43482  17.964  33.987   7.291
 3363POPC   C1B43483  18.560  33.913   6.136
 3363POPC   C2B43484  18.550  33.760   6.553
 3363POPC   C3B43485  18.613  33.908   6.939
 3363POPC   C4B43486  18.453  33.744   7.290
 3364POPC   NC343487  19.420  37.723   5.573
 3364POPC   PO443488  20.075  38.044   5.398
 3364POPC   GL143489  19.866  37.935   5.766
 3364POPC   GL243490  19.934  37.579   5.759
 3364POPC   C1A43491  19.813  37.934   6.224
 3364POPC   D2A43492  19.640  38.078   6.629
 3364POPC   C3A43493  19.834  37.881   6.985
 3364POPC   C4A43494  19.781  37.750   7.391
 3364POPC   C1B43495  19.698  37.447   6.142
 3364POPC   C2B43496  19.592  37.234   6.507
 3364POPC   C3B43497  19.559  37.442   6.891
 3364POPC   C4B43498  19.696  37.261   7.241
 3365POPC   NC343499  39.640  27.897   5.038
 3365POPC   PO443500  39.095  27.684   5.421
 3365POPC   GL143501  39.106  27.693   5.853
 3365POPC   GL243502  39.400  27.838   5.880
 3365POPC   C1A43503  39.077  27.872   6.288
 3365POPC   D2A43504  38.961  27.622   6.647
 3365POPC   C3A43505  39.240  27.501   6.952
 3365POPC   C4A43506  39.190  27.494   7.361
 3365POPC   C1B43507  39.576  27.647   6.162
 3365POPC   C2B43508  39.506  27.689   6.555
 3365POPC   C3B43509  39.697  27.724   6.915
 3365POPC   C4B43510  39.582  27.789   7.310
 3366POPC   NC343511   2.876  13.730   5.318
 3366POPC   PO443512   3.009  13.150   5.370
 3366POPC   GL143513   2.710  13.328   5.706
 3366POPC   GL243514   2.668  13.676   5.792
 3366POPC   C1A43515   2.529  13.308   6.119
 3366POPC   D2A43516   2.540  13.513   6.510
 3366POPC   C3A43517   2.717  13.266   6.849
 3366POPC   C4A43518   2.683  13.356   7.273
 3366POPC   C1B43519   2.933  13.619   6.161
 3366POPC   C2B43520   3.075  13.529   6.594
 3366POPC   C3B43521   3.085  13.591   7.057
 3366POPC   C4B43522   3.025  13.800   7.449
 3367POPC   NC343523  38.137  13.823   5.352
 3367POPC   PO443524  37.484  13.786   5.313
 3367POPC   GL143525  37.711  13.936   5.641
 3367POPC   GL243526  37.826  13.581   5.698
 3367POPC   C1A43527  37.712  13.971   6.074
 3367POPC   D2A43528  37.838  13.852   6.470
 3367POPC   C3A43529  37.571  13.823   6.826
 3367POPC   C4A43530  37.871  13.919   7.139
 3367POPC   C1B43531  37.766  13.461   6.134
 3367POPC   C2B43532  37.694  13.349   6.608
 3367POPC   C3B43533  37.738  13.397   7.081
 3367POPC   C4B43534  37.477  13.380   7.438
 3368POPC   NC343535  19.606  30.391   5.403
 3368POPC   PO443536  19.695  31.053   5.398
 3368POPC   GL143537  19.636  30.791   5.775
 3368POPC   GL243538  19.909  30.566   5.782
 3368POPC   C1A43539  19.593  30.865   6.219
 3368POPC   D2A43540  19.910  30.975   6.506
 3368POPC   C3A43541  19.979  30.861   6.909
 3368POPC   C4A43542  19.705  30.690   7.169
 3368POPC   C1B43543  19.998  30.548   6.229
 3368POPC   C2B43544  20.156  30.413   6.643
 3368POPC   C3B43545  20.188  30.432   7.103
 3368POPC   C4B43546  19.912  30.326   7.451
 3369POPC   NC343547  22.645   8.787   5.532
 3369POPC   PO443548  22.583   9.300   5.048
 3369POPC   GL143549  22.707   9.310   5.550
 3369POPC   GL243550  23.011   9.153   5.678
 3369POPC   C1A43551  22.638   9.183   6.052
 3369POPC   D2A43552  22.578   9.095   6.523
 3369POPC   C3A43553  22.870   9.147   6.880
 3369POPC   C4A43554  23.039   8.853   7.171
 3369POPC   C1B43555  23.161   9.118   6.108
 3369POPC   C2B43556  23.285   9.205   6.533
 3369POPC   C3B43557  23.404   9.319   6.944
 3369POPC   C4B43558  23.163   9.333   7.306
 3370POPC   NC343559  10.658  41.409   5.492
 3370POPC   PO443560  10.663  42.070   5.521
 3370POPC   GL143561  10.625  41.734   5.878
 3370POPC   GL243562  10.378  41.419   5.917
 3370POPC   C1A43563  10.790  41.451   6.232
 3370POPC   D2A43564  10.794  41.273   6.665
 3370POPC   C3A43565  10.818  41.488   7.018
 3370POPC   C4A43566  10.540  41.401   7.353
 3370POPC   C1B43567  10.251  41.762   6.212
 3370POPC   C2B43568  10.317  41.865   6.645
 3370POPC   C3B43569  10.317  41.529   6.907
 3370POPC   C4B43570  10.053  41.308   7.208
 3371POPC   NC343571  30.625  21.681   5.395
 3371POPC   PO443572  30.528  21.020   5.268
 3371POPC   GL143573  30.615  21.096   5.748
 3371POPC   GL243574  30.711  21.462   5.872
 3371POPC   C1A43575  30.524  21.147   6.222
 3371POPC   D2A43576  30.336  21.052   6.633
 3371POPC   C3A43577  30.524  21.195   7.026
 3371POPC   C4A43578  30.810  20.976   7.275
 3371POPC   C1B43579  30.901  21.509   6.304
 3371POPC   C2B43580  30.868  21.505   6.771
 3371POPC   C3B43581  30.788  21.694   7.162
 3371POPC   C4B43582  30.663  21.426   7.506
 3372POPC   NC343583   0.598  39.138   5.380
 3372POPC   PO443584  44.959  38.985   5.574
 3372POPC   GL143585   0.236  39.179   5.867
 3372POPC   GL243586   0.564  39.228   5.907
 3372POPC   C1A43587   0.276  39.095   6.298
 3372POPC   D2A43588   0.012  39.116   6.635
 3372POPC   C3A43589   0.266  39.057   6.996
 3372POPC   C4A43590   0.214  38.939   7.434
 3372POPC   C1B43591   0.787  39.364   6.273
 3372POPC   C2B43592   0.798  39.439   6.713
 3372POPC   C3B43593   0.859  39.133   7.015
 3372POPC   C4B43594   0.666  39.161   7.367
 3373POPC   NC343595  20.182  42.389   5.556
 3373POPC   PO443596  19.599  42.535   5.423
 3373POPC   GL143597  19.777  42.539   5.832
 3373POPC   GL243598  19.579  42.780   5.939
 3373POPC   C1A43599  19.911  42.287   6.235
 3373POPC   D2A43600  20.099  42.182   6.657
 3373POPC   C3A43601  19.889  42.042   7.051
 3373POPC   C4A43602  19.910  41.764   7.441
 3373POPC   C1B43603  19.411  42.363   6.150
 3373POPC   C2B43604  19.340  42.054   6.506
 3373POPC   C3B43605  19.365  42.198   6.934
 3373POPC   C4B43606  19.666  42.482   7.144
 3374POPC   NC343607  12.466  15.736   5.582
 3374POPC   PO443608  13.152  15.613   5.464
 3374POPC   GL143609  12.946  15.830   5.791
 3374POPC   GL243610  13.138  15.614   6.004
 3374POPC   C1A43611  12.693  15.752   6.202
 3374POPC   D2A43612  12.846  15.728   6.633
 3374POPC   C3A43613  12.543  15.937   6.897
 3374POPC   C4A43614  12.591  15.996   7.325
 3374POPC   C1B43615  13.133  15.991   6.262
 3374POPC   C2B43616  13.269  16.038   6.668
 3374POPC   C3B43617  13.050  16.016   7.071
 3374POPC   C4B43618  13.032  15.930   7.520
 3375POPC   NC343619   1.954   3.046   5.434
 3375POPC   PO443620   2.042   2.397   5.409
 3375POPC   GL143621   1.930   2.567   5.806
 3375POPC   GL243622   1.828   2.912   5.918
 3375POPC   C1A43623   2.010   2.491   6.238
 3375POPC   D2A43624   2.275   2.549   6.594
 3375POPC   C3A43625   2.117   2.604   7.042
 3375POPC   C4A43626   1.697   2.659   7.226
 3375POPC   C1B43627   2.107   3.005   6.292
 3375POPC   C2B43628   2.215   3.029   6.746
 3375POPC   C3B43629   1.991   3.134   7.131
 3375POPC   C4B43630   2.003   2.959   7.530
 3376POPC   NC343631  32.670  22.844   5.524
 3376POPC   PO443632  33.255  22.889   5.464
 3376POPC   GL143633  33.059  22.958   5.853
 3376POPC   GL243634  32.939  22.627   5.936
 3376POPC   C1A43635  32.997  23.075   6.304
 3376POPC   D2A43636  33.227  23.128   6.720
 3376POPC   C3A43637  32.977  23.174   7.130
 3376POPC   C4A43638  32.830  23.286   7.584
 3376POPC   C1B43639  33.338  22.683   6.184
 3376POPC   C2B43640  33.446  22.614   6.617
 3376POPC   C3B43641  33.315  22.740   7.043
 3376POPC   C4B43642  33.187  22.872   7.479
 3377POPC   NC343643  36.158   1.022   5.311
 3377POPC   PO443644  36.743   1.052   5.446
 3377POPC   GL143645  36.363   1.138   5.769
 3377POPC   GL243646  35.979   1.227   5.757
 3377POPC   C1A43647  36.129   0.944   6.146
 3377POPC   D2A43648  36.263   1.109   6.539
 3377POPC   C3A43649  36.124   0.918   6.900
 3377POPC   C4A43650  36.401   0.864   7.229
 3377POPC   C1B43651  36.124   1.450   6.139
 3377POPC   C2B43652  35.973   1.534   6.553
 3377POPC   C3B43653  36.100   1.436   6.954
 3377POPC   C4B43654  36.189   1.650   7.302
 3378POPC   NC343655  20.235  26.462   5.607
 3378POPC   PO443656  19.614  26.548   5.545
 3378POPC   GL143657  19.582  26.800   5.938
 3378POPC   GL243658  19.861  27.019   6.021
 3378POPC   C1A43659  19.529  26.926   6.395
 3378POPC   D2A43660  19.836  26.943   6.710
 3378POPC   C3A43661  19.724  26.975   7.084
 3378POPC   C4A43662  19.573  26.681   7.269
 3378POPC   C1B43663  19.958  26.644   6.315
 3378POPC   C2B43664  20.100  26.512   6.764
 3378POPC   C3B43665  20.094  26.624   7.192
 3378POPC   C4B43666  20.382  26.814   7.484
 3379POPC   NC343667  38.956  13.297   5.573
 3379POPC   PO443668  39.311  13.903   5.449
 3379POPC   GL143669  39.199  14.007   5.824
 3379POPC   GL243670  38.935  14.258   5.886
 3379POPC   C1A43671  39.209  13.710   6.175
 3379POPC   D2A43672  39.097  13.485   6.532
 3379POPC   C3A43673  39.221  13.581   6.927
 3379POPC   C4A43674  39.147  13.493   7.325
 3379POPC   C1B43675  38.854  14.084   6.272
 3379POPC   C2B43676  39.051  13.997   6.644
 3379POPC   C3B43677  39.246  14.071   7.017
 3379POPC   C4B43678  39.159  14.076   7.444
 3380POPC   NC343679  20.109  23.087   5.065
 3380POPC   PO443680  20.695  22.779   5.401
 3380POPC   GL143681  20.671  22.986   5.794
 3380POPC   GL243682  20.784  23.315   5.703
 3380POPC   C1A43683  20.444  23.192   6.158
 3380POPC   D2A43684  20.438  23.406   6.526
 3380POPC   C3A43685  20.498  23.181   6.891
 3380POPC   C4A43686  20.328  23.151   7.291
 3380POPC   C1B43687  20.952  23.244   6.124
 3380POPC   C2B43688  20.842  23.017   6.479
 3380POPC   C3B43689  20.981  22.972   6.881
 3380POPC   C4B43690  20.754  22.888   7.244
 3381POPC   NC343691  26.587  17.128   5.464
 3381POPC   PO443692  26.558  16.435   5.286
 3381POPC   GL143693  26.631  16.481   5.742
 3381POPC   GL243694  26.696  16.815   5.856
 3381POPC   C1A43695  26.556  16.477   6.210
 3381POPC   D2A43696  26.743  16.606   6.619
 3381POPC   C3A43697  26.588  16.405   6.970
 3381POPC   C4A43698  26.613  16.612   7.333
 3381POPC   C1B43699  26.861  16.956   6.252
 3381POPC   C2B43700  26.878  17.130   6.677
 3381POPC   C3B43701  26.897  16.976   7.098
 3381POPC   C4B43702  26.893  16.964   7.558
 3382POPC   NC343703  27.310  20.246   5.518
 3382POPC   PO443704  27.812  20.648   5.295
 3382POPC   GL143705  27.597  20.702   5.735
 3382POPC   GL243706  27.218  20.830   5.702
 3382POPC   C1A43707  27.702  20.480   6.171
 3382POPC   D2A43708  27.872  20.609   6.609
 3382POPC   C3A43709  27.635  20.390   6.905
 3382POPC   C4A43710  27.517  20.469   7.331
 3382POPC   C1B43711  27.187  20.626   6.118
 3382POPC   C2B43712  27.339  20.658   6.558
 3382POPC   C3B43713  27.158  20.573   6.970
 3382POPC   C4B43714  27.024  20.548   7.401
 3383POPC   NC343715  38.219   6.858   5.339
 3383POPC   PO443716  38.115   6.339   5.745
 3383POPC   GL143717  38.342   6.728   5.819
 3383POPC   GL243718  38.078   6.982   5.827
 3383POPC   C1A43719  38.670   6.738   6.144
 3383POPC   D2A43720  38.679   6.411   6.485
 3383POPC   C3A43721  38.634   6.554   6.898
 3383POPC   C4A43722  38.540   6.457   7.299
 3383POPC   C1B43723  38.104   6.786   6.281
 3383POPC   C2B43724  38.161   6.525   6.674
 3383POPC   C3B43725  38.073   6.545   7.146
 3383POPC   C4B43726  38.253   6.823   7.522
 3384POPC   NC343727  25.385   4.865   5.468
 3384POPC   PO443728  24.983   5.293   5.289
 3384POPC   GL143729  25.053   5.125   5.760
 3384POPC   GL243730  25.392   5.191   5.902
 3384POPC   C1A43731  25.006   5.203   6.249
 3384POPC   D2A43732  25.242   5.124   6.691
 3384POPC   C3A43733  25.068   4.870   7.037
 3384POPC   C4A43734  24.887   5.008   7.413
 3384POPC   C1B43735  25.379   4.858   6.273
 3384POPC   C2B43736  25.597   4.740   6.675
 3384POPC   C3B43737  25.583   4.967   7.091
 3384POPC   C4B43738  25.324   5.262   7.252
 3385POPC   NC343739  38.330   9.327   5.117
 3385POPC   PO443740  38.435   8.687   5.350
 3385POPC   GL143741  38.524   8.881   5.746
 3385POPC   GL243742  38.453   9.228   5.724
 3385POPC   C1A43743  38.479   8.951   6.182
 3385POPC   D2A43744  38.322   9.178   6.521
 3385POPC   C3A43745  38.201   8.838   6.811
 3385POPC   C4A43746  38.259   8.928   7.219
 3385POPC   C1B43747  38.805   9.322   6.073
 3385POPC   C2B43748  38.848   9.236   6.526
 3385POPC   C3B43749  38.666   9.135   6.920
 3385POPC   C4B43750  38.641   9.371   7.284
 3386POPC   NC343751  33.256   6.130   5.480
 3386POPC   PO443752  32.681   5.685   5.543
 3386POPC   GL143753  33.059   5.733   5.798
 3386POPC   GL243754  33.322   5.489   5.737
 3386POPC   C1A43755  33.087   5.883   6.230
 3386POPC   D2A43756  32.975   6.094   6.607
 3386POPC   C3A43757  33.056   5.948   7.007
 3386POPC   C4A43758  33.053   6.041   7.438
 3386POPC   C1B43759  33.415   5.455   6.181
 3386POPC   C2B43760  33.237   5.534   6.594
 3386POPC   C3B43761  33.437   5.556   6.981
 3386POPC   C4B43762  33.475   5.825   7.286
 3387POPC   NC343763  27.750  32.185   5.419
 3387POPC   PO443764  27.134  32.531   5.425
 3387POPC   GL143765  27.362  32.311   5.738
 3387POPC   GL243766  27.678  32.464   5.844
 3387POPC   C1A43767  27.395  32.121   6.128
 3387POPC   D2A43768  27.542  32.288   6.523
 3387POPC   C3A43769  27.386  32.044   6.841
 3387POPC   C4A43770  27.369  32.152   7.271
 3387POPC   C1B43771  27.932  32.505   6.208
 3387POPC   C2B43772  28.064  32.353   6.627
 3387POPC   C3B43773  27.807  32.305   6.981
 3387POPC   C4B43774  27.738  32.578   7.333
 3388POPC   NC343775  29.282   9.915   5.393
 3388POPC   PO443776  28.843   9.399   5.466
 3388POPC   GL143777  28.818   9.639   5.829
 3388POPC   GL243778  28.981   9.974   5.858
 3388POPC   C1A43779  29.046   9.544   6.195
 3388POPC   D2A43780  29.176   9.663   6.591
 3388POPC   C3A43781  29.067   9.505   6.964
 3388POPC   C4A43782  29.278   9.519   7.324
 3388POPC   C1B43783  29.305  10.036   6.188
 3388POPC   C2B43784  29.272  10.151   6.644
 3388POPC   C3B43785  29.244  10.018   7.126
 3388POPC   C4B43786  29.220  10.341   7.482
 3389POPC   NC343787  14.075  18.249   5.511
 3389POPC   PO443788  14.672  18.429   5.288
 3389POPC   GL143789  14.551  18.293   5.745
 3389POPC   GL243790  14.601  17.955   5.906
 3389POPC   C1A43791  14.564  18.392   6.214
 3389POPC   D2A43792  14.629  18.115   6.565
 3389POPC   C3A43793  14.474  18.315   6.911
 3389POPC   C4A43794  14.680  18.472   7.252
 3389POPC   C1B43795  14.207  18.036   6.126
 3389POPC   C2B43796  14.129  18.183   6.526
 3389POPC   C3B43797  14.082  17.950   6.895
 3389POPC   C4B43798  14.290  17.998   7.271
 3390POPC   NC343799  18.957  13.393   5.387
 3390POPC   PO443800  18.887  14.054   5.253
 3390POPC   GL143801  18.976  13.818   5.689
 3390POPC   GL243802  19.218  13.575   5.788
 3390POPC   C1A43803  18.871  13.707   6.138
 3390POPC   D2A43804  18.807  13.362   6.443
 3390POPC   C3A43805  18.822  13.472   6.884
 3390POPC   C4A43806  18.964  13.682   7.249
 3390POPC   C1B43807  19.173  13.218   6.092
 3390POPC   C2B43808  19.241  13.091   6.549
 3390POPC   C3B43809  19.302  13.246   6.986
 3390POPC   C4B43810  19.236  13.293   7.435
 3391POPC   NC343811  35.782   2.817   5.545
 3391POPC   PO443812  36.417   2.679   5.410
 3391POPC   GL143813  36.256   2.798   5.789
 3391POPC   GL243814  36.068   2.479   5.817
 3391POPC   C1A43815  36.335   2.672   6.225
 3391POPC   D2A43816  36.521   2.649   6.633
 3391POPC   C3A43817  36.288   2.944   6.894
 3391POPC   C4A43818  36.064   2.991   7.275
 3391POPC   C1B43819  35.903   2.366   6.201
 3391POPC   C2B43820  35.677   2.497   6.592
 3391POPC   C3B43821  35.864   2.570   6.997
 3391POPC   C4B43822  35.756   2.630   7.435
 3392POPC   NC343823  12.103   3.305   5.239
 3392POPC   PO443824  11.930   3.861   5.594
 3392POPC   GL143825  11.954   3.390   5.736
 3392POPC   GL243826  12.291   3.194   5.714
 3392POPC   C1A43827  11.807   3.357   6.161
 3392POPC   D2A43828  11.929   3.632   6.516
 3392POPC   C3A43829  11.828   3.483   6.912
 3392POPC   C4A43830  11.958   3.763   7.263
 3392POPC   C1B43831  12.329   3.342   6.134
 3392POPC   C2B43832  12.186   3.208   6.564
 3392POPC   C3B43833  12.328   3.375   6.948
 3392POPC   C4B43834  12.113   3.294   7.320
 3393POPC   NC343835  12.553  21.713   5.444
 3393POPC   PO443836  13.092  21.374   5.290
 3393POPC   GL143837  12.877  21.281   5.704
 3393POPC   GL243838  12.549  21.148   5.637
 3393POPC   C1A43839  12.902  21.233   6.169
 3393POPC   D2A43840  13.175  21.361   6.527
 3393POPC   C3A43841  13.223  21.503   6.951
 3393POPC   C4A43842  12.997  21.376   7.279
 3393POPC   C1B43843  12.509  20.886   6.034
 3393POPC   C2B43844  12.542  21.021   6.486
 3393POPC   C3B43845  12.790  21.213   6.839
 3393POPC   C4B43846  12.686  20.988   7.271
 3394POPC   NC343847  10.984   9.954   5.255
 3394POPC   PO443848  11.459   9.591   5.476
 3394POPC   GL143849  11.223   9.818   5.770
 3394POPC   GL243850  11.544   9.816   5.952
 3394POPC   C1A43851  11.147  10.082   6.158
 3394POPC   D2A43852  11.278  10.120   6.605
 3394POPC   C3A43853  10.978  10.069   6.943
 3394POPC   C4A43854  10.788   9.675   7.082
 3394POPC   C1B43855  11.286   9.545   6.222
 3394POPC   C2B43856  11.134   9.577   6.652
 3394POPC   C3B43857  11.317   9.717   7.004
 3394POPC   C4B43858  11.450   9.635   7.386
 3395POPC   NC343859  28.692   6.585   5.377
 3395POPC   PO443860  28.052   6.447   5.384
 3395POPC   GL143861  28.299   6.520   5.765
 3395POPC   GL243862  28.420   6.855   5.829
 3395POPC   C1A43863  28.111   6.415   6.165
 3395POPC   D2A43864  27.879   6.406   6.558
 3395POPC   C3A43865  28.070   6.248   6.935
 3395POPC   C4A43866  28.191   6.370   7.339
 3395POPC   C1B43867  28.282   6.876   6.271
 3395POPC   C2B43868  28.368   6.584   6.587
 3395POPC   C3B43869  28.482   6.615   6.974
 3395POPC   C4B43870  28.296   6.863   7.203
 3396POPC   NC343871  18.650  19.246   5.353
 3396POPC   PO443872  18.259  18.832   5.098
 3396POPC   GL143873  18.205  18.908   5.579
 3396POPC   GL243874  18.309  19.238   5.738
 3396POPC   C1A43875  18.180  18.863   6.054
 3396POPC   D2A43876  18.303  18.724   6.487
 3396POPC   C3A43877  18.023  18.878   6.821
 3396POPC   C4A43878  18.100  19.053   7.217
 3396POPC   C1B43879  18.554  19.193   6.146
 3396POPC   C2B43880  18.690  19.284   6.534
 3396POPC   C3B43881  18.536  19.066   6.852
 3396POPC   C4B43882  18.627  19.123   7.242
 3397POPC   NC343883   9.433  19.608   5.601
 3397POPC   PO443884   8.821  20.104   5.424
 3397POPC   GL143885   8.999  19.976   5.780
 3397POPC   GL243886   9.336  20.098   5.721
 3397POPC   C1A43887   8.799  19.805   6.141
 3397POPC   D2A43888   8.684  19.655   6.533
 3397POPC   C3A43889   8.774  19.928   6.889
 3397POPC   C4A43890   8.728  19.723   7.280
 3397POPC   C1B43891   9.358  20.004   6.174
 3397POPC   C2B43892   9.169  19.835   6.541
 3397POPC   C3B43893   9.212  19.670   6.954
 3397POPC   C4B43894   9.435  19.834   7.266
 3398POPC   NC343895  19.926   8.074   5.307
 3398POPC   PO443896  19.391   8.499   5.577
 3398POPC   GL143897  19.656   8.209   5.785
 3398POPC   GL243898  20.033   8.157   5.799
 3398POPC   C1A43899  19.702   8.185   6.237
 3398POPC   D2A43900  19.824   7.922   6.607
 3398POPC   C3A43901  19.611   8.000   6.987
 3398POPC   C4A43902  19.696   8.248   7.330
 3398POPC   C1B43903  20.183   8.058   6.214
 3398POPC   C2B43904  20.142   8.334   6.585
 3398POPC   C3B43905  20.130   8.205   7.009
 3398POPC   C4B43906  20.052   7.841   7.251
 3399POPC   NC343907   7.304  25.847   5.370
 3399POPC   PO443908   7.859  26.138   5.248
 3399POPC   GL143909   7.626  26.069   5.693
 3399POPC   GL243910   7.563  25.732   5.827
 3399POPC   C1A43911   7.291  26.133   6.046
 3399POPC   D2A43912   7.403  26.295   6.455
 3399POPC   C3A43913   7.311  26.075   6.845
 3399POPC   C4A43914   7.412  26.331   7.222
 3399POPC   C1B43915   7.642  25.839   6.282
 3399POPC   C2B43916   7.797  26.007   6.700
 3399POPC   C3B43917   7.706  25.875   7.143
 3399POPC   C4B43918   7.769  25.694   7.592
 3400POPC   NC343919  28.715  10.353   5.632
 3400POPC   PO443920  28.351  10.846   5.320
 3400POPC   GL143921  28.221  10.730   5.762
 3400POPC   GL243922  28.461  10.644   5.932
 3400POPC   C1A43923  28.053  10.608   6.222
 3400POPC   D2A43924  28.167  10.358   6.600
 3400POPC   C3A43925  28.309  10.521   7.012
 3400POPC   C4A43926  28.020  10.613   7.326
 3400POPC   C1B43927  28.518  10.370   6.241
 3400POPC   C2B43928  28.659  10.492   6.616
 3400POPC   C3B43929  28.833  10.255   6.900
 3400POPC   C4B43930  28.713  10.248   7.285
 3401POPC   NC343931  34.882  15.659   5.635
 3401POPC   PO443932  34.486  16.156   5.394
 3401POPC   GL143933  34.480  15.923   5.791
 3401POPC   GL243934  34.715  15.893   6.063
 3401POPC   C1A43935  34.230  15.833   6.160
 3401POPC   D2A43936  34.357  15.934   6.558
 3401POPC   C3A43937  34.225  15.789   6.946
 3401POPC   C4A43938  34.583  15.756   7.234
 3401POPC   C1B43939  34.987  15.550   6.264
 3401POPC   C2B43940  35.190  15.596   6.658
 3401POPC   C3B43941  35.117  15.696   7.096
 3401POPC   C4B43942  34.991  15.691   7.538
 3402POPC   NC343943  16.214   8.981   5.623
 3402POPC   PO443944  16.876   9.090   5.403
 3402POPC   GL143945  16.673   9.168   5.793
 3402POPC   GL243946  16.619   8.825   5.926
 3402POPC   C1A43947  16.384   9.265   6.162
 3402POPC   D2A43948  16.311   9.011   6.537
 3402POPC   C3A43949  16.673   9.044   6.817
 3402POPC   C4A43950  16.654   9.235   7.232
 3402POPC   C1B43951  16.812   9.026   6.295
 3402POPC   C2B43952  17.138   8.866   6.555
 3402POPC   C3B43953  17.005   8.594   6.851
 3402POPC   C4B43954  16.893   8.788   7.235
 3403POPC   NC343955  40.018  17.728   5.304
 3403POPC   PO443956  40.253  17.211   5.626
 3403POPC   GL143957  40.178  17.379   5.997
 3403POPC   GL243958  40.083  17.687   5.856
 3403POPC   C1A43959  39.978  17.179   6.352
 3403POPC   D2A43960  40.103  17.084   6.788
 3403POPC   C3A43961  39.786  17.316   7.014
 3403POPC   C4A43962  39.893  17.390   7.403
 3403POPC   C1B43963  39.799  17.702   6.242
 3403POPC   C2B43964  39.835  17.876   6.667
 3403POPC   C3B43965  40.049  17.768   7.060
 3403POPC   C4B43966  40.099  17.876   7.494
 3404POPC   NC343967  14.319   2.973   5.493
 3404POPC   PO443968  14.769   2.530   5.612
 3404POPC   GL143969  14.364   2.623   5.861
 3404POPC   GL243970  14.078   2.371   5.909
 3404POPC   C1A43971  14.337   2.876   6.229
 3404POPC   D2A43972  14.501   3.042   6.618
 3404POPC   C3A43973  14.292   2.919   7.002
 3404POPC   C4A43974  14.556   2.754   7.334
 3404POPC   C1B43975  14.239   2.347   6.292
 3404POPC   C2B43976  14.295   2.507   6.674
 3404POPC   C3B43977  14.096   2.395   7.061
 3404POPC   C4B43978  14.093   2.616   7.439
 3405POPC   NC343979   9.913  20.485   5.593
 3405POPC   PO443980   9.340  20.813   5.461
 3405POPC   GL143981   9.523  20.771   5.872
 3405POPC   GL243982   9.600  20.434   6.012
 3405POPC   C1A43983   9.670  20.850   6.311
 3405POPC   D2A43984   9.507  20.604   6.648
 3405POPC   C3A43985   9.725  20.564   7.039
 3405POPC   C4A43986   9.738  20.792   7.417
 3405POPC   C1B43987  10.023  20.485   6.254
 3405POPC   C2B43988  10.097  20.681   6.677
 3405POPC   C3B43989  10.212  20.708   7.128
 3405POPC   C4B43990  10.165  20.582   7.579
 3406POPC   NC343991  18.770  30.534   5.683
 3406POPC   PO443992  18.224  30.566   5.309
 3406POPC   GL143993  18.224  30.567   5.758
 3406POPC   GL243994  18.261  30.914   5.727
 3406POPC   C1A43995  18.134  30.397   6.199
 3406POPC   D2A43996  18.226  30.541   6.639
 3406POPC   C3A43997  18.013  30.463   7.028
 3406POPC   C4A43998  17.898  30.631   7.422
 3406POPC   C1B43999  18.280  30.884   6.177
 3406POPC   C2B44000  18.491  30.968   6.574
 3406POPC   C3B44001  18.305  30.911   6.982
 3406POPC   C4B44002  18.464  30.967   7.355
 3407POPC   NC344003   8.383  44.272   5.432
 3407POPC   PO444004   8.417  44.913   5.235
 3407POPC   GL144005   8.155  44.808   5.614
 3407POPC   GL244006   8.041   0.117   5.788
 3407POPC   C1A44007   8.131  44.598   6.030
 3407POPC   D2A44008   8.213  44.674   6.481
 3407POPC   C3A44009   8.208  44.392   6.824
 3407POPC   C4A44010   7.964  44.343   7.173
 3407POPC   C1B44011   8.323   0.078   6.134
 3407POPC   C2B44012   8.307   0.188   6.558
 3407POPC   C3B44013   8.257  44.958   6.949
 3407POPC   C4B44014   7.993  44.838   7.299
 3408POPC   NC344015  28.867  41.955   5.536
 3408POPC   PO444016  29.232  41.412   5.246
 3408POPC   GL144017  29.163  41.511   5.697
 3408POPC   GL244018  29.463  41.698   5.744
 3408POPC   C1A44019  28.996  41.356   6.112
 3408POPC   D2A44020  29.064  41.124   6.531
 3408POPC   C3A44021  29.122  41.348   6.969
 3408POPC   C4A44022  28.926  41.720   7.250
 3408POPC   C1B44023  29.464  41.529   6.170
 3408POPC   C2B44024  29.175  41.628   6.524
 3408POPC   C3B44025  29.280  41.843   6.904
 3408POPC   C4B44026  29.432  41.795   7.338
 3409POPC   NC344027   9.981   4.599   5.357
 3409POPC   PO444028   9.348   4.291   5.329
 3409POPC   GL144029   9.606   4.448   5.662
 3409POPC   GL244030   9.413   4.628   5.864
 3409POPC   C1A44031   9.873   4.607   6.053
 3409POPC   D2A44032  10.015   4.451   6.461
 3409POPC   C3A44033   9.890   4.055   6.705
 3409POPC   C4A44034   9.853   4.147   7.146
 3409POPC   C1B44035   9.548   4.224   6.113
 3409POPC   C2B44036   9.452   4.215   6.530
 3409POPC   C3B44037   9.402   4.325   6.952
 3409POPC   C4B44038   9.383   4.724   7.153
 3410POPC   NC344039   4.075  35.818   5.539
 3410POPC   PO444040   4.527  36.369   5.467
 3410POPC   GL144041   4.454  36.065   5.787
 3410POPC   GL244042   4.190  36.248   5.867
 3410POPC   C1A44043   4.293  35.877   6.197
 3410POPC   D2A44044   4.059  36.046   6.551
 3410POPC   C3A44045   4.156  35.972   6.975
 3410POPC   C4A44046   4.392  36.230   7.181
 3410POPC   C1B44047   3.975  36.416   6.201
 3410POPC   C2B44048   3.777  36.483   6.605
 3410POPC   C3B44049   4.006  36.522   6.995
 3410POPC   C4B44050   3.956  36.344   7.421
 3411POPC   NC344051  19.293   6.873   5.354
 3411POPC   PO444052  18.996   6.279   5.487
 3411POPC   GL144053  19.217   6.564   5.787
 3411POPC   GL244054  18.948   6.809   5.747
 3411POPC   C1A44055  19.291   6.746   6.247
 3411POPC   D2A44056  18.976   6.824   6.598
 3411POPC   C3A44057  18.910   6.603   6.992
 3411POPC   C4A44058  18.917   6.473   7.447
 3411POPC   C1B44059  18.751   6.812   6.133
 3411POPC   C2B44060  18.548   7.057   6.489
 3411POPC   C3B44061  18.632   7.054   6.924
 3411POPC   C4B44062  18.540   6.858   7.275
 3412POPC   NC344063  13.237  35.226   5.297
 3412POPC   PO444064  13.570  35.744   5.306
 3412POPC   GL144065  13.557  35.394   5.680
 3412POPC   GL244066  13.239  35.232   5.799
 3412POPC   C1A44067  13.589  35.128   6.126
 3412POPC   D2A44068  13.669  35.052   6.576
 3412POPC   C3A44069  13.708  35.458   6.814
 3412POPC   C4A44070  13.898  35.550   7.205
 3412POPC   C1B44071  13.268  35.571   6.071
 3412POPC   C2B44072  13.335  35.644   6.488
 3412POPC   C3B44073  13.158  35.621   6.884
 3412POPC   C4B44074  13.294  35.495   7.277
 3413POPC   NC344075  25.369  21.754   5.161
 3413POPC   PO444076  24.953  22.245   5.441
 3413POPC   GL144077  25.153  22.462   5.823
 3413POPC   GL244078  25.426  22.330   5.855
 3413POPC   C1A44079  25.346  22.494   6.299
 3413POPC   D2A44080  25.401  22.169   6.644
 3413POPC   C3A44081  25.233  22.148   7.051
 3413POPC   C4A44082  25.265  22.345   7.451
 3413POPC   C1B44083  25.167  22.044   6.202
 3413POPC   C2B44084  25.270  21.678   6.474
 3413POPC   C3B44085  25.477  21.704   6.869
 3413POPC   C4B44086  25.256  21.666   7.255
 3414POPC   NC344087  29.658  36.952   5.483
 3414POPC   PO444088  30.273  36.757   5.258
 3414POPC   GL144089  30.104  36.652   5.710
 3414POPC   GL244090  29.752  36.504   5.750
 3414POPC   C1A44091  29.992  36.767   6.165
 3414POPC   D2A44092  29.730  37.018   6.479
 3414POPC   C3A44093  29.835  37.218   6.853
 3414POPC   C4A44094  30.137  37.033   7.145
 3414POPC   C1B44095  29.535  36.539   6.163
 3414POPC   C2B44096  29.720  36.509   6.562
 3414POPC   C3B44097  29.763  36.702   6.956
 3414POPC   C4B44098  29.650  37.009   7.277
 3415POPC   NC344099  23.977   3.690   5.367
 3415POPC   PO444100  24.095   3.026   5.466
 3415POPC   GL144101  23.938   3.292   5.811
 3415POPC   GL244102  23.765   3.624   5.808
 3415POPC   C1A44103  23.942   3.477   6.232
 3415POPC   D2A44104  23.714   3.561   6.548
 3415POPC   C3A44105  23.875   3.417   6.907
 3415POPC   C4A44106  23.691   3.283   7.246
 3415POPC   C1B44107  23.469   3.833   6.116
 3415POPC   C2B44108  23.446   4.007   6.523
 3415POPC   C3B44109  23.324   3.893   6.929
 3415POPC   C4B44110  23.286   3.913   7.346
 3416POPC   NC344111   2.968  34.539   5.296
 3416POPC   PO444112   2.498  35.019   5.612
 3416POPC   GL144113   2.719  34.670   5.793
 3416POPC   GL244114   3.098  34.641   5.776
 3416POPC   C1A44115   2.796  34.675   6.229
 3416POPC   D2A44116   2.774  34.872   6.622
 3416POPC   C3A44117   2.753  34.602   6.976
 3416POPC   C4A44118   2.998  34.695   7.313
 3416POPC   C1B44119   3.160  34.346   6.127
 3416POPC   C2B44120   3.039  34.351   6.556
 3416POPC   C3B44121   3.255  34.436   6.909
 3416POPC   C4B44122   3.221  34.249   7.289
 3417POPC   NC344123   8.523  40.164   5.393
 3417POPC   PO444124   8.031  39.801   5.498
 3417POPC   GL144125   7.903  39.981   5.871
 3417POPC   GL244126   7.861  40.332   5.797
 3417POPC   C1A44127   7.887  39.825   6.280
 3417POPC   D2A44128   8.119  39.923   6.642
 3417POPC   C3A44129   8.000  39.780   7.034
 3417POPC   C4A44130   8.380  39.969   7.187
 3417POPC   C1B44131   7.735  40.330   6.228
 3417POPC   C2B44132   7.906  40.404   6.622
 3417POPC   C3B44133   7.945  40.275   7.066
 3417POPC   C4B44134   8.064  40.233   7.521
 3418POPC   NC344135  33.297  31.327   5.459
 3418POPC   PO444136  32.824  31.746   5.385
 3418POPC   GL144137  32.878  31.471   5.791
 3418POPC   GL244138  33.178  31.279   5.931
 3418POPC   C1A44139  32.765  31.495   6.243
 3418POPC   D2A44140  32.609  31.247   6.612
 3418POPC   C3A44141  32.790  31.471   6.939
 3418POPC   C4A44142  32.790  31.833   7.205
 3418POPC   C1B44143  33.276  31.569   6.193
 3418POPC   C2B44144  33.249  31.775   6.560
 3418POPC   C3B44145  33.246  31.682   6.973
 3418POPC   C4B44146  33.391  31.609   7.366
 3419POPC   NC344147  35.999  43.124   5.420
 3419POPC   PO444148  36.642  43.076   5.644
 3419POPC   GL144149  36.213  43.266   5.856
 3419POPC   GL244150  35.841  43.460   5.751
 3419POPC   C1A44151  36.095  42.950   6.183
 3419POPC   D2A44152  36.387  42.789   6.519
 3419POPC   C3A44153  36.167  42.970   6.853
 3419POPC   C4A44154  35.901  42.840   7.189
 3419POPC   C1B44155  35.719  43.340   6.169
 3419POPC   C2B44156  35.747  43.129   6.578
 3419POPC   C3B44157  35.794  43.312   6.992
 3419POPC   C4B44158  36.173  43.423   7.146
 3420POPC   NC344159  39.568  25.903   5.640
 3420POPC   PO444160  38.997  25.599   5.343
 3420POPC   GL144161  39.091  25.777   5.796
 3420POPC   GL244162  39.129  26.131   5.871
 3420POPC   C1A44163  38.903  25.789   6.237
 3420POPC   D2A44164  38.880  26.106   6.596
 3420POPC   C3A44165  39.124  26.099   6.986
 3420POPC   C4A44166  39.220  25.729   7.195
 3420POPC   C1B44167  39.370  26.061   6.286
 3420POPC   C2B44168  39.689  26.095   6.643
 3420POPC   C3B44169  39.593  26.336   6.995
 3420POPC   C4B44170  39.478  26.728   7.127
 3421POPC   NC344171  20.428  14.940   5.440
 3421POPC   PO444172  20.801  15.411   5.461
 3421POPC   GL144173  20.780  15.173   5.845
 3421POPC   GL244174  20.471  15.219   5.894
 3421POPC   C1A44175  20.726  14.957   6.293
 3421POPC   D2A44176  20.881  14.968   6.763
 3421POPC   C3A44177  20.688  14.813   7.189
 3421POPC   C4A44178  20.341  14.727   7.497
 3421POPC   C1B44179  20.662  15.454   6.275
 3421POPC   C2B44180  20.492  15.425   6.695
 3421POPC   C3B44181  20.677  15.336   7.073
 3421POPC   C4B44182  21.071  15.176   7.231
 3422POPC   NC344183   0.835  43.522   5.460
 3422POPC   PO444184   1.414  43.759   5.638
 3422POPC   GL144185   1.133  43.827   5.881
 3422POPC   GL244186   1.011  44.138   5.811
 3422POPC   C1A44187   1.069  43.691   6.297
 3422POPC   D2A44188   1.123  43.538   6.675
 3422POPC   C3A44189   1.246  43.805   6.996
 3422POPC   C4A44190   1.026  43.782   7.388
 3422POPC   C1B44191   1.197  44.204   6.222
 3422POPC   C2B44192   1.434  44.248   6.611
 3422POPC   C3B44193   1.631  44.159   7.018
 3422POPC   C4B44194   1.397  44.098   7.399
 3423POPC   NC344195   0.508  34.457   5.482
 3423POPC   PO444196   0.546  35.088   5.520
 3423POPC   GL144197   0.350  34.784   5.844
 3423POPC   GL244198   0.471  34.410   5.978
 3423POPC   C1A44199   0.360  34.809   6.280
 3423POPC   D2A44200   0.376  34.492   6.575
 3423POPC   C3A44201   0.438  34.777   6.895
 3423POPC   C4A44202   0.618  34.979   7.234
 3423POPC   C1B44203   0.046  34.430   6.157
 3423POPC   C2B44204  44.868  34.351   6.580
 3423POPC   C3B44205   0.094  34.407   6.996
 3423POPC   C4B44206   0.424  34.504   7.329
 3424POPC   NC344207   7.715  20.035   5.488
 3424POPC   PO444208   7.097  19.766   5.384
 3424POPC   GL144209   7.365  19.747   5.769
 3424POPC   GL244210   7.617  19.521   5.834
 3424POPC   C1A44211   7.385  19.814   6.217
 3424POPC   D2A44212   7.086  19.721   6.514
 3424POPC   C3A44213   7.262  19.919   6.839
 3424POPC   C4A44214   7.182  19.802   7.224
 3424POPC   C1B44215   7.786  19.480   6.222
 3424POPC   C2B44216   7.593  19.545   6.618
 3424POPC   C3B44217   7.606  19.566   7.042
 3424POPC   C4B44218   7.816  19.308   7.289
 3425POPC   NC344219   7.400  39.148   5.330
 3425POPC   PO444220   6.911  38.765   5.604
 3425POPC   GL144221   7.251  38.910   5.884
 3425POPC   GL244222   7.460  39.227   5.839
 3425POPC   C1A44223   7.411  38.960   6.307
 3425POPC   D2A44224   7.521  38.882   6.718
 3425POPC   C3A44225   7.379  39.127   7.045
 3425POPC   C4A44226   7.284  39.017   7.455
 3425POPC   C1B44227   7.301  39.448   6.214
 3425POPC   C2B44228   7.436  39.515   6.633
 3425POPC   C3B44229   7.506  39.642   7.052
 3425POPC   C4B44230   7.333  39.547   7.443
 3426POPC   NC344231   6.806  24.080   5.293
 3426POPC   PO444232   6.188  24.233   5.462
 3426POPC   GL144233   6.490  24.045   5.730
 3426POPC   GL244234   6.442  23.703   5.857
 3426POPC   C1A44235   6.576  24.048   6.195
 3426POPC   D2A44236   6.721  23.756   6.539
 3426POPC   C3A44237   6.504  23.703   6.957
 3426POPC   C4A44238   6.732  23.912   7.266
 3426POPC   C1B44239   6.619  23.400   6.169
 3426POPC   C2B44240   6.527  23.288   6.615
 3426POPC   C3B44241   6.678  23.228   7.072
 3426POPC   C4B44242   6.997  23.426   7.370
 3427POPC   NC344243   6.029  43.633   5.415
 3427POPC   PO444244   5.587  44.205   5.295
 3427POPC   GL144245   5.904  44.120   5.665
 3427POPC   GL244246   5.981  43.797   5.881
 3427POPC   C1A44247   6.038  44.227   6.111
 3427POPC   D2A44248   5.898  43.942   6.426
 3427POPC   C3A44249   5.839  44.138   6.816
 3427POPC   C4A44250   5.861  43.931   7.205
 3427POPC   C1B44251   5.664  43.530   6.068
 3427POPC   C2B44252   5.483  43.525   6.451
 3427POPC   C3B44253   5.639  43.658   6.822
 3427POPC   C4B44254   5.720  43.406   7.163
 3428POPC   NC344255  16.985  22.246   5.340
 3428POPC   PO444256  16.445  22.046   5.565
 3428POPC   GL144257  16.839  21.927   5.742
 3428POPC   GL244258  16.985  22.232   5.863
 3428POPC   C1A44259  16.847  21.811   6.172
 3428POPC   D2A44260  16.704  22.039   6.530
 3428POPC   C3A44261  16.893  22.015   6.934
 3428POPC   C4A44262  16.756  22.149   7.322
 3428POPC   C1B44263  16.630  22.355   6.145
 3428POPC   C2B44264  16.492  22.518   6.574
 3428POPC   C3B44265  16.594  22.542   7.025
 3428POPC   C4B44266  16.842  22.643   7.414
 3429POPC   NC344267  30.949  30.493   5.407
 3429POPC   PO444268  30.703  30.948   5.707
 3429POPC   GL144269  30.761  30.594   5.908
 3429POPC   GL244270  30.497  30.400   5.736
 3429POPC   C1A44271  30.776  30.655   6.362
 3429POPC   D2A44272  31.068  30.778   6.687
 3429POPC   C3A44273  30.824  30.880   7.015
 3429POPC   C4A44274  30.728  31.026   7.460
 3429POPC   C1B44275  30.536  30.219   6.172
 3429POPC   C2B44276  30.403  30.218   6.614
 3429POPC   C3B44277  30.603  30.391   6.999
 3429POPC   C4B44278  30.653  30.528   7.426
 3430POPC   NC344279   8.332  28.357   5.190
 3430POPC   PO444280   7.762  28.594   5.482
 3430POPC   GL144281   8.154  28.396   5.718
 3430POPC   GL244282   8.424  28.094   5.629
 3430POPC   C1A44283   8.224  28.503   6.196
 3430POPC   D2A44284   8.123  28.428   6.649
 3430POPC   C3A44285   8.291  28.617   7.037
 3430POPC   C4A44286   8.108  28.482   7.439
 3430POPC   C1B44287   8.543  28.152   6.063
 3430POPC   C2B44288   8.622  28.327   6.500
 3430POPC   C3B44289   8.526  28.182   6.922
 3430POPC   C4B44290   8.577  28.320   7.341
 3431POPC   NC344291  25.598  39.456   5.587
 3431POPC   PO444292  25.593  40.023   5.222
 3431POPC   GL144293  25.353  39.951   5.647
 3431POPC   GL244294  25.559  40.170   5.848
 3431POPC   C1A44295  25.139  39.846   6.097
 3431POPC   D2A44296  24.868  39.959   6.485
 3431POPC   C3A44297  25.053  39.899   6.942
 3431POPC   C4A44298  25.273  39.918   7.355
 3431POPC   C1B44299  25.648  39.856   6.167
 3431POPC   C2B44300  25.436  39.842   6.564
 3431POPC   C3B44301  25.577  40.068   6.946
 3431POPC   C4B44302  25.643  40.291   7.335
 3432POPC   NC344303   6.460  11.857   5.298
 3432POPC   PO444304   7.082  11.912   5.233
 3432POPC   GL144305   6.899  11.854   5.683
 3432POPC   GL244306   6.557  11.996   5.772
 3432POPC   C1A44307   6.899  11.782   6.158
 3432POPC   D2A44308   6.850  11.697   6.628
 3432POPC   C3A44309   6.761  12.098   6.864
 3432POPC   C4A44310   6.891  12.279   7.275
 3432POPC   C1B44311   6.411  11.671   6.043
 3432POPC   C2B44312   6.340  11.642   6.464
 3432POPC   C3B44313   6.379  11.735   6.898
 3432POPC   C4B44314   6.483  11.985   7.286
 3433POPC   NC344315  19.636  29.674   5.444
 3433POPC   PO444316  20.287  29.542   5.566
 3433POPC   GL144317  19.929  29.749   5.874
 3433POPC   GL244318  19.700  30.080   5.833
 3433POPC   C1A44319  19.804  29.922   6.302
 3433POPC   D2A44320  19.768  29.743   6.694
 3433POPC   C3A44321  19.899  30.017   6.996
 3433POPC   C4A44322  20.117  29.880   7.356
 3433POPC   C1B44323  19.519  30.346   6.219
 3433POPC   C2B44324  19.591  30.429   6.718
 3433POPC   C3B44325  19.476  30.248   7.192
 3433POPC   C4B44326  19.486  30.295   7.693
 3434POPC   NC344327  13.517  29.012   5.112
 3434POPC   PO444328  13.462  28.392   5.365
 3434POPC   GL144329  13.665  28.294   5.772
 3434POPC   GL244330  13.798  28.577   5.993
 3434POPC   C1A44331  13.647  28.127   6.192
 3434POPC   D2A44332  13.731  28.284   6.604
 3434POPC   C3A44333  13.669  28.019   6.987
 3434POPC   C4A44334  13.736  28.182   7.420
 3434POPC   C1B44335  13.340  28.542   6.211
 3434POPC   C2B44336  13.181  28.511   6.658
 3434POPC   C3B44337  13.472  28.473   7.010
 3434POPC   C4B44338  13.512  28.685   7.404
 3435POPC   NC344339  23.120  41.724   5.461
 3435POPC   PO444340  22.687  41.261   5.373
 3435POPC   GL144341  22.910  41.352   5.770
 3435POPC   GL244342  22.780  41.689   5.843
 3435POPC   C1A44343  22.985  41.476   6.247
 3435POPC   D2A44344  23.204  41.363   6.626
 3435POPC   C3A44345  23.047  41.497   6.995
 3435POPC   C4A44346  23.108  41.576   7.433
 3435POPC   C1B44347  22.519  41.334   6.089
 3435POPC   C2B44348  22.651  41.139   6.505
 3435POPC   C3B44349  22.509  41.202   6.932
 3435POPC   C4B44350  22.736  41.262   7.317
 3436POPC   NC344351  37.016  30.795   5.103
 3436POPC   PO444352  36.545  30.475   5.446
 3436POPC   GL144353  36.800  30.703   5.717
 3436POPC   GL244354  37.145  30.717   5.658
 3436POPC   C1A44355  36.757  30.757   6.136
 3436POPC   D2A44356  36.659  31.007   6.494
 3436POPC   C3A44357  36.691  30.701   6.816
 3436POPC   C4A44358  36.815  30.836   7.219
 3436POPC   C1B44359  37.277  30.817   6.060
 3436POPC   C2B44360  37.125  30.747   6.482
 3436POPC   C3B44361  37.143  30.919   6.847
 3436POPC   C4B44362  37.324  30.836   7.222
 3437POPC   NC344363  44.364  37.685   5.492
 3437POPC   PO444364  43.677  37.766   5.581
 3437POPC   GL144365  43.988  37.722   5.857
 3437POPC   GL244366  44.066  37.369   5.760
 3437POPC   C1A44367  43.830  37.729   6.263
 3437POPC   D2A44368  43.914  37.947   6.629
 3437POPC   C3A44369  43.613  37.839   6.888
 3437POPC   C4A44370  43.792  37.774   7.248
 3437POPC   C1B44371  44.258  37.370   6.156
 3437POPC   C2B44372  44.216  37.513   6.526
 3437POPC   C3B44373  44.004  37.471   6.879
 3437POPC   C4B44374  44.107  37.307   7.244
 3438POPC   NC344375   8.862   6.740   5.368
 3438POPC   PO444376   9.159   6.170   5.254
 3438POPC   GL144377   9.132   6.414   5.695
 3438POPC   GL244378   8.882   6.671   5.865
 3438POPC   C1A44379   9.217   6.415   6.177
 3438POPC   D2A44380   9.327   6.240   6.618
 3438POPC   C3A44381   9.114   6.467   6.973
 3438POPC   C4A44382   9.160   6.905   7.154
 3438POPC   C1B44383   8.894   6.850   6.314
 3438POPC   C2B44384   8.803   6.868   6.782
 3438POPC   C3B44385   8.675   6.636   7.182
 3438POPC   C4B44386   8.757   6.198   7.341
 3439POPC   NC344387  14.559  13.271   5.353
 3439POPC   PO444388  14.136  13.789   5.400
 3439POPC   GL144389  14.386  13.645   5.716
 3439POPC   GL244390  14.226  13.343   5.750
 3439POPC   C1A44391  14.596  13.715   6.126
 3439POPC   D2A44392  14.560  13.576   6.548
 3439POPC   C3A44393  14.462  13.839   6.892
 3439POPC   C4A44394  14.632  13.751   7.308
 3439POPC   C1B44395  14.356  13.247   6.165
 3439POPC   C2B44396  14.205  13.202   6.583
 3439POPC   C3B44397  14.425  13.284   6.972
 3439POPC   C4B44398  14.328  13.337   7.373
 3440POPC   NC344399  42.343  14.155   5.344
 3440POPC   PO444400  42.393  13.535   5.236
 3440POPC   GL144401  42.251  13.658   5.693
 3440POPC   GL244402  42.381  13.946   5.919
 3440POPC   C1A44403  42.212  13.522   6.153
 3440POPC   D2A44404  42.270  13.840   6.504
 3440POPC   C3A44405  42.143  13.770   6.948
 3440POPC   C4A44406  42.174  13.439   7.279
 3440POPC   C1B44407  42.698  13.706   6.200
 3440POPC   C2B44408  42.692  13.355   6.525
 3440POPC   C3B44409  42.605  13.401   6.995
 3440POPC   C4B44410  42.557  13.806   7.239
 3441POPC   NC344411  38.080  24.896   5.490
 3441POPC   PO444412  38.254  24.201   5.395
 3441POPC   GL144413  38.448  24.465   5.689
 3441POPC   GL244414  38.163  24.539   5.874
 3441POPC   C1A44415  38.564  24.401   6.127
 3441POPC   D2A44416  38.288  24.408   6.469
 3441POPC   C3A44417  38.540  24.385   6.816
 3441POPC   C4A44418  38.581  24.417   7.250
 3441POPC   C1B44419  38.105  24.091   6.113
 3441POPC   C2B44420  38.078  23.940   6.585
 3441POPC   C3B44421  38.214  24.063   7.040
 3441POPC   C4B44422  38.284  24.037   7.501
 3442POPC   NC344423  38.110   9.645   5.686
 3442POPC   PO444424  38.649   9.573   5.355
 3442POPC   GL144425  38.616   9.714   5.826
 3442POPC   GL244426  38.352   9.551   6.116
 3442POPC   C1A44427  38.753   9.846   6.227
 3442POPC   D2A44428  38.575   9.670   6.589
 3442POPC   C3A44429  38.716   9.781   6.992
 3442POPC   C4A44430  38.412   9.825   7.302
 3442POPC   C1B44431  38.229   9.995   6.208
 3442POPC   C2B44432  38.177  10.224   6.553
 3442POPC   C3B44433  38.244  10.098   6.924
 3442POPC   C4B44434  38.208  10.296   7.299
 3443POPC   NC344435  20.770  43.315   5.287
 3443POPC   PO444436  20.332  42.827   5.506
 3443POPC   GL144437  20.504  42.909   5.932
 3443POPC   GL244438  20.685  43.221   5.814
 3443POPC   C1A44439  20.711  42.926   6.325
 3443POPC   D2A44440  20.664  43.205   6.697
 3443POPC   C3A44441  20.382  43.038   7.040
 3443POPC   C4A44442  20.386  43.032   7.502
 3443POPC   C1B44443  20.453  43.370   6.183
 3443POPC   C2B44444  20.255  43.575   6.533
 3443POPC   C3B44445  20.355  43.554   6.960
 3443POPC   C4B44446  20.725  43.522   7.196
 3444POPC   NC344447  34.244  33.600   5.443
 3444POPC   PO444448  34.679  34.165   5.459
 3444POPC   GL144449  34.520  33.919   5.807
 3444POPC   GL244450  34.192  34.073   5.764
 3444POPC   C1A44451  34.595  33.678   6.224
 3444POPC   D2A44452  34.717  33.832   6.643
 3444POPC   C3A44453  34.682  33.622   7.056
 3444POPC   C4A44454  34.857  33.922   7.336
 3444POPC   C1B44455  34.160  33.941   6.206
 3444POPC   C2B44456  34.218  33.753   6.631
 3444POPC   C3B44457  34.297  33.959   7.046
 3444POPC   C4B44458  34.376  33.824   7.496
 3445POPC   NC344459  36.701  25.855   5.065
 3445POPC   PO444460  36.913  25.336   5.430
 3445POPC   GL144461  36.971  25.350   5.823
 3445POPC   GL244462  37.212  25.099   5.863
 3445POPC   C1A44463  37.094  25.455   6.220
 3445POPC   D2A44464  37.103  25.244   6.575
 3445POPC   C3A44465  37.071  25.484   6.921
 3445POPC   C4A44466  36.863  25.428   7.293
 3445POPC   C1B44467  37.430  25.017   6.210
 3445POPC   C2B44468  37.399  24.829   6.564
 3445POPC   C3B44469  37.431  24.966   6.937
 3445POPC   C4B44470  37.282  25.143   7.291
 3446POPC   NC344471  39.295  12.730   5.245
 3446POPC   PO444472  39.407  13.302   5.458
 3446POPC   GL144473  39.347  12.980   5.801
 3446POPC   GL244474  39.472  12.623   5.720
 3446POPC   C1A44475  39.316  13.064   6.235
 3446POPC   D2A44476  38.956  13.005   6.501
 3446POPC   C3A44477  39.103  13.084   6.911
 3446POPC   C4A44478  39.115  12.978   7.329
 3446POPC   C1B44479  39.446  12.548   6.190
 3446POPC   C2B44480  39.304  12.647   6.644
 3446POPC   C3B44481  39.493  12.742   7.081
 3446POPC   C4B44482  39.395  12.594   7.528
 3447POPC   NC344483   7.714  18.054   5.104
 3447POPC   PO444484   8.094  18.533   5.454
 3447POPC   GL144485   8.150  18.396   5.873
 3447POPC   GL244486   8.392  18.576   6.073
 3447POPC   C1A44487   8.268  18.068   6.163
 3447POPC   D2A44488   8.335  17.950   6.580
 3447POPC   C3A44489   8.048  18.080   6.902
 3447POPC   C4A44490   8.237  18.098   7.309
 3447POPC   C1B44491   7.968  18.509   6.336
 3447POPC   C2B44492   7.890  18.579   6.807
 3447POPC   C3B44493   8.180  18.614   7.158
 3447POPC   C4B44494   8.180  18.538   7.587
 3448POPC   NC344495   3.975  11.025   5.338
 3448POPC   PO444496   4.555  11.428   5.299
 3448POPC   GL144497   4.534  11.239   5.702
 3448POPC   GL244498   4.217  11.201   5.746
 3448POPC   C1A44499   4.467  11.257   6.161
 3448POPC   D2A44500   4.310  11.253   6.545
 3448POPC   C3A44501   4.555  11.167   6.897
 3448POPC   C4A44502   4.356  11.347   7.233
 3448POPC   C1B44503   4.049  10.963   6.169
 3448POPC   C2B44504   3.847  11.070   6.577
 3448POPC   C3B44505   4.086  11.008   6.960
 3448POPC   C4B44506   4.134  10.931   7.416
 3449POPC   NC344507  25.342  34.819   5.311
 3449POPC   PO444508  24.884  34.337   5.557
 3449POPC   GL144509  25.217  34.435   5.882
 3449POPC   GL244510  25.514  34.215   5.931
 3449POPC   C1A44511  25.257  34.417   6.357
 3449POPC   D2A44512  25.033  34.672   6.666
 3449POPC   C3A44513  25.102  34.719   7.079
 3449POPC   C4A44514  24.959  34.443   7.352
 3449POPC   C1B44515  25.681  34.600   6.193
 3449POPC   C2B44516  25.807  34.529   6.653
 3449POPC   C3B44517  25.594  34.545   7.087
 3449POPC   C4B44518  25.530  34.985   7.278
 3450POPC   NC344519  22.869  33.316   5.165
 3450POPC   PO444520  23.348  32.937   5.195
 3450POPC   GL144521  23.123  33.246   5.601
 3450POPC   GL244522  22.724  33.297   5.660
 3450POPC   C1A44523  23.097  33.249   6.091
 3450POPC   D2A44524  23.215  32.884   6.397
 3450POPC   C3A44525  23.095  32.850   6.858
 3450POPC   C4A44526  23.204  32.877   7.325
 3450POPC   C1B44527  22.678  33.008   5.999
 3450POPC   C2B44528  22.730  33.025   6.430
 3450POPC   C3B44529  22.646  33.131   6.864
 3450POPC   C4B44530  22.714  32.927   7.241
 3451POPC   NC344531  43.468  37.292   5.614
 3451POPC   PO444532  43.563  36.805   5.127
 3451POPC   GL144533  43.822  36.918   5.598
 3451POPC   GL244534  43.736  36.612   5.818
 3451POPC   C1A44535  44.131  36.895   5.993
 3451POPC   D2A44536  44.322  36.747   6.433
 3451POPC   C3A44537  44.320  36.998   6.830
 3451POPC   C4A44538  44.212  36.799   7.242
 3451POPC   C1B44539  43.681  36.817   6.220
 3451POPC   C2B44540  43.909  37.070   6.519
 3451POPC   C3B44541  43.833  36.910   6.933
 3451POPC   C4B44542  43.656  36.516   7.108
 3452POPC   NC344543   2.159   8.429   5.567
 3452POPC   PO444544   1.635   7.868   5.507
 3452POPC   GL144545   1.825   7.941   5.934
 3452POPC   GL244546   1.925   8.282   5.975
 3452POPC   C1A44547   2.082   7.973   6.356
 3452POPC   D2A44548   2.020   8.212   6.693
 3452POPC   C3A44549   2.279   8.203   7.021
 3452POPC   C4A44550   2.141   8.270   7.427
 3452POPC   C1B44551   1.739   8.634   6.158
 3452POPC   C2B44552   1.786   8.659   6.572
 3452POPC   C3B44553   1.720   8.804   6.957
 3452POPC   C4B44554   1.713   8.713   7.364
 3453POPC   NC344555   6.606  28.119   4.888
 3453POPC   PO444556   6.472  28.530   5.394
 3453POPC   GL144557   6.556  28.354   5.778
 3453POPC   GL244558   6.755  28.635   5.842
 3453POPC   C1A44559   6.654  28.166   6.182
 3453POPC   D2A44560   6.673  28.321   6.603
 3453POPC   C3A44561   6.833  28.118   6.962
 3453POPC   C4A44562   6.518  27.992   7.230
 3453POPC   C1B44563   6.649  28.687   6.250
 3453POPC   C2B44564   6.665  28.830   6.658
 3453POPC   C3B44565   6.862  28.638   6.956
 3453POPC   C4B44566   6.776  28.462   7.359
 3454POPC   NC344567  38.647  17.403   5.361
 3454POPC   PO444568  38.215  17.849   5.204
 3454POPC   GL144569  38.385  17.707   5.672
 3454POPC   GL244570  38.438  17.379   5.836
 3454POPC   C1A44571  38.639  17.813   6.074
 3454POPC   D2A44572  38.735  17.847   6.532
 3454POPC   C3A44573  38.763  17.514   6.852
 3454POPC   C4A44574  38.623  17.590   7.268
 3454POPC   C1B44575  38.301  17.429   6.256
 3454POPC   C2B44576  38.334  17.285   6.668
 3454POPC   C3B44577  38.407  17.158   7.065
 3454POPC   C4B44578  38.130  17.212   7.381
 3455POPC   NC344579  19.594  16.234   5.308
 3455POPC   PO444580  19.943  15.617   5.338
 3455POPC   GL144581  19.880  15.962   5.651
 3455POPC   GL244582  20.198  16.047   5.725
 3455POPC   C1A44583  19.859  15.999   6.144
 3455POPC   D2A44584  19.948  15.739   6.554
 3455POPC   C3A44585  19.818  15.832   6.999
 3455POPC   C4A44586  19.740  16.124   7.324
 3455POPC   C1B44587  20.249  16.339   6.079
 3455POPC   C2B44588  20.172  16.388   6.538
 3455POPC   C3B44589  20.184  16.253   6.994
 3455POPC   C4B44590  20.228  16.048   7.408
 3456POPC   NC344591  23.058  34.954   5.645
 3456POPC   PO444592  22.751  34.330   5.517
 3456POPC   GL144593  22.715  34.630   5.859
 3456POPC   GL244594  23.035  34.582   5.998
 3456POPC   C1A44595  22.636  34.886   6.289
 3456POPC   D2A44596  22.708  35.002   6.743
 3456POPC   C3A44597  22.901  34.629   6.942
 3456POPC   C4A44598  23.140  34.284   7.167
 3456POPC   C1B44599  23.139  34.943   6.277
 3456POPC   C2B44600  23.270  34.960   6.669
 3456POPC   C3B44601  23.158  35.057   7.045
 3456POPC   C4B44602  23.150  34.814   7.377
 3457POPC   NC344603  19.998  22.160   5.326
 3457POPC   PO444604  19.559  21.705   5.521
 3457POPC   GL144605  19.742  22.050   5.764
 3457POPC   GL244606  19.557  22.355   5.733
 3457POPC   C1A44607  19.821  22.024   6.189
 3457POPC   D2A44608  19.699  21.724   6.506
 3457POPC   C3A44609  19.836  21.859   6.886
 3457POPC   C4A44610  19.777  22.082   7.265
 3457POPC   C1B44611  19.692  22.527   6.124
 3457POPC   C2B44612  20.019  22.453   6.418
 3457POPC   C3B44613  19.983  22.362   6.849
 3457POPC   C4B44614  19.876  22.592   7.201
 3458POPC   NC344615  40.088  34.176   4.967
 3458POPC   PO444616  39.708  33.670   5.261
 3458POPC   GL144617  39.807  33.798   5.724
 3458POPC   GL244618  40.083  34.037   5.752
 3458POPC   C1A44619  39.800  33.850   6.191
 3458POPC   D2A44620  39.810  33.646   6.614
 3458POPC   C3A44621  39.694  33.766   7.003
 3458POPC   C4A44622  39.944  33.781   7.343
 3458POPC   C1B44623  40.286  34.070   6.162
 3458POPC   C2B44624  40.113  34.068   6.570
 3458POPC   C3B44625  40.277  33.956   6.980
 3458POPC   C4B44626  40.227  34.232   7.320
 3459POPC   NC344627   9.508  28.515   5.509
 3459POPC   PO444628  10.178  28.699   5.538
 3459POPC   GL144629   9.875  28.690   5.851
 3459POPC   GL244630   9.821  28.331   5.877
 3459POPC   C1A44631   9.977  28.641   6.297
 3459POPC   D2A44632   9.986  28.325   6.644
 3459POPC   C3A44633  10.077  28.470   7.049
 3459POPC   C4A44634   9.763  28.540   7.395
 3459POPC   C1B44635   9.593  28.272   6.235
 3459POPC   C2B44636   9.506  28.063   6.603
 3459POPC   C3B44637   9.523  28.246   7.001
 3459POPC   C4B44638   9.512  28.036   7.372
 3460POPC   NC344639  30.431  40.469   5.495
 3460POPC   PO444640  30.731  39.845   5.459
 3460POPC   GL144641  30.771  39.792   5.900
 3460POPC   GL244642  31.025  39.528   5.890
 3460POPC   C1A44643  30.556  39.811   6.312
 3460POPC   D2A44644  30.491  40.060   6.648
 3460POPC   C3A44645  30.653  40.029   7.064
 3460POPC   C4A44646  30.711  40.016   7.489
 3460POPC   C1B44647  31.038  39.621   6.319
 3460POPC   C2B44648  30.892  39.708   6.740
 3460POPC   C3B44649  31.086  39.703   7.180
 3460POPC   C4B44650  31.036  39.662   7.659
 3461POPC   NC344651  12.223   5.967   5.460
 3461POPC   PO444652  11.552   5.716   5.410
 3461POPC   GL144653  11.835   5.761   5.778
 3461POPC   GL244654  12.142   5.542   5.778
 3461POPC   C1A44655  11.956   6.091   6.073
 3461POPC   D2A44656  11.824   6.258   6.490
 3461POPC   C3A44657  11.913   5.981   6.833
 3461POPC   C4A44658  11.941   5.907   7.279
 3461POPC   C1B44659  12.261   5.687   6.187
 3461POPC   C2B44660  12.212   5.522   6.609
 3461POPC   C3B44661  12.328   5.704   7.008
 3461POPC   C4B44662  12.659   5.696   7.293
 3462POPC   NC344663  30.866  19.868   5.398
 3462POPC   PO444664  30.176  20.113   5.500
 3462POPC   GL144665  30.592  20.099   5.774
 3462POPC   GL244666  30.735  19.740   5.870
 3462POPC   C1A44667  30.656  20.099   6.243
 3462POPC   D2A44668  30.461  20.089   6.683
 3462POPC   C3A44669  30.752  20.097   7.035
 3462POPC   C4A44670  30.927  19.777   7.318
 3462POPC   C1B44671  30.566  19.552   6.261
 3462POPC   C2B44672  30.574  19.397   6.671
 3462POPC   C3B44673  30.488  19.630   7.066
 3462POPC   C4B44674  30.400  19.937   7.389
 3463POPC   NC344675  42.666  11.171   5.268
 3463POPC   PO444676  43.185  11.540   5.463
 3463POPC   GL144677  42.974  11.356   5.806
 3463POPC   GL244678  43.228  11.130   5.847
 3463POPC   C1A44679  43.011  11.350   6.273
 3463POPC   D2A44680  43.213  11.257   6.659
 3463POPC   C3A44681  43.373  11.536   7.001
 3463POPC   C4A44682  43.350  11.352   7.407
 3463POPC   C1B44683  42.878  10.916   6.030
 3463POPC   C2B44684  42.848  10.869   6.481
 3463POPC   C3B44685  43.015  10.851   6.901
 3463POPC   C4B44686  42.876  11.106   7.257
 3464POPC   NC344687  12.578   5.099   5.454
 3464POPC   PO444688  13.157   4.825   5.639
 3464POPC   GL144689  12.830   5.041   5.898
 3464POPC   GL244690  12.640   5.377   5.898
 3464POPC   C1A44691  12.705   4.896   6.267
 3464POPC   D2A44692  12.898   4.949   6.661
 3464POPC   C3A44693  12.817   4.800   7.062
 3464POPC   C4A44694  13.203   4.892   7.302
 3464POPC   C1B44695  12.672   5.404   6.347
 3464POPC   C2B44696  12.680   5.393   6.792
 3464POPC   C3B44697  12.885   5.277   7.161
 3464POPC   C4B44698  12.629   5.260   7.531
 3465POPC   NC344699  35.173  23.829   5.556
 3465POPC   PO444700  35.631  23.435   5.264
 3465POPC   GL144701  35.613  23.583   5.693
 3465POPC   GL244702  35.292  23.441   5.879
 3465POPC   C1A44703  35.671  23.658   6.124
 3465POPC   D2A44704  35.458  23.538   6.505
 3465POPC   C3A44705  35.639  23.638   6.898
 3465POPC   C4A44706  35.393  23.557   7.261
 3465POPC   C1B44707  35.175  23.809   6.173
 3465POPC   C2B44708  35.015  23.963   6.538
 3465POPC   C3B44709  35.195  23.892   6.928
 3465POPC   C4B44710  35.081  23.958   7.360
 3466POPC   NC344711  38.924  25.092   5.393
 3466POPC   PO444712  39.449  25.462   5.592
 3466POPC   GL144713  39.203  25.172   5.849
 3466POPC   GL244714  38.876  25.325   5.867
 3466POPC   C1A44715  39.413  24.944   6.208
 3466POPC   D2A44716  39.720  24.970   6.559
 3466POPC   C3A44717  39.520  24.943   6.985
 3466POPC   C4A44718  39.302  25.197   7.301
 3466POPC   C1B44719  38.947  25.174   6.313
 3466POPC   C2B44720  39.036  25.104   6.795
 3466POPC   C3B44721  38.841  25.344   7.161
 3466POPC   C4B44722  39.001  25.479   7.587
 3467POPC   NC344723  44.224  29.128   5.376
 3467POPC   PO444724  43.472  29.128   5.263
 3467POPC   GL144725  43.665  29.146   5.716
 3467POPC   GL244726  43.966  29.338   5.785
 3467POPC   C1A44727  43.841  29.006   6.144
 3467POPC   D2A44728  43.661  29.111   6.534
 3467POPC   C3A44729  43.848  29.090   6.938
 3467POPC   C4A44730  43.698  29.088   7.373
 3467POPC   C1B44731  44.044  29.538   6.182
 3467POPC   C2B44732  44.107  29.385   6.585
 3467POPC   C3B44733  43.988  29.583   6.962
 3467POPC   C4B44734  44.221  29.385   7.228
 3468POPC   NC344735  25.159  17.951   5.651
 3468POPC   PO444736  25.427  18.379   5.099
 3468POPC   GL144737  25.439  18.442   5.576
 3468POPC   GL244738  25.139  18.573   5.769
 3468POPC   C1A44739  25.584  18.513   6.024
 3468POPC   D2A44740  25.559  18.202   6.360
 3468POPC   C3A44741  25.589  18.360   6.779
 3468POPC   C4A44742  25.385  18.314   7.189
 3468POPC   C1B44743  25.096  18.555   6.248
 3468POPC   C2B44744  24.834  18.591   6.656
 3468POPC   C3B44745  24.874  18.575   7.150
 3468POPC   C4B44746  25.150  18.658   7.516
 3469POPC   NC344747  18.494  42.284   5.839
 3469POPC   PO444748  17.952  42.087   5.407
 3469POPC   GL144749  17.951  42.375   5.792
 3469POPC   GL244750  18.182  42.657   5.716
 3469POPC   C1A44751  18.020  42.442   6.268
 3469POPC   D2A44752  18.365  42.376   6.582
 3469POPC   C3A44753  18.303  42.233   7.010
 3469POPC   C4A44754  17.969  42.320   7.275
 3469POPC   C1B44755  18.324  42.866   6.104
 3469POPC   C2B44756  18.494  42.872   6.516
 3469POPC   C3B44757  18.439  42.756   6.981
 3469POPC   C4B44758  18.718  42.833   7.344
 3470POPC   NC344759  33.173  40.897   5.389
 3470POPC   PO444760  32.760  41.173   5.712
 3470POPC   GL144761  33.050  40.766   5.865
 3470POPC   GL244762  33.409  40.870   5.873
 3470POPC   C1A44763  33.277  40.553   6.244
 3470POPC   D2A44764  33.309  40.728   6.678
 3470POPC   C3A44765  33.020  40.640   7.026
 3470POPC   C4A44766  33.171  40.586   7.437
 3470POPC   C1B44767  33.192  41.066   6.284
 3470POPC   C2B44768  32.872  41.005   6.654
 3470POPC   C3B44769  32.714  41.085   7.093
 3470POPC   C4B44770  32.566  41.259   7.524
 3471POPC   NC344771   0.816   6.769   5.397
 3471POPC   PO444772   0.142   6.960   5.433
 3471POPC   GL144773   0.229   6.741   5.828
 3471POPC   GL244774   0.056   6.412   5.882
 3471POPC   C1A44775   0.382   6.825   6.260
 3471POPC   D2A44776   0.540   6.644   6.679
 3471POPC   C3A44777   0.359   6.678   7.111
 3471POPC   C4A44778   0.427   6.929   7.494
 3471POPC   C1B44779   0.090   6.419   6.348
 3471POPC   C2B44780   0.103   6.336   6.771
 3471POPC   C3B44781   0.059   6.270   7.177
 3471POPC   C4B44782   0.263   6.176   7.534
 3472POPC   NC344783  25.447  29.581   5.088
 3472POPC   PO444784  24.912  29.913   5.308
 3472POPC   GL144785  25.165  30.102   5.670
 3472POPC   GL244786  25.518  29.969   5.735
 3472POPC   C1A44787  25.198  30.114   6.132
 3472POPC   D2A44788  25.052  30.060   6.572
 3472POPC   C3A44789  25.322  29.937   6.939
 3472POPC   C4A44790  25.207  29.630   7.273
 3472POPC   C1B44791  25.484  29.665   6.128
 3472POPC   C2B44792  25.565  29.628   6.593
 3472POPC   C3B44793  25.684  29.549   7.042
 3472POPC   C4B44794  25.658  29.605   7.523
 3473POPC   NC344795  32.103  36.416   5.151
 3473POPC   PO444796  32.412  35.838   5.352
 3473POPC   GL144797  32.130  36.062   5.702
 3473POPC   GL244798  32.077  36.463   5.664
 3473POPC   C1A44799  32.052  35.880   6.139
 3473POPC   D2A44800  32.336  35.792   6.513
 3473POPC   C3A44801  32.200  35.921   6.930
 3473POPC   C4A44802  31.859  36.152   7.110
 3473POPC   C1B44803  32.156  36.415   6.095
 3473POPC   C2B44804  32.057  36.243   6.517
 3473POPC   C3B44805  32.247  36.418   6.873
 3473POPC   C4B44806  32.257  36.580   7.280
 3474POPC   NC344807  42.352  34.659   5.383
 3474POPC   PO444808  42.029  34.125   5.225
 3474POPC   GL144809  42.107  34.368   5.707
 3474POPC   GL244810  42.494  34.518   5.833
 3474POPC   C1A44811  42.086  34.652   6.103
 3474POPC   D2A44812  42.233  34.599   6.561
 3474POPC   C3A44813  42.103  34.660   7.031
 3474POPC   C4A44814  42.163  34.813   7.491
 3474POPC   C1B44815  42.642  34.677   6.248
 3474POPC   C2B44816  42.723  34.569   6.692
 3474POPC   C3B44817  42.622  34.717   7.089
 3474POPC   C4B44818  42.438  34.417   7.382
 3475POPC   NC344819  14.657   4.767   5.438
 3475POPC   PO444820  14.404   4.137   5.363
 3475POPC   GL144821  14.335   4.390   5.735
 3475POPC   GL244822  14.438   4.686   5.891
 3475POPC   C1A44823  14.372   4.265   6.172
 3475POPC   D2A44824  14.151   4.225   6.541
 3475POPC   C3A44825  14.256   4.079   6.918
 3475POPC   C4A44826  14.594   4.231   7.167
 3475POPC   C1B44827  14.013   4.617   6.104
 3475POPC   C2B44828  13.771   4.574   6.490
 3475POPC   C3B44829  13.964   4.567   6.873
 3475POPC   C4B44830  14.112   4.447   7.244
 3476POPC   NC344831  37.858  16.133   5.180
 3476POPC   PO444832  38.532  16.024   5.431
 3476POPC   GL144833  38.549  15.908   5.810
 3476POPC   GL244834  38.822  15.664   5.823
 3476POPC   C1A44835  38.480  16.083   6.219
 3476POPC   D2A44836  38.488  15.864   6.606
 3476POPC   C3A44837  38.487  16.047   7.005
 3476POPC   C4A44838  38.383  15.999   7.424
 3476POPC   C1B44839  38.622  15.559   6.191
 3476POPC   C2B44840  38.778  15.444   6.578
 3476POPC   C3B44841  38.642  15.511   6.977
 3476POPC   C4B44842  38.784  15.737   7.302
 3477POPC   NC344843   9.177  26.726   5.436
 3477POPC   PO444844   9.846  26.965   5.433
 3477POPC   GL144845   9.685  26.948   5.864
 3477POPC   GL244846   9.306  27.000   5.865
 3477POPC   C1A44847   9.841  26.840   6.311
 3477POPC   D2A44848   9.744  26.557   6.659
 3477POPC   C3A44849   9.724  26.731   7.053
 3477POPC   C4A44850   9.954  26.789   7.448
 3477POPC   C1B44851   9.434  27.187   6.272
 3477POPC   C2B44852   9.567  27.153   6.706
 3477POPC   C3B44853   9.434  27.187   7.155
 3477POPC   C4B44854   9.426  26.811   7.441
 3478POPC   NC344855  16.868  11.004   5.171
 3478POPC   PO444856  16.514  10.404   5.505
 3478POPC   GL144857  16.667  10.469   5.921
 3478POPC   GL244858  16.998  10.389   5.949
 3478POPC   C1A44859  16.710  10.600   6.310
 3478POPC   D2A44860  16.997  10.502   6.572
 3478POPC   C3A44861  16.812  10.483   6.922
 3478POPC   C4A44862  16.645  10.779   7.188
 3478POPC   C1B44863  17.121  10.817   6.166
 3478POPC   C2B44864  17.140  11.050   6.566
 3478POPC   C3B44865  17.126  10.912   7.003
 3478POPC   C4B44866  17.210  10.507   7.232
 3479POPC   NC344867  41.176  28.705   5.476
 3479POPC   PO444868  40.581  28.404   5.385
 3479POPC   GL144869  40.666  28.400   5.795
 3479POPC   GL244870  40.983  28.520   5.928
 3479POPC   C1A44871  40.543  28.380   6.199
 3479POPC   D2A44872  40.713  28.546   6.571
 3479POPC   C3A44873  40.514  28.380   6.927
 3479POPC   C4A44874  40.604  28.576   7.306
 3479POPC   C1B44875  41.038  28.246   6.283
 3479POPC   C2B44876  40.989  28.147   6.730
 3479POPC   C3B44877  41.006  28.303   7.151
 3479POPC   C4B44878  40.940  28.324   7.602
 3480POPC   NC344879  34.899  38.492   5.533
 3480POPC   PO444880  34.235  38.375   5.462
 3480POPC   GL144881  34.464  38.329   5.840
 3480POPC   GL244882  34.402  38.675   5.916
 3480POPC   C1A44883  34.790  38.251   6.162
 3480POPC   D2A44884  35.018  38.267   6.552
 3480POPC   C3A44885  34.833  38.152   6.941
 3480POPC   C4A44886  34.726  38.413   7.273
 3480POPC   C1B44887  34.619  38.714   6.327
 3480POPC   C2B44888  34.670  38.629   6.768
 3480POPC   C3B44889  34.320  38.418   6.971
 3480POPC   C4B44890  34.050  38.588   7.314
 3481POPC   NC344891  27.029  43.595   5.409
 3481POPC   PO444892  26.895  43.006   5.272
 3481POPC   GL144893  26.963  42.981   5.719
 3481POPC   GL244894  27.139  43.253   5.820
 3481POPC   C1A44895  26.796  43.030   6.164
 3481POPC   D2A44896  26.487  42.893   6.472
 3481POPC   C3A44897  26.588  42.758   6.910
 3481POPC   C4A44898  26.930  42.991   7.164
 3481POPC   C1B44899  27.293  43.097   6.215
 3481POPC   C2B44900  27.341  43.286   6.633
 3481POPC   C3B44901  27.112  43.571   6.838
 3481POPC   C4B44902  26.989  43.494   7.217
 3482POPC   NC344903  29.675  16.775   5.408
 3482POPC   PO444904  30.252  17.227   5.500
 3482POPC   GL144905  29.901  17.091   5.746
 3482POPC   GL244906  29.956  16.739   5.839
 3482POPC   C1A44907  29.675  17.066   6.143
 3482POPC   D2A44908  29.745  16.774   6.494
 3482POPC   C3A44909  29.972  16.859   6.836
 3482POPC   C4A44910  29.850  17.006   7.227
 3482POPC   C1B44911  29.726  16.442   6.121
 3482POPC   C2B44912  29.652  16.238   6.558
 3482POPC   C3B44913  29.781  16.308   7.004
 3482POPC   C4B44914  30.059  16.554   7.252
 3483POPC   NC344915  37.539  36.350   5.634
 3483POPC   PO444916  37.832  35.824   5.353
 3483POPC   GL144917  37.956  36.038   5.774
 3483POPC   GL244918  37.968  36.372   5.952
 3483POPC   C1A44919  37.868  35.957   6.233
 3483POPC   D2A44920  38.047  35.933   6.661
 3483POPC   C3A44921  37.894  36.140   7.036
 3483POPC   C4A44922  37.927  35.995   7.473
 3483POPC   C1B44923  37.649  36.431   6.273
 3483POPC   C2B44924  37.503  36.180   6.604
 3483POPC   C3B44925  37.422  36.324   6.988
 3483POPC   C4B44926  37.618  36.412   7.407
 3484POPC   NC344927  38.901  27.293   5.582
 3484POPC   PO444928  38.467  27.666   5.182
 3484POPC   GL144929  38.607  27.727   5.663
 3484POPC   GL244930  38.278  27.795   5.757
 3484POPC   C1A44931  38.697  27.566   6.155
 3484POPC   D2A44932  38.486  27.417   6.555
 3484POPC   C3A44933  38.450  27.601   6.964
 3484POPC   C4A44934  38.728  27.653   7.302
 3484POPC   C1B44935  38.197  27.652   6.187
 3484POPC   C2B44936  38.088  27.748   6.618
 3484POPC   C3B44937  38.107  27.981   7.015
 3484POPC   C4B44938  37.821  27.924   7.345
 3485POPC   NC344939  42.840   4.371   5.090
 3485POPC   PO444940  43.221   4.014   5.513
 3485POPC   GL144941  43.097   4.186   5.868
 3485POPC   GL244942  43.236   4.488   5.816
 3485POPC   C1A44943  42.943   4.089   6.283
 3485POPC   D2A44944  42.725   3.917   6.618
 3485POPC   C3A44945  43.060   3.999   6.879
 3485POPC   C4A44946  43.247   3.983   7.280
 3485POPC   C1B44947  43.061   4.574   6.236
 3485POPC   C2B44948  42.878   4.465   6.647
 3485POPC   C3B44949  43.045   4.470   7.066
 3485POPC   C4B44950  42.920   4.571   7.441
 3486POPC   NC344951   5.373  33.602   5.402
 3486POPC   PO444952   4.817  33.982   5.451
 3486POPC   GL144953   4.905  33.772   5.825
 3486POPC   GL244954   5.221  33.669   5.892
 3486POPC   C1A44955   4.934  33.904   6.281
 3486POPC   D2A44956   4.978  33.743   6.712
 3486POPC   C3A44957   5.001  33.957   7.113
 3486POPC   C4A44958   4.867  33.850   7.537
 3486POPC   C1B44959   5.432  33.338   6.148
 3486POPC   C2B44960   5.420  33.430   6.621
 3486POPC   C3B44961   5.363  33.568   7.068
 3486POPC   C4B44962   5.225  33.465   7.523
 3487POPC   NC344963  11.368  19.584   5.431
 3487POPC   PO444964  11.009  20.203   5.318
 3487POPC   GL144965  10.985  19.892   5.709
 3487POPC   GL244966  11.298  19.765   5.895
 3487POPC   C1A44967  10.876  19.788   6.180
 3487POPC   D2A44968  10.999  19.650   6.604
 3487POPC   C3A44969  11.158  19.870   6.965
 3487POPC   C4A44970  11.290  19.788   7.405
 3487POPC   C1B44971  11.593  19.611   6.207
 3487POPC   C2B44972  11.584  19.417   6.616
 3487POPC   C3B44973  11.430  19.457   7.048
 3487POPC   C4B44974  11.528  19.298   7.490
 3488POPC   NC344975  10.126  21.274   5.415
 3488POPC   PO444976   9.527  21.518   5.548
 3488POPC   GL144977   9.613  21.289   5.904
 3488POPC   GL244978   9.966  21.414   5.916
 3488POPC   C1A44979   9.395  21.274   6.305
 3488POPC   D2A44980   9.513  21.338   6.758
 3488POPC   C3A44981   9.855  21.078   6.934
 3488POPC   C4A44982  10.069  21.165   7.331
 3488POPC   C1B44983   9.946  21.336   6.382
 3488POPC   C2B44984  10.051  21.538   6.775
 3488POPC   C3B44985   9.843  21.629   7.152
 3488POPC   C4B44986   9.710  21.922   7.457
 3489POPC   NC344987   8.222   1.345   5.310
 3489POPC   PO444988   7.993   2.025   5.362
 3489POPC   GL144989   8.289   2.028   5.729
 3489POPC   GL244990   8.296   1.644   5.790
 3489POPC   C1A44991   8.418   2.292   6.113
 3489POPC   D2A44992   8.210   2.251   6.525
 3489POPC   C3A44993   8.384   2.227   6.973
 3489POPC   C4A44994   7.967   2.098   7.163
 3489POPC   C1B44995   8.347   1.811   6.216
 3489POPC   C2B44996   8.536   1.856   6.633
 3489POPC   C3B44997   8.340   1.729   7.049
 3489POPC   C4B44998   8.571   1.840   7.402
 3490POPC   NC344999   4.111  40.717   5.318
 3490POPC   PO445000   4.297  41.369   5.489
 3490POPC   GL145001   4.235  40.971   5.752
 3490POPC   GL245002   4.471  40.690   5.722
 3490POPC   C1A45003   4.112  40.794   6.163
 3490POPC   D2A45004   3.941  40.874   6.583
 3490POPC   C3A45005   4.078  40.686   6.957
 3490POPC   C4A45006   4.164  40.841   7.353
 3490POPC   C1B45007   4.631  40.902   6.102
 3490POPC   C2B45008   4.724  40.808   6.520
 3490POPC   C3B45009   4.581  40.834   6.936
 3490POPC   C4B45010   4.549  40.476   7.177
 3491POPC   NC345011  15.451  15.744   5.479
 3491POPC   PO445012  15.332  15.124   5.133
 3491POPC   GL145013  15.322  15.155   5.614
 3491POPC   GL245014  15.380  14.813   5.797
 3491POPC   C1A45015  15.198  15.326   6.076
 3491POPC   D2A45016  15.416  15.368   6.509
 3491POPC   C3A45017  15.159  15.317   6.914
 3491POPC   C4A45018  15.079  15.307   7.379
 3491POPC   C1B45019  15.418  14.862   6.289
 3491POPC   C2B45020  15.429  14.854   6.778
 3491POPC   C3B45021  15.521  15.077   7.181
 3491POPC   C4B45022  15.492  15.153   7.643
 3492POPC   NC345023  24.934   3.742   5.652
 3492POPC   PO445024  25.435   3.648   5.228
 3492POPC   GL145025  25.395   3.585   5.772
 3492POPC   GL245026  25.164   3.350   5.986
 3492POPC   C1A45027  25.575   3.523   6.199
 3492POPC   D2A45028  25.329   3.307   6.485
 3492POPC   C3A45029  25.293   3.525   6.829
 3492POPC   C4A45030  25.254   3.543   7.228
 3492POPC   C1B45031  25.107   3.727   6.284
 3492POPC   C2B45032  25.034   3.938   6.699
 3492POPC   C3B45033  24.811   3.824   7.088
 3492POPC   C4B45034  24.871   3.712   7.537
 3493POPC   NC345035   1.726   0.819   5.520
 3493POPC   PO445036   2.086   0.153   5.459
 3493POPC   GL145037   1.992   0.459   5.772
 3493POPC   GL245038   1.628   0.483   5.886
 3493POPC   C1A45039   2.168   0.570   6.159
 3493POPC   D2A45040   2.142   0.375   6.586
 3493POPC   C3A45041   2.256   0.599   6.937
 3493POPC   C4A45042   2.065   0.807   7.222
 3493POPC   C1B45043   1.691   0.623   6.336
 3493POPC   C2B45044   1.639   0.872   6.734
 3493POPC   C3B45045   1.584   0.630   7.093
 3493POPC   C4B45046   1.872   0.327   7.170
 3494POPC   NC345047  29.715  20.309   5.537
 3494POPC   PO445048  30.122  20.837   5.668
 3494POPC   GL145049  29.940  20.557   5.951
 3494POPC   GL245050  29.633  20.694   5.926
 3494POPC   C1A45051  29.879  20.541   6.402
 3494POPC   D2A45052  30.208  20.552   6.695
 3494POPC   C3A45053  30.155  20.797   7.076
 3494POPC   C4A45054  29.783  20.964   7.281
 3494POPC   C1B45055  29.478  20.330   6.159
 3494POPC   C2B45056  29.454  20.251   6.607
 3494POPC   C3B45057  29.639  20.472   6.993
 3494POPC   C4B45058  29.534  20.380   7.445
 3495POPC   NC345059  11.415  11.559   5.547
 3495POPC   PO445060  10.908  11.199   5.371
 3495POPC   GL145061  11.175  11.134   5.750
 3495POPC   GL245062  11.133  11.440   5.956
 3495POPC   C1A45063  11.331  11.018   6.162
 3495POPC   D2A45064  11.285  11.265   6.525
 3495POPC   C3A45065  11.335  11.039   6.908
 3495POPC   C4A45066  11.107  10.904   7.234
 3495POPC   C1B45067  11.238  11.751   6.279
 3495POPC   C2B45068  11.266  11.781   6.705
 3495POPC   C3B45069  11.441  11.728   7.100
 3495POPC   C4B45070  11.246  11.386   7.281
 3496POPC   NC345071  20.682  11.377   5.194
 3496POPC   PO445072  20.565  12.025   5.344
 3496POPC   GL145073  20.493  12.110   5.829
 3496POPC   GL245074  20.305  11.866   6.027
 3496POPC   C1A45075  20.652  12.115   6.290
 3496POPC   D2A45076  20.516  12.022   6.723
 3496POPC   C3A45077  20.875  11.901   6.957
 3496POPC   C4A45078  21.090  12.268   7.188
 3496POPC   C1B45079  20.129  12.186   6.281
 3496POPC   C2B45080  20.081  12.363   6.699
 3496POPC   C3B45081  20.248  12.368   7.124
 3496POPC   C4B45082  20.583  12.110   7.292
 3497POPC   NC345083   4.440  32.563   5.025
 3497POPC   PO445084   4.233  33.164   5.306
 3497POPC   GL145085   4.090  33.104   5.719
 3497POPC   GL245086   4.410  33.234   5.836
 3497POPC   C1A45087   4.007  32.992   6.151
 3497POPC   D2A45088   3.990  33.186   6.557
 3497POPC   C3A45089   4.346  33.050   6.803
 3497POPC   C4A45090   4.400  33.204   7.205
 3497POPC   C1B45091   4.507  33.108   6.261
 3497POPC   C2B45092   4.730  32.807   6.497
 3497POPC   C3B45093   4.697  32.662   6.896
 3497POPC   C4B45094   4.784  32.905   7.258
 3498POPC   NC345095  27.841  10.082   5.487
 3498POPC   PO445096  27.632   9.462   5.653
 3498POPC   GL145097  27.556   9.827   5.882
 3498POPC   GL245098  27.289  10.070   5.824
 3498POPC   C1A45099  27.446   9.812   6.305
 3498POPC   D2A45100  27.587   9.798   6.719
 3498POPC   C3A45101  27.457   9.526   7.051
 3498POPC   C4A45102  27.580   9.591   7.471
 3498POPC   C1B45103  27.232  10.277   6.237
 3498POPC   C2B45104  27.184  10.107   6.668
 3498POPC   C3B45105  27.340  10.024   7.094
 3498POPC   C4B45106  27.092   9.929   7.453
 3499POPC   NC345107  39.298   0.861   5.393
 3499POPC   PO445108  39.066   1.534   5.451
 3499POPC   GL145109  39.036   1.187   5.721
 3499POPC   GL245110  39.377   1.076   5.852
 3499POPC   C1A45111  38.993   1.142   6.166
 3499POPC   D2A45112  39.303   1.367   6.407
 3499POPC   C3A45113  39.248   1.380   6.832
 3499POPC   C4A45114  39.387   1.600   7.184
 3499POPC   C1B45115  39.448   0.903   6.266
 3499POPC   C2B45116  39.255   0.869   6.708
 3499POPC   C3B45117  39.239   1.000   7.170
 3499POPC   C4B45118  39.293   0.789   7.583
 3500POPC   NC345119   5.825   2.640   5.368
 3500POPC   PO445120   6.114   3.249   5.541
 3500POPC   GL145121   6.057   2.849   5.858
 3500POPC   GL245122   6.177   2.449   5.990
 3500POPC   C1A45123   5.752   2.672   6.111
 3500POPC   D2A45124   5.685   2.790   6.545
 3500POPC   C3A45125   5.680   2.679   6.979
 3500POPC   C4A45126   5.832   2.923   7.310
 3500POPC   C1B45127   6.215   2.646   6.380
 3500POPC   C2B45128   6.131   2.507   6.782
 3500POPC   C3B45129   6.107   2.462   7.201
 3500POPC   C4B45130   6.184   2.720   7.602
 3501POPC   NC345131  41.728  14.369   5.474
 3501POPC   PO445132  41.243  14.711   5.372
 3501POPC   GL145133  41.378  14.643   5.799
 3501POPC   GL245134  41.320  14.289   5.880
 3501POPC   C1A45135  41.769  14.687   6.068
 3501POPC   D2A45136  41.839  14.684   6.541
 3501POPC   C3A45137  41.570  14.441   6.857
 3501POPC   C4A45138  41.240  14.421   7.160
 3501POPC   C1B45139  41.553  14.303   6.314
 3501POPC   C2B45140  41.831  14.084   6.636
 3501POPC   C3B45141  41.656  13.914   7.033
 3501POPC   C4B45142  41.447  13.977   7.433
 3502POPC   NC345143  19.358  26.850   5.324
 3502POPC   PO445144  18.845  27.173   5.310
 3502POPC   GL145145  19.069  27.087   5.693
 3502POPC   GL245146  19.100  26.743   5.767
 3502POPC   C1A45147  19.110  27.099   6.151
 3502POPC   D2A45148  19.027  26.881   6.550
 3502POPC   C3A45149  19.225  27.079   6.901
 3502POPC   C4A45150  19.148  26.976   7.311
 3502POPC   C1B45151  19.207  26.548   6.159
 3502POPC   C2B45152  19.404  26.449   6.541
 3502POPC   C3B45153  19.224  26.526   6.937
 3502POPC   C4B45154  19.246  26.303   7.341
 3503POPC   NC345155  10.762  21.953   5.238
 3503POPC   PO445156  10.900  22.508   5.402
 3503POPC   GL145157  10.718  22.197   5.757
 3503POPC   GL245158  10.376  21.979   5.862
 3503POPC   C1A45159  10.628  22.237   6.221
 3503POPC   D2A45160  10.649  22.047   6.623
 3503POPC   C3A45161  10.643  22.284   7.048
 3503POPC   C4A45162  10.819  22.500   7.442
 3503POPC   C1B45163  10.236  21.857   6.332
 3503POPC   C2B45164  10.165  22.035   6.776
 3503POPC   C3B45165  10.123  22.095   7.222
 3503POPC   C4B45166  10.134  22.015   7.713
 3504POPC   NC345167  37.408  31.929   5.612
 3504POPC   PO445168  37.361  32.516   5.279
 3504POPC   GL145169  37.464  32.474   5.774
 3504POPC   GL245170  37.842  32.439   5.810
 3504POPC   C1A45171  37.488  32.278   6.244
 3504POPC   D2A45172  37.312  32.310   6.697
 3504POPC   C3A45173  37.512  32.180   7.063
 3504POPC   C4A45174  37.511  31.765   7.046
 3504POPC   C1B45175  37.978  32.364   6.267
 3504POPC   C2B45176  37.798  32.087   6.631
 3504POPC   C3B45177  37.997  31.986   7.037
 3504POPC   C4B45178  38.125  32.274   7.307
 3505POPC   NC345179  38.168  44.128   5.339
 3505POPC   PO445180  38.806  43.923   5.384
 3505POPC   GL145181  38.665  43.776   5.775
 3505POPC   GL245182  38.328  43.750   5.758
 3505POPC   C1A45183  38.544  43.978   6.180
 3505POPC   D2A45184  38.351  43.878   6.583
 3505POPC   C3A45185  38.588  44.020   6.943
 3505POPC   C4A45186  38.384  44.250   7.284
 3505POPC   C1B45187  38.287  43.525   6.138
 3505POPC   C2B45188  38.221  43.383   6.552
 3505POPC   C3B45189  38.093  43.442   6.944
 3505POPC   C4B45190  38.277  43.690   7.237
 3506POPC   NC345191  38.716  11.553   4.995
 3506POPC   PO445192  38.349  11.131   5.318
 3506POPC   GL145193  38.202  11.306   5.691
 3506POPC   GL245194  38.068  10.971   5.767
 3506POPC   C1A45195  38.312  11.533   6.071
 3506POPC   D2A45196  38.693  11.430   6.318
 3506POPC   C3A45197  38.665  11.400   6.771
 3506POPC   C4A45198  38.577  11.394   7.190
 3506POPC   C1B45199  38.320  11.028   6.124
 3506POPC   C2B45200  38.221  11.249   6.499
 3506POPC   C3B45201  38.204  11.139   6.902
 3506POPC   C4B45202  38.321  10.966   7.282
 3507POPC   NC345203  22.737  21.981   5.509
 3507POPC   PO445204  23.419  21.870   5.359
 3507POPC   GL145205  23.306  22.115   5.765
 3507POPC   GL245206  22.996  22.349   5.768
 3507POPC   C1A45207  23.090  22.082   6.189
 3507POPC   D2A45208  23.124  22.367   6.557
 3507POPC   C3A45209  23.035  22.117   6.895
 3507POPC   C4A45210  22.870  22.099   7.303
 3507POPC   C1B45211  22.809  22.513   6.186
 3507POPC   C2B45212  22.618  22.467   6.636
 3507POPC   C3B45213  22.662  22.503   7.087
 3507POPC   C4B45214  22.599  22.467   7.573
 3508POPC   NC345215   7.373  21.609   5.365
 3508POPC   PO445216   7.136  20.993   5.531
 3508POPC   GL145217   7.295  21.191   5.880
 3508POPC   GL245218   7.296  21.560   5.880
 3508POPC   C1A45219   7.585  21.294   6.214
 3508POPC   D2A45220   7.381  21.229   6.615
 3508POPC   C3A45221   7.497  21.434   6.985
 3508POPC   C4A45222   7.226  21.321   7.301
 3508POPC   C1B45223   7.270  21.677   6.333
 3508POPC   C2B45224   7.259  21.853   6.763
 3508POPC   C3B45225   7.053  21.762   7.169
 3508POPC   C4B45226   7.277  21.713   7.628
 3509POPC   NC345227  24.685  10.835   5.311
 3509POPC   PO445228  24.814  10.255   5.531
 3509POPC   GL145229  24.411  10.497   5.648
 3509POPC   GL245230  24.398  10.865   5.757
 3509POPC   C1A45231  24.271  10.457   6.079
 3509POPC   D2A45232  24.396  10.219   6.434
 3509POPC   C3A45233  24.349  10.308   6.877
 3509POPC   C4A45234  24.502  10.449   7.282
 3509POPC   C1B45235  24.575  10.879   6.194
 3509POPC   C2B45236  24.510  10.723   6.612
 3509POPC   C3B45237  24.576  10.905   7.050
 3509POPC   C4B45238  24.551  10.883   7.545
 3510POPC   NC345239   3.214   1.466   5.495
 3510POPC   PO445240   3.587   0.933   5.563
 3510POPC   GL145241   3.402   1.073   5.884
 3510POPC   GL245242   3.549   1.389   5.871
 3510POPC   C1A45243   3.562   1.024   6.281
 3510POPC   D2A45244   3.462   1.178   6.647
 3510POPC   C3A45245   3.771   1.104   6.932
 3510POPC   C4A45246   3.760   1.065   7.370
 3510POPC   C1B45247   3.406   1.541   6.251
 3510POPC   C2B45248   3.441   1.695   6.673
 3510POPC   C3B45249   3.474   1.499   7.059
 3510POPC   C4B45250   3.140   1.565   7.335
 3511POPC   NC345251  29.214   1.932   5.277
 3511POPC   PO445252  28.685   1.706   5.534
 3511POPC   GL145253  29.009   1.941   5.794
 3511POPC   GL245254  29.392   1.973   5.755
 3511POPC   C1A45255  28.969   1.956   6.237
 3511POPC   D2A45256  28.787   1.741   6.607
 3511POPC   C3A45257  28.932   1.849   7.001
 3511POPC   C4A45258  29.297   1.677   7.171
 3511POPC   C1B45259  29.330   2.315   6.073
 3511POPC   C2B45260  29.204   2.339   6.488
 3511POPC   C3B45261  29.395   2.162   6.860
 3511POPC   C4B45262  29.237   2.177   7.266
 3512POPC   NC345263   7.122  16.675   5.473
 3512POPC   PO445264   6.423  16.747   5.504
 3512POPC   GL145265   6.734  16.656   5.814
 3512POPC   GL245266   6.588  16.340   5.887
 3512POPC   C1A45267   6.891  16.692   6.253
 3512POPC   D2A45268   6.691  16.843   6.652
 3512POPC   C3A45269   6.860  16.889   7.079
 3512POPC   C4A45270   6.720  16.742   7.488
 3512POPC   C1B45271   6.384  16.630   6.215
 3512POPC   C2B45272   6.237  16.613   6.675
 3512POPC   C3B45273   6.333  16.763   7.122
 3512POPC   C4B45274   6.167  16.784   7.563
 3513POPC   NC345275  23.918  43.976   5.216
 3513POPC   PO445276  24.361  43.637   5.587
 3513POPC   GL145277  23.892  43.656   5.800
 3513POPC   GL245278  23.681  43.980   5.813
 3513POPC   C1A45279  23.526  43.656   6.163
 3513POPC   D2A45280  23.566  43.845   6.588
 3513POPC   C3A45281  23.868  43.692   6.846
 3513POPC   C4A45282  23.915  43.588   7.246
 3513POPC   C1B45283  23.416  44.164   6.222
 3513POPC   C2B45284  23.175  44.166   6.665
 3513POPC   C3B45285  23.266  44.074   7.141
 3513POPC   C4B45286  23.234  44.042   7.631
 3514POPC   NC345287  34.162  22.349   5.026
 3514POPC   PO445288  33.597  21.964   5.342
 3514POPC   GL145289  33.741  22.141   5.756
 3514POPC   GL245290  34.107  22.044   5.777
 3514POPC   C1A45291  33.522  22.212   6.153
 3514POPC   D2A45292  33.388  22.088   6.560
 3514POPC   C3A45293  33.576  22.238   6.939
 3514POPC   C4A45294  33.720  21.986   7.220
 3514POPC   C1B45295  33.994  22.036   6.216
 3514POPC   C2B45296  33.927  22.287   6.573
 3514POPC   C3B45297  34.126  22.162   6.938
 3514POPC   C4B45298  34.196  22.007   7.352
 3515POPC   NC345299  41.843  17.576   5.365
 3515POPC   PO445300  41.156  17.631   5.534
 3515POPC   GL145301  41.252  17.361   5.869
 3515POPC   GL245302  41.603  17.363   5.794
 3515POPC   C1A45303  41.175  17.457   6.301
 3515POPC   D2A45304  41.349  17.787   6.550
 3515POPC   C3A45305  41.371  17.686   6.985
 3515POPC   C4A45306  41.508  17.340   7.200
 3515POPC   C1B45307  41.682  17.460   6.226
 3515POPC   C2B45308  41.746  17.454   6.654
 3515POPC   C3B45309  41.907  17.754   6.942
 3515POPC   C4B45310  41.823  17.712   7.337
 3516POPC   NC345311  27.995  43.812   5.547
 3516POPC   PO445312  28.682  43.693   5.617
 3516POPC   GL145313  28.549  43.823   5.987
 3516POPC   GL245314  28.256  43.999   5.950
 3516POPC   C1A45315  28.444  43.893   6.424
 3516POPC   D2A45316  28.661  44.144   6.692
 3516POPC   C3A45317  28.377  44.144   6.994
 3516POPC   C4A45318  28.453  43.846   7.261
 3516POPC   C1B45319  28.131  43.580   6.155
 3516POPC   C2B45320  28.080  43.558   6.572
 3516POPC   C3B45321  28.107  43.636   6.966
 3516POPC   C4B45322  27.862  43.908   7.226
 3517POPC   NC345323  38.473   6.267   5.457
 3517POPC   PO445324  38.217   5.627   5.516
 3517POPC   GL145325  38.322   5.871   5.825
 3517POPC   GL245326  38.651   5.896   5.753
 3517POPC   C1A45327  38.449   6.011   6.241
 3517POPC   D2A45328  38.444   5.833   6.651
 3517POPC   C3A45329  38.319   6.110   6.963
 3517POPC   C4A45330  38.141   5.959   7.307
 3517POPC   C1B45331  38.759   5.633   6.109
 3517POPC   C2B45332  38.902   5.677   6.536
 3517POPC   C3B45333  38.784   5.579   7.009
 3517POPC   C4B45334  38.580   5.423   7.412
 3518POPC   NC345335  17.673  19.988   5.450
 3518POPC   PO445336  17.213  19.499   5.501
 3518POPC   GL145337  17.475  19.702   5.839
 3518POPC   GL245338  17.420  20.094   5.893
 3518POPC   C1A45339  17.597  19.647   6.294
 3518POPC   D2A45340  17.674  19.783   6.748
 3518POPC   C3A45341  17.364  19.946   7.045
 3518POPC   C4A45342  17.560  19.817   7.445
 3518POPC   C1B45343  17.629  20.375   6.218
 3518POPC   C2B45344  17.799  20.275   6.649
 3518POPC   C3B45345  17.779  20.216   7.106
 3518POPC   C4B45346  17.410  20.307   7.432
 3519POPC   NC345347   5.414  19.571   5.153
 3519POPC   PO445348   5.876  19.875   5.509
 3519POPC   GL145349   5.940  20.010   5.896
 3519POPC   GL245350   6.133  20.291   5.946
 3519POPC   C1A45351   5.882  19.751   6.248
 3519POPC   D2A45352   6.130  19.549   6.561
 3519POPC   C3A45353   5.980  19.677   6.942
 3519POPC   C4A45354   5.547  19.661   7.112
 3519POPC   C1B45355   6.269  20.100   6.304
 3519POPC   C2B45356   6.034  20.064   6.637
 3519POPC   C3B45357   6.164  20.149   7.038
 3519POPC   C4B45358   5.929  19.975   7.336
 3520POPC   NC345359  17.245  12.379   5.233
 3520POPC   PO445360  17.698  11.927   5.320
 3520POPC   GL145361  17.472  12.114   5.688
 3520POPC   GL245362  17.112  12.051   5.667
 3520POPC   C1A45363  17.573  11.988   6.136
 3520POPC   D2A45364  17.725  11.773   6.518
 3520POPC   C3A45365  17.593  11.970   6.902
 3520POPC   C4A45366  17.522  11.937   7.345
 3520POPC   C1B45367  17.076  12.154   6.106
 3520POPC   C2B45368  17.249  12.089   6.530
 3520POPC   C3B45369  17.094  11.995   6.955
 3520POPC   C4B45370  17.221  12.333   7.211
 3521POPC   NC345371  44.109  43.180   5.319
 3521POPC   PO445372  43.815  42.574   5.394
 3521POPC   GL145373  43.950  42.905   5.733
 3521POPC   GL245374  43.894  43.273   5.781
 3521POPC   C1A45375  44.019  42.970   6.199
 3521POPC   D2A45376  43.828  43.192   6.570
 3521POPC   C3A45377  43.892  43.071   7.030
 3521POPC   C4A45378  43.899  43.183   7.485
 3521POPC   C1B45379  43.951  43.497   6.157
 3521POPC   C2B45380  44.209  43.590   6.522
 3521POPC   C3B45381  44.250  43.465   6.943
 3521POPC   C4B45382  44.041  43.653   7.326
 3522POPC   NC345383  14.195  31.237   5.496
 3522POPC   PO445384  14.585  31.753   5.580
 3522POPC   GL145385  14.452  31.410   5.878
 3522POPC   GL245386  14.656  31.408   6.137
 3522POPC   C1A45387  14.275  31.095   6.232
 3522POPC   D2A45388  14.424  31.233   6.638
 3522POPC   C3A45389  14.298  31.067   7.047
 3522POPC   C4A45390  14.571  31.265   7.350
 3522POPC   C1B45391  14.256  31.597   6.291
 3522POPC   C2B45392  14.354  31.738   6.657
 3522POPC   C3B45393  14.277  31.576   7.053
 3522POPC   C4B45394  14.139  31.468   7.465
 3523POPC   NC345395  22.522   7.187   5.581
 3523POPC   PO445396  22.948   7.657   5.447
 3523POPC   GL145397  23.042   7.758   5.881
 3523POPC   GL245398  22.918   7.418   5.982
 3523POPC   C1A45399  22.984   7.744   6.352
 3523POPC   D2A45400  22.812   7.422   6.572
 3523POPC   C3A45401  23.051   7.459   6.893
 3523POPC   C4A45402  23.035   7.351   7.292
 3523POPC   C1B45403  22.673   7.082   6.211
 3523POPC   C2B45404  22.612   6.916   6.635
 3523POPC   C3B45405  22.661   7.115   7.035
 3523POPC   C4B45406  22.654   7.042   7.489
 3524POPC   NC345407  34.791   4.981   5.517
 3524POPC   PO445408  34.307   5.263   5.227
 3524POPC   GL145409  34.414   5.275   5.709
 3524POPC   GL245410  34.777   5.365   5.845
 3524POPC   C1A45411  34.392   5.098   6.147
 3524POPC   D2A45412  34.461   4.839   6.518
 3524POPC   C3A45413  34.389   5.099   6.878
 3524POPC   C4A45414  34.462   4.986   7.252
 3524POPC   C1B45415  34.915   5.126   6.178
 3524POPC   C2B45416  34.788   5.233   6.576
 3524POPC   C3B45417  34.896   5.108   6.983
 3524POPC   C4B45418  34.740   5.420   7.241
 3525POPC   NC345419  20.043  29.138   5.515
 3525POPC   PO445420  20.740  28.920   5.467
 3525POPC   GL145421  20.825  29.093   5.911
 3525POPC   GL245422  20.764  29.451   5.862
 3525POPC   C1A45423  20.805  29.033   6.395
 3525POPC   D2A45424  20.407  28.968   6.644
 3525POPC   C3A45425  20.520  29.081   7.035
 3525POPC   C4A45426  20.965  29.046   7.058
 3525POPC   C1B45427  20.469  29.371   6.218
 3525POPC   C2B45428  20.562  29.451   6.662
 3525POPC   C3B45429  20.321  29.545   7.031
 3525POPC   C4B45430  20.186  29.295   7.393
 3526POPC   NC345431  39.915  41.570   5.278
 3526POPC   PO445432  39.671  41.101   5.681
 3526POPC   GL145433  39.926  41.477   5.798
 3526POPC   GL245434  40.299  41.492   5.737
 3526POPC   C1A45435  39.919  41.706   6.191
 3526POPC   D2A45436  39.741  41.538   6.580
 3526POPC   C3A45437  39.819  41.784   6.947
 3526POPC   C4A45438  39.780  41.633   7.374
 3526POPC   C1B45439  40.269  41.339   6.179
 3526POPC   C2B45440  40.196  41.271   6.619
 3526POPC   C3B45441  40.149  41.366   7.047
 3526POPC   C4B45442  40.280  41.601   7.396
 3527POPC   NC345443   4.565  33.524   5.272
 3527POPC   PO445444   4.196  34.111   5.107
 3527POPC   GL145445   4.321  33.914   5.544
 3527POPC   GL245446   4.119  33.612   5.621
 3527POPC   C1A45447   4.447  33.806   5.999
 3527POPC   D2A45448   4.524  33.604   6.404
 3527POPC   C3A45449   4.440  33.562   6.830
 3527POPC   C4A45450   4.459  33.719   7.258
 3527POPC   C1B45451   4.057  33.511   6.096
 3527POPC   C2B45452   4.035  33.828   6.448
 3527POPC   C3B45453   4.079  33.906   6.900
 3527POPC   C4B45454   3.999  33.508   7.142
 3528POPC   NC345455  24.962  14.739   5.559
 3528POPC   PO445456  25.435  14.311   5.538
 3528POPC   GL145457  25.272  14.311   5.891
 3528POPC   GL245458  24.896  14.271   5.801
 3528POPC   C1A45459  25.438  14.185   6.313
 3528POPC   D2A45460  25.487  14.088   6.755
 3528POPC   C3A45461  25.428  14.439   7.108
 3528POPC   C4A45462  25.401  14.628   7.548
 3528POPC   C1B45463  24.969  14.444   6.252
 3528POPC   C2B45464  25.130  14.456   6.675
 3528POPC   C3B45465  24.917  14.565   7.066
 3528POPC   C4B45466  24.740  14.354   7.434
 3529POPC   NC345467  31.621  21.614   5.342
 3529POPC   PO445468  31.004  21.321   5.488
 3529POPC   GL145469  31.424  21.290   5.710
 3529POPC   GL245470  31.225  21.291   5.979
 3529POPC   C1A45471  31.740  21.351   6.084
 3529POPC   D2A45472  31.836  21.135   6.500
 3529POPC   C3A45473  31.922  21.302   6.870
 3529POPC   C4A45474  31.672  21.352   7.191
 3529POPC   C1B45475  31.338  21.257   6.415
 3529POPC   C2B45476  31.321  21.253   6.846
 3529POPC   C3B45477  31.145  21.362   7.264
 3529POPC   C4B45478  31.111  21.642   7.643
 3530POPC   NC345479  27.798  28.994   5.495
 3530POPC   PO445480  27.247  29.382   5.368
 3530POPC   GL145481  27.380  29.302   5.752
 3530POPC   GL245482  27.409  28.945   5.824
 3530POPC   C1A45483  27.484  29.477   6.179
 3530POPC   D2A45484  27.515  29.377   6.632
 3530POPC   C3A45485  27.885  29.323   6.888
 3530POPC   C4A45486  27.709  29.379   7.287
 3530POPC   C1B45487  27.495  28.990   6.271
 3530POPC   C2B45488  27.329  28.919   6.672
 3530POPC   C3B45489  27.500  28.967   7.081
 3530POPC   C4B45490  27.863  28.878   7.325
 3531POPC   NC345491   0.097  40.199   5.430
 3531POPC   PO445492   0.386  39.610   5.316
 3531POPC   GL145493   0.366  39.692   5.761
 3531POPC   GL245494   0.032  39.833   5.840
 3531POPC   C1A45495   0.613  39.845   6.129
 3531POPC   D2A45496   0.708  40.243   6.362
 3531POPC   C3A45497   0.698  40.179   6.814
 3531POPC   C4A45498   0.397  39.899   7.050
 3531POPC   C1B45499   0.160  40.105   6.213
 3531POPC   C2B45500   0.252  40.339   6.612
 3531POPC   C3B45501   0.093  40.333   7.020
 3531POPC   C4B45502   0.246  40.225   7.420
 3532POPC   NC345503   9.409   9.937   5.640
 3532POPC   PO445504   9.130   9.590   5.114
 3532POPC   GL145505   9.023   9.572   5.607
 3532POPC   GL245506   8.672   9.600   5.778
 3532POPC   C1A45507   9.104   9.604   6.090
 3532POPC   D2A45508   9.007   9.493   6.530
 3532POPC   C3A45509   9.155   9.664   6.927
 3532POPC   C4A45510   9.057   9.436   7.258
 3532POPC   C1B45511   8.649   9.752   6.251
 3532POPC   C2B45512   8.770   9.921   6.687
 3532POPC   C3B45513   8.722   9.846   7.171
 3532POPC   C4B45514   8.586  10.015   7.594
 3533POPC   NC345515  33.461  28.594   5.206
 3533POPC   PO445516  32.769  28.459   5.282
 3533POPC   GL145517  32.957  28.575   5.685
 3533POPC   GL245518  33.250  28.410   5.641
 3533POPC   C1A45519  33.112  28.629   6.144
 3533POPC   D2A45520  33.291  28.669   6.601
 3533POPC   C3A45521  33.010  28.611   6.957
 3533POPC   C4A45522  32.811  28.259   7.126
 3533POPC   C1B45523  33.211  28.133   6.018
 3533POPC   C2B45524  33.443  28.111   6.406
 3533POPC   C3B45525  33.270  28.164   6.813
 3533POPC   C4B45526  33.336  28.311   7.222
 3534POPC   NC345527  29.506   7.367   5.423
 3534POPC   PO445528  28.879   6.992   5.524
 3534POPC   GL145529  28.941   7.229   5.903
 3534POPC   GL245530  29.274   7.397   5.877
 3534POPC   C1A45531  29.079   7.252   6.348
 3534POPC   D2A45532  28.891   7.417   6.738
 3534POPC   C3A45533  29.092   7.321   7.140
 3534POPC   C4A45534  29.354   6.955   7.251
 3534POPC   C1B45535  29.536   7.518   6.217
 3534POPC   C2B45536  29.577   7.703   6.603
 3534POPC   C3B45537  29.347   7.716   6.986
 3534POPC   C4B45538  29.365   7.609   7.445
 3535POPC   NC345539   2.506  37.964   5.484
 3535POPC   PO445540   2.894  37.512   5.358
 3535POPC   GL145541   2.927  37.705   5.723
 3535POPC   GL245542   2.616  37.577   5.844
 3535POPC   C1A45543   3.008  37.616   6.158
 3535POPC   D2A45544   3.028  37.502   6.590
 3535POPC   C3A45545   2.970  37.770   6.963
 3535POPC   C4A45546   2.806  37.583   7.318
 3535POPC   C1B45547   2.547  37.826   6.233
 3535POPC   C2B45548   2.551  37.698   6.683
 3535POPC   C3B45549   2.409  37.854   7.093
 3535POPC   C4B45550   2.445  37.867   7.553
 3536POPC   NC345551  29.330  44.810   4.977
 3536POPC   PO445552  28.855  44.291   5.060
 3536POPC   GL145553  28.751  44.365   5.610
 3536POPC   GL245554  28.710  44.710   5.766
 3536POPC   C1A45555  28.912  44.339   6.108
 3536POPC   D2A45556  28.937  44.542   6.569
 3536POPC   C3A45557  29.082  44.419   7.022
 3536POPC   C4A45558  29.377  44.665   7.297
 3536POPC   C1B45559  28.715  44.961   6.165
 3536POPC   C2B45560  28.700  44.990   6.625
 3536POPC   C3B45561  28.977  44.927   6.980
 3536POPC   C4B45562  28.889  44.750   7.372
 3537POPC   NC345563  22.579  19.288   5.471
 3537POPC   PO445564  23.077  18.925   5.233
 3537POPC   GL145565  23.038  19.005   5.677
 3537POPC   GL245566  22.758  18.797   5.779
 3537POPC   C1A45567  23.292  18.828   6.022
 3537POPC   D2A45568  23.418  18.749   6.452
 3537POPC   C3A45569  23.209  18.932   6.810
 3537POPC   C4A45570  22.879  18.831   7.113
 3537POPC   C1B45571  22.822  18.905   6.193
 3537POPC   C2B45572  22.720  18.849   6.610
 3537POPC   C3B45573  22.566  19.139   6.904
 3537POPC   C4B45574  22.665  19.261   7.332
 3538POPC   NC345575  30.334  28.202   5.460
 3538POPC   PO445576  29.899  28.785   5.474
 3538POPC   GL145577  30.028  28.477   5.814
 3538POPC   GL245578  29.704  28.357   5.825
 3538POPC   C1A45579  29.978  28.136   6.198
 3538POPC   D2A45580  30.063  28.274   6.644
 3538POPC   C3A45581  29.885  28.248   7.056
 3538POPC   C4A45582  29.547  28.284   7.338
 3538POPC   C1B45583  29.701  28.555   6.233
 3538POPC   C2B45584  29.594  28.686   6.630
 3538POPC   C3B45585  29.668  28.729   7.071
 3538POPC   C4B45586  29.882  28.659   7.451
 3539POPC   NC345587  44.604  41.355   5.397
 3539POPC   PO445588   0.281  41.567   5.422
 3539POPC   GL145589  44.968  41.478   5.741
 3539POPC   GL245590  44.896  41.831   5.826
 3539POPC   C1A45591  44.790  41.351   6.158
 3539POPC   D2A45592  44.961  41.363   6.600
 3539POPC   C3A45593  44.863  41.706   6.896
 3539POPC   C4A45594  44.600  41.569   7.218
 3539POPC   C1B45595  44.650  41.889   6.226
 3539POPC   C2B45596  44.498  42.020   6.645
 3539POPC   C3B45597  44.274  41.913   7.033
 3539POPC   C4B45598  44.348  41.924   7.501
 3540POPC   NC345599  32.247  33.789   5.574
 3540POPC   PO445600  32.370  33.199   5.267
 3540POPC   GL145601  32.575  33.425   5.726
 3540POPC   GL245602  32.613  33.795   5.926
 3540POPC   C1A45603  32.439  33.442   6.241
 3540POPC   D2A45604  32.350  33.712   6.654
 3540POPC   C3A45605  32.213  33.532   7.046
 3540POPC   C4A45606  32.576  33.367   7.185
 3540POPC   C1B45607  32.210  33.936   6.212
 3540POPC   C2B45608  31.914  33.965   6.605
 3540POPC   C3B45609  32.027  34.023   7.050
 3540POPC   C4B45610  32.449  33.933   7.233
 3541POPC   NC345611  24.496  22.325   5.329
 3541POPC   PO445612  24.058  21.831   5.269
 3541POPC   GL145613  24.530  22.011   5.692
 3541POPC   GL245614  24.630  22.354   5.814
 3541POPC   C1A45615  24.444  22.115   6.186
 3541POPC   D2A45616  24.448  22.244   6.568
 3541POPC   C3A45617  24.376  21.870   6.781
 3541POPC   C4A45618  24.454  21.764   7.168
 3541POPC   C1B45619  24.838  22.442   6.222
 3541POPC   C2B45620  24.938  22.375   6.640
 3541POPC   C3B45621  24.716  22.243   7.003
 3541POPC   C4B45622  24.780  22.486   7.352
 3542POPC   NC345623  18.818  31.007   5.179
 3542POPC   PO445624  19.195  30.637   5.540
 3542POPC   GL145625  19.132  30.753   5.979
 3542POPC   GL245626  18.789  30.875   6.107
 3542POPC   C1A45627  19.148  30.701   6.413
 3542POPC   D2A45628  18.977  30.907   6.731
 3542POPC   C3A45629  19.203  30.644   7.015
 3542POPC   C4A45630  19.236  30.663   7.458
 3542POPC   C1B45631  18.628  30.543   6.314
 3542POPC   C2B45632  18.730  30.460   6.690
 3542POPC   C3B45633  18.698  30.607   7.072
 3542POPC   C4B45634  18.727  30.438   7.452
 3543POPC   NC345635   1.644  42.105   5.496
 3543POPC   PO445636   2.048  42.692   5.468
 3543POPC   GL145637   1.977  42.396   5.805
 3543POPC   GL245638   2.216  42.102   5.833
 3543POPC   C1A45639   2.062  42.418   6.255
 3543POPC   D2A45640   1.845  42.609   6.598
 3543POPC   C3A45641   2.075  42.622   6.954
 3543POPC   C4A45642   2.107  42.371   7.284
 3543POPC   C1B45643   1.839  41.986   6.097
 3543POPC   C2B45644   1.722  42.016   6.530
 3543POPC   C3B45645   1.792  42.164   6.930
 3543POPC   C4B45646   1.937  41.895   7.269
 3544POPC   NC345647  39.214  37.436   5.348
 3544POPC   PO445648  38.693  37.865   5.329
 3544POPC   GL145649  38.983  37.860   5.724
 3544POPC   GL245650  39.223  37.601   5.824
 3544POPC   C1A45651  39.083  37.884   6.216
 3544POPC   D2A45652  39.087  37.584   6.585
 3544POPC   C3A45653  39.235  37.727   7.002
 3544POPC   C4A45654  39.058  37.678   7.376
 3544POPC   C1B45655  39.468  37.541   6.211
 3544POPC   C2B45656  39.585  37.657   6.626
 3544POPC   C3B45657  39.442  37.287   6.851
 3544POPC   C4B45658  39.449  37.329   7.285
 3545POPC   NC345659  15.341  22.719   5.447
 3545POPC   PO445660  14.714  23.039   5.536
 3545POPC   GL145661  15.119  23.094   5.750
 3545POPC   GL245662  15.055  22.757   5.853
 3545POPC   C1A45663  15.426  22.999   6.115
 3545POPC   D2A45664  15.359  22.816   6.522
 3545POPC   C3A45665  15.429  22.990   6.922
 3545POPC   C4A45666  15.319  23.021   7.339
 3545POPC   C1B45667  14.941  22.918   6.237
 3545POPC   C2B45668  14.882  23.053   6.633
 3545POPC   C3B45669  14.887  22.910   7.022
 3545POPC   C4B45670  14.553  23.091   7.235
 3546POPC   NC345671  38.481  34.053   5.431
 3546POPC   PO445672  38.762  33.379   5.404
 3546POPC   GL145673  38.629  33.639   5.726
 3546POPC   GL245674  38.281  33.669   5.768
 3546POPC   C1A45675  38.611  33.710   6.175
 3546POPC   D2A45676  38.414  33.715   6.584
 3546POPC   C3A45677  38.714  33.771   6.921
 3546POPC   C4A45678  38.726  33.538   7.312
 3546POPC   C1B45679  38.069  33.963   6.086
 3546POPC   C2B45680  37.923  34.106   6.512
 3546POPC   C3B45681  37.945  34.014   6.958
 3546POPC   C4B45682  38.283  33.801   7.177
 3547POPC   NC345683  31.683  15.245   5.511
 3547POPC   PO445684  31.264  14.781   5.299
 3547POPC   GL145685  31.347  15.023   5.772
 3547POPC   GL245686  31.664  15.023   5.964
 3547POPC   C1A45687  31.246  15.189   6.211
 3547POPC   D2A45688  31.050  15.039   6.597
 3547POPC   C3A45689  31.214  15.218   6.965
 3547POPC   C4A45690  31.446  15.180   7.319
 3547POPC   C1B45691  31.687  14.900   6.318
 3547POPC   C2B45692  31.621  15.100   6.679
 3547POPC   C3B45693  31.769  14.903   7.034
 3547POPC   C4B45694  31.704  14.749   7.439
 3548POPC   NC345695   3.351  12.850   5.300
 3548POPC   PO445696   2.688  12.643   5.316
 3548POPC   GL145697   2.776  12.804   5.703
 3548POPC   GL245698   3.132  12.799   5.758
 3548POPC   C1A45699   2.748  12.676   6.134
 3548POPC   D2A45700   2.608  12.868   6.510
 3548POPC   C3A45701   2.819  12.738   6.873
 3548POPC   C4A45702   2.886  12.896   7.254
 3548POPC   C1B45703   3.028  13.095   6.083
 3548POPC   C2B45704   3.085  13.016   6.516
 3548POPC   C3B45705   3.213  13.107   6.932
 3548POPC   C4B45706   3.370  13.235   7.361
 3549POPC   NC345707  12.228  40.808   5.264
 3549POPC   PO445708  12.083  41.436   5.216
 3549POPC   GL145709  11.980  41.080   5.609
 3549POPC   GL245710  11.940  40.659   5.656
 3549POPC   C1A45711  11.960  41.033   6.027
 3549POPC   D2A45712  12.117  40.851   6.371
 3549POPC   C3A45713  11.980  40.977   6.759
 3549POPC   C4A45714  12.134  40.847   7.155
 3549POPC   C1B45715  11.917  40.489   6.079
 3549POPC   C2B45716  11.855  40.439   6.556
 3549POPC   C3B45717  11.669  40.596   6.948
 3549POPC   C4B45718  11.762  40.630   7.417
 3550POPC   NC345719  42.805  30.836   5.393
 3550POPC   PO445720  43.418  30.706   5.137
 3550POPC   GL145721  43.187  30.568   5.621
 3550POPC   GL245722  43.021  30.812   5.878
 3550POPC   C1A45723  43.161  30.378   6.093
 3550POPC   D2A45724  43.074  30.660   6.445
 3550POPC   C3A45725  43.141  30.655   6.906
 3550POPC   C4A45726  43.052  30.509   7.362
 3550POPC   C1B45727  43.135  31.103   6.218
 3550POPC   C2B45728  43.144  31.133   6.638
 3550POPC   C3B45729  42.927  31.117   6.969
 3550POPC   C4B45730  43.117  31.033   7.291
 3551POPC   NC345731  30.122  37.780   5.755
 3551POPC   PO445732  29.600  37.378   5.658
 3551POPC   GL145733  29.697  37.629   6.006
 3551POPC   GL245734  29.548  37.969   5.916
 3551POPC   C1A45735  29.944  37.484   6.375
 3551POPC   D2A45736  30.289  37.342   6.653
 3551POPC   C3A45737  30.183  37.578   7.001
 3551POPC   C4A45738  29.945  37.442   7.344
 3551POPC   C1B45739  29.783  38.074   6.298
 3551POPC   C2B45740  29.642  37.829   6.646
 3551POPC   C3B45741  29.498  37.766   7.035
 3551POPC   C4B45742  29.881  37.924   7.214
 3552POPC   NC345743  35.826  30.057   5.169
 3552POPC   PO445744  35.139  29.983   5.387
 3552POPC   GL145745  35.054  29.814   5.843
 3552POPC   GL245746  35.403  29.783   5.953
 3552POPC   C1A45747  35.099  29.703   6.336
 3552POPC   D2A45748  35.270  29.928   6.674
 3552POPC   C3A45749  35.244  29.798   7.096
 3552POPC   C4A45750  35.620  29.799   7.283
 3552POPC   C1B45751  35.568  30.062   6.258
 3552POPC   C2B45752  35.539  30.361   6.572
 3552POPC   C3B45753  35.542  30.236   6.994
 3552POPC   C4B45754  35.800  30.258   7.360
 3553POPC   NC345755  34.112   7.935   5.073
 3553POPC   PO445756  34.666   8.105   5.297
 3553POPC   GL145757  34.642   8.080   5.735
 3553POPC   GL245758  34.716   7.739   5.879
 3553POPC   C1A45759  34.399   8.125   6.100
 3553POPC   D2A45760  34.524   8.091   6.525
 3553POPC   C3A45761  34.423   8.362   6.861
 3553POPC   C4A45762  34.552   8.332   7.256
 3553POPC   C1B45763  34.920   7.792   6.242
 3553POPC   C2B45764  35.076   7.984   6.580
 3553POPC   C3B45765  34.907   8.095   6.932
 3553POPC   C4B45766  34.988   7.831   7.245
 3554POPC   NC345767  16.889  24.767   5.470
 3554POPC   PO445768  16.825  24.125   5.411
 3554POPC   GL145769  16.838  24.254   5.830
 3554POPC   GL245770  16.580  24.534   5.804
 3554POPC   C1A45771  16.873  24.178   6.300
 3554POPC   D2A45772  17.118  24.473   6.569
 3554POPC   C3A45773  16.989  24.574   6.981
 3554POPC   C4A45774  16.783  24.257   7.217
 3554POPC   C1B45775  16.857  24.667   6.149
 3554POPC   C2B45776  16.638  24.690   6.554
 3554POPC   C3B45777  16.465  24.575   6.967
 3554POPC   C4B45778  16.660  24.741   7.364
 3555POPC   NC345779  34.934  42.247   5.356
 3555POPC   PO445780  34.261  42.302   5.538
 3555POPC   GL145781  34.628  42.375   5.782
 3555POPC   GL245782  34.900  42.139   5.845
 3555POPC   C1A45783  34.656  42.334   6.253
 3555POPC   D2A45784  34.568  42.558   6.654
 3555POPC   C3A45785  34.616  42.344   7.046
 3555POPC   C4A45786  34.506  42.274   7.478
 3555POPC   C1B45787  35.047  42.559   6.028
 3555POPC   C2B45788  35.040  42.642   6.494
 3555POPC   C3B45789  34.952  42.768   6.967
 3555POPC   C4B45790  34.833  42.650   7.418
 3556POPC   NC345791  15.435  43.222   5.442
 3556POPC   PO445792  14.772  43.113   5.525
 3556POPC   GL145793  15.059  43.109   5.873
 3556POPC   GL245794  15.327  42.861   5.803
 3556POPC   C1A45795  15.048  43.249   6.324
 3556POPC   D2A45796  14.884  43.385   6.737
 3556POPC   C3A45797  15.159  43.248   7.030
 3556POPC   C4A45798  15.121  42.956   7.310
 3556POPC   C1B45799  15.493  42.962   6.205
 3556POPC   C2B45800  15.496  43.111   6.617
 3556POPC   C3B45801  15.477  42.854   6.962
 3556POPC   C4B45802  15.653  42.826   7.372
 3557POPC   NC345803  34.134  15.812   5.407
 3557POPC   PO445804  33.745  16.382   5.364
 3557POPC   GL145805  33.733  16.141   5.735
 3557POPC   GL245806  34.046  16.165   5.798
 3557POPC   C1A45807  33.740  15.775   6.052
 3557POPC   D2A45808  33.888  15.612   6.499
 3557POPC   C3A45809  33.700  15.802   6.897
 3557POPC   C4A45810  33.451  16.183   6.997
 3557POPC   C1B45811  33.895  16.253   6.226
 3557POPC   C2B45812  33.954  16.230   6.683
 3557POPC   C3B45813  34.003  16.256   7.122
 3557POPC   C4B45814  34.195  16.014   7.448
 3558POPC   NC345815  11.807   6.685   5.014
 3558POPC   PO445816  12.243   6.436   5.484
 3558POPC   GL145817  12.067   6.568   5.851
 3558POPC   GL245818  12.057   6.907   5.708
 3558POPC   C1A45819  12.272   6.458   6.268
 3558POPC   D2A45820  12.341   6.324   6.709
 3558POPC   C3A45821  12.093   6.396   7.097
 3558POPC   C4A45822  12.047   6.356   7.559
 3558POPC   C1B45823  12.315   6.957   6.093
 3558POPC   C2B45824  12.198   6.889   6.534
 3558POPC   C3B45825  12.317   6.845   6.961
 3558POPC   C4B45826  12.251   6.818   7.416
 3559POPC   NC345827   7.684   0.827   5.530
 3559POPC   PO445828   7.225   1.272   5.273
 3559POPC   GL145829   7.239   1.084   5.696
 3559POPC   GL245830   7.370   1.406   5.796
 3559POPC   C1A45831   7.114   0.956   6.159
 3559POPC   D2A45832   7.347   0.925   6.553
 3559POPC   C3A45833   7.075   0.983   6.885
 3559POPC   C4A45834   7.043   1.064   7.299
 3559POPC   C1B45835   7.468   1.308   6.202
 3559POPC   C2B45836   7.667   1.314   6.587
 3559POPC   C3B45837   7.533   1.231   6.991
 3559POPC   C4B45838   7.236   1.521   7.083
 3560POPC   NC345839  15.248  20.044   5.331
 3560POPC   PO445840  15.629  19.516   5.279
 3560POPC   GL145841  15.427  19.708   5.666
 3560POPC   GL245842  15.066  19.618   5.654
 3560POPC   C1A45843  15.308  20.040   6.004
 3560POPC   D2A45844  15.358  19.986   6.448
 3560POPC   C3A45845  15.157  20.054   6.850
 3560POPC   C4A45846  15.239  19.977   7.288
 3560POPC   C1B45847  15.145  19.571   6.121
 3560POPC   C2B45848  14.984  19.599   6.541
 3560POPC   C3B45849  15.079  19.555   6.963
 3560POPC   C4B45850  15.296  19.476   7.346
 3561POPC   NC345851   1.054  31.886   5.488
 3561POPC   PO445852   1.315  31.213   5.366
 3561POPC   GL145853   1.298  31.288   5.818
 3561POPC   GL245854   1.375  31.620   5.794
 3561POPC   C1A45855   1.150  31.270   6.281
 3561POPC   D2A45856   1.260  31.463   6.673
 3561POPC   C3A45857   1.291  31.303   7.077
 3561POPC   C4A45858   1.177  31.277   7.489
 3561POPC   C1B45859   1.344  31.742   6.190
 3561POPC   C2B45860   1.504  31.904   6.530
 3561POPC   C3B45861   1.275  31.942   6.898
 3561POPC   C4B45862   1.284  31.767   7.304
 3562POPC   NC345863   6.134  23.718   5.447
 3562POPC   PO445864   5.541  23.641   5.156
 3562POPC   GL145865   5.720  23.786   5.718
 3562POPC   GL245866   5.948  23.580   5.970
 3562POPC   C1A45867   5.586  23.893   6.168
 3562POPC   D2A45868   5.863  23.993   6.514
 3562POPC   C3A45869   5.982  23.711   6.851
 3562POPC   C4A45870   5.748  23.644   7.223
 3562POPC   C1B45871   6.229  23.693   6.351
 3562POPC   C2B45872   6.341  24.074   6.655
 3562POPC   C3B45873   6.378  24.238   7.062
 3562POPC   C4B45874   6.227  23.934   7.391
 3563POPC   NC345875  15.376  12.490   5.366
 3563POPC   PO445876  14.912  12.990   5.470
 3563POPC   GL145877  15.143  12.864   5.816
 3563POPC   GL245878  14.943  12.575   5.846
 3563POPC   C1A45879  15.286  12.991   6.238
 3563POPC   D2A45880  15.151  12.849   6.661
 3563POPC   C3A45881  15.420  12.809   7.025
 3563POPC   C4A45882  15.558  12.725   7.454
 3563POPC   C1B45883  14.874  12.361   6.219
 3563POPC   C2B45884  14.730  12.475   6.628
 3563POPC   C3B45885  14.709  12.553   7.060
 3563POPC   C4B45886  15.032  12.636   7.355
 3564POPC   NC345887  10.041  29.958   5.503
 3564POPC   PO445888   9.505  29.737   5.493
 3564POPC   GL145889   9.448  29.878   5.902
 3564POPC   GL245890   9.675  30.138   5.894
 3564POPC   C1A45891   9.586  29.800   6.319
 3564POPC   D2A45892   9.779  29.463   6.550
 3564POPC   C3A45893   9.610  29.381   6.929
 3564POPC   C4A45894   9.677  29.585   7.317
 3564POPC   C1B45895  10.026  30.021   6.173
 3564POPC   C2B45896  10.114  29.898   6.630
 3564POPC   C3B45897   9.944  29.941   7.073
 3564POPC   C4B45898  10.003  29.950   7.552
 3565POPC   NC345899   5.215  10.313   5.331
 3565POPC   PO445900   4.600  10.464   5.559
 3565POPC   GL145901   4.950  10.401   5.779
 3565POPC   GL245902   5.118  10.692   5.708
 3565POPC   C1A45903   5.192  10.412   6.158
 3565POPC   D2A45904   5.175  10.516   6.584
 3565POPC   C3A45905   5.387  10.250   6.882
 3565POPC   C4A45906   5.213  10.112   7.281
 3565POPC   C1B45907   4.921  10.974   6.024
 3565POPC   C2B45908   4.753  10.971   6.465
 3565POPC   C3B45909   4.769  10.697   6.821
 3565POPC   C4B45910   5.113  10.619   7.109
 3566POPC   NC345911   6.832  30.501   5.446
 3566POPC   PO445912   7.432  30.867   5.630
 3566POPC   GL145913   7.382  30.648   5.978
 3566POPC   GL245914   7.135  30.405   5.826
 3566POPC   C1A45915   7.701  30.505   6.271
 3566POPC   D2A45916   7.847  30.531   6.676
 3566POPC   C3A45917   7.624  30.786   6.927
 3566POPC   C4A45918   7.481  30.796   7.358
 3566POPC   C1B45919   7.037  30.393   6.242
 3566POPC   C2B45920   7.279  30.662   6.549
 3566POPC   C3B45921   7.106  30.790   6.949
 3566POPC   C4B45922   6.941  30.497   7.232
 3567POPC   NC345923  30.340  29.001   5.538
 3567POPC   PO445924  30.995  29.309   5.389
 3567POPC   GL145925  30.797  29.285   5.796
 3567POPC   GL245926  30.800  28.932   5.832
 3567POPC   C1A45927  30.771  29.305   6.238
 3567POPC   D2A45928  30.568  29.133   6.579
 3567POPC   C3A45929  30.544  29.392   6.905
 3567POPC   C4A45930  30.577  29.210   7.277
 3567POPC   C1B45931  30.773  28.775   6.263
 3567POPC   C2B45932  30.913  28.750   6.712
 3567POPC   C3B45933  30.777  28.767   7.154
 3567POPC   C4B45934  30.760  28.867   7.616
 3568POPC   NC345935  43.600  31.120   5.255
 3568POPC   PO445936  43.920  31.739   5.255
 3568POPC   GL145937  43.856  31.664   5.693
 3568POPC   GL245938  43.560  31.470   5.648
 3568POPC   C1A45939  44.020  31.573   6.128
 3568POPC   D2A45940  43.945  31.632   6.593
 3568POPC   C3A45941  44.020  31.363   6.972
 3568POPC   C4A45942  43.976  31.509   7.438
 3568POPC   C1B45943  43.610  31.256   6.051
 3568POPC   C2B45944  43.631  31.217   6.508
 3568POPC   C3B45945  43.505  31.445   6.891
 3568POPC   C4B45946  43.487  31.440   7.352
 3569POPC   NC345947  38.684   5.451   5.481
 3569POPC   PO445948  38.305   4.915   5.429
 3569POPC   GL145949  38.564   4.982   5.788
 3569POPC   GL245950  38.373   5.289   5.860
 3569POPC   C1A45951  38.693   5.133   6.210
 3569POPC   D2A45952  38.554   5.309   6.597
 3569POPC   C3A45953  38.625   5.093   6.978
 3569POPC   C4A45954  38.389   4.964   7.290
 3569POPC   C1B45955  38.256   5.528   6.215
 3569POPC   C2B45956  38.073   5.476   6.611
 3569POPC   C3B45957  38.250   5.522   7.031
 3569POPC   C4B45958  38.079   5.475   7.473
 3570POPC   NC345959   5.607  42.976   5.378
 3570POPC   PO445960   6.226  43.200   5.550
 3570POPC   GL145961   6.097  43.287   5.896
 3570POPC   GL245962   5.793  43.092   5.849
 3570POPC   C1A45963   6.018  43.211   6.305
 3570POPC   D2A45964   5.828  43.188   6.686
 3570POPC   C3A45965   6.064  43.029   7.013
 3570POPC   C4A45966   5.917  42.994   7.428
 3570POPC   C1B45967   5.522  43.053   6.238
 3570POPC   C2B45968   5.517  42.774   6.594
 3570POPC   C3B45969   5.581  42.843   7.064
 3570POPC   C4B45970   5.507  42.701   7.527
 3571POPC   NC345971  40.178   6.581   5.332
 3571POPC   PO445972  39.512   6.588   5.386
 3571POPC   GL145973  39.837   6.514   5.703
 3571POPC   GL245974  40.026   6.821   5.778
 3571POPC   C1A45975  39.905   6.446   6.142
 3571POPC   D2A45976  39.736   6.486   6.546
 3571POPC   C3A45977  40.040   6.523   6.868
 3571POPC   C4A45978  39.989   6.506   7.252
 3571POPC   C1B45979  40.132   7.044   6.160
 3571POPC   C2B45980  40.034   6.920   6.562
 3571POPC   C3B45981  39.966   7.032   6.984
 3571POPC   C4B45982  40.226   7.217   7.249
 3572POPC   NC345983  31.232  37.550   5.507
 3572POPC   PO445984  31.919  37.358   5.556
 3572POPC   GL145985  31.618  37.575   5.848
 3572POPC   GL245986  31.639  37.925   5.721
 3572POPC   C1A45987  31.200  37.612   6.149
 3572POPC   D2A45988  31.087  37.712   6.605
 3572POPC   C3A45989  31.248  37.449   6.960
 3572POPC   C4A45990  31.322  37.490   7.386
 3572POPC   C1B45991  31.560  37.994   6.152
 3572POPC   C2B45992  31.608  37.651   6.452
 3572POPC   C3B45993  31.723  37.654   6.865
 3572POPC   C4B45994  31.882  37.904   7.206
 3573POPC   NC345995  13.418   6.750   5.127
 3573POPC   PO445996  13.966   6.881   5.525
 3573POPC   GL145997  13.824   6.607   5.856
 3573POPC   GL245998  13.988   6.273   5.942
 3573POPC   C1A45999  13.563   6.688   6.223
 3573POPC   D2A46000  13.306   6.660   6.587
 3573POPC   C3A46001  13.572   6.663   6.958
 3573POPC   C4A46002  13.550   6.757   7.368
 3573POPC   C1B46003  13.905   6.327   6.319
 3573POPC   C2B46004  13.653   6.290   6.623
 3573POPC   C3B46005  13.884   6.229   6.978
 3573POPC   C4B46006  13.933   6.445   7.310
 3574POPC   NC346007  34.465   3.968   5.610
 3574POPC   PO446008  34.817   3.416   5.353
 3574POPC   GL146009  34.716   3.531   5.778
 3574POPC   GL246010  34.359   3.477   5.796
 3574POPC   C1A46011  34.896   3.603   6.194
 3574POPC   D2A46012  34.771   3.803   6.572
 3574POPC   C3A46013  34.770   3.588   6.955
 3574POPC   C4A46014  34.756   3.782   7.370
 3574POPC   C1B46015  34.374   3.711   6.223
 3574POPC   C2B46016  34.256   3.812   6.680
 3574POPC   C3B46017  34.286   3.740   7.156
 3574POPC   C4B46018  34.334   3.654   7.630
 3575POPC   NC346019  20.619  36.446   5.390
 3575POPC   PO446020  20.489  37.133   5.387
 3575POPC   GL146021  20.590  36.841   5.744
 3575POPC   GL246022  20.296  36.675   5.884
 3575POPC   C1A46023  20.633  36.950   6.209
 3575POPC   D2A46024  20.800  36.882   6.642
 3575POPC   C3A46025  20.524  37.034   6.979
 3575POPC   C4A46026  20.545  37.151   7.378
 3575POPC   C1B46027  20.299  36.538   6.307
 3575POPC   C2B46028  20.377  36.593   6.763
 3575POPC   C3B46029  20.322  36.606   7.224
 3575POPC   C4B46030  20.398  36.711   7.678
 3576POPC   NC346031  18.020  17.105   5.322
 3576POPC   PO446032  18.633  16.918   5.562
 3576POPC   GL146033  18.393  16.535   5.671
 3576POPC   GL246034  18.093  16.697   5.649
 3576POPC   C1A46035  18.207  16.382   6.083
 3576POPC   D2A46036  18.094  16.583   6.504
 3576POPC   C3A46037  18.430  16.620   6.843
 3576POPC   C4A46038  18.591  16.638   7.280
 3576POPC   C1B46039  18.005  16.872   6.065
 3576POPC   C2B46040  17.717  16.941   6.424
 3576POPC   C3B46041  17.739  16.926   6.901
 3576POPC   C4B46042  18.090  16.800   7.183
 3577POPC   NC346043  36.067  18.955   5.050
 3577POPC   PO446044  36.560  19.380   5.182
 3577POPC   GL146045  36.408  19.402   5.669
 3577POPC   GL246046  36.312  19.051   5.780
 3577POPC   C1A46047  36.350  19.489   6.144
 3577POPC   D2A46048  36.472  19.443   6.627
 3577POPC   C3A46049  36.282  19.069   6.899
 3577POPC   C4A46050  36.045  19.014   7.288
 3577POPC   C1B46051  36.001  19.098   6.118
 3577POPC   C2B46052  35.951  19.226   6.545
 3577POPC   C3B46053  35.775  18.941   6.868
 3577POPC   C4B46054  35.754  18.572   7.133
 3578POPC   NC346055  27.915  37.004   5.448
 3578POPC   PO446056  27.286  36.782   5.448
 3578POPC   GL146057  27.493  36.657   5.874
 3578POPC   GL246058  27.823  36.816   5.924
 3578POPC   C1A46059  27.548  36.704   6.352
 3578POPC   D2A46060  27.383  37.055   6.643
 3578POPC   C3A46061  27.563  37.005   7.058
 3578POPC   C4A46062  27.426  36.573   7.166
 3578POPC   C1B46063  27.748  37.161   6.233
 3578POPC   C2B46064  27.831  37.318   6.664
 3578POPC   C3B46065  28.037  37.310   7.079
 3578POPC   C4B46066  27.801  37.277   7.478
 3579POPC   NC346067  36.029   3.750   5.284
 3579POPC   PO446068  36.108   4.414   5.377
 3579POPC   GL146069  35.963   4.231   5.754
 3579POPC   GL246070  36.282   4.245   5.855
 3579POPC   C1A46071  35.894   4.296   6.205
 3579POPC   D2A46072  35.707   4.164   6.593
 3579POPC   C3A46073  35.895   4.324   6.970
 3579POPC   C4A46074  35.947   4.014   7.295
 3579POPC   C1B46075  36.437   4.329   6.236
 3579POPC   C2B46076  36.295   4.433   6.633
 3579POPC   C3B46077  36.490   4.216   6.936
 3579POPC   C4B46078  36.709   4.193   7.304
 3580POPC   NC346079  16.903   2.291   5.594
 3580POPC   PO446080  16.878   2.929   5.428
 3580POPC   GL146081  16.638   2.803   5.805
 3580POPC   GL246082  16.931   2.675   5.894
 3580POPC   C1A46083  16.658   2.768   6.298
 3580POPC   D2A46084  16.693   2.451   6.626
 3580POPC   C3A46085  16.627   2.624   7.028
 3580POPC   C4A46086  16.700   2.696   7.478
 3580POPC   C1B46087  17.173   2.526   6.183
 3580POPC   C2B46088  17.145   2.736   6.543
 3580POPC   C3B46089  17.230   2.729   6.930
 3580POPC   C4B46090  17.073   2.433   7.179
 3581POPC   NC346091  17.648   1.004   5.366
 3581POPC   PO446092  17.268   1.522   5.383
 3581POPC   GL146093  17.368   1.469   5.807
 3581POPC   GL246094  17.478   1.123   5.838
 3581POPC   C1A46095  17.525   1.475   6.224
 3581POPC   D2A46096  17.581   1.258   6.598
 3581POPC   C3A46097  17.371   1.428   6.960
 3581POPC   C4A46098  17.436   1.659   7.297
 3581POPC   C1B46099  17.505   0.854   6.203
 3581POPC   C2B46100  17.281   0.857   6.592
 3581POPC   C3B46101  17.449   0.911   6.989
 3581POPC   C4B46102  17.512   0.593   7.233
 3582POPC   NC346103  17.230   4.157   5.580
 3582POPC   PO446104  17.812   4.095   5.274
 3582POPC   GL146105  17.694   4.403   5.683
 3582POPC   GL246106  17.387   4.456   5.928
 3582POPC   C1A46107  17.789   4.342   6.155
 3582POPC   D2A46108  17.691   4.154   6.533
 3582POPC   C3A46109  17.673   4.314   6.925
 3582POPC   C4A46110  17.368   4.444   7.227
 3582POPC   C1B46111  17.225   4.140   6.227
 3582POPC   C2B46112  17.270   3.884   6.559
 3582POPC   C3B46113  17.235   4.033   6.928
 3582POPC   C4B46114  17.091   3.986   7.295
 3583POPC   NC346115  16.208  29.365   5.324
 3583POPC   PO446116  15.676  28.952   5.436
 3583POPC   GL146117  15.827  29.174   5.748
 3583POPC   GL246118  15.605  29.440   5.755
 3583POPC   C1A46119  16.099  29.269   6.105
 3583POPC   D2A46120  16.336  29.377   6.482
 3583POPC   C3A46121  16.124  29.210   6.834
 3583POPC   C4A46122  16.250  29.380   7.236
 3583POPC   C1B46123  15.577  29.233   6.186
 3583POPC   C2B46124  15.769  28.916   6.450
 3583POPC   C3B46125  15.815  28.765   6.865
 3583POPC   C4B46126  15.729  29.043   7.219
 3584POPC   NC346127   6.268   0.408   5.675
 3584POPC   PO446128   5.757   0.123   5.281
 3584POPC   GL146129   5.915   0.068   5.822
 3584POPC   GL246130   6.160   0.263   6.125
 3584POPC   C1A46131   5.758   0.027   6.297
 3584POPC   D2A46132   6.124   0.078   6.633
 3584POPC   C3A46133   6.031   0.198   7.065
 3584POPC   C4A46134   5.700   0.103   7.369
 3584POPC   C1B46135   6.205   0.715   6.322
 3584POPC   C2B46136   6.044   0.664   6.739
 3584POPC   C3B46137   5.997   0.700   7.168
 3584POPC   C4B46138   6.112   0.816   7.570
 3585POPC   NC346139   3.821  24.626   5.328
 3585POPC   PO446140   3.220  24.474   5.405
 3585POPC   GL146141   3.555  24.388   5.730
 3585POPC   GL246142   3.799  24.648   5.879
 3585POPC   C1A46143   3.602  24.251   6.163
 3585POPC   D2A46144   3.779  24.352   6.570
 3585POPC   C3A46145   3.493  24.366   6.907
 3585POPC   C4A46146   3.591  24.280   7.322
 3585POPC   C1B46147   3.693  24.803   6.310
 3585POPC   C2B46148   3.641  24.863   6.763
 3585POPC   C3B46149   3.763  24.748   7.174
 3585POPC   C4B46150   3.639  24.703   7.611
 3586POPC   NC346151  36.796  21.763   5.394
 3586POPC   PO446152  37.110  22.427   5.319
 3586POPC   GL146153  36.938  22.215   5.695
 3586POPC   GL246154  37.121  21.916   5.762
 3586POPC   C1A46155  36.846  22.157   6.144
 3586POPC   D2A46156  36.925  22.383   6.511
 3586POPC   C3A46157  36.799  22.209   6.878
 3586POPC   C4A46158  36.894  22.404   7.246
 3586POPC   C1B46159  37.280  21.760   6.145
 3586POPC   C2B46160  37.219  21.957   6.558
 3586POPC   C3B46161  37.236  21.976   7.012
 3586POPC   C4B46162  37.345  22.260   7.406
 3587POPC   NC346163  17.958  34.999   5.521
 3587POPC   PO446164  18.337  35.517   5.480
 3587POPC   GL146165  18.453  35.279   5.831
 3587POPC   GL246166  18.130  35.355   5.930
 3587POPC   C1A46167  18.567  35.524   6.201
 3587POPC   D2A46168  18.374  35.737   6.565
 3587POPC   C3A46169  18.472  35.590   6.987
 3587POPC   C4A46170  18.107  35.373   7.142
 3587POPC   C1B46171  18.175  35.243   6.330
 3587POPC   C2B46172  18.407  35.198   6.677
 3587POPC   C3B46173  18.380  34.945   7.043
 3587POPC   C4B46174  18.405  35.131   7.475
 3588POPC   NC346175  35.159  15.403   5.176
 3588POPC   PO446176  35.696  14.972   5.324
 3588POPC   GL146177  35.464  15.036   5.755
 3588POPC   GL246178  35.131  15.217   5.728
 3588POPC   C1A46179  35.395  15.210   6.212
 3588POPC   D2A46180  35.389  15.132   6.674
 3588POPC   C3A46181  35.548  15.393   6.973
 3588POPC   C4A46182  35.626  15.581   7.321
 3588POPC   C1B46183  34.908  15.046   6.093
 3588POPC   C2B46184  34.914  14.990   6.537
 3588POPC   C3B46185  34.955  15.210   6.938
 3588POPC   C4B46186  35.192  15.232   7.317
 3589POPC   NC346187  11.242   7.374   5.298
 3589POPC   PO446188  11.720   7.666   5.728
 3589POPC   GL146189  11.349   7.486   5.809
 3589POPC   GL246190  11.286   7.148   5.752
 3589POPC   C1A46191  11.340   7.382   6.211
 3589POPC   D2A46192  11.499   7.552   6.556
 3589POPC   C3A46193  11.462   7.369   6.989
 3589POPC   C4A46194  11.294   7.456   7.386
 3589POPC   C1B46195  11.062   6.974   6.141
 3589POPC   C2B46196  11.150   7.126   6.606
 3589POPC   C3B46197  11.018   7.129   7.044
 3589POPC   C4B46198  10.864   7.211   7.461
 3590POPC   NC346199  11.974  38.259   5.485
 3590POPC   PO446200  11.788  38.898   5.423
 3590POPC   GL146201  11.920  38.666   5.813
 3590POPC   GL246202  12.284  38.696   5.917
 3590POPC   C1A46203  12.016  38.344   6.158
 3590POPC   D2A46204  12.147  38.340   6.604
 3590POPC   C3A46205  11.872  38.399   6.991
 3590POPC   C4A46206  12.176  38.240   7.314
 3590POPC   C1B46207  12.077  38.836   6.280
 3590POPC   C2B46208  12.075  38.810   6.723
 3590POPC   C3B46209  12.299  38.660   7.052
 3590POPC   C4B46210  11.964  38.853   7.280
 3591POPC   NC346211  28.071  29.638   5.304
 3591POPC   PO446212  28.702  29.710   5.204
 3591POPC   GL146213  28.568  29.567   5.641
 3591POPC   GL246214  28.670  29.915   5.756
 3591POPC   C1A46215  28.401  29.631   6.099
 3591POPC   D2A46216  28.236  29.993   6.376
 3591POPC   C3A46217  28.165  29.989   6.838
 3591POPC   C4A46218  27.905  29.833   7.168
 3591POPC   C1B46219  28.717  30.043   6.199
 3591POPC   C2B46220  28.651  29.889   6.635
 3591POPC   C3B46221  28.626  30.021   7.069
 3591POPC   C4B46222  28.622  29.799   7.436
 3592POPC   NC346223   0.701   3.935   5.573
 3592POPC   PO446224   0.179   3.553   5.325
 3592POPC   GL146225   0.480   3.508   5.766
 3592POPC   GL246226   0.419   3.802   5.976
 3592POPC   C1A46227   0.714   3.484   6.237
 3592POPC   D2A46228   0.718   3.688   6.687
 3592POPC   C3A46229   0.577   3.497   7.117
 3592POPC   C4A46230   0.403   3.309   7.511
 3592POPC   C1B46231   0.258   3.658   6.374
 3592POPC   C2B46232   0.195   3.596   6.802
 3592POPC   C3B46233   0.084   3.576   7.219
 3592POPC   C4B46234  44.957   3.739   7.561
 3593POPC   NC346235  20.920  30.711   5.537
 3593POPC   PO446236  21.558  30.789   5.403
 3593POPC   GL146237  21.387  30.831   5.795
 3593POPC   GL246238  21.190  31.091   5.840
 3593POPC   C1A46239  21.328  30.552   6.147
 3593POPC   D2A46240  21.570  30.297   6.420
 3593POPC   C3A46241  21.618  30.410   6.857
 3593POPC   C4A46242  21.525  30.661   7.217
 3593POPC   C1B46243  21.113  31.008   6.257
 3593POPC   C2B46244  21.289  30.772   6.609
 3593POPC   C3B46245  21.100  30.709   6.977
 3593POPC   C4B46246  21.195  31.099   7.167
 3594POPC   NC346247  28.609  19.250   5.438
 3594POPC   PO446248  27.976  18.971   5.425
 3594POPC   GL146249  28.223  19.160   5.754
 3594POPC   GL246250  28.547  19.000   5.862
 3594POPC   C1A46251  28.208  19.229   6.178
 3594POPC   D2A46252  28.097  19.080   6.576
 3594POPC   C3A46253  28.387  19.154   6.897
 3594POPC   C4A46254  28.199  19.257   7.271
 3594POPC   C1B46255  28.719  19.160   6.258
 3594POPC   C2B46256  28.779  18.920   6.629
 3594POPC   C3B46257  28.713  18.671   6.976
 3594POPC   C4B46258  28.564  18.860   7.337
 3595POPC   NC346259  27.975  28.106   5.595
 3595POPC   PO446260  28.677  28.218   5.632
 3595POPC   GL146261  28.325  28.414   5.835
 3595POPC   GL246262  28.166  28.732   5.744
 3595POPC   C1A46263  28.260  28.455   6.249
 3595POPC   D2A46264  28.161  28.256   6.602
 3595POPC   C3A46265  28.521  28.294   6.855
 3595POPC   C4A46266  28.518  28.458   7.238
 3595POPC   C1B46267  27.959  28.829   6.153
 3595POPC   C2B46268  28.150  28.881   6.607
 3595POPC   C3B46269  28.103  28.581   6.988
 3595POPC   C4B46270  28.057  28.425   7.452
 3596POPC   NC346271  42.934   7.421   5.427
 3596POPC   PO446272  43.624   7.256   5.388
 3596POPC   GL146273  43.329   7.358   5.763
 3596POPC   GL246274  43.070   7.133   5.819
 3596POPC   C1A46275  43.020   7.567   6.075
 3596POPC   D2A46276  42.854   7.698   6.467
 3596POPC   C3A46277  42.942   7.398   6.798
 3596POPC   C4A46278  42.907   7.555   7.193
 3596POPC   C1B46279  43.343   7.159   6.228
 3596POPC   C2B46280  43.391   7.152   6.680
 3596POPC   C3B46281  43.341   7.016   7.098
 3596POPC   C4B46282  43.242   7.190   7.480
 3597POPC   NC346283  13.536  28.782   5.606
 3597POPC   PO446284  13.339  29.402   5.331
 3597POPC   GL146285  13.341  29.329   5.744
 3597POPC   GL246286  13.672  29.243   5.776
 3597POPC   C1A46287  13.352  29.101   6.156
 3597POPC   D2A46288  13.600  29.128   6.526
 3597POPC   C3A46289  13.556  28.962   6.933
 3597POPC   C4A46290  13.540  29.197   7.293
 3597POPC   C1B46291  13.954  29.141   6.145
 3597POPC   C2B46292  14.081  29.304   6.571
 3597POPC   C3B46293  14.011  29.230   7.014
 3597POPC   C4B46294  13.972  28.886   7.284
 3598POPC   NC346295   5.524  36.963   5.354
 3598POPC   PO446296   6.040  36.686   5.192
 3598POPC   GL146297   5.844  36.940   5.726
 3598POPC   GL246298   5.542  36.779   5.839
 3598POPC   C1A46299   5.995  36.939   6.200
 3598POPC   D2A46300   6.140  36.584   6.499
 3598POPC   C3A46301   5.908  36.624   6.887
 3598POPC   C4A46302   6.032  36.871   7.236
 3598POPC   C1B46303   5.487  36.965   6.248
 3598POPC   C2B46304   5.464  37.145   6.662
 3598POPC   C3B46305   5.810  37.233   6.940
 3598POPC   C4B46306   6.033  37.391   7.280
 3599POPC   NC346307  19.115  41.276   5.324
 3599POPC   PO446308  19.313  40.652   5.549
 3599POPC   GL146309  19.092  40.850   5.874
 3599POPC   GL246310  18.754  40.713   5.899
 3599POPC   C1A46311  19.047  40.752   6.330
 3599POPC   D2A46312  18.749  40.667   6.684
 3599POPC   C3A46313  18.985  40.504   7.043
 3599POPC   C4A46314  19.442  40.511   7.074
 3599POPC   C1B46315  18.712  41.112   6.155
 3599POPC   C2B46316  18.865  41.176   6.582
 3599POPC   C3B46317  19.180  40.930   6.842
 3599POPC   C4B46318  19.200  40.905   7.301
 3600POPC   NC346319  13.796  14.157   5.425
 3600POPC   PO446320  14.334  14.491   5.369
 3600POPC   GL146321  14.154  14.420   5.778
 3600POPC   GL246322  14.328  14.124   5.914
 3600POPC   C1A46323  14.365  14.570   6.175
 3600POPC   D2A46324  14.715  14.407   6.466
 3600POPC   C3A46325  14.508  14.374   6.864
 3600POPC   C4A46326  14.677  14.482   7.268
 3600POPC   C1B46327  14.324  14.093   6.378
 3600POPC   C2B46328  14.020  14.216   6.688
 3600POPC   C3B46329  13.907  14.092   7.087
 3600POPC   C4B46330  14.275  14.141   7.293
 3601POPC   NC346331  31.279   2.606   5.186
 3601POPC   PO446332  31.470   3.148   5.554
 3601POPC   GL146333  31.488   2.843   5.898
 3601POPC   GL246334  31.325   2.524   5.777
 3601POPC   C1A46335  31.620   2.608   6.258
 3601POPC   D2A46336  31.814   2.564   6.655
 3601POPC   C3A46337  31.677   2.763   7.031
 3601POPC   C4A46338  31.458   2.961   7.369
 3601POPC   C1B46339  31.188   2.346   6.179
 3601POPC   C2B46340  31.200   2.590   6.578
 3601POPC   C3B46341  31.139   2.782   6.975
 3601POPC   C4B46342  31.139   2.558   7.335
 3602POPC   NC346343  24.032  24.942   5.058
 3602POPC   PO446344  23.664  24.468   5.433
 3602POPC   GL146345  23.540  24.275   5.800
 3602POPC   GL246346  23.472  24.587   5.947
 3602POPC   C1A46347  23.771  24.232   6.197
 3602POPC   D2A46348  23.756  24.455   6.609
 3602POPC   C3A46349  23.744  24.240   7.008
 3602POPC   C4A46350  23.695  24.351   7.445
 3602POPC   C1B46351  23.295  24.382   6.318
 3602POPC   C2B46352  23.263  24.548   6.743
 3602POPC   C3B46353  23.494  24.728   7.117
 3602POPC   C4B46354  23.496  24.816   7.587
 3603POPC   NC346355  16.863   0.769   5.401
 3603POPC   PO446356  16.274   0.635   5.472
 3603POPC   GL146357  16.607   0.516   5.797
 3603POPC   GL246358  17.004   0.391   5.742
 3603POPC   C1A46359  16.576   0.296   6.215
 3603POPC   D2A46360  16.512   0.086   6.614
 3603POPC   C3A46361  16.522   0.399   6.913
 3603POPC   C4A46362  16.645   0.357   7.305
 3603POPC   C1B46363  16.963   0.634   6.135
 3603POPC   C2B46364  16.887   0.530   6.574
 3603POPC   C3B46365  17.024   0.590   7.005
 3603POPC   C4B46366  17.056   0.763   7.450
 3604POPC   NC346367  39.908  23.521   5.467
 3604POPC   PO446368  40.363  23.984   5.381
 3604POPC   GL146369  40.121  23.995   5.796
 3604POPC   GL246370  39.759  23.852   5.823
 3604POPC   C1A46371  39.954  24.064   6.233
 3604POPC   D2A46372  40.072  24.116   6.654
 3604POPC   C3A46373  39.822  23.973   7.007
 3604POPC   C4A46374  39.963  23.937   7.425
 3604POPC   C1B46375  40.006  23.556   6.090
 3604POPC   C2B46376  40.063  23.581   6.509
 3604POPC   C3B46377  39.847  23.473   6.852
 3604POPC   C4B46378  39.890  23.461   7.277
 3605POPC   NC346379  35.140  34.205   5.535
 3605POPC   PO446380  35.446  33.524   5.443
 3605POPC   GL146381  35.167  33.708   5.750
 3605POPC   GL246382  35.452  33.876   5.867
 3605POPC   C1A46383  35.085  33.854   6.200
 3605POPC   D2A46384  35.368  33.871   6.556
 3605POPC   C3A46385  35.158  33.806   6.905
 3605POPC   C4A46386  35.246  33.603   7.259
 3605POPC   C1B46387  35.709  34.029   6.224
 3605POPC   C2B46388  35.631  34.350   6.533
 3605POPC   C3B46389  35.626  34.275   6.947
 3605POPC   C4B46390  35.351  34.129   7.242
 3606POPC   NC346391  21.623  21.752   5.484
 3606POPC   PO446392  21.300  21.193   5.227
 3606POPC   GL146393  21.302  21.309   5.693
 3606POPC   GL246394  21.219  21.655   5.785
 3606POPC   C1A46395  21.285  21.246   6.171
 3606POPC   D2A46396  21.553  21.257   6.571
 3606POPC   C3A46397  21.408  21.131   7.009
 3606POPC   C4A46398  21.342  21.209   7.465
 3606POPC   C1B46399  21.507  21.705   6.145
 3606POPC   C2B46400  21.633  21.818   6.553
 3606POPC   C3B46401  21.600  21.621   6.957
 3606POPC   C4B46402  21.461  21.726   7.364
 3607POPC   NC346403  38.404  30.369   5.530
 3607POPC   PO446404  38.312  30.988   5.255
 3607POPC   GL146405  38.259  30.859   5.688
 3607POPC   GL246406  38.579  30.706   5.865
 3607POPC   C1A46407  38.281  31.029   6.109
 3607POPC   D2A46408  38.454  31.115   6.530
 3607POPC   C3A46409  38.500  30.803   6.863
 3607POPC   C4A46410  38.259  30.801   7.235
 3607POPC   C1B46411  38.872  30.369   6.035
 3607POPC   C2B46412  38.945  30.288   6.504
 3607POPC   C3B46413  38.802  30.270   6.968
 3607POPC   C4B46414  38.696  30.548   7.322
 3608POPC   NC346415   6.222   8.150   5.246
 3608POPC   PO446416   5.549   8.268   5.397
 3608POPC   GL146417   5.716   8.355   5.800
 3608POPC   GL246418   5.834   8.032   5.853
 3608POPC   C1A46419   5.984   8.446   6.179
 3608POPC   D2A46420   6.074   8.186   6.549
 3608POPC   C3A46421   6.089   8.328   6.994
 3608POPC   C4A46422   6.178   8.070   7.358
 3608POPC   C1B46423   5.613   8.097   6.270
 3608POPC   C2B46424   5.647   7.911   6.697
 3608POPC   C3B46425   5.705   7.954   7.114
 3608POPC   C4B46426   5.504   8.302   7.267
 3609POPC   NC346427  12.373   4.016   5.473
 3609POPC   PO446428  11.863   4.131   5.127
 3609POPC   GL146429  12.021   4.345   5.650
 3609POPC   GL246430  12.347   4.483   5.753
 3609POPC   C1A46431  12.114   4.181   6.146
 3609POPC   D2A46432  12.325   4.058   6.577
 3609POPC   C3A46433  12.219   4.147   7.034
 3609POPC   C4A46434  12.284   4.088   7.505
 3609POPC   C1B46435  12.247   4.668   6.155
 3609POPC   C2B46436  12.095   4.563   6.560
 3609POPC   C3B46437  12.169   4.660   6.999
 3609POPC   C4B46438  12.008   4.500   7.407
 3610POPC   NC346439  19.395  24.964   5.483
 3610POPC   PO446440  19.330  25.654   5.317
 3610POPC   GL146441  19.240  25.408   5.713
 3610POPC   GL246442  19.030  25.085   5.844
 3610POPC   C1A46443  19.167  25.504   6.140
 3610POPC   D2A46444  19.063  25.184   6.440
 3610POPC   C3A46445  19.164  25.154   6.897
 3610POPC   C4A46446  19.086  25.426   7.242
 3610POPC   C1B46447  18.751  24.832   6.164
 3610POPC   C2B46448  18.871  24.765   6.643
 3610POPC   C3B46449  18.840  24.786   7.121
 3610POPC   C4B46450  18.897  24.946   7.566
 3611POPC   NC346451  10.640   2.333   5.276
 3611POPC   PO446452  10.197   1.810   5.377
 3611POPC   GL146453  10.392   1.889   5.784
 3611POPC   GL246454  10.749   1.998   5.728
 3611POPC   C1A46455  10.577   1.697   6.161
 3611POPC   D2A46456  10.561   1.966   6.522
 3611POPC   C3A46457  10.657   1.828   6.936
 3611POPC   C4A46458  10.330   1.831   7.255
 3611POPC   C1B46459  10.676   2.278   6.103
 3611POPC   C2B46460  10.686   2.499   6.533
 3611POPC   C3B46461  10.636   2.380   6.985
 3611POPC   C4B46462  10.865   2.502   7.367
 3612POPC   NC346463  22.082   6.353   5.457
 3612POPC   PO446464  22.087   7.071   5.633
 3612POPC   GL146465  22.203   6.707   5.846
 3612POPC   GL246466  21.938   6.511   6.033
 3612POPC   C1A46467  22.373   6.643   6.252
 3612POPC   D2A46468  22.278   6.515   6.659
 3612POPC   C3A46469  22.281   6.776   7.008
 3612POPC   C4A46470  22.307   6.676   7.425
 3612POPC   C1B46471  21.825   6.753   6.398
 3612POPC   C2B46472  21.799   6.706   6.849
 3612POPC   C3B46473  21.852   6.869   7.300
 3612POPC   C4B46474  21.868   6.609   7.705
 3613POPC   NC346475  44.672  18.645   4.878
 3613POPC   PO446476  44.697  18.191   5.412
 3613POPC   GL146477  44.870  18.191   5.812
 3613POPC   GL246478  44.918  18.545   5.887
 3613POPC   C1A46479   0.019  18.163   6.234
 3613POPC   D2A46480  44.939  18.387   6.627
 3613POPC   C3A46481  44.812  18.228   7.054
 3613POPC   C4A46482  44.985  18.085   7.477
 3613POPC   C1B46483  44.602  18.427   6.213
 3613POPC   C2B46484  44.487  18.141   6.571
 3613POPC   C3B46485  44.328  18.013   6.964
 3613POPC   C4B46486  44.359  18.208   7.367
 3614POPC   NC346487  41.749  26.999   5.407
 3614POPC   PO446488  41.329  26.590   5.621
 3614POPC   GL146489  41.616  26.802   5.864
 3614POPC   GL246490  41.978  26.649   5.736
 3614POPC   C1A46491  41.523  26.859   6.344
 3614POPC   D2A46492  41.239  26.731   6.720
 3614POPC   C3A46493  41.401  26.841   7.123
 3614POPC   C4A46494  41.664  27.203   7.107
 3614POPC   C1B46495  42.015  26.811   6.153
 3614POPC   C2B46496  41.992  26.654   6.526
 3614POPC   C3B46497  41.921  26.859   6.862
 3614POPC   C4B46498  41.895  26.729   7.256
 3615POPC   NC346499  33.161  18.531   5.477
 3615POPC   PO446500  32.669  17.979   5.580
 3615POPC   GL146501  33.004  18.120   5.774
 3615POPC   GL246502  32.790  18.414   5.788
 3615POPC   C1A46503  33.123  18.142   6.185
 3615POPC   D2A46504  33.382  18.347   6.479
 3615POPC   C3A46505  33.179  18.246   6.881
 3615POPC   C4A46506  33.031  18.005   7.224
 3615POPC   C1B46507  32.828  18.548   6.175
 3615POPC   C2B46508  32.958  18.610   6.554
 3615POPC   C3B46509  32.797  18.617   6.929
 3615POPC   C4B46510  32.957  18.516   7.319
 3616POPC   NC346511  36.245  27.161   5.216
 3616POPC   PO446512  36.148  27.706   5.617
 3616POPC   GL146513  36.027  27.666   6.043
 3616POPC   GL246514  36.061  27.296   6.240
 3616POPC   C1A46515  35.849  27.706   6.400
 3616POPC   D2A46516  36.069  27.615   6.745
 3616POPC   C3A46517  35.933  27.843   7.073
 3616POPC   C4A46518  35.833  27.495   7.352
 3616POPC   C1B46519  36.450  27.568   6.292
 3616POPC   C2B46520  36.639  27.824   6.586
 3616POPC   C3B46521  36.453  27.892   6.971
 3616POPC   C4B46522  36.330  27.617   7.298
 3617POPC   NC346523  12.982  23.319   5.361
 3617POPC   PO446524  12.824  23.935   5.554
 3617POPC   GL146525  12.875  23.997   5.967
 3617POPC   GL246526  12.884  23.612   5.920
 3617POPC   C1A46527  12.971  23.985   6.421
 3617POPC   D2A46528  12.935  23.664   6.749
 3617POPC   C3A46529  12.753  23.904   7.096
 3617POPC   C4A46530  12.772  23.910   7.571
 3617POPC   C1B46531  13.204  23.552   6.223
 3617POPC   C2B46532  13.285  23.292   6.573
 3617POPC   C3B46533  13.287  23.337   6.993
 3617POPC   C4B46534  13.073  23.566   7.299
 3618POPC   NC346535  43.993   8.574   5.258
 3618POPC   PO446536  43.667   9.179   5.378
 3618POPC   GL146537  43.824   9.243   5.835
 3618POPC   GL246538  44.194   9.225   5.880
 3618POPC   C1A46539  43.697   9.221   6.268
 3618POPC   D2A46540  43.452   9.072   6.611
 3618POPC   C3A46541  43.743   9.000   6.934
 3618POPC   C4A46542  43.959   9.297   7.201
 3618POPC   C1B46543  44.176   9.051   6.313
 3618POPC   C2B46544  44.226   9.024   6.797
 3618POPC   C3B46545  44.160   8.825   7.213
 3618POPC   C4B46546  44.123   8.598   7.655
 3619POPC   NC346547  18.688   8.995   5.595
 3619POPC   PO446548  19.256   8.969   5.280
 3619POPC   GL146549  19.177   8.966   5.726
 3619POPC   GL246550  19.012   8.681   5.856
 3619POPC   C1A46551  19.081   9.080   6.184
 3619POPC   D2A46552  18.747   9.004   6.527
 3619POPC   C3A46553  18.903   8.934   6.956
 3619POPC   C4A46554  19.238   9.021   7.214
 3619POPC   C1B46555  18.906   8.605   6.250
 3619POPC   C2B46556  19.136   8.635   6.628
 3619POPC   C3B46557  19.291   8.545   7.036
 3619POPC   C4B46558  19.011   8.611   7.428
 3620POPC   NC346559  33.564  20.881   5.392
 3620POPC   PO446560  34.149  20.544   5.210
 3620POPC   GL146561  34.069  20.692   5.678
 3620POPC   GL246562  33.924  21.010   5.824
 3620POPC   C1A46563  33.782  20.525   6.034
 3620POPC   D2A46564  33.547  20.308   6.369
 3620POPC   C3A46565  33.529  20.486   6.784
 3620POPC   C4A46566  33.715  20.455   7.182
 3620POPC   C1B46567  34.143  20.842   6.207
 3620POPC   C2B46568  33.960  20.776   6.640
 3620POPC   C3B46569  34.104  20.768   7.087
 3620POPC   C4B46570  34.040  20.703   7.514
 3621POPC   NC346571  19.353  43.864   5.382
 3621POPC   PO446572  19.943  44.301   5.401
 3621POPC   GL146573  19.819  44.167   5.863
 3621POPC   GL246574  19.534  43.949   5.866
 3621POPC   C1A46575  19.936  43.915   6.271
 3621POPC   D2A46576  20.163  44.038   6.704
 3621POPC   C3A46577  19.960  43.865   7.105
 3621POPC   C4A46578  19.837  43.717   7.530
 3621POPC   C1B46579  19.422  43.954   6.318
 3621POPC   C2B46580  19.565  43.842   6.749
 3621POPC   C3B46581  19.417  44.014   7.152
 3621POPC   C4B46582  19.369  43.918   7.568
 3622POPC   NC346583   9.015  38.719   5.482
 3622POPC   PO446584   8.980  38.080   5.296
 3622POPC   GL146585   8.766  38.311   5.667
 3622POPC   GL246586   9.101  38.338   5.811
 3622POPC   C1A46587   8.755  38.599   6.093
 3622POPC   D2A46588   8.857  38.452   6.519
 3622POPC   C3A46589   8.797  38.683   6.910
 3622POPC   C4A46590   8.753  38.454   7.269
 3622POPC   C1B46591   9.256  38.495   6.191
 3622POPC   C2B46592   9.318  38.633   6.615
 3622POPC   C3B46593   9.258  38.468   7.042
 3622POPC   C4B46594   9.596  38.315   7.305
 3623POPC   NC346595  22.252  38.041   5.350
 3623POPC   PO446596  22.248  38.728   5.403
 3623POPC   GL146597  22.271  38.510   5.769
 3623POPC   GL246598  22.527  38.221   5.775
 3623POPC   C1A46599  22.093  38.664   6.171
 3623POPC   D2A46600  21.873  38.652   6.552
 3623POPC   C3A46601  21.997  38.691   7.000
 3623POPC   C4A46602  21.903  38.771   7.467
 3623POPC   C1B46603  22.208  38.163   6.122
 3623POPC   C2B46604  22.066  38.136   6.541
 3623POPC   C3B46605  22.209  38.191   6.941
 3623POPC   C4B46606  21.962  38.094   7.274
 3624POPC   NC346607  20.896   2.480   5.056
 3624POPC   PO446608  20.522   2.876   5.462
 3624POPC   GL146609  20.482   2.861   5.872
 3624POPC   GL246610  20.275   2.587   5.839
 3624POPC   C1A46611  20.510   3.124   6.246
 3624POPC   D2A46612  20.394   3.235   6.661
 3624POPC   C3A46613  20.744   3.135   6.900
 3624POPC   C4A46614  20.798   2.832   7.197
 3624POPC   C1B46615  20.242   2.709   6.301
 3624POPC   C2B46616  20.305   2.714   6.756
 3624POPC   C3B46617  20.297   2.650   7.216
 3624POPC   C4B46618  20.180   2.549   7.630
 3625POPC   NC346619  25.746  14.615   5.370
 3625POPC   PO446620  26.086  14.000   5.313
 3625POPC   GL146621  25.944  14.235   5.715
 3625POPC   GL246622  26.026  14.575   5.794
 3625POPC   C1A46623  25.955  14.240   6.195
 3625POPC   D2A46624  25.996  14.076   6.610
 3625POPC   C3A46625  25.899  14.293   6.969
 3625POPC   C4A46626  26.213  14.465   7.165
 3625POPC   C1B46627  25.655  14.635   6.098
 3625POPC   C2B46628  25.667  14.566   6.567
 3625POPC   C3B46629  25.761  14.813   6.929
 3625POPC   C4B46630  25.853  14.757   7.344
 3626POPC   NC346631  28.446  37.377   5.442
 3626POPC   PO446632  28.282  36.699   5.503
 3626POPC   GL146633  28.352  36.857   5.891
 3626POPC   GL246634  28.196  37.179   5.869
 3626POPC   C1A46635  28.376  36.793   6.322
 3626POPC   D2A46636  28.274  37.066   6.645
 3626POPC   C3A46637  28.312  36.862   6.996
 3626POPC   C4A46638  28.177  36.903   7.409
 3626POPC   C1B46639  28.475  37.271   6.210
 3626POPC   C2B46640  28.717  37.307   6.647
 3626POPC   C3B46641  28.582  37.282   7.087
 3626POPC   C4B46642  28.710  36.954   7.325
 3627POPC   NC346643  44.760  15.608   5.389
 3627POPC   PO446644  44.821  14.987   5.481
 3627POPC   GL146645  44.699  15.211   5.856
 3627POPC   GL246646  44.333  15.181   5.833
 3627POPC   C1A46647  44.776  15.009   6.283
 3627POPC   D2A46648  44.832  14.727   6.641
 3627POPC   C3A46649  44.710  14.992   6.965
 3627POPC   C4A46650  44.582  15.223   7.312
 3627POPC   C1B46651  44.260  15.003   6.234
 3627POPC   C2B46652  44.310  15.147   6.650
 3627POPC   C3B46653  44.185  14.980   7.062
 3627POPC   C4B46654  44.301  14.881   7.500
 3628POPC   NC346655  22.227   3.599   5.309
 3628POPC   PO446656  21.688   3.630   5.498
 3628POPC   GL146657  21.911   3.414   5.807
 3628POPC   GL246658  21.878   3.657   6.090
 3628POPC   C1A46659  21.994   3.171   6.192
 3628POPC   D2A46660  22.032   3.380   6.595
 3628POPC   C3A46661  22.065   3.079   6.895
 3628POPC   C4A46662  21.796   3.038   7.203
 3628POPC   C1B46663  22.322   3.647   6.259
 3628POPC   C2B46664  22.444   3.821   6.674
 3628POPC   C3B46665  22.342   3.542   6.999
 3628POPC   C4B46666  21.962   3.524   7.227
 3629POPC   NC346667  18.711  26.745   5.426
 3629POPC   PO446668  18.100  26.922   5.435
 3629POPC   GL146669  18.228  26.719   5.821
 3629POPC   GL246670  18.442  26.420   5.756
 3629POPC   C1A46671  18.121  26.823   6.258
 3629POPC   D2A46672  18.150  26.880   6.711
 3629POPC   C3A46673  18.568  27.015   6.816
 3629POPC   C4A46674  18.609  27.069   7.233
 3629POPC   C1B46675  18.505  26.298   6.199
 3629POPC   C2B46676  18.579  26.546   6.583
 3629POPC   C3B46677  18.439  26.564   7.012
 3629POPC   C4B46678  18.813  26.600   7.241
 3630POPC   NC346679  40.475  27.966   5.475
 3630POPC   PO446680  40.928  27.467   5.354
 3630POPC   GL146681  40.834  27.691   5.757
 3630POPC   GL246682  41.024  28.006   5.774
 3630POPC   C1A46683  40.663  27.876   6.146
 3630POPC   D2A46684  40.395  27.958   6.497
 3630POPC   C3A46685  40.579  27.847   6.879
 3630POPC   C4A46686  40.584  27.525   7.212
 3630POPC   C1B46687  41.164  27.764   6.167
 3630POPC   C2B46688  40.978  27.666   6.580
 3630POPC   C3B46689  41.045  27.746   7.048
 3630POPC   C4B46690  41.395  27.647   7.290
 3631POPC   NC346691  17.261  15.082   4.916
 3631POPC   PO446692  17.401  15.552   5.436
 3631POPC   GL146693  17.497  15.271   5.715
 3631POPC   GL246694  17.816  15.155   5.769
 3631POPC   C1A46695  17.412  15.131   6.087
 3631POPC   D2A46696  17.325  15.088   6.484
 3631POPC   C3A46697  17.610  15.030   6.835
 3631POPC   C4A46698  17.390  15.179   7.160
 3631POPC   C1B46699  17.813  15.436   6.165
 3631POPC   C2B46700  17.682  15.491   6.618
 3631POPC   C3B46701  17.814  15.478   7.081
 3631POPC   C4B46702  18.006  15.539   7.517
 3632POPC   NC346703  40.749  27.008   5.400
 3632POPC   PO446704  40.859  26.399   5.278
 3632POPC   GL146705  40.806  26.594   5.735
 3632POPC   GL246706  40.659  26.943   5.896
 3632POPC   C1A46707  40.641  26.507   6.157
 3632POPC   D2A46708  40.586  26.838   6.474
 3632POPC   C3A46709  40.502  26.689   6.901
 3632POPC   C4A46710  40.908  26.642   7.122
 3632POPC   C1B46711  40.654  27.332   6.183
 3632POPC   C2B46712  40.584  27.348   6.633
 3632POPC   C3B46713  40.761  27.114   6.970
 3632POPC   C4B46714  40.662  26.973   7.409
 3633POPC   NC346715  28.837  41.161   5.171
 3633POPC   PO446716  29.125  40.548   5.432
 3633POPC   GL146717  29.209  40.694   5.813
 3633POPC   GL246718  29.438  40.425   5.857
 3633POPC   C1A46719  28.922  40.845   6.113
 3633POPC   D2A46720  28.795  40.649   6.469
 3633POPC   C3A46721  28.893  40.802   6.896
 3633POPC   C4A46722  28.698  40.559   7.183
 3633POPC   C1B46723  29.270  40.508   6.283
 3633POPC   C2B46724  29.181  40.410   6.705
 3633POPC   C3B46725  29.240  40.480   7.131
 3633POPC   C4B46726  29.451  40.876   7.149
 3634POPC   NC346727  18.897  25.821   5.166
 3634POPC   PO446728  19.078  26.473   5.329
 3634POPC   GL146729  19.081  26.227   5.770
 3634POPC   GL246730  19.034  25.881   5.714
 3634POPC   C1A46731  19.296  26.035   6.171
 3634POPC   D2A46732  19.351  25.929   6.636
 3634POPC   C3A46733  19.016  26.027   6.972
 3634POPC   C4A46734  18.945  25.888   7.434
 3634POPC   C1B46735  18.821  25.882   6.137
 3634POPC   C2B46736  18.655  25.683   6.541
 3634POPC   C3B46737  18.641  25.676   7.015
 3634POPC   C4B46738  18.430  25.673   7.406
 3635POPC   NC346739  26.250  41.059   5.627
 3635POPC   PO446740  25.913  41.693   5.529
 3635POPC   GL146741  25.986  41.633   5.892
 3635POPC   GL246742  26.204  41.418   5.975
 3635POPC   C1A46743  26.034  41.845   6.280
 3635POPC   D2A46744  26.280  41.941   6.641
 3635POPC   C3A46745  26.139  41.818   7.021
 3635POPC   C4A46746  25.759  41.640   7.110
 3635POPC   C1B46747  25.891  41.345   6.294
 3635POPC   C2B46748  26.009  41.446   6.688
 3635POPC   C3B46749  26.284  41.324   6.983
 3635POPC   C4B46750  26.549  41.073   7.201
 3636POPC   NC346751  24.356   8.956   5.248
 3636POPC   PO446752  24.729   9.308   5.694
 3636POPC   GL146753  24.553   8.933   5.798
 3636POPC   GL246754  24.216   9.080   5.843
 3636POPC   C1A46755  24.546   8.775   6.224
 3636POPC   D2A46756  24.698   8.979   6.614
 3636POPC   C3A46757  24.632   8.755   7.012
 3636POPC   C4A46758  24.619   8.475   7.357
 3636POPC   C1B46759  24.383   9.282   6.243
 3636POPC   C2B46760  24.427   9.469   6.657
 3636POPC   C3B46761  24.475   9.230   7.038
 3636POPC   C4B46762  24.864   9.193   7.266
 3637POPC   NC346763  22.041  43.995   5.414
 3637POPC   PO446764  22.711  43.780   5.457
 3637POPC   GL146765  22.408  43.924   5.783
 3637POPC   GL246766  22.092  43.713   5.828
 3637POPC   C1A46767  22.313  43.942   6.230
 3637POPC   D2A46768  22.134  43.720   6.588
 3637POPC   C3A46769  22.372  43.731   6.955
 3637POPC   C4A46770  22.350  44.036   7.263
 3637POPC   C1B46771  21.813  43.809   6.180
 3637POPC   C2B46772  21.698  44.008   6.586
 3637POPC   C3B46773  21.891  43.934   6.997
 3637POPC   C4B46774  21.872  43.688   7.386
 3638POPC   NC346775  20.221   6.102   5.452
 3638POPC   PO446776  19.725   6.681   5.390
 3638POPC   GL146777  19.746   6.620   5.839
 3638POPC   GL246778  20.081   6.720   6.020
 3638POPC   C1A46779  19.599   6.349   6.183
 3638POPC   D2A46780  19.684   6.475   6.608
 3638POPC   C3A46781  19.419   6.733   6.852
 3638POPC   C4A46782  19.370   6.558   7.247
 3638POPC   C1B46783  19.785   6.922   6.298
 3638POPC   C2B46784  19.858   6.962   6.722
 3638POPC   C3B46785  19.999   6.673   6.977
 3638POPC   C4B46786  20.006   6.800   7.324
 3639POPC   NC346787  15.063   3.487   5.150
 3639POPC   PO446788  15.462   3.859   5.605
 3639POPC   GL146789  15.207   3.548   5.816
 3639POPC   GL246790  14.893   3.711   5.797
 3639POPC   C1A46791  15.023   3.427   6.231
 3639POPC   D2A46792  14.784   3.481   6.603
 3639POPC   C3A46793  15.011   3.366   6.956
 3639POPC   C4A46794  14.954   3.403   7.390
 3639POPC   C1B46795  15.139   3.936   6.147
 3639POPC   C2B46796  15.170   3.839   6.566
 3639POPC   C3B46797  15.140   4.061   6.940
 3639POPC   C4B46798  15.172   3.873   7.321
 3640POPC   NC346799  18.954  24.076   5.616
 3640POPC   PO446800  19.037  24.691   5.361
 3640POPC   GL146801  19.136  24.572   5.801
 3640POPC   GL246802  19.303  24.249   5.945
 3640POPC   C1A46803  19.214  24.697   6.231
 3640POPC   D2A46804  19.320  24.435   6.564
 3640POPC   C3A46805  19.289  24.641   6.929
 3640POPC   C4A46806  19.312  24.725   7.347
 3640POPC   C1B46807  18.915  24.290   6.206
 3640POPC   C2B46808  18.592  24.395   6.462
 3640POPC   C3B46809  18.679  24.345   6.882
 3640POPC   C4B46810  19.017  24.305   7.176
 3641POPC   NC346811  13.432  24.907   5.329
 3641POPC   PO446812  14.103  24.696   5.595
 3641POPC   GL146813  13.668  24.716   5.745
 3641POPC   GL246814  13.522  24.405   5.810
 3641POPC   C1A46815  13.544  24.867   6.142
 3641POPC   D2A46816  13.866  24.826   6.418
 3641POPC   C3A46817  13.743  24.819   6.830
 3641POPC   C4A46818  13.849  24.720   7.229
 3641POPC   C1B46819  13.776  24.383   6.164
 3641POPC   C2B46820  13.849  24.164   6.540
 3641POPC   C3B46821  13.756  24.262   6.978
 3641POPC   C4B46822  13.640  24.082   7.375
 3642POPC   NC346823  30.410  37.976   5.154
 3642POPC   PO446824  30.562  37.480   5.512
 3642POPC   GL146825  30.660  37.683   5.882
 3642POPC   GL246826  30.833  37.964   5.721
 3642POPC   C1A46827  30.680  37.554   6.336
 3642POPC   D2A46828  30.803  37.267   6.695
 3642POPC   C3A46829  30.586  37.320   7.113
 3642POPC   C4A46830  30.467  37.606   7.443
 3642POPC   C1B46831  30.890  38.047   6.160
 3642POPC   C2B46832  30.796  38.163   6.582
 3642POPC   C3B46833  30.667  37.867   6.911
 3642POPC   C4B46834  30.908  37.721   7.232
 3643POPC   NC346835   7.426  13.217   5.368
 3643POPC   PO446836   7.186  12.650   5.430
 3643POPC   GL146837   7.541  12.834   5.724
 3643POPC   GL246838   7.350  13.106   5.872
 3643POPC   C1A46839   7.731  12.966   6.180
 3643POPC   D2A46840   7.583  12.993   6.610
 3643POPC   C3A46841   7.651  12.712   6.959
 3643POPC   C4A46842   7.537  12.854   7.412
 3643POPC   C1B46843   7.280  12.740   6.196
 3643POPC   C2B46844   7.277  12.554   6.638
 3643POPC   C3B46845   7.173  12.651   7.093
 3643POPC   C4B46846   6.981  12.753   7.512
 3644POPC   NC346847  28.565  34.028   5.357
 3644POPC   PO446848  28.401  33.421   5.541
 3644POPC   GL146849  28.490  33.712   5.802
 3644POPC   GL246850  28.241  33.956   5.774
 3644POPC   C1A46851  28.368  33.667   6.231
 3644POPC   D2A46852  28.534  33.514   6.601
 3644POPC   C3A46853  28.306  33.582   6.961
 3644POPC   C4A46854  28.150  33.367   7.304
 3644POPC   C1B46855  28.562  34.122   6.112
 3644POPC   C2B46856  28.735  34.018   6.562
 3644POPC   C3B46857  28.590  34.025   7.021
 3644POPC   C4B46858  28.176  34.002   7.212
 3645POPC   NC346859  34.449  40.250   5.488
 3645POPC   PO446860  34.670  40.835   5.200
 3645POPC   GL146861  34.617  40.764   5.651
 3645POPC   GL246862  34.908  40.829   5.863
 3645POPC   C1A46863  34.432  40.916   6.040
 3645POPC   D2A46864  34.324  40.712   6.415
 3645POPC   C3A46865  34.567  40.765   6.764
 3645POPC   C4A46866  34.409  40.955   7.143
 3645POPC   C1B46867  34.674  40.479   6.097
 3645POPC   C2B46868  34.756  40.346   6.506
 3645POPC   C3B46869  34.897  40.394   6.913
 3645POPC   C4B46870  34.578  40.496   7.241
 3646POPC   NC346871  14.769  35.390   5.521
 3646POPC   PO446872  15.446  35.577   5.482
 3646POPC   GL146873  15.384  35.366   5.861
 3646POPC   GL246874  15.115  35.165   5.835
 3646POPC   C1A46875  15.216  35.372   6.289
 3646POPC   D2A46876  14.902  35.473   6.538
 3646POPC   C3A46877  15.052  35.559   6.940
 3646POPC   C4A46878  15.082  35.712   7.345
 3646POPC   C1B46879  15.128  34.892   6.171
 3646POPC   C2B46880  15.309  34.905   6.551
 3646POPC   C3B46881  15.226  35.066   6.952
 3646POPC   C4B46882  14.987  35.199   7.308
 3647POPC   NC346883  22.763  18.561   5.317
 3647POPC   PO446884  23.035  17.939   5.398
 3647POPC   GL146885  22.863  18.241   5.714
 3647POPC   GL246886  23.165  18.358   5.866
 3647POPC   C1A46887  22.715  18.404   6.137
 3647POPC   D2A46888  22.654  18.322   6.614
 3647POPC   C3A46889  23.019  18.376   6.945
 3647POPC   C4A46890  23.336  18.647   7.229
 3647POPC   C1B46891  23.143  18.152   6.288
 3647POPC   C2B46892  23.206  17.800   6.567
 3647POPC   C3B46893  23.115  17.856   6.987
 3647POPC   C4B46894  23.134  17.787   7.409
 3648POPC   NC346895  22.287  40.593   5.416
 3648POPC   PO446896  22.007  41.183   5.382
 3648POPC   GL146897  22.141  41.054   5.774
 3648POPC   GL246898  22.072  40.673   5.864
 3648POPC   C1A46899  22.024  41.054   6.195
 3648POPC   D2A46900  22.186  40.931   6.587
 3648POPC   C3A46901  21.980  41.169   6.883
 3648POPC   C4A46902  22.086  40.969   7.226
 3648POPC   C1B46903  21.997  40.542   6.305
 3648POPC   C2B46904  22.148  40.406   6.714
 3648POPC   C3B46905  22.159  40.462   7.162
 3648POPC   C4B46906  21.911  40.579   7.497
 3649POPC   NC346907  43.027  41.792   5.497
 3649POPC   PO446908  43.523  41.318   5.371
 3649POPC   GL146909  43.346  41.446   5.772
 3649POPC   GL246910  42.979  41.367   5.811
 3649POPC   C1A46911  43.240  41.373   6.226
 3649POPC   D2A46912  43.338  41.113   6.601
 3649POPC   C3A46913  43.344  41.258   7.031
 3649POPC   C4A46914  43.201  41.634   7.252
 3649POPC   C1B46915  42.839  41.722   6.118
 3649POPC   C2B46916  42.761  41.896   6.529
 3649POPC   C3B46917  42.880  41.899   6.952
 3649POPC   C4B46918  42.718  41.749   7.345
 3650POPC   NC346919  20.658  40.173   5.430
 3650POPC   PO446920  20.369  39.562   5.379
 3650POPC   GL146921  20.345  39.782   5.799
 3650POPC   GL246922  20.503  40.090   5.896
 3650POPC   C1A46923  20.524  39.744   6.259
 3650POPC   D2A46924  20.919  39.817   6.524
 3650POPC   C3A46925  20.818  40.014   6.943
 3650POPC   C4A46926  20.701  40.314   7.287
 3650POPC   C1B46927  20.236  40.231   6.232
 3650POPC   C2B46928  20.141  40.289   6.670
 3650POPC   C3B46929  20.319  40.089   7.038
 3650POPC   C4B46930  20.418  39.881   7.433
 3651POPC   NC346931  25.962  38.623   5.170
 3651POPC   PO446932  25.930  38.091   5.581
 3651POPC   GL146933  26.076  38.413   5.792
 3651POPC   GL246934  25.953  38.703   5.680
 3651POPC   C1A46935  26.287  38.344   6.163
 3651POPC   D2A46936  26.198  38.136   6.538
 3651POPC   C3A46937  26.253  38.377   6.914
 3651POPC   C4A46938  26.366  38.413   7.349
 3651POPC   C1B46939  26.112  38.836   6.098
 3651POPC   C2B46940  26.094  38.688   6.517
 3651POPC   C3B46941  25.917  38.751   6.915
 3651POPC   C4B46942  25.865  38.480   7.237
 3652POPC   NC346943  30.014  13.225   5.338
 3652POPC   PO446944  29.477  12.897   5.555
 3652POPC   GL146945  29.752  13.100   5.804
 3652POPC   GL246946  30.050  12.905   5.776
 3652POPC   C1A46947  29.745  12.957   6.219
 3652POPC   D2A46948  29.985  12.680   6.449
 3652POPC   C3A46949  29.796  12.865   6.789
 3652POPC   C4A46950  29.840  12.811   7.213
 3652POPC   C1B46951  30.233  13.073   6.154
 3652POPC   C2B46952  30.205  13.139   6.566
 3652POPC   C3B46953  30.273  12.896   6.912
 3652POPC   C4B46954  30.304  12.948   7.355
 3653POPC   NC346955  44.959  44.468   5.356
 3653POPC   PO446956  44.590   0.042   5.435
 3653POPC   GL146957  44.578  44.749   5.764
 3653POPC   GL246958  44.820  44.497   5.873
 3653POPC   C1A46959  44.728  44.898   6.162
 3653POPC   D2A46960  44.675   0.034   6.549
 3653POPC   C3A46961  44.778  44.739   6.843
 3653POPC   C4A46962  44.623  44.731   7.223
 3653POPC   C1B46963  44.820  44.427   6.327
 3653POPC   C2B46964  44.946  44.242   6.722
 3653POPC   C3B46965  44.930  44.291   7.177
 3653POPC   C4B46966  44.898  44.538   7.607
 3654POPC   NC346967   3.917  34.224   5.493
 3654POPC   PO446968   3.430  34.588   5.157
 3654POPC   GL146969   3.605  34.623   5.608
 3654POPC   GL246970   3.496  34.294   5.766
 3654POPC   C1A46971   3.808  34.577   6.058
 3654POPC   D2A46972   3.553  34.614   6.457
 3654POPC   C3A46973   3.731  34.634   6.893
 3654POPC   C4A46974   3.499  34.729   7.268
 3654POPC   C1B46975   3.641  34.113   6.192
 3654POPC   C2B46976   3.659  34.148   6.648
 3654POPC   C3B46977   3.674  34.145   7.092
 3654POPC   C4B46978   3.679  34.302   7.511
 3655POPC   NC346979  19.546   8.623   5.174
 3655POPC   PO446980  20.019   9.069   5.416
 3655POPC   GL146981  19.880   8.704   5.717
 3655POPC   GL246982  19.643   8.906   5.890
 3655POPC   C1A46983  19.965   8.655   6.194
 3655POPC   D2A46984  19.767   9.021   6.440
 3655POPC   C3A46985  19.675   9.093   6.885
 3655POPC   C4A46986  19.966   9.171   7.200
 3655POPC   C1B46987  19.450   8.652   6.225
 3655POPC   C2B46988  19.665   8.539   6.631
 3655POPC   C3B46989  19.874   8.642   7.014
 3655POPC   C4B46990  19.663   8.779   7.375
 3656POPC   NC346991  40.029  42.508   5.605
 3656POPC   PO446992  39.987  42.010   5.155
 3656POPC   GL146993  39.946  41.998   5.673
 3656POPC   GL246994  40.258  41.985   5.870
 3656POPC   C1A46995  39.907  42.213   6.164
 3656POPC   D2A46996  40.046  42.207   6.637
 3656POPC   C3A46997  39.888  42.440   7.037
 3656POPC   C4A46998  39.662  42.131   7.338
 3656POPC   C1B46999  40.417  42.222   6.243
 3656POPC   C2B47000  40.585  42.120   6.633
 3656POPC   C3B47001  40.343  41.853   6.901
 3656POPC   C4B47002  40.154  42.054   7.228
 3657POPC   NC347003  32.204  14.901   5.347
 3657POPC   PO447004  32.070  15.526   5.467
 3657POPC   GL147005  32.115  15.212   5.786
 3657POPC   GL247006  32.283  15.457   5.972
 3657POPC   C1A47007  32.216  14.948   6.175
 3657POPC   D2A47008  32.104  14.892   6.629
 3657POPC   C3A47009  32.240  15.078   7.034
 3657POPC   C4A47010  32.216  14.807   7.392
 3657POPC   C1B47011  31.955  15.359   6.269
 3657POPC   C2B47012  32.024  15.407   6.700
 3657POPC   C3B47013  31.864  15.402   7.137
 3657POPC   C4B47014  31.898  15.194   7.558
 3658POPC   NC347015  16.993  37.100   4.926
 3658POPC   PO447016  16.712  36.787   5.355
 3658POPC   GL147017  16.913  36.909   5.719
 3658POPC   GL247018  16.680  37.199   5.824
 3658POPC   C1A47019  16.876  36.868   6.170
 3658POPC   D2A47020  16.684  36.870   6.585
 3658POPC   C3A47021  16.815  36.836   7.014
 3658POPC   C4A47022  16.564  36.837   7.410
 3658POPC   C1B47023  16.654  37.324   6.309
 3658POPC   C2B47024  16.523  37.355   6.769
 3658POPC   C3B47025  16.660  37.297   7.215
 3658POPC   C4B47026  16.495  37.278   7.670
 3659POPC   NC347027  20.982  39.143   5.090
 3659POPC   PO447028  20.495  38.942   5.529
 3659POPC   GL147029  20.439  39.006   5.921
 3659POPC   GL247030  20.546  39.339   5.935
 3659POPC   C1A47031  20.527  39.056   6.344
 3659POPC   D2A47032  20.799  38.875   6.579
 3659POPC   C3A47033  20.715  39.088   6.918
 3659POPC   C4A47034  20.414  39.094   7.250
 3659POPC   C1B47035  20.917  39.356   6.225
 3659POPC   C2B47036  21.160  39.269   6.612
 3659POPC   C3B47037  21.127  39.370   7.047
 3659POPC   C4B47038  20.690  39.551   7.135
 3660POPC   NC347039  26.227  27.516   5.464
 3660POPC   PO447040  25.629  27.463   5.376
 3660POPC   GL147041  25.819  27.608   5.753
 3660POPC   GL247042  25.681  27.939   5.836
 3660POPC   C1A47043  26.053  27.408   6.129
 3660POPC   D2A47044  25.979  27.235   6.549
 3660POPC   C3A47045  26.124  27.426   6.943
 3660POPC   C4A47046  26.116  27.321   7.425
 3660POPC   C1B47047  25.906  27.890   6.197
 3660POPC   C2B47048  25.861  27.762   6.593
 3660POPC   C3B47049  25.860  27.929   6.985
 3660POPC   C4B47050  26.115  27.816   7.291
 3661POPC   NC347051   4.739  42.196   5.522
 3661POPC   PO447052   4.092  42.320   5.260
 3661POPC   GL147053   4.257  42.415   5.696
 3661POPC   GL247054   4.542  42.651   5.723
 3661POPC   C1A47055   4.226  42.256   6.141
 3661POPC   D2A47056   3.967  42.210   6.532
 3661POPC   C3A47057   4.190  42.229   6.924
 3661POPC   C4A47058   4.305  42.302   7.351
 3661POPC   C1B47059   4.549  42.700   6.173
 3661POPC   C2B47060   4.378  42.745   6.595
 3661POPC   C3B47061   4.445  42.666   7.002
 3661POPC   C4B47062   4.795  42.520   7.165
 3662POPC   NC347063  27.102   4.031   5.475
 3662POPC   PO447064  26.613   4.400   5.529
 3662POPC   GL147065  26.771   4.429   5.923
 3662POPC   GL247066  27.093   4.286   5.921
 3662POPC   C1A47067  26.644   4.405   6.364
 3662POPC   D2A47068  26.671   4.193   6.756
 3662POPC   C3A47069  26.823   4.486   7.078
 3662POPC   C4A47070  26.556   4.820   7.232
 3662POPC   C1B47071  27.150   4.266   6.363
 3662POPC   C2B47072  27.135   3.967   6.701
 3662POPC   C3B47073  26.982   3.989   7.123
 3662POPC   C4B47074  27.251   4.215   7.399
 3663POPC   NC347075  34.577  39.435   5.443
 3663POPC   PO447076  35.052  38.943   5.362
 3663POPC   GL147077  34.811  39.005   5.783
 3663POPC   GL247078  34.477  39.191   5.884
 3663POPC   C1A47079  34.908  39.118   6.230
 3663POPC   D2A47080  34.914  39.205   6.664
 3663POPC   C3A47081  34.502  39.137   6.833
 3663POPC   C4A47082  34.432  38.857   7.180
 3663POPC   C1B47083  34.240  39.448   6.202
 3663POPC   C2B47084  34.079  39.394   6.620
 3663POPC   C3B47085  34.092  39.564   7.038
 3663POPC   C4B47086  34.357  39.344   7.290
 3664POPC   NC347087  34.520  30.937   5.348
 3664POPC   PO447088  34.127  30.463   5.228
 3664POPC   GL147089  34.217  30.804   5.713
 3664POPC   GL247090  34.591  30.722   5.804
 3664POPC   C1A47091  34.321  30.716   6.232
 3664POPC   D2A47092  34.506  30.401   6.565
 3664POPC   C3A47093  34.376  30.591   6.962
 3664POPC   C4A47094  34.382  30.946   7.218
 3664POPC   C1B47095  34.831  30.656   6.196
 3664POPC   C2B47096  34.764  30.830   6.592
 3664POPC   C3B47097  34.869  30.750   6.982
 3664POPC   C4B47098  34.928  30.978   7.320
 3665POPC   NC347099  40.626  44.436   5.396
 3665POPC   PO447100  40.990  44.975   5.357
 3665POPC   GL147101  40.978  44.665   5.723
 3665POPC   GL247102  41.069  44.296   5.631
 3665POPC   C1A47103  40.655  44.558   6.078
 3665POPC   D2A47104  40.556  44.446   6.513
 3665POPC   C3A47105  40.740  44.694   6.834
 3665POPC   C4A47106  40.522  44.642   7.185
 3665POPC   C1B47107  41.106  44.307   6.074
 3665POPC   C2B47108  41.083  44.489   6.465
 3665POPC   C3B47109  41.159  44.378   6.883
 3665POPC   C4B47110  41.008  44.456   7.256
 3666POPC   NC347111  10.587  12.006   5.512
 3666POPC   PO447112  10.797  12.575   5.630
 3666POPC   GL147113  10.460  12.356   5.867
 3666POPC   GL247114  10.165  12.156   5.753
 3666POPC   C1A47115  10.268  12.400   6.235
 3666POPC   D2A47116  10.510  12.450   6.573
 3666POPC   C3A47117  10.389  12.243   6.929
 3666POPC   C4A47118  10.389  12.434   7.326
 3666POPC   C1B47119  10.292  11.904   6.100
 3666POPC   C2B47120  10.329  11.915   6.523
 3666POPC   C3B47121  10.430  11.702   6.913
 3666POPC   C4B47122  10.455  11.894   7.298
 3667POPC   NC347123  22.702  29.233   5.427
 3667POPC   PO447124  23.302  28.938   5.395
 3667POPC   GL147125  23.199  29.206   5.784
 3667POPC   GL247126  22.882  29.423   5.867
 3667POPC   C1A47127  23.088  29.159   6.239
 3667POPC   D2A47128  22.960  29.325   6.665
 3667POPC   C3A47129  23.161  29.014   6.942
 3667POPC   C4A47130  23.114  28.757   7.307
 3667POPC   C1B47131  22.629  29.438   6.264
 3667POPC   C2B47132  22.483  29.147   6.629
 3667POPC   C3B47133  22.598  28.972   7.045
 3667POPC   C4B47134  22.649  28.939   7.491
 3668POPC   NC347135  42.013  32.475   5.380
 3668POPC   PO447136  42.551  32.022   5.416
 3668POPC   GL147137  42.214  32.112   5.695
 3668POPC   GL247138  42.398  32.359   5.776
 3668POPC   C1A47139  42.026  32.256   6.080
 3668POPC   D2A47140  42.112  32.350   6.501
 3668POPC   C3A47141  42.235  32.099   6.850
 3668POPC   C4A47142  42.187  32.300   7.240
 3668POPC   C1B47143  42.543  32.253   6.194
 3668POPC   C2B47144  42.615  32.499   6.577
 3668POPC   C3B47145  42.505  32.639   7.007
 3668POPC   C4B47146  42.640  32.469   7.427
 3669POPC   NC347147   4.829  35.195   5.616
 3669POPC   PO447148   5.272  35.702   5.509
 3669POPC   GL147149   5.119  35.557   5.867
 3669POPC   GL247150   5.243  35.222   5.899
 3669POPC   C1A47151   5.180  35.529   6.294
 3669POPC   D2A47152   5.245  35.286   6.651
 3669POPC   C3A47153   5.155  35.562   6.987
 3669POPC   C4A47154   5.260  35.412   7.368
 3669POPC   C1B47155   5.012  35.014   6.263
 3669POPC   C2B47156   4.905  34.903   6.704
 3669POPC   C3B47157   4.855  35.157   7.104
 3669POPC   C4B47158   4.901  35.143   7.587
 3670POPC   NC347159  29.489   3.458   5.429
 3670POPC   PO447160  28.830   3.274   5.376
 3670POPC   GL147161  29.086   3.443   5.750
 3670POPC   GL247162  29.339   3.190   5.847
 3670POPC   C1A47163  29.235   3.649   6.146
 3670POPC   D2A47164  29.493   3.806   6.501
 3670POPC   C3A47165  29.273   3.763   6.907
 3670POPC   C4A47166  29.104   3.525   7.267
 3670POPC   C1B47167  29.499   3.223   6.262
 3670POPC   C2B47168  29.469   3.321   6.682
 3670POPC   C3B47169  29.457   3.145   7.073
 3670POPC   C4B47170  29.336   3.142   7.514
 3671POPC   NC347171  11.035  42.328   5.377
 3671POPC   PO447172  11.617  42.318   5.237
 3671POPC   GL147173  11.464  42.311   5.694
 3671POPC   GL247174  11.736  42.207   5.908
 3671POPC   C1A47175  11.348  42.473   6.145
 3671POPC   D2A47176  11.385  42.323   6.581
 3671POPC   C3A47177  11.218  42.458   6.990
 3671POPC   C4A47178  11.333  42.211   7.340
 3671POPC   C1B47179  11.857  42.541   6.201
 3671POPC   C2B47180  11.769  42.669   6.607
 3671POPC   C3B47181  11.731  42.443   6.986
 3671POPC   C4B47182  11.547  42.659   7.333
 3672POPC   NC347183  26.258  41.062   5.143
 3672POPC   PO447184  26.406  40.458   5.522
 3672POPC   GL147185  26.030  40.640   5.819
 3672POPC   GL247186  25.870  40.995   5.917
 3672POPC   C1A47187  25.681  40.585   6.130
 3672POPC   D2A47188  25.665  40.319   6.478
 3672POPC   C3A47189  25.972  40.400   6.802
 3672POPC   C4A47190  25.948  40.667   7.160
 3672POPC   C1B47191  26.080  40.869   6.301
 3672POPC   C2B47192  25.977  40.932   6.720
 3672POPC   C3B47193  25.822  41.139   7.082
 3672POPC   C4B47194  25.816  41.088   7.541
 3673POPC   NC347195   0.898  12.581   5.501
 3673POPC   PO447196   0.289  12.689   5.806
 3673POPC   GL147197   0.669  12.843   5.916
 3673POPC   GL247198   0.831  12.539   6.010
 3673POPC   C1A47199   0.653  13.138   6.255
 3673POPC   D2A47200   0.464  13.354   6.604
 3673POPC   C3A47201   0.312  13.150   6.951
 3673POPC   C4A47202   0.539  12.838   7.151
 3673POPC   C1B47203   0.664  12.628   6.407
 3673POPC   C2B47204   0.277  12.764   6.594
 3673POPC   C3B47205   0.101  12.593   6.957
 3673POPC   C4B47206   0.313  12.340   7.282
 3674POPC   NC347207   5.489  38.676   5.429
 3674POPC   PO447208   6.105  38.379   5.542
 3674POPC   GL147209   5.829  38.148   5.819
 3674POPC   GL247210   5.601  38.418   5.887
 3674POPC   C1A47211   5.832  38.170   6.279
 3674POPC   D2A47212   5.998  38.422   6.604
 3674POPC   C3A47213   5.852  38.334   7.018
 3674POPC   C4A47214   6.094  38.528   7.336
 3674POPC   C1B47215   5.648  38.680   6.286
 3674POPC   C2B47216   5.581  38.736   6.736
 3674POPC   C3B47217   5.588  38.740   7.196
 3674POPC   C4B47218   5.432  38.393   7.433
 3675POPC   NC347219  37.273  40.104   5.366
 3675POPC   PO447220  37.844  39.810   5.410
 3675POPC   GL147221  37.723  39.918   5.823
 3675POPC   GL247222  37.527  40.237   5.844
 3675POPC   C1A47223  37.604  39.782   6.245
 3675POPC   D2A47224  37.798  39.595   6.618
 3675POPC   C3A47225  37.983  39.907   6.903
 3675POPC   C4A47226  37.986  39.961   7.354
 3675POPC   C1B47227  37.318  40.251   6.256
 3675POPC   C2B47228  37.423  40.060   6.653
 3675POPC   C3B47229  37.570  40.193   7.055
 3675POPC   C4B47230  37.494  39.981   7.415
 3676POPC   NC347231   3.373  29.654   5.506
 3676POPC   PO447232   3.742  30.223   5.450
 3676POPC   GL147233   3.644  29.980   5.803
 3676POPC   GL247234   3.240  30.040   5.806
 3676POPC   C1A47235   3.842  29.676   6.114
 3676POPC   D2A47236   3.723  29.383   6.434
 3676POPC   C3A47237   3.799  29.522   6.853
 3676POPC   C4A47238   3.759  29.738   7.241
 3676POPC   C1B47239   3.343  29.780   6.171
 3676POPC   C2B47240   3.454  29.849   6.578
 3676POPC   C3B47241   3.262  29.843   6.963
 3676POPC   C4B47242   3.230  30.100   7.293
 3677POPC   NC347243   1.576  42.959   5.400
 3677POPC   PO447244   0.872  42.961   5.375
 3677POPC   GL147245   1.046  42.975   5.780
 3677POPC   GL247246   1.208  43.299   5.763
 3677POPC   C1A47247   0.933  43.148   6.199
 3677POPC   D2A47248   0.883  43.082   6.652
 3677POPC   C3A47249   1.190  42.849   6.921
 3677POPC   C4A47250   1.568  42.640   7.048
 3677POPC   C1B47251   1.401  43.330   6.177
 3677POPC   C2B47252   1.473  43.160   6.608
 3677POPC   C3B47253   1.400  43.305   7.051
 3677POPC   C4B47254   1.678  43.311   7.414
 3678POPC   NC347255  23.721  32.682   5.381
 3678POPC   PO447256  23.608  31.995   5.390
 3678POPC   GL147257  23.658  32.292   5.724
 3678POPC   GL247258  23.482  32.027   5.882
 3678POPC   C1A47259  23.671  32.403   6.182
 3678POPC   D2A47260  23.686  32.144   6.562
 3678POPC   C3A47261  24.047  32.106   6.834
 3678POPC   C4A47262  23.886  32.133   7.222
 3678POPC   C1B47263  23.273  32.023   6.252
 3678POPC   C2B47264  23.227  32.379   6.473
 3678POPC   C3B47265  23.312  32.375   6.889
 3678POPC   C4B47266  23.547  32.512   7.223
 3679POPC   NC347267  39.776  32.506   5.528
 3679POPC   PO447268  40.118  31.876   5.426
 3679POPC   GL147269  39.992  32.092   5.796
 3679POPC   GL247270  40.306  32.289   5.787
 3679POPC   C1A47271  39.907  32.064   6.254
 3679POPC   D2A47272  39.902  32.193   6.687
 3679POPC   C3A47273  39.901  31.968   7.106
 3679POPC   C4A47274  39.758  32.046   7.572
 3679POPC   C1B47275  40.302  32.508   6.167
 3679POPC   C2B47276  40.168  32.632   6.575
 3679POPC   C3B47277  40.235  32.461   6.966
 3679POPC   C4B47278  40.400  32.609   7.338
 3680POPC   NC347279  16.258  15.600   5.467
 3680POPC   PO447280  15.803  16.116   5.406
 3680POPC   GL147281  15.939  15.884   5.761
 3680POPC   GL247282  16.226  16.071   5.740
 3680POPC   C1A47283  16.007  15.960   6.205
 3680POPC   D2A47284  16.023  16.233   6.562
 3680POPC   C3A47285  16.020  15.947   6.900
 3680POPC   C4A47286  15.895  15.860   7.311
 3680POPC   C1B47287  16.433  16.195   6.115
 3680POPC   C2B47288  16.552  16.256   6.509
 3680POPC   C3B47289  16.539  16.048   6.876
 3680POPC   C4B47290  16.364  16.043   7.269
 3681POPC   NC347291  33.863  21.573   5.327
 3681POPC   PO447292  33.353  21.205   5.114
 3681POPC   GL147293  33.522  21.337   5.620
 3681POPC   GL247294  33.650  21.644   5.780
 3681POPC   C1A47295  33.557  21.285   6.113
 3681POPC   D2A47296  33.663  21.571   6.505
 3681POPC   C3A47297  33.549  21.398   6.945
 3681POPC   C4A47298  33.631  21.010   7.208
 3681POPC   C1B47299  33.999  21.541   6.066
 3681POPC   C2B47300  34.077  21.282   6.460
 3681POPC   C3B47301  34.033  21.244   6.890
 3681POPC   C4B47302  33.985  21.556   7.203
 3682POPC   NC347303  44.848  16.256   5.631
 3682POPC   PO447304  44.344  15.828   5.384
 3682POPC   GL147305  44.464  15.709   5.804
 3682POPC   GL247306  44.839  15.749   5.872
 3682POPC   C1A47307  44.503  15.955   6.187
 3682POPC   D2A47308  44.789  15.953   6.530
 3682POPC   C3A47309  44.639  15.976   6.924
 3682POPC   C4A47310  44.860  16.254   7.178
 3682POPC   C1B47311  44.751  15.520   6.263
 3682POPC   C2B47312  44.761  15.449   6.714
 3682POPC   C3B47313  44.869  15.581   7.132
 3682POPC   C4B47314  44.965  15.839   7.458
 3683POPC   NC347315  42.698  40.383   5.562
 3683POPC   PO447316  43.408  40.531   5.390
 3683POPC   GL147317  43.419  40.252   5.800
 3683POPC   GL247318  43.526  39.864   5.785
 3683POPC   C1A47319  43.180  40.280   6.187
 3683POPC   D2A47320  42.985  40.070   6.518
 3683POPC   C3A47321  42.942  40.280   6.891
 3683POPC   C4A47322  43.093  40.166   7.258
 3683POPC   C1B47323  43.241  39.775   6.120
 3683POPC   C2B47324  43.300  39.635   6.537
 3683POPC   C3B47325  43.250  39.814   6.916
 3683POPC   C4B47326  43.292  39.570   7.277
 3684POPC   NC347327  43.387   5.192   5.253
 3684POPC   PO447328  43.265   4.518   5.180
 3684POPC   GL147329  43.078   4.859   5.513
 3684POPC   GL247330  43.374   4.985   5.733
 3684POPC   C1A47331  42.935   4.974   5.967
 3684POPC   D2A47332  42.965   5.055   6.442
 3684POPC   C3A47333  42.933   4.959   6.898
 3684POPC   C4A47334  42.951   5.063   7.354
 3684POPC   C1B47335  43.445   4.940   6.207
 3684POPC   C2B47336  43.429   5.064   6.668
 3684POPC   C3B47337  43.423   4.796   7.027
 3684POPC   C4B47338  43.358   4.798   7.516
 3685POPC   NC347339   5.904  41.419   5.334
 3685POPC   PO447340   6.642  41.443   5.389
 3685POPC   GL147341   6.237  41.422   5.725
 3685POPC   GL247342   6.005  41.738   5.749
 3685POPC   C1A47343   5.847  41.324   6.033
 3685POPC   D2A47344   5.602  41.460   6.440
 3685POPC   C3A47345   5.903  41.545   6.824
 3685POPC   C4A47346   6.063  41.288   7.207
 3685POPC   C1B47347   5.831  41.835   6.173
 3685POPC   C2B47348   5.620  41.994   6.574
 3685POPC   C3B47349   5.596  41.911   7.038
 3685POPC   C4B47350   5.929  41.778   7.299
 3686POPC   NC347351  28.155  13.913   5.321
 3686POPC   PO447352  28.650  13.429   5.372
 3686POPC   GL147353  28.479  13.524   5.792
 3686POPC   GL247354  28.173  13.701   5.785
 3686POPC   C1A47355  28.247  13.416   6.198
 3686POPC   D2A47356  28.413  13.589   6.580
 3686POPC   C3A47357  28.194  13.507   6.967
 3686POPC   C4A47358  28.442  13.527   7.346
 3686POPC   C1B47359  28.298  13.913   6.189
 3686POPC   C2B47360  28.236  14.074   6.599
 3686POPC   C3B47361  28.436  13.974   6.980
 3686POPC   C4B47362  28.171  13.931   7.335
 3687POPC   NC347363  32.318  31.369   5.260
 3687POPC   PO447364  31.989  31.881   5.625
 3687POPC   GL147365  32.191  31.480   5.765
 3687POPC   GL247366  31.895  31.327   5.940
 3687POPC   C1A47367  32.328  31.247   6.159
 3687POPC   D2A47368  32.100  31.366   6.532
 3687POPC   C3A47369  32.301  31.562   6.904
 3687POPC   C4A47370  32.433  31.246   7.242
 3687POPC   C1B47371  31.757  31.669   6.236
 3687POPC   C2B47372  31.809  31.761   6.672
 3687POPC   C3B47373  31.820  31.443   6.985
 3687POPC   C4B47374  32.044  31.516   7.357
 3688POPC   NC347375  42.822  14.554   5.447
 3688POPC   PO447376  42.132  14.599   5.402
 3688POPC   GL147377  42.124  14.387   5.794
 3688POPC   GL247378  42.449  14.464   5.810
 3688POPC   C1A47379  42.143  14.342   6.251
 3688POPC   D2A47380  42.487  14.319   6.543
 3688POPC   C3A47381  42.409  14.216   6.963
 3688POPC   C4A47382  41.994  14.285   7.149
 3688POPC   C1B47383  42.552  14.689   6.141
 3688POPC   C2B47384  42.355  14.818   6.508
 3688POPC   C3B47385  42.220  14.700   6.910
 3688POPC   C4B47386  42.462  14.618   7.277
 3689POPC   NC347387  26.462  15.294   5.531
 3689POPC   PO447388  26.938  14.894   5.409
 3689POPC   GL147389  26.899  15.151   5.770
 3689POPC   GL247390  27.248  15.096   5.821
 3689POPC   C1A47391  26.614  15.270   6.154
 3689POPC   D2A47392  26.469  15.098   6.552
 3689POPC   C3A47393  26.534  15.353   6.910
 3689POPC   C4A47394  26.633  15.174   7.298
 3689POPC   C1B47395  27.102  15.428   6.151
 3689POPC   C2B47396  26.919  15.395   6.568
 3689POPC   C3B47397  27.057  15.254   6.993
 3689POPC   C4B47398  27.129  15.207   7.446
 3690POPC   NC347399  40.960  39.041   5.579
 3690POPC   PO447400  40.414  39.521   5.498
 3690POPC   GL147401  40.579  39.327   5.889
 3690POPC   GL247402  40.745  39.004   6.020
 3690POPC   C1A47403  40.762  39.444   6.288
 3690POPC   D2A47404  41.106  39.257   6.550
 3690POPC   C3A47405  41.111  39.445   6.949
 3690POPC   C4A47406  40.890  39.492   7.311
 3690POPC   C1B47407  40.451  38.993   6.306
 3690POPC   C2B47408  40.515  39.214   6.688
 3690POPC   C3B47409  40.593  39.147   7.093
 3690POPC   C4B47410  40.978  38.932   7.126
 3691POPC   NC347411   1.821  33.554   5.526
 3691POPC   PO447412   1.909  34.217   5.710
 3691POPC   GL147413   2.083  33.922   5.999
 3691POPC   GL247414   2.041  33.539   5.986
 3691POPC   C1A47415   2.252  33.839   6.402
 3691POPC   D2A47416   1.903  33.779   6.702
 3691POPC   C3A47417   1.984  33.965   7.107
 3691POPC   C4A47418   1.929  33.856   7.515
 3691POPC   C1B47419   2.333  33.320   6.266
 3691POPC   C2B47420   2.470  33.442   6.682
 3691POPC   C3B47421   2.192  33.516   7.030
 3691POPC   C4B47422   2.139  33.386   7.461
 3692POPC   NC347423  18.936  12.327   5.329
 3692POPC   PO447424  18.963  12.931   5.499
 3692POPC   GL147425  18.913  12.655   5.826
 3692POPC   GL247426  19.212  12.461   5.734
 3692POPC   C1A47427  18.909  12.813   6.271
 3692POPC   D2A47428  18.822  12.730   6.694
 3692POPC   C3A47429  18.895  12.969   7.082
 3692POPC   C4A47430  18.857  12.590   7.336
 3692POPC   C1B47431  19.355  12.689   6.083
 3692POPC   C2B47432  19.304  12.555   6.504
 3692POPC   C3B47433  19.311  12.723   6.911
 3692POPC   C4B47434  19.326  12.807   7.338
 3693POPC   NC347435   6.702  25.902   5.248
 3693POPC   PO447436   7.178  26.323   5.431
 3693POPC   GL147437   6.810  26.262   5.683
 3693POPC   GL247438   6.447  26.188   5.616
 3693POPC   C1A47439   6.726  26.016   6.067
 3693POPC   D2A47440   7.001  25.826   6.403
 3693POPC   C3A47441   6.831  25.845   6.836
 3693POPC   C4A47442   6.933  26.110   7.191
 3693POPC   C1B47443   6.265  26.275   6.029
 3693POPC   C2B47444   6.412  26.268   6.449
 3693POPC   C3B47445   6.270  26.205   6.881
 3693POPC   C4B47446   6.436  26.011   7.243
 3694POPC   NC347447   2.562  13.101   5.279
 3694POPC   PO447448   1.964  12.857   5.410
 3694POPC   GL147449   1.966  12.709   5.825
 3694POPC   GL247450   2.306  12.680   5.881
 3694POPC   C1A47451   1.992  12.521   6.251
 3694POPC   D2A47452   2.176  12.599   6.655
 3694POPC   C3A47453   1.893  12.825   6.920
 3694POPC   C4A47454   1.961  13.095   7.263
 3694POPC   C1B47455   2.182  12.975   6.259
 3694POPC   C2B47456   2.233  13.139   6.707
 3694POPC   C3B47457   2.393  12.926   7.082
 3694POPC   C4B47458   2.426  13.014   7.547
 3695POPC   NC347459  24.382  28.147   5.593
 3695POPC   PO447460  24.786  28.471   5.189
 3695POPC   GL147461  24.729  28.558   5.716
 3695POPC   GL247462  24.414  28.582   5.857
 3695POPC   C1A47463  24.824  28.507   6.195
 3695POPC   D2A47464  24.518  28.607   6.577
 3695POPC   C3A47465  24.528  28.426   6.977
 3695POPC   C4A47466  24.624  28.061   7.170
 3695POPC   C1B47467  24.362  28.285   6.221
 3695POPC   C2B47468  24.214  27.949   6.461
 3695POPC   C3B47469  24.211  28.011   6.857
 3695POPC   C4B47470  24.100  28.217   7.217
 3696POPC   NC347471  40.031   5.583   5.428
 3696POPC   PO447472  39.924   6.181   5.303
 3696POPC   GL147473  39.950   6.002   5.730
 3696POPC   GL247474  39.648   6.068   5.873
 3696POPC   C1A47475  40.009   5.928   6.194
 3696POPC   D2A47476  40.172   6.155   6.549
 3696POPC   C3A47477  40.070   6.006   6.957
 3696POPC   C4A47478  39.736   5.716   7.058
 3696POPC   C1B47479  39.504   6.100   6.245
 3696POPC   C2B47480  39.643   5.992   6.630
 3696POPC   C3B47481  39.617   6.219   6.991
 3696POPC   C4B47482  39.503   6.319   7.389
 3697POPC   NC347483  36.342  11.233   5.423
 3697POPC   PO447484  35.839  11.683   5.390
 3697POPC   GL147485  36.092  11.520   5.797
 3697POPC   GL247486  36.171  11.125   5.881
 3697POPC   C1A47487  36.002  11.395   6.254
 3697POPC   D2A47488  36.219  11.186   6.601
 3697POPC   C3A47489  36.162  11.362   7.005
 3697POPC   C4A47490  35.965  11.689   7.149
 3697POPC   C1B47491  36.494  10.991   6.221
 3697POPC   C2B47492  36.673  10.942   6.660
 3697POPC   C3B47493  36.497  10.995   7.090
 3697POPC   C4B47494  36.104  11.013   7.365
 3698POPC   NC347495  24.817  39.835   5.507
 3698POPC   PO447496  25.026  40.450   5.541
 3698POPC   GL147497  24.807  40.246   5.924
 3698POPC   GL247498  24.630  39.906   5.966
 3698POPC   C1A47499  24.485  40.272   6.285
 3698POPC   D2A47500  24.331  40.498   6.634
 3698POPC   C3A47501  24.503  40.255   6.943
 3698POPC   C4A47502  24.186  40.037   7.144
 3698POPC   C1B47503  24.454  39.655   6.300
 3698POPC   C2B47504  24.390  39.796   6.720
 3698POPC   C3B47505  24.596  39.756   7.122
 3698POPC   C4B47506  24.787  39.737   7.519
 3699POPC   NC347507   5.294  22.321   5.486
 3699POPC   PO447508   4.681  22.003   5.296
 3699POPC   GL147509   4.808  22.163   5.711
 3699POPC   GL247510   5.125  22.021   5.871
 3699POPC   C1A47511   4.881  22.370   6.129
 3699POPC   D2A47512   5.058  22.210   6.522
 3699POPC   C3A47513   4.906  22.438   6.889
 3699POPC   C4A47514   4.645  22.468   7.258
 3699POPC   C1B47515   5.373  21.891   6.226
 3699POPC   C2B47516   5.323  21.796   6.654
 3699POPC   C3B47517   5.374  22.128   6.943
 3699POPC   C4B47518   5.306  22.476   7.211
 3700POPC   NC347519  37.497  28.329   5.545
 3700POPC   PO447520  38.022  28.067   5.358
 3700POPC   GL147521  37.946  28.184   5.801
 3700POPC   GL247522  37.765  28.464   5.950
 3700POPC   C1A47523  38.041  28.148   6.248
 3700POPC   D2A47524  37.792  28.165   6.623
 3700POPC   C3A47525  37.572  27.918   6.901
 3700POPC   C4A47526  37.375  28.156   7.258
 3700POPC   C1B47527  37.632  28.582   6.354
 3700POPC   C2B47528  37.857  28.666   6.699
 3700POPC   C3B47529  37.892  28.617   7.117
 3700POPC   C4B47530  37.566  28.769   7.360
 3701POPC   NC347531  19.335  11.835   5.196
 3701POPC   PO447532  18.695  11.918   5.394
 3701POPC   GL147533  18.989  11.987   5.768
 3701POPC   GL247534  18.831  11.811   6.059
 3701POPC   C1A47535  19.037  12.255   6.179
 3701POPC   D2A47536  18.931  12.204   6.651
 3701POPC   C3A47537  19.168  12.265   7.072
 3701POPC   C4A47538  19.322  12.330   7.521
 3701POPC   C1B47539  19.099  11.611   6.366
 3701POPC   C2B47540  19.170  11.711   6.804
 3701POPC   C3B47541  18.863  11.860   7.067
 3701POPC   C4B47542  18.606  12.219   7.071
 3702POPC   NC347543  34.439   2.020   5.441
 3702POPC   PO447544  34.173   2.605   5.650
 3702POPC   GL147545  34.420   2.283   5.880
 3702POPC   GL247546  34.330   1.938   5.953
 3702POPC   C1A47547  34.753   2.198   6.183
 3702POPC   D2A47548  34.621   2.287   6.604
 3702POPC   C3A47549  34.848   2.136   6.946
 3702POPC   C4A47550  34.809   2.198   7.394
 3702POPC   C1B47551  34.672   1.692   6.179
 3702POPC   C2B47552  34.778   1.679   6.641
 3702POPC   C3B47553  34.536   1.727   7.036
 3702POPC   C4B47554  34.494   1.822   7.481
 3703POPC   NC347555  33.751  11.162   5.308
 3703POPC   PO447556  33.495  11.744   5.465
 3703POPC   GL147557  33.576  11.418   5.810
 3703POPC   GL247558  33.899  11.206   5.795
 3703POPC   C1A47559  33.616  11.257   6.264
 3703POPC   D2A47560  33.769  11.124   6.675
 3703POPC   C3A47561  33.739  11.207   7.145
 3703POPC   C4A47562  33.802  11.047   7.585
 3703POPC   C1B47563  34.064  11.455   6.122
 3703POPC   C2B47564  34.206  11.319   6.535
 3703POPC   C3B47565  34.130  11.462   6.949
 3703POPC   C4B47566  34.051  11.815   7.237
 3704POPC   NC347567  38.360  22.704   5.165
 3704POPC   PO447568  38.032  23.227   5.447
 3704POPC   GL147569  38.324  23.147   5.779
 3704POPC   GL247570  38.700  23.075   5.795
 3704POPC   C1A47571  38.418  23.214   6.195
 3704POPC   D2A47572  38.412  22.987   6.562
 3704POPC   C3A47573  38.497  23.111   6.976
 3704POPC   C4A47574  38.159  23.155   7.279
 3704POPC   C1B47575  38.802  22.836   6.211
 3704POPC   C2B47576  38.757  22.623   6.629
 3704POPC   C3B47577  38.926  22.660   7.044
 3704POPC   C4B47578  38.593  22.764   7.332
 3705POPC   NC347579  37.475  41.072   5.511
 3705POPC   PO447580  37.137  40.492   5.596
 3705POPC   GL147581  37.385  40.750   5.902
 3705POPC   GL247582  37.769  40.847   5.873
 3705POPC   C1A47583  37.521  40.747   6.319
 3705POPC   D2A47584  37.419  40.562   6.693
 3705POPC   C3A47585  37.570  40.745   7.020
 3705POPC   C4A47586  37.753  40.768   7.362
 3705POPC   C1B47587  38.025  40.740   6.241
 3705POPC   C2B47588  37.903  40.873   6.645
 3705POPC   C3B47589  38.098  40.935   7.017
 3705POPC   C4B47590  38.099  41.122   7.437
 3706POPC   NC347591  20.810  39.451   5.523
 3706POPC   PO447592  21.378  39.097   5.326
 3706POPC   GL147593  21.244  39.211   5.751
 3706POPC   GL247594  20.946  39.040   5.770
 3706POPC   C1A47595  21.430  39.363   6.166
 3706POPC   D2A47596  21.600  39.551   6.578
 3706POPC   C3A47597  21.765  39.210   6.847
 3706POPC   C4A47598  21.568  38.960   7.150
 3706POPC   C1B47599  21.093  38.883   6.137
 3706POPC   C2B47600  21.336  38.789   6.489
 3706POPC   C3B47601  21.174  38.814   6.897
 3706POPC   C4B47602  21.007  38.911   7.290
 3707POPC   NC347603  40.418  10.744   5.354
 3707POPC   PO447604  40.206  10.179   5.553
 3707POPC   GL147605  40.125  10.548   5.774
 3707POPC   GL247606  39.775  10.645   5.786
 3707POPC   C1A47607  40.062  10.628   6.211
 3707POPC   D2A47608  39.787  10.569   6.553
 3707POPC   C3A47609  39.943  10.438   6.960
 3707POPC   C4A47610  40.159  10.334   7.358
 3707POPC   C1B47611  39.693  10.962   6.093
 3707POPC   C2B47612  39.565  11.031   6.532
 3707POPC   C3B47613  39.731  10.944   6.974
 3707POPC   C4B47614  40.100  10.842   7.237
 3708POPC   NC347615   6.127  29.472   5.353
 3708POPC   PO447616   6.150  30.146   5.213
 3708POPC   GL147617   6.010  29.996   5.660
 3708POPC   GL247618   6.194  29.722   5.803
 3708POPC   C1A47619   5.888  30.015   6.144
 3708POPC   D2A47620   5.814  29.796   6.569
 3708POPC   C3A47621   5.739  29.978   6.974
 3708POPC   C4A47622   5.855  30.071   7.419
 3708POPC   C1B47623   6.165  29.573   6.247
 3708POPC   C2B47624   6.314  29.745   6.689
 3708POPC   C3B47625   6.258  29.841   7.144
 3708POPC   C4B47626   6.158  29.676   7.581
 3709POPC   NC347627   9.352  36.938   5.436
 3709POPC   PO447628   8.738  36.716   5.486
 3709POPC   GL147629   8.851  37.018   5.838
 3709POPC   GL247630   9.195  37.058   5.904
 3709POPC   C1A47631   8.912  37.052   6.325
 3709POPC   D2A47632   9.093  37.162   6.711
 3709POPC   C3A47633   8.995  36.880   7.017
 3709POPC   C4A47634   8.997  37.023   7.430
 3709POPC   C1B47635   9.076  36.632   6.116
 3709POPC   C2B47636   8.976  36.570   6.592
 3709POPC   C3B47637   9.019  36.364   7.008
 3709POPC   C4B47638   9.218  36.542   7.410
 3710POPC   NC347639  39.405  43.032   5.402
 3710POPC   PO447640  38.942  43.380   5.415
 3710POPC   GL147641  39.095  43.184   5.806
 3710POPC   GL247642  39.455  43.086   5.895
 3710POPC   C1A47643  39.028  42.897   6.161
 3710POPC   D2A47644  39.128  42.617   6.546
 3710POPC   C3A47645  38.999  42.800   6.957
 3710POPC   C4A47646  38.921  43.067   7.329
 3710POPC   C1B47647  39.538  42.927   6.325
 3710POPC   C2B47648  39.563  42.809   6.774
 3710POPC   C3B47649  39.701  42.935   7.176
 3710POPC   C4B47650  39.529  43.268   7.378
 3711POPC   NC347651  12.026  43.642   5.227
 3711POPC   PO447652  11.960  44.257   5.550
 3711POPC   GL147653  11.945  43.832   5.710
 3711POPC   GL247654  12.164  43.528   5.709
 3711POPC   C1A47655  12.087  43.825   6.127
 3711POPC   D2A47656  12.174  44.137   6.411
 3711POPC   C3A47657  12.086  44.032   6.824
 3711POPC   C4A47658  12.360  44.091   7.160
 3711POPC   C1B47659  12.413  43.414   6.066
 3711POPC   C2B47660  12.457  43.677   6.461
 3711POPC   C3B47661  12.485  43.650   6.909
 3711POPC   C4B47662  12.533  43.405   7.290
 3712POPC   NC347663   7.578  40.491   5.400
 3712POPC   PO447664   7.379  41.157   5.171
 3712POPC   GL147665   7.366  40.962   5.625
 3712POPC   GL247666   7.702  40.839   5.742
 3712POPC   C1A47667   7.265  40.813   6.078
 3712POPC   D2A47668   7.053  40.884   6.494
 3712POPC   C3A47669   7.253  40.810   6.920
 3712POPC   C4A47670   7.246  40.885   7.385
 3712POPC   C1B47671   7.772  40.833   6.132
 3712POPC   C2B47672   7.598  40.814   6.522
 3712POPC   C3B47673   7.786  40.854   6.916
 3712POPC   C4B47674   7.677  40.654   7.279
 3713POPC   NC347675  16.335   2.371   5.530
 3713POPC   PO447676  15.698   2.231   5.392
 3713POPC   GL147677  15.847   2.399   5.817
 3713POPC   GL247678  16.028   2.717   5.760
 3713POPC   C1A47679  15.792   2.645   6.228
 3713POPC   D2A47680  15.723   2.941   6.585
 3713POPC   C3A47681  15.802   2.737   6.986
 3713POPC   C4A47682  15.491   2.628   7.302
 3713POPC   C1B47683  16.213   2.955   6.099
 3713POPC   C2B47684  16.241   2.932   6.546
 3713POPC   C3B47685  16.283   3.004   6.975
 3713POPC   C4B47686  16.202   2.745   7.312
 3714POPC   NC347687  34.200  18.261   5.231
 3714POPC   PO447688  33.515  18.225   5.502
 3714POPC   GL147689  33.539  18.339   5.945
 3714POPC   GL247690  33.877  18.243   6.001
 3714POPC   C1A47691  33.747  18.672   6.239
 3714POPC   D2A47692  33.926  18.717   6.663
 3714POPC   C3A47693  33.689  18.397   6.903
 3714POPC   C4A47694  33.556  18.070   7.192
 3714POPC   C1B47695  33.884  18.202   6.451
 3714POPC   C2B47696  34.167  18.191   6.810
 3714POPC   C3B47697  34.036  18.224   7.251
 3714POPC   C4B47698  34.222  18.081   7.626
 3715POPC   NC347699  30.210  15.793   5.416
 3715POPC   PO447700  29.913  16.406   5.264
 3715POPC   GL147701  29.910  16.232   5.709
 3715POPC   GL247702  29.839  15.892   5.757
 3715POPC   C1A47703  30.115  16.090   6.134
 3715POPC   D2A47704  30.056  15.750   6.448
 3715POPC   C3A47705  30.058  15.917   6.845
 3715POPC   C4A47706  29.893  15.842   7.250
 3715POPC   C1B47707  29.645  15.878   6.151
 3715POPC   C2B47708  29.513  15.680   6.518
 3715POPC   C3B47709  29.511  15.821   6.926
 3715POPC   C4B47710  29.380  15.625   7.310
 3716POPC   NC347711  25.635   6.598   5.526
 3716POPC   PO447712  26.333   6.275   5.460
 3716POPC   GL147713  26.226   6.662   5.754
 3716POPC   GL247714  25.951   6.535   5.974
 3716POPC   C1A47715  26.236   6.925   6.174
 3716POPC   D2A47716  26.075   6.705   6.554
 3716POPC   C3A47717  26.088   6.776   7.001
 3716POPC   C4A47718  25.699   6.657   7.192
 3716POPC   C1B47719  26.365   6.443   6.210
 3716POPC   C2B47720  26.561   6.578   6.648
 3716POPC   C3B47721  26.511   6.502   7.101
 3716POPC   C4B47722  26.292   6.734   7.502
 3717POPC   NC347723  13.010  44.870   5.303
 3717POPC   PO447724  12.662  44.286   5.269
 3717POPC   GL147725  12.881  44.488   5.660
 3717POPC   GL247726  12.596  44.522   5.872
 3717POPC   C1A47727  12.989  44.574   6.156
 3717POPC   D2A47728  12.802  44.574   6.591
 3717POPC   C3A47729  13.073  44.640   6.948
 3717POPC   C4A47730  13.221  44.504   7.366
 3717POPC   C1B47731  12.424  44.648   6.259
 3717POPC   C2B47732  12.420  44.957   6.588
 3717POPC   C3B47733  12.625  44.912   6.971
 3717POPC   C4B47734  12.615   0.120   7.345
 3718POPC   NC347735  39.256  41.149   5.478
 3718POPC   PO447736  39.442  41.679   5.192
 3718POPC   GL147737  39.429  41.621   5.658
 3718POPC   GL247738  39.076  41.534   5.752
 3718POPC   C1A47739  39.418  41.624   6.130
 3718POPC   D2A47740  39.192  41.608   6.532
 3718POPC   C3A47741  39.313  41.757   6.894
 3718POPC   C4A47742  39.082  41.823   7.219
 3718POPC   C1B47743  38.939  41.413   6.149
 3718POPC   C2B47744  38.934  41.161   6.543
 3718POPC   C3B47745  38.951  41.374   6.977
 3718POPC   C4B47746  38.944  41.376   7.472
 3719POPC   NC347747   1.173   7.995   5.543
 3719POPC   PO447748   1.081   8.692   5.394
 3719POPC   GL147749   1.124   8.473   5.817
 3719POPC   GL247750   1.427   8.291   5.895
 3719POPC   C1A47751   1.087   8.366   6.266
 3719POPC   D2A47752   1.321   8.471   6.643
 3719POPC   C3A47753   1.220   8.306   7.014
 3719POPC   C4A47754   0.985   8.176   7.342
 3719POPC   C1B47755   1.594   8.168   6.340
 3719POPC   C2B47756   1.564   8.012   6.770
 3719POPC   C3B47757   1.703   8.262   7.140
 3719POPC   C4B47758   1.396   8.377   7.502
 3720POPC   NC347759  10.457  11.214   5.403
 3720POPC   PO447760  10.110  11.801   5.378
 3720POPC   GL147761  10.282  11.567   5.729
 3720POPC   GL247762  10.647  11.529   5.758
 3720POPC   C1A47763  10.323  11.339   6.126
 3720POPC   D2A47764  10.155  11.445   6.541
 3720POPC   C3A47765  10.088  11.228   6.906
 3720POPC   C4A47766  10.279  11.231   7.280
 3720POPC   C1B47767  10.729  11.665   6.177
 3720POPC   C2B47768  10.718  11.478   6.539
 3720POPC   C3B47769  10.938  11.415   6.878
 3720POPC   C4B47770  10.742  11.439   7.235
 3721POPC   NC347771  38.082  30.557   5.164
 3721POPC   PO447772  37.405  30.593   5.247
 3721POPC   GL147773  37.677  30.703   5.648
 3721POPC   GL247774  37.675  30.449   5.928
 3721POPC   C1A47775  37.787  30.902   6.088
 3721POPC   D2A47776  38.009  30.806   6.502
 3721POPC   C3A47777  37.922  31.001   6.896
 3721POPC   C4A47778  37.778  30.999   7.333
 3721POPC   C1B47779  37.579  30.527   6.360
 3721POPC   C2B47780  37.571  30.619   6.776
 3721POPC   C3B47781  37.816  30.534   7.101
 3721POPC   C4B47782  37.587  30.435   7.415
 3722POPC   NC347783  26.867  18.050   5.221
 3722POPC   PO447784  26.437  18.458   5.392
 3722POPC   GL147785  26.730  18.311   5.694
 3722POPC   GL247786  26.478  18.096   5.793
 3722POPC   C1A47787  26.868  18.248   6.150
 3722POPC   D2A47788  27.015  18.387   6.552
 3722POPC   C3A47789  26.913  18.213   6.978
 3722POPC   C4A47790  27.058  18.395   7.351
 3722POPC   C1B47791  26.381  18.070   6.220
 3722POPC   C2B47792  26.560  18.068   6.620
 3722POPC   C3B47793  26.409  18.237   7.004
 3722POPC   C4B47794  26.569  18.215   7.402
 3723POPC   NC347795   3.059  27.568   5.638
 3723POPC   PO447796   2.434  27.213   5.404
 3723POPC   GL147797   2.612  27.329   5.805
 3723POPC   GL247798   2.557  27.728   5.805
 3723POPC   C1A47799   2.700  27.320   6.249
 3723POPC   D2A47800   2.750  27.735   6.458
 3723POPC   C3A47801   3.006  27.674   6.826
 3723POPC   C4A47802   2.829  27.537   7.205
 3723POPC   C1B47803   2.382  28.038   6.130
 3723POPC   C2B47804   2.251  27.984   6.575
 3723POPC   C3B47805   2.548  27.922   6.922
 3723POPC   C4B47806   2.916  28.033   7.206
 3724POPC   NC347807  15.216   2.538   5.424
 3724POPC   PO447808  15.379   3.181   5.282
 3724POPC   GL147809  15.362   3.010   5.731
 3724POPC   GL247810  15.161   2.716   5.901
 3724POPC   C1A47811  15.418   3.067   6.182
 3724POPC   D2A47812  15.151   2.979   6.544
 3724POPC   C3A47813  15.342   2.988   6.953
 3724POPC   C4A47814  15.041   2.867   7.260
 3724POPC   C1B47815  15.269   2.527   6.304
 3724POPC   C2B47816  15.366   2.506   6.760
 3724POPC   C3B47817  15.134   2.341   7.124
 3724POPC   C4B47818  14.900   2.410   7.517
 3725POPC   NC347819   5.400  42.081   5.351
 3725POPC   PO447820   5.026  42.534   5.545
 3725POPC   GL147821   5.277  42.323   5.793
 3725POPC   GL247822   5.011  42.191   5.965
 3725POPC   C1A47823   5.479  42.357   6.197
 3725POPC   D2A47824   5.210  42.317   6.522
 3725POPC   C3A47825   5.250  42.477   6.910
 3725POPC   C4A47826   5.236  42.315   7.282
 3725POPC   C1B47827   4.744  42.239   6.303
 3725POPC   C2B47828   4.682  42.248   6.729
 3725POPC   C3B47829   4.656  42.024   7.109
 3725POPC   C4B47830   4.777  42.146   7.506
 3726POPC   NC347831  25.332  16.119   5.124
 3726POPC   PO447832  24.845  15.917   5.493
 3726POPC   GL147833  25.070  16.032   5.848
 3726POPC   GL247834  25.364  15.883   5.808
 3726POPC   C1A47835  25.208  15.946   6.289
 3726POPC   D2A47836  25.426  16.130   6.590
 3726POPC   C3A47837  25.266  16.027   6.998
 3726POPC   C4A47838  25.287  16.175   7.420
 3726POPC   C1B47839  25.455  15.544   6.098
 3726POPC   C2B47840  25.559  15.592   6.528
 3726POPC   C3B47841  25.488  15.400   6.895
 3726POPC   C4B47842  25.482  15.600   7.261
 3727POPC   NC347843   3.375  38.231   5.557
 3727POPC   PO447844   3.593  38.931   5.382
 3727POPC   GL147845   3.620  38.698   5.806
 3727POPC   GL247846   3.828  38.382   5.908
 3727POPC   C1A47847   3.432  38.532   6.210
 3727POPC   D2A47848   3.429  38.287   6.601
 3727POPC   C3A47849   3.513  38.512   6.992
 3727POPC   C4A47850   3.258  38.880   7.122
 3727POPC   C1B47851   3.851  38.134   6.332
 3727POPC   C2B47852   3.861  38.088   6.813
 3727POPC   C3B47853   3.934  38.321   7.215
 3727POPC   C4B47854   3.884  38.562   7.618
 3728POPC   NC347855  14.609  42.658   5.445
 3728POPC   PO447856  14.301  42.023   5.412
 3728POPC   GL147857  14.515  42.242   5.731
 3728POPC   GL247858  14.261  42.439   5.843
 3728POPC   C1A47859  14.668  42.207   6.162
 3728POPC   D2A47860  14.861  42.370   6.556
 3728POPC   C3A47861  14.571  42.534   6.862
 3728POPC   C4A47862  14.397  42.293   7.182
 3728POPC   C1B47863  14.114  42.296   6.233
 3728POPC   C2B47864  14.332  42.204   6.591
 3728POPC   C3B47865  14.319  41.877   6.904
 3728POPC   C4B47866  13.949  41.881   7.148
 3729POPC   NC347867  11.377  14.760   5.528
 3729POPC   PO447868  10.968  14.198   5.351
 3729POPC   GL147869  11.117  14.279   5.796
 3729POPC   GL247870  11.463  14.366   5.850
 3729POPC   C1A47871  11.016  14.400   6.241
 3729POPC   D2A47872  10.742  14.465   6.627
 3729POPC   C3A47873  11.029  14.568   6.987
 3729POPC   C4A47874  11.296  14.331   7.234
 3729POPC   C1B47875  11.497  14.662   6.216
 3729POPC   C2B47876  11.723  14.727   6.611
 3729POPC   C3B47877  11.813  14.693   7.064
 3729POPC   C4B47878  11.532  14.738   7.401
 3730POPC   NC347879  15.766  25.828   5.415
 3730POPC   PO447880  15.882  26.380   5.050
 3730POPC   GL147881  16.029  26.246   5.524
 3730POPC   GL247882  16.174  25.997   5.658
 3730POPC   C1A47883  15.896  26.234   5.997
 3730POPC   D2A47884  16.023  26.146   6.467
 3730POPC   C3A47885  16.087  26.169   6.927
 3730POPC   C4A47886  15.982  25.916   7.353
 3730POPC   C1B47887  16.311  25.953   6.088
 3730POPC   C2B47888  16.287  25.696   6.473
 3730POPC   C3B47889  16.101  25.672   6.880
 3730POPC   C4B47890  16.210  25.473   7.265
 3731POPC   NC347891  32.826  35.171   5.182
 3731POPC   PO447892  33.273  35.584   5.409
 3731POPC   GL147893  32.969  35.482   5.780
 3731POPC   GL247894  32.799  35.165   5.723
 3731POPC   C1A47895  32.931  35.494   6.266
 3731POPC   D2A47896  33.209  35.571   6.657
 3731POPC   C3A47897  33.070  35.666   7.119
 3731POPC   C4A47898  33.169  35.822   7.574
 3731POPC   C1B47899  33.132  35.062   6.029
 3731POPC   C2B47900  33.113  35.048   6.483
 3731POPC   C3B47901  32.921  35.182   6.856
 3731POPC   C4B47902  33.017  35.188   7.288
 3732POPC   NC347903  44.667   7.888   5.427
 3732POPC   PO447904  44.440   8.482   5.335
 3732POPC   GL147905  44.719   8.321   5.712
 3732POPC   GL247906   0.009   8.063   5.764
 3732POPC   C1A47907  44.783   8.313   6.167
 3732POPC   D2A47908  44.524   8.223   6.514
 3732POPC   C3A47909  44.602   8.513   6.850
 3732POPC   C4A47910  44.473   8.457   7.264
 3732POPC   C1B47911  44.770   7.811   6.084
 3732POPC   C2B47912  44.758   7.719   6.503
 3732POPC   C3B47913  44.642   7.897   6.918
 3732POPC   C4B47914  44.898   8.183   7.158
 3733POPC   NC347915   8.913  28.848   5.455
 3733POPC   PO447916   8.773  28.194   5.246
 3733POPC   GL147917   8.880  28.358   5.672
 3733POPC   GL247918   8.628  28.581   5.783
 3733POPC   C1A47919   9.018  28.327   6.126
 3733POPC   D2A47920   9.142  28.448   6.544
 3733POPC   C3A47921   9.030  28.128   6.826
 3733POPC   C4A47922   9.030  28.149   7.253
 3733POPC   C1B47923   8.665  28.781   6.165
 3733POPC   C2B47924   8.791  28.840   6.584
 3733POPC   C3B47925   8.826  28.618   6.969
 3733POPC   C4B47926   8.973  28.705   7.385
 3734POPC   NC347927  17.337  30.725   5.218
 3734POPC   PO447928  16.647  30.701   5.137
 3734POPC   GL147929  16.673  30.879   5.604
 3734POPC   GL247930  16.997  30.822   5.711
 3734POPC   C1A47931  16.631  30.939   6.086
 3734POPC   D2A47932  16.684  30.709   6.506
 3734POPC   C3A47933  16.588  30.740   6.968
 3734POPC   C4A47934  16.536  30.530   7.393
 3734POPC   C1B47935  16.970  30.526   6.087
 3734POPC   C2B47936  17.149  30.478   6.508
 3734POPC   C3B47937  17.095  30.729   6.893
 3734POPC   C4B47938  16.968  30.810   7.330
 3735POPC   NC347939  33.758  29.323   5.412
 3735POPC   PO447940  33.688  28.700   5.592
 3735POPC   GL147941  33.860  29.048   5.856
 3735POPC   GL247942  33.998  29.421   5.847
 3735POPC   C1A47943  33.853  29.115   6.284
 3735POPC   D2A47944  33.538  29.138   6.597
 3735POPC   C3A47945  33.738  29.090   7.002
 3735POPC   C4A47946  34.158  28.879   6.990
 3735POPC   C1B47947  33.768  29.607   6.224
 3735POPC   C2B47948  33.881  29.488   6.668
 3735POPC   C3B47949  33.831  29.580   7.113
 3735POPC   C4B47950  33.650  29.392   7.476
 3736POPC   NC347951  10.896  12.895   5.322
 3736POPC   PO447952  10.320  12.458   5.376
 3736POPC   GL147953  10.391  12.845   5.731
 3736POPC   GL247954  10.651  13.090   5.723
 3736POPC   C1A47955  10.507  12.844   6.170
 3736POPC   D2A47956  10.343  13.027   6.534
 3736POPC   C3A47957  10.314  12.788   6.907
 3736POPC   C4A47958  10.209  13.004   7.262
 3736POPC   C1B47959  10.872  13.203   6.136
 3736POPC   C2B47960  10.863  13.034   6.554
 3736POPC   C3B47961  10.994  12.952   6.951
 3736POPC   C4B47962  10.696  12.867   7.230
 3737POPC   NC347963  31.506   4.685   5.385
 3737POPC   PO447964  31.186   4.078   5.320
 3737POPC   GL147965  31.215   4.371   5.688
 3737POPC   GL247966  31.554   4.407   5.819
 3737POPC   C1A47967  31.120   4.385   6.151
 3737POPC   D2A47968  31.327   4.333   6.574
 3737POPC   C3A47969  31.107   4.506   6.949
 3737POPC   C4A47970  31.206   4.732   7.341
 3737POPC   C1B47971  31.740   4.436   6.214
 3737POPC   C2B47972  31.757   4.591   6.634
 3737POPC   C3B47973  31.605   4.523   7.038
 3737POPC   C4B47974  31.798   4.309   7.372
 3738POPC   NC347975  36.092  16.823   5.412
 3738POPC   PO447976  36.245  16.212   5.549
 3738POPC   GL147977  36.183  16.575   5.846
 3738POPC   GL247978  36.360  16.908   5.823
 3738POPC   C1A47979  36.121  16.772   6.248
 3738POPC   D2A47980  35.820  16.731   6.551
 3738POPC   C3A47981  36.022  16.595   6.882
 3738POPC   C4A47982  35.996  16.892   7.155
 3738POPC   C1B47983  36.631  16.865   6.152
 3738POPC   C2B47984  36.573  16.742   6.568
 3738POPC   C3B47985  36.460  16.838   6.957
 3738POPC   C4B47986  36.428  16.897   7.393
 3739POPC   NC347987  27.759  40.345   5.494
 3739POPC   PO447988  27.583  39.649   5.418
 3739POPC   GL147989  27.783  39.898   5.757
 3739POPC   GL247990  27.487  40.054   5.849
 3739POPC   C1A47991  27.999  40.040   6.126
 3739POPC   D2A47992  27.914  39.921   6.553
 3739POPC   C3A47993  27.903  40.155   6.920
 3739POPC   C4A47994  27.620  40.087   7.255
 3739POPC   C1B47995  27.271  40.388   6.065
 3739POPC   C2B47996  27.403  40.609   6.445
 3739POPC   C3B47997  27.434  40.404   6.847
 3739POPC   C4B47998  27.236  40.460   7.218
 3740POPC   NC347999  18.037  30.152   5.167
 3740POPC   PO448000  18.436  29.689   5.343
 3740POPC   GL148001  18.298  29.819   5.761
 3740POPC   GL248002  18.469  30.123   5.734
 3740POPC   C1A48003  18.163  29.682   6.203
 3740POPC   D2A48004  17.913  29.674   6.600
 3740POPC   C3A48005  18.137  29.747   6.981
 3740POPC   C4A48006  18.136  29.792   7.421
 3740POPC   C1B48007  18.529  30.051   6.182
 3740POPC   C2B48008  18.322  30.048   6.590
 3740POPC   C3B48009  18.436  30.166   7.035
 3740POPC   C4B48010  18.254  30.266   7.458
 3741POPC   NC348011   8.516  10.061   5.452
 3741POPC   PO448012   8.233  10.768   5.442
 3741POPC   GL148013   8.272  10.442   5.720
 3741POPC   GL248014   8.031  10.237   5.622
 3741POPC   C1A48015   8.410  10.435   6.145
 3741POPC   D2A48016   8.402  10.786   6.449
 3741POPC   C3A48017   8.336  10.587   6.837
 3741POPC   C4A48018   8.315  10.735   7.225
 3741POPC   C1B48019   7.851  10.268   6.019
 3741POPC   C2B48020   7.992  10.255   6.420
 3741POPC   C3B48021   7.986  10.176   6.837
 3741POPC   C4B48022   8.216  10.202   7.205
 3742POPC   NC348023  13.307  41.579   5.654
 3742POPC   PO448024  12.879  41.631   5.197
 3742POPC   GL148025  12.758  41.639   5.635
 3742POPC   GL248026  12.865  41.400   5.900
 3742POPC   C1A48027  12.513  41.751   6.028
 3742POPC   D2A48028  12.573  41.977   6.448
 3742POPC   C3A48029  12.623  41.687   6.826
 3742POPC   C4A48030  12.750  41.485   7.227
 3742POPC   C1B48031  12.794  41.477   6.365
 3742POPC   C2B48032  12.987  41.316   6.718
 3742POPC   C3B48033  13.229  41.429   7.057
 3742POPC   C4B48034  13.218  41.459   7.519
 3743POPC   NC348035  26.926   7.373   5.436
 3743POPC   PO448036  26.329   7.545   5.239
 3743POPC   GL148037  26.520   7.237   5.682
 3743POPC   GL248038  26.906   7.147   5.874
 3743POPC   C1A48039  26.541   7.332   6.154
 3743POPC   D2A48040  26.596   7.563   6.540
 3743POPC   C3A48041  26.707   7.370   6.958
 3743POPC   C4A48042  26.409   7.152   7.230
 3743POPC   C1B48043  27.049   7.439   6.230
 3743POPC   C2B48044  27.080   7.626   6.655
 3743POPC   C3B48045  27.197   7.535   7.069
 3743POPC   C4B48046  27.113   7.199   7.333
 3744POPC   NC348047  44.190   2.731   5.368
 3744POPC   PO448048  43.871   3.164   5.717
 3744POPC   GL148049  43.950   2.782   5.844
 3744POPC   GL248050  43.608   2.623   5.913
 3744POPC   C1A48051  44.166   2.750   6.214
 3744POPC   D2A48052  44.088   2.990   6.595
 3744POPC   C3A48053  44.187   2.746   6.945
 3744POPC   C4A48054  44.057   2.665   7.340
 3744POPC   C1B48055  43.669   2.833   6.305
 3744POPC   C2B48056  43.739   2.618   6.705
 3744POPC   C3B48057  43.601   2.659   7.134
 3744POPC   C4B48058  43.597   2.341   7.480
 3745POPC   NC348059  41.189   7.689   5.412
 3745POPC   PO448060  41.143   7.090   5.773
 3745POPC   GL148061  40.961   7.491   5.815
 3745POPC   GL248062  40.625   7.516   5.644
 3745POPC   C1A48063  40.980   7.659   6.223
 3745POPC   D2A48064  40.889   7.421   6.594
 3745POPC   C3A48065  41.041   7.446   7.011
 3745POPC   C4A48066  41.245   7.042   7.167
 3745POPC   C1B48067  40.515   7.488   6.090
 3745POPC   C2B48068  40.511   7.733   6.488
 3745POPC   C3B48069  40.497   7.503   6.915
 3745POPC   C4B48070  40.499   7.629   7.336
 3746POPC   NC348071   1.783  43.834   5.384
 3746POPC   PO448072   2.452  43.606   5.421
 3746POPC   GL148073   2.151  43.839   5.769
 3746POPC   GL248074   1.802  44.029   5.856
 3746POPC   C1A48075   2.074  43.836   6.248
 3746POPC   D2A48076   1.939  44.099   6.596
 3746POPC   C3A48077   2.160  44.063   7.002
 3746POPC   C4A48078   2.335  43.761   7.293
 3746POPC   C1B48079   1.571  43.857   6.250
 3746POPC   C2B48080   1.631  43.653   6.639
 3746POPC   C3B48081   1.820  43.640   7.037
 3746POPC   C4B48082   1.849  43.878   7.399
 3747POPC   NC348083  36.762  38.340   5.453
 3747POPC   PO448084  36.626  38.959   5.464
 3747POPC   GL148085  36.757  38.699   5.818
 3747POPC   GL248086  37.094  38.601   5.746
 3747POPC   C1A48087  36.681  38.499   6.206
 3747POPC   D2A48088  36.512  38.571   6.600
 3747POPC   C3A48089  36.765  38.795   6.876
 3747POPC   C4A48090  36.869  38.593   7.250
 3747POPC   C1B48091  37.192  38.469   6.155
 3747POPC   C2B48092  37.044  38.487   6.569
 3747POPC   C3B48093  37.260  38.446   6.942
 3747POPC   C4B48094  37.355  38.389   7.353
 3748POPC   NC348095  34.499  20.803   5.387
 3748POPC   PO448096  34.364  20.242   5.694
 3748POPC   GL148097  34.552  20.592   5.924
 3748POPC   GL248098  34.519  20.950   5.876
 3748POPC   C1A48099  34.595  20.574   6.369
 3748POPC   D2A48100  34.382  20.512   6.752
 3748POPC   C3A48101  34.567  20.496   7.150
 3748POPC   C4A48102  34.425  20.355   7.554
 3748POPC   C1B48103  34.809  21.032   6.250
 3748POPC   C2B48104  34.832  20.917   6.701
 3748POPC   C3B48105  34.765  20.994   7.146
 3748POPC   C4B48106  34.573  20.827   7.538
 3749POPC   NC348107  17.035  15.889   5.461
 3749POPC   PO448108  16.610  16.432   5.319
 3749POPC   GL148109  16.741  16.236   5.708
 3749POPC   GL248110  16.669  15.850   5.818
 3749POPC   C1A48111  16.942  16.153   6.102
 3749POPC   D2A48112  16.902  15.866   6.434
 3749POPC   C3A48113  17.055  16.018   6.813
 3749POPC   C4A48114  16.940  16.048   7.250
 3749POPC   C1B48115  16.468  15.680   6.212
 3749POPC   C2B48116  16.559  15.537   6.654
 3749POPC   C3B48117  16.777  15.620   7.045
 3749POPC   C4B48118  16.635  15.675   7.501
 3750POPC   NC348119  26.928   2.200   5.394
 3750POPC   PO448120  26.442   1.725   5.463
 3750POPC   GL148121  26.753   1.897   5.780
 3750POPC   GL248122  27.122   2.006   5.839
 3750POPC   C1A48123  26.670   2.034   6.212
 3750POPC   D2A48124  26.778   1.790   6.589
 3750POPC   C3A48125  26.724   1.881   7.027
 3750POPC   C4A48126  27.032   1.900   7.365
 3750POPC   C1B48127  27.164   2.116   6.284
 3750POPC   C2B48128  26.889   2.315   6.612
 3750POPC   C3B48129  26.951   2.333   7.051
 3750POPC   C4B48130  27.310   2.406   7.254
 3751POPC   NC348131  29.938  44.229   5.466
 3751POPC   PO448132  29.761  44.716   5.058
 3751POPC   GL148133  29.836  44.758   5.569
 3751POPC   GL248134  30.164  44.873   5.739
 3751POPC   C1A48135  29.753  44.845   6.064
 3751POPC   D2A48136  29.538  44.939   6.504
 3751POPC   C3A48137  29.712  44.818   6.938
 3751POPC   C4A48138  29.887  44.612   7.356
 3751POPC   C1B48139  30.209   0.078   6.179
 3751POPC   C2B48140  30.051   0.058   6.621
 3751POPC   C3B48141  30.202  44.946   7.081
 3751POPC   C4B48142  30.414  44.577   7.307
 3752POPC   NC348143   4.113  30.239   5.174
 3752POPC   PO448144   4.568  29.724   5.186
 3752POPC   GL148145   4.331  29.730   5.599
 3752POPC   GL248146   4.196  30.074   5.688
 3752POPC   C1A48147   4.376  29.664   6.070
 3752POPC   D2A48148   4.229  29.489   6.484
 3752POPC   C3A48149   4.404  29.641   6.859
 3752POPC   C4A48150   4.358  29.723   7.287
 3752POPC   C1B48151   4.078  30.126   6.145
 3752POPC   C2B48152   3.955  29.962   6.562
 3752POPC   C3B48153   4.104  30.045   6.987
 3752POPC   C4B48154   4.068  30.137   7.438
 3753POPC   NC348155  16.327  26.015   5.154
 3753POPC   PO448156  16.939  25.851   5.394
 3753POPC   GL148157  16.700  26.041   5.722
 3753POPC   GL248158  16.551  25.687   5.700
 3753POPC   C1A48159  16.737  26.249   6.165
 3753POPC   D2A48160  16.662  26.041   6.580
 3753POPC   C3A48161  16.641  26.258   6.994
 3753POPC   C4A48162  16.382  26.219   7.363
 3753POPC   C1B48163  16.674  25.613   6.100
 3753POPC   C2B48164  16.810  25.533   6.501
 3753POPC   C3B48165  16.619  25.579   6.872
 3753POPC   C4B48166  16.637  25.803   7.225
 3754POPC   NC348167  24.168  16.928   4.964
 3754POPC   PO448168  24.726  16.735   5.339
 3754POPC   GL148169  24.607  16.814   5.773
 3754POPC   GL248170  24.544  17.144   5.932
 3754POPC   C1A48171  24.706  16.745   6.211
 3754POPC   D2A48172  24.511  16.698   6.609
 3754POPC   C3A48173  24.805  16.760   6.959
 3754POPC   C4A48174  24.741  16.666   7.394
 3754POPC   C1B48175  24.219  16.936   6.172
 3754POPC   C2B48176  23.983  16.981   6.556
 3754POPC   C3B48177  24.024  16.788   6.936
 3754POPC   C4B48178  24.357  16.921   7.187
 3755POPC   NC348179   6.776  17.971   5.130
 3755POPC   PO448180   6.505  18.503   5.330
 3755POPC   GL148181   6.676  18.404   5.766
 3755POPC   GL248182   6.654  18.081   5.930
 3755POPC   C1A48183   6.572  18.566   6.196
 3755POPC   D2A48184   6.538  18.372   6.628
 3755POPC   C3A48185   6.601  18.552   7.034
 3755POPC   C4A48186   6.313  18.481   7.360
 3755POPC   C1B48187   6.912  18.187   6.303
 3755POPC   C2B48188   7.064  18.257   6.736
 3755POPC   C3B48189   6.968  18.175   7.180
 3755POPC   C4B48190   7.045  17.923   7.566
 3756POPC   NC348191  23.327  16.963   5.505
 3756POPC   PO448192  22.940  16.616   5.073
 3756POPC   GL148193  22.780  16.800   5.476
 3756POPC   GL248194  22.958  16.615   5.692
 3756POPC   C1A48195  22.709  16.984   5.926
 3756POPC   D2A48196  22.922  16.872   6.334
 3756POPC   C3A48197  22.733  16.918   6.761
 3756POPC   C4A48198  23.017  16.868   7.134
 3756POPC   C1B48199  22.793  16.446   6.080
 3756POPC   C2B48200  22.946  16.339   6.488
 3756POPC   C3B48201  22.857  16.453   6.892
 3756POPC   C4B48202  22.972  16.396   7.316
 3757POPC   NC348203  43.082  12.671   5.587
 3757POPC   PO448204  42.727  13.166   5.391
 3757POPC   GL148205  42.934  13.130   5.791
 3757POPC   GL248206  43.314  13.014   5.882
 3757POPC   C1A48207  42.888  12.955   6.190
 3757POPC   D2A48208  43.129  12.942   6.538
 3757POPC   C3A48209  42.870  12.982   6.848
 3757POPC   C4A48210  42.955  13.055   7.236
 3757POPC   C1B48211  43.364  12.640   6.190
 3757POPC   C2B48212  43.367  12.455   6.606
 3757POPC   C3B48213  43.259  12.653   6.979
 3757POPC   C4B48214  43.227  12.671   7.410
 3758POPC   NC348215  12.336  18.128   5.167
 3758POPC   PO448216  12.193  18.793   5.423
 3758POPC   GL148217  12.051  18.412   5.700
 3758POPC   GL248218  12.281  18.092   5.705
 3758POPC   C1A48219  11.940  18.331   6.153
 3758POPC   D2A48220  12.018  18.364   6.593
 3758POPC   C3A48221  12.061  18.098   6.924
 3758POPC   C4A48222  11.889  18.321   7.270
 3758POPC   C1B48223  12.463  18.297   6.082
 3758POPC   C2B48224  12.522  18.205   6.528
 3758POPC   C3B48225  12.472  18.407   6.926
 3758POPC   C4B48226  12.345  18.615   7.314
 3759POPC   NC348227  28.013  37.954   5.627
 3759POPC   PO448228  28.691  37.767   5.512
 3759POPC   GL148229  28.652  37.700   5.911
 3759POPC   GL248230  28.299  37.684   5.948
 3759POPC   C1A48231  28.635  37.727   6.340
 3759POPC   D2A48232  28.304  37.601   6.609
 3759POPC   C3A48233  28.558  37.758   6.916
 3759POPC   C4A48234  28.593  37.761   7.354
 3759POPC   C1B48235  28.220  38.004   6.282
 3759POPC   C2B48236  28.052  38.039   6.696
 3759POPC   C3B48237  28.108  37.867   7.153
 3759POPC   C4B48238  28.119  37.830   7.638
 3760POPC   NC348239  21.700  24.019   5.270
 3760POPC   PO448240  21.108  23.688   5.333
 3760POPC   GL148241  21.136  23.700   5.799
 3760POPC   GL248242  21.380  23.977   5.836
 3760POPC   C1A48243  21.295  23.610   6.228
 3760POPC   D2A48244  21.391  23.816   6.621
 3760POPC   C3A48245  21.385  23.549   6.972
 3760POPC   C4A48246  21.551  23.578   7.385
 3760POPC   C1B48247  21.116  24.085   6.203
 3760POPC   C2B48248  20.930  24.051   6.594
 3760POPC   C3B48249  21.026  23.926   6.991
 3760POPC   C4B48250  21.429  24.044   7.162
 3761POPC   NC348251  37.383  21.187   5.388
 3761POPC   PO448252  36.683  21.286   5.393
 3761POPC   GL148253  36.926  21.424   5.791
 3761POPC   GL248254  36.730  21.209   5.959
 3761POPC   C1A48255  36.821  21.603   6.269
 3761POPC   D2A48256  36.926  21.459   6.707
 3761POPC   C3A48257  36.829  21.653   7.098
 3761POPC   C4A48258  36.953  21.939   7.431
 3761POPC   C1B48259  37.102  21.193   6.277
 3761POPC   C2B48260  37.233  21.037   6.708
 3761POPC   C3B48261  37.157  21.155   7.138
 3761POPC   C4B48262  37.194  21.043   7.563
 3762POPC   NC348263  24.111  24.534   5.627
 3762POPC   PO448264  24.710  24.286   5.535
 3762POPC   GL148265  24.605  24.409   5.911
 3762POPC   GL248266  24.640  24.032   6.017
 3762POPC   C1A48267  24.390  24.618   6.285
 3762POPC   D2A48268  24.179  24.785   6.668
 3762POPC   C3A48269  24.198  24.568   7.062
 3762POPC   C4A48270  24.506  24.719   7.362
 3762POPC   C1B48271  24.778  24.297   6.358
 3762POPC   C2B48272  24.592  24.409   6.738
 3762POPC   C3B48273  24.629  24.286   7.163
 3762POPC   C4B48274  24.716  24.219   7.612
 3763POPC   NC348275  15.404  33.542   5.566
 3763POPC   PO448276  14.977  34.125   5.491
 3763POPC   GL148277  15.231  34.046   5.827
 3763POPC   GL248278  15.049  33.755   5.882
 3763POPC   C1A48279  15.283  34.008   6.285
 3763POPC   D2A48280  15.236  33.698   6.627
 3763POPC   C3A48281  15.265  33.919   7.005
 3763POPC   C4A48282  14.982  34.193   7.206
 3763POPC   C1B48283  14.849  33.419   6.088
 3763POPC   C2B48284  14.925  33.266   6.500
 3763POPC   C3B48285  14.817  33.430   6.940
 3763POPC   C4B48286  14.896  33.697   7.301
 3764POPC   NC348287   3.188  20.820   5.440
 3764POPC   PO448288   3.854  20.756   5.339
 3764POPC   GL148289   3.610  20.563   5.661
 3764POPC   GL248290   3.581  20.882   5.755
 3764POPC   C1A48291   3.522  20.565   6.142
 3764POPC   D2A48292   3.709  20.518   6.554
 3764POPC   C3A48293   3.405  20.452   6.871
 3764POPC   C4A48294   3.387  20.562   7.277
 3764POPC   C1B48295   3.740  21.051   6.105
 3764POPC   C2B48296   3.694  21.041   6.536
 3764POPC   C3B48297   3.718  20.860   6.952
 3764POPC   C4B48298   3.827  20.852   7.388
 3765POPC   NC348299  22.648  17.736   5.574
 3765POPC   PO448300  23.198  17.405   5.313
 3765POPC   GL148301  23.052  17.467   5.753
 3765POPC   GL248302  23.064  17.810   5.901
 3765POPC   C1A48303  23.051  17.419   6.220
 3765POPC   D2A48304  23.109  17.244   6.632
 3765POPC   C3A48305  22.970  17.361   7.016
 3765POPC   C4A48306  23.197  17.283   7.388
 3765POPC   C1B48307  22.729  17.874   6.242
 3765POPC   C2B48308  22.693  17.809   6.696
 3765POPC   C3B48309  22.641  17.705   7.165
 3765POPC   C4B48310  22.660  17.924   7.577
 3766POPC   NC348311  42.094  31.733   5.383
 3766POPC   PO448312  42.526  31.235   5.416
 3766POPC   GL148313  42.257  31.351   5.772
 3766POPC   GL248314  42.055  31.639   5.886
 3766POPC   C1A48315  42.322  31.315   6.222
 3766POPC   D2A48316  42.648  31.326   6.543
 3766POPC   C3A48317  42.442  31.208   6.949
 3766POPC   C4A48318  42.149  31.209   7.269
 3766POPC   C1B48319  42.152  31.807   6.304
 3766POPC   C2B48320  42.193  31.596   6.708
 3766POPC   C3B48321  41.903  31.623   7.066
 3766POPC   C4B48322  41.941  31.876   7.419
 3767POPC   NC348323   2.404  21.640   5.349
 3767POPC   PO448324   2.969  21.218   5.514
 3767POPC   GL148325   2.836  21.265   5.900
 3767POPC   GL248326   2.514  21.367   5.798
 3767POPC   C1A48327   2.932  21.470   6.289
 3767POPC   D2A48328   2.837  21.592   6.707
 3767POPC   C3A48329   3.073  21.510   7.058
 3767POPC   C4A48330   2.932  21.262   7.354
 3767POPC   C1B48331   2.440  21.596   6.187
 3767POPC   C2B48332   2.356  21.454   6.609
 3767POPC   C3B48333   2.515  21.390   7.032
 3767POPC   C4B48334   2.638  21.657   7.363
 3768POPC   NC348335  39.852   9.025   5.506
 3768POPC   PO448336  40.465   8.694   5.338
 3768POPC   GL148337  40.372   8.868   5.769
 3768POPC   GL248338  40.180   9.177   5.886
 3768POPC   C1A48339  40.228   8.720   6.198
 3768POPC   D2A48340  40.066   8.541   6.593
 3768POPC   C3A48341  40.074   8.808   6.972
 3768POPC   C4A48342  39.924   8.670   7.351
 3768POPC   C1B48343  39.829   9.065   6.176
 3768POPC   C2B48344  39.753   8.958   6.605
 3768POPC   C3B48345  39.789   9.254   6.954
 3768POPC   C4B48346  39.859   9.181   7.379
 3769POPC   NC348347  13.392  18.547   5.313
 3769POPC   PO448348  13.718  18.013   5.370
 3769POPC   GL148349  13.558  18.259   5.718
 3769POPC   GL248350  13.611  18.583   5.782
 3769POPC   C1A48351  13.415  18.271   6.158
 3769POPC   D2A48352  13.644  18.058   6.491
 3769POPC   C3A48353  13.550  18.121   6.915
 3769POPC   C4A48354  13.317  18.300   7.219
 3769POPC   C1B48355  13.877  18.512   6.155
 3769POPC   C2B48356  13.772  18.545   6.587
 3769POPC   C3B48357  13.945  18.439   6.980
 3769POPC   C4B48358  14.182  18.554   7.312
 3770POPC   NC348359   1.517  24.806   5.221
 3770POPC   PO448360   1.141  24.275   5.094
 3770POPC   GL148361   1.268  24.404   5.512
 3770POPC   GL248362   1.269  24.133   5.734
 3770POPC   C1A48363   1.279  24.642   5.911
 3770POPC   D2A48364   1.175  24.631   6.370
 3770POPC   C3A48365   1.427  24.816   6.673
 3770POPC   C4A48366   1.430  24.693   7.097
 3770POPC   C1B48367   1.300  24.186   6.169
 3770POPC   C2B48368   1.132  24.160   6.584
 3770POPC   C3B48369   1.127  24.270   7.010
 3770POPC   C4B48370   0.986  24.048   7.375
 3771POPC   NC348371  38.378  32.114   5.456
 3771POPC   PO448372  38.173  32.684   5.418
 3771POPC   GL148373  38.376  32.394   5.860
 3771POPC   GL248374  38.764  32.231   5.886
 3771POPC   C1A48375  38.479  32.269   6.291
 3771POPC   D2A48376  38.277  32.256   6.682
 3771POPC   C3A48377  38.388  32.538   6.975
 3771POPC   C4A48378  38.597  32.471   7.365
 3771POPC   C1B48379  38.901  31.954   6.243
 3771POPC   C2B48380  38.727  31.955   6.654
 3771POPC   C3B48381  38.547  32.016   7.052
 3771POPC   C4B48382  38.896  31.983   7.270
 3772POPC   NC348383  14.271  10.296   5.407
 3772POPC   PO448384  14.829  10.722   5.371
 3772POPC   GL148385  14.519  10.614   5.705
 3772POPC   GL248386  14.587  10.287   5.822
 3772POPC   C1A48387  14.400  10.721   6.135
 3772POPC   D2A48388  14.591  10.634   6.544
 3772POPC   C3A48389  14.471  10.840   6.926
 3772POPC   C4A48390  14.102  10.745   7.148
 3772POPC   C1B48391  14.602  10.060   6.207
 3772POPC   C2B48392  14.431  10.153   6.615
 3772POPC   C3B48393  14.295  10.280   7.022
 3772POPC   C4B48394  14.524  10.193   7.390
 3773POPC   NC348395  33.203   2.920   5.373
 3773POPC   PO448396  33.886   3.064   5.255
 3773POPC   GL148397  33.825   2.963   5.736
 3773POPC   GL248398  34.125   3.034   5.936
 3773POPC   C1A48399  33.773   2.684   6.153
 3773POPC   D2A48400  33.751   2.762   6.602
 3773POPC   C3A48401  33.675   2.538   6.999
 3773POPC   C4A48402  33.691   2.761   7.423
 3773POPC   C1B48403  34.192   2.906   6.356
 3773POPC   C2B48404  34.250   2.669   6.720
 3773POPC   C3B48405  34.029   2.901   7.023
 3773POPC   C4B48406  34.165   2.969   7.398
 3774POPC   NC348407  12.471  31.265   5.098
 3774POPC   PO448408  11.880  31.511   5.334
 3774POPC   GL148409  11.963  31.620   5.801
 3774POPC   GL248410  12.299  31.559   5.716
 3774POPC   C1A48411  11.938  31.678   6.298
 3774POPC   D2A48412  12.062  31.442   6.685
 3774POPC   C3A48413  12.071  31.655   7.099
 3774POPC   C4A48414  12.043  31.654   7.568
 3774POPC   C1B48415  12.416  31.450   6.135
 3774POPC   C2B48416  12.548  31.609   6.528
 3774POPC   C3B48417  12.510  31.488   6.954
 3774POPC   C4B48418  12.503  31.644   7.385
 3775POPC   NC348419   9.636   6.435   5.356
 3775POPC   PO448420   9.196   7.048   5.434
 3775POPC   GL148421   9.458   6.820   5.801
 3775POPC   GL248422   9.826   6.656   5.798
 3775POPC   C1A48423   9.609   6.736   6.250
 3775POPC   D2A48424   9.405   6.745   6.654
 3775POPC   C3A48425   9.594   6.631   7.068
 3775POPC   C4A48426   9.591   6.894   7.459
 3775POPC   C1B48427  10.119   6.518   6.168
 3775POPC   C2B48428  10.209   6.710   6.576
 3775POPC   C3B48429  10.084   6.746   7.013
 3775POPC   C4B48430  10.048   6.657   7.448
 3776POPC   NC348431  27.627  18.652   5.382
 3776POPC   PO448432  27.120  19.143   5.385
 3776POPC   GL148433  27.419  19.326   5.687
 3776POPC   GL248434  27.716  19.152   5.844
 3776POPC   C1A48435  27.412  19.419   6.144
 3776POPC   D2A48436  27.612  19.165   6.435
 3776POPC   C3A48437  27.352  19.019   6.731
 3776POPC   C4A48438  27.336  19.084   7.156
 3776POPC   C1B48439  27.855  18.825   6.137
 3776POPC   C2B48440  27.789  18.650   6.566
 3776POPC   C3B48441  27.687  18.745   7.002
 3776POPC   C4B48442  27.513  18.613   7.389
 3777POPC   NC348443  28.101  12.421   5.379
 3777POPC   PO448444  28.363  11.824   5.490
 3777POPC   GL148445  28.376  11.975   5.897
 3777POPC   GL248446  28.196  12.296   5.877
 3777POPC   C1A48447  28.174  11.966   6.308
 3777POPC   D2A48448  28.149  12.162   6.709
 3777POPC   C3A48449  28.466  12.100   7.004
 3777POPC   C4A48450  28.350  11.938   7.367
 3777POPC   C1B48451  28.003  12.455   6.278
 3777POPC   C2B48452  27.969  12.632   6.731
 3777POPC   C3B48453  28.090  12.459   7.178
 3777POPC   C4B48454  28.076  12.626   7.618
 3778POPC   NC348455  40.283  43.496   5.380
 3778POPC   PO448456  40.412  42.774   5.313
 3778POPC   GL148457  40.223  43.036   5.660
 3778POPC   GL248458  39.916  43.229   5.689
 3778POPC   C1A48459  40.215  43.153   6.121
 3778POPC   D2A48460  39.990  43.123   6.540
 3778POPC   C3A48461  40.200  43.048   6.954
 3778POPC   C4A48462  40.169  42.901   7.400
 3778POPC   C1B48463  39.781  43.441   6.098
 3778POPC   C2B48464  39.796  43.609   6.528
 3778POPC   C3B48465  39.764  43.393   6.936
 3778POPC   C4B48466  40.032  43.397   7.327
 3779POPC   NC348467  32.592  19.094   5.126
 3779POPC   PO448468  33.190  19.019   5.437
 3779POPC   GL148469  33.102  19.183   5.811
 3779POPC   GL248470  32.948  18.923   5.883
 3779POPC   C1A48471  32.972  19.318   6.236
 3779POPC   D2A48472  32.904  19.102   6.642
 3779POPC   C3A48473  32.990  19.291   7.033
 3779POPC   C4A48474  33.136  19.008   7.401
 3779POPC   C1B48475  33.260  18.830   6.180
 3779POPC   C2B48476  33.420  18.877   6.593
 3779POPC   C3B48477  33.298  18.733   6.985
 3779POPC   C4B48478  33.477  18.569   7.356
 3780POPC   NC348479  10.175  37.506   5.438
 3780POPC   PO448480  10.826  37.337   5.422
 3780POPC   GL148481  10.712  37.522   5.829
 3780POPC   GL248482  10.443  37.762   5.798
 3780POPC   C1A48483  10.758  37.727   6.254
 3780POPC   D2A48484  10.556  37.757   6.692
 3780POPC   C3A48485  10.682  37.838   7.142
 3780POPC   C4A48486  10.810  37.893   7.638
 3780POPC   C1B48487  10.261  37.605   6.184
 3780POPC   C2B48488  10.127  37.466   6.626
 3780POPC   C3B48489  10.332  37.440   7.049
 3780POPC   C4B48490  10.313  37.191   7.440
 3781POPC   NC348491  12.424  41.754   5.218
 3781POPC   PO448492  11.784  41.841   5.552
 3781POPC   GL148493  12.078  41.574   5.736
 3781POPC   GL248494  12.370  41.347   5.721
 3781POPC   C1A48495  12.046  41.509   6.150
 3781POPC   D2A48496  12.249  41.587   6.491
 3781POPC   C3A48497  11.963  41.638   6.795
 3781POPC   C4A48498  11.963  41.545   7.201
 3781POPC   C1B48499  12.440  41.195   6.143
 3781POPC   C2B48500  12.476  41.137   6.591
 3781POPC   C3B48501  12.338  41.290   6.993
 3781POPC   C4B48502  12.329  41.321   7.476
 3782POPC   NC348503  41.386  12.705   5.475
 3782POPC   PO448504  41.771  13.212   5.682
 3782POPC   GL148505  41.788  12.892   5.989
 3782POPC   GL248506  41.694  12.567   5.886
 3782POPC   C1A48507  41.867  12.885   6.417
 3782POPC   D2A48508  41.500  13.035   6.661
 3782POPC   C3A48509  41.446  13.078   7.105
 3782POPC   C4A48510  41.526  12.942   7.546
 3782POPC   C1B48511  41.467  12.583   6.294
 3782POPC   C2B48512  41.641  12.523   6.718
 3782POPC   C3B48513  41.596  12.595   7.164
 3782POPC   C4B48514  41.143  12.711   7.291
 3783POPC   NC348515  23.078  21.061   5.315
 3783POPC   PO448516  22.637  21.523   5.410
 3783POPC   GL148517  22.766  21.349   5.798
 3783POPC   GL248518  23.039  21.173   5.821
 3783POPC   C1A48519  22.874  21.604   6.160
 3783POPC   D2A48520  23.075  21.680   6.550
 3783POPC   C3A48521  22.872  21.644   6.928
 3783POPC   C4A48522  22.888  21.602   7.323
 3783POPC   C1B48523  23.234  21.246   6.213
 3783POPC   C2B48524  23.029  21.174   6.579
 3783POPC   C3B48525  23.068  21.173   6.994
 3783POPC   C4B48526  22.673  21.172   7.196
 3784POPC   NC348527   4.846  18.923   5.276
 3784POPC   PO448528   5.099  19.503   5.494
 3784POPC   GL148529   5.091  19.115   5.712
 3784POPC   GL248530   5.406  19.024   5.822
 3784POPC   C1A48531   4.992  19.080   6.168
 3784POPC   D2A48532   4.870  19.289   6.565
 3784POPC   C3A48533   4.846  18.984   6.904
 3784POPC   C4A48534   4.826  19.142   7.304
 3784POPC   C1B48535   5.448  18.831   6.241
 3784POPC   C2B48536   5.307  18.995   6.645
 3784POPC   C3B48537   5.330  19.108   7.082
 3784POPC   C4B48538   5.649  18.889   7.282
 3785POPC   NC348539  38.392  15.574   5.385
 3785POPC   PO448540  38.201  14.989   5.196
 3785POPC   GL148541  38.297  15.065   5.667
 3785POPC   GL248542  38.603  15.195   5.781
 3785POPC   C1A48543  38.184  15.264   6.111
 3785POPC   D2A48544  38.258  15.394   6.584
 3785POPC   C3A48545  38.213  15.227   7.047
 3785POPC   C4A48546  38.351  15.486   7.439
 3785POPC   C1B48547  38.616  15.029   6.215
 3785POPC   C2B48548  38.557  14.949   6.655
 3785POPC   C3B48549  38.680  14.997   7.075
 3785POPC   C4B48550  38.536  15.039   7.525
 3786POPC   NC348551  18.497  42.062   5.295
 3786POPC   PO448552  18.175  41.406   5.349
 3786POPC   GL148553  18.170  41.503   5.799
 3786POPC   GL248554  18.128  41.881   5.860
 3786POPC   C1A48555  18.145  41.462   6.211
 3786POPC   D2A48556  17.950  41.599   6.578
 3786POPC   C3A48557  18.157  41.450   6.953
 3786POPC   C4A48558  18.596  41.269   7.005
 3786POPC   C1B48559  18.252  41.941   6.319
 3786POPC   C2B48560  18.489  41.714   6.624
 3786POPC   C3B48561  18.562  41.789   7.038
 3786POPC   C4B48562  18.262  41.789   7.363
 3787POPC   NC348563  30.030  18.440   5.381
 3787POPC   PO448564  29.589  17.975   5.543
 3787POPC   GL148565  29.931  18.008   5.867
 3787POPC   GL248566  30.069  18.315   5.862
 3787POPC   C1A48567  30.008  17.959   6.335
 3787POPC   D2A48568  29.979  18.135   6.782
 3787POPC   C3A48569  29.951  17.868   7.160
 3787POPC   C4A48570  29.737  17.977   7.540
 3787POPC   C1B48571  30.084  18.550   6.232
 3787POPC   C2B48572  29.879  18.642   6.611
 3787POPC   C3B48573  30.067  18.633   6.996
 3787POPC   C4B48574  30.051  18.341   7.314
 3788POPC   NC348575  27.674  26.837   5.122
 3788POPC   PO448576  27.718  26.272   5.517
 3788POPC   GL148577  27.534  26.641   5.698
 3788POPC   GL248578  27.830  26.814   5.837
 3788POPC   C1A48579  27.356  26.771   6.106
 3788POPC   D2A48580  27.134  27.012   6.454
 3788POPC   C3A48581  27.356  26.940   6.852
 3788POPC   C4A48582  27.302  26.795   7.279
 3788POPC   C1B48583  27.860  26.804   6.284
 3788POPC   C2B48584  27.958  26.944   6.699
 3788POPC   C3B48585  27.797  26.785   7.100
 3788POPC   C4B48586  27.844  27.012   7.499
 3789POPC   NC348587  42.704  38.676   5.593
 3789POPC   PO448588  42.203  38.317   5.249
 3789POPC   GL148589  42.280  38.408   5.655
 3789POPC   GL248590  42.581  38.181   5.672
 3789POPC   C1A48591  42.235  38.608   6.065
 3789POPC   D2A48592  42.288  38.765   6.506
 3789POPC   C3A48593  42.046  38.593   6.837
 3789POPC   C4A48594  42.242  38.470   7.213
 3789POPC   C1B48595  42.618  38.225   6.132
 3789POPC   C2B48596  42.512  38.290   6.581
 3789POPC   C3B48597  42.689  38.278   6.998
 3789POPC   C4B48598  42.647  38.085   7.398
 3790POPC   NC348599  22.403  10.496   5.264
 3790POPC   PO448600  22.433  10.987   5.645
 3790POPC   GL148601  22.306  10.552   5.766
 3790POPC   GL248602  21.999  10.371   5.610
 3790POPC   C1A48603  22.387  10.314   6.130
 3790POPC   D2A48604  22.468  10.516   6.522
 3790POPC   C3A48605  22.209  10.480   6.895
 3790POPC   C4A48606  22.335  10.234   7.240
 3790POPC   C1B48607  21.883  10.341   6.049
 3790POPC   C2B48608  22.007  10.240   6.494
 3790POPC   C3B48609  21.843  10.126   6.922
 3790POPC   C4B48610  21.847  10.251   7.363
 3791POPC   NC348611  14.725  41.803   5.498
 3791POPC   PO448612  14.288  41.352   5.244
 3791POPC   GL148613  14.296  41.506   5.662
 3791POPC   GL248614  14.314  41.793   5.871
 3791POPC   C1A48615  14.219  41.331   6.080
 3791POPC   D2A48616  13.998  41.407   6.467
 3791POPC   C3A48617  14.254  41.359   6.816
 3791POPC   C4A48618  14.241  41.454   7.222
 3791POPC   C1B48619  14.370  41.769   6.328
 3791POPC   C2B48620  14.725  41.878   6.586
 3791POPC   C3B48621  14.818  42.066   6.998
 3791POPC   C4B48622  14.610  41.873   7.364
 3792POPC   NC348623  16.040  13.224   5.217
 3792POPC   PO448624  15.828  12.606   5.359
 3792POPC   GL148625  15.730  12.753   5.724
 3792POPC   GL248626  16.074  12.902   5.710
 3792POPC   C1A48627  15.795  12.788   6.143
 3792POPC   D2A48628  15.636  12.758   6.527
 3792POPC   C3A48629  15.889  12.876   6.846
 3792POPC   C4A48630  15.931  13.012   7.246
 3792POPC   C1B48631  16.164  13.144   6.080
 3792POPC   C2B48632  16.176  13.127   6.490
 3792POPC   C3B48633  16.279  13.202   6.912
 3792POPC   C4B48634  16.347  13.302   7.325
 3793POPC   NC348635  36.958  27.507   5.370
 3793POPC   PO448636  36.505  27.971   5.196
 3793POPC   GL148637  36.641  27.874   5.675
 3793POPC   GL248638  36.619  27.502   5.786
 3793POPC   C1A48639  36.860  27.879   6.119
 3793POPC   D2A48640  37.165  27.739   6.476
 3793POPC   C3A48641  37.045  27.877   6.912
 3793POPC   C4A48642  36.828  27.722   7.295
 3793POPC   C1B48643  36.906  27.375   6.136
 3793POPC   C2B48644  36.878  27.309   6.593
 3793POPC   C3B48645  36.713  27.298   7.025
 3793POPC   C4B48646  36.932  27.224   7.416
 3794POPC   NC348647  33.168   3.876   5.590
 3794POPC   PO448648  32.945   3.299   5.287
 3794POPC   GL148649  32.916   3.372   5.775
 3794POPC   GL248650  32.901   3.695   5.988
 3794POPC   C1A48651  33.003   3.151   6.190
 3794POPC   D2A48652  32.957   2.936   6.627
 3794POPC   C3A48653  33.045   3.234   6.900
 3794POPC   C4A48654  32.847   3.450   7.209
 3794POPC   C1B48655  33.319   3.763   6.238
 3794POPC   C2B48656  33.453   3.698   6.669
 3794POPC   C3B48657  33.125   3.788   6.957
 3794POPC   C4B48658  33.090   3.871   7.427
 3795POPC   NC348659   1.004  29.278   5.512
 3795POPC   PO448660   1.579  28.896   5.416
 3795POPC   GL148661   1.367  29.033   5.789
 3795POPC   GL248662   1.023  28.932   5.923
 3795POPC   C1A48663   1.456  29.043   6.219
 3795POPC   D2A48664   1.173  29.065   6.557
 3795POPC   C3A48665   1.309  29.167   6.957
 3795POPC   C4A48666   1.107  29.062   7.319
 3795POPC   C1B48667   0.781  29.203   6.230
 3795POPC   C2B48668   0.818  29.477   6.625
 3795POPC   C3B48669   0.930  29.520   7.075
 3795POPC   C4B48670   0.814  29.424   7.511
 3796POPC   NC348671  16.704  35.340   5.251
 3796POPC   PO448672  17.235  35.218   5.615
 3796POPC   GL148673  16.839  35.218   5.823
 3796POPC   GL248674  16.767  35.571   5.836
 3796POPC   C1A48675  16.662  35.300   6.259
 3796POPC   D2A48676  16.712  35.488   6.682
 3796POPC   C3A48677  16.367  35.503   7.006
 3796POPC   C4A48678  16.430  35.290   7.383
 3796POPC   C1B48679  17.123  35.489   6.180
 3796POPC   C2B48680  17.282  35.357   6.566
 3796POPC   C3B48681  17.127  35.458   6.983
 3796POPC   C4B48682  16.946  35.254   7.336
 3797POPC   NC348683  34.984  16.326   5.293
 3797POPC   PO448684  35.668  16.597   5.349
 3797POPC   GL148685  35.436  16.561   5.777
 3797POPC   GL248686  35.085  16.675   5.804
 3797POPC   C1A48687  35.374  16.752   6.237
 3797POPC   D2A48688  35.402  17.038   6.618
 3797POPC   C3A48689  35.444  16.881   7.045
 3797POPC   C4A48690  35.607  17.023   7.431
 3797POPC   C1B48691  34.929  16.487   6.217
 3797POPC   C2B48692  34.987  16.685   6.658
 3797POPC   C3B48693  34.981  16.648   7.128
 3797POPC   C4B48694  35.258  16.596   7.482
 3798POPC   NC348695  21.720  43.049   5.435
 3798POPC   PO448696  21.121  43.441   5.548
 3798POPC   GL148697  21.336  43.178   5.794
 3798POPC   GL248698  21.108  42.951   5.914
 3798POPC   C1A48699  21.575  43.333   6.146
 3798POPC   D2A48700  21.666  43.483   6.558
 3798POPC   C3A48701  21.586  43.121   6.837
 3798POPC   C4A48702  21.354  42.855   7.112
 3798POPC   C1B48703  21.028  43.310   6.202
 3798POPC   C2B48704  21.155  43.445   6.589
 3798POPC   C3B48705  21.112  43.277   6.985
 3798POPC   C4B48706  20.859  43.017   7.232
 3799POPC   NC348707  43.753  19.684   5.269
 3799POPC   PO448708  44.424  19.896   5.254
 3799POPC   GL148709  44.098  19.885   5.642
 3799POPC   GL248710  43.699  19.977   5.812
 3799POPC   C1A48711  44.116  19.941   6.102
 3799POPC   D2A48712  44.187  19.735   6.517
 3799POPC   C3A48713  44.184  19.957   6.906
 3799POPC   C4A48714  44.194  19.829   7.339
 3799POPC   C1B48715  43.460  20.046   6.220
 3799POPC   C2B48716  43.476  19.871   6.639
 3799POPC   C3B48717  43.717  19.790   7.044
 3799POPC   C4B48718  43.707  19.738   7.518
 3800POPC   NC348719  36.328   8.344   5.088
 3800POPC   PO448720  35.995   7.821   5.375
 3800POPC   GL148721  36.081   8.022   5.765
 3800POPC   GL248722  36.387   8.172   5.795
 3800POPC   C1A48723  36.071   8.070   6.215
 3800POPC   D2A48724  36.322   8.042   6.594
 3800POPC   C3A48725  36.003   8.052   6.907
 3800POPC   C4A48726  35.989   8.187   7.310
 3800POPC   C1B48727  36.494   8.379   6.214
 3800POPC   C2B48728  36.355   8.573   6.630
 3800POPC   C3B48729  36.363   8.471   7.072
 3800POPC   C4B48730  36.394   8.418   7.527
 3801POPC   NC348731  30.550  29.471   5.388
 3801POPC   PO448732  30.882  30.057   5.290
 3801POPC   GL148733  30.849  30.040   5.723
 3801POPC   GL248734  31.150  30.188   5.773
 3801POPC   C1A48735  30.812  29.799   6.110
 3801POPC   D2A48736  30.557  29.735   6.498
 3801POPC   C3A48737  30.708  29.892   6.910
 3801POPC   C4A48738  30.776  29.691   7.283
 3801POPC   C1B48739  31.055  30.254   6.181
 3801POPC   C2B48740  30.923  30.221   6.582
 3801POPC   C3B48741  31.134  30.325   6.943
 3801POPC   C4B48742  31.015  30.194   7.310
 3802POPC   NC348743  22.569  23.900   5.447
 3802POPC   PO448744  23.163  23.574   5.594
 3802POPC   GL148745  22.980  23.722   5.940
 3802POPC   GL248746  22.784  23.443   5.904
 3802POPC   C1A48747  23.193  23.865   6.307
 3802POPC   D2A48748  23.183  24.047   6.719
 3802POPC   C3A48749  23.012  23.825   7.080
 3802POPC   C4A48750  22.767  24.068   7.360
 3802POPC   C1B48751  23.050  23.368   6.329
 3802POPC   C2B48752  23.007  23.355   6.812
 3802POPC   C3B48753  22.729  23.400   7.200
 3802POPC   C4B48754  22.751  23.271   7.659
 3803POPC   NC348755   0.456   7.300   5.602
 3803POPC   PO448756   0.945   7.650   5.285
 3803POPC   GL148757   0.792   7.663   5.731
 3803POPC   GL248758   0.430   7.745   5.843
 3803POPC   C1A48759   0.836   7.598   6.186
 3803POPC   D2A48760   0.841   7.300   6.540
 3803POPC   C3A48761   0.668   7.459   6.920
 3803POPC   C4A48762   0.712   7.328   7.345
 3803POPC   C1B48763   0.333   7.494   6.255
 3803POPC   C2B48764   0.245   7.167   6.614
 3803POPC   C3B48765   0.262   7.172   7.060
 3803POPC   C4B48766   0.225   7.590   7.194
 3804POPC   NC348767  16.565   4.011   5.379
 3804POPC   PO448768  16.930   4.495   5.520
 3804POPC   GL148769  16.881   4.387   5.908
 3804POPC   GL248770  16.583   4.235   5.850
 3804POPC   C1A48771  17.001   4.589   6.293
 3804POPC   D2A48772  17.223   4.485   6.683
 3804POPC   C3A48773  16.898   4.437   7.041
 3804POPC   C4A48774  16.924   4.418   7.516
 3804POPC   C1B48775  16.717   4.024   6.213
 3804POPC   C2B48776  16.827   4.162   6.591
 3804POPC   C3B48777  16.702   3.970   6.945
 3804POPC   C4B48778  16.605   3.909   7.326
 3805POPC   NC348779   0.095  33.637   5.335
 3805POPC   PO448780   0.684  33.972   5.551
 3805POPC   GL148781   0.409  33.766   5.801
 3805POPC   GL248782   0.161  34.027   5.784
 3805POPC   C1A48783   0.511  33.548   6.208
 3805POPC   D2A48784   0.498  33.414   6.639
 3805POPC   C3A48785   0.652  33.637   7.053
 3805POPC   C4A48786   0.569  33.757   7.527
 3805POPC   C1B48787   0.283  33.996   6.242
 3805POPC   C2B48788   0.620  33.958   6.560
 3805POPC   C3B48789   0.554  34.140   6.966
 3805POPC   C4B48790   0.231  34.002   7.270
 3806POPC   NC348791   2.435  20.888   5.441
 3806POPC   PO448792   2.969  20.420   5.411
 3806POPC   GL148793   2.882  20.688   5.820
 3806POPC   GL248794   2.544  20.840   5.928
 3806POPC   C1A48795   2.848  20.591   6.254
 3806POPC   D2A48796   2.610  20.586   6.634
 3806POPC   C3A48797   2.916  20.530   6.932
 3806POPC   C4A48798   2.984  20.236   7.287
 3806POPC   C1B48799   2.607  21.063   6.313
 3806POPC   C2B48800   2.773  21.077   6.715
 3806POPC   C3B48801   2.572  20.893   7.074
 3806POPC   C4B48802   2.533  20.481   7.253
 3807POPC   NC348803  29.715   8.305   5.263
 3807POPC   PO448804  30.157   7.965   5.592
 3807POPC   GL148805  29.990   8.176   5.924
 3807POPC   GL248806  29.699   8.214   5.760
 3807POPC   C1A48807  29.933   8.470   6.268
 3807POPC   D2A48808  30.188   8.581   6.629
 3807POPC   C3A48809  29.999   8.502   7.013
 3807POPC   C4A48810  30.050   8.105   7.272
 3807POPC   C1B48811  29.549   8.044   6.147
 3807POPC   C2B48812  29.571   8.210   6.538
 3807POPC   C3B48813  29.720   8.096   6.889
 3807POPC   C4B48814  29.546   8.094   7.241
 3808POPC   NC348815  38.184   2.240   5.422
 3808POPC   PO448816  38.772   1.963   5.298
 3808POPC   GL148817  38.542   1.969   5.726
 3808POPC   GL248818  38.522   2.333   5.813
 3808POPC   C1A48819  38.486   1.825   6.191
 3808POPC   D2A48820  38.289   1.973   6.606
 3808POPC   C3A48821  38.465   2.028   7.001
 3808POPC   C4A48822  38.542   1.747   7.325
 3808POPC   C1B48823  38.320   2.312   6.230
 3808POPC   C2B48824  38.347   2.489   6.667
 3808POPC   C3B48825  38.078   2.384   7.032
 3808POPC   C4B48826  38.220   2.155   7.424
 3809POPC   NC348827  34.260  22.469   5.526
 3809POPC   PO448828  34.582  21.997   5.171
 3809POPC   GL148829  34.663  21.932   5.654
 3809POPC   GL248830  34.661  22.262   5.779
 3809POPC   C1A48831  34.505  21.872   6.112
 3809POPC   D2A48832  34.338  21.804   6.565
 3809POPC   C3A48833  34.601  21.972   6.945
 3809POPC   C4A48834  34.698  21.899   7.391
 3809POPC   C1B48835  34.384  22.359   6.146
 3809POPC   C2B48836  34.458  22.303   6.548
 3809POPC   C3B48837  34.529  22.536   6.903
 3809POPC   C4B48838  34.548  22.373   7.299
 3810POPC   NC348839  37.806  24.314   5.255
 3810POPC   PO448840  37.602  24.845   5.612
 3810POPC   GL148841  37.667  24.445   5.759
 3810POPC   GL248842  37.365  24.261   5.726
 3810POPC   C1A48843  37.790  24.472   6.200
 3810POPC   D2A48844  37.897  24.774   6.516
 3810POPC   C3A48845  37.837  24.628   6.964
 3810POPC   C4A48846  37.533  24.671   7.339
 3810POPC   C1B48847  37.283  24.507   6.114
 3810POPC   C2B48848  37.420  24.326   6.501
 3810POPC   C3B48849  37.381  24.412   6.891
 3810POPC   C4B48850  37.306  24.216   7.250
 3811POPC   NC348851  39.455   6.085   5.419
 3811POPC   PO448852  38.973   5.620   5.171
 3811POPC   GL148853  39.100   5.631   5.683
 3811POPC   GL248854  39.155   5.942   5.793
 3811POPC   C1A48855  39.264   5.642   6.170
 3811POPC   D2A48856  39.460   5.515   6.554
 3811POPC   C3A48857  39.265   5.709   6.878
 3811POPC   C4A48858  39.223   5.955   7.180
 3811POPC   C1B48859  38.987   6.108   6.163
 3811POPC   C2B48860  39.120   6.144   6.593
 3811POPC   C3B48861  38.822   6.076   6.901
 3811POPC   C4B48862  38.720   5.982   7.334
 3812POPC   NC348863  44.422  34.904   5.603
 3812POPC   PO448864   0.043  34.516   5.425
 3812POPC   GL148865  44.752  34.549   5.769
 3812POPC   GL248866  44.837  34.900   5.920
 3812POPC   C1A48867  44.518  34.506   6.186
 3812POPC   D2A48868  44.401  34.700   6.603
 3812POPC   C3A48869  44.578  34.535   6.974
 3812POPC   C4A48870  44.553  34.583   7.415
 3812POPC   C1B48871  44.843  34.849   6.378
 3812POPC   C2B48872  44.946  34.860   6.807
 3812POPC   C3B48873   0.002  34.837   7.266
 3812POPC   C4B48874  44.882  34.833   7.752
 3813POPC   NC348875  35.535   5.489   5.446
 3813POPC   PO448876  35.191   4.811   5.343
 3813POPC   GL148877  35.268   5.119   5.713
 3813POPC   GL248878  35.540   4.901   5.831
 3813POPC   C1A48879  35.406   5.300   6.144
 3813POPC   D2A48880  35.282   5.115   6.561
 3813POPC   C3A48881  35.399   5.204   7.011
 3813POPC   C4A48882  35.172   5.256   7.446
 3813POPC   C1B48883  35.635   4.772   6.266
 3813POPC   C2B48884  35.522   4.660   6.696
 3813POPC   C3B48885  35.714   4.810   7.087
 3813POPC   C4B48886  35.937   4.850   7.491
 3814POPC   NC348887  20.353  20.584   5.474
 3814POPC   PO448888  20.986  20.845   5.517
 3814POPC   GL148889  20.759  20.696   5.867
 3814POPC   GL248890  20.513  20.922   5.914
 3814POPC   C1A48891  20.809  20.724   6.337
 3814POPC   D2A48892  20.756  20.865   6.775
 3814POPC   C3A48893  20.913  20.602   7.134
 3814POPC   C4A48894  21.096  20.698   7.557
 3814POPC   C1B48895  20.328  20.643   6.198
 3814POPC   C2B48896  20.396  20.478   6.614
 3814POPC   C3B48897  20.406  20.530   7.044
 3814POPC   C4B48898  20.423  20.950   7.147
 3815POPC   NC348899   6.552   3.142   5.522
 3815POPC   PO448900   6.267   2.562   5.519
 3815POPC   GL148901   6.644   2.513   5.754
 3815POPC   GL248902   6.833   2.822   5.834
 3815POPC   C1A48903   6.672   2.460   6.191
 3815POPC   D2A48904   6.722   2.407   6.630
 3815POPC   C3A48905   6.587   2.653   6.988
 3815POPC   C4A48906   6.569   2.477   7.365
 3815POPC   C1B48907   7.029   2.813   6.275
 3815POPC   C2B48908   6.891   2.963   6.704
 3815POPC   C3B48909   6.818   3.135   7.133
 3815POPC   C4B48910   6.746   3.405   7.498
 3816POPC   NC348911   7.592  28.215   5.269
 3816POPC   PO448912   6.958  28.080   5.179
 3816POPC   GL148913   7.065  28.289   5.623
 3816POPC   GL248914   7.279  28.612   5.703
 3816POPC   C1A48915   7.124  28.370   6.109
 3816POPC   D2A48916   7.475  28.336   6.435
 3816POPC   C3A48917   7.332  28.379   6.864
 3816POPC   C4A48918   7.557  28.238   7.242
 3816POPC   C1B48919   7.561  28.704   6.101
 3816POPC   C2B48920   7.733  28.780   6.565
 3816POPC   C3B48921   7.770  28.671   7.038
 3816POPC   C4B48922   7.658  28.667   7.521
 3817POPC   NC348923  13.610  36.118   5.042
 3817POPC   PO448924  14.015  36.327   5.514
 3817POPC   GL148925  13.789  36.116   5.818
 3817POPC   GL248926  13.425  36.000   5.738
 3817POPC   C1A48927  13.831  36.188   6.259
 3817POPC   D2A48928  13.686  36.012   6.640
 3817POPC   C3A48929  13.752  36.317   6.972
 3817POPC   C4A48930  13.552  36.396   7.367
 3817POPC   C1B48931  13.313  36.080   6.179
 3817POPC   C2B48932  13.099  36.084   6.589
 3817POPC   C3B48933  13.260  36.207   6.950
 3817POPC   C4B48934  13.533  35.895   7.107
 3818POPC   NC348935  15.573   1.221   4.976
 3818POPC   PO448936  15.013   1.248   5.267
 3818POPC   GL148937  15.212   1.341   5.660
 3818POPC   GL248938  15.018   1.611   5.734
 3818POPC   C1A48939  15.266   1.201   6.122
 3818POPC   D2A48940  15.330   0.978   6.526
 3818POPC   C3A48941  15.134   1.175   6.880
 3818POPC   C4A48942  15.435   1.168   7.217
 3818POPC   C1B48943  14.836   1.502   6.155
 3818POPC   C2B48944  14.732   1.574   6.605
 3818POPC   C3B48945  14.739   1.510   7.051
 3818POPC   C4B48946  15.058   1.473   7.331
 3819POPC   NC348947  19.172   2.313   5.287
 3819POPC   PO448948  19.308   2.835   5.649
 3819POPC   GL148949  19.060   2.938   5.956
 3819POPC   GL248950  19.278   3.127   6.141
 3819POPC   C1A48951  18.803   2.796   6.242
 3819POPC   D2A48952  18.848   2.546   6.605
 3819POPC   C3A48953  18.897   2.712   6.994
 3819POPC   C4A48954  18.874   2.537   7.419
 3819POPC   C1B48955  19.286   2.718   6.376
 3819POPC   C2B48956  19.388   2.725   6.798
 3819POPC   C3B48957  19.322   2.492   7.172
 3819POPC   C4B48958  19.339   2.505   7.645
 3820POPC   NC348959  44.815   3.861   5.369
 3820POPC   PO448960  44.659   3.173   5.364
 3820POPC   GL148961  44.644   3.497   5.719
 3820POPC   GL248962  44.971   3.596   5.794
 3820POPC   C1A48963  44.420   3.607   6.163
 3820POPC   D2A48964  44.427   3.382   6.536
 3820POPC   C3A48965  44.380   3.561   6.928
 3820POPC   C4A48966  44.346   3.181   7.171
 3820POPC   C1B48967  44.855   3.837   6.111
 3820POPC   C2B48968  44.772   3.759   6.552
 3820POPC   C3B48969  44.790   3.915   6.973
 3820POPC   C4B48970  44.508   3.888   7.314
 3821POPC   NC348971   3.658  44.114   5.687
 3821POPC   PO448972   3.156  43.764   5.294
 3821POPC   GL148973   3.394  43.645   5.697
 3821POPC   GL248974   3.747  43.563   5.694
 3821POPC   C1A48975   3.450  43.641   6.192
 3821POPC   D2A48976   3.417  43.724   6.662
 3821POPC   C3A48977   3.639  44.068   6.842
 3821POPC   C4A48978   3.848  44.139   7.222
 3821POPC   C1B48979   3.911  43.451   6.090
 3821POPC   C2B48980   3.950  43.638   6.514
 3821POPC   C3B48981   3.901  43.636   6.946
 3821POPC   C4B48982   3.539  43.703   7.200
 3822POPC   NC348983  10.812  19.086   5.409
 3822POPC   PO448984  10.195  19.147   5.229
 3822POPC   GL148985  10.418  19.052   5.736
 3822POPC   GL248986  10.728  18.911   5.879
 3822POPC   C1A48987  10.345  18.855   6.207
 3822POPC   D2A48988  10.201  18.893   6.649
 3822POPC   C3A48989  10.267  19.205   6.947
 3822POPC   C4A48990  10.315  18.816   7.178
 3822POPC   C1B48991  10.647  19.273   6.163
 3822POPC   C2B48992  10.616  19.294   6.592
 3822POPC   C3B48993  10.710  18.951   6.881
 3822POPC   C4B48994  10.817  18.892   7.299
 3823POPC   NC348995  25.514  11.330   5.023
 3823POPC   PO448996  25.139  10.901   5.354
 3823POPC   GL148997  25.256  11.030   5.750
 3823POPC   GL248998  24.906  11.025   5.825
 3823POPC   C1A48999  25.372  11.334   6.091
 3823POPC   D2A49000  25.253  11.378   6.534
 3823POPC   C3A49001  25.511  11.322   6.886
 3823POPC   C4A49002  25.371  11.383   7.305
 3823POPC   C1B49003  25.086  10.919   6.236
 3823POPC   C2B49004  24.962  10.958   6.658
 3823POPC   C3B49005  24.977  11.251   6.968
 3823POPC   C4B49006  24.907  11.186   7.382
 3824POPC   NC349007  28.757  27.967   5.262
 3824POPC   PO449008  28.973  27.354   5.224
 3824POPC   GL149009  28.940  27.369   5.683
 3824POPC   GL249010  28.865  27.723   5.731
 3824POPC   C1A49011  29.092  27.384   6.123
 3824POPC   D2A49012  29.299  27.442   6.529
 3824POPC   C3A49013  29.057  27.432   6.909
 3824POPC   C4A49014  28.980  27.459   7.356
 3824POPC   C1B49015  28.924  27.876   6.167
 3824POPC   C2B49016  29.090  27.910   6.593
 3824POPC   C3B49017  28.887  27.916   6.986
 3824POPC   C4B49018  28.557  27.744   7.252
 3825POPC   NC349019  14.619  12.557   5.452
 3825POPC   PO449020  14.150  13.028   5.320
 3825POPC   GL149021  14.218  12.803   5.685
 3825POPC   GL249022  14.527  12.911   5.810
 3825POPC   C1A49023  14.106  12.784   6.126
 3825POPC   D2A49024  14.217  12.510   6.486
 3825POPC   C3A49025  14.284  12.762   6.848
 3825POPC   C4A49026  14.291  12.835   7.280
 3825POPC   C1B49027  14.638  12.819   6.234
 3825POPC   C2B49028  14.681  13.010   6.635
 3825POPC   C3B49029  14.873  13.045   7.065
 3825POPC   C4B49030  14.710  12.997   7.509
 3826POPC   NC349031  26.979   4.652   5.416
 3826POPC   PO449032  26.567   5.303   5.483
 3826POPC   GL149033  26.834   5.287   5.792
 3826POPC   GL249034  26.806   4.943   5.800
 3826POPC   C1A49035  26.881   5.426   6.192
 3826POPC   D2A49036  26.952   5.218   6.568
 3826POPC   C3A49037  26.749   5.204   6.920
 3826POPC   C4A49038  26.772   5.574   7.081
 3826POPC   C1B49039  26.896   4.850   6.213
 3826POPC   C2B49040  27.037   4.707   6.625
 3826POPC   C3B49041  27.175   4.952   6.985
 3826POPC   C4B49042  26.992   5.087   7.356
 3827POPC   NC349043  13.294  21.029   5.503
 3827POPC   PO449044  12.749  20.848   5.119
 3827POPC   GL149045  12.870  20.741   5.599
 3827POPC   GL249046  12.619  20.491   5.711
 3827POPC   C1A49047  13.011  20.748   6.060
 3827POPC   D2A49048  13.050  20.859   6.505
 3827POPC   C3A49049  12.800  20.721   6.848
 3827POPC   C4A49050  12.983  20.530   7.241
 3827POPC   C1B49051  12.937  20.256   5.964
 3827POPC   C2B49052  13.098  20.298   6.404
 3827POPC   C3B49053  12.900  20.249   6.807
 3827POPC   C4B49054  12.511  20.416   7.144
 3828POPC   NC349055  44.886  38.529   5.491
 3828POPC   PO449056  44.535  39.065   5.120
 3828POPC   GL149057  44.476  39.057   5.648
 3828POPC   GL249058  44.525  39.425   5.800
 3828POPC   C1A49059  44.557  39.025   6.121
 3828POPC   D2A49060  44.527  39.333   6.482
 3828POPC   C3A49061  44.559  39.107   6.860
 3828POPC   C4A49062  44.787  39.142   7.208
 3828POPC   C1B49063  44.880  39.439   6.127
 3828POPC   C2B49064   0.116  39.607   6.471
 3828POPC   C3B49065   0.016  39.553   6.927
 3828POPC   C4B49066   0.242  39.459   7.301
 3829POPC   NC349067  44.212   6.184   5.637
 3829POPC   PO449068  44.938   6.018   5.381
 3829POPC   GL149069  44.759   5.943   5.783
 3829POPC   GL249070  44.607   5.585   5.823
 3829POPC   C1A49071  44.658   6.193   6.146
 3829POPC   D2A49072  44.653   6.158   6.574
 3829POPC   C3A49073  44.752   5.947   6.925
 3829POPC   C4A49074  44.465   5.952   7.241
 3829POPC   C1B49075  44.690   5.681   6.258
 3829POPC   C2B49076  44.716   5.485   6.668
 3829POPC   C3B49077  44.967   5.508   7.033
 3829POPC   C4B49078  44.922   5.773   7.395
 3830POPC   NC349079  17.301  23.949   5.387
 3830POPC   PO449080  17.910  23.578   5.370
 3830POPC   GL149081  17.603  23.621   5.713
 3830POPC   GL249082  17.566  23.975   5.843
 3830POPC   C1A49083  17.678  23.559   6.166
 3830POPC   D2A49084  17.814  23.847   6.524
 3830POPC   C3A49085  17.596  23.802   6.918
 3830POPC   C4A49086  17.267  23.567   7.116
 3830POPC   C1B49087  17.318  23.898   6.258
 3830POPC   C2B49088  17.180  23.985   6.700
 3830POPC   C3B49089  17.251  24.097   7.161
 3830POPC   C4B49090  17.157  23.978   7.589
 3831POPC   NC349091  37.179  11.664   5.086
 3831POPC   PO449092  36.608  11.631   5.525
 3831POPC   GL149093  36.620  11.977   5.812
 3831POPC   GL249094  36.938  12.184   5.741
 3831POPC   C1A49095  36.706  11.956   6.254
 3831POPC   D2A49096  36.990  11.981   6.578
 3831POPC   C3A49097  36.853  12.219   6.909
 3831POPC   C4A49098  36.737  11.987   7.259
 3831POPC   C1B49099  37.058  12.323   6.164
 3831POPC   C2B49100  37.284  12.392   6.576
 3831POPC   C3B49101  37.279  12.515   7.019
 3831POPC   C4B49102  37.090  12.341   7.371
 3832POPC   NC349103  37.130  14.916   5.541
 3832POPC   PO449104  36.928  15.613   5.627
 3832POPC   GL149105  36.802  15.288   5.863
 3832POPC   GL249106  36.818  14.917   5.918
 3832POPC   C1A49107  36.729  15.474   6.270
 3832POPC   D2A49108  36.845  15.477   6.697
 3832POPC   C3A49109  37.081  15.182   6.956
 3832POPC   C4A49110  36.943  15.114   7.365
 3832POPC   C1B49111  36.988  15.040   6.300
 3832POPC   C2B49112  36.748  14.948   6.637
 3832POPC   C3B49113  36.730  14.798   7.037
 3832POPC   C4B49114  36.471  14.905   7.388
 3833POPC   NC349115  41.810  38.548   5.394
 3833POPC   PO449116  41.264  38.727   5.756
 3833POPC   GL149117  41.689  38.649   5.898
 3833POPC   GL249118  41.808  38.318   5.849
 3833POPC   C1A49119  41.797  38.614   6.326
 3833POPC   D2A49120  41.422  38.603   6.597
 3833POPC   C3A49121  41.546  38.534   7.020
 3833POPC   C4A49122  41.450  38.297   7.365
 3833POPC   C1B49123  41.571  38.185   6.201
 3833POPC   C2B49124  41.710  38.180   6.652
 3833POPC   C3B49125  41.877  38.146   7.105
 3833POPC   C4B49126  41.861  38.135   7.606
 3834POPC   NC349127  38.045   7.584   5.509
 3834POPC   PO449128  38.572   7.185   5.470
 3834POPC   GL149129  38.381   7.380   5.833
 3834POPC   GL249130  38.473   7.652   6.035
 3834POPC   C1A49131  38.384   7.210   6.245
 3834POPC   D2A49132  38.597   7.007   6.580
 3834POPC   C3A49133  38.326   6.962   6.924
 3834POPC   C4A49134  38.632   6.959   7.227
 3834POPC   C1B49135  38.230   7.717   6.379
 3834POPC   C2B49136  38.206   7.447   6.720
 3834POPC   C3B49137  38.555   7.420   6.981
 3834POPC   C4B49138  38.578   7.697   7.333
 3835POPC   NC349139   9.066  30.928   5.458
 3835POPC   PO449140   8.789  30.257   5.423
 3835POPC   GL149141   8.964  30.512   5.814
 3835POPC   GL249142   9.178  30.792   5.918
 3835POPC   C1A49143   8.984  30.497   6.312
 3835POPC   D2A49144   8.994  30.335   6.783
 3835POPC   C3A49145   8.797  30.543   7.168
 3835POPC   C4A49146   8.470  30.804   7.387
 3835POPC   C1B49147   9.204  30.972   6.309
 3835POPC   C2B49148   9.279  30.761   6.682
 3835POPC   C3B49149   9.236  30.835   7.103
 3835POPC   C4B49150   9.221  31.249   7.260
 3836POPC   NC349151   0.219  23.734   5.309
 3836POPC   PO449152   0.827  23.995   5.513
 3836POPC   GL149153   0.557  23.706   5.790
 3836POPC   GL249154   0.216  23.796   5.816
 3836POPC   C1A49155   0.422  23.469   6.211
 3836POPC   D2A49156   0.479  23.320   6.673
 3836POPC   C3A49157   0.270  23.517   7.063
 3836POPC   C4A49158   0.315  23.466   7.524
 3836POPC   C1B49159   0.344  23.972   6.217
 3836POPC   C2B49160   0.275  23.872   6.671
 3836POPC   C3B49161   0.265  24.068   7.099
 3836POPC   C4B49162   0.110  23.941   7.490
 3837POPC   NC349163  13.203  39.604   5.427
 3837POPC   PO449164  12.608  39.198   5.443
 3837POPC   GL149165  12.816  39.379   5.739
 3837POPC   GL249166  12.630  39.682   5.700
 3837POPC   C1A49167  13.009  39.303   6.131
 3837POPC   D2A49168  13.182  39.245   6.536
 3837POPC   C3A49169  12.938  39.219   6.884
 3837POPC   C4A49170  12.964  39.208   7.305
 3837POPC   C1B49171  12.582  39.611   6.147
 3837POPC   C2B49172  12.632  39.472   6.556
 3837POPC   C3B49173  12.639  39.621   6.986
 3837POPC   C4B49174  12.558  39.535   7.374
 3838POPC   NC349175  37.224   8.512   5.493
 3838POPC   PO449176  37.009   9.182   5.467
 3838POPC   GL149177  37.080   8.923   5.819
 3838POPC   GL249178  36.772   8.898   5.974
 3838POPC   C1A49179  37.167   8.778   6.249
 3838POPC   D2A49180  36.841   8.629   6.527
 3838POPC   C3A49181  36.766   8.790   6.926
 3838POPC   C4A49182  37.159   8.856   7.090
 3838POPC   C1B49183  36.494   8.912   6.251
 3838POPC   C2B49184  36.581   9.130   6.587
 3838POPC   C3B49185  36.668   9.300   6.952
 3838POPC   C4B49186  36.830   9.161   7.323
 3839POPC   NC349187  12.215  39.451   5.423
 3839POPC   PO449188  12.118  40.132   5.517
 3839POPC   GL149189  12.254  40.006   5.899
 3839POPC   GL249190  12.150  39.675   5.892
 3839POPC   C1A49191  12.259  40.176   6.297
 3839POPC   D2A49192  12.454  39.946   6.613
 3839POPC   C3A49193  12.294  40.006   7.007
 3839POPC   C4A49194  11.966  40.228   7.145
 3839POPC   C1B49195  12.084  39.719   6.322
 3839POPC   C2B49196  11.879  39.918   6.661
 3839POPC   C3B49197  11.683  39.683   6.980
 3839POPC   C4B49198  11.709  39.796   7.357
 3840POPC   NC349199  31.566  19.164   5.279
 3840POPC   PO449200  32.234  19.303   5.352
 3840POPC   GL149201  31.913  19.200   5.660
 3840POPC   GL249202  31.782  18.844   5.673
 3840POPC   C1A49203  31.657  19.284   6.067
 3840POPC   D2A49204  31.337  19.347   6.422
 3840POPC   C3A49205  31.412  19.191   6.860
 3840POPC   C4A49206  31.382  19.484   7.215
 3840POPC   C1B49207  31.657  18.742   6.118
 3840POPC   C2B49208  31.529  18.646   6.565
 3840POPC   C3B49209  31.737  18.619   6.931
 3840POPC   C4B49210  31.653  18.873   7.227
 3841POPC   NC349211   3.381  18.761   5.466
 3841POPC   PO449212   3.855  18.288   5.527
 3841POPC   GL149213   3.701  18.265   5.884
 3841POPC   GL249214   3.382  18.433   5.868
 3841POPC   C1A49215   3.759  18.384   6.269
 3841POPC   D2A49216   3.696  18.511   6.659
 3841POPC   C3A49217   3.945  18.295   6.958
 3841POPC   C4A49218   3.681  18.091   7.181
 3841POPC   C1B49219   3.257  18.266   6.276
 3841POPC   C2B49220   3.197  18.393   6.718
 3841POPC   C3B49221   3.176  18.252   7.172
 3841POPC   C4B49222   3.137  18.263   7.661
 3842POPC   NC349223  36.637  31.755   5.514
 3842POPC   PO449224  37.026  31.293   5.131
 3842POPC   GL149225  36.998  31.221   5.614
 3842POPC   GL249226  37.063  31.552   5.744
 3842POPC   C1A49227  36.965  31.215   6.115
 3842POPC   D2A49228  37.090  31.338   6.559
 3842POPC   C3A49229  36.788  31.291   6.918
 3842POPC   C4A49230  36.661  31.308   7.366
 3842POPC   C1B49231  37.021  31.728   6.162
 3842POPC   C2B49232  37.223  31.839   6.527
 3842POPC   C3B49233  37.032  31.762   6.907
 3842POPC   C4B49234  36.819  31.784   7.268
 3843POPC   NC349235  17.016  43.939   5.049
 3843POPC   PO449236  16.581  43.627   5.459
 3843POPC   GL149237  16.777  43.820   5.815
 3843POPC   GL249238  16.668  44.153   5.712
 3843POPC   C1A49239  16.750  43.721   6.286
 3843POPC   D2A49240  16.839  43.824   6.724
 3843POPC   C3A49241  16.720  43.620   7.117
 3843POPC   C4A49242  16.824  43.847   7.487
 3843POPC   C1B49243  16.472  44.111   6.135
 3843POPC   C2B49244  16.469  44.172   6.603
 3843POPC   C3B49245  16.575  44.131   7.069
 3843POPC   C4B49246  16.800  44.381   7.397
 3844POPC   NC349247  44.159  21.768   5.431
 3844POPC   PO449248  43.832  21.245   5.224
 3844POPC   GL149249  43.879  21.401   5.682
 3844POPC   GL249250  43.712  21.730   5.739
 3844POPC   C1A49251  43.980  21.401   6.172
 3844POPC   D2A49252  43.713  21.327   6.576
 3844POPC   C3A49253  43.893  21.211   6.985
 3844POPC   C4A49254  44.158  21.366   7.325
 3844POPC   C1B49255  43.568  21.701   6.166
 3844POPC   C2B49256  43.806  21.831   6.527
 3844POPC   C3B49257  43.968  21.720   6.953
 3844POPC   C4B49258  43.698  21.581   7.290
 3845POPC   NC349259  42.644  28.439   5.486
 3845POPC   PO449260  43.227  28.164   5.350
 3845POPC   GL149261  43.044  28.168   5.759
 3845POPC   GL249262  43.077  28.511   5.836
 3845POPC   C1A49263  43.266  28.133   6.173
 3845POPC   D2A49264  43.114  28.092   6.595
 3845POPC   C3A49265  43.356  28.272   6.906
 3845POPC   C4A49266  43.138  28.483   7.218
 3845POPC   C1B49267  43.011  28.552   6.310
 3845POPC   C2B49268  42.767  28.499   6.722
 3845POPC   C3B49269  42.688  28.728   7.133
 3845POPC   C4B49270  42.837  28.636   7.599
 3846POPC   NC349271   4.741  41.328   5.348
 3846POPC   PO449272   5.427  41.588   5.371
 3846POPC   GL149273   5.110  41.613   5.673
 3846POPC   GL249274   5.377  41.441   5.878
 3846POPC   C1A49275   4.938  41.537   6.100
 3846POPC   D2A49276   4.769  41.336   6.471
 3846POPC   C3A49277   4.791  41.570   6.876
 3846POPC   C4A49278   4.728  41.468   7.337
 3846POPC   C1B49279   5.333  41.839   6.116
 3846POPC   C2B49280   5.074  41.836   6.492
 3846POPC   C3B49281   5.112  41.978   6.905
 3846POPC   C4B49282   5.107  41.817   7.328
 3847POPC   NC349283  32.049  16.725   5.396
 3847POPC   PO449284  32.451  17.188   5.520
 3847POPC   GL149285  32.238  16.954   5.884
 3847POPC   GL249286  32.142  16.600   5.867
 3847POPC   C1A49287  32.332  16.771   6.300
 3847POPC   D2A49288  32.580  16.570   6.622
 3847POPC   C3A49289  32.474  16.744   7.044
 3847POPC   C4A49290  32.349  16.569   7.443
 3847POPC   C1B49291  31.900  16.384   6.165
 3847POPC   C2B49292  32.053  16.430   6.585
 3847POPC   C3B49293  31.845  16.423   6.976
 3847POPC   C4B49294  31.858  16.454   7.400
 3848POPC   NC349295   5.324  27.036   5.424
 3848POPC   PO449296   4.823  26.585   5.544
 3848POPC   GL149297   5.028  26.858   5.827
 3848POPC   GL249298   4.939  27.222   5.739
 3848POPC   C1A49299   5.310  26.733   6.182
 3848POPC   D2A49300   5.528  26.611   6.574
 3848POPC   C3A49301   5.359  26.525   6.991
 3848POPC   C4A49302   5.222  26.679   7.397
 3848POPC   C1B49303   5.112  27.211   6.179
 3848POPC   C2B49304   4.971  26.943   6.544
 3848POPC   C3B49305   4.834  27.093   6.953
 3848POPC   C4B49306   4.847  27.022   7.425
 3849POPC   NC349307  31.168  36.553   5.476
 3849POPC   PO449308  30.906  35.826   5.576
 3849POPC   GL149309  30.580  35.949   5.922
 3849POPC   GL249310  30.273  36.158   5.837
 3849POPC   C1A49311  30.543  35.899   6.378
 3849POPC   D2A49312  30.853  35.731   6.676
 3849POPC   C3A49313  30.980  36.085   6.913
 3849POPC   C4A49314  30.885  36.288   7.291
 3849POPC   C1B49315  30.437  36.508   6.106
 3849POPC   C2B49316  30.631  36.511   6.517
 3849POPC   C3B49317  30.549  36.347   6.910
 3849POPC   C4B49318  30.459  35.943   7.044
 3850POPC   NC349319  44.637  20.248   5.053
 3850POPC   PO449320  44.797  19.772   5.596
 3850POPC   GL149321  44.576  19.714   5.926
 3850POPC   GL249322  44.831  19.477   6.012
 3850POPC   C1A49323  44.587  19.967   6.301
 3850POPC   D2A49324  44.837  20.147   6.607
 3850POPC   C3A49325  44.638  20.190   7.004
 3850POPC   C4A49326  44.726  19.882   7.292
 3850POPC   C1B49327  44.645  19.475   6.410
 3850POPC   C2B49328  44.645  19.692   6.799
 3850POPC   C3B49329  44.967  19.483   7.063
 3850POPC   C4B49330   0.049  19.478   7.504
 3851POPC   NC349331  10.887  18.147   5.460
 3851POPC   PO449332  10.473  18.600   5.552
 3851POPC   GL149333  10.623  18.321   5.863
 3851POPC   GL249334  10.451  18.035   5.716
 3851POPC   C1A49335  10.742  18.269   6.317
 3851POPC   D2A49336  10.572  18.508   6.693
 3851POPC   C3A49337  10.653  18.415   7.140
 3851POPC   C4A49338  10.326  18.371   7.480
 3851POPC   C1B49339  10.254  18.119   6.149
 3851POPC   C2B49340  10.358  18.067   6.593
 3851POPC   C3B49341  10.243  18.144   6.995
 3851POPC   C4B49342  10.217  17.882   7.315
 3852POPC   NC349343  19.867  34.186   5.110
 3852POPC   PO449344  19.683  34.688   5.572
 3852POPC   GL149345  19.917  34.622   5.899
 3852POPC   GL249346  19.622  34.431   5.990
 3852POPC   C1A49347  20.110  34.796   6.226
 3852POPC   D2A49348  20.333  34.939   6.580
 3852POPC   C3A49349  20.029  34.980   6.921
 3852POPC   C4A49350  19.834  34.606   7.159
 3852POPC   C1B49351  19.607  34.612   6.343
 3852POPC   C2B49352  19.889  34.563   6.647
 3852POPC   C3B49353  19.970  34.194   6.858
 3852POPC   C4B49354  19.756  34.070   7.218
 3853POPC   NC349355  26.321   7.962   5.467
 3853POPC   PO449356  25.925   8.464   5.150
 3853POPC   GL149357  25.916   8.422   5.626
 3853POPC   GL249358  26.228   8.476   5.679
 3853POPC   C1A49359  25.858   8.445   6.092
 3853POPC   D2A49360  25.829   8.175   6.447
 3853POPC   C3A49361  25.870   8.308   6.875
 3853POPC   C4A49362  25.745   8.017   7.178
 3853POPC   C1B49363  26.342   8.590   6.076
 3853POPC   C2B49364  26.218   8.516   6.522
 3853POPC   C3B49365  26.387   8.334   6.918
 3853POPC   C4B49366  26.243   8.084   7.270
 3854POPC   NC349367   0.213  35.407   5.374
 3854POPC   PO449368  44.575  35.287   5.387
 3854POPC   GL149369  44.594  35.457   5.814
 3854POPC   GL249370  44.944  35.510   5.816
 3854POPC   C1A49371  44.626  35.315   6.263
 3854POPC   D2A49372  44.667  35.271   6.719
 3854POPC   C3A49373  44.468  35.031   7.049
 3854POPC   C4A49374  44.660  35.166   7.443
 3854POPC   C1B49375   0.014  35.738   6.194
 3854POPC   C2B49376  44.891  35.718   6.588
 3854POPC   C3B49377  44.894  35.657   7.002
 3854POPC   C4B49378   0.112  35.444   7.301
 3855POPC   NC349379   5.319  43.844   5.233
 3855POPC   PO449380   4.729  44.091   5.484
 3855POPC   GL149381   5.075  43.858   5.709
 3855POPC   GL249382   5.463  43.821   5.705
 3855POPC   C1A49383   5.124  43.710   6.133
 3855POPC   D2A49384   4.988  43.664   6.579
 3855POPC   C3A49385   4.761  43.928   6.897
 3855POPC   C4A49386   4.865  43.826   7.320
 3855POPC   C1B49387   5.553  44.027   6.062
 3855POPC   C2B49388   5.398  44.039   6.464
 3855POPC   C3B49389   5.266  44.023   6.854
 3855POPC   C4B49390   5.368  43.861   7.232
 3856POPC   NC349391  26.914  16.128   5.214
 3856POPC   PO449392  26.369  15.743   5.395
 3856POPC   GL149393  26.654  15.812   5.743
 3856POPC   GL249394  26.934  16.065   5.773
 3856POPC   C1A49395  26.746  15.812   6.196
 3856POPC   D2A49396  26.701  16.099   6.541
 3856POPC   C3A49397  26.876  15.972   6.937
 3856POPC   C4A49398  26.975  15.684   7.255
 3856POPC   C1B49399  27.051  16.264   6.190
 3856POPC   C2B49400  27.179  16.281   6.640
 3856POPC   C3B49401  27.079  16.454   7.069
 3856POPC   C4B49402  27.097  16.499   7.531
 3857POPC   NC349403  24.006  19.888   5.491
 3857POPC   PO449404  23.344  19.574   5.502
 3857POPC   GL149405  23.606  19.685   5.866
 3857POPC   GL249406  23.809  19.994   5.942
 3857POPC   C1A49407  23.463  19.846   6.267
 3857POPC   D2A49408  23.676  19.998   6.645
 3857POPC   C3A49409  23.736  19.817   7.059
 3857POPC   C4A49410  24.075  19.554   7.239
 3857POPC   C1B49411  23.739  20.333   6.231
 3857POPC   C2B49412  23.618  20.494   6.631
 3857POPC   C3B49413  23.786  20.346   7.053
 3857POPC   C4B49414  23.662  20.368   7.503
 3858POPC   NC349415  31.254  12.270   5.390
 3858POPC   PO449416  31.864  12.368   5.545
 3858POPC   GL149417  31.589  12.111   5.751
 3858POPC   GL249418  31.513  11.770   5.718
 3858POPC   C1A49419  31.251  12.093   6.060
 3858POPC   D2A49420  31.109  11.829   6.389
 3858POPC   C3A49421  31.148  11.948   6.847
 3858POPC   C4A49422  31.230  11.788   7.301
 3858POPC   C1B49423  31.693  11.849   6.159
 3858POPC   C2B49424  31.553  12.016   6.545
 3858POPC   C3B49425  31.603  11.768   6.967
 3858POPC   C4B49426  31.675  12.055   7.342
 3859POPC   NC349427  26.014   1.796   5.363
 3859POPC   PO449428  26.453   2.394   5.437
 3859POPC   GL149429  26.339   2.185   5.839
 3859POPC   GL249430  26.078   1.948   5.843
 3859POPC   C1A49431  26.162   2.258   6.251
 3859POPC   D2A49432  25.842   2.258   6.565
 3859POPC   C3A49433  26.017   2.300   6.946
 3859POPC   C4A49434  25.835   2.210   7.290
 3859POPC   C1B49435  26.237   1.766   6.263
 3859POPC   C2B49436  26.300   1.959   6.696
 3859POPC   C3B49437  26.225   1.883   7.173
 3859POPC   C4B49438  26.179   1.605   7.514
 3860POPC   NC349439  27.182  39.548   5.156
 3860POPC   PO449440  26.758  40.111   5.093
 3860POPC   GL149441  26.854  39.964   5.582
 3860POPC   GL249442  26.553  39.802   5.789
 3860POPC   C1A49443  27.002  39.919   6.033
 3860POPC   D2A49444  26.706  39.725   6.389
 3860POPC   C3A49445  26.785  39.805   6.848
 3860POPC   C4A49446  27.179  39.955   7.063
 3860POPC   C1B49447  26.549  40.114   6.084
 3860POPC   C2B49448  26.865  40.295   6.384
 3860POPC   C3B49449  26.868  40.310   6.833
 3860POPC   C4B49450  26.782  40.192   7.254
 3861POPC   NC349451   2.991  12.359   5.514
 3861POPC   PO449452   2.469  11.995   5.433
 3861POPC   GL149453   2.571  12.194   5.793
 3861POPC   GL249454   2.849  11.958   5.800
 3861POPC   C1A49455   2.430  12.270   6.205
 3861POPC   D2A49456   2.671  12.367   6.549
 3861POPC   C3A49457   2.511  12.320   6.932
 3861POPC   C4A49458   2.491  12.042   7.258
 3861POPC   C1B49459   2.969  12.161   6.175
 3861POPC   C2B49460   3.004  11.956   6.560
 3861POPC   C3B49461   2.876  11.960   6.957
 3861POPC   C4B49462   2.939  12.320   7.266
 3862POPC   NC349463  37.413  30.239   5.560
 3862POPC   PO449464  36.993  29.690   5.365
 3862POPC   GL149465  36.810  29.838   5.757
 3862POPC   GL249466  36.925  30.193   5.744
 3862POPC   C1A49467  36.913  29.881   6.198
 3862POPC   D2A49468  36.797  29.758   6.584
 3862POPC   C3A49469  36.895  29.946   6.943
 3862POPC   C4A49470  36.563  29.797   7.186
 3862POPC   C1B49471  37.126  30.336   6.159
 3862POPC   C2B49472  37.238  30.232   6.610
 3862POPC   C3B49473  37.107  30.427   6.988
 3862POPC   C4B49474  36.758  30.340   7.235
 3863POPC   NC349475  11.326   6.376   5.334
 3863POPC   PO449476  11.492   6.974   5.244
 3863POPC   GL149477  11.556   6.736   5.637
 3863POPC   GL249478  11.188   6.647   5.736
 3863POPC   C1A49479  11.560   6.847   6.101
 3863POPC   D2A49480  11.445   6.640   6.510
 3863POPC   C3A49481  11.325   6.712   6.941
 3863POPC   C4A49482  11.615   6.525   7.250
 3863POPC   C1B49483  11.209   6.416   6.120
 3863POPC   C2B49484  11.053   6.316   6.533
 3863POPC   C3B49485  10.885   6.366   6.917
 3863POPC   C4B49486  11.092   6.236   7.262
 3864POPC   NC349487  30.579  11.658   5.554
 3864POPC   PO449488  30.910  11.123   5.428
 3864POPC   GL149489  30.763  11.239   5.792
 3864POPC   GL249490  30.974  11.547   5.856
 3864POPC   C1A49491  30.442  11.114   6.085
 3864POPC   D2A49492  30.615  11.035   6.486
 3864POPC   C3A49493  30.520  11.277   6.855
 3864POPC   C4A49494  30.452  11.146   7.293
 3864POPC   C1B49495  30.749  11.502   6.237
 3864POPC   C2B49496  30.981  11.374   6.584
 3864POPC   C3B49497  30.980  11.488   6.973
 3864POPC   C4B49498  30.878  11.393   7.367
 3865POPC   NC349499  17.721  37.355   5.555
 3865POPC   PO449500  17.410  36.925   5.069
 3865POPC   GL149501  17.494  36.790   5.537
 3865POPC   GL249502  17.861  36.696   5.575
 3865POPC   C1A49503  17.382  36.884   6.004
 3865POPC   D2A49504  17.263  36.769   6.463
 3865POPC   C3A49505  17.440  36.920   6.799
 3865POPC   C4A49506  17.258  37.006   7.180
 3865POPC   C1B49507  17.825  36.628   6.004
 3865POPC   C2B49508  17.752  36.600   6.432
 3865POPC   C3B49509  17.792  36.543   6.872
 3865POPC   C4B49510  17.747  36.858   7.195
 3866POPC   NC349511   0.460  42.844   5.179
 3866POPC   PO449512   0.391  43.423   5.571
 3866POPC   GL149513   0.537  43.151   5.864
 3866POPC   GL249514   0.530  42.837   5.732
 3866POPC   C1A49515   0.437  43.232   6.326
 3866POPC   D2A49516   0.186  43.178   6.726
 3866POPC   C3A49517   0.531  43.065   7.020
 3866POPC   C4A49518   0.867  43.380   7.106
 3866POPC   C1B49519   0.216  42.819   6.095
 3866POPC   C2B49520  44.957  42.735   6.460
 3866POPC   C3B49521  44.821  42.849   6.873
 3866POPC   C4B49522   0.069  43.013   7.229
 3867POPC   NC349523  35.227  35.920   5.536
 3867POPC   PO449524  35.337  35.314   5.280
 3867POPC   GL149525  35.250  35.210   5.695
 3867POPC   GL249526  35.418  35.502   5.804
 3867POPC   C1A49527  35.243  35.145   6.150
 3867POPC   D2A49528  35.572  35.131   6.519
 3867POPC   C3A49529  35.354  35.097   6.899
 3867POPC   C4A49530  35.155  34.964   7.281
 3867POPC   C1B49531  35.508  35.568   6.239
 3867POPC   C2B49532  35.209  35.471   6.564
 3867POPC   C3B49533  35.128  35.587   6.939
 3867POPC   C4B49534  35.318  35.427   7.291
 3868POPC   NC349535  13.821  21.913   5.525
 3868POPC   PO449536  13.480  22.267   5.063
 3868POPC   GL149537  13.450  22.232   5.610
 3868POPC   GL249538  13.776  22.230   5.909
 3868POPC   C1A49539  13.304  22.176   6.078
 3868POPC   D2A49540  13.192  22.072   6.504
 3868POPC   C3A49541  13.388  22.275   6.849
 3868POPC   C4A49542  13.378  22.032   7.213
 3868POPC   C1B49543  13.951  21.824   6.159
 3868POPC   C2B49544  14.138  21.637   6.563
 3868POPC   C3B49545  14.098  21.793   7.008
 3868POPC   C4B49546  13.879  22.192   7.207
 3869POPC   NC349547  15.267  21.042   5.389
 3869POPC   PO449548  14.998  20.420   5.224
 3869POPC   GL149549  15.013  20.642   5.634
 3869POPC   GL249550  15.326  20.762   5.795
 3869POPC   C1A49551  14.931  20.474   6.054
 3869POPC   D2A49552  15.061  20.398   6.478
 3869POPC   C3A49553  15.205  20.574   6.867
 3869POPC   C4A49554  14.998  20.626   7.269
 3869POPC   C1B49555  15.409  20.700   6.222
 3869POPC   C2B49556  15.526  20.930   6.583
 3869POPC   C3B49557  15.649  20.799   6.971
 3869POPC   C4B49558  15.409  20.955   7.288
 3870POPC   NC349559  29.008  26.278   5.382
 3870POPC   PO449560  29.626  26.089   5.357
 3870POPC   GL149561  29.396  26.218   5.720
 3870POPC   GL249562  29.183  25.957   5.827
 3870POPC   C1A49563  29.255  26.344   6.161
 3870POPC   D2A49564  29.064  26.575   6.471
 3870POPC   C3A49565  29.196  26.434   6.890
 3870POPC   C4A49566  28.980  26.242   7.286
 3870POPC   C1B49567  29.251  25.855   6.297
 3870POPC   C2B49568  29.218  25.939   6.777
 3870POPC   C3B49569  29.079  25.742   7.180
 3870POPC   C4B49570  29.004  25.452   7.551
 3871POPC   NC349571  35.221   2.339   5.519
 3871POPC   PO449572  35.187   1.634   5.469
 3871POPC   GL149573  35.353   1.664   5.852
 3871POPC   GL249574  35.434   2.004   5.835
 3871POPC   C1A49575  35.226   1.641   6.262
 3871POPC   D2A49576  35.480   1.626   6.610
 3871POPC   C3A49577  35.240   1.798   6.901
 3871POPC   C4A49578  35.286   2.108   7.207
 3871POPC   C1B49579  35.395   2.155   6.266
 3871POPC   C2B49580  35.144   2.403   6.542
 3871POPC   C3B49581  35.217   2.565   6.944
 3871POPC   C4B49582  35.124   2.580   7.354
 3872POPC   NC349583   6.835  23.016   5.319
 3872POPC   PO449584   6.628  23.652   5.347
 3872POPC   GL149585   6.352  23.281   5.593
 3872POPC   GL249586   6.564  23.076   5.742
 3872POPC   C1A49587   6.203  23.129   6.067
 3872POPC   D2A49588   6.344  22.835   6.399
 3872POPC   C3A49589   6.272  22.926   6.850
 3872POPC   C4A49590   6.409  22.822   7.254
 3872POPC   C1B49591   6.764  22.883   6.077
 3872POPC   C2B49592   6.839  22.886   6.498
 3872POPC   C3B49593   6.748  22.708   6.856
 3872POPC   C4B49594   6.973  22.811   7.227
 3873POPC   NC349595  43.475  42.519   5.720
 3873POPC   PO449596  42.929  42.437   5.360
 3873POPC   GL149597  42.901  42.454   5.800
 3873POPC   GL249598  43.095  42.148   5.903
 3873POPC   C1A49599  43.006  42.545   6.248
 3873POPC   D2A49600  43.080  42.300   6.629
 3873POPC   C3A49601  42.893  42.423   7.015
 3873POPC   C4A49602  43.015  42.585   7.397
 3873POPC   C1B49603  43.307  41.908   6.264
 3873POPC   C2B49604  43.365  41.874   6.738
 3873POPC   C3B49605  43.337  42.144   7.099
 3873POPC   C4B49606  43.060  42.101   7.450
 3874POPC   NC349607   3.238  44.542   5.525
 3874POPC   PO449608   2.638  44.454   5.191
 3874POPC   GL149609   2.682  44.426   5.684
 3874POPC   GL249610   2.527  44.718   5.875
 3874POPC   C1A49611   2.754  44.377   6.185
 3874POPC   D2A49612   2.908  44.645   6.560
 3874POPC   C3A49613   2.991  44.493   7.016
 3874POPC   C4A49614   3.038  44.474   7.512
 3874POPC   C1B49615   2.832   0.007   6.125
 3874POPC   C2B49616   3.013   0.245   6.503
 3874POPC   C3B49617   2.964   0.018   6.904
 3874POPC   C4B49618   2.811  44.899   7.292
 3875POPC   NC349619  28.204  17.076   5.488
 3875POPC   PO449620  28.632  16.602   5.573
 3875POPC   GL149621  28.423  16.834   5.875
 3875POPC   GL249622  28.140  16.592   5.809
 3875POPC   C1A49623  28.073  16.924   6.176
 3875POPC   D2A49624  27.982  16.730   6.595
 3875POPC   C3A49625  28.313  16.745   6.917
 3875POPC   C4A49626  28.309  16.864   7.351
 3875POPC   C1B49627  28.323  16.480   6.228
 3875POPC   C2B49628  28.204  16.272   6.610
 3875POPC   C3B49629  28.285  16.235   7.016
 3875POPC   C4B49630  28.067  16.421   7.324
 3876POPC   NC349631  40.243  12.197   5.386
 3876POPC   PO449632  40.913  12.118   5.367
 3876POPC   GL149633  40.805  12.109   5.808
 3876POPC   GL249634  40.444  12.198   5.845
 3876POPC   C1A49635  40.838  11.861   6.202
 3876POPC   D2A49636  40.936  11.635   6.581
 3876POPC   C3A49637  40.979  11.941   6.898
 3876POPC   C4A49638  40.787  12.210   7.177
 3876POPC   C1B49639  40.407  12.141   6.253
 3876POPC   C2B49640  40.541  11.998   6.639
 3876POPC   C3B49641  40.338  12.206   6.953
 3876POPC   C4B49642  40.354  12.434   7.326
 3877POPC   NC349643  20.993  29.307   5.419
 3877POPC   PO449644  21.641  29.187   5.218
 3877POPC   GL149645  21.602  29.195   5.690
 3877POPC   GL249646  21.290  29.305   5.831
 3877POPC   C1A49647  21.612  29.122   6.177
 3877POPC   D2A49648  21.369  29.047   6.588
 3877POPC   C3A49649  21.501  28.959   7.028
 3877POPC   C4A49650  21.696  28.906   7.447
 3877POPC   C1B49651  21.132  29.472   6.216
 3877POPC   C2B49652  21.085  29.443   6.639
 3877POPC   C3B49653  21.356  29.439   7.020
 3877POPC   C4B49654  21.266  29.197   7.434
 3878POPC   NC349655   7.762  41.249   5.464
 3878POPC   PO449656   8.365  41.361   5.270
 3878POPC   GL149657   8.424  41.499   5.716
 3878POPC   GL249658   8.068  41.537   5.813
 3878POPC   C1A49659   8.467  41.574   6.190
 3878POPC   D2A49660   8.220  41.656   6.579
 3878POPC   C3A49661   8.441  41.630   7.005
 3878POPC   C4A49662   8.278  41.484   7.413
 3878POPC   C1B49663   8.042  41.276   6.174
 3878POPC   C2B49664   7.892  41.256   6.587
 3878POPC   C3B49665   7.959  41.411   6.998
 3878POPC   C4B49666   7.907  41.136   7.356
 3879POPC   NC349667  11.611  32.824   5.463
 3879POPC   PO449668  11.487  33.400   5.605
 3879POPC   GL149669  11.194  33.110   5.842
 3879POPC   GL249670  11.271  32.749   5.853
 3879POPC   C1A49671  11.177  33.049   6.276
 3879POPC   D2A49672  11.408  33.017   6.633
 3879POPC   C3A49673  11.380  33.162   7.089
 3879POPC   C4A49674  11.469  33.347   7.500
 3879POPC   C1B49675  10.937  32.602   6.148
 3879POPC   C2B49676  10.940  32.730   6.585
 3879POPC   C3B49677  11.164  32.707   6.963
 3879POPC   C4B49678  10.920  32.922   7.222
 3880POPC   NC349679   5.453  24.020   5.383
 3880POPC   PO449680   4.889  23.607   5.422
 3880POPC   GL149681   4.948  23.843   5.740
 3880POPC   GL249682   5.246  23.691   5.812
 3880POPC   C1A49683   4.921  23.875   6.167
 3880POPC   D2A49684   5.153  23.823   6.533
 3880POPC   C3A49685   4.995  23.846   6.956
 3880POPC   C4A49686   5.136  23.709   7.360
 3880POPC   C1B49687   5.313  23.465   6.196
 3880POPC   C2B49688   5.570  23.540   6.570
 3880POPC   C3B49689   5.357  23.467   6.942
 3880POPC   C4B49690   5.312  23.238   7.301
 3881POPC   NC349691  22.314  41.525   5.410
 3881POPC   PO449692  21.721  41.773   5.489
 3881POPC   GL149693  21.940  41.551   5.793
 3881POPC   GL249694  22.266  41.731   5.870
 3881POPC   C1A49695  21.961  41.548   6.232
 3881POPC   D2A49696  22.229  41.446   6.519
 3881POPC   C3A49697  22.163  41.655   6.887
 3881POPC   C4A49698  22.200  41.468   7.257
 3881POPC   C1B49699  22.522  41.824   6.259
 3881POPC   C2B49700  22.668  41.643   6.668
 3881POPC   C3B49701  22.617  41.726   7.128
 3881POPC   C4B49702  22.458  41.737   7.592
 3882POPC   NC349703  39.660  29.249   5.659
 3882POPC   PO449704  40.107  28.873   5.363
 3882POPC   GL149705  40.274  28.964   5.752
 3882POPC   GL249706  40.203  29.321   5.790
 3882POPC   C1A49707  40.143  28.945   6.169
 3882POPC   D2A49708  39.910  28.976   6.550
 3882POPC   C3A49709  40.151  29.087   6.903
 3882POPC   C4A49710  40.005  28.995   7.275
 3882POPC   C1B49711  40.293  29.423   6.240
 3882POPC   C2B49712  39.972  29.476   6.518
 3882POPC   C3B49713  39.780  29.432   6.907
 3882POPC   C4B49714  39.943  29.489   7.311
 3883POPC   NC349715  14.083   3.788   5.399
 3883POPC   PO449716  13.584   3.366   5.108
 3883POPC   GL149717  13.620   3.477   5.561
 3883POPC   GL249718  13.929   3.315   5.595
 3883POPC   C1A49719  13.517   3.587   6.025
 3883POPC   D2A49720  13.524   3.450   6.482
 3883POPC   C3A49721  13.473   3.683   6.891
 3883POPC   C4A49722  13.491   3.666   7.355
 3883POPC   C1B49723  13.937   3.237   6.045
 3883POPC   C2B49724  14.020   3.215   6.490
 3883POPC   C3B49725  13.816   3.293   6.870
 3883POPC   C4B49726  13.873   3.353   7.266
 3884POPC   NC349727  37.542   0.134   5.336
 3884POPC   PO449728  37.877  44.487   5.441
 3884POPC   GL149729  37.707  44.742   5.784
 3884POPC   GL249730  37.356  44.837   5.738
 3884POPC   C1A49731  37.583  44.603   6.215
 3884POPC   D2A49732  37.666  44.283   6.569
 3884POPC   C3A49733  37.600  44.426   6.995
 3884POPC   C4A49734  37.889  44.536   7.326
 3884POPC   C1B49735  37.316   0.084   6.120
 3884POPC   C2B49736  37.270   0.132   6.559
 3884POPC   C3B49737  37.266   0.184   7.014
 3884POPC   C4B49738  37.575  44.952   7.268
 3885POPC   NC349739  35.825  28.980   5.393
 3885POPC   PO449740  35.996  29.652   5.302
 3885POPC   GL149741  35.920  29.439   5.698
 3885POPC   GL249742  36.267  29.538   5.818
 3885POPC   C1A49743  35.907  29.268   6.132
 3885POPC   D2A49744  36.133  29.292   6.529
 3885POPC   C3A49745  36.026  29.414   6.943
 3885POPC   C4A49746  35.914  29.197   7.310
 3885POPC   C1B49747  36.510  29.533   6.211
 3885POPC   C2B49748  36.638  29.260   6.562
 3885POPC   C3B49749  36.433  29.087   6.918
 3885POPC   C4B49750  36.412  29.320   7.303
 3886POPC   NC349751  43.485  13.892   5.222
 3886POPC   PO449752  43.945  13.425   5.223
 3886POPC   GL149753  43.960  13.385   5.706
 3886POPC   GL249754  43.957  13.755   5.830
 3886POPC   C1A49755  44.020  13.377   6.192
 3886POPC   D2A49756  43.742  13.579   6.545
 3886POPC   C3A49757  43.744  13.369   6.984
 3886POPC   C4A49758  43.759  13.583   7.421
 3886POPC   C1B49759  44.235  13.854   6.197
 3886POPC   C2B49760  44.239  13.704   6.636
 3886POPC   C3B49761  44.129  13.688   7.089
 3886POPC   C4B49762  44.164  13.924   7.493
 3887POPC   NC349763  26.415  20.441   5.383
 3887POPC   PO449764  26.885  21.023   5.321
 3887POPC   GL149765  26.599  20.877   5.636
 3887POPC   GL249766  26.747  20.564   5.779
 3887POPC   C1A49767  26.620  20.950   6.090
 3887POPC   D2A49768  26.835  20.818   6.464
 3887POPC   C3A49769  26.554  20.759   6.831
 3887POPC   C4A49770  26.546  20.669   7.289
 3887POPC   C1B49771  26.703  20.350   6.186
 3887POPC   C2B49772  26.840  20.344   6.627
 3887POPC   C3B49773  26.744  20.261   7.053
 3887POPC   C4B49774  27.093  20.067   7.313
 3888POPC   NC349775  18.266   5.580   4.982
 3888POPC   PO449776  18.224   4.928   5.242
 3888POPC   GL149777  18.348   5.006   5.707
 3888POPC   GL249778  18.703   5.132   5.732
 3888POPC   C1A49779  18.126   4.938   6.126
 3888POPC   D2A49780  17.987   5.146   6.485
 3888POPC   C3A49781  18.082   4.910   6.824
 3888POPC   C4A49782  18.189   4.997   7.230
 3888POPC   C1B49783  18.653   4.903   6.123
 3888POPC   C2B49784  18.494   5.039   6.491
 3888POPC   C3B49785  18.594   4.921   6.866
 3888POPC   C4B49786  18.672   4.650   7.151
 3889POPC   NC349787  41.877  36.761   5.679
 3889POPC   PO449788  41.755  37.425   5.459
 3889POPC   GL149789  41.591  37.265   5.848
 3889POPC   GL249790  41.211  37.176   5.809
 3889POPC   C1A49791  41.746  37.106   6.257
 3889POPC   D2A49792  41.683  36.798   6.577
 3889POPC   C3A49793  41.839  36.966   6.939
 3889POPC   C4A49794  41.686  36.868   7.310
 3889POPC   C1B49795  41.311  36.875   6.152
 3889POPC   C2B49796  41.166  36.892   6.596
 3889POPC   C3B49797  41.250  36.837   7.019
 3889POPC   C4B49798  41.138  36.997   7.434
 3890POPC   NC349799   5.703  21.149   5.514
 3890POPC   PO449800   6.190  21.547   5.572
 3890POPC   GL149801   5.952  21.407   5.892
 3890POPC   GL249802   6.042  21.050   5.906
 3890POPC   C1A49803   5.791  21.586   6.277
 3890POPC   D2A49804   5.630  21.395   6.658
 3890POPC   C3A49805   5.964  21.363   6.940
 3890POPC   C4A49806   6.018  21.644   7.256
 3890POPC   C1B49807   5.719  21.075   6.223
 3890POPC   C2B49808   5.673  20.889   6.654
 3890POPC   C3B49809   5.674  20.978   7.103
 3890POPC   C4B49810   5.486  21.065   7.476
 3891POPC   NC349811   3.058   6.692   5.410
 3891POPC   PO449812   3.662   6.411   5.294
 3891POPC   GL149813   3.528   6.744   5.634
 3891POPC   GL249814   3.675   7.089   5.742
 3891POPC   C1A49815   3.311   6.798   6.056
 3891POPC   D2A49816   3.124   6.808   6.470
 3891POPC   C3A49817   3.381   6.803   6.840
 3891POPC   C4A49818   3.327   6.614   7.221
 3891POPC   C1B49819   3.648   7.145   6.237
 3891POPC   C2B49820   3.822   6.852   6.595
 3891POPC   C3B49821   3.835   6.639   7.040
 3891POPC   C4B49822   3.778   6.692   7.508
 3892POPC   NC349823  21.050  43.901   5.500
 3892POPC   PO449824  21.665  44.278   5.477
 3892POPC   GL149825  21.527  43.943   5.768
 3892POPC   GL249826  21.287  44.174   5.838
 3892POPC   C1A49827  21.303  43.788   6.184
 3892POPC   D2A49828  21.170  43.996   6.568
 3892POPC   C3A49829  21.130  43.799   6.956
 3892POPC   C4A49830  21.513  43.597   7.026
 3892POPC   C1B49831  21.379  44.322   6.217
 3892POPC   C2B49832  21.429  44.457   6.620
 3892POPC   C3B49833  21.544  44.324   7.021
 3892POPC   C4B49834  21.420  44.024   7.305
 3893POPC   NC349835  33.345  15.502   5.525
 3893POPC   PO449836  33.264  14.884   5.456
 3893POPC   GL149837  33.118  15.144   5.813
 3893POPC   GL249838  33.174  14.954   6.067
 3893POPC   C1A49839  33.137  15.422   6.228
 3893POPC   D2A49840  33.386  15.446   6.646
 3893POPC   C3A49841  33.247  15.219   7.038
 3893POPC   C4A49842  32.977  15.407   7.433
 3893POPC   C1B49843  32.743  15.030   6.211
 3893POPC   C2B49844  32.572  15.163   6.630
 3893POPC   C3B49845  32.741  15.150   7.065
 3893POPC   C4B49846  32.803  14.877   7.447
 3894POPC   NC349847  37.397  41.745   5.398
 3894POPC   PO449848  37.928  41.184   5.508
 3894POPC   GL149849  37.671  41.374   5.847
 3894POPC   GL249850  37.704  41.683   5.802
 3894POPC   C1A49851  37.504  41.270   6.261
 3894POPC   D2A49852  37.450  41.146   6.711
 3894POPC   C3A49853  37.705  41.274   7.111
 3894POPC   C4A49854  37.712  41.408   7.589
 3894POPC   C1B49855  37.813  41.709   6.223
 3894POPC   C2B49856  37.756  41.961   6.573
 3894POPC   C3B49857  37.768  41.792   6.948
 3894POPC   C4B49858  37.782  42.057   7.258
 3895POPC   NC349859  27.887  10.806   5.386
 3895POPC   PO449860  27.443  10.336   5.401
 3895POPC   GL149861  27.428  10.577   5.766
 3895POPC   GL249862  27.774  10.496   5.789
 3895POPC   C1A49863  27.553  10.728   6.192
 3895POPC   D2A49864  27.685  10.794   6.626
 3895POPC   C3A49865  27.383  10.560   6.908
 3895POPC   C4A49866  27.527  10.443   7.314
 3895POPC   C1B49867  27.740  10.220   6.129
 3895POPC   C2B49868  27.657  10.277   6.540
 3895POPC   C3B49869  27.814  10.248   6.941
 3895POPC   C4B49870  27.813  10.003   7.275
 3896POPC   NC349871  23.919  34.277   5.035
 3896POPC   PO449872  23.773  33.809   5.441
 3896POPC   GL149873  23.766  33.659   5.883
 3896POPC   GL249874  23.589  33.337   5.922
 3896POPC   C1A49875  23.781  33.737   6.346
 3896POPC   D2A49876  23.991  33.808   6.737
 3896POPC   C3A49877  23.700  34.019   6.945
 3896POPC   C4A49878  23.763  34.069   7.328
 3896POPC   C1B49879  23.530  33.289   6.384
 3896POPC   C2B49880  23.522  33.535   6.799
 3896POPC   C3B49881  23.748  33.522   7.213
 3896POPC   C4B49882  23.692  33.392   7.689
 3897POPC   NC349883  39.465  10.825   5.374
 3897POPC   PO449884  38.823  10.664   5.556
 3897POPC   GL149885  39.230  10.642   5.835
 3897POPC   GL249886  39.408  10.303   5.844
 3897POPC   C1A49887  39.301  10.649   6.309
 3897POPC   D2A49888  38.991  10.608   6.667
 3897POPC   C3A49889  39.132  10.715   7.085
 3897POPC   C4A49890  39.356  10.872   7.431
 3897POPC   C1B49891  39.088  10.216   6.126
 3897POPC   C2B49892  39.191  10.168   6.537
 3897POPC   C3B49893  39.426  10.363   6.847
 3897POPC   C4B49894  39.521  10.414   7.263
 3898POPC   NC349895  39.698  37.528   5.597
 3898POPC   PO449896  40.278  37.952   5.537
 3898POPC   GL149897  39.997  37.895   5.827
 3898POPC   GL249898  40.133  37.584   5.856
 3898POPC   C1A49899  39.865  37.840   6.230
 3898POPC   D2A49900  39.965  38.028   6.593
 3898POPC   C3A49901  39.915  37.827   7.001
 3898POPC   C4A49902  39.693  37.762   7.384
 3898POPC   C1B49903  40.048  37.356   6.185
 3898POPC   C2B49904  39.824  37.235   6.514
 3898POPC   C3B49905  39.929  37.309   6.947
 3898POPC   C4B49906  40.299  37.287   7.144
 3899POPC   NC349907  12.929  30.376   5.095
 3899POPC   PO449908  12.714  30.961   5.377
 3899POPC   GL149909  12.778  30.796   5.798
 3899POPC   GL249910  12.629  30.495   5.688
 3899POPC   C1A49911  12.953  30.697   6.219
 3899POPC   D2A49912  12.864  30.751   6.636
 3899POPC   C3A49913  13.013  30.588   6.974
 3899POPC   C4A49914  13.006  30.801   7.333
 3899POPC   C1B49915  12.642  30.315   6.102
 3899POPC   C2B49916  12.469  30.480   6.472
 3899POPC   C3B49917  12.551  30.378   6.879
 3899POPC   C4B49918  12.684  30.372   7.313
 3900POPC   NC349919  36.559  25.625   5.552
 3900POPC   PO449920  35.923  25.491   5.357
 3900POPC   GL149921  36.168  25.308   5.716
 3900POPC   GL249922  36.508  25.115   5.733
 3900POPC   C1A49923  36.118  25.078   6.104
 3900POPC   D2A49924  36.189  25.249   6.506
 3900POPC   C3A49925  35.912  25.209   6.866
 3900POPC   C4A49926  36.048  25.402   7.246
 3900POPC   C1B49927  36.574  25.337   6.148
 3900POPC   C2B49928  36.644  25.512   6.551
 3900POPC   C3B49929  36.490  25.368   6.932
 3900POPC   C4B49930  36.471  25.084   7.263
 3901POPC   NC349931  14.960  36.888   5.251
 3901POPC   PO449932  14.456  36.824   5.533
 3901POPC   GL149933  14.266  36.891   5.971
 3901POPC   GL249934  13.952  37.110   5.969
 3901POPC   C1A49935  14.185  36.623   6.350
 3901POPC   D2A49936  14.041  36.701   6.774
 3901POPC   C3A49937  14.302  36.885   7.114
 3901POPC   C4A49938  14.287  36.986   7.582
 3901POPC   C1B49939  14.156  37.150   6.399
 3901POPC   C2B49940  14.269  37.310   6.811
 3901POPC   C3B49941  14.466  37.502   7.182
 3901POPC   C4B49942  14.352  37.489   7.640
 3902POPC   NC349943  21.949   8.506   5.419
 3902POPC   PO449944  22.275   9.063   5.492
 3902POPC   GL149945  22.029   8.907   5.784
 3902POPC   GL249946  22.123   8.600   5.870
 3902POPC   C1A49947  21.848   8.968   6.205
 3902POPC   D2A49948  22.049   9.099   6.582
 3902POPC   C3A49949  21.960   9.003   7.025
 3902POPC   C4A49950  22.345   9.041   7.282
 3902POPC   C1B49951  22.324   8.767   6.195
 3902POPC   C2B49952  22.357   8.627   6.590
 3902POPC   C3B49953  22.606   8.676   6.931
 3902POPC   C4B49954  22.451   8.539   7.317
 3903POPC   NC349955  28.606  40.473   5.568
 3903POPC   PO449956  28.292  41.003   5.317
 3903POPC   GL149957  28.176  40.849   5.780
 3903POPC   GL249958  28.156  40.479   5.859
 3903POPC   C1A49959  28.367  40.950   6.219
 3903POPC   D2A49960  28.566  41.085   6.611
 3903POPC   C3A49961  28.411  40.988   7.040
 3903POPC   C4A49962  28.471  40.950   7.482
 3903POPC   C1B49963  28.343  40.424   6.282
 3903POPC   C2B49964  28.362  40.582   6.720
 3903POPC   C3B49965  28.206  40.503   7.129
 3903POPC   C4B49966  28.045  40.268   7.478
 3904POPC   NC349967  18.066  39.953   5.140
 3904POPC   PO449968  18.755  40.058   5.297
 3904POPC   GL149969  18.526  40.111   5.734
 3904POPC   GL249970  18.148  40.056   5.705
 3904POPC   C1A49971  18.336  39.952   6.170
 3904POPC   D2A49972  18.082  40.086   6.506
 3904POPC   C3A49973  18.197  39.891   6.893
 3904POPC   C4A49974  18.261  40.018   7.336
 3904POPC   C1B49975  17.894  39.768   6.029
 3904POPC   C2B49976  17.824  39.650   6.504
 3904POPC   C3B49977  17.688  39.873   6.911
 3904POPC   C4B49978  17.734  39.772   7.390
 3905POPC   NC349979  43.138  22.115   5.286
 3905POPC   PO449980  42.624  22.015   5.632
 3905POPC   GL149981  42.988  22.259   5.779
 3905POPC   GL249982  43.277  22.021   5.761
 3905POPC   C1A49983  43.103  22.474   6.171
 3905POPC   D2A49984  43.091  22.451   6.609
 3905POPC   C3A49985  43.287  22.281   6.990
 3905POPC   C4A49986  43.048  22.171   7.355
 3905POPC   C1B49987  43.114  21.944   6.161
 3905POPC   C2B49988  43.276  21.937   6.555
 3905POPC   C3B49989  43.444  21.799   6.907
 3905POPC   C4B49990  43.201  21.693   7.243
 3906POPC   NC349991  15.791  21.469   5.382
 3906POPC   PO449992  16.331  21.678   5.130
 3906POPC   GL149993  16.152  21.652   5.667
 3906POPC   GL249994  16.095  21.294   5.769
 3906POPC   C1A49995  15.932  21.580   6.142
 3906POPC   D2A49996  15.976  21.308   6.555
 3906POPC   C3A49997  16.105  21.463   6.962
 3906POPC   C4A49998  15.966  21.782   7.254
 3906POPC   C1B49999  15.858  21.049   6.140
 3906POPC   C2B50000  15.985  20.770   6.483
 3906POPC   C3B50001  16.136  20.944   6.890
 3906POPC   C4B50002  15.927  21.113   7.308
 3907POPC   NC350003   0.947   0.965   5.474
 3907POPC   PO450004   1.408   1.368   5.414
 3907POPC   GL150005   1.392   1.105   5.826
 3907POPC   GL250006   1.056   0.950   5.949
 3907POPC   C1A50007   1.397   1.024   6.297
 3907POPC   D2A50008   1.058   1.016   6.614
 3907POPC   C3A50009   1.230   0.995   7.028
 3907POPC   C4A50010   1.239   0.939   7.500
 3907POPC   C1B50011   1.022   1.322   6.172
 3907POPC   C2B50012   1.119   1.541   6.531
 3907POPC   C3B50013   0.991   1.443   6.939
 3907POPC   C4B50014   1.236   1.410   7.313
 3908POPC   NC350015  21.856   2.409   5.327
 3908POPC   PO450016  22.181   3.088   5.127
 3908POPC   GL150017  22.018   2.871   5.575
 3908POPC   GL250018  22.264   2.613   5.688
 3908POPC   C1A50019  21.905   2.639   6.029
 3908POPC   D2A50020  22.045   2.709   6.479
 3908POPC   C3A50021  22.115   2.424   6.827
 3908POPC   C4A50022  22.118   2.626   7.229
 3908POPC   C1B50023  22.390   2.787   6.110
 3908POPC   C2B50024  22.545   2.892   6.533
 3908POPC   C3B50025  22.502   2.797   6.958
 3908POPC   C4B50026  22.444   3.114   7.266
 3909POPC   NC350027  12.044  28.216   5.584
 3909POPC   PO450028  11.716  28.809   5.377
 3909POPC   GL150029  11.866  28.694   5.788
 3909POPC   GL250030  12.250  28.624   5.830
 3909POPC   C1A50031  11.921  28.625   6.222
 3909POPC   D2A50032  12.137  28.742   6.598
 3909POPC   C3A50033  11.960  28.583   6.988
 3909POPC   C4A50034  11.854  28.205   7.204
 3909POPC   C1B50035  12.342  28.338   6.209
 3909POPC   C2B50036  12.267  28.252   6.654
 3909POPC   C3B50037  12.336  28.048   7.048
 3909POPC   C4B50038  12.340  28.219   7.457
 3910POPC   NC350039  36.002  22.370   5.403
 3910POPC   PO450040  36.325  21.811   5.384
 3910POPC   GL150041  36.400  22.079   5.750
 3910POPC   GL250042  36.601  21.817   5.868
 3910POPC   C1A50043  36.142  22.278   6.113
 3910POPC   D2A50044  35.921  22.137   6.503
 3910POPC   C3A50045  35.994  22.268   6.928
 3910POPC   C4A50046  36.010  22.218   7.373
 3910POPC   C1B50047  36.391  21.869   6.276
 3910POPC   C2B50048  36.373  21.951   6.718
 3910POPC   C3B50049  36.420  21.984   7.150
 3910POPC   C4B50050  36.517  22.207   7.534
 3911POPC   NC350051  25.904  17.487   5.490
 3911POPC   PO450052  26.562  17.599   5.422
 3911POPC   GL150053  26.303  17.614   5.791
 3911POPC   GL250054  26.212  17.276   5.897
 3911POPC   C1A50055  26.048  17.672   6.168
 3911POPC   D2A50056  26.090  17.402   6.512
 3911POPC   C3A50057  26.092  17.654   6.880
 3911POPC   C4A50058  26.042  17.608   7.296
 3911POPC   C1B50059  25.791  17.194   6.093
 3911POPC   C2B50060  25.565  17.176   6.487
 3911POPC   C3B50061  25.712  17.292   6.884
 3911POPC   C4B50062  25.785  17.042   7.225
 3912POPC   NC350063   3.262   2.697   5.168
 3912POPC   PO450064   3.738   2.430   5.604
 3912POPC   GL150065   3.596   2.775   5.820
 3912POPC   GL250066   3.228   2.849   5.730
 3912POPC   C1A50067   3.727   2.873   6.244
 3912POPC   D2A50068   3.634   2.662   6.641
 3912POPC   C3A50069   3.615   2.935   6.976
 3912POPC   C4A50070   3.873   3.296   7.076
 3912POPC   C1B50071   3.146   2.737   6.180
 3912POPC   C2B50072   3.097   2.604   6.613
 3912POPC   C3B50073   3.234   2.557   7.030
 3912POPC   C4B50074   3.549   2.429   7.293
 3913POPC   NC350075  38.383  10.672   5.356
 3913POPC   PO450076  38.335  10.014   5.533
 3913POPC   GL150077  38.456  10.313   5.817
 3913POPC   GL250078  38.147  10.472   5.771
 3913POPC   C1A50079  38.600  10.364   6.259
 3913POPC   D2A50080  38.690  10.182   6.674
 3913POPC   C3A50081  38.615  10.495   7.015
 3913POPC   C4A50082  38.694  10.934   6.948
 3913POPC   C1B50083  38.104  10.560   6.170
 3913POPC   C2B50084  38.305  10.724   6.548
 3913POPC   C3B50085  38.134  10.626   6.915
 3913POPC   C4B50086  37.896  10.672   7.251
 3914POPC   NC350087   4.016  16.435   5.489
 3914POPC   PO450088   4.147  17.038   5.327
 3914POPC   GL150089   4.231  17.019   5.766
 3914POPC   GL250090   4.121  16.706   5.903
 3914POPC   C1A50091   4.412  17.008   6.197
 3914POPC   D2A50092   4.486  16.865   6.614
 3914POPC   C3A50093   4.329  17.011   7.002
 3914POPC   C4A50094   4.698  16.955   7.249
 3914POPC   C1B50095   4.274  16.500   6.286
 3914POPC   C2B50096   4.305  16.395   6.733
 3914POPC   C3B50097   4.341  16.508   7.177
 3914POPC   C4B50098   4.189  16.307   7.589
 3915POPC   NC350099  24.943   9.061   5.369
 3915POPC   PO450100  25.513   8.718   5.503
 3915POPC   GL150101  25.138   8.849   5.765
 3915POPC   GL250102  25.355   9.115   5.835
 3915POPC   C1A50103  25.007   9.012   6.195
 3915POPC   D2A50104  25.285   9.076   6.525
 3915POPC   C3A50105  25.131   9.024   6.881
 3915POPC   C4A50106  25.327   8.988   7.243
 3915POPC   C1B50107  25.428   8.728   6.142
 3915POPC   C2B50108  25.588   8.623   6.503
 3915POPC   C3B50109  25.540   8.705   6.889
 3915POPC   C4B50110  25.842   8.770   7.183
 3916POPC   NC350111  17.719  43.335   5.183
 3916POPC   PO450112  17.324  42.965   5.557
 3916POPC   GL150113  17.405  43.193   5.871
 3916POPC   GL250114  17.563  43.428   5.688
 3916POPC   C1A50115  17.423  43.151   6.298
 3916POPC   D2A50116  17.554  43.183   6.711
 3916POPC   C3A50117  17.434  42.991   7.093
 3916POPC   C4A50118  17.324  42.916   7.514
 3916POPC   C1B50119  17.804  43.424   6.089
 3916POPC   C2B50120  17.987  43.415   6.542
 3916POPC   C3B50121  17.817  43.506   6.991
 3916POPC   C4B50122  17.721  43.294   7.408
 3917POPC   NC350123  44.395  25.908   5.090
 3917POPC   PO450124  44.173  26.192   5.687
 3917POPC   GL150125  44.571  26.093   5.932
 3917POPC   GL250126  44.882  26.003   5.741
 3917POPC   C1A50127  44.611  25.809   6.282
 3917POPC   D2A50128  44.378  25.907   6.661
 3917POPC   C3A50129  44.573  25.916   7.072
 3917POPC   C4A50130  44.512  26.306   7.249
 3917POPC   C1B50131   0.052  26.068   6.187
 3917POPC   C2B50132  44.937  25.991   6.641
 3917POPC   C3B50133  44.956  26.259   6.989
 3917POPC   C4B50134   0.005  26.366   7.392
 3918POPC   NC350135  34.660  19.138   5.373
 3918POPC   PO450136  34.624  18.502   5.346
 3918POPC   GL150137  34.585  18.807   5.773
 3918POPC   GL250138  34.494  19.226   5.844
 3918POPC   C1A50139  34.434  18.883   6.215
 3918POPC   D2A50140  34.316  19.131   6.586
 3918POPC   C3A50141  34.464  18.995   6.977
 3918POPC   C4A50142  34.407  18.583   7.150
 3918POPC   C1B50143  34.663  19.358   6.262
 3918POPC   C2B50144  34.559  19.564   6.661
 3918POPC   C3B50145  34.770  19.515   7.038
 3918POPC   C4B50146  34.896  19.144   7.246
 3919POPC   NC350147   8.737  41.628   5.217
 3919POPC   PO450148   9.338  41.367   5.301
 3919POPC   GL150149   9.144  41.586   5.641
 3919POPC   GL250150   9.406  41.840   5.671
 3919POPC   C1A50151   8.948  41.428   6.052
 3919POPC   D2A50152   8.947  41.156   6.433
 3919POPC   C3A50153   8.865  41.386   6.834
 3919POPC   C4A50154   8.757  41.314   7.309
 3919POPC   C1B50155   9.280  41.822   6.111
 3919POPC   C2B50156   9.292  41.544   6.466
 3919POPC   C3B50157   9.293  41.721   6.865
 3919POPC   C4B50158   8.998  41.766   7.193
 3920POPC   NC350159  33.896  14.075   5.089
 3920POPC   PO450160  33.657  13.454   5.338
 3920POPC   GL150161  33.742  13.607   5.732
 3920POPC   GL250162  34.092  13.543   5.739
 3920POPC   C1A50163  33.558  13.690   6.128
 3920POPC   D2A50164  33.691  13.561   6.530
 3920POPC   C3A50165  33.643  13.792   6.908
 3920POPC   C4A50166  33.762  13.672   7.328
 3920POPC   C1B50167  34.058  13.737   6.162
 3920POPC   C2B50168  34.207  13.607   6.532
 3920POPC   C3B50169  34.119  13.606   6.942
 3920POPC   C4B50170  34.130  13.999   7.149
 3921POPC   NC350171  13.531   7.021   5.610
 3921POPC   PO450172  13.837   7.464   5.238
 3921POPC   GL150173  13.782   7.601   5.715
 3921POPC   GL250174  14.096   7.830   5.780
 3921POPC   C1A50175  13.593   7.404   6.122
 3921POPC   D2A50176  13.767   7.115   6.452
 3921POPC   C3A50177  13.576   7.175   6.830
 3921POPC   C4A50178  13.535   7.224   7.234
 3921POPC   C1B50179  14.037   7.614   6.197
 3921POPC   C2B50180  13.827   7.609   6.601
 3921POPC   C3B50181  13.949   7.482   7.015
 3921POPC   C4B50182  13.842   7.539   7.459
 3922POPC   NC350183   6.685  21.040   5.360
 3922POPC   PO450184   6.936  21.662   5.191
 3922POPC   GL150185   6.844  21.451   5.648
 3922POPC   GL250186   6.530  21.236   5.807
 3922POPC   C1A50187   6.860  21.456   6.129
 3922POPC   D2A50188   6.848  21.575   6.599
 3922POPC   C3A50189   6.909  21.223   6.901
 3922POPC   C4A50190   6.567  20.988   7.099
 3922POPC   C1B50191   6.359  21.339   6.247
 3922POPC   C2B50192   6.420  21.302   6.717
 3922POPC   C3B50193   6.494  21.498   7.159
 3922POPC   C4B50194   6.333  21.528   7.634
 3923POPC   NC350195  40.472  25.451   5.365
 3923POPC   PO450196  41.098  25.182   5.136
 3923POPC   GL150197  40.857  25.247   5.639
 3923POPC   GL250198  40.626  25.478   5.848
 3923POPC   C1A50199  40.861  25.095   6.117
 3923POPC   D2A50200  41.022  25.267   6.535
 3923POPC   C3A50201  40.918  25.089   6.981
 3923POPC   C4A50202  40.736  25.033   7.415
 3923POPC   C1B50203  40.566  25.462   6.308
 3923POPC   C2B50204  40.535  25.268   6.702
 3923POPC   C3B50205  40.480  25.351   7.118
 3923POPC   C4B50206  40.758  25.533   7.435
 3924POPC   NC350207  17.946  26.362   4.907
 3924POPC   PO450208  18.480  26.023   5.215
 3924POPC   GL150209  18.426  25.914   5.671
 3924POPC   GL250210  18.060  26.039   5.750
 3924POPC   C1A50211  18.345  25.760   6.088
 3924POPC   D2A50212  18.134  25.930   6.404
 3924POPC   C3A50213  18.254  25.968   6.833
 3924POPC   C4A50214  18.032  25.691   7.113
 3924POPC   C1B50215  18.008  26.329   6.099
 3924POPC   C2B50216  18.104  26.405   6.539
 3924POPC   C3B50217  17.948  26.379   6.925
 3924POPC   C4B50218  17.980  26.584   7.303
 3925POPC   NC350219   4.568   0.295   5.370
 3925POPC   PO450220   4.499   0.969   5.303
 3925POPC   GL150221   4.337   0.621   5.693
 3925POPC   GL250222   4.210   0.245   5.740
 3925POPC   C1A50223   4.105   0.551   6.133
 3925POPC   D2A50224   3.956   0.747   6.543
 3925POPC   C3A50225   4.341   0.699   6.796
 3925POPC   C4A50226   4.464   0.585   7.208
 3925POPC   C1B50227   4.116   0.003   6.132
 3925POPC   C2B50228   4.131  44.986   6.592
 3925POPC   C3B50229   4.415   0.022   6.954
 3925POPC   C4B50230   4.273   0.054   7.376
 3926POPC   NC350231  15.851  32.740   5.526
 3926POPC   PO450232  15.477  32.144   5.389
 3926POPC   GL150233  15.884  32.244   5.738
 3926POPC   GL250234  16.148  31.981   5.819
 3926POPC   C1A50235  16.233  32.424   6.098
 3926POPC   D2A50236  16.134  32.668   6.488
 3926POPC   C3A50237  16.069  32.388   6.819
 3926POPC   C4A50238  15.910  32.494   7.215
 3926POPC   C1B50239  15.943  32.031   6.258
 3926POPC   C2B50240  15.762  31.962   6.682
 3926POPC   C3B50241  15.875  32.005   7.111
 3926POPC   C4B50242  16.287  32.115   7.201
 3927POPC   NC350243  42.403   5.043   5.350
 3927POPC   PO450244  42.975   5.449   5.399
 3927POPC   GL150245  42.617   5.299   5.751
 3927POPC   GL250246  42.444   4.941   5.833
 3927POPC   C1A50247  42.532   5.256   6.234
 3927POPC   D2A50248  42.648   5.445   6.657
 3927POPC   C3A50249  42.567   5.296   7.097
 3927POPC   C4A50250  42.532   5.344   7.567
 3927POPC   C1B50251  42.561   4.692   6.188
 3927POPC   C2B50252  42.511   4.839   6.598
 3927POPC   C3B50253  42.218   5.102   6.765
 3927POPC   C4B50254  42.077   5.118   7.194
 3928POPC   NC350255  41.022  14.988   5.071
 3928POPC   PO450256  40.729  15.414   5.504
 3928POPC   GL150257  40.588  15.277   5.853
 3928POPC   GL250258  40.490  14.923   5.795
 3928POPC   C1A50259  40.856  15.255   6.213
 3928POPC   D2A50260  40.884  14.945   6.497
 3928POPC   C3A50261  40.929  15.204   6.817
 3928POPC   C4A50262  40.915  15.446   7.178
 3928POPC   C1B50263  40.426  15.004   6.240
 3928POPC   C2B50264  40.432  15.128   6.682
 3928POPC   C3B50265  40.538  15.026   7.114
 3928POPC   C4B50266  40.317  14.884   7.505
 3929POPC   NC350267  37.351  22.745   5.559
 3929POPC   PO450268  37.917  22.554   5.258
 3929POPC   GL150269  37.830  22.772   5.711
 3929POPC   GL250270  37.811  23.114   5.902
 3929POPC   C1A50271  37.731  22.708   6.184
 3929POPC   D2A50272  37.884  22.956   6.559
 3929POPC   C3A50273  37.755  22.890   6.985
 3929POPC   C4A50274  37.369  22.752   7.227
 3929POPC   C1B50275  37.608  23.332   6.312
 3929POPC   C2B50276  37.379  23.244   6.714
 3929POPC   C3B50277  37.453  23.260   7.162
 3929POPC   C4B50278  37.722  23.271   7.523
 3930POPC   NC350279  22.360  31.848   5.487
 3930POPC   PO450280  21.795  31.411   5.278
 3930POPC   GL150281  22.076  31.441   5.596
 3930POPC   GL250282  21.964  31.737   5.783
 3930POPC   C1A50283  22.127  31.273   5.992
 3930POPC   D2A50284  22.166  31.268   6.426
 3930POPC   C3A50285  21.945  31.450   6.762
 3930POPC   C4A50286  22.118  31.319   7.180
 3930POPC   C1B50287  21.822  31.656   6.208
 3930POPC   C2B50288  21.962  31.920   6.544
 3930POPC   C3B50289  21.799  31.961   6.936
 3930POPC   C4B50290  21.880  31.771   7.309
 3931POPC   NC350291  31.666  28.522   4.848
 3931POPC   PO450292  31.645  28.563   5.525
 3931POPC   GL150293  31.511  28.680   5.909
 3931POPC   GL250294  31.168  28.582   5.958
 3931POPC   C1A50295  31.527  28.667   6.339
 3931POPC   D2A50296  31.569  28.583   6.726
 3931POPC   C3A50297  31.357  28.848   6.961
 3931POPC   C4A50298  31.185  28.474   7.134
 3931POPC   C1B50299  31.438  28.229   6.122
 3931POPC   C2B50300  31.534  28.014   6.511
 3931POPC   C3B50301  31.537  28.107   6.964
 3931POPC   C4B50302  31.782  28.044   7.342
 3932POPC   NC350303  16.999  16.570   5.098
 3932POPC   PO450304  16.802  17.104   5.456
 3932POPC   GL150305  16.608  16.777   5.691
 3932POPC   GL250306  16.464  16.984   5.877
 3932POPC   C1A50307  16.729  16.606   6.090
 3932POPC   D2A50308  16.775  16.751   6.497
 3932POPC   C3A50309  16.862  16.497   6.833
 3932POPC   C4A50310  16.639  16.458   7.181
 3932POPC   C1B50311  16.864  17.109   6.140
 3932POPC   C2B50312  16.899  17.241   6.591
 3932POPC   C3B50313  16.746  17.003   6.971
 3932POPC   C4B50314  16.729  16.869   7.435
 3933POPC   NC350315  13.984   2.069   5.516
 3933POPC   PO450316  13.418   1.724   5.565
 3933POPC   GL150317  13.636   1.963   5.870
 3933POPC   GL250318  13.588   2.303   5.746
 3933POPC   C1A50319  13.883   1.985   6.242
 3933POPC   D2A50320  13.788   1.793   6.647
 3933POPC   C3A50321  13.792   1.956   7.052
 3933POPC   C4A50322  13.473   1.934   7.369
 3933POPC   C1B50323  13.516   2.354   6.185
 3933POPC   C2B50324  13.747   2.354   6.590
 3933POPC   C3B50325  13.535   2.391   6.980
 3933POPC   C4B50326  13.605   2.441   7.417
 3934POPC   NC350327  30.664   7.943   5.458
 3934POPC   PO450328  30.332   8.466   5.228
 3934POPC   GL150329  30.501   8.315   5.749
 3934POPC   GL250330  30.813   8.153   5.888
 3934POPC   C1A50331  30.430   8.260   6.214
 3934POPC   D2A50332  30.646   8.088   6.602
 3934POPC   C3A50333  30.476   8.227   7.022
 3934POPC   C4A50334  30.342   8.532   7.375
 3934POPC   C1B50335  31.036   7.966   6.225
 3934POPC   C2B50336  31.221   7.905   6.647
 3934POPC   C3B50337  31.187   8.068   7.066
 3934POPC   C4B50338  30.841   8.014   7.337
 3935POPC   NC350339  39.674  20.143   5.541
 3935POPC   PO450340  40.218  19.724   5.428
 3935POPC   GL150341  40.010  19.758   5.788
 3935POPC   GL250342  39.777  19.511   5.846
 3935POPC   C1A50343  40.083  20.059   6.097
 3935POPC   D2A50344  39.892  20.178   6.459
 3935POPC   C3A50345  40.113  19.984   6.791
 3935POPC   C4A50346  39.983  20.014   7.192
 3935POPC   C1B50347  39.638  19.773   6.171
 3935POPC   C2B50348  39.789  19.673   6.536
 3935POPC   C3B50349  39.743  19.641   6.973
 3935POPC   C4B50350  39.977  19.526   7.359
 3936POPC   NC350351  21.033   7.349   5.267
 3936POPC   PO450352  21.682   7.311   5.291
 3936POPC   GL150353  21.617   7.464   5.747
 3936POPC   GL250354  21.388   7.232   5.860
 3936POPC   C1A50355  21.394   7.667   6.120
 3936POPC   D2A50356  21.268   7.350   6.431
 3936POPC   C3A50357  21.256   7.446   6.878
 3936POPC   C4A50358  20.983   7.601   7.218
 3936POPC   C1B50359  21.722   7.254   6.208
 3936POPC   C2B50360  21.711   7.203   6.673
 3936POPC   C3B50361  21.733   7.325   7.117
 3936POPC   C4B50362  21.716   7.279   7.606
 3937POPC   NC350363   7.432  19.459   5.354
 3937POPC   PO450364   7.459  18.777   5.453
 3937POPC   GL150365   7.352  19.081   5.732
 3937POPC   GL250366   7.058  19.313   5.670
 3937POPC   C1A50367   7.555  19.045   6.133
 3937POPC   D2A50368   7.777  19.062   6.535
 3937POPC   C3A50369   7.583  19.027   6.944
 3937POPC   C4A50370   7.707  18.809   7.363
 3937POPC   C1B50371   7.155  19.382   6.099
 3937POPC   C2B50372   7.229  19.200   6.504
 3937POPC   C3B50373   7.166  19.372   6.896
 3937POPC   C4B50374   7.243  19.256   7.305
 3938POPC   NC350375  39.161   0.056   5.395
 3938POPC   PO450376  38.847   0.683   5.302
 3938POPC   GL150377  38.957   0.689   5.793
 3938POPC   GL250378  39.282   0.558   5.860
 3938POPC   C1A50379  39.015   0.623   6.281
 3938POPC   D2A50380  39.129   0.294   6.573
 3938POPC   C3A50381  39.369   0.335   6.939
 3938POPC   C4A50382  39.082   0.523   7.196
 3938POPC   C1B50383  39.495   0.396   6.229
 3938POPC   C2B50384  39.669   0.582   6.610
 3938POPC   C3B50385  39.676   0.733   7.060
 3938POPC   C4B50386  39.630   0.451   7.470
 3939POPC   NC350387  23.272   6.614   5.505
 3939POPC   PO450388  22.509   6.760   5.404
 3939POPC   GL150389  22.723   6.749   5.812
 3939POPC   GL250390  22.982   6.982   5.722
 3939POPC   C1A50391  22.879   6.586   6.234
 3939POPC   D2A50392  23.065   6.511   6.663
 3939POPC   C3A50393  22.765   6.557   7.027
 3939POPC   C4A50394  22.813   6.557   7.507
 3939POPC   C1B50395  23.185   6.971   6.111
 3939POPC   C2B50396  23.094   6.998   6.533
 3939POPC   C3B50397  23.146   6.957   6.979
 3939POPC   C4B50398  23.166   6.902   7.448
 3940POPC   NC350399   9.984  17.868   5.600
 3940POPC   PO450400  10.512  17.653   5.232
 3940POPC   GL150401  10.412  17.512   5.624
 3940POPC   GL250402  10.732  17.576   5.745
 3940POPC   C1A50403  10.317  17.385   6.055
 3940POPC   D2A50404  10.167  17.663   6.376
 3940POPC   C3A50405  10.200  17.625   6.837
 3940POPC   C4A50406  10.189  17.232   7.037
 3940POPC   C1B50407  10.640  17.788   6.121
 3940POPC   C2B50408  10.685  17.685   6.540
 3940POPC   C3B50409  10.680  17.839   6.958
 3940POPC   C4B50410  10.570  17.521   7.236
 3941POPC   NC350411   7.037  38.226   5.464
 3941POPC   PO450412   7.695  38.319   5.326
 3941POPC   GL150413   7.644  38.314   5.820
 3941POPC   GL250414   7.298  38.221   5.920
 3941POPC   C1A50415   7.597  38.459   6.292
 3941POPC   D2A50416   7.504  38.360   6.741
 3941POPC   C3A50417   7.381  38.599   7.125
 3941POPC   C4A50418   7.461  38.557   7.583
 3941POPC   C1B50419   7.035  38.032   6.255
 3941POPC   C2B50420   7.083  38.065   6.702
 3941POPC   C3B50421   7.037  38.242   7.122
 3941POPC   C4B50422   7.203  38.103   7.557
 3942POPC   NC350423  13.328  31.224   4.998
 3942POPC   PO450424  13.739  31.428   5.462
 3942POPC   GL150425  13.632  31.462   5.889
 3942POPC   GL250426  13.938  31.332   5.961
 3942POPC   C1A50427  13.699  31.602   6.339
 3942POPC   D2A50428  13.951  31.413   6.669
 3942POPC   C3A50429  13.785  31.344   7.054
 3942POPC   C4A50430  13.651  31.598   7.383
 3942POPC   C1B50431  13.752  31.095   6.315
 3942POPC   C2B50432  13.349  31.010   6.474
 3942POPC   C3B50433  13.346  30.967   6.896
 3942POPC   C4B50434  13.313  31.199   7.296
 3943POPC   NC350435  19.441  20.061   5.383
 3943POPC   PO450436  18.941  19.577   5.191
 3943POPC   GL150437  19.048  19.908   5.616
 3943POPC   GL250438  18.797  20.009   5.901
 3943POPC   C1A50439  19.283  19.925   6.032
 3943POPC   D2A50440  19.171  20.103   6.457
 3943POPC   C3A50441  19.234  19.887   6.866
 3943POPC   C4A50442  18.942  20.020   7.174
 3943POPC   C1B50443  18.874  19.720   6.268
 3943POPC   C2B50444  18.746  19.777   6.680
 3943POPC   C3B50445  18.740  19.573   7.060
 3943POPC   C4B50446  18.745  19.663   7.504
 3944POPC   NC350447  25.867  30.291   5.406
 3944POPC   PO450448  26.142  30.870   5.494
 3944POPC   GL150449  26.035  30.818   5.915
 3944POPC   GL250450  25.995  30.465   5.903
 3944POPC   C1A50451  25.820  30.827   6.306
 3944POPC   D2A50452  25.661  31.036   6.666
 3944POPC   C3A50453  25.776  30.824   7.017
 3944POPC   C4A50454  26.194  30.864   6.999
 3944POPC   C1B50455  25.912  30.307   6.301
 3944POPC   C2B50456  26.027  30.484   6.684
 3944POPC   C3B50457  26.066  30.402   7.119
 3944POPC   C4B50458  25.719  30.446   7.446
 3945POPC   NC350459   3.790   8.384   5.457
 3945POPC   PO450460   3.281   7.890   5.473
 3945POPC   GL150461   3.470   8.070   5.838
 3945POPC   GL250462   3.820   8.041   5.847
 3945POPC   C1A50463   3.336   8.183   6.269
 3945POPC   D2A50464   3.167   8.356   6.674
 3945POPC   C3A50465   3.248   8.151   7.072
 3945POPC   C4A50466   3.476   7.979   7.446
 3945POPC   C1B50467   3.792   8.426   6.155
 3945POPC   C2B50468   3.722   8.420   6.631
 3945POPC   C3B50469   3.772   8.158   7.040
 3945POPC   C4B50470   3.981   8.019   7.454
 3946POPC   NC350471  19.813  17.125   5.454
 3946POPC   PO450472  20.006  16.450   5.353
 3946POPC   GL150473  19.853  16.484   5.753
 3946POPC   GL250474  20.052  16.776   5.817
 3946POPC   C1A50475  19.778  16.535   6.197
 3946POPC   D2A50476  19.795  16.744   6.594
 3946POPC   C3A50477  19.723  16.505   6.958
 3946POPC   C4A50478  19.558  16.585   7.378
 3946POPC   C1B50479  19.965  17.050   6.172
 3946POPC   C2B50480  20.162  17.081   6.578
 3946POPC   C3B50481  20.089  17.168   7.020
 3946POPC   C4B50482  20.021  16.776   7.287
 3947POPC   NC350483  25.225  28.641   5.235
 3947POPC   PO450484  24.898  28.120   5.562
 3947POPC   GL150485  25.214  28.452   5.705
 3947POPC   GL250486  25.258  28.253   5.939
 3947POPC   C1A50487  25.342  28.715   6.089
 3947POPC   D2A50488  25.390  28.639   6.555
 3947POPC   C3A50489  25.007  28.566   6.798
 3947POPC   C4A50490  24.986  28.395   7.212
 3947POPC   C1B50491  25.530  28.228   6.247
 3947POPC   C2B50492  25.491  28.126   6.666
 3947POPC   C3B50493  25.419  28.163   7.084
 3947POPC   C4B50494  25.473  27.879   7.401
 3948POPC   NC350495  24.212  35.531   5.515
 3948POPC   PO450496  23.485  35.592   5.334
 3948POPC   GL150497  23.683  35.374   5.702
 3948POPC   GL250498  23.852  35.060   5.770
 3948POPC   C1A50499  23.528  35.232   6.122
 3948POPC   D2A50500  23.701  35.287   6.533
 3948POPC   C3A50501  23.597  35.335   6.959
 3948POPC   C4A50502  23.618  34.999   7.270
 3948POPC   C1B50503  24.037  35.284   6.151
 3948POPC   C2B50504  24.089  35.597   6.491
 3948POPC   C3B50505  24.118  35.405   6.887
 3948POPC   C4B50506  23.974  35.607   7.246
 3949POPC   NC350507  37.642  19.520   5.424
 3949POPC   PO450508  37.566  20.108   5.517
 3949POPC   GL150509  37.808  19.847   5.797
 3949POPC   GL250510  37.551  19.600   5.911
 3949POPC   C1A50511  38.055  20.059   6.117
 3949POPC   D2A50512  38.260  20.106   6.521
 3949POPC   C3A50513  38.018  20.002   6.919
 3949POPC   C4A50514  37.597  20.197   7.024
 3949POPC   C1B50515  37.700  19.728   6.329
 3949POPC   C2B50516  37.529  19.738   6.762
 3949POPC   C3B50517  37.656  19.687   7.192
 3949POPC   C4B50518  37.512  19.368   7.470
 3950POPC   NC350519   5.130  25.546   5.331
 3950POPC   PO450520   5.614  25.085   5.500
 3950POPC   GL150521   5.319  25.212   5.850
 3950POPC   GL250522   4.985  25.352   5.801
 3950POPC   C1A50523   5.152  25.244   6.287
 3950POPC   D2A50524   5.359  25.260   6.682
 3950POPC   C3A50525   5.103  25.033   7.005
 3950POPC   C4A50526   5.113  25.016   7.481
 3950POPC   C1B50527   4.768  25.574   6.151
 3950POPC   C2B50528   4.665  25.461   6.573
 3950POPC   C3B50529   4.545  25.628   6.991
 3950POPC   C4B50530   4.727  25.328   7.266
 3951POPC   NC350531  26.412  31.124   5.226
 3951POPC   PO450532  26.792  31.623   5.385
 3951POPC   GL150533  27.008  31.594   5.764
 3951POPC   GL250534  26.905  31.273   5.924
 3951POPC   C1A50535  27.033  31.689   6.203
 3951POPC   D2A50536  27.140  31.350   6.510
 3951POPC   C3A50537  27.159  31.475   6.953
 3951POPC   C4A50538  26.819  31.510   7.258
 3951POPC   C1B50539  26.482  31.083   6.088
 3951POPC   C2B50540  26.347  31.051   6.522
 3951POPC   C3B50541  26.591  31.182   6.892
 3951POPC   C4B50542  26.443  31.170   7.298
 3952POPC   NC350543  14.134  21.284   5.550
 3952POPC   PO450544  14.761  21.103   5.399
 3952POPC   GL150545  14.578  21.297   5.767
 3952POPC   GL250546  14.621  21.645   5.809
 3952POPC   C1A50547  14.424  21.281   6.173
 3952POPC   D2A50548  14.569  21.182   6.550
 3952POPC   C3A50549  14.452  21.371   6.898
 3952POPC   C4A50550  14.214  21.265   7.203
 3952POPC   C1B50551  14.482  21.798   6.174
 3952POPC   C2B50552  14.631  21.725   6.568
 3952POPC   C3B50553  14.658  21.833   6.993
 3952POPC   C4B50554  14.672  21.545   7.331
 3953POPC   NC350555  13.844  31.994   5.471
 3953POPC   PO450556  13.232  32.284   5.471
 3953POPC   GL150557  13.562  32.277   5.802
 3953POPC   GL250558  13.710  31.973   5.968
 3953POPC   C1A50559  13.691  32.428   6.196
 3953POPC   D2A50560  13.841  32.445   6.611
 3953POPC   C3A50561  13.687  32.320   7.028
 3953POPC   C4A50562  13.548  32.079   7.419
 3953POPC   C1B50563  13.989  32.032   6.338
 3953POPC   C2B50564  13.935  31.949   6.788
 3953POPC   C3B50565  14.009  31.973   7.235
 3953POPC   C4B50566  14.014  31.907   7.691
 3954POPC   NC350567  12.497  43.068   5.406
 3954POPC   PO450568  13.110  43.452   5.592
 3954POPC   GL150569  12.817  43.157   5.791
 3954POPC   GL250570  12.877  42.810   5.681
 3954POPC   C1A50571  12.733  42.966   6.184
 3954POPC   D2A50572  12.973  43.213   6.490
 3954POPC   C3A50573  12.834  43.267   6.904
 3954POPC   C4A50574  12.959  43.132   7.305
 3954POPC   C1B50575  13.200  42.853   6.042
 3954POPC   C2B50576  13.240  42.775   6.493
 3954POPC   C3B50577  13.262  42.856   6.938
 3954POPC   C4B50578  13.330  42.760   7.376
 3955POPC   NC350579  39.817   2.638   5.326
 3955POPC   PO450580  40.224   3.127   5.620
 3955POPC   GL150581  39.915   2.869   5.812
 3955POPC   GL250582  39.908   2.513   5.807
 3955POPC   C1A50583  39.862   2.859   6.244
 3955POPC   D2A50584  39.757   2.757   6.661
 3955POPC   C3A50585  39.734   2.914   7.093
 3955POPC   C4A50586  40.143   2.794   7.247
 3955POPC   C1B50587  39.712   2.353   6.166
 3955POPC   C2B50588  39.591   2.291   6.600
 3955POPC   C3B50589  39.815   2.407   7.030
 3955POPC   C4B50590  39.805   2.550   7.518
 3956POPC   NC350591  33.302  10.096   5.541
 3956POPC   PO450592  32.924   9.540   5.325
 3956POPC   GL150593  32.986   9.722   5.732
 3956POPC   GL250594  33.315   9.661   5.822
 3956POPC   C1A50595  32.876   9.637   6.173
 3956POPC   D2A50596  33.057   9.585   6.587
 3956POPC   C3A50597  33.069   9.958   6.809
 3956POPC   C4A50598  33.006   9.874   7.216
 3956POPC   C1B50599  33.388   9.827   6.217
 3956POPC   C2B50600  33.580   9.808   6.616
 3956POPC   C3B50601  33.440   9.633   7.003
 3956POPC   C4B50602  33.375   9.631   7.471
 3957POPC   NC350603   1.372   4.540   5.445
 3957POPC   PO450604   0.846   4.154   5.188
 3957POPC   GL150605   1.058   4.247   5.677
 3957POPC   GL250606   1.440   4.122   5.738
 3957POPC   C1A50607   1.076   4.191   6.127
 3957POPC   D2A50608   1.133   4.150   6.583
 3957POPC   C3A50609   1.133   4.548   6.813
 3957POPC   C4A50610   1.273   4.725   7.201
 3957POPC   C1B50611   1.583   4.022   6.155
 3957POPC   C2B50612   1.652   3.964   6.593
 3957POPC   C3B50613   1.522   4.229   6.894
 3957POPC   C4B50614   1.243   4.212   7.224
 3958POPC   NC350615  25.929  25.004   5.514
 3958POPC   PO450616  26.445  24.613   5.317
 3958POPC   GL150617  26.188  24.501   5.684
 3958POPC   GL250618  26.183  24.779   5.903
 3958POPC   C1A50619  26.055  24.307   6.097
 3958POPC   D2A50620  25.905  24.316   6.531
 3958POPC   C3A50621  26.222  24.394   6.833
 3958POPC   C4A50622  26.326  24.604   7.203
 3958POPC   C1B50623  25.916  24.786   6.286
 3958POPC   C2B50624  25.931  24.836   6.747
 3958POPC   C3B50625  25.856  24.863   7.189
 3958POPC   C4B50626  25.654  24.627   7.518
 3959POPC   NC350627   6.806  25.076   5.375
 3959POPC   PO450628   7.019  25.622   5.083
 3959POPC   GL150629   6.725  25.547   5.606
 3959POPC   GL250630   6.816  25.252   5.822
 3959POPC   C1A50631   6.617  25.530   6.147
 3959POPC   D2A50632   6.778  25.384   6.562
 3959POPC   C3A50633   6.478  25.168   6.825
 3959POPC   C4A50634   6.335  25.224   7.236
 3959POPC   C1B50635   6.888  25.026   6.197
 3959POPC   C2B50636   6.894  24.873   6.626
 3959POPC   C3B50637   6.965  25.100   7.018
 3959POPC   C4B50638   6.806  25.119   7.431
 3960POPC   NC350639  29.443  28.655   5.499
 3960POPC   PO450640  28.884  28.772   5.180
 3960POPC   GL150641  28.979  28.650   5.672
 3960POPC   GL250642  29.159  28.314   5.762
 3960POPC   C1A50643  29.206  28.664   6.120
 3960POPC   D2A50644  29.093  28.417   6.492
 3960POPC   C3A50645  29.272  28.383   6.904
 3960POPC   C4A50646  29.018  28.322   7.252
 3960POPC   C1B50647  29.368  28.152   6.146
 3960POPC   C2B50648  29.565  28.157   6.547
 3960POPC   C3B50649  29.511  27.914   6.914
 3960POPC   C4B50650  29.292  27.849   7.287
 3961POPC   NC350651  21.098  18.069   5.426
 3961POPC   PO450652  21.545  18.583   5.413
 3961POPC   GL150653  21.470  18.290   5.740
 3961POPC   GL250654  21.575  17.970   5.564
 3961POPC   C1A50655  21.386  18.320   6.215
 3961POPC   D2A50656  21.424  18.197   6.672
 3961POPC   C3A50657  21.435  18.510   7.025
 3961POPC   C4A50658  21.436  18.506   7.504
 3961POPC   C1B50659  21.550  17.863   6.011
 3961POPC   C2B50660  21.720  17.827   6.416
 3961POPC   C3B50661  21.667  17.788   6.880
 3961POPC   C4B50662  21.451  18.027   7.177
 3962POPC   NC350663  30.330  34.495   5.409
 3962POPC   PO450664  29.672  34.486   5.373
 3962POPC   GL150665  29.801  34.729   5.743
 3962POPC   GL250666  30.149  34.821   5.758
 3962POPC   C1A50667  29.665  34.690   6.170
 3962POPC   D2A50668  29.664  34.879   6.593
 3962POPC   C3A50669  29.787  34.674   6.998
 3962POPC   C4A50670  29.702  34.848   7.420
 3962POPC   C1B50671  30.182  34.561   6.108
 3962POPC   C2B50672  30.070  34.531   6.515
 3962POPC   C3B50673  30.279  34.598   6.871
 3962POPC   C4B50674  30.280  34.547   7.285
 3963POPC   NC350675   1.969  23.257   5.316
 3963POPC   PO450676   1.660  22.569   5.300
 3963POPC   GL150677   1.805  22.851   5.670
 3963POPC   GL250678   2.124  23.077   5.767
 3963POPC   C1A50679   1.829  22.844   6.124
 3963POPC   D2A50680   2.047  23.102   6.425
 3963POPC   C3A50681   1.896  23.005   6.835
 3963POPC   C4A50682   1.999  23.154   7.243
 3963POPC   C1B50683   2.349  22.845   6.096
 3963POPC   C2B50684   2.471  22.880   6.550
 3963POPC   C3B50685   2.338  22.820   6.995
 3963POPC   C4B50686   2.588  22.821   7.366
 3964POPC   NC350687  10.061  12.844   5.366
 3964POPC   PO450688   9.407  12.787   5.617
 3964POPC   GL150689   9.755  12.925   5.851
 3964POPC   GL250690   9.951  12.612   5.864
 3964POPC   C1A50691   9.792  13.099   6.286
 3964POPC   D2A50692   9.863  12.873   6.676
 3964POPC   C3A50693   9.742  12.973   7.088
 3964POPC   C4A50694   9.683  13.091   7.520
 3964POPC   C1B50695   9.700  12.590   6.273
 3964POPC   C2B50696   9.483  12.517   6.696
 3964POPC   C3B50697   9.453  12.561   7.188
 3964POPC   C4B50698   9.459  12.633   7.656
 3965POPC   NC350699  37.535  37.753   5.378
 3965POPC   PO450700  37.968  37.191   5.476
 3965POPC   GL150701  37.708  37.429   5.771
 3965POPC   GL250702  37.755  37.818   5.822
 3965POPC   C1A50703  37.722  37.494   6.232
 3965POPC   D2A50704  37.513  37.607   6.612
 3965POPC   C3A50705  37.733  37.645   6.999
 3965POPC   C4A50706  37.768  37.408   7.382
 3965POPC   C1B50707  37.470  37.952   6.139
 3965POPC   C2B50708  37.361  38.088   6.546
 3965POPC   C3B50709  37.283  37.931   6.946
 3965POPC   C4B50710  37.426  37.874   7.353
 3966POPC   NC350711  31.381  14.338   5.398
 3966POPC   PO450712  31.815  14.802   5.550
 3966POPC   GL150713  31.518  14.548   5.837
 3966POPC   GL250714  31.128  14.577   5.772
 3966POPC   C1A50715  31.505  14.237   6.179
 3966POPC   D2A50716  31.791  13.921   6.400
 3966POPC   C3A50717  31.786  14.012   6.841
 3966POPC   C4A50718  31.705  14.386   7.082
 3966POPC   C1B50719  31.219  14.683   6.228
 3966POPC   C2B50720  31.388  14.654   6.666
 3966POPC   C3B50721  31.292  14.722   7.086
 3966POPC   C4B50722  31.148  14.325   7.164
 3967POPC   NC350723  15.844  31.039   5.545
 3967POPC   PO450724  16.296  30.513   5.586
 3967POPC   GL150725  16.030  30.657   5.862
 3967POPC   GL250726  15.757  30.419   5.864
 3967POPC   C1A50727  16.146  30.792   6.300
 3967POPC   D2A50728  15.896  30.763   6.693
 3967POPC   C3A50729  16.101  30.660   7.095
 3967POPC   C4A50730  16.124  30.764   7.560
 3967POPC   C1B50731  15.665  30.633   6.228
 3967POPC   C2B50732  15.512  30.435   6.586
 3967POPC   C3B50733  15.718  30.326   6.996
 3967POPC   C4B50734  15.685  30.586   7.380
 3968POPC   NC350735  39.004  29.386   5.483
 3968POPC   PO450736  39.361  28.898   5.686
 3968POPC   GL150737  39.171  29.075   5.984
 3968POPC   GL250738  39.273  29.460   5.924
 3968POPC   C1A50739  39.084  28.829   6.378
 3968POPC   D2A50740  38.786  28.818   6.735
 3968POPC   C3A50741  39.077  28.979   7.067
 3968POPC   C4A50742  39.508  29.078   7.179
 3968POPC   C1B50743  38.976  29.445   6.238
 3968POPC   C2B50744  39.025  29.285   6.628
 3968POPC   C3B50745  39.250  29.468   6.948
 3968POPC   C4B50746  39.010  29.422   7.296
 3969POPC   NC350747   6.246  27.073   5.683
 3969POPC   PO450748   5.735  26.820   5.273
 3969POPC   GL150749   5.787  26.826   5.719
 3969POPC   GL250750   5.637  27.132   5.851
 3969POPC   C1A50751   5.859  26.657   6.155
 3969POPC   D2A50752   6.034  26.575   6.590
 3969POPC   C3A50753   5.870  26.684   7.031
 3969POPC   C4A50754   6.074  26.787   7.454
 3969POPC   C1B50755   5.609  27.147   6.310
 3969POPC   C2B50756   5.327  27.281   6.670
 3969POPC   C3B50757   5.334  27.048   7.052
 3969POPC   C4B50758   5.620  27.001   7.382
 3970POPC   NC350759  40.521  21.625   5.312
 3970POPC   PO450760  40.839  21.005   5.369
 3970POPC   GL150761  40.704  21.152   5.773
 3970POPC   GL250762  40.489  21.455   5.787
 3970POPC   C1A50763  40.863  21.263   6.188
 3970POPC   D2A50764  41.053  21.084   6.561
 3970POPC   C3A50765  40.851  21.292   6.872
 3970POPC   C4A50766  40.877  21.252   7.292
 3970POPC   C1B50767  40.344  21.396   6.208
 3970POPC   C2B50768  40.451  21.513   6.622
 3970POPC   C3B50769  40.363  21.407   7.052
 3970POPC   C4B50770  40.490  21.493   7.481
 3971POPC   NC350771  21.145  23.189   5.330
 3971POPC   PO450772  21.792  22.911   5.218
 3971POPC   GL150773  21.466  22.910   5.606
 3971POPC   GL250774  21.144  22.751   5.655
 3971POPC   C1A50775  21.408  23.021   6.091
 3971POPC   D2A50776  21.337  23.194   6.539
 3971POPC   C3A50777  21.500  23.040   6.953
 3971POPC   C4A50778  21.261  23.178   7.321
 3971POPC   C1B50779  21.007  22.703   6.076
 3971POPC   C2B50780  21.250  22.658   6.450
 3971POPC   C3B50781  21.229  22.519   6.858
 3971POPC   C4B50782  21.227  22.695   7.256
 3972POPC   NC350783   5.308  29.510   5.414
 3972POPC   PO450784   4.805  28.962   5.424
 3972POPC   GL150785   5.045  29.003   5.790
 3972POPC   GL250786   5.114  29.349   5.840
 3972POPC   C1A50787   5.382  29.004   6.112
 3972POPC   D2A50788   5.502  29.010   6.552
 3972POPC   C3A50789   5.158  28.903   6.830
 3972POPC   C4A50790   5.067  29.067   7.226
 3972POPC   C1B50791   4.896  29.457   6.185
 3972POPC   C2B50792   5.013  29.326   6.579
 3972POPC   C3B50793   4.860  29.442   6.970
 3972POPC   C4B50794   4.567  29.263   7.280
 3973POPC   NC350795  38.125  21.827   5.583
 3973POPC   PO450796  37.392  21.710   5.364
 3973POPC   GL150797  37.541  21.441   5.787
 3973POPC   GL250798  37.930  21.426   5.850
 3973POPC   C1A50799  37.598  21.308   6.224
 3973POPC   D2A50800  37.421  21.496   6.571
 3973POPC   C3A50801  37.508  21.488   7.007
 3973POPC   C4A50802  37.715  21.179   7.244
 3973POPC   C1B50803  38.115  21.359   6.276
 3973POPC   C2B50804  37.936  21.359   6.708
 3973POPC   C3B50805  38.027  21.585   7.109
 3973POPC   C4B50806  37.978  21.673   7.575
 3974POPC   NC350807   9.935  12.238   5.269
 3974POPC   PO450808   9.366  11.885   5.412
 3974POPC   GL150809   9.648  12.069   5.717
 3974POPC   GL250810   9.814  11.776   5.804
 3974POPC   C1A50811   9.841  12.131   6.150
 3974POPC   D2A50812   9.941  12.249   6.598
 3974POPC   C3A50813   9.920  12.451   6.986
 3974POPC   C4A50814   9.972  12.150   7.298
 3974POPC   C1B50815   9.869  11.605   6.159
 3974POPC   C2B50816   9.709  11.791   6.517
 3974POPC   C3B50817   9.916  11.781   6.890
 3974POPC   C4B50818  10.007  11.642   7.278
 3975POPC   NC350819  27.855  34.727   5.269
 3975POPC   PO450820  27.372  34.331   5.460
 3975POPC   GL150821  27.379  34.612   5.798
 3975POPC   GL250822  27.737  34.659   5.778
 3975POPC   C1A50823  27.480  34.408   6.190
 3975POPC   D2A50824  27.460  34.203   6.590
 3975POPC   C3A50825  27.319  34.461   6.948
 3975POPC   C4A50826  27.432  34.504   7.388
 3975POPC   C1B50827  27.641  34.891   6.173
 3975POPC   C2B50828  27.651  34.717   6.579
 3975POPC   C3B50829  27.789  34.679   6.993
 3975POPC   C4B50830  27.687  34.943   7.305
 3976POPC   NC350831   0.207  31.185   5.514
 3976POPC   PO450832   0.606  31.730   5.513
 3976POPC   GL150833   0.520  31.436   5.830
 3976POPC   GL250834   0.792  31.229   5.882
 3976POPC   C1A50835   0.455  31.338   6.265
 3976POPC   D2A50836   0.653  31.219   6.654
 3976POPC   C3A50837   0.355  31.402   6.970
 3976POPC   C4A50838   0.474  31.590   7.380
 3976POPC   C1B50839   0.853  31.663   6.122
 3976POPC   C2B50840   0.917  31.798   6.551
 3976POPC   C3B50841   0.858  31.618   6.985
 3976POPC   C4B50842   0.769  31.203   7.180
 3977POPC   NC350843  13.954  28.392   5.336
 3977POPC   PO450844  14.465  28.049   5.514
 3977POPC   GL150845  14.214  28.296   5.802
 3977POPC   GL250846  14.363  28.604   5.739
 3977POPC   C1A50847  14.140  28.206   6.249
 3977POPC   D2A50848  14.258  28.092   6.665
 3977POPC   C3A50849  14.087  28.290   7.011
 3977POPC   C4A50850  14.228  28.052   7.345
 3977POPC   C1B50851  14.292  28.694   6.183
 3977POPC   C2B50852  14.473  28.533   6.569
 3977POPC   C3B50853  14.584  28.394   6.983
 3977POPC   C4B50854  14.372  28.549   7.359
 3978POPC   NC350855  40.334  39.030   5.314
 3978POPC   PO450856  39.740  39.359   5.252
 3978POPC   GL150857  39.894  39.230   5.716
 3978POPC   GL250858  40.183  39.007   5.800
 3978POPC   C1A50859  40.102  39.401   6.117
 3978POPC   D2A50860  40.045  39.209   6.503
 3978POPC   C3A50861  40.068  39.382   6.871
 3978POPC   C4A50862  40.067  39.397   7.252
 3978POPC   C1B50863  39.963  38.832   6.147
 3978POPC   C2B50864  40.024  38.664   6.567
 3978POPC   C3B50865  40.029  38.834   7.002
 3978POPC   C4B50866  40.239  38.935   7.390
 3979POPC   NC350867   2.646   5.553   5.545
 3979POPC   PO450868   2.951   6.170   5.338
 3979POPC   GL150869   2.924   5.949   5.783
 3979POPC   GL250870   3.000   5.589   5.891
 3979POPC   C1A50871   2.627   5.865   6.148
 3979POPC   D2A50872   2.426   5.861   6.550
 3979POPC   C3A50873   2.688   6.005   6.895
 3979POPC   C4A50874   2.712   5.946   7.345
 3979POPC   C1B50875   3.100   5.686   6.288
 3979POPC   C2B50876   3.113   5.933   6.632
 3979POPC   C3B50877   3.157   5.834   7.041
 3979POPC   C4B50878   3.196   6.126   7.325
 3980POPC   NC350879  30.944  31.832   5.222
 3980POPC   PO450880  30.572  32.341   5.543
 3980POPC   GL150881  30.593  32.171   5.922
 3980POPC   GL250882  30.854  31.946   5.837
 3980POPC   C1A50883  30.742  32.225   6.344
 3980POPC   D2A50884  30.987  32.311   6.715
 3980POPC   C3A50885  30.722  32.299   7.059
 3980POPC   C4A50886  30.288  32.392   7.086
 3980POPC   C1B50887  30.658  31.732   6.183
 3980POPC   C2B50888  30.530  31.618   6.588
 3980POPC   C3B50889  30.631  31.798   6.979
 3980POPC   C4B50890  30.922  31.797   7.335
 3981POPC   NC350891  14.638  17.247   5.376
 3981POPC   PO450892  14.350  17.862   5.476
 3981POPC   GL150893  14.220  17.588   5.813
 3981POPC   GL250894  14.544  17.426   5.847
 3981POPC   C1A50895  14.251  17.532   6.267
 3981POPC   D2A50896  14.635  17.613   6.485
 3981POPC   C3A50897  14.570  17.635   6.931
 3981POPC   C4A50898  14.204  17.490   7.175
 3981POPC   C1B50899  14.616  17.176   6.200
 3981POPC   C2B50900  14.408  17.094   6.573
 3981POPC   C3B50901  14.497  17.101   6.992
 3981POPC   C4B50902  14.522  17.145   7.441
 3982POPC   NC350903  19.345  38.925   5.482
 3982POPC   PO450904  19.225  38.156   5.455
 3982POPC   GL150905  19.270  38.438   5.782
 3982POPC   GL250906  18.908  38.391   5.845
 3982POPC   C1A50907  19.292  38.306   6.208
 3982POPC   D2A50908  19.012  38.208   6.514
 3982POPC   C3A50909  19.173  38.340   6.879
 3982POPC   C4A50910  19.161  38.305   7.283
 3982POPC   C1B50911  18.720  38.514   6.225
 3982POPC   C2B50912  18.771  38.653   6.660
 3982POPC   C3B50913  18.717  38.520   7.085
 3982POPC   C4B50914  18.872  38.675   7.460
 3983POPC   NC350915   2.868   8.105   5.422
 3983POPC   PO450916   2.338   8.049   5.787
 3983POPC   GL150917   2.681   8.300   5.863
 3983POPC   GL250918   2.960   8.046   5.924
 3983POPC   C1A50919   2.821   8.399   6.263
 3983POPC   D2A50920   2.553   8.213   6.566
 3983POPC   C3A50921   2.773   8.059   6.892
 3983POPC   C4A50922   2.786   8.427   7.125
 3983POPC   C1B50923   2.810   7.834   6.315
 3983POPC   C2B50924   2.464   7.703   6.626
 3983POPC   C3B50925   2.438   7.711   7.090
 3983POPC   C4B50926   2.581   8.012   7.385
 3984POPC   NC350927   1.859  29.349   5.404
 3984POPC   PO450928   2.393  28.821   5.403
 3984POPC   GL150929   2.188  28.871   5.816
 3984POPC   GL250930   1.881  29.094   5.851
 3984POPC   C1A50931   2.135  28.931   6.282
 3984POPC   D2A50932   1.848  29.163   6.541
 3984POPC   C3A50933   1.798  28.972   6.928
 3984POPC   C4A50934   1.541  28.776   7.224
 3984POPC   C1B50935   2.218  29.361   6.028
 3984POPC   C2B50936   2.312  29.403   6.511
 3984POPC   C3B50937   2.139  29.374   6.958
 3984POPC   C4B50938   2.063  29.092   7.344
 3985POPC   NC350939  11.339   5.872   5.001
 3985POPC   PO450940  10.933   6.200   5.542
 3985POPC   GL150941  11.329   6.034   5.781
 3985POPC   GL250942  11.331   5.640   5.851
 3985POPC   C1A50943  11.483   5.951   6.204
 3985POPC   D2A50944  11.294   5.886   6.575
 3985POPC   C3A50945  11.420   6.175   6.866
 3985POPC   C4A50946  11.449   5.904   7.181
 3985POPC   C1B50947  11.179   5.505   6.214
 3985POPC   C2B50948  11.051   5.443   6.608
 3985POPC   C3B50949  11.314   5.466   6.926
 3985POPC   C4B50950  11.124   5.524   7.297
 3986POPC   NC350951  30.913   9.810   5.371
 3986POPC   PO450952  30.451   9.362   5.287
 3986POPC   GL150953  30.533   9.614   5.694
 3986POPC   GL250954  30.536   9.971   5.675
 3986POPC   C1A50955  30.864   9.718   6.031
 3986POPC   D2A50956  31.048   9.787   6.439
 3986POPC   C3A50957  30.814   9.757   6.828
 3986POPC   C4A50958  30.818   9.798   7.246
 3986POPC   C1B50959  30.470  10.059   6.121
 3986POPC   C2B50960  30.626  10.120   6.534
 3986POPC   C3B50961  30.468  10.227   6.971
 3986POPC   C4B50962  30.519  10.156   7.433
 3987POPC   NC350963   7.920  16.322   5.341
 3987POPC   PO450964   8.283  15.805   5.372
 3987POPC   GL150965   8.456  15.996   5.785
 3987POPC   GL250966   8.343  16.378   5.814
 3987POPC   C1A50967   8.667  15.804   6.176
 3987POPC   D2A50968   8.766  15.786   6.637
 3987POPC   C3A50969   8.358  15.900   6.829
 3987POPC   C4A50970   8.069  15.694   7.131
 3987POPC   C1B50971   8.623  16.324   6.193
 3987POPC   C2B50972   8.584  16.358   6.636
 3987POPC   C3B50973   8.525  16.331   7.072
 3987POPC   C4B50974   8.221  16.174   7.348
 3988POPC   NC350975  29.416  18.437   5.484
 3988POPC   PO450976  28.840  18.055   5.452
 3988POPC   GL150977  29.025  18.240   5.812
 3988POPC   GL250978  29.117  18.588   5.865
 3988POPC   C1A50979  29.104  18.200   6.251
 3988POPC   D2A50980  28.996  17.989   6.661
 3988POPC   C3A50981  28.990  18.150   7.101
 3988POPC   C4A50982  29.046  17.805   7.415
 3988POPC   C1B50983  29.516  18.513   6.145
 3988POPC   C2B50984  29.566  18.185   6.476
 3988POPC   C3B50985  29.482  18.100   6.916
 3988POPC   C4B50986  29.510  18.463   7.160
 3989POPC   NC350987  40.683  35.550   5.336
 3989POPC   PO450988  40.436  35.041   5.674
 3989POPC   GL150989  40.811  35.264   5.832
 3989POPC   GL250990  41.125  35.221   5.660
 3989POPC   C1A50991  40.968  35.439   6.232
 3989POPC   D2A50992  40.866  35.582   6.659
 3989POPC   C3A50993  40.483  35.464   6.853
 3989POPC   C4A50994  40.703  35.295   7.187
 3989POPC   C1B50995  41.314  35.111   6.052
 3989POPC   C2B50996  41.283  35.113   6.502
 3989POPC   C3B50997  41.154  35.184   6.936
 3989POPC   C4B50998  40.966  34.850   7.197
 3990POPC   NC350999  21.721  35.041   5.310
 3990POPC   PO451000  21.355  35.615   5.266
 3990POPC   GL151001  21.626  35.499   5.603
 3990POPC   GL251002  21.418  35.193   5.698
 3990POPC   C1A51003  21.683  35.524   6.052
 3990POPC   D2A51004  21.377  35.394   6.384
 3990POPC   C3A51005  21.409  35.612   6.762
 3990POPC   C4A51006  21.351  35.459   7.176
 3990POPC   C1B51007  21.577  35.020   6.067
 3990POPC   C2B51008  21.754  35.033   6.486
 3990POPC   C3B51009  21.576  35.141   6.861
 3990POPC   C4B51010  21.665  35.069   7.299
 3991POPC   NC351011  19.518   1.644   5.122
 3991POPC   PO451012  19.719   1.166   5.594
 3991POPC   GL151013  19.856   1.306   5.970
 3991POPC   GL251014  20.038   0.969   6.020
 3991POPC   C1A51015  19.567   1.492   6.305
 3991POPC   D2A51016  19.465   1.519   6.740
 3991POPC   C3A51017  19.725   1.217   6.878
 3991POPC   C4A51018  19.952   1.349   7.216
 3991POPC   C1B51019  19.650   0.936   6.243
 3991POPC   C2B51020  19.649   0.715   6.587
 3991POPC   C3B51021  19.512   0.713   6.977
 3991POPC   C4B51022  19.756   0.882   7.256
 3992POPC   NC351023   7.804   7.229   5.446
 3992POPC   PO451024   8.332   7.546   5.347
 3992POPC   GL151025   8.196   7.449   5.748
 3992POPC   GL251026   8.519   7.528   5.855
 3992POPC   C1A51027   8.280   7.151   6.088
 3992POPC   D2A51028   8.375   7.059   6.520
 3992POPC   C3A51029   8.198   7.365   6.811
 3992POPC   C4A51030   8.162   7.404   7.241
 3992POPC   C1B51031   8.320   7.675   6.222
 3992POPC   C2B51032   8.469   7.827   6.635
 3992POPC   C3B51033   8.474   7.764   7.094
 3992POPC   C4B51034   8.304   7.812   7.545
 3993POPC   NC351035  44.098  22.604   5.239
 3993POPC   PO451036  43.624  22.121   5.370
 3993POPC   GL151037  43.829  22.238   5.786
 3993POPC   GL251038  43.533  22.427   5.908
 3993POPC   C1A51039  44.056  22.195   6.245
 3993POPC   D2A51040  44.265  22.349   6.669
 3993POPC   C3A51041  44.271  22.133   7.105
 3993POPC   C4A51042  44.089  21.879   7.464
 3993POPC   C1B51043  43.545  22.207   6.216
 3993POPC   C2B51044  43.592  22.333   6.572
 3993POPC   C3B51045  43.813  22.202   6.870
 3993POPC   C4B51046  43.769  22.210   7.264
 3994POPC   NC351047  17.309  40.652   5.397
 3994POPC   PO451048  17.876  40.483   5.357
 3994POPC   GL151049  17.807  40.735   5.787
 3994POPC   GL251050  17.464  40.860   5.916
 3994POPC   C1A51051  17.826  40.628   6.255
 3994POPC   D2A51052  17.773  40.449   6.677
 3994POPC   C3A51053  17.736  40.675   7.044
 3994POPC   C4A51054  17.365  40.443   7.223
 3994POPC   C1B51055  17.741  41.127   6.210
 3994POPC   C2B51056  17.781  41.088   6.651
 3994POPC   C3B51057  17.416  41.027   6.935
 3994POPC   C4B51058  17.487  40.992   7.404
 3995POPC   NC351059  21.435  37.828   5.387
 3995POPC   PO451060  21.477  37.192   5.531
 3995POPC   GL151061  21.293  37.537   5.783
 3995POPC   GL251062  21.624  37.705   5.843
 3995POPC   C1A51063  21.227  37.822   6.154
 3995POPC   D2A51064  21.075  37.799   6.581
 3995POPC   C3A51065  21.303  37.974   6.905
 3995POPC   C4A51066  21.523  37.861   7.258
 3995POPC   C1B51067  21.595  37.397   6.169
 3995POPC   C2B51068  21.660  37.370   6.587
 3995POPC   C3B51069  21.455  37.465   6.946
 3995POPC   C4B51070  21.445  37.288   7.322
 3996POPC   NC351071  26.758   6.400   5.596
 3996POPC   PO451072  27.213   6.910   5.394
 3996POPC   GL151073  27.127   6.678   5.812
 3996POPC   GL251074  27.226   6.319   5.840
 3996POPC   C1A51075  26.804   6.742   6.183
 3996POPC   D2A51076  26.788   7.056   6.524
 3996POPC   C3A51077  26.926   6.900   6.931
 3996POPC   C4A51078  26.782   6.820   7.362
 3996POPC   C1B51079  27.219   6.444   6.273
 3996POPC   C2B51080  27.072   6.423   6.679
 3996POPC   C3B51081  27.053   6.432   7.087
 3996POPC   C4B51082  27.284   6.698   7.293
 3997POPC   NC351083  29.411  19.966   5.126
 3997POPC   PO451084  28.957  19.553   5.501
 3997POPC   GL151085  29.238  19.612   5.848
 3997POPC   GL251086  29.050  19.834   5.944
 3997POPC   C1A51087  29.430  19.825   6.268
 3997POPC   D2A51088  29.612  19.717   6.666
 3997POPC   C3A51089  29.513  19.951   7.061
 3997POPC   C4A51090  29.460  19.786   7.496
 3997POPC   C1B51091  28.962  19.631   6.310
 3997POPC   C2B51092  29.103  19.825   6.678
 3997POPC   C3B51093  28.779  20.050   6.831
 3997POPC   C4B51094  28.663  20.083   7.215
 3998POPC   NC351095  27.178  16.546   5.599
 3998POPC   PO451096  27.812  16.783   5.427
 3998POPC   GL151097  27.632  16.737   5.797
 3998POPC   GL251098  27.637  16.379   5.768
 3998POPC   C1A51099  27.611  16.679   6.239
 3998POPC   D2A51100  27.463  16.704   6.662
 3998POPC   C3A51101  27.665  16.896   7.005
 3998POPC   C4A51102  27.346  16.902   7.325
 3998POPC   C1B51103  27.868  16.251   6.116
 3998POPC   C2B51104  27.705  16.186   6.526
 3998POPC   C3B51105  27.773  16.361   6.908
 3998POPC   C4B51106  27.547  16.446   7.248
 3999POPC   NC351107  43.438  29.574   5.451
 3999POPC   PO451108  44.150  29.595   5.394
 3999POPC   GL151109  44.051  29.862   5.749
 3999POPC   GL251110  43.708  29.791   5.829
 3999POPC   C1A51111  44.201  30.032   6.151
 3999POPC   D2A51112  44.147  29.886   6.569
 3999POPC   C3A51113  43.849  30.076   6.859
 3999POPC   C4A51114  43.787  29.952   7.298
 3999POPC   C1B51115  43.551  29.487   6.124
 3999POPC   C2B51116  43.650  29.623   6.553
 3999POPC   C3B51117  43.441  29.767   6.905
 3999POPC   C4B51118  43.408  29.547   7.306
 4000POPC   NC351119  26.581  36.246   5.574
 4000POPC   PO451120  27.175  36.158   5.324
 4000POPC   GL151121  27.046  35.981   5.755
 4000POPC   GL251122  26.719  35.890   5.918
 4000POPC   C1A51123  27.136  35.861   6.219
 4000POPC   D2A51124  27.199  36.029   6.651
 4000POPC   C3A51125  26.876  35.943   6.981
 4000POPC   C4A51126  26.509  36.192   7.126
 4000POPC   C1B51127  26.593  36.036   6.329
 4000POPC   C2B51128  26.613  36.381   6.640
 4000POPC   C3B51129  26.972  36.486   6.863
 4000POPC   C4B51130  26.988  36.350   7.271
 4001POPC   NC351131  23.041  38.255   5.388
 4001POPC   PO451132  22.947  38.886   5.313
 4001POPC   GL151133  23.062  38.697   5.693
 4001POPC   GL251134  22.732  38.752   5.812
 4001POPC   C1A51135  23.081  38.451   6.096
 4001POPC   D2A51136  22.896  38.152   6.400
 4001POPC   C3A51137  22.807  38.266   6.827
 4001POPC   C4A51138  23.010  38.447   7.196
 4001POPC   C1B51139  22.584  38.530   6.189
 4001POPC   C2B51140  22.403  38.546   6.601
 4001POPC   C3B51141  22.512  38.620   7.045
 4001POPC   C4B51142  22.293  38.461   7.370
 4002POPC   NC351143  35.662   1.549   5.454
 4002POPC   PO451144  35.713   0.923   5.381
 4002POPC   GL151145  35.462   1.133   5.724
 4002POPC   GL251146  35.169   0.948   5.842
 4002POPC   C1A51147  35.611   1.305   6.149
 4002POPC   D2A51148  35.753   1.088   6.536
 4002POPC   C3A51149  35.648   1.158   6.983
 4002POPC   C4A51150  35.329   1.387   7.199
 4002POPC   C1B51151  35.262   0.959   6.291
 4002POPC   C2B51152  35.219   1.183   6.673
 4002POPC   C3B51153  35.001   1.040   7.034
 4002POPC   C4B51154  34.943   0.904   7.430
 4003POPC   NC351155   4.350  28.216   5.266
 4003POPC   PO451156   4.485  27.497   5.314
 4003POPC   GL151157   4.378  27.669   5.742
 4003POPC   GL251158   4.046  27.851   5.765
 4003POPC   C1A51159   4.340  27.479   6.155
 4003POPC   D2A51160   4.117  27.502   6.535
 4003POPC   C3A51161   4.349  27.467   6.919
 4003POPC   C4A51162   4.609  27.452   7.304
 4003POPC   C1B51163   4.225  27.962   6.195
 4003POPC   C2B51164   4.471  27.893   6.562
 4003POPC   C3B51165   4.271  28.027   6.934
 4003POPC   C4B51166   4.160  27.794   7.274
 4004POPC   NC351167  35.590  20.617   5.406
 4004POPC   PO451168  34.957  20.985   5.385
 4004POPC   GL151169  35.040  20.845   5.832
 4004POPC   GL251170  35.391  20.720   5.871
 4004POPC   C1A51171  35.104  20.624   6.260
 4004POPC   D2A51172  35.379  20.357   6.487
 4004POPC   C3A51173  35.371  20.438   6.908
 4004POPC   C4A51174  35.066  20.521   7.273
 4004POPC   C1B51175  35.631  20.738   6.264
 4004POPC   C2B51176  35.889  20.644   6.605
 4004POPC   C3B51177  35.824  20.808   7.018
 4004POPC   C4B51178  35.610  20.591   7.329
 4005POPC   NC351179  22.600  17.743   5.062
 4005POPC   PO451180  22.222  17.410   5.532
 4005POPC   GL151181  22.259  17.643   5.917
 4005POPC   GL251182  22.563  17.471   5.994
 4005POPC   C1A51183  22.251  17.709   6.373
 4005POPC   D2A51184  22.030  17.503   6.685
 4005POPC   C3A51185  22.052  17.509   7.124
 4005POPC   C4A51186  22.177  17.845   7.351
 4005POPC   C1B51187  22.591  17.299   6.397
 4005POPC   C2B51188  22.493  17.361   6.798
 4005POPC   C3B51189  22.468  17.222   7.185
 4005POPC   C4B51190  22.431  17.447   7.573
 4006POPC   NC351191  36.068  41.129   5.237
 4006POPC   PO451192  36.140  41.729   5.457
 4006POPC   GL151193  36.067  41.572   5.883
 4006POPC   GL251194  35.700  41.495   5.896
 4006POPC   C1A51195  36.315  41.438   6.266
 4006POPC   D2A51196  36.501  41.601   6.637
 4006POPC   C3A51197  36.304  41.533   7.020
 4006POPC   C4A51198  36.454  41.363   7.355
 4006POPC   C1B51199  35.837  41.241   6.273
 4006POPC   C2B51200  35.979  41.293   6.700
 4006POPC   C3B51201  35.801  41.616   7.010
 4006POPC   C4B51202  35.921  42.040   7.150
 4007POPC   NC351203  11.606  17.810   5.264
 4007POPC   PO451204  11.308  18.328   5.460
 4007POPC   GL151205  11.517  18.356   5.824
 4007POPC   GL251206  11.646  18.048   5.858
 4007POPC   C1A51207  11.425  18.393   6.248
 4007POPC   D2A51208  11.423  18.254   6.663
 4007POPC   C3A51209  11.122  18.487   6.919
 4007POPC   C4A51210  11.199  18.477   7.349
 4007POPC   C1B51211  11.430  17.882   6.271
 4007POPC   C2B51212  11.168  17.797   6.676
 4007POPC   C3B51213  11.169  17.998   7.119
 4007POPC   C4B51214  11.495  18.046   7.447
 4008POPC   NC351215  29.569  40.721   5.457
 4008POPC   PO451216  30.002  41.163   5.348
 4008POPC   GL151217  30.141  40.924   5.750
 4008POPC   GL251218  29.883  40.717   5.842
 4008POPC   C1A51219  30.204  40.779   6.223
 4008POPC   D2A51220  30.295  40.887   6.660
 4008POPC   C3A51221  29.954  40.900   6.976
 4008POPC   C4A51222  29.877  41.042   7.420
 4008POPC   C1B51223  29.770  40.531   6.210
 4008POPC   C2B51224  29.644  40.661   6.601
 4008POPC   C3B51225  29.697  40.439   6.947
 4008POPC   C4B51226  29.839  40.539   7.349
 4009POPC   NC351227  18.683   9.981   5.428
 4009POPC   PO451228  19.333   9.731   5.578
 4009POPC   GL151229  19.022   9.903   5.819
 4009POPC   GL251230  19.240  10.095   5.952
 4009POPC   C1A51231  18.918   9.788   6.244
 4009POPC   D2A51232  19.131   9.730   6.642
 4009POPC   C3A51233  18.890   9.679   7.020
 4009POPC   C4A51234  18.855   9.342   7.326
 4009POPC   C1B51235  19.497   9.878   6.251
 4009POPC   C2B51236  19.621   9.999   6.666
 4009POPC   C3B51237  19.377   9.947   7.037
 4009POPC   C4B51238  19.216   9.753   7.394
 4010POPC   NC351239  10.508  44.220   5.621
 4010POPC   PO451240  10.531  43.572   5.351
 4010POPC   GL151241  10.592  43.729   5.768
 4010POPC   GL251242  10.230  43.613   5.774
 4010POPC   C1A51243  10.784  43.633   6.217
 4010POPC   D2A51244  10.735  43.897   6.610
 4010POPC   C3A51245  10.839  43.853   7.076
 4010POPC   C4A51246  10.531  43.767   7.439
 4010POPC   C1B51247  10.279  43.730   6.196
 4010POPC   C2B51248  10.326  43.576   6.613
 4010POPC   C3B51249  10.342  43.830   6.975
 4010POPC   C4B51250  10.130  44.081   7.304
 4011POPC   NC351251  35.550  36.948   5.438
 4011POPC   PO451252  34.928  37.128   5.346
 4011POPC   GL151253  35.198  37.204   5.725
 4011POPC   GL251254  35.233  36.840   5.818
 4011POPC   C1A51255  35.247  37.326   6.164
 4011POPC   D2A51256  35.149  37.361   6.619
 4011POPC   C3A51257  35.251  37.132   7.009
 4011POPC   C4A51258  35.192  36.955   7.436
 4011POPC   C1B51259  35.509  36.859   6.186
 4011POPC   C2B51260  35.577  36.897   6.647
 4011POPC   C3B51261  35.679  36.727   7.068
 4011POPC   C4B51262  35.611  36.686   7.536
 4012POPC   NC351263  30.984  38.504   5.400
 4012POPC   PO451264  30.307  38.408   5.239
 4012POPC   GL151265  30.406  38.295   5.722
 4012POPC   GL251266  30.694  38.452   5.851
 4012POPC   C1A51267  30.350  38.402   6.220
 4012POPC   D2A51268  30.478  38.620   6.636
 4012POPC   C3A51269  30.578  38.388   6.998
 4012POPC   C4A51270  30.971  38.244   7.193
 4012POPC   C1B51271  30.758  38.748   6.208
 4012POPC   C2B51272  30.990  38.807   6.611
 4012POPC   C3B51273  30.950  38.757   7.073
 4012POPC   C4B51274  30.586  38.976   7.214
 4013POPC   NC351275  17.788  11.118   5.546
 4013POPC   PO451276  17.088  11.198   5.563
 4013POPC   GL151277  17.372  11.277   5.860
 4013POPC   GL251278  17.391  11.616   5.779
 4013POPC   C1A51279  17.623  11.366   6.217
 4013POPC   D2A51280  17.648  11.206   6.631
 4013POPC   C3A51281  17.699  11.468   6.985
 4013POPC   C4A51282  17.715  11.181   7.328
 4013POPC   C1B51283  17.175  11.635   6.191
 4013POPC   C2B51284  17.261  11.579   6.616
 4013POPC   C3B51285  17.131  11.446   6.991
 4013POPC   C4B51286  17.313  11.477   7.369
 4014POPC   NC351287   0.212  17.147   5.576
 4014POPC   PO451288   0.611  17.715   5.481
 4014POPC   GL151289   0.510  17.493   5.832
 4014POPC   GL251290   0.162  17.577   5.863
 4014POPC   C1A51291   0.391  17.246   6.226
 4014POPC   D2A51292   0.186  17.418   6.626
 4014POPC   C3A51293   0.319  17.333   7.013
 4014POPC   C4A51294   0.351  16.990   7.213
 4014POPC   C1B51295   0.288  17.744   6.258
 4014POPC   C2B51296   0.221  17.946   6.666
 4014POPC   C3B51297   0.089  17.794   7.047
 4014POPC   C4B51298   0.335  17.704   7.391
 4015POPC   NC351299   6.049  28.714   5.467
 4015POPC   PO451300   5.705  29.268   5.388
 4015POPC   GL151301   5.696  29.465   5.797
 4015POPC   GL251302   5.979  29.259   5.861
 4015POPC   C1A51303   5.664  29.419   6.268
 4015POPC   D2A51304   5.944  29.290   6.619
 4015POPC   C3A51305   5.953  29.457   7.009
 4015POPC   C4A51306   5.713  29.575   7.346
 4015POPC   C1B51307   5.920  28.972   6.203
 4015POPC   C2B51308   6.170  28.848   6.550
 4015POPC   C3B51309   6.018  28.874   6.984
 4015POPC   C4B51310   6.349  28.736   7.235
 4016POPC   NC351311  44.430  17.166   5.484
 4016POPC   PO451312  44.764  16.704   5.589
 4016POPC   GL151313  44.613  16.933   5.914
 4016POPC   GL251314  44.257  16.887   5.936
 4016POPC   C1A51315  44.726  16.992   6.327
 4016POPC   D2A51316  44.708  16.679   6.662
 4016POPC   C3A51317  44.857  16.771   7.109
 4016POPC   C4A51318  44.772  16.618   7.522
 4016POPC   C1B51319  44.440  16.520   6.201
 4016POPC   C2B51320  44.367  16.266   6.581
 4016POPC   C3B51321  44.412  16.447   6.994
 4016POPC   C4B51322  44.297  16.480   7.392
 4017POPC   NC351323  38.239  26.625   5.410
 4017POPC   PO451324  37.784  27.156   5.413
 4017POPC   GL151325  37.767  26.898   5.796
 4017POPC   GL251326  38.095  26.861   5.861
 4017POPC   C1A51327  37.521  26.853   6.191
 4017POPC   D2A51328  37.353  27.058   6.575
 4017POPC   C3A51329  37.556  26.972   6.962
 4017POPC   C4A51330  37.510  26.540   7.125
 4017POPC   C1B51331  37.987  26.631   6.222
 4017POPC   C2B51332  37.738  26.619   6.600
 4017POPC   C3B51333  37.998  26.694   6.939
 4017POPC   C4B51334  38.147  27.047   7.167
 4018POPC   NC351335  14.009  36.789   5.547
 4018POPC   PO451336  13.497  37.179   5.440
 4018POPC   GL151337  13.525  36.848   5.790
 4018POPC   GL251338  13.800  36.620   5.977
 4018POPC   C1A51339  13.314  36.618   6.128
 4018POPC   D2A51340  13.448  36.459   6.531
 4018POPC   C3A51341  13.510  36.747   6.867
 4018POPC   C4A51342  13.792  36.825   7.215
 4018POPC   C1B51343  13.723  36.871   6.379
 4018POPC   C2B51344  13.787  37.147   6.763
 4018POPC   C3B51345  13.521  37.264   7.104
 4018POPC   C4B51346  13.397  37.366   7.536
 4019POPC   NC351347  16.411  17.222   5.049
 4019POPC   PO451348  16.770  17.772   5.409
 4019POPC   GL151349  16.866  17.528   5.796
 4019POPC   GL251350  16.565  17.473   5.989
 4019POPC   C1A51351  16.964  17.623   6.236
 4019POPC   D2A51352  16.852  17.822   6.620
 4019POPC   C3A51353  16.846  17.573   7.000
 4019POPC   C4A51354  16.676  17.362   7.351
 4019POPC   C1B51355  16.363  17.229   6.298
 4019POPC   C2B51356  16.138  17.432   6.576
 4019POPC   C3B51357  16.288  17.405   6.968
 4019POPC   C4B51358  16.191  17.422   7.382
 4020POPC   NC351359  10.171  42.588   5.113
 4020POPC   PO451360   9.747  42.102   5.345
 4020POPC   GL151361   9.686  42.283   5.746
 4020POPC   GL251362   9.961  42.409   5.961
 4020POPC   C1A51363   9.510  42.310   6.165
 4020POPC   D2A51364   9.223  42.235   6.484
 4020POPC   C3A51365   9.438  42.230   6.888
 4020POPC   C4A51366   9.456  42.007   7.278
 4020POPC   C1B51367  10.020  42.211   6.350
 4020POPC   C2B51368   9.962  42.205   6.790
 4020POPC   C3B51369   9.865  42.309   7.184
 4020POPC   C4B51370   9.617  42.647   7.196
 4021POPC   NC351371  22.827  44.196   5.623
 4021POPC   PO451372  23.179  43.824   5.185
 4021POPC   GL151373  23.157  43.634   5.654
 4021POPC   GL251374  23.170  43.916   5.864
 4021POPC   C1A51375  22.967  43.532   6.100
 4021POPC   D2A51376  23.111  43.626   6.514
 4021POPC   C3A51377  22.889  43.552   6.891
 4021POPC   C4A51378  22.953  43.715   7.311
 4021POPC   C1B51379  22.895  44.020   6.237
 4021POPC   C2B51380  22.679  43.909   6.588
 4021POPC   C3B51381  22.781  44.052   6.988
 4021POPC   C4B51382  22.847  44.264   7.393
 4022POPC   NC351383  18.391  43.685   5.180
 4022POPC   PO451384  18.122  44.221   5.457
 4022POPC   GL151385  18.209  44.007   5.842
 4022POPC   GL251386  18.498  43.786   5.727
 4022POPC   C1A51387  18.043  43.842   6.263
 4022POPC   D2A51388  17.906  43.971   6.700
 4022POPC   C3A51389  18.142  43.888   7.095
 4022POPC   C4A51390  18.040  43.679   7.502
 4022POPC   C1B51391  18.558  43.825   6.178
 4022POPC   C2B51392  18.431  43.900   6.620
 4022POPC   C3B51393  18.594  43.717   7.002
 4022POPC   C4B51394  18.528  43.777   7.455
 4023POPC   NC351395  36.333  34.448   5.304
 4023POPC   PO451396  35.613  34.410   5.189
 4023POPC   GL151397  35.945  34.572   5.572
 4023POPC   GL251398  36.069  34.274   5.762
 4023POPC   C1A51399  36.006  34.724   6.014
 4023POPC   D2A51400  35.962  34.804   6.460
 4023POPC   C3A51401  36.007  34.602   6.850
 4023POPC   C4A51402  36.228  34.692   7.213
 4023POPC   C1B51403  36.141  34.287   6.241
 4023POPC   C2B51404  36.067  34.111   6.667
 4023POPC   C3B51405  36.112  34.144   7.118
 4023POPC   C4B51406  35.854  34.271   7.418
 4024POPC   NC351407  41.830  23.065   5.396
 4024POPC   PO451408  41.471  22.586   5.540
 4024POPC   GL151409  41.662  22.866   5.857
 4024POPC   GL251410  41.579  23.229   5.810
 4024POPC   C1A51411  41.728  22.993   6.290
 4024POPC   D2A51412  41.905  22.813   6.677
 4024POPC   C3A51413  41.632  22.912   7.021
 4024POPC   C4A51414  41.707  23.222   7.312
 4024POPC   C1B51415  41.308  23.284   6.157
 4024POPC   C2B51416  41.404  23.387   6.566
 4024POPC   C3B51417  41.358  23.410   6.977
 4024POPC   C4B51418  41.184  23.137   7.221
 4025POPC   NC351419  34.345  42.741   5.457
 4025POPC   PO451420  34.396  43.358   5.465
 4025POPC   GL151421  34.584  43.069   5.794
 4025POPC   GL251422  34.945  43.021   5.824
 4025POPC   C1A51423  34.648  42.860   6.203
 4025POPC   D2A51424  34.730  43.061   6.599
 4025POPC   C3A51425  34.496  42.999   6.967
 4025POPC   C4A51426  34.621  43.095   7.375
 4025POPC   C1B51427  34.984  43.281   6.206
 4025POPC   C2B51428  34.957  43.529   6.613
 4025POPC   C3B51429  34.802  43.451   7.044
 4025POPC   C4B51430  34.963  43.477   7.479
 4026POPC   NC351431  39.780  13.069   5.581
 4026POPC   PO451432  40.045  12.574   5.208
 4026POPC   GL151433  40.131  12.661   5.709
 4026POPC   GL251434  39.875  12.795   5.986
 4026POPC   C1A51435  40.349  12.682   6.127
 4026POPC   D2A51436  40.107  12.763   6.497
 4026POPC   C3A51437  40.231  12.730   6.905
 4026POPC   C4A51438  40.068  12.851   7.282
 4026POPC   C1B51439  40.067  13.163   6.169
 4026POPC   C2B51440  40.137  13.308   6.550
 4026POPC   C3B51441  39.960  13.197   6.926
 4026POPC   C4B51442  39.646  13.246   7.233
 4027POPC   NC351443  12.057  33.717   5.422
 4027POPC   PO451444  11.712  34.351   5.424
 4027POPC   GL151445  11.865  34.063   5.800
 4027POPC   GL251446  11.852  33.659   5.898
 4027POPC   C1A51447  12.058  34.032   6.230
 4027POPC   D2A51448  11.971  33.753   6.580
 4027POPC   C3A51449  12.145  33.760   7.011
 4027POPC   C4A51450  12.114  34.126   7.310
 4027POPC   C1B51451  11.733  33.361   6.286
 4027POPC   C2B51452  11.774  33.337   6.757
 4027POPC   C3B51453  11.610  33.621   7.038
 4027POPC   C4B51454  11.790  33.735   7.381
 4028POPC   NC351455  18.649   2.190   5.549
 4028POPC   PO451456  18.236   1.675   5.357
 4028POPC   GL151457  18.312   1.808   5.752
 4028POPC   GL251458  18.165   2.134   5.786
 4028POPC   C1A51459  18.399   1.926   6.172
 4028POPC   D2A51460  18.142   2.072   6.502
 4028POPC   C3A51461  18.282   1.881   6.874
 4028POPC   C4A51462  18.449   1.953   7.265
 4028POPC   C1B51463  17.964   2.410   6.112
 4028POPC   C2B51464  17.640   2.443   6.394
 4028POPC   C3B51465  17.692   2.215   6.750
 4028POPC   C4B51466  18.002   2.286   7.056
 4029POPC   NC351467  38.985  15.876   5.396
 4029POPC   PO451468  39.666  15.760   5.537
 4029POPC   GL151469  39.351  15.656   5.862
 4029POPC   GL251470  39.277  16.002   5.816
 4029POPC   C1A51471  39.214  15.726   6.340
 4029POPC   D2A51472  39.492  15.905   6.683
 4029POPC   C3A51473  39.382  16.118   7.089
 4029POPC   C4A51474  39.280  15.795   7.379
 4029POPC   C1B51475  38.964  16.088   6.087
 4029POPC   C2B51476  38.927  16.176   6.511
 4029POPC   C3B51477  38.962  15.958   6.878
 4029POPC   C4B51478  38.893  16.236   7.266
 4030POPC   NC351479  29.042   4.682   5.346
 4030POPC   PO451480  29.226   4.118   5.082
 4030POPC   GL151481  29.080   4.140   5.584
 4030POPC   GL251482  28.813   4.393   5.716
 4030POPC   C1A51483  29.126   4.182   6.093
 4030POPC   D2A51484  29.079   4.426   6.519
 4030POPC   C3A51485  29.240   4.290   6.942
 4030POPC   C4A51486  29.074   4.037   7.294
 4030POPC   C1B51487  28.615   4.281   6.131
 4030POPC   C2B51488  28.559   4.382   6.540
 4030POPC   C3B51489  28.729   4.271   6.926
 4030POPC   C4B51490  28.644   4.342   7.335
 4031POPC   NC351491  30.163  21.265   5.496
 4031POPC   PO451492  29.900  21.791   5.166
 4031POPC   GL151493  29.768  21.574   5.657
 4031POPC   GL251494  29.728  21.202   5.783
 4031POPC   C1A51495  29.901  21.566   6.116
 4031POPC   D2A51496  29.802  21.495   6.545
 4031POPC   C3A51497  29.845  21.808   6.876
 4031POPC   C4A51498  29.773  21.638   7.298
 4031POPC   C1B51499  29.827  21.046   6.245
 4031POPC   C2B51500  29.822  20.998   6.713
 4031POPC   C3B51501  30.010  21.299   6.990
 4031POPC   C4B51502  30.136  21.322   7.445
 4032POPC   NC351503  20.299   5.389   5.406
 4032POPC   PO451504  20.765   5.998   5.421
 4032POPC   GL151505  20.671   5.813   5.775
 4032POPC   GL251506  20.338   5.733   5.824
 4032POPC   C1A51507  20.690   5.755   6.198
 4032POPC   D2A51508  20.617   6.082   6.490
 4032POPC   C3A51509  20.641   6.019   6.910
 4032POPC   C4A51510  20.429   6.276   7.188
 4032POPC   C1B51511  20.197   5.842   6.285
 4032POPC   C2B51512  20.232   5.757   6.749
 4032POPC   C3B51513  20.331   5.710   7.195
 4032POPC   C4B51514  20.439   5.513   7.621
 4033POPC   NC351515  36.003  20.302   5.533
 4033POPC   PO451516  36.064  20.922   5.220
 4033POPC   GL151517  36.203  20.731   5.715
 4033POPC   GL251518  35.933  20.556   5.936
 4033POPC   C1A51519  36.282  20.809   6.185
 4033POPC   D2A51520  36.450  20.543   6.514
 4033POPC   C3A51521  36.310  20.630   6.903
 4033POPC   C4A51522  36.312  20.949   7.202
 4033POPC   C1B51523  35.842  20.215   6.260
 4033POPC   C2B51524  35.789  20.120   6.692
 4033POPC   C3B51525  35.922  20.304   7.048
 4033POPC   C4B51526  36.206  20.482   7.381
 4034POPC   NC351527  42.180   9.820   5.571
 4034POPC   PO451528  42.722   9.381   5.439
 4034POPC   GL151529  42.589   9.645   5.827
 4034POPC   GL251530  42.612  10.002   5.937
 4034POPC   C1A51531  42.367   9.639   6.258
 4034POPC   D2A51532  42.517   9.480   6.674
 4034POPC   C3A51533  42.480   9.705   7.052
 4034POPC   C4A51534  42.049   9.702   7.167
 4034POPC   C1B51535  42.272  10.131   6.220
 4034POPC   C2B51536  42.321   9.990   6.652
 4034POPC   C3B51537  42.198  10.169   7.035
 4034POPC   C4B51538  41.924  10.112   7.424
 4035POPC   NC351539  32.600  19.234   5.642
 4035POPC   PO451540  32.643  18.651   5.262
 4035POPC   GL151541  32.302  18.814   5.605
 4035POPC   GL251542  32.470  18.780   5.867
 4035POPC   C1A51543  32.098  19.007   6.073
 4035POPC   D2A51544  31.995  18.858   6.490
 4035POPC   C3A51545  31.963  19.081   6.879
 4035POPC   C4A51546  32.165  18.970   7.280
 4035POPC   C1B51547  32.575  18.997   6.251
 4035POPC   C2B51548  32.463  19.344   6.500
 4035POPC   C3B51549  32.467  19.187   6.903
 4035POPC   C4B51550  32.661  18.986   7.242
 4036POPC   NC351551  38.214  36.099   5.297
 4036POPC   PO451552  38.606  36.564   5.305
 4036POPC   GL151553  38.434  36.385   5.673
 4036POPC   GL251554  38.770  36.404   5.776
 4036POPC   C1A51555  38.402  36.162   6.067
 4036POPC   D2A51556  38.476  36.212   6.503
 4036POPC   C3A51557  38.553  35.927   6.844
 4036POPC   C4A51558  38.361  36.020   7.218
 4036POPC   C1B51559  38.873  36.403   6.207
 4036POPC   C2B51560  38.788  36.583   6.632
 4036POPC   C3B51561  38.622  36.423   7.023
 4036POPC   C4B51562  38.772  36.247   7.415
 4037POPC   NC351563  17.508   3.727   5.208
 4037POPC   PO451564  17.698   3.102   5.311
 4037POPC   GL151565  17.644   3.358   5.718
 4037POPC   GL251566  17.428   3.686   5.723
 4037POPC   C1A51567  17.496   3.336   6.157
 4037POPC   D2A51568  17.282   3.369   6.561
 4037POPC   C3A51569  17.472   3.201   6.930
 4037POPC   C4A51570  17.394   3.359   7.318
 4037POPC   C1B51571  17.599   3.822   6.124
 4037POPC   C2B51572  17.730   3.646   6.540
 4037POPC   C3B51573  17.633   3.708   6.974
 4037POPC   C4B51574  17.579   3.956   7.337
 4038POPC   NC351575   8.234  15.378   5.523
 4038POPC   PO451576   8.310  14.808   5.297
 4038POPC   GL151577   8.442  14.899   5.725
 4038POPC   GL251578   8.146  15.019   5.921
 4038POPC   C1A51579   8.567  14.954   6.190
 4038POPC   D2A51580   8.442  15.359   6.425
 4038POPC   C3A51581   8.438  15.346   6.889
 4038POPC   C4A51582   8.281  14.986   7.129
 4038POPC   C1B51583   8.070  14.871   6.383
 4038POPC   C2B51584   7.862  14.886   6.827
 4038POPC   C3B51585   7.828  15.197   7.203
 4038POPC   C4B51586   7.681  15.266   7.627
 4039POPC   NC351587  19.606   5.321   5.392
 4039POPC   PO451588  20.190   4.912   5.210
 4039POPC   GL151589  19.987   5.023   5.640
 4039POPC   GL251590  19.938   5.384   5.762
 4039POPC   C1A51591  19.822   4.966   6.083
 4039POPC   D2A51592  20.038   4.917   6.504
 4039POPC   C3A51593  19.801   4.746   6.869
 4039POPC   C4A51594  19.579   4.699   7.255
 4039POPC   C1B51595  20.107   5.375   6.141
 4039POPC   C2B51596  19.880   5.428   6.523
 4039POPC   C3B51597  19.971   5.240   6.914
 4039POPC   C4B51598  19.843   5.108   7.307
 4040POPC   NC351599  12.692  24.320   5.338
 4040POPC   PO451600  13.308  24.444   5.332
 4040POPC   GL151601  13.012  24.456   5.712
 4040POPC   GL251602  13.148  24.768   5.815
 4040POPC   C1A51603  12.743  24.570   6.113
 4040POPC   D2A51604  12.906  24.633   6.587
 4040POPC   C3A51605  12.784  24.393   6.930
 4040POPC   C4A51606  12.634  24.374   7.355
 4040POPC   C1B51607  13.224  24.478   6.202
 4040POPC   C2B51608  13.354  24.335   6.609
 4040POPC   C3B51609  13.309  24.561   6.986
 4040POPC   C4B51610  13.021  24.692   7.300
 4041POPC   NC351611   0.180  26.234   5.367
 4041POPC   PO451612   0.644  25.743   5.333
 4041POPC   GL151613   0.433  25.931   5.710
 4041POPC   GL251614   0.577  26.272   5.757
 4041POPC   C1A51615   0.555  25.914   6.172
 4041POPC   D2A51616   0.429  25.782   6.574
 4041POPC   C3A51617   0.660  25.948   6.916
 4041POPC   C4A51618   0.336  25.986   7.167
 4041POPC   C1B51619   0.451  26.424   6.186
 4041POPC   C2B51620   0.339  26.300   6.600
 4041POPC   C3B51621   0.493  26.432   6.992
 4041POPC   C4B51622   0.458  26.577   7.394
 4042POPC   NC351623  40.895   6.081   5.364
 4042POPC   PO451624  40.559   5.482   5.490
 4042POPC   GL151625  40.579   5.793   5.812
 4042POPC   GL251626  40.928   5.883   5.841
 4042POPC   C1A51627  40.544   6.072   6.176
 4042POPC   D2A51628  40.691   6.127   6.598
 4042POPC   C3A51629  40.537   5.834   6.926
 4042POPC   C4A51630  40.423   5.889   7.372
 4042POPC   C1B51631  41.086   6.048   6.248
 4042POPC   C2B51632  41.225   6.141   6.689
 4042POPC   C3B51633  40.931   6.130   7.055
 4042POPC   C4B51634  40.492   6.317   7.075
 4043POPC   NC351635  34.821  27.788   5.604
 4043POPC   PO451636  34.322  27.554   5.117
 4043POPC   GL151637  34.473  27.424   5.628
 4043POPC   GL251638  34.464  27.708   5.942
 4043POPC   C1A51639  34.642  27.260   6.045
 4043POPC   D2A51640  34.899  27.449   6.410
 4043POPC   C3A51641  34.924  27.665   6.842
 4043POPC   C4A51642  34.782  27.570   7.268
 4043POPC   C1B51643  34.451  27.971   6.339
 4043POPC   C2B51644  34.401  27.800   6.771
 4043POPC   C3B51645  34.320  27.769   7.221
 4043POPC   C4B51646  34.563  27.863   7.628
 4044POPC   NC351647  42.752  17.175   5.486
 4044POPC   PO451648  43.117  17.795   5.432
 4044POPC   GL151649  43.228  17.539   5.789
 4044POPC   GL251650  42.888  17.561   5.851
 4044POPC   C1A51651  43.222  17.456   6.262
 4044POPC   D2A51652  43.356  17.454   6.718
 4044POPC   C3A51653  43.047  17.651   6.988
 4044POPC   C4A51654  43.147  17.742   7.406
 4044POPC   C1B51655  42.700  17.310   6.175
 4044POPC   C2B51656  42.630  17.113   6.588
 4044POPC   C3B51657  42.678  17.282   7.001
 4044POPC   C4B51658  42.880  17.303   7.398
 4045POPC   NC351659  36.067  23.400   5.427
 4045POPC   PO451660  36.259  22.764   5.383
 4045POPC   GL151661  36.236  23.005   5.782
 4045POPC   GL251662  36.486  23.265   5.761
 4045POPC   C1A51663  36.111  22.907   6.220
 4045POPC   D2A51664  35.837  22.676   6.508
 4045POPC   C3A51665  36.003  22.774   6.905
 4045POPC   C4A51666  36.039  22.721   7.355
 4045POPC   C1B51667  36.595  23.104   6.184
 4045POPC   C2B51668  36.452  22.976   6.626
 4045POPC   C3B51669  36.420  23.008   7.089
 4045POPC   C4B51670  36.137  23.252   7.362
 4046POPC   NC351671  29.322  32.561   5.362
 4046POPC   PO451672  29.159  31.948   5.381
 4046POPC   GL151673  29.300  31.943   5.809
 4046POPC   GL251674  29.456  32.274   5.838
 4046POPC   C1A51675  29.394  31.981   6.266
 4046POPC   D2A51676  29.307  32.217   6.658
 4046POPC   C3A51677  29.002  32.083   6.964
 4046POPC   C4A51678  29.204  32.093   7.359
 4046POPC   C1B51679  29.260  32.535   6.201
 4046POPC   C2B51680  28.963  32.587   6.573
 4046POPC   C3B51681  28.993  32.581   7.025
 4046POPC   C4B51682  28.785  32.369   7.376
 4047POPC   NC351683  37.934   5.273   5.449
 4047POPC   PO451684  37.452   4.864   5.506
 4047POPC   GL151685  37.619   5.151   5.815
 4047POPC   GL251686  37.966   4.965   5.874
 4047POPC   C1A51687  37.769   5.329   6.197
 4047POPC   D2A51688  37.719   5.113   6.610
 4047POPC   C3A51689  37.511   5.304   6.969
 4047POPC   C4A51690  37.584   5.274   7.440
 4047POPC   C1B51691  38.176   5.022   6.292
 4047POPC   C2B51692  38.194   4.951   6.744
 4047POPC   C3B51693  37.957   5.123   7.110
 4047POPC   C4B51694  37.978   4.969   7.580
 4048POPC   NC351695  25.297  27.141   5.267
 4048POPC   PO451696  25.451  26.520   5.563
 4048POPC   GL151697  25.361  26.952   5.760
 4048POPC   GL251698  25.004  27.010   5.796
 4048POPC   C1A51699  25.240  27.128   6.207
 4048POPC   D2A51700  25.063  26.970   6.591
 4048POPC   C3A51701  25.284  27.145   6.937
 4048POPC   C4A51702  25.460  26.981   7.261
 4048POPC   C1B51703  25.159  26.645   6.136
 4048POPC   C2B51704  25.269  26.478   6.561
 4048POPC   C3B51705  25.206  26.602   6.997
 4048POPC   C4B51706  25.447  26.354   7.288
 4049POPC   NC351707  44.858  14.533   5.510
 4049POPC   PO451708  44.389  14.126   5.513
 4049POPC   GL151709  44.515  14.326   5.878
 4049POPC   GL251710  44.563  14.709   5.888
 4049POPC   C1A51711  44.339  14.475   6.272
 4049POPC   D2A51712  44.246  14.625   6.674
 4049POPC   C3A51713  44.470  14.515   7.031
 4049POPC   C4A51714  44.809  14.610   7.282
 4049POPC   C1B51715  44.866  14.493   6.176
 4049POPC   C2B51716   0.070  14.254   6.479
 4049POPC   C3B51717  44.978  14.278   6.900
 4049POPC   C4B51718   0.201  14.257   7.269
 4050POPC   NC351719  22.005  18.489   5.433
 4050POPC   PO451720  22.500  18.122   5.334
 4050POPC   GL151721  22.355  18.151   5.786
 4050POPC   GL251722  21.982  18.136   5.833
 4050POPC   C1A51723  22.256  18.222   6.246
 4050POPC   D2A51724  21.989  18.200   6.605
 4050POPC   C3A51725  22.229  17.954   6.857
 4050POPC   C4A51726  22.525  18.180   7.117
 4050POPC   C1B51727  21.848  18.516   6.100
 4050POPC   C2B51728  21.692  18.621   6.518
 4050POPC   C3B51729  21.897  18.626   6.922
 4050POPC   C4B51730  21.922  18.238   7.143
 4051POPC   NC351731  24.686  20.546   5.224
 4051POPC   PO451732  24.021  20.234   5.177
 4051POPC   GL151733  24.175  20.338   5.648
 4051POPC   GL251734  24.477  20.534   5.696
 4051POPC   C1A51735  24.245  20.378   6.115
 4051POPC   D2A51736  24.122  20.486   6.553
 4051POPC   C3A51737  24.405  20.625   6.880
 4051POPC   C4A51738  24.488  20.500   7.289
 4051POPC   C1B51739  24.565  20.822   6.064
 4051POPC   C2B51740  24.564  20.953   6.508
 4051POPC   C3B51741  24.791  21.001   6.900
 4051POPC   C4B51742  24.804  20.893   7.322
 4052POPC   NC351743  25.962  18.482   5.401
 4052POPC   PO451744  25.649  17.914   5.681
 4052POPC   GL151745  25.968  18.199   5.916
 4052POPC   GL251746  26.159  18.512   5.857
 4052POPC   C1A51747  26.017  18.422   6.339
 4052POPC   D2A51748  26.040  18.114   6.656
 4052POPC   C3A51749  25.921  18.144   7.097
 4052POPC   C4A51750  26.114  18.077   7.486
 4052POPC   C1B51751  26.477  18.598   6.153
 4052POPC   C2B51752  26.466  18.582   6.601
 4052POPC   C3B51753  26.087  18.610   6.851
 4052POPC   C4B51754  26.150  18.628   7.283
 4053POPC   NC351755  42.204  18.503   5.264
 4053POPC   PO451756  42.128  17.880   5.583
 4053POPC   GL151757  42.306  18.197   5.816
 4053POPC   GL251758  42.231  18.554   5.775
 4053POPC   C1A51759  42.211  18.179   6.220
 4053POPC   D2A51760  42.422  18.180   6.583
 4053POPC   C3A51761  42.161  18.247   6.917
 4053POPC   C4A51762  42.225  18.017   7.305
 4053POPC   C1B51763  42.522  18.566   6.124
 4053POPC   C2B51764  42.649  18.710   6.528
 4053POPC   C3B51765  42.645  18.510   6.925
 4053POPC   C4B51766  42.437  18.470   7.301
 4054POPC   NC351767  35.186  40.201   5.566
 4054POPC   PO451768  35.648  39.742   5.443
 4054POPC   GL151769  35.492  39.878   5.819
 4054POPC   GL251770  35.137  39.768   5.828
 4054POPC   C1A51771  35.524  40.118   6.198
 4054POPC   D2A51772  35.284  40.322   6.525
 4054POPC   C3A51773  35.400  40.213   6.920
 4054POPC   C4A51774  35.287  40.122   7.263
 4054POPC   C1B51775  35.029  39.962   6.244
 4054POPC   C2B51776  34.979  39.923   6.693
 4054POPC   C3B51777  35.161  39.683   7.002
 4054POPC   C4B51778  35.307  39.661   7.447
 4055POPC   NC351779  13.033  17.619   5.405
 4055POPC   PO451780  12.621  16.985   5.481
 4055POPC   GL151781  12.646  17.312   5.787
 4055POPC   GL251782  12.682  17.693   5.787
 4055POPC   C1A51783  12.666  17.315   6.224
 4055POPC   D2A51784  13.008  17.297   6.543
 4055POPC   C3A51785  12.978  17.461   6.983
 4055POPC   C4A51786  12.911  17.373   7.430
 4055POPC   C1B51787  12.485  17.790   6.197
 4055POPC   C2B51788  12.684  17.718   6.613
 4055POPC   C3B51789  12.560  17.741   7.052
 4055POPC   C4B51790  12.795  17.860   7.456
 4056POPC   NC351791  42.396   6.879   5.154
 4056POPC   PO451792  42.332   7.554   5.235
 4056POPC   GL151793  42.300   7.565   5.691
 4056POPC   GL251794  42.579   7.367   5.827
 4056POPC   C1A51795  42.414   7.806   6.061
 4056POPC   D2A51796  42.344   7.868   6.492
 4056POPC   C3A51797  42.451   7.560   6.782
 4056POPC   C4A51798  42.394   7.670   7.210
 4056POPC   C1B51799  42.349   7.303   6.250
 4056POPC   C2B51800  42.146   7.041   6.595
 4056POPC   C3B51801  42.325   6.891   6.993
 4056POPC   C4B51802  42.574   7.181   7.239
 4057POPC   NC351803  17.527  41.991   5.201
 4057POPC   PO451804  17.406  42.647   5.136
 4057POPC   GL151805  17.415  42.394   5.594
 4057POPC   GL251806  17.539  42.048   5.724
 4057POPC   C1A51807  17.513  42.469   6.068
 4057POPC   D2A51808  17.486  42.699   6.514
 4057POPC   C3A51809  17.636  42.538   6.925
 4057POPC   C4A51810  17.469  42.426   7.355
 4057POPC   C1B51811  17.267  41.981   6.091
 4057POPC   C2B51812  17.341  42.223   6.476
 4057POPC   C3B51813  17.277  42.164   6.894
 4057POPC   C4B51814  17.406  41.918   7.234
 4058POPC   NC351815  27.246  26.247   5.438
 4058POPC   PO451816  27.593  25.666   5.283
 4058POPC   GL151817  27.512  25.811   5.752
 4058POPC   GL251818  27.433  26.132   5.901
 4058POPC   C1A51819  27.651  25.794   6.209
 4058POPC   D2A51820  27.692  25.957   6.641
 4058POPC   C3A51821  27.622  25.695   7.038
 4058POPC   C4A51822  27.680  25.670   7.500
 4058POPC   C1B51823  27.615  26.333   6.246
 4058POPC   C2B51824  27.750  26.467   6.661
 4058POPC   C3B51825  27.501  26.397   7.005
 4058POPC   C4B51826  27.518  26.119   7.320
 4059POPC   NC351827   7.977   8.894   5.605
 4059POPC   PO451828   8.435   9.288   5.426
 4059POPC   GL151829   8.424   9.031   5.806
 4059POPC   GL251830   8.427   8.657   5.750
 4059POPC   C1A51831   8.214   8.954   6.227
 4059POPC   D2A51832   8.079   8.998   6.650
 4059POPC   C3A51833   8.175   9.272   6.964
 4059POPC   C4A51834   8.094   9.180   7.373
 4059POPC   C1B51835   8.617   8.670   6.145
 4059POPC   C2B51836   8.434   8.624   6.553
 4059POPC   C3B51837   8.478   8.825   6.930
 4059POPC   C4B51838   8.396   8.781   7.333
 4060POPC   NC351839  30.774  13.105   5.444
 4060POPC   PO451840  30.174  12.708   5.316
 4060POPC   GL151841  30.516  12.691   5.684
 4060POPC   GL251842  30.681  12.985   5.917
 4060POPC   C1A51843  30.474  12.594   6.154
 4060POPC   D2A51844  30.636  12.873   6.472
 4060POPC   C3A51845  30.756  12.770   6.895
 4060POPC   C4A51846  30.808  12.689   7.312
 4060POPC   C1B51847  31.013  13.131   6.214
 4060POPC   C2B51848  31.160  12.990   6.648
 4060POPC   C3B51849  31.122  13.091   7.121
 4060POPC   C4B51850  31.089  13.058   7.624
 4061POPC   NC351851   2.429   6.200   5.271
 4061POPC   PO451852   2.627   6.871   5.268
 4061POPC   GL151853   2.639   6.735   5.708
 4061POPC   GL251854   2.854   6.991   5.841
 4061POPC   C1A51855   2.904   6.469   6.003
 4061POPC   D2A51856   2.838   6.286   6.403
 4061POPC   C3A51857   3.024   6.412   6.796
 4061POPC   C4A51858   2.834   6.432   7.162
 4061POPC   C1B51859   2.673   6.853   6.239
 4061POPC   C2B51860   2.647   6.760   6.669
 4061POPC   C3B51861   2.907   6.913   6.960
 4061POPC   C4B51862   3.191   7.202   7.136
 4062POPC   NC351863   2.780  23.356   5.370
 4062POPC   PO451864   2.497  23.965   5.374
 4062POPC   GL151865   2.641  23.708   5.732
 4062POPC   GL251866   2.947  23.609   5.808
 4062POPC   C1A51867   2.700  23.811   6.185
 4062POPC   D2A51868   2.929  23.790   6.561
 4062POPC   C3A51869   2.658  23.779   6.913
 4062POPC   C4A51870   2.814  23.695   7.309
 4062POPC   C1B51871   2.994  23.386   6.196
 4062POPC   C2B51872   3.282  23.411   6.537
 4062POPC   C3B51873   3.073  23.428   6.926
 4062POPC   C4B51874   2.974  23.166   7.288
 4063POPC   NC351875  18.997  31.924   5.222
 4063POPC   PO451876  18.911  32.563   5.397
 4063POPC   GL151877  18.878  32.262   5.710
 4063POPC   GL251878  19.188  32.096   5.730
 4063POPC   C1A51879  18.815  32.248   6.159
 4063POPC   D2A51880  19.070  32.229   6.551
 4063POPC   C3A51881  18.892  32.330   6.942
 4063POPC   C4A51882  18.941  32.606   7.311
 4063POPC   C1B51883  19.386  32.055   6.170
 4063POPC   C2B51884  19.541  31.980   6.575
 4063POPC   C3B51885  19.368  32.086   6.989
 4063POPC   C4B51886  19.054  32.041   7.323
 4064POPC   NC351887  10.239  31.605   5.495
 4064POPC   PO451888   9.596  31.338   5.414
 4064POPC   GL151889   9.595  31.306   5.836
 4064POPC   GL251890   9.651  31.662   5.898
 4064POPC   C1A51891   9.687  31.014   6.166
 4064POPC   D2A51892   9.768  30.844   6.555
 4064POPC   C3A51893   9.648  31.085   6.913
 4064POPC   C4A51894   9.714  31.291   7.308
 4064POPC   C1B51895   9.959  31.449   6.185
 4064POPC   C2B51896  10.046  31.285   6.626
 4064POPC   C3B51897   9.877  31.559   6.928
 4064POPC   C4B51898   9.428  31.679   7.038
 4065POPC   NC351899  43.721  38.260   5.601
 4065POPC   PO451900  44.401  38.163   5.486
 4065POPC   GL151901  44.174  38.294   5.861
 4065POPC   GL251902  44.216  38.668   5.903
 4065POPC   C1A51903  43.918  38.300   6.258
 4065POPC   D2A51904  43.968  38.506   6.662
 4065POPC   C3A51905  44.000  38.258   7.049
 4065POPC   C4A51906  43.588  38.246   7.252
 4065POPC   C1B51907  43.845  38.792   6.159
 4065POPC   C2B51908  43.479  38.660   6.400
 4065POPC   C3B51909  43.506  38.646   6.836
 4065POPC   C4B51910  43.814  38.746   7.168
 4066POPC   NC351911  23.749  21.673   5.606
 4066POPC   PO451912  23.536  21.101   5.290
 4066POPC   GL151913  23.523  21.274   5.768
 4066POPC   GL251914  23.282  21.602   5.796
 4066POPC   C1A51915  23.761  21.290   6.192
 4066POPC   D2A51916  24.021  21.580   6.509
 4066POPC   C3A51917  23.925  21.554   6.976
 4066POPC   C4A51918  23.731  21.197   7.217
 4066POPC   C1B51919  23.461  21.706   6.199
 4066POPC   C2B51920  23.527  21.481   6.614
 4066POPC   C3B51921  23.382  21.571   7.028
 4066POPC   C4B51922  23.585  21.649   7.420
 4067POPC   NC351923   7.637   1.718   5.462
 4067POPC   PO451924   7.177   2.250   5.459
 4067POPC   GL151925   7.420   2.083   5.792
 4067POPC   GL251926   7.720   2.280   5.738
 4067POPC   C1A51927   7.416   1.830   6.172
 4067POPC   D2A51928   7.281   1.927   6.596
 4067POPC   C3A51929   7.525   2.201   6.879
 4067POPC   C4A51930   7.440   2.313   7.282
 4067POPC   C1B51931   7.896   2.064   6.098
 4067POPC   C2B51932   7.793   1.941   6.525
 4067POPC   C3B51933   7.725   1.711   6.927
 4067POPC   C4B51934   7.603   1.780   7.363
 4068POPC   NC351935  28.662  35.545   5.363
 4068POPC   PO451936  28.206  35.040   5.328
 4068POPC   GL151937  28.475  35.177   5.662
 4068POPC   GL251938  28.358  35.471   5.815
 4068POPC   C1A51939  28.509  35.083   6.097
 4068POPC   D2A51940  28.658  35.119   6.511
 4068POPC   C3A51941  28.442  35.306   6.840
 4068POPC   C4A51942  28.592  35.262   7.239
 4068POPC   C1B51943  28.602  35.579   6.210
 4068POPC   C2B51944  28.634  35.805   6.607
 4068POPC   C3B51945  28.771  35.700   7.034
 4068POPC   C4B51946  28.652  35.719   7.485
 4069POPC   NC351947  22.443  35.718   5.456
 4069POPC   PO451948  22.176  35.135   5.372
 4069POPC   GL151949  22.287  35.338   5.754
 4069POPC   GL251950  22.431  35.050   5.853
 4069POPC   C1A51951  22.220  35.550   6.176
 4069POPC   D2A51952  21.875  35.539   6.531
 4069POPC   C3A51953  21.906  35.580   6.998
 4069POPC   C4A51954  22.053  35.379   7.385
 4069POPC   C1B51955  22.125  35.053   6.150
 4069POPC   C2B51956  22.243  35.188   6.562
 4069POPC   C3B51957  22.087  35.073   6.951
 4069POPC   C4B51958  22.363  34.988   7.295
 4070POPC   NC351959  13.517  37.646   5.395
 4070POPC   PO451960  14.005  38.034   5.541
 4070POPC   GL151961  13.665  37.806   5.877
 4070POPC   GL251962  13.534  37.451   5.872
 4070POPC   C1A51963  13.344  37.778   6.269
 4070POPC   D2A51964  13.191  37.895   6.729
 4070POPC   C3A51965  13.404  37.779   7.154
 4070POPC   C4A51966  13.718  38.067   7.373
 4070POPC   C1B51967  13.711  37.421   6.306
 4070POPC   C2B51968  13.633  37.624   6.701
 4070POPC   C3B51969  13.899  37.632   7.059
 4070POPC   C4B51970  14.019  37.279   7.260
 4071POPC   NC351971  20.934  32.818   5.415
 4071POPC   PO451972  21.555  33.075   5.462
 4071POPC   GL151973  21.207  33.088   5.796
 4071POPC   GL251974  21.169  32.734   5.886
 4071POPC   C1A51975  21.250  33.107   6.276
 4071POPC   D2A51976  21.577  32.975   6.617
 4071POPC   C3A51977  21.630  33.219   7.020
 4071POPC   C4A51978  21.384  33.343   7.393
 4071POPC   C1B51979  21.333  32.579   6.292
 4071POPC   C2B51980  21.100  32.764   6.626
 4071POPC   C3B51981  21.134  33.125   6.862
 4071POPC   C4B51982  21.237  32.885   7.219
 4072POPC   NC351983  35.646   4.495   5.433
 4072POPC   PO451984  35.284   3.912   5.271
 4072POPC   GL151985  35.440   4.077   5.706
 4072POPC   GL251986  35.282   4.420   5.778
 4072POPC   C1A51987  35.375   4.103   6.188
 4072POPC   D2A51988  35.122   4.224   6.569
 4072POPC   C3A51989  35.146   3.981   6.960
 4072POPC   C4A51990  35.388   4.023   7.325
 4072POPC   C1B51991  35.155   4.641   6.154
 4072POPC   C2B51992  34.950   4.724   6.538
 4072POPC   C3B51993  34.903   4.573   6.933
 4072POPC   C4B51994  35.286   4.492   7.133
 4073POPC   NC351995  12.238  15.103   5.225
 4073POPC   PO451996  11.992  15.712   5.492
 4073POPC   GL151997  12.010  15.264   5.723
 4073POPC   GL251998  12.307  15.089   5.801
 4073POPC   C1A51999  11.896  15.131   6.202
 4073POPC   D2A52000  11.909  15.426   6.582
 4073POPC   C3A52001  11.883  15.203   6.947
 4073POPC   C4A52002  12.182  15.034   7.211
 4073POPC   C1B52003  12.253  15.471   6.131
 4073POPC   C2B52004  12.413  15.477   6.554
 4073POPC   C3B52005  12.272  15.520   6.980
 4073POPC   C4B52006  12.291  15.479   7.407
 4074POPC   NC352007  20.626   0.196   5.445
 4074POPC   PO452008  20.230   0.731   5.602
 4074POPC   GL152009  20.490   0.627   5.924
 4074POPC   GL252010  20.818   0.575   5.797
 4074POPC   C1A52011  20.663   0.657   6.328
 4074POPC   D2A52012  20.584   0.709   6.755
 4074POPC   C3A52013  20.530   0.343   6.999
 4074POPC   C4A52014  20.402   0.288   7.428
 4074POPC   C1B52015  20.884   0.225   6.112
 4074POPC   C2B52016  20.995   0.306   6.551
 4074POPC   C3B52017  21.030   0.197   6.981
 4074POPC   C4B52018  20.897   0.309   7.380
 4075POPC   NC352019  42.833  24.247   5.512
 4075POPC   PO452020  42.880  23.550   5.351
 4075POPC   GL152021  43.133  23.839   5.623
 4075POPC   GL252022  43.347  23.594   5.769
 4075POPC   C1A52023  43.103  24.034   6.061
 4075POPC   D2A52024  43.189  23.956   6.475
 4075POPC   C3A52025  42.930  23.696   6.711
 4075POPC   C4A52026  42.846  23.753   7.120
 4075POPC   C1B52027  43.306  23.500   6.223
 4075POPC   C2B52028  43.442  23.553   6.675
 4075POPC   C3B52029  43.286  23.493   7.078
 4075POPC   C4B52030  42.945  23.245   7.241
 4076POPC   NC352031  23.177  23.107   5.431
 4076POPC   PO452032  22.530  23.075   5.272
 4076POPC   GL152033  22.749  22.994   5.688
 4076POPC   GL252034  23.072  22.841   5.840
 4076POPC   C1A52035  22.734  23.012   6.148
 4076POPC   D2A52036  22.848  22.915   6.547
 4076POPC   C3A52037  22.554  22.980   6.891
 4076POPC   C4A52038  22.550  22.929   7.341
 4076POPC   C1B52039  23.310  22.748   6.227
 4076POPC   C2B52040  23.353  22.998   6.620
 4076POPC   C3B52041  23.092  22.888   6.997
 4076POPC   C4B52042  23.175  22.504   7.181
 4077POPC   NC352043  26.301  22.081   5.487
 4077POPC   PO452044  25.591  22.146   5.360
 4077POPC   GL152045  25.875  22.156   5.736
 4077POPC   GL252046  25.793  21.862   5.857
 4077POPC   C1A52047  26.162  22.184   6.142
 4077POPC   D2A52048  26.339  22.420   6.502
 4077POPC   C3A52049  26.264  22.252   6.896
 4077POPC   C4A52050  26.394  21.897   7.101
 4077POPC   C1B52051  25.681  22.048   6.231
 4077POPC   C2B52052  25.895  22.080   6.608
 4077POPC   C3B52053  25.765  22.205   7.026
 4077POPC   C4B52054  25.696  21.896   7.303
 4078POPC   NC352055  12.889  32.097   5.211
 4078POPC   PO452056  12.857  32.753   5.214
 4078POPC   GL152057  12.814  32.480   5.659
 4078POPC   GL252058  13.114  32.510   5.908
 4078POPC   C1A52059  12.697  32.332   6.117
 4078POPC   D2A52060  12.749  32.126   6.555
 4078POPC   C3A52061  12.755  32.428   6.946
 4078POPC   C4A52062  12.491  32.478   7.356
 4078POPC   C1B52063  13.212  32.178   6.195
 4078POPC   C2B52064  13.499  32.048   6.522
 4078POPC   C3B52065  13.445  31.874   6.933
 4078POPC   C4B52066  13.161  32.172   7.121
 4079POPC   NC352067  27.755   7.835   5.752
 4079POPC   PO452068  27.683   8.424   5.444
 4079POPC   GL152069  27.508   8.267   5.841
 4079POPC   GL252070  27.825   8.355   5.940
 4079POPC   C1A52071  27.619   8.117   6.314
 4079POPC   D2A52072  27.750   8.318   6.675
 4079POPC   C3A52073  27.746   8.151   7.090
 4079POPC   C4A52074  27.938   8.326   7.474
 4079POPC   C1B52075  27.481   8.602   6.209
 4079POPC   C2B52076  27.264   8.600   6.593
 4079POPC   C3B52077  27.365   8.509   6.992
 4079POPC   C4B52078  27.464   8.468   7.408
 4080POPC   NC352079  16.622   3.325   5.443
 4080POPC   PO452080  17.022   3.839   5.336
 4080POPC   GL152081  16.904   3.810   5.764
 4080POPC   GL252082  16.571   3.709   5.814
 4080POPC   C1A52083  17.046   3.632   6.161
 4080POPC   D2A52084  16.829   3.639   6.575
 4080POPC   C3A52085  17.030   3.557   6.988
 4080POPC   C4A52086  16.901   3.494   7.450
 4080POPC   C1B52087  16.541   3.428   6.197
 4080POPC   C2B52088  16.384   3.415   6.652
 4080POPC   C3B52089  16.513   3.456   7.085
 4080POPC   C4B52090  16.485   3.173   7.448
 4081POPC   NC352091  39.903  39.697   5.524
 4081POPC   PO452092  40.265  40.301   5.549
 4081POPC   GL152093  40.051  40.092   5.873
 4081POPC   GL252094  39.690  40.151   5.823
 4081POPC   C1A52095  39.944  39.902   6.279
 4081POPC   D2A52096  39.824  39.810   6.729
 4081POPC   C3A52097  40.070  39.889   7.108
 4081POPC   C4A52098  40.044  39.787   7.589
 4081POPC   C1B52099  39.781  40.403   6.199
 4081POPC   C2B52100  39.975  40.331   6.595
 4081POPC   C3B52101  39.792  40.304   6.998
 4081POPC   C4B52102  39.890  40.259   7.435
 4082POPC   NC352103  14.842   7.888   5.349
 4082POPC   PO452104  14.224   8.211   5.385
 4082POPC   GL152105  14.415   8.299   5.793
 4082POPC   GL252106  14.701   8.096   5.845
 4082POPC   C1A52107  14.382   8.243   6.250
 4082POPC   D2A52108  14.338   8.458   6.645
 4082POPC   C3A52109  14.388   8.230   6.993
 4082POPC   C4A52110  14.154   8.289   7.359
 4082POPC   C1B52111  14.877   8.085   6.300
 4082POPC   C2B52112  14.827   7.958   6.773
 4082POPC   C3B52113  14.705   7.897   7.220
 4082POPC   C4B52114  14.261   7.804   7.293
 4083POPC   NC352115  16.692  27.050   5.499
 4083POPC   PO452116  16.467  26.436   5.342
 4083POPC   GL152117  16.622  26.581   5.776
 4083POPC   GL252118  16.933  26.745   5.863
 4083POPC   C1A52119  16.561  26.900   6.151
 4083POPC   D2A52120  16.775  27.071   6.513
 4083POPC   C3A52121  16.708  26.908   6.931
 4083POPC   C4A52122  16.589  26.956   7.373
 4083POPC   C1B52123  17.057  26.689   6.279
 4083POPC   C2B52124  16.982  26.452   6.646
 4083POPC   C3B52125  17.061  26.559   7.065
 4083POPC   C4B52126  17.102  26.969   7.269
 4084POPC   NC352127  36.338  14.640   5.309
 4084POPC   PO452128  35.892  14.157   5.362
 4084POPC   GL152129  36.100  14.223   5.760
 4084POPC   GL252130  36.392  14.466   5.790
 4084POPC   C1A52131  36.273  14.128   6.170
 4084POPC   D2A52132  36.188  14.322   6.557
 4084POPC   C3A52133  36.148  14.120   6.927
 4084POPC   C4A52134  36.248  13.960   7.323
 4084POPC   C1B52135  36.528  14.603   6.205
 4084POPC   C2B52136  36.276  14.811   6.513
 4084POPC   C3B52137  36.228  14.755   6.925
 4084POPC   C4B52138  36.024  14.656   7.281
 4085POPC   NC352139  40.024  36.856   5.266
 4085POPC   PO452140  40.066  37.447   5.344
 4085POPC   GL152141  39.981  37.106   5.725
 4085POPC   GL252142  40.186  36.790   5.770
 4085POPC   C1A52143  39.829  36.886   6.120
 4085POPC   D2A52144  39.793  36.617   6.479
 4085POPC   C3A52145  39.709  36.828   6.844
 4085POPC   C4A52146  39.780  36.931   7.263
 4085POPC   C1B52147  40.321  36.924   6.206
 4085POPC   C2B52148  40.202  36.946   6.652
 4085POPC   C3B52149  40.224  36.763   7.061
 4085POPC   C4B52150  40.266  36.922   7.487
 4086POPC   NC352151   5.431  24.688   5.647
 4086POPC   PO452152   4.849  24.445   5.423
 4086POPC   GL152153   4.998  24.434   5.809
 4086POPC   GL252154   5.274  24.213   5.843
 4086POPC   C1A52155   5.011  24.753   6.134
 4086POPC   D2A52156   5.170  24.788   6.528
 4086POPC   C3A52157   5.107  24.515   6.844
 4086POPC   C4A52158   5.064  24.562   7.249
 4086POPC   C1B52159   5.234  24.305   6.264
 4086POPC   C2B52160   5.475  24.282   6.593
 4086POPC   C3B52161   5.482  23.976   6.892
 4086POPC   C4B52162   5.367  24.140   7.285
 4087POPC   NC352163  26.133  15.526   5.048
 4087POPC   PO452164  26.203  14.932   5.381
 4087POPC   GL152165  26.084  15.081   5.833
 4087POPC   GL252166  25.767  15.276   5.803
 4087POPC   C1A52167  26.054  14.891   6.291
 4087POPC   D2A52168  26.182  14.676   6.684
 4087POPC   C3A52169  26.236  14.962   7.038
 4087POPC   C4A52170  25.937  15.239   7.236
 4087POPC   C1B52171  25.924  15.377   6.238
 4087POPC   C2B52172  25.981  15.311   6.697
 4087POPC   C3B52173  25.933  15.668   6.995
 4087POPC   C4B52174  25.955  15.715   7.449
 4088POPC   NC352175  42.688  37.165   5.609
 4088POPC   PO452176  42.346  36.642   5.654
 4088POPC   GL152177  42.299  37.003   5.916
 4088POPC   GL252178  42.175  37.230   5.665
 4088POPC   C1A52179  42.493  37.196   6.291
 4088POPC   D2A52180  42.839  37.108   6.612
 4088POPC   C3A52181  42.690  37.045   7.041
 4088POPC   C4A52182  42.275  36.987   7.229
 4088POPC   C1B52183  42.060  37.445   6.058
 4088POPC   C2B52184  42.071  37.425   6.526
 4088POPC   C3B52185  41.882  37.554   6.924
 4088POPC   C4B52186  41.948  37.348   7.340
 4089POPC   NC352187  27.104   8.311   5.513
 4089POPC   PO452188  26.702   7.740   5.618
 4089POPC   GL152189  26.637   8.162   5.856
 4089POPC   GL252190  26.887   8.456   5.963
 4089POPC   C1A52191  26.596   8.222   6.304
 4089POPC   D2A52192  26.770   8.046   6.638
 4089POPC   C3A52193  26.896   8.289   6.937
 4089POPC   C4A52194  26.740   8.034   7.235
 4089POPC   C1B52195  27.119   8.198   6.287
 4089POPC   C2B52196  27.306   8.071   6.727
 4089POPC   C3B52197  27.257   8.029   7.198
 4089POPC   C4B52198  27.051   8.204   7.594
 4090POPC   NC352199  32.718  34.267   5.287
 4090POPC   PO452200  32.976  33.631   5.394
 4090POPC   GL152201  33.124  33.770   5.848
 4090POPC   GL252202  33.236  34.120   5.888
 4090POPC   C1A52203  33.206  33.712   6.301
 4090POPC   D2A52204  32.866  33.601   6.611
 4090POPC   C3A52205  32.930  33.763   7.033
 4090POPC   C4A52206  33.305  33.890   7.306
 4090POPC   C1B52207  33.004  34.165   6.291
 4090POPC   C2B52208  33.200  34.077   6.695
 4090POPC   C3B52209  33.024  34.275   7.042
 4090POPC   C4B52210  32.873  34.167   7.417
 4091POPC   NC352211   1.031  40.550   5.490
 4091POPC   PO452212   0.967  41.177   5.506
 4091POPC   GL152213   1.192  40.907   5.818
 4091POPC   GL252214   1.554  40.919   5.768
 4091POPC   C1A52215   1.200  40.685   6.221
 4091POPC   D2A52216   1.115  40.477   6.643
 4091POPC   C3A52217   0.985  40.758   6.991
 4091POPC   C4A52218   0.912  40.660   7.428
 4091POPC   C1B52219   1.618  41.017   6.201
 4091POPC   C2B52220   1.431  40.919   6.601
 4091POPC   C3B52221   1.478  40.716   6.975
 4091POPC   C4B52222   1.577  40.968   7.281
 4092POPC   NC352223   3.937  19.339   5.302
 4092POPC   PO452224   4.432  18.879   5.087
 4092POPC   GL152225   4.398  18.893   5.574
 4092POPC   GL252226   4.064  18.766   5.712
 4092POPC   C1A52227   4.431  19.048   6.028
 4092POPC   D2A52228   4.368  19.369   6.398
 4092POPC   C3A52229   4.380  19.199   6.823
 4092POPC   C4A52230   4.133  19.227   7.209
 4092POPC   C1B52231   3.928  18.836   6.099
 4092POPC   C2B52232   4.167  18.875   6.444
 4092POPC   C3B52233   4.024  18.843   6.810
 4092POPC   C4B52234   4.097  18.731   7.141
 4093POPC   NC352235  37.954   0.729   5.755
 4093POPC   PO452236  37.999   0.240   5.323
 4093POPC   GL152237  37.655   0.273   5.794
 4093POPC   GL252238  37.527   0.529   5.929
 4093POPC   C1A52239  37.694   0.367   6.348
 4093POPC   D2A52240  37.686   0.644   6.719
 4093POPC   C3A52241  37.800   0.380   7.055
 4093POPC   C4A52242  38.165   0.256   7.302
 4093POPC   C1B52243  37.271   0.643   6.239
 4093POPC   C2B52244  37.155   0.634   6.601
 4093POPC   C3B52245  37.270   0.879   6.912
 4093POPC   C4B52246  37.401   0.637   7.240
 4094POPC   NC352247   4.647  31.279   5.450
 4094POPC   PO452248   4.092  31.746   5.401
 4094POPC   GL152249   4.370  31.615   5.789
 4094POPC   GL252250   4.284  31.243   5.858
 4094POPC   C1A52251   4.363  31.547   6.274
 4094POPC   D2A52252   4.098  31.476   6.666
 4094POPC   C3A52253   4.260  31.437   7.089
 4094POPC   C4A52254   4.522  31.762   7.319
 4094POPC   C1B52255   4.099  31.096   6.296
 4094POPC   C2B52256   4.115  30.982   6.768
 4094POPC   C3B52257   3.902  31.040   7.169
 4094POPC   C4B52258   4.014  31.145   7.591
 4095POPC   NC352259  39.933  35.056   5.579
 4095POPC   PO452260  40.265  35.490   5.165
 4095POPC   GL152261  40.202  35.489   5.673
 4095POPC   GL252262  40.473  35.644   5.844
 4095POPC   C1A52263  39.909  35.513   6.065
 4095POPC   D2A52264  39.932  35.499   6.517
 4095POPC   C3A52265  39.635  35.386   6.833
 4095POPC   C4A52266  39.834  35.501   7.201
 4095POPC   C1B52267  40.450  35.450   6.284
 4095POPC   C2B52268  40.265  35.106   6.521
 4095POPC   C3B52269  40.052  35.114   6.903
 4095POPC   C4B52270  40.186  35.124   7.326
 4096POPC   NC352271  13.275  31.235   5.540
 4096POPC   PO452272  12.805  31.590   5.143
 4096POPC   GL152273  12.801  31.658   5.603
 4096POPC   GL252274  12.757  31.326   5.734
 4096POPC   C1A52275  12.818  31.778   6.074
 4096POPC   D2A52276  13.085  31.725   6.458
 4096POPC   C3A52277  12.935  31.748   6.896
 4096POPC   C4A52278  13.129  31.684   7.310
 4096POPC   C1B52279  12.932  31.215   6.125
 4096POPC   C2B52280  12.890  31.247   6.546
 4096POPC   C3B52281  12.902  31.170   6.951
 4096POPC   C4B52282  12.789  31.260   7.326
 4097POPC   NC352283   8.775   7.464   5.420
 4097POPC   PO452284   9.236   7.801   5.545
 4097POPC   GL152285   9.089   7.532   5.848
 4097POPC   GL252286   8.929   7.199   5.863
 4097POPC   C1A52287   9.263   7.436   6.236
 4097POPC   D2A52288   9.164   7.212   6.611
 4097POPC   C3A52289   9.142   7.428   7.020
 4097POPC   C4A52290   9.187   7.322   7.471
 4097POPC   C1B52291   8.747   7.344   6.284
 4097POPC   C2B52292   8.700   7.385   6.742
 4097POPC   C3B52293   8.636   7.221   7.131
 4097POPC   C4B52294   8.785   7.030   7.489
 4098POPC   NC352295  14.988  25.749   5.512
 4098POPC   PO452296  15.496  26.217   5.405
 4098POPC   GL152297  15.206  26.339   5.735
 4098POPC   GL252298  15.472  26.499   5.890
 4098POPC   C1A52299  15.036  26.128   6.129
 4098POPC   D2A52300  15.185  25.871   6.509
 4098POPC   C3A52301  15.102  26.046   6.940
 4098POPC   C4A52302  14.836  26.103   7.301
 4098POPC   C1B52303  15.505  26.247   6.304
 4098POPC   C2B52304  15.585  26.235   6.746
 4098POPC   C3B52305  15.576  26.098   7.161
 4098POPC   C4B52306  15.617  26.247   7.627
 4099POPC   NC352307  34.943   6.885   5.634
 4099POPC   PO452308  34.815   7.502   5.414
 4099POPC   GL152309  35.097   7.390   5.766
 4099POPC   GL252310  35.398   7.137   5.738
 4099POPC   C1A52311  35.274   7.398   6.183
 4099POPC   D2A52312  35.126   7.460   6.591
 4099POPC   C3A52313  35.175   7.238   6.968
 4099POPC   C4A52314  35.338   7.455   7.315
 4099POPC   C1B52315  35.708   7.143   6.100
 4099POPC   C2B52316  35.567   7.164   6.547
 4099POPC   C3B52317  35.692   7.183   6.962
 4099POPC   C4B52318  35.845   7.489   7.239
 4100POPC   NC352319  25.232  12.226   5.366
 4100POPC   PO452320  25.501  11.572   5.411
 4100POPC   GL152321  25.229  11.763   5.785
 4100POPC   GL252322  25.094  12.115   5.835
 4100POPC   C1A52323  25.172  11.807   6.228
 4100POPC   D2A52324  25.442  11.859   6.551
 4100POPC   C3A52325  25.244  11.771   6.942
 4100POPC   C4A52326  25.339  12.044   7.280
 4100POPC   C1B52327  24.979  12.290   6.234
 4100POPC   C2B52328  25.083  12.214   6.665
 4100POPC   C3B52329  25.004  12.392   7.068
 4100POPC   C4B52330  24.886  12.290   7.482
 4101POPC   NC352331   8.365  39.454   5.463
 4101POPC   PO452332   7.839  39.055   5.368
 4101POPC   GL152333   8.101  39.081   5.718
 4101POPC   GL252334   7.967  39.402   5.820
 4101POPC   C1A52335   8.377  39.031   6.096
 4101POPC   D2A52336   8.408  39.303   6.423
 4101POPC   C3A52337   8.400  39.130   6.812
 4101POPC   C4A52338   8.301  39.402   7.155
 4101POPC   C1B52339   7.812  39.317   6.221
 4101POPC   C2B52340   7.941  39.421   6.635
 4101POPC   C3B52341   7.903  39.147   6.943
 4101POPC   C4B52342   7.779  38.872   7.256
 4102POPC   NC352343   7.590  39.703   5.585
 4102POPC   PO452344   7.186  40.269   5.491
 4102POPC   GL152345   7.381  40.129   5.874
 4102POPC   GL252346   7.219  39.841   5.888
 4102POPC   C1A52347   7.383  39.963   6.334
 4102POPC   D2A52348   7.615  39.997   6.686
 4102POPC   C3A52349   7.475  40.348   6.882
 4102POPC   C4A52350   7.411  40.198   7.261
 4102POPC   C1B52351   6.912  39.773   6.177
 4102POPC   C2B52352   6.948  39.743   6.553
 4102POPC   C3B52353   7.130  39.946   6.873
 4102POPC   C4B52354   6.966  39.905   7.284
 4103POPC   NC352355   9.561  15.337   5.338
 4103POPC   PO452356  10.015  14.933   5.573
 4103POPC   GL152357   9.793  15.216   5.850
 4103POPC   GL252358  10.049  15.388   5.990
 4103POPC   C1A52359   9.581  15.238   6.290
 4103POPC   D2A52360   9.400  14.943   6.629
 4103POPC   C3A52361   9.575  15.079   7.043
 4103POPC   C4A52362   9.662  15.537   7.138
 4103POPC   C1B52363  10.079  15.032   6.276
 4103POPC   C2B52364   9.934  15.023   6.675
 4103POPC   C3B52365  10.090  15.127   7.063
 4103POPC   C4B52366  10.275  14.925   7.396
 4104POPC   NC352367  11.650  40.231   5.152
 4104POPC   PO452368  11.662  40.881   5.299
 4104POPC   GL152369  11.527  40.934   5.806
 4104POPC   GL252370  11.207  40.873   5.949
 4104POPC   C1A52371  11.577  40.818   6.296
 4104POPC   D2A52372  11.324  40.483   6.519
 4104POPC   C3A52373  11.149  40.511   6.928
 4104POPC   C4A52374  11.276  40.707   7.268
 4104POPC   C1B52375  11.143  41.071   6.367
 4104POPC   C2B52376  11.213  41.018   6.839
 4104POPC   C3B52377  11.163  41.210   7.277
 4104POPC   C4B52378  10.898  41.221   7.649
 4105POPC   NC352379  40.551  38.325   5.481
 4105POPC   PO452380  40.946  37.851   5.395
 4105POPC   GL152381  40.875  37.610   5.784
 4105POPC   GL252382  40.604  37.797   5.880
 4105POPC   C1A52383  40.926  37.693   6.249
 4105POPC   D2A52384  40.737  37.813   6.622
 4105POPC   C3A52385  40.936  37.827   7.019
 4105POPC   C4A52386  41.160  37.643   7.352
 4105POPC   C1B52387  40.368  37.824   6.256
 4105POPC   C2B52388  40.261  37.576   6.631
 4105POPC   C3B52389  40.422  37.760   7.019
 4105POPC   C4B52390  40.581  38.161   7.151
 4106POPC   NC352391  44.511  30.919   5.426
 4106POPC   PO452392  44.320  30.345   5.557
 4106POPC   GL152393  44.585  30.627   5.847
 4106POPC   GL252394  44.896  30.832   5.776
 4106POPC   C1A52395  44.593  30.803   6.286
 4106POPC   D2A52396  44.788  30.676   6.689
 4106POPC   C3A52397  44.517  30.583   7.029
 4106POPC   C4A52398  44.294  30.885   7.260
 4106POPC   C1B52399  44.984  31.125   6.138
 4106POPC   C2B52400  44.787  31.264   6.533
 4106POPC   C3B52401  44.590  31.118   6.893
 4106POPC   C4B52402  44.819  30.934   7.215
 4107POPC   NC352403  37.234  13.409   5.414
 4107POPC   PO452404  36.777  13.872   5.464
 4107POPC   GL152405  36.993  13.735   5.839
 4107POPC   GL252406  37.339  13.673   5.882
 4107POPC   C1A52407  36.843  13.544   6.240
 4107POPC   D2A52408  36.621  13.550   6.644
 4107POPC   C3A52409  36.637  13.853   6.982
 4107POPC   C4A52410  36.646  13.638   7.360
 4107POPC   C1B52411  37.334  13.624   6.359
 4107POPC   C2B52412  37.101  13.281   6.622
 4107POPC   C3B52413  36.943  13.327   7.043
 4107POPC   C4B52414  37.129  13.718   7.154
 4108POPC   NC352415   5.980  32.159   5.546
 4108POPC   PO452416   5.453  32.488   5.573
 4108POPC   GL152417   5.651  32.294   5.937
 4108POPC   GL252418   5.648  31.921   5.939
 4108POPC   C1A52419   5.917  32.426   6.296
 4108POPC   D2A52420   5.969  32.652   6.701
 4108POPC   C3A52421   5.676  32.511   7.047
 4108POPC   C4A52422   5.868  32.332   7.454
 4108POPC   C1B52423   6.054  31.934   6.176
 4108POPC   C2B52424   6.086  32.025   6.623
 4108POPC   C3B52425   5.864  32.027   7.033
 4108POPC   C4B52426   5.454  32.084   7.259
 4109POPC   NC352427  24.243   6.503   5.293
 4109POPC   PO452428  24.738   6.885   5.496
 4109POPC   GL152429  24.484   6.610   5.744
 4109POPC   GL252430  24.293   6.307   5.743
 4109POPC   C1A52431  24.484   6.720   6.170
 4109POPC   D2A52432  24.774   6.577   6.490
 4109POPC   C3A52433  24.697   6.770   6.884
 4109POPC   C4A52434  24.567   6.616   7.285
 4109POPC   C1B52435  24.145   6.344   6.128
 4109POPC   C2B52436  24.283   6.419   6.548
 4109POPC   C3B52437  24.134   6.468   6.969
 4109POPC   C4B52438  24.231   6.250   7.370
 4110POPC   NC352439  18.667  28.180   5.609
 4110POPC   PO452440  18.027  28.529   5.427
 4110POPC   GL152441  17.975  28.404   5.841
 4110POPC   GL252442  18.306  28.433   5.851
 4110POPC   C1A52443  17.923  28.330   6.294
 4110POPC   D2A52444  18.071  28.191   6.703
 4110POPC   C3A52445  17.974  28.329   7.119
 4110POPC   C4A52446  18.059  28.567   7.512
 4110POPC   C1B52447  18.424  28.371   6.268
 4110POPC   C2B52448  18.563  28.312   6.671
 4110POPC   C3B52449  18.456  28.482   7.062
 4110POPC   C4B52450  18.436  28.265   7.452
 4111POPC   NC352451   4.237  37.876   5.401
 4111POPC   PO452452   3.779  37.455   5.162
 4111POPC   GL152453   3.990  37.504   5.647
 4111POPC   GL252454   4.375  37.485   5.719
 4111POPC   C1A52455   4.093  37.747   6.070
 4111POPC   D2A52456   4.280  37.784   6.492
 4111POPC   C3A52457   4.363  38.108   6.786
 4111POPC   C4A52458   4.288  37.938   7.199
 4111POPC   C1B52459   4.593  37.270   6.079
 4111POPC   C2B52460   4.544  37.242   6.552
 4111POPC   C3B52461   4.430  37.503   6.919
 4111POPC   C4B52462   4.580  37.544   7.355
 4112POPC   NC352463   8.314   2.453   5.407
 4112POPC   PO452464   7.825   3.010   5.400
 4112POPC   GL152465   7.982   2.727   5.718
 4112POPC   GL252466   8.349   2.714   5.814
 4112POPC   C1A52467   7.991   2.579   6.145
 4112POPC   D2A52468   8.129   2.762   6.526
 4112POPC   C3A52469   8.013   2.548   6.911
 4112POPC   C4A52470   7.901   2.577   7.353
 4112POPC   C1B52471   8.524   2.805   6.170
 4112POPC   C2B52472   8.599   2.578   6.518
 4112POPC   C3B52473   8.479   2.737   6.895
 4112POPC   C4B52474   8.404   2.684   7.307
 4113POPC   NC352475   2.121  32.049   5.502
 4113POPC   PO452476   2.344  32.565   5.214
 4113POPC   GL152477   2.072  32.529   5.670
 4113POPC   GL252478   2.232  32.367   5.958
 4113POPC   C1A52479   1.753  32.393   6.047
 4113POPC   D2A52480   1.938  32.257   6.458
 4113POPC   C3A52481   1.777  32.154   6.871
 4113POPC   C4A52482   1.526  32.236   7.227
 4113POPC   C1B52483   2.120  31.923   6.126
 4113POPC   C2B52484   2.020  31.749   6.534
 4113POPC   C3B52485   2.156  31.777   6.963
 4113POPC   C4B52486   2.064  32.045   7.274
 4114POPC   NC352487   2.283  12.431   5.401
 4114POPC   PO452488   1.767  12.073   5.320
 4114POPC   GL152489   1.870  11.905   5.736
 4114POPC   GL252490   2.051  12.202   5.814
 4114POPC   C1A52491   2.073  11.864   6.174
 4114POPC   D2A52492   2.013  12.113   6.548
 4114POPC   C3A52493   2.069  11.955   6.947
 4114POPC   C4A52494   2.090  11.763   7.339
 4114POPC   C1B52495   1.679  12.162   6.127
 4114POPC   C2B52496   1.473  12.241   6.523
 4114POPC   C3B52497   1.684  12.315   6.932
 4114POPC   C4B52498   2.067  12.413   7.154
 4115POPC   NC352499  21.200  16.481   5.444
 4115POPC   PO452500  21.827  16.813   5.340
 4115POPC   GL152501  21.610  16.630   5.751
 4115POPC   GL252502  21.269  16.751   5.855
 4115POPC   C1A52503  21.540  16.522   6.220
 4115POPC   D2A52504  21.575  16.775   6.628
 4115POPC   C3A52505  21.555  16.663   7.079
 4115POPC   C4A52506  21.691  16.717   7.535
 4115POPC   C1B52507  21.368  17.003   6.210
 4115POPC   C2B52508  21.168  17.073   6.604
 4115POPC   C3B52509  21.203  17.051   7.021
 4115POPC   C4B52510  21.231  16.905   7.429
 4116POPC   NC352511  13.327   9.707   5.457
 4116POPC   PO452512  12.750   9.896   5.582
 4116POPC   GL152513  12.755   9.677   5.955
 4116POPC   GL252514  13.070   9.588   5.878
 4116POPC   C1A52515  12.545   9.424   6.277
 4116POPC   D2A52516  12.645   9.483   6.704
 4116POPC   C3A52517  12.737   9.913   6.803
 4116POPC   C4A52518  12.679  10.029   7.206
 4116POPC   C1B52519  13.237   9.766   6.234
 4116POPC   C2B52520  13.141   9.650   6.665
 4116POPC   C3B52521  13.032   9.570   7.111
 4116POPC   C4B52522  13.310   9.510   7.501
 4117POPC   NC352523  15.469  27.353   5.495
 4117POPC   PO452524  14.915  27.667   5.451
 4117POPC   GL152525  15.135  27.586   5.838
 4117POPC   GL252526  15.403  27.824   5.867
 4117POPC   C1A52527  15.043  27.684   6.271
 4117POPC   D2A52528  14.870  27.460   6.629
 4117POPC   C3A52529  15.023  27.571   7.037
 4117POPC   C4A52530  15.100  27.376   7.429
 4117POPC   C1B52531  15.534  27.492   6.165
 4117POPC   C2B52532  15.396  27.422   6.591
 4117POPC   C3B52533  15.442  27.255   6.972
 4117POPC   C4B52534  15.526  27.541   7.259
 4118POPC   NC352535  42.486  44.869   5.522
 4118POPC   PO452536  41.937   0.294   5.345
 4118POPC   GL152537  42.208   0.312   5.717
 4118POPC   GL252538  42.125   0.655   5.840
 4118POPC   C1A52539  42.304   0.159   6.156
 4118POPC   D2A52540  42.472   0.435   6.455
 4118POPC   C3A52541  42.484   0.259   6.863
 4118POPC   C4A52542  42.432   0.347   7.274
 4118POPC   C1B52543  42.250   0.827   6.249
 4118POPC   C2B52544  42.102   0.800   6.701
 4118POPC   C3B52545  42.113   0.796   7.170
 4118POPC   C4B52546  42.068   0.559   7.559
 4119POPC   NC352547  20.071   2.980   5.422
 4119POPC   PO452548  19.801   2.404   5.405
 4119POPC   GL152549  19.800   2.753   5.784
 4119POPC   GL252550  20.008   3.062   5.903
 4119POPC   C1A52551  19.755   2.698   6.215
 4119POPC   D2A52552  19.904   2.415   6.540
 4119POPC   C3A52553  19.827   2.524   6.951
 4119POPC   C4A52554  19.762   2.665   7.374
 4119POPC   C1B52555  19.999   3.184   6.303
 4119POPC   C2B52556  19.856   2.963   6.651
 4119POPC   C3B52557  19.987   3.011   7.054
 4119POPC   C4B52558  20.351   3.181   7.217
 4120POPC   NC352559  32.134  11.911   5.466
 4120POPC   PO452560  32.697  12.311   5.262
 4120POPC   GL152561  32.358  12.398   5.676
 4120POPC   GL252562  32.262  12.081   5.902
 4120POPC   C1A52563  32.257  12.503   6.147
 4120POPC   D2A52564  32.278  12.213   6.506
 4120POPC   C3A52565  32.358  12.352   6.914
 4120POPC   C4A52566  32.082  12.409   7.264
 4120POPC   C1B52567  32.236  11.773   6.233
 4120POPC   C2B52568  31.996  11.767   6.594
 4120POPC   C3B52569  31.921  12.127   6.864
 4120POPC   C4B52570  32.110  11.888   7.156
 4121POPC   NC352571  41.121  32.690   5.607
 4121POPC   PO452572  41.668  32.796   5.199
 4121POPC   GL152573  41.621  32.815   5.645
 4121POPC   GL252574  41.595  32.491   5.818
 4121POPC   C1A52575  41.658  32.956   6.108
 4121POPC   D2A52576  41.656  32.896   6.577
 4121POPC   C3A52577  41.513  33.205   6.901
 4121POPC   C4A52578  41.566  33.149   7.357
 4121POPC   C1B52579  41.363  32.487   6.235
 4121POPC   C2B52580  41.201  32.623   6.652
 4121POPC   C3B52581  41.411  32.717   7.061
 4121POPC   C4B52582  41.334  32.724   7.522
 4122POPC   NC352583  18.179   4.446   5.106
 4122POPC   PO452584  18.485   4.448   5.663
 4122POPC   GL152585  18.199   4.281   5.885
 4122POPC   GL252586  17.960   3.987   5.774
 4122POPC   C1A52587  18.260   4.466   6.296
 4122POPC   D2A52588  18.519   4.474   6.634
 4122POPC   C3A52589  18.251   4.445   6.975
 4122POPC   C4A52590  18.480   4.190   7.246
 4122POPC   C1B52591  18.078   3.925   6.215
 4122POPC   C2B52592  18.200   4.047   6.585
 4122POPC   C3B52593  18.228   3.857   6.930
 4122POPC   C4B52594  18.017   4.042   7.159
 4123POPC   NC352595  18.513  23.397   5.381
 4123POPC   PO452596  17.994  22.842   5.406
 4123POPC   GL152597  18.146  22.832   5.824
 4123POPC   GL252598  18.099  22.499   5.899
 4123POPC   C1A52599  18.466  22.979   6.101
 4123POPC   D2A52600  18.545  23.209   6.468
 4123POPC   C3A52601  18.366  23.093   6.863
 4123POPC   C4A52602  18.263  23.245   7.283
 4123POPC   C1B52603  18.120  22.660   6.337
 4123POPC   C2B52604  18.182  22.585   6.777
 4123POPC   C3B52605  18.426  22.671   7.146
 4123POPC   C4B52606  18.262  22.741   7.532
 4124POPC   NC352607  30.513   8.907   5.236
 4124POPC   PO452608  30.899   8.627   5.702
 4124POPC   GL152609  30.524   8.837   5.761
 4124POPC   GL252610  30.704   9.137   5.672
 4124POPC   C1A52611  30.375   8.774   6.174
 4124POPC   D2A52612  30.567   8.922   6.554
 4124POPC   C3A52613  30.594   8.718   6.942
 4124POPC   C4A52614  30.778   8.832   7.321
 4124POPC   C1B52615  30.690   9.228   6.125
 4124POPC   C2B52616  30.566   9.422   6.540
 4124POPC   C3B52617  30.609   9.315   7.004
 4124POPC   C4B52618  30.410   9.518   7.364
 4125POPC   NC352619  30.225   1.673   5.474
 4125POPC   PO452620  29.687   2.007   5.303
 4125POPC   GL152621  29.944   2.118   5.655
 4125POPC   GL252622  29.891   1.829   5.825
 4125POPC   C1A52623  29.856   2.240   6.095
 4125POPC   D2A52624  29.821   1.956   6.453
 4125POPC   C3A52625  29.947   2.139   6.831
 4125POPC   C4A52626  29.921   2.125   7.248
 4125POPC   C1B52627  30.205   1.782   6.149
 4125POPC   C2B52628  30.254   1.634   6.595
 4125POPC   C3B52629  30.134   1.668   7.007
 4125POPC   C4B52630  29.794   1.607   7.266
 4126POPC   NC352631   1.576  14.337   5.436
 4126POPC   PO452632   1.083  13.933   5.522
 4126POPC   GL152633   1.265  14.213   5.826
 4126POPC   GL252634   1.549  14.041   5.915
 4126POPC   C1A52635   1.271  14.443   6.238
 4126POPC   D2A52636   0.970  14.463   6.596
 4126POPC   C3A52637   1.147  14.628   6.967
 4126POPC   C4A52638   1.108  14.418   7.349
 4126POPC   C1B52639   1.734  14.194   6.297
 4126POPC   C2B52640   1.745  14.253   6.749
 4126POPC   C3B52641   1.744  14.306   7.171
 4126POPC   C4B52642   1.559  14.672   7.349
 4127POPC   NC352643  42.306  20.254   5.498
 4127POPC   PO452644  42.112  19.607   5.497
 4127POPC   GL152645  42.318  19.844   5.798
 4127POPC   GL252646  42.666  19.902   5.692
 4127POPC   C1A52647  42.230  19.941   6.223
 4127POPC   D2A52648  42.053  19.887   6.646
 4127POPC   C3A52649  42.311  19.900   7.026
 4127POPC   C4A52650  42.378  20.051   7.458
 4127POPC   C1B52651  42.720  19.688   6.099
 4127POPC   C2B52652  42.586  19.753   6.542
 4127POPC   C3B52653  42.789  19.710   6.934
 4127POPC   C4B52654  42.664  19.646   7.342
 4128POPC   NC352655  36.725  40.012   4.988
 4128POPC   PO452656  37.169  40.439   5.024
 4128POPC   GL152657  36.785  40.198   5.439
 4128POPC   GL252658  36.454  40.203   5.603
 4128POPC   C1A52659  36.836  39.993   5.917
 4128POPC   D2A52660  36.717  39.927   6.413
 4128POPC   C3A52661  36.954  39.856   6.804
 4128POPC   C4A52662  36.997  39.878   7.251
 4128POPC   C1B52663  36.374  40.120   6.082
 4128POPC   C2B52664  36.376  40.265   6.567
 4128POPC   C3B52665  36.593  40.194   6.997
 4128POPC   C4B52666  36.640  40.322   7.458
 4129POPC   NC352667  27.646   1.594   5.363
 4129POPC   PO452668  28.033   1.073   5.331
 4129POPC   GL152669  27.830   1.182   5.715
 4129POPC   GL252670  27.807   1.527   5.854
 4129POPC   C1A52671  27.702   1.137   6.162
 4129POPC   D2A52672  27.748   1.497   6.439
 4129POPC   C3A52673  27.690   1.533   6.884
 4129POPC   C4A52674  28.003   1.296   7.066
 4129POPC   C1B52675  27.377   1.552   6.096
 4129POPC   C2B52676  27.280   1.670   6.557
 4129POPC   C3B52677  27.162   1.542   7.011
 4129POPC   C4B52678  27.256   1.405   7.470
 4130POPC   NC352679   1.226  22.189   5.098
 4130POPC   PO452680   0.888  22.525   5.552
 4130POPC   GL152681   1.059  22.374   5.930
 4130POPC   GL252682   1.418  22.331   5.928
 4130POPC   C1A52683   1.116  22.548   6.327
 4130POPC   D2A52684   1.034  22.299   6.691
 4130POPC   C3A52685   1.248  22.356   7.088
 4130POPC   C4A52686   1.196  22.216   7.527
 4130POPC   C1B52687   1.412  22.116   6.354
 4130POPC   C2B52688   1.622  22.102   6.778
 4130POPC   C3B52689   1.572  21.994   7.240
 4130POPC   C4B52690   1.454  21.803   7.665
 4131POPC   NC352691  22.265  36.493   5.462
 4131POPC   PO452692  21.996  35.896   5.497
 4131POPC   GL152693  22.210  35.997   5.881
 4131POPC   GL252694  22.136  36.348   5.930
 4131POPC   C1A52695  22.010  36.000   6.318
 4131POPC   D2A52696  21.745  36.013   6.697
 4131POPC   C3A52697  21.991  36.134   7.059
 4131POPC   C4A52698  21.980  35.907   7.459
 4131POPC   C1B52699  22.450  36.266   6.265
 4131POPC   C2B52700  22.645  36.129   6.670
 4131POPC   C3B52701  22.643  36.340   7.064
 4131POPC   C4B52702  22.399  36.181   7.397
 4132POPC   NC352703   9.216  43.996   5.350
 4132POPC   PO452704   8.793  43.502   5.293
 4132POPC   GL152705   9.024  43.611   5.688
 4132POPC   GL252706   8.913  43.966   5.783
 4132POPC   C1A52707   8.967  43.635   6.161
 4132POPC   D2A52708   8.797  43.603   6.588
 4132POPC   C3A52709   9.015  43.714   6.975
 4132POPC   C4A52710   9.438  43.585   7.077
 4132POPC   C1B52711   8.806  44.129   6.210
 4132POPC   C2B52712   8.580  44.074   6.629
 4132POPC   C3B52713   8.723  44.143   7.060
 4132POPC   C4B52714   9.127  44.098   7.302
 4133POPC   NC352715   3.341  37.444   5.302
 4133POPC   PO452716   3.747  37.957   5.547
 4133POPC   GL152717   3.471  37.689   5.809
 4133POPC   GL252718   3.518  37.334   5.817
 4133POPC   C1A52719   3.489  37.627   6.280
 4133POPC   D2A52720   3.464  37.763   6.716
 4133POPC   C3A52721   3.388  37.478   7.064
 4133POPC   C4A52722   3.293  37.635   7.497
 4133POPC   C1B52723   3.854  37.299   6.136
 4133POPC   C2B52724   3.882  37.473   6.566
 4133POPC   C3B52725   3.921  37.557   6.984
 4133POPC   C4B52726   3.783  37.827   7.273
 4134POPC   NC352727  36.803  15.353   5.267
 4134POPC   PO452728  36.986  16.046   5.258
 4134POPC   GL152729  37.018  16.104   5.725
 4134POPC   GL252730  37.236  16.357   5.783
 4134POPC   C1A52731  36.779  15.975   6.141
 4134POPC   D2A52732  36.816  16.073   6.592
 4134POPC   C3A52733  36.572  15.847   6.911
 4134POPC   C4A52734  36.812  15.592   7.206
 4134POPC   C1B52735  37.095  16.365   6.180
 4134POPC   C2B52736  37.253  16.369   6.571
 4134POPC   C3B52737  37.065  16.403   6.917
 4134POPC   C4B52738  37.020  16.080   7.180
 4135POPC   NC352739  29.588  31.771   5.405
 4135POPC   PO452740  30.076  31.486   5.693
 4135POPC   GL152741  29.707  31.371   5.848
 4135POPC   GL252742  29.736  31.023   5.781
 4135POPC   C1A52743  29.669  31.493   6.272
 4135POPC   D2A52744  30.031  31.452   6.575
 4135POPC   C3A52745  29.846  31.517   6.979
 4135POPC   C4A52746  29.512  31.278   7.197
 4135POPC   C1B52747  29.880  31.019   6.222
 4135POPC   C2B52748  29.756  30.870   6.638
 4135POPC   C3B52749  29.907  31.011   7.043
 4135POPC   C4B52750  30.005  31.319   7.417
 4136POPC   NC352751  42.029  41.786   5.422
 4136POPC   PO452752  42.645  41.498   5.454
 4136POPC   GL152753  42.433  41.400   5.832
 4136POPC   GL252754  42.101  41.598   5.874
 4136POPC   C1A52755  42.631  41.275   6.219
 4136POPC   D2A52756  42.871  41.380   6.598
 4136POPC   C3A52757  42.644  41.367   6.988
 4136POPC   C4A52758  42.337  41.419   7.323
 4136POPC   C1B52759  42.311  41.743   6.248
 4136POPC   C2B52760  42.329  41.654   6.688
 4136POPC   C3B52761  42.016  41.677   6.998
 4136POPC   C4B52762  42.012  41.852   7.399
 4137POPC   NC352763  17.960  38.223   5.140
 4137POPC   PO452764  18.348  38.598   5.374
 4137POPC   GL152765  18.363  38.399   5.815
 4137POPC   GL252766  18.478  38.056   5.872
 4137POPC   C1A52767  18.214  38.399   6.276
 4137POPC   D2A52768  18.072  38.313   6.730
 4137POPC   C3A52769  18.199  38.596   7.076
 4137POPC   C4A52770  18.375  38.530   7.499
 4137POPC   C1B52771  18.542  38.013   6.321
 4137POPC   C2B52772  18.560  38.155   6.747
 4137POPC   C3B52773  18.345  38.114   7.151
 4137POPC   C4B52774  17.955  38.251   7.389
 4138POPC   NC352775   0.639   8.616   5.609
 4138POPC   PO452776   0.190   9.143   5.357
 4138POPC   GL152777   0.469   9.060   5.782
 4138POPC   GL252778   0.268   8.986   5.998
 4138POPC   C1A52779   0.703   8.895   6.199
 4138POPC   D2A52780   0.489   8.867   6.629
 4138POPC   C3A52781   0.706   8.973   7.036
 4138POPC   C4A52782   0.479   8.886   7.467
 4138POPC   C1B52783   0.328   9.252   6.306
 4138POPC   C2B52784   0.084   9.391   6.606
 4138POPC   C3B52785   0.071   9.418   7.008
 4138POPC   C4B52786   0.218   9.059   7.076
 4139POPC   NC352787  42.711  29.867   5.619
 4139POPC   PO452788  43.356  30.080   5.546
 4139POPC   GL152789  43.187  29.823   5.885
 4139POPC   GL252790  42.994  29.530   6.005
 4139POPC   C1A52791  43.298  29.899   6.297
 4139POPC   D2A52792  43.306  30.227   6.609
 4139POPC   C3A52793  43.082  30.163   6.973
 4139POPC   C4A52794  43.282  30.053   7.300
 4139POPC   C1B52795  42.780  29.837   6.261
 4139POPC   C2B52796  42.941  29.817   6.639
 4139POPC   C3B52797  42.946  29.634   6.971
 4139POPC   C4B52798  42.830  29.842   7.286
 4140POPC   NC352799  27.936  31.537   5.410
 4140POPC   PO452800  28.539  31.312   5.560
 4140POPC   GL152801  28.275  31.573   5.797
 4140POPC   GL252802  28.489  31.820   5.866
 4140POPC   C1A52803  28.092  31.566   6.205
 4140POPC   D2A52804  28.096  31.289   6.532
 4140POPC   C3A52805  28.045  31.349   6.939
 4140POPC   C4A52806  28.195  31.556   7.278
 4140POPC   C1B52807  28.598  31.576   6.244
 4140POPC   C2B52808  28.473  31.591   6.681
 4140POPC   C3B52809  28.635  31.426   7.034
 4140POPC   C4B52810  28.667  31.376   7.467
 4141POPC   NC352811  27.900  24.838   5.433
 4141POPC   PO452812  27.206  24.843   5.316
 4141POPC   GL152813  27.311  24.659   5.699
 4141POPC   GL252814  27.571  24.512   5.696
 4141POPC   C1A52815  27.263  24.701   6.128
 4141POPC   D2A52816  27.466  24.541   6.517
 4141POPC   C3A52817  27.280  24.417   6.924
 4141POPC   C4A52818  27.105  24.731   7.185
 4141POPC   C1B52819  27.773  24.653   6.083
 4141POPC   C2B52820  27.976  24.518   6.466
 4141POPC   C3B52821  28.003  24.781   6.826
 4141POPC   C4B52822  27.897  24.821   7.253
 4142POPC   NC352823  28.964  14.264   5.491
 4142POPC   PO452824  29.550  14.636   5.421
 4142POPC   GL152825  29.352  14.567   5.762
 4142POPC   GL252826  29.392  14.225   5.789
 4142POPC   C1A52827  29.187  14.753   6.114
 4142POPC   D2A52828  29.017  14.674   6.484
 4142POPC   C3A52829  29.206  14.731   6.873
 4142POPC   C4A52830  29.114  14.539   7.256
 4142POPC   C1B52831  29.125  14.192   6.142
 4142POPC   C2B52832  29.272  14.228   6.551
 4142POPC   C3B52833  29.084  14.135   6.921
 4142POPC   C4B52834  29.310  14.067   7.282
 4143POPC   NC352835  37.782  42.526   5.348
 4143POPC   PO452836  37.850  41.874   5.310
 4143POPC   GL152837  37.610  42.149   5.646
 4143POPC   GL252838  37.397  42.450   5.698
 4143POPC   C1A52839  37.676  42.166   6.091
 4143POPC   D2A52840  37.806  42.472   6.404
 4143POPC   C3A52841  37.874  42.399   6.856
 4143POPC   C4A52842  37.699  42.580   7.275
 4143POPC   C1B52843  37.268  42.433   6.159
 4143POPC   C2B52844  37.322  42.218   6.542
 4143POPC   C3B52845  37.393  42.252   6.969
 4143POPC   C4B52846  37.160  42.576   7.162
 4144POPC   NC352847  32.272  29.699   5.524
 4144POPC   PO452848  31.722  29.814   5.139
 4144POPC   GL152849  31.861  30.060   5.601
 4144POPC   GL252850  32.178  30.189   5.717
 4144POPC   C1A52851  32.013  29.920   6.093
 4144POPC   D2A52852  32.303  29.841   6.454
 4144POPC   C3A52853  32.089  29.839   6.858
 4144POPC   C4A52854  32.141  29.982   7.285
 4144POPC   C1B52855  32.488  30.251   6.083
 4144POPC   C2B52856  32.464  30.340   6.530
 4144POPC   C3B52857  32.454  30.195   6.932
 4144POPC   C4B52858  32.542  30.306   7.346
 4145POPC   NC352859  11.468  20.350   5.260
 4145POPC   PO452860  11.275  21.023   5.262
 4145POPC   GL152861  11.209  20.890   5.712
 4145POPC   GL252862  11.229  20.519   5.710
 4145POPC   C1A52863  11.255  20.831   6.182
 4145POPC   D2A52864  11.544  20.840   6.560
 4145POPC   C3A52865  11.315  20.836   6.930
 4145POPC   C4A52866  11.520  20.836   7.325
 4145POPC   C1B52867  11.457  20.229   5.976
 4145POPC   C2B52868  11.442  20.076   6.423
 4145POPC   C3B52869  11.371  20.324   6.804
 4145POPC   C4B52870  11.406  20.258   7.247
 4146POPC   NC352871   0.786  41.593   5.463
 4146POPC   PO452872   0.660  42.220   5.251
 4146POPC   GL152873   0.528  41.943   5.700
 4146POPC   GL252874   0.496  41.549   5.877
 4146POPC   C1A52875   0.402  41.948   6.151
 4146POPC   D2A52876   0.645  41.666   6.441
 4146POPC   C3A52877   0.550  41.669   6.881
 4146POPC   C4A52878   0.712  41.436   7.212
 4146POPC   C1B52879   0.356  41.255   6.236
 4146POPC   C2B52880   0.449  41.189   6.702
 4146POPC   C3B52881   0.209  41.349   7.076
 4146POPC   C4B52882  44.915  41.188   7.354
 4147POPC   NC352883  15.499  36.070   5.455
 4147POPC   PO452884  14.974  36.437   5.293
 4147POPC   GL152885  14.857  36.123   5.720
 4147POPC   GL252886  15.039  35.780   5.756
 4147POPC   C1A52887  14.833  35.962   6.208
 4147POPC   D2A52888  14.761  35.933   6.693
 4147POPC   C3A52889  15.063  36.097   7.007
 4147POPC   C4A52890  15.359  36.190   7.393
 4147POPC   C1B52891  15.347  35.830   6.121
 4147POPC   C2B52892  15.359  35.815   6.601
 4147POPC   C3B52893  15.491  35.803   7.064
 4147POPC   C4B52894  15.576  35.752   7.553
 4148POPC   NC352895  27.283  29.708   5.028
 4148POPC   PO452896  26.726  29.974   5.417
 4148POPC   GL152897  26.771  29.994   5.861
 4148POPC   GL252898  27.006  30.277   5.870
 4148POPC   C1A52899  26.717  29.744   6.267
 4148POPC   D2A52900  26.564  29.544   6.668
 4148POPC   C3A52901  26.749  29.669   7.068
 4148POPC   C4A52902  26.919  29.951   7.381
 4148POPC   C1B52903  26.814  30.287   6.269
 4148POPC   C2B52904  26.904  30.133   6.659
 4148POPC   C3B52905  27.128  30.222   7.004
 4148POPC   C4B52906  26.925  30.446   7.282
 4149POPC   NC352907   9.913   2.236   5.523
 4149POPC   PO452908   9.444   1.771   5.248
 4149POPC   GL152909   9.523   1.787   5.721
 4149POPC   GL252910   9.883   1.736   5.764
 4149POPC   C1A52911   9.586   2.009   6.157
 4149POPC   D2A52912   9.872   2.093   6.545
 4149POPC   C3A52913   9.800   2.306   6.953
 4149POPC   C4A52914   9.508   2.123   7.276
 4149POPC   C1B52915  10.069   1.762   6.197
 4149POPC   C2B52916  10.121   1.657   6.671
 4149POPC   C3B52917   9.865   1.803   7.050
 4149POPC   C4B52918   9.873   1.813   7.522
 4150POPC   NC352919   4.496  28.655   5.579
 4150POPC   PO452920   3.902  28.309   5.307
 4150POPC   GL152921   4.090  28.392   5.735
 4150POPC   GL252922   4.386  28.238   5.836
 4150POPC   C1A52923   4.209  28.601   6.159
 4150POPC   D2A52924   4.256  28.363   6.533
 4150POPC   C3A52925   4.247  28.624   6.866
 4150POPC   C4A52926   4.219  28.792   7.268
 4150POPC   C1B52927   4.657  28.273   6.215
 4150POPC   C2B52928   4.736  28.510   6.614
 4150POPC   C3B52929   4.677  28.350   7.033
 4150POPC   C4B52930   4.683  27.942   7.217
 4151POPC   NC352931  36.716  31.641   4.950
 4151POPC   PO452932  36.235  31.426   5.435
 4151POPC   GL152933  36.206  31.250   5.822
 4151POPC   GL252934  36.537  31.130   5.851
 4151POPC   C1A52935  36.193  31.103   6.241
 4151POPC   D2A52936  36.226  31.340   6.637
 4151POPC   C3A52937  35.901  31.166   6.937
 4151POPC   C4A52938  35.757  31.243   7.351
 4151POPC   C1B52939  36.536  31.472   6.157
 4151POPC   C2B52940  36.675  31.649   6.544
 4151POPC   C3B52941  36.471  31.705   6.917
 4151POPC   C4B52942  36.215  31.478   7.192
 4152POPC   NC352943  21.329  40.306   5.403
 4152POPC   PO452944  21.152  40.951   5.482
 4152POPC   GL152945  21.337  40.742   5.813
 4152POPC   GL252946  21.636  40.942   5.825
 4152POPC   C1A52947  21.490  40.645   6.236
 4152POPC   D2A52948  21.665  40.917   6.543
 4152POPC   C3A52949  21.746  40.707   6.930
 4152POPC   C4A52950  21.506  40.493   7.230
 4152POPC   C1B52951  21.420  41.186   6.132
 4152POPC   C2B52952  21.320  41.356   6.521
 4152POPC   C3B52953  21.448  41.217   6.907
 4152POPC   C4B52954  21.385  40.972   7.263
 4153POPC   NC352955  19.885  34.211   5.617
 4153POPC   PO452956  19.503  33.626   5.549
 4153POPC   GL152957  19.838  33.720   5.811
 4153POPC   GL252958  19.608  33.924   5.984
 4153POPC   C1A52959  20.024  33.737   6.199
 4153POPC   D2A52960  19.807  33.630   6.580
 4153POPC   C3A52961  19.976  33.686   6.971
 4153POPC   C4A52962  20.189  33.771   7.325
 4153POPC   C1B52963  19.708  34.109   6.399
 4153POPC   C2B52964  19.474  34.060   6.792
 4153POPC   C3B52965  19.313  33.802   7.166
 4153POPC   C4B52966  19.347  33.912   7.610
 4154POPC   NC352967  18.887  29.634   5.264
 4154POPC   PO452968  19.335  30.027   5.479
 4154POPC   GL152969  19.165  30.219   5.835
 4154POPC   GL252970  18.939  29.935   5.860
 4154POPC   C1A52971  19.010  30.228   6.275
 4154POPC   D2A52972  18.835  29.975   6.625
 4154POPC   C3A52973  18.979  30.154   7.034
 4154POPC   C4A52974  19.078  30.065   7.471
 4154POPC   C1B52975  19.323  29.854   6.146
 4154POPC   C2B52976  19.343  29.992   6.602
 4154POPC   C3B52977  19.378  29.777   7.023
 4154POPC   C4B52978  19.759  29.547   7.172
 4155POPC   NC352979  36.944  18.181   5.289
 4155POPC   PO452980  37.191  18.763   5.574
 4155POPC   GL152981  36.935  18.412   5.771
 4155POPC   GL252982  36.641  18.155   5.705
 4155POPC   C1A52983  36.922  18.147   6.129
 4155POPC   D2A52984  37.084  17.951   6.483
 4155POPC   C3A52985  36.924  18.096   6.876
 4155POPC   C4A52986  37.040  18.192   7.290
 4155POPC   C1B52987  36.413  18.149   6.105
 4155POPC   C2B52988  36.345  18.164   6.545
 4155POPC   C3B52989  36.425  18.067   6.975
 4155POPC   C4B52990  36.552  18.274   7.368
 4156POPC   NC352991  22.781  11.034   5.357
 4156POPC   PO452992  22.888  11.626   5.516
 4156POPC   GL152993  22.865  11.256   5.827
 4156POPC   GL252994  23.090  10.981   5.852
 4156POPC   C1A52995  22.716  11.096   6.225
 4156POPC   D2A52996  22.870  11.217   6.615
 4156POPC   C3A52997  22.771  11.013   6.969
 4156POPC   C4A52998  22.625  11.194   7.323
 4156POPC   C1B52999  23.228  11.241   6.224
 4156POPC   C2B53000  23.348  11.385   6.657
 4156POPC   C3B53001  23.223  11.233   7.064
 4156POPC   C4B53002  23.063  11.437   7.447
 4157POPC   NC353003   0.767  24.477   5.326
 4157POPC   PO453004   0.158  24.206   5.264
 4157POPC   GL153005   0.430  24.269   5.685
 4157POPC   GL253006   0.793  24.398   5.829
 4157POPC   C1A53007   0.319  24.477   6.086
 4157POPC   D2A53008   0.311  24.378   6.536
 4157POPC   C3A53009   0.311  24.703   6.840
 4157POPC   C4A53010   0.217  24.602   7.246
 4157POPC   C1B53011   0.767  24.334   6.275
 4157POPC   C2B53012   0.780  24.523   6.701
 4157POPC   C3B53013   0.667  24.416   7.133
 4157POPC   C4B53014   0.751  24.649   7.506
 4158POPC   NC353015  16.675  25.441   5.260
 4158POPC   PO453016  16.437  24.799   5.346
 4158POPC   GL153017  16.545  25.067   5.732
 4158POPC   GL253018  16.847  25.273   5.736
 4158POPC   C1A53019  16.647  25.119   6.188
 4158POPC   D2A53020  16.428  25.170   6.581
 4158POPC   C3A53021  16.736  25.065   6.905
 4158POPC   C4A53022  16.692  25.287   7.288
 4158POPC   C1B53023  17.132  25.357   6.109
 4158POPC   C2B53024  17.293  25.358   6.554
 4158POPC   C3B53025  17.134  25.389   6.971
 4158POPC   C4B53026  17.152  25.055   7.276
 4159POPC   NC353027  34.493  12.426   5.344
 4159POPC   PO453028  34.527  13.074   5.183
 4159POPC   GL153029  34.643  12.923   5.631
 4159POPC   GL253030  34.404  13.132   5.847
 4159POPC   C1A53031  34.795  12.897   6.095
 4159POPC   D2A53032  34.563  12.869   6.537
 4159POPC   C3A53033  34.749  12.874   6.978
 4159POPC   C4A53034  34.866  12.501   7.219
 4159POPC   C1B53035  34.533  13.313   6.279
 4159POPC   C2B53036  34.584  13.349   6.771
 4159POPC   C3B53037  34.388  13.208   7.174
 4159POPC   C4B53038  34.468  13.210   7.657
 4160POPC   NC353039  28.674   3.731   5.354
 4160POPC   PO453040  27.997   3.479   5.467
 4160POPC   GL153041  28.239   3.530   5.804
 4160POPC   GL253042  28.577   3.453   5.789
 4160POPC   C1A53043  28.337   3.421   6.231
 4160POPC   D2A53044  28.614   3.485   6.572
 4160POPC   C3A53045  28.528   3.279   6.941
 4160POPC   C4A53046  28.294   3.512   7.199
 4160POPC   C1B53047  28.729   3.760   6.132
 4160POPC   C2B53048  28.870   3.927   6.559
 4160POPC   C3B53049  28.725   3.767   7.005
 4160POPC   C4B53050  28.665   3.770   7.492
 4161POPC   NC353051  33.702  35.281   5.435
 4161POPC   PO453052  34.158  35.674   5.496
 4161POPC   GL153053  34.060  35.378   5.826
 4161POPC   GL253054  33.706  35.310   5.931
 4161POPC   C1A53055  34.002  35.556   6.266
 4161POPC   D2A53056  33.720  35.721   6.597
 4161POPC   C3A53057  33.847  35.570   6.998
 4161POPC   C4A53058  33.945  35.720   7.420
 4161POPC   C1B53059  33.562  35.263   6.332
 4161POPC   C2B53060  33.599  35.044   6.691
 4161POPC   C3B53061  33.419  35.266   7.008
 4161POPC   C4B53062  33.502  35.480   7.388
 4162POPC   NC353063  23.593  28.589   5.421
 4162POPC   PO453064  23.998  28.083   5.197
 4162POPC   GL153065  23.883  28.239   5.690
 4162POPC   GL253066  23.722  28.560   5.903
 4162POPC   C1A53067  23.842  28.162   6.163
 4162POPC   D2A53068  23.927  28.350   6.559
 4162POPC   C3A53069  23.706  28.169   6.907
 4162POPC   C4A53070  23.566  28.246   7.326
 4162POPC   C1B53071  24.064  28.690   6.195
 4162POPC   C2B53072  24.103  28.910   6.583
 4162POPC   C3B53073  24.084  28.655   6.924
 4162POPC   C4B53074  24.208  28.709   7.317
 4163POPC   NC353075  33.014  20.877   5.161
 4163POPC   PO453076  33.445  20.394   5.414
 4163POPC   GL153077  33.072  20.410   5.694
 4163POPC   GL253078  32.842  20.716   5.743
 4163POPC   C1A53079  33.068  20.436   6.143
 4163POPC   D2A53080  33.120  20.674   6.500
 4163POPC   C3A53081  33.040  20.516   6.906
 4163POPC   C4A53082  33.255  20.661   7.212
 4163POPC   C1B53083  32.671  20.773   6.194
 4163POPC   C2B53084  32.651  20.734   6.694
 4163POPC   C3B53085  32.722  20.833   7.164
 4163POPC   C4B53086  32.534  20.716   7.558
 4164POPC   NC353087  34.175  40.737   5.131
 4164POPC   PO453088  33.619  40.781   5.381
 4164POPC   GL153089  33.888  40.617   5.669
 4164POPC   GL253090  33.681  40.425   5.897
 4164POPC   C1A53091  33.923  40.847   6.065
 4164POPC   D2A53092  33.777  40.696   6.441
 4164POPC   C3A53093  33.777  40.820   6.880
 4164POPC   C4A53094  33.437  40.939   7.166
 4164POPC   C1B53095  34.098  40.370   6.079
 4164POPC   C2B53096  34.071  40.283   6.501
 4164POPC   C3B53097  34.164  40.471   6.887
 4164POPC   C4B53098  33.994  40.474   7.288
 4165POPC   NC353099  22.702   8.059   5.494
 4165POPC   PO453100  23.095   8.635   5.590
 4165POPC   GL153101  22.973   8.321   5.829
 4165POPC   GL253102  22.621   8.411   5.924
 4165POPC   C1A53103  22.994   8.226   6.218
 4165POPC   D2A53104  22.742   8.273   6.557
 4165POPC   C3A53105  22.899   7.967   6.814
 4165POPC   C4A53106  22.978   7.836   7.236
 4165POPC   C1B53107  22.830   8.714   6.222
 4165POPC   C2B53108  23.079   8.726   6.601
 4165POPC   C3B53109  23.219   8.446   6.914
 4165POPC   C4B53110  22.901   8.329   7.168
 4166POPC   NC353111   7.618  20.834   5.594
 4166POPC   PO453112   7.419  20.251   5.758
 4166POPC   GL153113   7.272  20.626   5.926
 4166POPC   GL253114   7.033  20.473   6.120
 4166POPC   C1A53115   7.462  20.812   6.267
 4166POPC   D2A53116   7.688  20.800   6.667
 4166POPC   C3A53117   7.453  20.895   7.059
 4166POPC   C4A53118   7.463  20.861   7.527
 4166POPC   C1B53119   7.329  20.309   6.408
 4166POPC   C2B53120   7.379  20.423   6.808
 4166POPC   C3B53121   7.329  20.357   7.212
 4166POPC   C4B53122   7.623  20.061   7.272
 4167POPC   NC353123   3.436  25.409   5.447
 4167POPC   PO453124   4.046  25.038   5.373
 4167POPC   GL153125   3.765  25.157   5.766
 4167POPC   GL253126   3.781  25.518   5.816
 4167POPC   C1A53127   3.463  25.262   6.157
 4167POPC   D2A53128   3.215  25.101   6.527
 4167POPC   C3A53129   3.121  25.249   6.952
 4167POPC   C4A53130   3.405  25.072   7.253
 4167POPC   C1B53131   3.928  25.439   6.222
 4167POPC   C2B53132   3.741  25.360   6.614
 4167POPC   C3B53133   3.578  25.477   7.010
 4167POPC   C4B53134   3.718  25.419   7.441
 4168POPC   NC353135  44.923  26.957   5.497
 4168POPC   PO453136  44.726  26.290   5.256
 4168POPC   GL153137  44.754  26.509   5.688
 4168POPC   GL253138  44.488  26.745   5.813
 4168POPC   C1A53139  44.734  26.492   6.165
 4168POPC   D2A53140  44.829  26.518   6.584
 4168POPC   C3A53141  44.548  26.690   6.886
 4168POPC   C4A53142  44.470  26.821   7.294
 4168POPC   C1B53143  44.636  26.995   6.205
 4168POPC   C2B53144  44.820  27.063   6.642
 4168POPC   C3B53145  44.776  27.174   7.093
 4168POPC   C4B53146  44.781  27.134   7.577
 4169POPC   NC353147  23.095  37.373   5.129
 4169POPC   PO453148  22.705  37.918   5.381
 4169POPC   GL153149  22.971  37.875   5.744
 4169POPC   GL253150  23.314  37.819   5.585
 4169POPC   C1A53151  22.931  37.695   6.172
 4169POPC   D2A53152  22.745  37.411   6.515
 4169POPC   C3A53153  22.875  37.428   6.952
 4169POPC   C4A53154  23.026  37.848   7.034
 4169POPC   C1B53155  23.408  37.591   5.989
 4169POPC   C2B53156  23.279  37.420   6.430
 4169POPC   C3B53157  23.398  37.483   6.872
 4169POPC   C4B53158  23.288  37.520   7.318
 4170POPC   NC353159   6.658  27.922   5.500
 4170POPC   PO453160   6.649  27.171   5.461
 4170POPC   GL153161   6.587  27.473   5.772
 4170POPC   GL253162   6.860  27.357   5.892
 4170POPC   C1A53163   6.451  27.697   6.161
 4170POPC   D2A53164   6.661  27.808   6.585
 4170POPC   C3A53165   6.633  27.522   6.956
 4170POPC   C4A53166   6.561  27.521   7.405
 4170POPC   C1B53167   6.936  27.560   6.241
 4170POPC   C2B53168   7.074  27.486   6.655
 4170POPC   C3B53169   7.209  27.313   7.020
 4170POPC   C4B53170   7.004  27.176   7.401
 4171POPC   NC353171  18.379  36.602   5.569
 4171POPC   PO453172  18.120  37.151   5.534
 4171POPC   GL153173  18.015  37.096   5.920
 4171POPC   GL253174  18.287  36.858   5.983
 4171POPC   C1A53175  18.044  37.061   6.360
 4171POPC   D2A53176  18.216  36.744   6.604
 4171POPC   C3A53177  18.190  37.012   6.936
 4171POPC   C4A53178  18.254  37.217   7.313
 4171POPC   C1B53179  18.543  36.581   6.219
 4171POPC   C2B53180  18.746  36.666   6.627
 4171POPC   C3B53181  18.495  36.610   7.018
 4171POPC   C4B53182  18.180  36.675   7.311
 4172POPC   NC353183  34.793   8.606   5.366
 4172POPC   PO453184  34.285   9.106   5.486
 4172POPC   GL153185  34.534   8.929   5.748
 4172POPC   GL253186  34.511   8.576   5.796
 4172POPC   C1A53187  34.676   9.035   6.124
 4172POPC   D2A53188  34.610   8.932   6.536
 4172POPC   C3A53189  34.900   9.096   6.825
 4172POPC   C4A53190  34.675   9.010   7.191
 4172POPC   C1B53191  34.728   8.518   6.169
 4172POPC   C2B53192  34.853   8.474   6.585
 4172POPC   C3B53193  34.897   8.604   7.003
 4172POPC   C4B53194  34.875   8.652   7.485
 4173POPC   NC353195   8.549   0.912   5.475
 4173POPC   PO453196   7.821   1.282   5.524
 4173POPC   GL153197   7.901   1.228   5.888
 4173POPC   GL253198   8.226   1.119   5.823
 4173POPC   C1A53199   7.913   1.544   6.196
 4173POPC   D2A53200   8.119   1.569   6.601
 4173POPC   C3A53201   8.062   1.293   6.913
 4173POPC   C4A53202   7.967   1.357   7.294
 4173POPC   C1B53203   8.350   1.282   6.231
 4173POPC   C2B53204   8.583   1.347   6.626
 4173POPC   C3B53205   8.543   1.264   7.060
 4173POPC   C4B53206   8.303   0.937   7.250
 4174POPC   NC353207  35.300  28.559   5.186
 4174POPC   PO453208  35.201  28.030   5.588
 4174POPC   GL153209  35.165  28.472   5.674
 4174POPC   GL253210  35.503  28.651   5.680
 4174POPC   C1A53211  35.218  28.544   6.103
 4174POPC   D2A53212  35.120  28.379   6.479
 4174POPC   C3A53213  35.092  28.679   6.778
 4174POPC   C4A53214  35.099  28.372   7.081
 4174POPC   C1B53215  35.646  28.809   6.101
 4174POPC   C2B53216  35.597  28.572   6.501
 4174POPC   C3B53217  35.572  28.518   6.943
 4174POPC   C4B53218  35.454  28.824   7.258
 4175POPC   NC353219  29.369  19.335   5.429
 4175POPC   PO453220  28.889  18.846   5.460
 4175POPC   GL153221  29.055  19.102   5.835
 4175POPC   GL253222  29.415  19.039   5.849
 4175POPC   C1A53223  29.157  18.872   6.272
 4175POPC   D2A53224  29.232  18.587   6.631
 4175POPC   C3A53225  29.190  18.877   6.974
 4175POPC   C4A53226  28.881  19.188   7.093
 4175POPC   C1B53227  29.380  19.318   6.219
 4175POPC   C2B53228  29.160  19.281   6.622
 4175POPC   C3B53229  29.315  19.442   6.996
 4175POPC   C4B53230  29.047  19.733   7.193
 4176POPC   NC353231   0.643  21.383   5.431
 4176POPC   PO453232   0.020  21.575   5.314
 4176POPC   GL153233   0.255  21.667   5.722
 4176POPC   GL253234   0.420  21.390   5.878
 4176POPC   C1A53235   0.381  21.794   6.180
 4176POPC   D2A53236   0.293  21.690   6.630
 4176POPC   C3A53237   0.541  21.561   7.004
 4176POPC   C4A53238   0.403  21.217   7.300
 4176POPC   C1B53239   0.689  21.399   6.164
 4176POPC   C2B53240   0.702  21.282   6.564
 4176POPC   C3B53241   0.768  21.083   6.920
 4176POPC   C4B53242   0.887  21.271   7.269
 4177POPC   NC353243  36.152  32.559   5.303
 4177POPC   PO453244  36.650  32.060   5.139
 4177POPC   GL153245  36.366  32.157   5.619
 4177POPC   GL253246  36.256  31.822   5.827
 4177POPC   C1A53247  36.131  32.240   6.079
 4177POPC   D2A53248  35.972  32.418   6.451
 4177POPC   C3A53249  35.863  32.141   6.801
 4177POPC   C4A53250  35.930  32.203   7.216
 4177POPC   C1B53251  36.544  31.976   6.165
 4177POPC   C2B53252  36.342  32.075   6.556
 4177POPC   C3B53253  36.391  32.210   6.973
 4177POPC   C4B53254  36.339  31.956   7.362
 4178POPC   NC353255  42.979  34.787   5.479
 4178POPC   PO453256  43.503  34.458   5.379
 4178POPC   GL153257  43.395  34.691   5.745
 4178POPC   GL253258  43.175  34.408   5.784
 4178POPC   C1A53259  43.160  34.738   6.150
 4178POPC   D2A53260  43.157  34.457   6.479
 4178POPC   C3A53261  43.206  34.594   6.912
 4178POPC   C4A53262  43.554  34.550   7.182
 4178POPC   C1B53263  42.869  34.253   6.081
 4178POPC   C2B53264  42.815  34.079   6.481
 4178POPC   C3B53265  42.935  34.112   6.933
 4178POPC   C4B53266  42.951  34.377   7.323
 4179POPC   NC353267  17.109  15.075   5.431
 4179POPC   PO453268  16.712  15.540   5.418
 4179POPC   GL153269  16.998  15.435   5.817
 4179POPC   GL253270  16.947  15.053   5.893
 4179POPC   C1A53271  16.892  15.344   6.289
 4179POPC   D2A53272  16.604  15.019   6.433
 4179POPC   C3A53273  16.532  14.977   6.868
 4179POPC   C4A53274  16.534  15.222   7.232
 4179POPC   C1B53275  17.100  14.735   6.148
 4179POPC   C2B53276  16.975  14.673   6.551
 4179POPC   C3B53277  17.046  14.930   6.881
 4179POPC   C4B53278  16.928  14.851   7.271
 4180POPC   NC353279  43.228  36.512   5.336
 4180POPC   PO453280  42.997  35.893   5.553
 4180POPC   GL153281  43.229  36.261   5.781
 4180POPC   GL253282  42.916  36.486   5.768
 4180POPC   C1A53283  43.497  36.264   6.179
 4180POPC   D2A53284  43.438  35.938   6.548
 4180POPC   C3A53285  43.347  36.077   6.999
 4180POPC   C4A53286  43.094  36.117   7.412
 4180POPC   C1B53287  42.881  36.232   6.174
 4180POPC   C2B53288  42.833  36.043   6.602
 4180POPC   C3B53289  42.819  36.229   7.007
 4180POPC   C4B53290  42.577  36.565   7.176
 4181POPC   NC353291   3.921  12.452   5.655
 4181POPC   PO453292   3.799  12.888   5.189
 4181POPC   GL153293   3.665  12.915   5.716
 4181POPC   GL253294   3.596  12.641   5.969
 4181POPC   C1A53295   3.539  13.052   6.217
 4181POPC   D2A53296   3.534  12.798   6.619
 4181POPC   C3A53297   3.662  12.915   7.070
 4181POPC   C4A53298   3.823  12.550   7.326
 4181POPC   C1B53299   3.252  12.593   6.223
 4181POPC   C2B53300   3.170  12.437   6.625
 4181POPC   C3B53301   3.289  12.586   7.016
 4181POPC   C4B53302   3.323  12.710   7.432
 4182POPC   NC353303  39.392  18.545   5.459
 4182POPC   PO453304  38.838  18.081   5.449
 4182POPC   GL153305  39.070  18.303   5.804
 4182POPC   GL253306  39.444  18.226   5.874
 4182POPC   C1A53307  38.962  18.217   6.238
 4182POPC   D2A53308  39.099  18.246   6.665
 4182POPC   C3A53309  38.918  17.975   7.005
 4182POPC   C4A53310  38.921  17.969   7.453
 4182POPC   C1B53311  39.533  18.167   6.312
 4182POPC   C2B53312  39.605  18.338   6.711
 4182POPC   C3B53313  39.340  18.429   7.069
 4182POPC   C4B53314  39.335  18.243   7.434
 4183POPC   NC353315  34.688  17.224   5.531
 4183POPC   PO453316  34.919  17.690   5.069
 4183POPC   GL153317  34.670  17.717   5.586
 4183POPC   GL253318  34.317  17.481   5.746
 4183POPC   C1A53319  34.574  17.799   6.051
 4183POPC   D2A53320  34.483  17.540   6.435
 4183POPC   C3A53321  34.438  17.704   6.850
 4183POPC   C4A53322  34.771  17.666   7.132
 4183POPC   C1B53323  34.203  17.235   6.138
 4183POPC   C2B53324  34.105  17.206   6.617
 4183POPC   C3B53325  34.246  17.206   7.091
 4183POPC   C4B53326  34.206  17.161   7.585
 4184POPC   NC353327  33.710   2.508   5.538
 4184POPC   PO453328  34.009   1.846   5.465
 4184POPC   GL153329  33.819   1.840   5.874
 4184POPC   GL253330  33.884   2.211   5.934
 4184POPC   C1A53331  33.785   1.887   6.337
 4184POPC   D2A53332  33.510   1.828   6.703
 4184POPC   C3A53333  33.712   1.992   7.045
 4184POPC   C4A53334  34.052   1.831   7.236
 4184POPC   C1B53335  34.138   2.297   6.321
 4184POPC   C2B53336  34.153   2.119   6.752
 4184POPC   C3B53337  34.355   2.222   7.119
 4184POPC   C4B53338  34.075   2.459   7.322
 4185POPC   NC353339  23.398   1.892   5.500
 4185POPC   PO453340  23.899   1.581   5.211
 4185POPC   GL153341  23.891   1.804   5.672
 4185POPC   GL253342  23.613   1.658   5.891
 4185POPC   C1A53343  23.866   2.068   6.077
 4185POPC   D2A53344  23.656   2.089   6.501
 4185POPC   C3A53345  23.827   2.176   6.922
 4185POPC   C4A53346  23.498   2.105   7.212
 4185POPC   C1B53347  23.705   1.620   6.307
 4185POPC   C2B53348  23.792   1.644   6.727
 4185POPC   C3B53349  23.671   1.635   7.114
 4185POPC   C4B53350  23.541   1.685   7.547
 4186POPC   NC353351  40.589  39.969   5.543
 4186POPC   PO453352  41.258  39.803   5.617
 4186POPC   GL153353  41.069  40.156   5.881
 4186POPC   GL253354  40.681  40.286   5.925
 4186POPC   C1A53355  40.975  40.221   6.330
 4186POPC   D2A53356  40.667  40.455   6.609
 4186POPC   C3A53357  40.575  40.185   6.969
 4186POPC   C4A53358  40.942  39.956   7.116
 4186POPC   C1B53359  40.460  39.945   6.184
 4186POPC   C2B53360  40.339  39.690   6.553
 4186POPC   C3B53361  40.512  39.648   6.979
 4186POPC   C4B53362  40.497  39.844   7.378
 4187POPC   NC353363  30.971  19.146   5.399
 4187POPC   PO453364  30.464  19.462   5.444
 4187POPC   GL153365  30.627  19.205   5.809
 4187POPC   GL253366  30.778  18.840   5.767
 4187POPC   C1A53367  30.866  19.128   6.207
 4187POPC   D2A53368  30.973  18.811   6.539
 4187POPC   C3A53369  30.800  18.984   6.921
 4187POPC   C4A53370  30.935  19.385   7.018
 4187POPC   C1B53371  30.591  18.693   6.172
 4187POPC   C2B53372  30.462  18.703   6.595
 4187POPC   C3B53373  30.575  18.535   7.003
 4187POPC   C4B53374  30.410  18.741   7.370
 4188POPC   NC353375  19.523  20.646   5.258
 4188POPC   PO453376  20.059  20.230   5.465
 4188POPC   GL153377  19.711  20.414   5.695
 4188POPC   GL253378  19.870  20.738   5.625
 4188POPC   C1A53379  19.478  20.400   6.126
 4188POPC   D2A53380  19.633  20.284   6.566
 4188POPC   C3A53381  19.421  20.377   6.957
 4188POPC   C4A53382  19.578  20.613   7.294
 4188POPC   C1B53383  19.842  20.760   6.087
 4188POPC   C2B53384  19.929  20.718   6.534
 4188POPC   C3B53385  19.953  20.800   6.986
 4188POPC   C4B53386  20.079  20.642   7.422
 4189POPC   NC353387  43.725  25.707   5.129
 4189POPC   PO453388  44.116  25.400   5.553
 4189POPC   GL153389  43.800  25.334   5.848
 4189POPC   GL253390  43.501  25.575   5.911
 4189POPC   C1A53391  43.883  25.249   6.300
 4189POPC   D2A53392  43.985  25.026   6.667
 4189POPC   C3A53393  43.816  25.166   7.024
 4189POPC   C4A53394  43.988  25.382   7.362
 4189POPC   C1B53395  43.432  25.495   6.292
 4189POPC   C2B53396  43.428  25.341   6.674
 4189POPC   C3B53397  43.510  25.585   7.011
 4189POPC   C4B53398  43.470  25.361   7.348
 4190POPC   NC353399  33.679  14.727   5.370
 4190POPC   PO453400  33.870  15.392   5.424
 4190POPC   GL153401  33.952  15.147   5.794
 4190POPC   GL253402  33.648  14.948   5.831
 4190POPC   C1A53403  34.001  15.140   6.232
 4190POPC   D2A53404  33.748  15.054   6.564
 4190POPC   C3A53405  33.860  15.289   6.924
 4190POPC   C4A53406  33.790  15.144   7.306
 4190POPC   C1B53407  33.965  14.656   6.014
 4190POPC   C2B53408  34.058  14.614   6.472
 4190POPC   C3B53409  34.094  14.806   6.896
 4190POPC   C4B53410  34.259  14.953   7.302
 4191POPC   NC353411  11.105  10.790   5.373
 4191POPC   PO453412  11.713  11.125   5.461
 4191POPC   GL153413  11.548  10.749   5.779
 4191POPC   GL253414  11.253  10.501   5.770
 4191POPC   C1A53415  11.522  10.531   6.216
 4191POPC   D2A53416  11.273  10.635   6.606
 4191POPC   C3A53417  11.353  10.472   7.047
 4191POPC   C4A53418  11.448  10.636   7.494
 4191POPC   C1B53419  11.014  10.598   6.156
 4191POPC   C2B53420  10.816  10.418   6.531
 4191POPC   C3B53421  10.842  10.550   6.956
 4191POPC   C4B53422  10.922  10.441   7.372
 4192POPC   NC353423  28.472   7.235   5.505
 4192POPC   PO453424  28.031   7.702   5.415
 4192POPC   GL153425  28.161   7.535   5.842
 4192POPC   GL253426  28.513   7.532   5.932
 4192POPC   C1A53427  28.075   7.615   6.291
 4192POPC   D2A53428  28.050   7.888   6.667
 4192POPC   C3A53429  28.214   7.611   6.983
 4192POPC   C4A53430  28.310   7.569   7.433
 4192POPC   C1B53431  28.559   7.294   6.323
 4192POPC   C2B53432  28.428   7.112   6.743
 4192POPC   C3B53433  28.578   7.282   7.123
 4192POPC   C4B53434  28.713   7.729   7.142
 4193POPC   NC353435  38.082   2.894   5.197
 4193POPC   PO453436  38.651   2.699   5.453
 4193POPC   GL153437  38.541   2.880   5.806
 4193POPC   GL253438  38.389   3.206   5.678
 4193POPC   C1A53439  38.649   2.711   6.218
 4193POPC   D2A53440  38.933   2.735   6.559
 4193POPC   C3A53441  38.743   2.768   6.956
 4193POPC   C4A53442  38.506   2.525   7.240
 4193POPC   C1B53443  38.398   3.210   6.154
 4193POPC   C2B53444  38.412   3.008   6.580
 4193POPC   C3B53445  38.436   3.163   7.019
 4193POPC   C4B53446  38.528   2.992   7.424
 4194POPC   NC353447  31.433  20.177   5.387
 4194POPC   PO453448  31.236  19.518   5.316
 4194POPC   GL153449  31.281  19.717   5.734
 4194POPC   GL253450  31.160  20.039   5.824
 4194POPC   C1A53451  31.619  19.833   6.051
 4194POPC   D2A53452  31.778  19.972   6.461
 4194POPC   C3A53453  31.634  19.746   6.819
 4194POPC   C4A53454  31.751  19.837   7.230
 4194POPC   C1B53455  31.114  19.828   6.244
 4194POPC   C2B53456  31.105  19.803   6.719
 4194POPC   C3B53457  31.285  20.036   7.075
 4194POPC   C4B53458  31.330  20.060   7.539
 4195POPC   NC353459  39.978  33.373   5.494
 4195POPC   PO453460  40.188  32.745   5.468
 4195POPC   GL153461  39.989  32.975   5.819
 4195POPC   GL253462  39.795  33.312   5.966
 4195POPC   C1A53463  39.908  32.906   6.237
 4195POPC   D2A53464  39.882  33.128   6.609
 4195POPC   C3A53465  39.925  32.875   6.960
 4195POPC   C4A53466  40.021  32.985   7.375
 4195POPC   C1B53467  40.116  33.440   6.250
 4195POPC   C2B53468  40.315  33.594   6.615
 4195POPC   C3B53469  40.145  33.416   7.019
 4195POPC   C4B53470  40.279  33.415   7.475
 4196POPC   NC353471  17.725  10.277   5.472
 4196POPC   PO453472  17.245  10.731   5.288
 4196POPC   GL153473  17.388  10.773   5.750
 4196POPC   GL253474  17.489  10.457   5.897
 4196POPC   C1A53475  17.607  10.837   6.233
 4196POPC   D2A53476  17.485  10.628   6.651
 4196POPC   C3A53477  17.634  10.747   7.066
 4196POPC   C4A53478  17.631  10.707   7.535
 4196POPC   C1B53479  17.600  10.269   6.270
 4196POPC   C2B53480  17.746  10.123   6.654
 4196POPC   C3B53481  17.623  10.206   7.064
 4196POPC   C4B53482  17.939  10.346   7.326
 4197POPC   NC353483  42.570  17.883   5.505
 4197POPC   PO453484  42.295  17.284   5.338
 4197POPC   GL153485  42.388  17.467   5.770
 4197POPC   GL253486  42.082  17.507   5.916
 4197POPC   C1A53487  42.531  17.787   6.143
 4197POPC   D2A53488  42.778  17.755   6.543
 4197POPC   C3A53489  42.555  17.811   6.963
 4197POPC   C4A53490  42.321  17.524   7.258
 4197POPC   C1B53491  42.216  17.424   6.327
 4197POPC   C2B53492  42.254  17.434   6.756
 4197POPC   C3B53493  41.975  17.226   7.071
 4197POPC   C4B53494  41.957  17.286   7.555
 4198POPC   NC353495   2.449  30.883   5.145
 4198POPC   PO453496   2.855  30.383   5.382
 4198POPC   GL153497   2.933  30.532   5.835
 4198POPC   GL253498   2.999  30.904   5.850
 4198POPC   C1A53499   2.989  30.644   6.299
 4198POPC   D2A53500   3.121  30.863   6.655
 4198POPC   C3A53501   2.860  30.685   6.928
 4198POPC   C4A53502   2.582  30.669   7.270
 4198POPC   C1B53503   2.700  31.043   6.185
 4198POPC   C2B53504   2.545  30.903   6.574
 4198POPC   C3B53505   2.550  31.082   6.986
 4198POPC   C4B53506   2.428  31.132   7.410
 4199POPC   NC353507   6.775   1.217   5.379
 4199POPC   PO453508   6.256   0.783   5.368
 4199POPC   GL153509   6.383   1.040   5.796
 4199POPC   GL253510   6.744   1.128   5.865
 4199POPC   C1A53511   6.464   1.211   6.264
 4199POPC   D2A53512   6.588   0.981   6.656
 4199POPC   C3A53513   6.401   1.055   7.102
 4199POPC   C4A53514   6.373   1.245   7.538
 4199POPC   C1B53515   6.960   1.456   6.145
 4199POPC   C2B53516   7.094   1.418   6.581
 4199POPC   C3B53517   6.767   1.391   6.919
 4199POPC   C4B53518   6.770   1.515   7.344
 4200POPC   NC353519  43.634  16.150   5.489
 4200POPC   PO453520  42.995  15.969   5.380
 4200POPC   GL153521  43.167  16.083   5.775
 4200POPC   GL253522  43.313  16.420   5.774
 4200POPC   C1A53523  43.041  15.903   6.169
 4200POPC   D2A53524  42.840  16.029   6.567
 4200POPC   C3A53525  43.080  15.899   6.913
 4200POPC   C4A53526  43.036  15.926   7.343
 4200POPC   C1B53527  43.519  16.243   6.136
 4200POPC   C2B53528  43.359  16.093   6.514
 4200POPC   C3B53529  43.449  16.238   6.881
 4200POPC   C4B53530  43.504  16.140   7.254
 4201POPC   NC353531   1.216  33.431   5.227
 4201POPC   PO453532   0.895  32.995   5.589
 4201POPC   GL153533   1.211  33.112   5.831
 4201POPC   GL253534   1.323  33.445   5.762
 4201POPC   C1A53535   1.188  33.160   6.255
 4201POPC   D2A53536   1.246  32.949   6.632
 4201POPC   C3A53537   1.056  33.075   7.007
 4201POPC   C4A53538   1.256  33.218   7.397
 4201POPC   C1B53539   1.525  33.561   6.140
 4201POPC   C2B53540   1.505  33.446   6.567
 4201POPC   C3B53541   1.544  33.236   6.928
 4201POPC   C4B53542   1.691  33.491   7.223
 4202POPC   NC353543   2.175  24.078   5.033
 4202POPC   PO453544   1.870  24.581   5.414
 4202POPC   GL153545   1.941  24.617   5.832
 4202POPC   GL253546   1.728  24.325   5.856
 4202POPC   C1A53547   2.050  24.556   6.279
 4202POPC   D2A53548   1.915  24.655   6.721
 4202POPC   C3A53549   2.186  24.600   7.076
 4202POPC   C4A53550   2.255  24.462   7.523
 4202POPC   C1B53551   1.801  24.028   6.171
 4202POPC   C2B53552   1.902  24.148   6.576
 4202POPC   C3B53553   1.633  24.248   6.905
 4202POPC   C4B53554   1.495  24.031   7.269
 4203POPC   NC353555  40.295   4.742   5.566
 4203POPC   PO453556  39.872   5.185   5.235
 4203POPC   GL153557  39.959   5.182   5.718
 4203POPC   GL253558  39.811   4.911   5.852
 4203POPC   C1A53559  40.220   5.435   6.072
 4203POPC   D2A53560  40.355   5.668   6.477
 4203POPC   C3A53561  40.166   5.491   6.877
 4203POPC   C4A53562  40.184   5.085   7.079
 4203POPC   C1B53563  39.940   4.749   6.268
 4203POPC   C2B53564  39.916   4.586   6.706
 4203POPC   C3B53565  40.088   4.572   7.098
 4203POPC   C4B53566  39.895   4.804   7.385
 4204POPC   NC353567  42.121  20.935   5.499
 4204POPC   PO453568  42.678  20.507   5.421
 4204POPC   GL153569  42.628  20.391   5.873
 4204POPC   GL253570  42.311  20.606   5.870
 4204POPC   C1A53571  42.473  20.369   6.309
 4204POPC   D2A53572  42.329  20.332   6.719
 4204POPC   C3A53573  42.555  20.590   7.000
 4204POPC   C4A53574  42.539  20.556   7.429
 4204POPC   C1B53575  42.096  20.735   6.247
 4204POPC   C2B53576  42.283  20.854   6.635
 4204POPC   C3B53577  42.160  20.908   7.069
 4204POPC   C4B53578  42.164  20.882   7.541
 4205POPC   NC353579   4.605  34.311   5.212
 4205POPC   PO453580   4.106  34.684   5.465
 4205POPC   GL153581   4.434  34.669   5.786
 4205POPC   GL253582   4.584  34.348   5.739
 4205POPC   C1A53583   4.296  34.734   6.240
 4205POPC   D2A53584   4.054  34.464   6.512
 4205POPC   C3A53585   4.211  34.427   6.924
 4205POPC   C4A53586   4.061  34.569   7.307
 4205POPC   C1B53587   4.275  34.264   6.074
 4205POPC   C2B53588   4.458  34.128   6.470
 4205POPC   C3B53589   4.567  34.065   6.896
 4205POPC   C4B53590   4.501  34.222   7.339
 4206POPC   NC353591   0.951  17.356   5.488
 4206POPC   PO453592   1.593  17.254   5.334
 4206POPC   GL153593   1.406  17.563   5.675
 4206POPC   GL253594   1.066  17.717   5.809
 4206POPC   C1A53595   1.444  17.583   6.145
 4206POPC   D2A53596   1.251  17.411   6.516
 4206POPC   C3A53597   1.104  17.637   6.853
 4206POPC   C4A53598   1.216  17.545   7.266
 4206POPC   C1B53599   0.885  17.467   6.172
 4206POPC   C2B53600   0.726  17.338   6.598
 4206POPC   C3B53601   0.830  17.230   6.992
 4206POPC   C4B53602   0.734  17.372   7.357
 4207POPC   NC353603  42.525  42.655   5.439
 4207POPC   PO453604  41.975  42.240   5.468
 4207POPC   GL153605  42.344  42.263   5.755
 4207POPC   GL253606  42.290  42.588   5.918
 4207POPC   C1A53607  42.594  42.214   6.162
 4207POPC   D2A53608  42.546  42.380   6.613
 4207POPC   C3A53609  42.438  42.149   7.017
 4207POPC   C4A53610  42.586  42.263   7.438
 4207POPC   C1B53611  42.086  42.259   6.209
 4207POPC   C2B53612  42.093  42.090   6.625
 4207POPC   C3B53613  41.917  42.188   7.031
 4207POPC   C4B53614  42.097  42.370   7.409
 4208POPC   NC353615  29.457   6.026   5.458
 4208POPC   PO453616  28.961   5.661   5.587
 4208POPC   GL153617  29.214   5.858   5.883
 4208POPC   GL253618  29.496   5.609   5.813
 4208POPC   C1A53619  29.129   6.023   6.306
 4208POPC   D2A53620  29.329   6.146   6.683
 4208POPC   C3A53621  29.080   6.028   7.070
 4208POPC   C4A53622  28.783   5.724   7.265
 4208POPC   C1B53623  29.459   5.640   6.272
 4208POPC   C2B53624  29.176   5.503   6.591
 4208POPC   C3B53625  29.204   5.511   7.046
 4208POPC   C4B53626  29.073   5.340   7.444
 4209POPC   NC353627  27.347  42.988   5.328
 4209POPC   PO453628  27.770  42.471   5.375
 4209POPC   GL153629  27.905  42.513   5.813
 4209POPC   GL253630  27.653  42.275   5.876
 4209POPC   C1A53631  27.848  42.470   6.299
 4209POPC   D2A53632  27.691  42.333   6.689
 4209POPC   C3A53633  27.805  42.490   7.080
 4209POPC   C4A53634  27.747  42.375   7.513
 4209POPC   C1B53635  27.471  42.111   6.280
 4209POPC   C2B53636  27.327  41.977   6.703
 4209POPC   C3B53637  27.409  42.154   7.102
 4209POPC   C4B53638  27.465  41.936   7.474
 4210POPC   NC353639  40.409  12.862   5.329
 4210POPC   PO453640  41.017  13.110   5.431
 4210POPC   GL153641  40.822  12.956   5.784
 4210POPC   GL253642  40.703  12.624   5.733
 4210POPC   C1A53643  41.053  12.922   6.148
 4210POPC   D2A53644  41.041  12.798   6.560
 4210POPC   C3A53645  41.009  13.140   6.826
 4210POPC   C4A53646  40.955  13.191   7.238
 4210POPC   C1B53647  40.817  12.458   6.181
 4210POPC   C2B53648  40.616  12.509   6.603
 4210POPC   C3B53649  40.725  12.706   7.011
 4210POPC   C4B53650  40.608  12.876   7.426
 4211POPC   NC353651  16.965   1.711   5.079
 4211POPC   PO453652  16.643   1.194   5.396
 4211POPC   GL153653  16.965   1.166   5.721
 4211POPC   GL253654  16.718   1.292   5.907
 4211POPC   C1A53655  17.071   1.120   6.206
 4211POPC   D2A53656  16.807   1.057   6.620
 4211POPC   C3A53657  16.982   1.129   7.060
 4211POPC   C4A53658  16.838   1.243   7.504
 4211POPC   C1B53659  16.510   0.978   6.167
 4211POPC   C2B53660  16.235   1.058   6.541
 4211POPC   C3B53661  16.240   0.915   6.982
 4211POPC   C4B53662  16.603   0.844   7.211
 4212POPC   NC353663  15.044  19.063   5.340
 4212POPC   PO453664  15.569  18.797   5.533
 4212POPC   GL153665  15.425  19.181   5.738
 4212POPC   GL253666  15.060  19.150   5.854
 4212POPC   C1A53667  15.455  19.156   6.189
 4212POPC   D2A53668  15.220  19.096   6.587
 4212POPC   C3A53669  15.438  19.166   6.936
 4212POPC   C4A53670  15.422  18.914   7.283
 4212POPC   C1B53671  14.836  19.154   6.269
 4212POPC   C2B53672  14.762  18.813   6.558
 4212POPC   C3B53673  14.978  18.757   6.943
 4212POPC   C4B53674  14.972  19.107   7.190
 4213POPC   NC353675  17.141   8.691   5.462
 4213POPC   PO453676  17.476   8.140   5.501
 4213POPC   GL153677  17.618   8.335   5.847
 4213POPC   GL253678  17.814   8.643   5.814
 4213POPC   C1A53679  17.459   8.146   6.232
 4213POPC   D2A53680  17.443   7.775   6.491
 4213POPC   C3A53681  17.507   7.937   6.888
 4213POPC   C4A53682  17.262   8.215   7.118
 4213POPC   C1B53683  17.531   8.656   6.224
 4213POPC   C2B53684  17.491   8.471   6.653
 4213POPC   C3B53685  17.766   8.379   6.994
 4213POPC   C4B53686  17.804   8.403   7.422
 4214POPC   NC353687  15.357  22.035   5.302
 4214POPC   PO453688  14.956  22.434   5.418
 4214POPC   GL153689  15.162  22.262   5.760
 4214POPC   GL253690  15.110  21.891   5.764
 4214POPC   C1A53691  15.312  22.422   6.159
 4214POPC   D2A53692  15.493  22.321   6.563
 4214POPC   C3A53693  15.334  22.331   6.951
 4214POPC   C4A53694  15.171  22.540   7.273
 4214POPC   C1B53695  14.980  21.976   6.215
 4214POPC   C2B53696  15.070  21.967   6.672
 4214POPC   C3B53697  15.170  21.855   7.117
 4214POPC   C4B53698  15.352  22.067   7.514
 4215POPC   NC353699  20.269  19.589   5.418
 4215POPC   PO453700  20.008  19.015   5.199
 4215POPC   GL153701  19.987  19.191   5.633
 4215POPC   GL253702  20.228  18.923   5.737
 4215POPC   C1A53703  19.751  19.362   6.040
 4215POPC   D2A53704  19.825  19.280   6.492
 4215POPC   C3A53705  19.581  19.239   6.866
 4215POPC   C4A53706  19.577  19.424   7.268
 4215POPC   C1B53707  20.192  19.115   6.139
 4215POPC   C2B53708  20.256  18.997   6.571
 4215POPC   C3B53709  20.085  19.119   6.977
 4215POPC   C4B53710  20.243  18.852   7.338
 4216POPC   NC353711  32.368  17.635   5.425
 4216POPC   PO453712  31.758  17.131   5.352
 4216POPC   GL153713  32.002  17.371   5.714
 4216POPC   GL253714  32.363  17.477   5.907
 4216POPC   C1A53715  31.921  17.372   6.146
 4216POPC   D2A53716  32.141  17.210   6.502
 4216POPC   C3A53717  32.072  17.329   6.930
 4216POPC   C4A53718  32.409  17.374   7.234
 4216POPC   C1B53719  32.329  17.664   6.283
 4216POPC   C2B53720  32.062  17.766   6.595
 4216POPC   C3B53721  32.249  17.808   6.991
 4216POPC   C4B53722  32.018  17.825   7.359
 4217POPC   NC353723  31.754  15.938   5.390
 4217POPC   PO453724  31.275  15.505   5.458
 4217POPC   GL153725  31.426  15.761   5.743
 4217POPC   GL253726  31.555  15.514   5.941
 4217POPC   C1A53727  31.485  16.062   6.062
 4217POPC   D2A53728  31.258  16.058   6.462
 4217POPC   C3A53729  31.470  16.088   6.845
 4217POPC   C4A53730  31.429  16.230   7.262
 4217POPC   C1B53731  31.567  15.657   6.361
 4217POPC   C2B53732  31.556  15.597   6.771
 4217POPC   C3B53733  31.403  15.665   7.146
 4217POPC   C4B53734  31.598  15.622   7.528
 4218POPC   NC353735  34.250  16.581   5.375
 4218POPC   PO453736  34.916  16.793   5.331
 4218POPC   GL153737  34.589  16.774   5.727
 4218POPC   GL253738  34.473  16.460   5.819
 4218POPC   C1A53739  34.560  16.837   6.207
 4218POPC   D2A53740  34.573  17.019   6.635
 4218POPC   C3A53741  34.503  16.762   6.989
 4218POPC   C4A53742  34.615  16.883   7.414
 4218POPC   C1B53743  34.413  16.324   6.214
 4218POPC   C2B53744  34.573  16.395   6.612
 4218POPC   C3B53745  34.504  16.228   7.000
 4218POPC   C4B53746  34.489  16.408   7.390
 4219POPC   NC353747  11.894  42.540   5.537
 4219POPC   PO453748  12.041  43.184   5.365
 4219POPC   GL153749  11.920  43.055   5.773
 4219POPC   GL253750  11.687  43.390   5.813
 4219POPC   C1A53751  12.204  42.946   6.174
 4219POPC   D2A53752  12.460  43.177   6.538
 4219POPC   C3A53753  12.317  43.120   6.935
 4219POPC   C4A53754  11.978  42.875   7.076
 4219POPC   C1B53755  11.916  43.351   6.174
 4219POPC   C2B53756  11.957  43.157   6.575
 4219POPC   C3B53757  11.846  43.365   6.952
 4219POPC   C4B53758  12.069  43.665   7.217
 4220POPC   NC353759  38.112  23.718   5.439
 4220POPC   PO453760  38.799  23.743   5.496
 4220POPC   GL153761  38.560  23.630   5.837
 4220POPC   GL253762  38.489  23.977   5.828
 4220POPC   C1A53763  38.455  23.719   6.274
 4220POPC   D2A53764  38.558  23.503   6.613
 4220POPC   C3A53765  38.338  23.588   6.924
 4220POPC   C4A53766  38.483  23.572   7.302
 4220POPC   C1B53767  38.857  23.977   6.127
 4220POPC   C2B53768  38.926  23.843   6.545
 4220POPC   C3B53769  38.745  23.921   6.942
 4220POPC   C4B53770  38.777  23.976   7.364
 4221POPC   NC353771   5.533   0.323   5.630
 4221POPC   PO453772   4.885   0.567   5.603
 4221POPC   GL153773   5.055   0.233   5.869
 4221POPC   GL253774   4.867  44.953   5.743
 4221POPC   C1A53775   5.181   0.329   6.312
 4221POPC   D2A53776   5.353   0.697   6.591
 4221POPC   C3A53777   5.553   0.539   6.967
 4221POPC   C4A53778   5.309   0.418   7.299
 4221POPC   C1B53779   4.639   0.023   6.118
 4221POPC   C2B53780   4.584   0.289   6.490
 4221POPC   C3B53781   4.828   0.482   6.826
 4221POPC   C4B53782   4.854   0.229   7.190
 4222POPC   NC353783  29.319   9.166   5.583
 4222POPC   PO453784  29.356   8.542   5.432
 4222POPC   GL153785  29.111   8.733   5.781
 4222POPC   GL253786  28.819   8.937   5.721
 4222POPC   C1A53787  29.099   8.958   6.193
 4222POPC   D2A53788  29.301   9.158   6.569
 4222POPC   C3A53789  29.139   8.975   6.943
 4222POPC   C4A53790  29.278   9.019   7.333
 4222POPC   C1B53791  28.660   9.206   6.079
 4222POPC   C2B53792  28.794   9.225   6.511
 4222POPC   C3B53793  28.685   9.177   6.912
 4222POPC   C4B53794  28.824   9.253   7.358
 4223POPC   NC353795   7.038  44.001   5.316
 4223POPC   PO453796   6.431  43.842   5.348
 4223POPC   GL153797   6.508  43.771   5.796
 4223POPC   GL253798   6.867  43.690   5.831
 4223POPC   C1A53799   6.464  43.962   6.212
 4223POPC   D2A53800   6.301  44.225   6.551
 4223POPC   C3A53801   6.355  44.034   6.919
 4223POPC   C4A53802   6.733  43.855   7.123
 4223POPC   C1B53803   6.957  43.765   6.248
 4223POPC   C2B53804   6.729  43.744   6.624
 4223POPC   C3B53805   6.745  43.392   6.906
 4223POPC   C4B53806   7.055  43.137   7.126
 4224POPC   NC353807   9.247  18.066   5.434
 4224POPC   PO453808   9.944  18.180   5.261
 4224POPC   GL153809   9.805  18.358   5.646
 4224POPC   GL253810   9.461  18.480   5.687
 4224POPC   C1A53811   9.810  18.377   6.095
 4224POPC   D2A53812  10.039  18.442   6.492
 4224POPC   C3A53813   9.913  18.528   6.925
 4224POPC   C4A53814   9.829  18.288   7.326
 4224POPC   C1B53815   9.293  18.451   6.119
 4224POPC   C2B53816   9.502  18.315   6.502
 4224POPC   C3B53817   9.475  18.282   6.939
 4224POPC   C4B53818   9.156  18.316   7.239
 4225POPC   NC353819  15.758  25.097   5.447
 4225POPC   PO453820  16.173  25.597   5.324
 4225POPC   GL153821  16.136  25.374   5.671
 4225POPC   GL253822  15.821  25.477   5.804
 4225POPC   C1A53823  16.200  25.341   6.114
 4225POPC   D2A53824  15.895  25.323   6.457
 4225POPC   C3A53825  15.976  25.194   6.878
 4225POPC   C4A53826  16.291  25.010   7.128
 4225POPC   C1B53827  15.624  25.719   6.140
 4225POPC   C2B53828  15.679  25.773   6.572
 4225POPC   C3B53829  15.462  25.655   6.930
 4225POPC   C4B53830  15.690  25.470   7.227
 4226POPC   NC353831   6.395  35.695   5.052
 4226POPC   PO453832   6.857  35.328   5.393
 4226POPC   GL153833   6.523  35.396   5.607
 4226POPC   GL253834   6.497  35.669   5.549
 4226POPC   C1A53835   6.352  35.410   6.006
 4226POPC   D2A53836   6.433  35.208   6.378
 4226POPC   C3A53837   6.384  35.367   6.785
 4226POPC   C4A53838   6.628  35.253   7.158
 4226POPC   C1B53839   6.674  35.785   5.961
 4226POPC   C2B53840   6.658  35.682   6.432
 4226POPC   C3B53841   6.858  35.583   6.857
 4226POPC   C4B53842   7.030  35.870   7.165
 4227POPC   NC353843  10.386  14.675   5.433
 4227POPC   PO453844  10.261  14.010   5.559
 4227POPC   GL153845  10.611  14.109   5.804
 4227POPC   GL253846  10.635  14.455   5.857
 4227POPC   C1A53847  10.620  14.068   6.239
 4227POPC   D2A53848  10.346  14.058   6.600
 4227POPC   C3A53849  10.484  14.184   7.014
 4227POPC   C4A53850  10.857  14.090   7.281
 4227POPC   C1B53851  10.300  14.455   6.179
 4227POPC   C2B53852  10.095  14.538   6.547
 4227POPC   C3B53853  10.204  14.622   6.962
 4227POPC   C4B53854  10.144  14.434   7.317
 4228POPC   NC353855  23.958  31.684   5.514
 4228POPC   PO453856  23.307  31.323   5.385
 4228POPC   GL153857  23.481  31.534   5.753
 4228POPC   GL253858  23.726  31.316   5.868
 4228POPC   C1A53859  23.647  31.677   6.197
 4228POPC   D2A53860  23.461  31.608   6.598
 4228POPC   C3A53861  23.610  31.784   6.974
 4228POPC   C4A53862  23.345  32.004   7.264
 4228POPC   C1B53863  23.557  31.165   6.295
 4228POPC   C2B53864  23.592  31.127   6.764
 4228POPC   C3B53865  23.556  31.293   7.207
 4228POPC   C4B53866  23.506  31.123   7.655
 4229POPC   NC353867   0.458  27.963   5.329
 4229POPC   PO453868   0.244  27.333   5.421
 4229POPC   GL153869   0.251  27.546   5.806
 4229POPC   GL253870   0.573  27.646   5.736
 4229POPC   C1A53871   0.376  27.372   6.225
 4229POPC   D2A53872   0.481  27.246   6.660
 4229POPC   C3A53873   0.185  27.440   6.938
 4229POPC   C4A53874   0.177  27.763   7.261
 4229POPC   C1B53875   0.596  27.826   6.153
 4229POPC   C2B53876   0.370  27.769   6.549
 4229POPC   C3B53877   0.544  27.838   6.928
 4229POPC   C4B53878   0.650  28.136   7.215
 4230POPC   NC353879  24.814  31.523   5.495
 4230POPC   PO453880  24.205  31.243   5.670
 4230POPC   GL153881  24.606  31.385   5.943
 4230POPC   GL253882  24.727  31.765   5.936
 4230POPC   C1A53883  24.750  31.451   6.398
 4230POPC   D2A53884  24.475  31.301   6.755
 4230POPC   C3A53885  24.470  31.339   7.196
 4230POPC   C4A53886  24.278  31.464   7.598
 4230POPC   C1B53887  24.652  31.980   6.358
 4230POPC   C2B53888  24.549  31.822   6.798
 4230POPC   C3B53889  24.343  31.839   7.209
 4230POPC   C4B53890  24.591  31.859   7.590
 4231POPC   NC353891  33.037   4.053   4.996
 4231POPC   PO453892  32.759   4.102   5.630
 4231POPC   GL153893  32.815   4.467   5.851
 4231POPC   GL253894  33.146   4.479   5.686
 4231POPC   C1A53895  32.700   4.406   6.278
 4231POPC   D2A53896  32.932   4.084   6.500
 4231POPC   C3A53897  33.268   4.230   6.747
 4231POPC   C4A53898  33.137   4.283   7.157
 4231POPC   C1B53899  33.249   4.446   6.144
 4231POPC   C2B53900  33.084   4.665   6.500
 4231POPC   C3B53901  33.152   4.737   6.906
 4231POPC   C4B53902  33.115   4.743   7.348
 4232POPC   NC353903  37.626  28.816   5.450
 4232POPC   PO453904  37.580  29.554   5.428
 4232POPC   GL153905  37.531  29.191   5.817
 4232POPC   GL253906  37.814  28.991   5.945
 4232POPC   C1A53907  37.444  29.072   6.279
 4232POPC   D2A53908  37.433  28.978   6.701
 4232POPC   C3A53909  37.779  29.153   6.895
 4232POPC   C4A53910  37.966  29.116   7.267
 4232POPC   C1B53911  37.898  29.334   6.302
 4232POPC   C2B53912  37.722  29.627   6.627
 4232POPC   C3B53913  37.449  29.559   6.985
 4232POPC   C4B53914  37.295  29.175   7.182
 4233POPC   NC353915  20.151  10.662   5.326
 4233POPC   PO453916  20.465  10.158   5.546
 4233POPC   GL153917  20.446  10.564   5.747
 4233POPC   GL253918  20.744  10.789   5.708
 4233POPC   C1A53919  20.557  10.557   6.161
 4233POPC   D2A53920  20.623  10.324   6.499
 4233POPC   C3A53921  20.593  10.549   6.837
 4233POPC   C4A53922  20.313  10.471   7.161
 4233POPC   C1B53923  21.029  10.681   6.055
 4233POPC   C2B53924  21.059  10.620   6.514
 4233POPC   C3B53925  21.099  10.676   6.974
 4233POPC   C4B53926  20.853  10.409   7.250
 4234POPC   NC353927  24.533  15.588   5.431
 4234POPC   PO453928  24.639  14.955   5.311
 4234POPC   GL153929  24.683  15.155   5.738
 4234POPC   GL253930  24.495  15.444   5.919
 4234POPC   C1A53931  24.820  15.073   6.172
 4234POPC   D2A53932  24.761  14.806   6.547
 4234POPC   C3A53933  24.446  14.952   6.799
 4234POPC   C4A53934  24.570  15.080   7.175
 4234POPC   C1B53935  24.556  15.698   6.337
 4234POPC   C2B53936  24.757  15.776   6.747
 4234POPC   C3B53937  24.576  15.589   7.125
 4234POPC   C4B53938  24.222  15.409   7.411
 4235POPC   NC353939  32.623  21.204   5.494
 4235POPC   PO453940  32.001  21.397   5.457
 4235POPC   GL153941  32.199  21.245   5.798
 4235POPC   GL253942  32.535  21.250   5.984
 4235POPC   C1A53943  32.117  20.997   6.116
 4235POPC   D2A53944  32.348  21.058   6.478
 4235POPC   C3A53945  32.404  21.137   6.904
 4235POPC   C4A53946  32.183  21.076   7.244
 4235POPC   C1B53947  32.247  21.496   6.257
 4235POPC   C2B53948  32.312  21.605   6.693
 4235POPC   C3B53949  32.330  21.579   7.144
 4235POPC   C4B53950  32.611  21.290   7.424
 4236POPC   NC353951  28.831  33.289   5.417
 4236POPC   PO453952  29.415  32.969   5.171
 4236POPC   GL153953  29.314  33.018   5.654
 4236POPC   GL253954  29.241  33.366   5.751
 4236POPC   C1A53955  29.466  33.051   6.127
 4236POPC   D2A53956  29.301  33.007   6.587
 4236POPC   C3A53957  29.471  32.812   6.997
 4236POPC   C4A53958  29.358  32.574   7.391
 4236POPC   C1B53959  28.997  33.278   6.159
 4236POPC   C2B53960  29.058  33.487   6.569
 4236POPC   C3B53961  29.249  33.367   6.962
 4236POPC   C4B53962  29.013  33.070   7.128
 4237POPC   NC353963  11.422  36.818   5.246
 4237POPC   PO453964  10.865  36.452   5.278
 4237POPC   GL153965  11.137  36.744   5.650
 4237POPC   GL253966  11.541  36.808   5.754
 4237POPC   C1A53967  11.197  36.759   6.122
 4237POPC   D2A53968  11.542  36.632   6.436
 4237POPC   C3A53969  11.448  36.678   6.896
 4237POPC   C4A53970  11.160  36.893   7.174
 4237POPC   C1B53971  11.582  37.070   6.121
 4237POPC   C2B53972  11.351  37.100   6.537
 4237POPC   C3B53973  11.500  37.189   6.934
 4237POPC   C4B53974  11.692  37.022   7.255
 4238POPC   NC353975  24.310  11.761   5.362
 4238POPC   PO453976  24.905  11.867   5.397
 4238POPC   GL153977  24.602  11.978   5.745
 4238POPC   GL253978  24.248  11.890   5.845
 4238POPC   C1A53979  24.648  11.881   6.183
 4238POPC   D2A53980  24.563  12.150   6.537
 4238POPC   C3A53981  24.517  12.135   6.987
 4238POPC   C4A53982  24.314  12.197   7.390
 4238POPC   C1B53983  24.151  11.826   6.284
 4238POPC   C2B53984  24.292  11.723   6.696
 4238POPC   C3B53985  24.186  11.757   7.157
 4238POPC   C4B53986  24.185  11.693   7.620
 4239POPC   NC353987  32.013  39.240   5.276
 4239POPC   PO453988  32.546  38.820   5.320
 4239POPC   GL153989  32.332  39.113   5.667
 4239POPC   GL253990  32.042  39.367   5.760
 4239POPC   C1A53991  32.356  39.179   6.114
 4239POPC   D2A53992  32.366  38.957   6.495
 4239POPC   C3A53993  32.263  39.129   6.891
 4239POPC   C4A53994  32.261  39.079   7.300
 4239POPC   C1B53995  31.964  39.478   6.191
 4239POPC   C2B53996  32.241  39.492   6.528
 4239POPC   C3B53997  32.181  39.642   6.948
 4239POPC   C4B53998  32.320  39.566   7.354
 4240POPC   NC353999  34.191   0.781   5.605
 4240POPC   PO454000  34.443   0.175   5.518
 4240POPC   GL154001  34.603   0.305   5.907
 4240POPC   GL254002  34.340   0.529   6.017
 4240POPC   C1A54003  34.828   0.650   6.157
 4240POPC   D2A54004  34.815   0.856   6.576
 4240POPC   C3A54005  34.780   0.568   6.942
 4240POPC   C4A54006  34.868   0.178   7.148
 4240POPC   C1B54007  34.223   0.172   6.248
 4240POPC   C2B54008  34.090   0.190   6.645
 4240POPC   C3B54009  34.232   0.506   6.928
 4240POPC   C4B54010  34.404   0.419   7.306
 4241POPC   NC354011  35.854  40.163   5.383
 4241POPC   PO454012  36.411  39.825   5.250
 4241POPC   GL154013  36.332  39.713   5.700
 4241POPC   GL254014  36.039  39.894   5.764
 4241POPC   C1A54015  36.397  39.570   6.162
 4241POPC   D2A54016  36.349  39.581   6.642
 4241POPC   C3A54017  36.541  39.691   7.071
 4241POPC   C4A54018  36.309  39.947   7.409
 4241POPC   C1B54019  35.917  39.791   6.152
 4241POPC   C2B54020  35.982  39.915   6.561
 4241POPC   C3B54021  36.079  40.054   6.958
 4241POPC   C4B54022  35.858  40.165   7.333
 4242POPC   NC354023   3.392  10.629   4.980
 4242POPC   PO454024   3.721  10.495   5.581
 4242POPC   GL154025   3.653  10.544   5.956
 4242POPC   GL254026   3.315  10.439   5.917
 4242POPC   C1A54027   3.542  10.751   6.291
 4242POPC   D2A54028   3.831  10.568   6.501
 4242POPC   C3A54029   3.796  10.618   6.883
 4242POPC   C4A54030   3.657  10.739   7.266
 4242POPC   C1B54031   3.171  10.227   6.272
 4242POPC   C2B54032   3.363  10.349   6.638
 4242POPC   C3B54033   3.287  10.682   6.897
 4242POPC   C4B54034   3.097  10.614   7.264
 4243POPC   NC354035  29.483  21.628   5.249
 4243POPC   PO454036  29.182  22.242   5.272
 4243POPC   GL154037  29.114  22.166   5.690
 4243POPC   GL254038  29.352  21.909   5.741
 4243POPC   C1A54039  28.928  22.286   6.082
 4243POPC   D2A54040  29.057  22.500   6.476
 4243POPC   C3A54041  29.170  22.266   6.821
 4243POPC   C4A54042  29.068  22.315   7.268
 4243POPC   C1B54043  29.153  21.820   6.162
 4243POPC   C2B54044  28.961  21.847   6.589
 4243POPC   C3B54045  29.108  21.816   7.041
 4243POPC   C4B54046  29.214  21.736   7.469
 4244POPC   NC354047   2.832   7.298   5.316
 4244POPC   PO454048   2.509   7.860   5.258
 4244POPC   GL154049   2.527   7.565   5.661
 4244POPC   GL254050   2.427   7.205   5.655
 4244POPC   C1A54051   2.598   7.408   6.115
 4244POPC   D2A54052   2.738   7.260   6.554
 4244POPC   C3A54053   2.893   7.546   6.876
 4244POPC   C4A54054   2.992   7.710   7.298
 4244POPC   C1B54055   2.260   7.034   6.040
 4244POPC   C2B54056   2.199   7.279   6.439
 4244POPC   C3B54057   2.348   7.238   6.884
 4244POPC   C4B54058   2.659   7.265   7.224
 4245POPC   NC354059   0.400  36.123   5.344
 4245POPC   PO454060   0.980  35.773   5.522
 4245POPC   GL154061   0.788  36.127   5.733
 4245POPC   GL254062   0.495  36.361   5.779
 4245POPC   C1A54063   0.834  36.276   6.156
 4245POPC   D2A54064   0.707  36.111   6.574
 4245POPC   C3A54065   0.656  36.323   6.962
 4245POPC   C4A54066   0.868  36.266   7.354
 4245POPC   C1B54067   0.224  36.242   6.131
 4245POPC   C2B54068   0.125  36.164   6.552
 4245POPC   C3B54069   0.150  36.387   6.961
 4245POPC   C4B54070   0.259  36.367   7.431
 4246POPC   NC354071  42.307  21.624   4.965
 4246POPC   PO454072  42.546  21.121   5.439
 4246POPC   GL154073  42.424  21.272   5.817
 4246POPC   GL254074  42.330  21.653   5.874
 4246POPC   C1A54075  42.317  21.178   6.206
 4246POPC   D2A54076  42.664  21.228   6.510
 4246POPC   C3A54077  42.602  21.145   6.952
 4246POPC   C4A54078  42.394  21.278   7.331
 4246POPC   C1B54079  42.354  21.658   6.280
 4246POPC   C2B54080  42.064  21.444   6.558
 4246POPC   C3B54081  42.002  21.393   6.984
 4246POPC   C4B54082  42.083  21.706   7.311
 4247POPC   NC354083  16.855  10.761   5.576
 4247POPC   PO454084  16.588  11.372   5.262
 4247POPC   GL154085  16.611  11.248   5.726
 4247POPC   GL254086  16.505  10.952   5.868
 4247POPC   C1A54087  16.800  11.220   6.175
 4247POPC   D2A54088  16.767  11.430   6.577
 4247POPC   C3A54089  16.643  11.271   6.972
 4247POPC   C4A54090  16.809  11.217   7.372
 4247POPC   C1B54091  16.307  10.867   6.225
 4247POPC   C2B54092  16.432  10.877   6.657
 4247POPC   C3B54093  16.205  11.008   6.996
 4247POPC   C4B54094  16.306  11.074   7.425
 4248POPC   NC354095  36.764  37.788   5.464
 4248POPC   PO454096  37.204  37.321   5.293
 4248POPC   GL154097  37.026  37.443   5.750
 4248POPC   GL254098  37.065  37.803   5.861
 4248POPC   C1A54099  36.856  37.493   6.226
 4248POPC   D2A54100  37.033  37.358   6.660
 4248POPC   C3A54101  36.944  37.573   7.070
 4248POPC   C4A54102  36.550  37.803   7.171
 4248POPC   C1B54103  36.965  38.020   6.226
 4248POPC   C2B54104  36.857  37.887   6.620
 4248POPC   C3B54105  36.811  38.177   6.925
 4248POPC   C4B54106  36.957  38.090   7.314
 4249POPC   NC354107  28.154  20.779   5.583
 4249POPC   PO454108  28.787  20.468   5.427
 4249POPC   GL154109  28.613  20.657   5.803
 4249POPC   GL254110  28.377  20.398   5.894
 4249POPC   C1A54111  28.682  20.594   6.249
 4249POPC   D2A54112  28.431  20.337   6.533
 4249POPC   C3A54113  28.479  20.497   6.945
 4249POPC   C4A54114  28.665  20.909   7.014
 4249POPC   C1B54115  28.193  20.698   6.217
 4249POPC   C2B54116  28.327  20.895   6.604
 4249POPC   C3B54117  28.133  20.906   6.990
 4249POPC   C4B54118  28.005  20.561   7.171
 4250POPC   NC354119  36.564  33.476   5.358
 4250POPC   PO454120  37.045  33.864   5.656
 4250POPC   GL154121  36.847  33.633   5.914
 4250POPC   GL254122  37.162  33.566   6.110
 4250POPC   C1A54123  36.698  33.546   6.316
 4250POPC   D2A54124  37.014  33.615   6.614
 4250POPC   C3A54125  36.868  33.622   6.983
 4250POPC   C4A54126  37.106  33.575   7.307
 4250POPC   C1B54127  37.016  33.994   6.277
 4250POPC   C2B54128  36.979  34.322   6.577
 4250POPC   C3B54129  36.909  34.132   6.950
 4250POPC   C4B54130  36.607  34.101   7.278
 4251POPC   NC354131  44.133   0.017   5.486
 4251POPC   PO454132  43.783  44.464   5.315
 4251POPC   GL154133  43.976  44.585   5.714
 4251POPC   GL254134  43.748  44.833   5.838
 4251POPC   C1A54135  44.200  44.774   6.106
 4251POPC   D2A54136  44.373  44.614   6.494
 4251POPC   C3A54137  44.237  44.798   6.865
 4251POPC   C4A54138  44.108  44.697   7.281
 4251POPC   C1B54139  43.751  44.520   6.161
 4251POPC   C2B54140  43.845  44.656   6.553
 4251POPC   C3B54141  43.725  44.556   6.960
 4251POPC   C4B54142  43.555  44.824   7.288
 4252POPC   NC354143  42.758  13.638   5.531
 4252POPC   PO454144  43.137  14.204   5.257
 4252POPC   GL154145  43.211  13.950   5.670
 4252POPC   GL254146  43.236  13.564   5.713
 4252POPC   C1A54147  43.366  13.876   6.111
 4252POPC   D2A54148  43.377  13.989   6.557
 4252POPC   C3A54149  43.494  13.816   6.970
 4252POPC   C4A54150  43.271  13.955   7.380
 4252POPC   C1B54151  43.145  13.412   6.173
 4252POPC   C2B54152  43.189  13.506   6.621
 4252POPC   C3B54153  42.993  13.750   6.959
 4252POPC   C4B54154  42.966  13.539   7.364
 4253POPC   NC354155   7.758   9.601   5.299
 4253POPC   PO454156   7.136   9.844   5.405
 4253POPC   GL154157   7.382   9.632   5.760
 4253POPC   GL254158   7.650   9.884   5.719
 4253POPC   C1A54159   7.342   9.443   6.206
 4253POPC   D2A54160   7.224   9.495   6.659
 4253POPC   C3A54161   7.315   9.775   7.006
 4253POPC   C4A54162   7.393   9.524   7.373
 4253POPC   C1B54163   7.723   9.777   6.140
 4253POPC   C2B54164   7.605   9.868   6.567
 4253POPC   C3B54165   7.814   9.698   6.929
 4253POPC   C4B54166   7.786   9.911   7.243
 4254POPC   NC354167  25.849  36.286   5.522
 4254POPC   PO454168  26.360  35.832   5.556
 4254POPC   GL154169  26.155  36.094   5.911
 4254POPC   GL254170  25.752  36.094   5.976
 4254POPC   C1A54171  26.079  36.105   6.357
 4254POPC   D2A54172  26.247  36.030   6.718
 4254POPC   C3A54173  26.018  36.132   7.060
 4254POPC   C4A54174  25.846  36.470   7.268
 4254POPC   C1B54175  25.763  35.713   6.241
 4254POPC   C2B54176  25.951  35.614   6.654
 4254POPC   C3B54177  25.845  35.655   7.105
 4254POPC   C4B54178  25.764  35.937   7.467
 4255POPC   NC354179  33.610  36.186   5.394
 4255POPC   PO454180  34.215  36.478   5.084
 4255POPC   GL154181  34.194  36.468   5.627
 4255POPC   GL254182  34.018  36.130   5.745
 4255POPC   C1A54183  34.103  36.412   6.146
 4255POPC   D2A54184  34.144  36.050   6.488
 4255POPC   C3A54185  33.987  36.089   6.936
 4255POPC   C4A54186  34.046  36.492   7.161
 4255POPC   C1B54187  33.748  36.043   6.146
 4255POPC   C2B54188  33.645  36.288   6.558
 4255POPC   C3B54189  33.551  36.363   7.024
 4255POPC   C4B54190  33.518  35.935   7.170
 4256POPC   NC354191   7.063  32.569   5.438
 4256POPC   PO454192   6.397  32.332   5.458
 4256POPC   GL154193   6.469  32.198   5.844
 4256POPC   GL254194   6.820  32.302   5.872
 4256POPC   C1A54195   6.418  32.290   6.261
 4256POPC   D2A54196   6.568  32.159   6.650
 4256POPC   C3A54197   6.292  32.355   6.981
 4256POPC   C4A54198   6.438  32.408   7.379
 4256POPC   C1B54199   6.974  32.123   6.275
 4256POPC   C2B54200   7.084  32.153   6.720
 4256POPC   C3B54201   6.877  32.318   7.097
 4256POPC   C4B54202   7.153  32.389   7.476
 4257POPC   NC354203  23.361  43.406   5.238
 4257POPC   PO454204  22.878  42.859   5.369
 4257POPC   GL154205  22.998  42.750   5.781
 4257POPC   GL254206  23.035  43.110   5.826
 4257POPC   C1A54207  22.925  42.802   6.237
 4257POPC   D2A54208  22.941  43.136   6.548
 4257POPC   C3A54209  23.155  43.062   6.907
 4257POPC   C4A54210  22.948  42.773   7.154
 4257POPC   C1B54211  23.315  43.154   6.206
 4257POPC   C2B54212  23.530  43.331   6.598
 4257POPC   C3B54213  23.379  43.571   7.000
 4257POPC   C4B54214  23.221  43.294   7.361
 4258POPC   NC354215  16.190  43.336   5.460
 4258POPC   PO454216  15.715  42.805   5.467
 4258POPC   GL154217  15.832  43.072   5.806
 4258POPC   GL254218  15.817  43.419   5.834
 4258POPC   C1A54219  16.002  43.081   6.225
 4258POPC   D2A54220  16.172  43.134   6.644
 4258POPC   C3A54221  15.919  43.107   7.004
 4258POPC   C4A54222  16.095  43.162   7.424
 4258POPC   C1B54223  15.664  43.463   6.251
 4258POPC   C2B54224  15.852  43.517   6.651
 4258POPC   C3B54225  15.719  43.622   7.054
 4258POPC   C4B54226  15.591  43.351   7.374
 4259POPC   NC354227  40.116  28.408   5.382
 4259POPC   PO454228  39.604  28.059   5.482
 4259POPC   GL154229  39.813  28.249   5.803
 4259POPC   GL254230  40.180  28.187   5.867
 4259POPC   C1A54231  39.877  28.510   6.173
 4259POPC   D2A54232  40.189  28.548   6.516
 4259POPC   C3A54233  40.005  28.588   6.904
 4259POPC   C4A54234  40.118  28.480   7.282
 4259POPC   C1B54235  39.923  28.014   6.244
 4259POPC   C2B54236  39.940  28.104   6.683
 4259POPC   C3B54237  40.142  28.024   7.084
 4259POPC   C4B54238  39.959  28.040   7.526
 4260POPC   NC354239  37.951  39.394   5.559
 4260POPC   PO454240  37.506  38.872   5.476
 4260POPC   GL154241  37.578  39.135   5.796
 4260POPC   GL254242  37.307  39.025   5.938
 4260POPC   C1A54243  37.852  39.154   6.163
 4260POPC   D2A54244  37.692  39.037   6.550
 4260POPC   C3A54245  37.643  39.216   6.938
 4260POPC   C4A54246  37.893  39.482   7.172
 4260POPC   C1B54247  37.363  39.299   6.259
 4260POPC   C2B54248  37.283  39.526   6.607
 4260POPC   C3B54249  37.419  39.678   6.997
 4260POPC   C4B54250  37.331  39.429   7.329
 4261POPC   NC354251  26.031  25.907   5.640
 4261POPC   PO454252  26.225  26.391   5.303
 4261POPC   GL154253  26.090  26.380   5.788
 4261POPC   GL254254  26.397  26.284   5.822
 4261POPC   C1A54255  26.099  26.087   6.237
 4261POPC   D2A54256  26.371  25.845   6.524
 4261POPC   C3A54257  26.228  25.866   6.955
 4261POPC   C4A54258  25.999  26.234   7.133
 4261POPC   C1B54259  26.436  26.441   6.229
 4261POPC   C2B54260  26.309  26.330   6.684
 4261POPC   C3B54261  26.462  26.472   7.076
 4261POPC   C4B54262  26.304  26.416   7.518
 4262POPC   NC354263  43.447  34.014   5.467
 4262POPC   PO454264  42.753  34.342   5.410
 4262POPC   GL154265  42.960  33.963   5.666
 4262POPC   GL254266  42.814  33.624   5.692
 4262POPC   C1A54267  43.194  33.855   6.083
 4262POPC   D2A54268  43.320  33.957   6.520
 4262POPC   C3A54269  43.315  33.732   6.915
 4262POPC   C4A54270  43.336  34.008   7.299
 4262POPC   C1B54271  42.746  33.611   6.160
 4262POPC   C2B54272  42.955  33.553   6.535
 4262POPC   C3B54273  42.848  33.446   6.927
 4262POPC   C4B54274  42.962  33.656   7.274
 4263POPC   NC354275  43.301  20.261   5.403
 4263POPC   PO454276  42.957  19.597   5.307
 4263POPC   GL154277  43.195  19.803   5.669
 4263POPC   GL254278  43.099  20.123   5.858
 4263POPC   C1A54279  43.245  19.610   6.093
 4263POPC   D2A54280  43.074  19.535   6.522
 4263POPC   C3A54281  43.271  19.524   6.954
 4263POPC   C4A54282  43.259  19.973   7.128
 4263POPC   C1B54283  42.935  20.100   6.302
 4263POPC   C2B54284  42.824  20.202   6.735
 4263POPC   C3B54285  42.793  20.174   7.186
 4263POPC   C4B54286  42.910  20.013   7.594
 4264POPC   NC354287  15.801  23.602   5.350
 4264POPC   PO454288  16.448  23.238   5.570
 4264POPC   GL154289  16.128  23.549   5.781
 4264POPC   GL254290  15.744  23.508   5.830
 4264POPC   C1A54291  16.020  23.797   6.179
 4264POPC   D2A54292  15.740  23.827   6.540
 4264POPC   C3A54293  15.952  23.890   6.909
 4264POPC   C4A54294  15.888  23.790   7.322
 4264POPC   C1B54295  15.678  23.426   6.226
 4264POPC   C2B54296  15.758  23.219   6.591
 4264POPC   C3B54297  15.686  23.450   6.959
 4264POPC   C4B54298  15.458  23.507   7.329
 4265POPC   NC354299  34.291  34.472   5.438
 4265POPC   PO454300  34.779  34.891   5.457
 4265POPC   GL154301  34.635  34.628   5.781
 4265POPC   GL254302  34.305  34.802   5.834
 4265POPC   C1A54303  34.739  34.599   6.215
 4265POPC   D2A54304  34.558  34.833   6.537
 4265POPC   C3A54305  34.832  34.988   6.847
 4265POPC   C4A54306  34.714  34.766   7.194
 4265POPC   C1B54307  34.257  34.448   6.128
 4265POPC   C2B54308  34.434  34.283   6.541
 4265POPC   C3B54309  34.353  34.473   6.953
 4265POPC   C4B54310  34.037  34.359   7.276
 4266POPC   NC354311  34.746   9.432   5.602
 4266POPC   PO454312  34.381   9.953   5.390
 4266POPC   GL154313  34.408   9.764   5.832
 4266POPC   GL254314  34.268   9.417   5.904
 4266POPC   C1A54315  34.541   9.944   6.245
 4266POPC   D2A54316  34.718   9.783   6.645
 4266POPC   C3A54317  34.516   9.970   6.989
 4266POPC   C4A54318  34.654   9.954   7.403
 4266POPC   C1B54319  34.419   9.423   6.331
 4266POPC   C2B54320  34.415   9.353   6.803
 4266POPC   C3B54321  34.649   9.504   7.160
 4266POPC   C4B54322  34.530   9.511   7.600
 4267POPC   NC354323  10.098  16.121   5.459
 4267POPC   PO454324   9.557  15.808   5.418
 4267POPC   GL154325   9.535  15.915   5.844
 4267POPC   GL254326   9.894  15.861   5.862
 4267POPC   C1A54327   9.573  15.797   6.270
 4267POPC   D2A54328   9.848  15.683   6.585
 4267POPC   C3A54329   9.785  16.000   6.893
 4267POPC   C4A54330   9.549  16.057   7.238
 4267POPC   C1B54331   9.930  16.173   6.184
 4267POPC   C2B54332   9.962  16.367   6.571
 4267POPC   C3B54333  10.206  16.343   6.943
 4267POPC   C4B54334  10.177  16.104   7.310
 4268POPC   NC354335  35.933   0.053   5.406
 4268POPC   PO454336  36.305  44.498   5.404
 4268POPC   GL154337  36.135  44.715   5.764
 4268POPC   GL254338  36.290   0.044   5.811
 4268POPC   C1A54339  35.964  44.666   6.170
 4268POPC   D2A54340  36.027  44.852   6.562
 4268POPC   C3A54341  36.071  44.667   6.950
 4268POPC   C4A54342  35.956  44.406   7.279
 4268POPC   C1B54343  36.417  44.966   6.244
 4268POPC   C2B54344  36.553  44.785   6.648
 4268POPC   C3B54345  36.570  44.709   7.084
 4268POPC   C4B54346  36.241  44.879   7.390
 4269POPC   NC354347  44.005  12.981   5.356
 4269POPC   PO454348  43.530  12.582   5.564
 4269POPC   GL154349  43.845  12.800   5.829
 4269POPC   GL254350  44.220  12.728   5.812
 4269POPC   C1A54351  43.929  12.808   6.273
 4269POPC   D2A54352  44.069  12.684   6.695
 4269POPC   C3A54353  43.755  12.811   7.048
 4269POPC   C4A54354  43.729  12.729   7.525
 4269POPC   C1B54355  44.414  12.951   6.183
 4269POPC   C2B54356  44.409  13.106   6.620
 4269POPC   C3B54357  44.260  13.021   7.043
 4269POPC   C4B54358  43.993  13.129   7.381
 4270POPC   NC354359  11.461  13.164   5.448
 4270POPC   PO454360  11.275  12.660   5.158
 4270POPC   GL154361  11.280  12.719   5.682
 4270POPC   GL254362  11.138  12.966   5.801
 4270POPC   C1A54363  11.490  12.803   6.137
 4270POPC   D2A54364  11.377  12.995   6.562
 4270POPC   C3A54365  11.533  12.889   7.005
 4270POPC   C4A54366  11.537  12.952   7.506
 4270POPC   C1B54367  11.013  12.696   6.205
 4270POPC   C2B54368  11.015  12.505   6.614
 4270POPC   C3B54369  10.873  12.434   7.028
 4270POPC   C4B54370  11.213  12.624   7.278
 4271POPC   NC354371   1.303  44.144   5.412
 4271POPC   PO454372   1.131  44.855   5.459
 4271POPC   GL154373   1.329  44.579   5.743
 4271POPC   GL254374   1.030  44.628   5.946
 4271POPC   C1A54375   1.493  44.602   6.177
 4271POPC   D2A54376   1.372  44.782   6.594
 4271POPC   C3A54377   1.369  44.603   7.021
 4271POPC   C4A54378   1.155  44.806   7.371
 4271POPC   C1B54379   0.821  44.544   6.357
 4271POPC   C2B54380   0.884  44.563   6.830
 4271POPC   C3B54381   0.974  44.269   7.177
 4271POPC   C4B54382   0.783  44.164   7.602
 4272POPC   NC354383  12.030   7.853   5.438
 4272POPC   PO454384  12.308   8.499   5.318
 4272POPC   GL154385  11.980   8.338   5.640
 4272POPC   GL254386  12.261   8.167   5.754
 4272POPC   C1A54387  11.836   8.193   6.081
 4272POPC   D2A54388  11.852   7.965   6.487
 4272POPC   C3A54389  11.882   8.272   6.837
 4272POPC   C4A54390  11.822   8.274   7.290
 4272POPC   C1B54391  12.283   7.963   6.129
 4272POPC   C2B54392  12.343   7.856   6.548
 4272POPC   C3B54393  12.228   7.913   6.939
 4272POPC   C4B54394  12.404   8.033   7.292
 4273POPC   NC354395  31.669  13.480   5.403
 4273POPC   PO454396  31.038  13.494   5.510
 4273POPC   GL154397  31.360  13.567   5.849
 4273POPC   GL254398  31.594  13.283   5.871
 4273POPC   C1A54399  31.397  13.537   6.321
 4273POPC   D2A54400  31.251  13.501   6.765
 4273POPC   C3A54401  31.327  13.795   7.123
 4273POPC   C4A54402  31.197  13.522   7.452
 4273POPC   C1B54403  31.893  13.442   6.183
 4273POPC   C2B54404  32.061  13.496   6.616
 4273POPC   C3B54405  31.952  13.305   6.993
 4273POPC   C4B54406  31.579  13.346   7.166
 4274POPC   NC354407  13.899  42.366   5.481
 4274POPC   PO454408  13.300  42.716   5.390
 4274POPC   GL154409  13.319  42.426   5.809
 4274POPC   GL254410  13.637  42.265   5.905
 4274POPC   C1A54411  13.245  42.289   6.311
 4274POPC   D2A54412  13.188  42.356   6.809
 4274POPC   C3A54413  13.514  42.341   7.177
 4274POPC   C4A54414  13.679  42.113   7.589
 4274POPC   C1B54415  13.640  42.568   6.222
 4274POPC   C2B54416  13.664  42.424   6.634
 4274POPC   C3B54417  13.964  42.335   6.938
 4274POPC   C4B54418  13.976  42.465   7.395
 4275POPC   NC354419  32.794  39.878   5.274
 4275POPC   PO454420  33.063  40.452   5.358
 4275POPC   GL154421  33.135  40.204   5.778
 4275POPC   GL254422  32.973  39.860   5.791
 4275POPC   C1A54423  32.966  40.140   6.214
 4275POPC   D2A54424  33.054  40.254   6.636
 4275POPC   C3A54425  33.278  39.966   6.893
 4275POPC   C4A54426  33.127  40.064   7.273
 4275POPC   C1B54427  33.174  39.669   6.153
 4275POPC   C2B54428  32.970  39.728   6.554
 4275POPC   C3B54429  32.823  39.712   6.974
 4275POPC   C4B54430  33.104  39.558   7.242
 4276POPC   NC354431   2.718  25.761   5.382
 4276POPC   PO454432   2.980  26.376   5.357
 4276POPC   GL154433   2.702  26.219   5.742
 4276POPC   GL254434   2.760  25.863   5.886
 4276POPC   C1A54435   2.648  26.232   6.219
 4276POPC   D2A54436   2.873  25.981   6.531
 4276POPC   C3A54437   2.730  26.104   6.913
 4276POPC   C4A54438   2.833  26.352   7.251
 4276POPC   C1B54439   3.107  25.654   6.150
 4276POPC   C2B54440   3.314  25.667   6.577
 4276POPC   C3B54441   3.146  25.806   6.994
 4276POPC   C4B54442   2.861  25.864   7.376
 4277POPC   NC354443  14.381  19.620   5.594
 4277POPC   PO454444  14.304  20.223   5.532
 4277POPC   GL154445  14.417  20.031   5.909
 4277POPC   GL254446  14.761  20.017   5.775
 4277POPC   C1A54447  14.210  19.987   6.332
 4277POPC   D2A54448  14.216  20.230   6.753
 4277POPC   C3A54449  14.295  19.964   7.143
 4277POPC   C4A54450  14.061  19.832   7.518
 4277POPC   C1B54451  14.839  19.984   6.212
 4277POPC   C2B54452  14.678  20.068   6.589
 4277POPC   C3B54453  14.720  20.347   6.918
 4277POPC   C4B54454  14.742  20.168   7.316
 4278POPC   NC354455  36.335   4.829   5.360
 4278POPC   PO454456  35.973   5.330   5.375
 4278POPC   GL154457  36.032   5.064   5.781
 4278POPC   GL254458  36.298   4.769   5.844
 4278POPC   C1A54459  35.926   5.210   6.215
 4278POPC   D2A54460  35.771   5.125   6.633
 4278POPC   C3A54461  35.930   5.289   6.991
 4278POPC   C4A54462  36.185   5.255   7.338
 4278POPC   C1B54463  36.154   4.751   6.228
 4278POPC   C2B54464  36.238   4.951   6.588
 4278POPC   C3B54465  36.216   4.838   7.005
 4278POPC   C4B54466  36.331   4.551   7.307
 4279POPC   NC354467   2.243  39.466   5.481
 4279POPC   PO454468   1.749  39.027   5.483
 4279POPC   GL154469   1.941  38.949   5.850
 4279POPC   GL254470   2.278  38.978   5.724
 4279POPC   C1A54471   1.862  39.013   6.321
 4279POPC   D2A54472   1.718  39.257   6.669
 4279POPC   C3A54473   1.780  39.185   7.114
 4279POPC   C4A54474   1.697  39.389   7.520
 4279POPC   C1B54475   2.315  39.213   6.122
 4279POPC   C2B54476   2.350  39.091   6.566
 4279POPC   C3B54477   2.215  39.379   6.897
 4279POPC   C4B54478   2.153  39.460   7.337
 4280POPC   NC354479  25.675  31.034   5.641
 4280POPC   PO454480  25.923  31.647   5.424
 4280POPC   GL154481  26.100  31.358   5.729
 4280POPC   GL254482  26.449  31.389   5.679
 4280POPC   C1A54483  26.027  31.288   6.164
 4280POPC   D2A54484  25.894  31.474   6.529
 4280POPC   C3A54485  26.084  31.349   6.872
 4280POPC   C4A54486  25.919  31.243   7.246
 4280POPC   C1B54487  26.508  31.580   6.079
 4280POPC   C2B54488  26.619  31.524   6.503
 4280POPC   C3B54489  26.499  31.689   6.901
 4280POPC   C4B54490  26.261  31.629   7.268
 4281POPC   NC354491  10.743  30.567   5.422
 4281POPC   PO454492  10.305  31.123   5.383
 4281POPC   GL154493  10.355  30.817   5.730
 4281POPC   GL254494  10.072  31.015   5.846
 4281POPC   C1A54495  10.557  30.629   6.145
 4281POPC   D2A54496  10.766  30.721   6.588
 4281POPC   C3A54497  10.597  30.626   6.979
 4281POPC   C4A54498  10.555  30.407   7.338
 4281POPC   C1B54499  10.241  31.021   6.237
 4281POPC   C2B54500  10.268  30.809   6.623
 4281POPC   C3B54501  10.124  30.875   7.044
 4281POPC   C4B54502  10.297  30.834   7.478
 4282POPC   NC354503  32.947   8.500   5.487
 4282POPC   PO454504  33.114   7.939   5.376
 4282POPC   GL154505  33.150   8.160   5.798
 4282POPC   GL254506  32.804   8.202   5.900
 4282POPC   C1A54507  33.183   8.332   6.220
 4282POPC   D2A54508  32.974   8.477   6.579
 4282POPC   C3A54509  33.043   8.288   6.963
 4282POPC   C4A54510  32.679   8.332   7.223
 4282POPC   C1B54511  32.584   8.037   6.290
 4282POPC   C2B54512  32.578   8.100   6.764
 4282POPC   C3B54513  32.726   7.831   7.142
 4282POPC   C4B54514  32.792   7.808   7.618
 4283POPC   NC354515  18.554  15.050   5.430
 4283POPC   PO454516  19.141  15.021   5.290
 4283POPC   GL154517  19.131  15.197   5.716
 4283POPC   GL254518  18.794  15.328   5.762
 4283POPC   C1A54519  19.170  15.048   6.162
 4283POPC   D2A54520  18.936  14.897   6.535
 4283POPC   C3A54521  19.100  14.974   6.946
 4283POPC   C4A54522  19.254  15.332   7.065
 4283POPC   C1B54523  18.672  15.157   6.163
 4283POPC   C2B54524  18.657  15.295   6.601
 4283POPC   C3B54525  18.594  14.985   6.937
 4283POPC   C4B54526  18.750  14.988   7.378
 4284POPC   NC354527   1.334  27.816   5.440
 4284POPC   PO454528   1.211  27.165   5.612
 4284POPC   GL154529   1.324  27.432   5.918
 4284POPC   GL254530   1.062  27.646   5.852
 4284POPC   C1A54531   1.336  27.360   6.382
 4284POPC   D2A54532   1.538  27.162   6.716
 4284POPC   C3A54533   1.465  27.336   7.111
 4284POPC   C4A54534   1.385  27.769   7.184
 4284POPC   C1B54535   0.876  27.386   6.170
 4284POPC   C2B54536   0.876  27.559   6.579
 4284POPC   C3B54537   0.950  27.549   7.017
 4284POPC   C4B54538   0.593  27.421   7.266
 4285POPC   NC354539   2.313  34.424   5.568
 4285POPC   PO454540   1.868  34.725   5.242
 4285POPC   GL154541   1.830  34.728   5.751
 4285POPC   GL254542   2.166  34.784   5.893
 4285POPC   C1A54543   1.867  34.644   6.250
 4285POPC   D2A54544   1.968  34.286   6.518
 4285POPC   C3A54545   1.731  34.327   6.874
 4285POPC   C4A54546   1.744  34.612   7.195
 4285POPC   C1B54547   2.342  34.466   6.201
 4285POPC   C2B54548   2.479  34.366   6.610
 4285POPC   C3B54549   2.254  34.420   6.986
 4285POPC   C4B54550   2.273  34.763   7.269
 4286POPC   NC354551  28.031   8.159   5.283
 4286POPC   PO454552  28.650   8.456   5.194
 4286POPC   GL154553  28.430   8.392   5.609
 4286POPC   GL254554  28.725   8.380   5.797
 4286POPC   C1A54555  28.304   8.299   6.082
 4286POPC   D2A54556  28.236   8.489   6.509
 4286POPC   C3A54557  28.202   8.322   6.937
 4286POPC   C4A54558  28.271   8.034   7.253
 4286POPC   C1B54559  28.817   8.258   6.266
 4286POPC   C2B54560  28.667   8.206   6.732
 4286POPC   C3B54561  28.709   8.285   7.211
 4286POPC   C4B54562  28.918   8.327   7.694
 4287POPC   NC354563   6.627  31.945   5.393
 4287POPC   PO454564   6.670  31.301   5.431
 4287POPC   GL154565   6.624  31.465   5.828
 4287POPC   GL254566   6.796  31.787   5.837
 4287POPC   C1A54567   6.767  31.347   6.234
 4287POPC   D2A54568   6.661  31.144   6.628
 4287POPC   C3A54569   6.843  31.304   7.009
 4287POPC   C4A54570   6.661  31.568   7.351
 4287POPC   C1B54571   6.596  31.816   6.215
 4287POPC   C2B54572   6.888  31.703   6.567
 4287POPC   C3B54573   6.777  31.820   6.953
 4287POPC   C4B54574   6.364  31.875   7.068
 4288POPC   NC354575  42.066  30.991   5.422
 4288POPC   PO454576  42.399  30.341   5.416
 4288POPC   GL154577  42.222  30.616   5.738
 4288POPC   GL254578  42.472  30.869   5.795
 4288POPC   C1A54579  42.208  30.636   6.198
 4288POPC   D2A54580  42.278  30.453   6.613
 4288POPC   C3A54581  42.197  30.740   6.973
 4288POPC   C4A54582  42.159  30.582   7.408
 4288POPC   C1B54583  42.651  30.912   6.215
 4288POPC   C2B54584  42.637  30.810   6.644
 4288POPC   C3B54585  42.662  30.553   6.996
 4288POPC   C4B54586  42.612  30.791   7.303
 4289POPC   NC354587  37.614   1.235   5.363
 4289POPC   PO454588  37.865   1.889   5.449
 4289POPC   GL154589  37.672   1.592   5.800
 4289POPC   GL254590  37.694   1.190   5.861
 4289POPC   C1A54591  37.632   1.501   6.264
 4289POPC   D2A54592  37.523   1.287   6.648
 4289POPC   C3A54593  37.627   1.476   7.034
 4289POPC   C4A54594  37.586   1.379   7.457
 4289POPC   C1B54595  37.669   0.970   6.263
 4289POPC   C2B54596  38.036   0.960   6.493
 4289POPC   C3B54597  38.016   1.120   6.883
 4289POPC   C4B54598  37.831   0.940   7.230
 4290POPC   NC354599  24.767  40.830   5.599
 4290POPC   PO454600  24.109  41.029   5.546
 4290POPC   GL154601  24.190  40.875   5.958
 4290POPC   GL254602  24.456  40.652   5.950
 4290POPC   C1A54603  24.381  40.941   6.366
 4290POPC   D2A54604  24.540  41.065   6.783
 4290POPC   C3A54605  24.474  40.748   7.084
 4290POPC   C4A54606  24.331  40.457   7.399
 4290POPC   C1B54607  24.808  40.676   6.247
 4290POPC   C2B54608  24.817  40.615   6.684
 4290POPC   C3B54609  24.974  40.819   7.019
 4290POPC   C4B54610  24.880  41.184   7.255
 4291POPC   NC354611  43.701  32.100   5.429
 4291POPC   PO454612  44.415  32.221   5.548
 4291POPC   GL154613  44.091  32.149   5.815
 4291POPC   GL254614  43.963  32.473   5.696
 4291POPC   C1A54615  43.985  32.076   6.274
 4291POPC   D2A54616  43.985  32.111   6.748
 4291POPC   C3A54617  43.789  31.850   7.057
 4291POPC   C4A54618  43.703  31.949   7.480
 4291POPC   C1B54619  43.957  32.584   6.131
 4291POPC   C2B54620  43.766  32.527   6.540
 4291POPC   C3B54621  43.850  32.568   6.986
 4291POPC   C4B54622  43.499  32.708   7.225
 4292POPC   NC354623  12.313  30.972   5.610
 4292POPC   PO454624  11.876  30.405   5.541
 4292POPC   GL154625  11.922  30.595   5.939
 4292POPC   GL254626  12.280  30.661   6.006
 4292POPC   C1A54627  11.969  30.643   6.390
 4292POPC   D2A54628  12.029  30.470   6.762
 4292POPC   C3A54629  12.057  30.804   7.037
 4292POPC   C4A54630  12.049  30.767   7.473
 4292POPC   C1B54631  12.497  30.955   6.283
 4292POPC   C2B54632  12.433  31.026   6.724
 4292POPC   C3B54633  12.548  30.838   7.116
 4292POPC   C4B54634  12.551  30.868   7.561
 4293POPC   NC354635   1.987   4.544   5.233
 4293POPC   PO454636   1.787   3.886   5.391
 4293POPC   GL154637   1.996   4.201   5.694
 4293POPC   GL254638   1.803   4.507   5.743
 4293POPC   C1A54639   2.103   4.118   6.166
 4293POPC   D2A54640   2.152   3.877   6.575
 4293POPC   C3A54641   2.048   4.169   6.924
 4293POPC   C4A54642   2.282   4.241   7.293
 4293POPC   C1B54643   1.989   4.612   6.154
 4293POPC   C2B54644   1.835   4.458   6.543
 4293POPC   C3B54645   1.728   4.669   6.960
 4293POPC   C4B54646   1.772   4.395   7.336
 4294POPC   NC354647  11.430  30.507   5.679
 4294POPC   PO454648  11.080  30.966   5.338
 4294POPC   GL154649  11.019  30.836   5.760
 4294POPC   GL254650  11.303  31.023   5.851
 4294POPC   C1A54651  11.080  30.743   6.205
 4294POPC   D2A54652  11.121  31.102   6.535
 4294POPC   C3A54653  11.118  30.985   6.987
 4294POPC   C4A54654  11.084  30.539   7.122
 4294POPC   C1B54655  11.550  30.926   6.264
 4294POPC   C2B54656  11.626  30.893   6.732
 4294POPC   C3B54657  11.596  30.628   7.121
 4294POPC   C4B54658  11.427  30.723   7.545
 4295POPC   NC354659  15.188   7.159   5.400
 4295POPC   PO454660  15.007   7.693   5.729
 4295POPC   GL154661  15.270   7.415   5.862
 4295POPC   GL254662  14.953   7.185   5.849
 4295POPC   C1A54663  15.452   7.606   6.263
 4295POPC   D2A54664  15.347   7.426   6.652
 4295POPC   C3A54665  15.393   7.572   7.049
 4295POPC   C4A54666  15.410   7.336   7.403
 4295POPC   C1B54667  15.105   7.160   6.263
 4295POPC   C2B54668  14.990   6.996   6.641
 4295POPC   C3B54669  15.098   7.119   7.021
 4295POPC   C4B54670  14.861   7.261   7.349
 4296POPC   NC354671  38.345   0.598   5.309
 4296POPC   PO454672  38.125   0.307   5.881
 4296POPC   GL154673  38.461   0.539   5.811
 4296POPC   GL254674  38.663   0.284   5.598
 4296POPC   C1A54675  38.511   0.661   6.248
 4296POPC   D2A54676  38.210   0.492   6.591
 4296POPC   C3A54677  38.216   0.667   7.009
 4296POPC   C4A54678  38.500   0.658   7.351
 4296POPC   C1B54679  38.772   0.216   6.040
 4296POPC   C2B54680  38.636   0.204   6.475
 4296POPC   C3B54681  38.662   0.368   6.909
 4296POPC   C4B54682  38.692   0.166   7.325
 4297POPC   NC354683   3.279  42.593   5.382
 4297POPC   PO454684   3.698  42.015   5.503
 4297POPC   GL154685   3.713  42.364   5.801
 4297POPC   GL254686   3.362  42.395   5.834
 4297POPC   C1A54687   3.607  42.456   6.260
 4297POPC   D2A54688   3.455  42.231   6.632
 4297POPC   C3A54689   3.680  42.299   7.009
 4297POPC   C4A54690   3.807  42.411   7.436
 4297POPC   C1B54691   3.148  42.220   6.191
 4297POPC   C2B54692   2.959  42.360   6.561
 4297POPC   C3B54693   2.945  42.405   6.992
 4297POPC   C4B54694   3.087  42.192   7.334
 4298POPC   NC354695  14.802  26.608   5.505
 4298POPC   PO454696  14.326  27.059   5.546
 4298POPC   GL154697  14.505  26.823   5.876
 4298POPC   GL254698  14.437  26.435   5.836
 4298POPC   C1A54699  14.618  26.996   6.291
 4298POPC   D2A54700  14.273  27.034   6.588
 4298POPC   C3A54701  14.200  26.722   6.912
 4298POPC   C4A54702  14.482  26.892   7.191
 4298POPC   C1B54703  14.686  26.496   6.222
 4298POPC   C2B54704  14.628  26.601   6.651
 4298POPC   C3B54705  14.824  26.535   7.029
 4298POPC   C4B54706  14.859  26.694   7.465
 4299POPC   NC354707  18.365  31.503   5.399
 4299POPC   PO454708  18.771  31.010   5.634
 4299POPC   GL154709  18.486  31.344   5.894
 4299POPC   GL254710  18.159  31.576   5.842
 4299POPC   C1A54711  18.210  31.360   6.294
 4299POPC   D2A54712  17.996  31.095   6.608
 4299POPC   C3A54713  18.059  31.346   6.968
 4299POPC   C4A54714  18.303  31.493   7.327
 4299POPC   C1B54715  17.996  31.815   6.189
 4299POPC   C2B54716  18.101  31.785   6.644
 4299POPC   C3B54717  17.988  31.833   7.091
 4299POPC   C4B54718  18.147  31.960   7.506
 4300POPC   NC354719  28.652  34.756   5.397
 4300POPC   PO454720  28.138  34.273   5.356
 4300POPC   GL154721  28.424  34.422   5.695
 4300POPC   GL254722  28.258  34.722   5.761
 4300POPC   C1A54723  28.667  34.611   6.057
 4300POPC   D2A54724  28.653  34.593   6.503
 4300POPC   C3A54725  28.604  34.762   6.925
 4300POPC   C4A54726  28.339  34.494   7.198
 4300POPC   C1B54727  28.153  34.718   6.222
 4300POPC   C2B54728  28.168  34.888   6.675
 4300POPC   C3B54729  28.173  34.980   7.159
 4300POPC   C4B54730  28.063  34.986   7.648
 4301POPC   NC354731  37.318  15.776   5.452
 4301POPC   PO454732  37.929  15.674   5.188
 4301POPC   GL154733  38.017  15.862   5.597
 4301POPC   GL254734  37.708  16.034   5.702
 4301POPC   C1A54735  38.074  15.843   6.043
 4301POPC   D2A54736  37.893  15.763   6.452
 4301POPC   C3A54737  38.024  15.895   6.863
 4301POPC   C4A54738  37.884  15.925   7.287
 4301POPC   C1B54739  37.625  16.131   6.162
 4301POPC   C2B54740  37.748  16.275   6.618
 4301POPC   C3B54741  37.506  16.137   7.009
 4301POPC   C4B54742  37.453  16.137   7.500
 4302POPC   NC354743  15.654  14.820   5.303
 4302POPC   PO454744  15.828  15.444   5.506
 4302POPC   GL154745  15.836  15.062   5.739
 4302POPC   GL254746  15.666  15.224   5.991
 4302POPC   C1A54747  15.929  14.834   6.150
 4302POPC   D2A54748  15.848  15.057   6.552
 4302POPC   C3A54749  15.966  14.905   6.981
 4302POPC   C4A54750  15.917  14.924   7.475
 4302POPC   C1B54751  16.008  15.423   6.151
 4302POPC   C2B54752  16.037  15.564   6.546
 4302POPC   C3B54753  15.779  15.459   6.886
 4302POPC   C4B54754  15.976  15.361   7.237
 4303POPC   NC354755   1.026  29.901   5.369
 4303POPC   PO454756   1.401  30.344   5.211
 4303POPC   GL154757   1.385  30.066   5.680
 4303POPC   GL254758   1.132  29.797   5.847
 4303POPC   C1A54759   1.483  29.949   6.160
 4303POPC   D2A54760   1.487  30.065   6.607
 4303POPC   C3A54761   1.091  29.971   6.837
 4303POPC   C4A54762   1.145  29.992   7.265
 4303POPC   C1B54763   1.195  29.501   6.185
 4303POPC   C2B54764   1.332  29.554   6.608
 4303POPC   C3B54765   1.459  29.659   7.034
 4303POPC   C4B54766   1.329  29.526   7.469
 4304POPC   NC354767  44.667   7.158   5.372
 4304POPC   PO454768   0.060   7.649   5.376
 4304POPC   GL154769  44.976   7.453   5.763
 4304POPC   GL254770  44.622   7.448   5.786
 4304POPC   C1A54771  44.919   7.216   6.167
 4304POPC   D2A54772  44.708   7.160   6.581
 4304POPC   C3A54773  44.845   7.416   6.902
 4304POPC   C4A54774  44.729   7.554   7.319
 4304POPC   C1B54775  44.438   7.383   6.212
 4304POPC   C2B54776  44.320   7.499   6.651
 4304POPC   C3B54777  44.369   7.301   7.034
 4304POPC   C4B54778  44.208   7.118   7.389
 4305POPC   NC354779   4.645  39.566   5.436
 4305POPC   PO454780   4.180  39.273   5.151
 4305POPC   GL154781   4.343  39.188   5.643
 4305POPC   GL254782   4.396  39.487   5.851
 4305POPC   C1A54783   4.514  39.042   6.094
 4305POPC   D2A54784   4.277  39.027   6.522
 4305POPC   C3A54785   4.531  39.044   6.912
 4305POPC   C4A54786   4.446  39.269   7.302
 4305POPC   C1B54787   4.274  39.467   6.240
 4305POPC   C2B54788   4.186  39.740   6.565
 4305POPC   C3B54789   4.202  39.462   6.890
 4305POPC   C4B54790   3.944  39.377   7.238
 4306POPC   NC354791  40.729  41.902   5.449
 4306POPC   PO454792  41.061  41.298   5.267
 4306POPC   GL154793  40.843  41.436   5.633
 4306POPC   GL254794  41.104  41.645   5.741
 4306POPC   C1A54795  40.777  41.458   6.101
 4306POPC   D2A54796  40.570  41.623   6.476
 4306POPC   C3A54797  40.669  41.455   6.873
 4306POPC   C4A54798  40.741  41.689   7.206
 4306POPC   C1B54799  41.275  41.691   6.174
 4306POPC   C2B54800  41.097  41.574   6.582
 4306POPC   C3B54801  41.175  41.494   7.017
 4306POPC   C4B54802  41.190  41.487   7.453
 4307POPC   NC354803  44.671  23.317   5.214
 4307POPC   PO454804  44.272  22.921   5.526
 4307POPC   GL154805  44.415  22.829   5.878
 4307POPC   GL254806  44.726  22.984   5.775
 4307POPC   C1A54807  44.373  22.752   6.292
 4307POPC   D2A54808  44.629  22.882   6.613
 4307POPC   C3A54809  44.347  22.819   6.918
 4307POPC   C4A54810  44.448  22.967   7.265
 4307POPC   C1B54811  44.665  23.191   6.183
 4307POPC   C2B54812  44.970  23.254   6.526
 4307POPC   C3B54813  44.800  23.281   6.947
 4307POPC   C4B54814  44.889  23.217   7.368
 4308POPC   NC354815   2.960  24.083   5.420
 4308POPC   PO454816   2.407  24.557   5.331
 4308POPC   GL154817   2.460  24.533   5.797
 4308POPC   GL254818   2.612  24.211   5.826
 4308POPC   C1A54819   2.625  24.540   6.250
 4308POPC   D2A54820   2.882  24.672   6.640
 4308POPC   C3A54821   2.702  24.564   7.042
 4308POPC   C4A54822   2.576  24.190   7.226
 4308POPC   C1B54823   3.022  24.212   6.062
 4308POPC   C2B54824   3.179  24.249   6.486
 4308POPC   C3B54825   2.995  24.188   6.890
 4308POPC   C4B54826   3.070  24.139   7.330
 4309POPC   NC354827   8.889  44.938   5.271
 4309POPC   PO454828   8.829  44.242   5.366
 4309POPC   GL154829   8.896  44.532   5.674
 4309POPC   GL254830   9.235  44.415   5.761
 4309POPC   C1A54831   8.654  44.621   6.063
 4309POPC   D2A54832   8.686  44.842   6.456
 4309POPC   C3A54833   8.665  44.638   6.841
 4309POPC   C4A54834   8.459  44.554   7.236
 4309POPC   C1B54835   9.399  44.719   6.067
 4309POPC   C2B54836   9.367  44.782   6.514
 4309POPC   C3B54837   9.158  44.891   6.922
 4309POPC   C4B54838   9.003  44.587   7.227
 4310POPC   NC354839  14.763   9.472   5.503
 4310POPC   PO454840  15.287   9.852   5.351
 4310POPC   GL154841  15.249   9.739   5.766
 4310POPC   GL254842  14.931   9.895   5.807
 4310POPC   C1A54843  15.368   9.922   6.166
 4310POPC   D2A54844  15.584   9.803   6.538
 4310POPC   C3A54845  15.393   9.897   6.946
 4310POPC   C4A54846  15.148   9.547   7.102
 4310POPC   C1B54847  14.922   9.637   6.168
 4310POPC   C2B54848  15.064   9.735   6.582
 4310POPC   C3B54849  14.851   9.921   6.959
 4310POPC   C4B54850  14.939   9.928   7.422
 4311POPC   NC354851   3.701  31.424   5.404
 4311POPC   PO454852   3.291  31.926   5.424
 4311POPC   GL154853   3.247  31.656   5.762
 4311POPC   GL254854   3.252  31.295   5.620
 4311POPC   C1A54855   3.418  31.731   6.185
 4311POPC   D2A54856   3.669  31.708   6.543
 4311POPC   C3A54857   3.565  31.783   6.963
 4311POPC   C4A54858   3.794  31.541   7.247
 4311POPC   C1B54859   3.382  31.237   6.041
 4311POPC   C2B54860   3.354  31.288   6.480
 4311POPC   C3B54861   3.547  31.282   6.869
 4311POPC   C4B54862   3.418  31.172   7.275
 4312POPC   NC354863  19.759  40.498   5.557
 4312POPC   PO454864  20.247  40.995   5.650
 4312POPC   GL154865  20.024  40.726   5.927
 4312POPC   GL254866  19.640  40.815   5.971
 4312POPC   C1A54867  19.989  40.674   6.348
 4312POPC   D2A54868  19.820  40.752   6.732
 4312POPC   C3A54869  20.046  40.627   7.047
 4312POPC   C4A54870  19.871  40.263   7.147
 4312POPC   C1B54871  19.676  41.086   6.374
 4312POPC   C2B54872  19.804  41.245   6.820
 4312POPC   C3B54873  19.694  40.958   7.193
 4312POPC   C4B54874  19.589  41.033   7.651
 4313POPC   NC354875  17.122  41.282   5.622
 4313POPC   PO454876  16.861  40.705   5.384
 4313POPC   GL154877  16.856  40.720   5.889
 4313POPC   GL254878  16.968  41.034   6.029
 4313POPC   C1A54879  16.665  40.649   6.372
 4313POPC   D2A54880  16.532  40.408   6.779
 4313POPC   C3A54881  16.767  40.490   7.149
 4313POPC   C4A54882  17.040  40.829   7.222
 4313POPC   C1B54883  16.513  41.070   6.097
 4313POPC   C2B54884  16.447  41.127   6.535
 4313POPC   C3B54885  16.616  40.919   6.901
 4313POPC   C4B54886  16.576  40.943   7.377
 4314POPC   NC354887   8.923  11.667   5.459
 4314POPC   PO454888   9.193  11.047   5.455
 4314POPC   GL154889   8.985  11.154   5.824
 4314POPC   GL254890   8.918  11.478   5.913
 4314POPC   C1A54891   9.161  11.140   6.217
 4314POPC   D2A54892   8.943  11.081   6.567
 4314POPC   C3A54893   9.066  11.237   6.906
 4314POPC   C4A54894   9.016  11.478   7.247
 4314POPC   C1B54895   8.788  11.655   6.298
 4314POPC   C2B54896   8.806  11.692   6.750
 4314POPC   C3B54897   8.545  11.584   7.096
 4314POPC   C4B54898   8.488  11.501   7.555
 4315POPC   NC354899  15.376   5.452   5.321
 4315POPC   PO454900  15.135   4.789   5.419
 4315POPC   GL154901  15.180   5.082   5.744
 4315POPC   GL254902  14.896   5.290   5.865
 4315POPC   C1A54903  15.129   4.926   6.163
 4315POPC   D2A54904  14.934   4.966   6.564
 4315POPC   C3A54905  15.273   5.060   6.841
 4315POPC   C4A54906  15.389   4.883   7.201
 4315POPC   C1B54907  14.941   5.448   6.306
 4315POPC   C2B54908  14.918   5.466   6.783
 4315POPC   C3B54909  15.041   5.344   7.206
 4315POPC   C4B54910  14.903   5.461   7.625
 4316POPC   NC354911  30.486  14.369   4.969
 4316POPC   PO454912  30.943  14.202   5.415
 4316POPC   GL154913  30.551  14.357   5.623
 4316POPC   GL254914  30.601  14.677   5.768
 4316POPC   C1A54915  30.339  14.347   6.044
 4316POPC   D2A54916  30.487  14.427   6.491
 4316POPC   C3A54917  30.327  14.220   6.851
 4316POPC   C4A54918  30.658  14.166   7.127
 4316POPC   C1B54919  30.834  14.356   6.097
 4316POPC   C2B54920  30.992  14.322   6.532
 4316POPC   C3B54921  30.854  14.613   6.842
 4316POPC   C4B54922  30.504  14.668   7.082
 4317POPC   NC354923  31.201  39.831   5.509
 4317POPC   PO454924  31.607  40.327   5.499
 4317POPC   GL154925  31.585  39.948   5.816
 4317POPC   GL254926  31.234  40.025   5.968
 4317POPC   C1A54927  31.534  39.732   6.224
 4317POPC   D2A54928  31.375  39.862   6.629
 4317POPC   C3A54929  31.594  39.697   6.976
 4317POPC   C4A54930  31.646  39.945   7.338
 4317POPC   C1B54931  30.960  40.125   6.305
 4317POPC   C2B54932  30.976  40.226   6.722
 4317POPC   C3B54933  31.253  40.172   7.066
 4317POPC   C4B54934  31.500  40.461   7.332
 4318POPC   NC354935  26.245  16.190   5.527
 4318POPC   PO454936  25.784  15.813   5.165
 4318POPC   GL154937  25.920  15.784   5.651
 4318POPC   GL254938  25.824  16.091   5.787
 4318POPC   C1A54939  26.216  15.764   6.049
 4318POPC   D2A54940  26.349  15.599   6.467
 4318POPC   C3A54941  26.382  15.847   6.831
 4318POPC   C4A54942  26.234  16.070   7.150
 4318POPC   C1B54943  25.755  15.929   6.187
 4318POPC   C2B54944  25.928  15.961   6.580
 4318POPC   C3B54945  25.773  16.178   6.957
 4318POPC   C4B54946  25.794  16.206   7.384
 4319POPC   NC354947  25.349  37.146   5.422
 4319POPC   PO454948  24.789  36.752   5.463
 4319POPC   GL154949  24.971  37.035   5.758
 4319POPC   GL254950  25.221  36.781   5.798
 4319POPC   C1A54951  25.065  37.118   6.209
 4319POPC   D2A54952  25.128  36.952   6.653
 4319POPC   C3A54953  25.069  37.213   7.028
 4319POPC   C4A54954  25.438  37.213   7.218
 4319POPC   C1B54955  25.333  36.480   6.112
 4319POPC   C2B54956  25.333  36.435   6.569
 4319POPC   C3B54957  25.370  36.610   6.974
 4319POPC   C4B54958  25.062  36.737   7.238
 4320POPC   NC354959  39.780   3.286   5.548
 4320POPC   PO454960  39.731   3.870   5.153
 4320POPC   GL154961  39.978   3.940   5.641
 4320POPC   GL254962  40.099   3.622   5.753
 4320POPC   C1A54963  40.014   3.939   6.132
 4320POPC   D2A54964  39.716   3.786   6.484
 4320POPC   C3A54965  39.846   3.635   6.904
 4320POPC   C4A54966  39.788   3.401   7.303
 4320POPC   C1B54967  39.934   3.420   6.167
 4320POPC   C2B54968  39.787   3.263   6.558
 4320POPC   C3B54969  40.108   3.152   6.850
 4320POPC   C4B54970  40.271   3.273   7.250
 4321POPC   NC354971  44.205  12.004   5.275
 4321POPC   PO454972  44.826  11.858   5.498
 4321POPC   GL154973  44.607  11.983   5.861
 4321POPC   GL254974  44.460  12.269   5.704
 4321POPC   C1A54975  44.705  11.926   6.322
 4321POPC   D2A54976  44.902  12.202   6.645
 4321POPC   C3A54977  44.804  12.187   7.078
 4321POPC   C4A54978  44.910  12.168   7.521
 4321POPC   C1B54979  44.285  12.305   6.127
 4321POPC   C2B54980  44.383  12.238   6.558
 4321POPC   C3B54981  44.296  12.149   6.975
 4321POPC   C4B54982  44.110  12.497   7.207
 4322POPC   NC354983  39.241  42.090   5.110
 4322POPC   PO454984  39.589  42.622   5.491
 4322POPC   GL154985  39.452  42.186   5.643
 4322POPC   GL254986  39.086  42.034   5.645
 4322POPC   C1A54987  39.406  42.137   6.098
 4322POPC   D2A54988  39.562  42.002   6.501
 4322POPC   C3A54989  39.454  42.262   6.847
 4322POPC   C4A54990  39.369  42.537   7.200
 4322POPC   C1B54991  38.956  41.920   6.103
 4322POPC   C2B54992  39.039  42.095   6.535
 4322POPC   C3B54993  38.954  42.280   6.956
 4322POPC   C4B54994  38.698  42.179   7.292
 4323POPC   NC354995  33.823  25.587   5.401
 4323POPC   PO454996  34.261  25.071   5.295
 4323POPC   GL154997  34.143  25.268   5.681
 4323POPC   GL254998  33.893  25.029   5.810
 4323POPC   C1A54999  34.165  25.470   6.104
 4323POPC   D2A55000  33.925  25.515   6.512
 4323POPC   C3A55001  34.040  25.167   6.773
 4323POPC   C4A55002  34.081  25.045   7.189
 4323POPC   C1B55003  33.820  25.090   6.273
 4323POPC   C2B55004  33.542  25.150   6.662
 4323POPC   C3B55005  33.588  25.228   7.115
 4323POPC   C4B55006  33.441  25.299   7.552
 4324POPC   NC355007  44.903  27.646   5.377
 4324POPC   PO455008  44.476  27.148   5.514
 4324POPC   GL155009  44.740  27.429   5.799
 4324POPC   GL255010  44.761  27.840   5.831
 4324POPC   C1A55011  44.891  27.510   6.212
 4324POPC   D2A55012  44.703  27.556   6.600
 4324POPC   C3A55013  44.768  27.775   6.957
 4324POPC   C4A55014  44.692  27.607   7.345
 4324POPC   C1B55015  44.562  27.935   6.283
 4324POPC   C2B55016  44.329  27.907   6.727
 4324POPC   C3B55017  44.243  27.821   7.196
 4324POPC   C4B55018  44.404  27.941   7.616
 4325POPC   NC355019  12.761   0.714   5.440
 4325POPC   PO455020  13.145   1.275   5.252
 4325POPC   GL155021  13.064   1.139   5.660
 4325POPC   GL255022  12.971   1.456   5.819
 4325POPC   C1A55023  13.092   1.056   6.120
 4325POPC   D2A55024  12.889   1.234   6.474
 4325POPC   C3A55025  13.071   1.170   6.846
 4325POPC   C4A55026  12.934   1.090   7.229
 4325POPC   C1B55027  12.619   1.517   6.132
 4325POPC   C2B55028  12.447   1.470   6.555
 4325POPC   C3B55029  12.559   1.254   6.924
 4325POPC   C4B55030  12.541   1.362   7.394
 4326POPC   NC355031  37.020  17.194   5.431
 4326POPC   PO455032  36.668  17.792   5.320
 4326POPC   GL155033  36.792  17.639   5.737
 4326POPC   GL255034  36.679  17.306   5.813
 4326POPC   C1A55035  36.648  17.705   6.183
 4326POPC   D2A55036  36.640  17.714   6.631
 4326POPC   C3A55037  37.025  17.597   6.860
 4326POPC   C4A55038  36.867  17.707   7.243
 4326POPC   C1B55039  36.918  17.277   6.190
 4326POPC   C2B55040  36.746  17.217   6.610
 4326POPC   C3B55041  36.747  17.239   7.074
 4326POPC   C4B55042  36.604  17.351   7.488
 4327POPC   NC355043   4.758   9.424   5.354
 4327POPC   PO455044   5.222   9.825   5.229
 4327POPC   GL155045   5.120   9.649   5.684
 4327POPC   GL255046   4.903   9.376   5.849
 4327POPC   C1A55047   5.025   9.836   6.097
 4327POPC   D2A55048   5.176   9.993   6.488
 4327POPC   C3A55049   5.199   9.755   6.878
 4327POPC   C4A55050   5.458   9.651   7.235
 4327POPC   C1B55051   4.721   9.455   6.254
 4327POPC   C2B55052   4.715   9.751   6.606
 4327POPC   C3B55053   4.709   9.734   7.055
 4327POPC   C4B55054   4.961   9.546   7.340
 4328POPC   NC355055  36.511   3.188   5.417
 4328POPC   PO455056  35.814   3.353   5.390
 4328POPC   GL155057  36.110   3.378   5.731
 4328POPC   GL255058  36.134   3.727   5.780
 4328POPC   C1A55059  36.137   3.396   6.210
 4328POPC   D2A55060  36.281   3.424   6.663
 4328POPC   C3A55061  36.000   3.430   7.035
 4328POPC   C4A55062  36.085   3.461   7.488
 4328POPC   C1B55063  36.400   3.822   6.095
 4328POPC   C2B55064  36.195   3.938   6.454
 4328POPC   C3B55065  36.133   3.885   6.844
 4328POPC   C4B55066  36.383   3.789   7.188
 4329POPC   NC355067   3.136  40.831   5.123
 4329POPC   PO455068   2.833  40.991   5.758
 4329POPC   GL155069   2.649  40.680   5.973
 4329POPC   GL255070   2.897  40.406   6.024
 4329POPC   C1A55071   2.484  40.784   6.365
 4329POPC   D2A55072   2.365  40.566   6.717
 4329POPC   C3A55073   2.651  40.787   6.974
 4329POPC   C4A55074   2.564  41.011   7.308
 4329POPC   C1B55075   3.021  40.772   6.309
 4329POPC   C2B55076   2.961  41.137   6.521
 4329POPC   C3B55077   3.129  41.093   6.904
 4329POPC   C4B55078   3.067  41.012   7.322
 4330POPC   NC355079  35.770  35.447   5.389
 4330POPC   PO455080  36.292  35.143   5.215
 4330POPC   GL155081  36.117  35.086   5.644
 4330POPC   GL255082  36.397  34.850   5.714
 4330POPC   C1A55083  35.865  35.224   6.060
 4330POPC   D2A55084  35.969  35.462   6.479
 4330POPC   C3A55085  35.686  35.520   6.860
 4330POPC   C4A55086  35.802  35.640   7.299
 4330POPC   C1B55087  36.369  35.101   6.121
 4330POPC   C2B55088  36.349  35.111   6.574
 4330POPC   C3B55089  36.046  35.128   6.902
 4330POPC   C4B55090  35.745  35.108   7.222
 4331POPC   NC355091  18.562  19.951   5.447
 4331POPC   PO455092  17.970  19.630   5.487
 4331POPC   GL155093  18.256  19.747   5.834
 4331POPC   GL255094  18.271  20.081   5.884
 4331POPC   C1A55095  18.367  19.642   6.271
 4331POPC   D2A55096  18.185  19.331   6.564
 4331POPC   C3A55097  18.235  19.474   6.984
 4331POPC   C4A55098  18.008  19.761   7.234
 4331POPC   C1B55099  17.994  19.983   6.257
 4331POPC   C2B55100  18.163  19.888   6.686
 4331POPC   C3B55101  18.424  19.987   7.039
 4331POPC   C4B55102  18.516  20.348   7.253
 4332POPC   NC355103  23.910  39.711   5.333
 4332POPC   PO455104  23.545  40.295   5.381
 4332POPC   GL155105  23.593  40.121   5.789
 4332POPC   GL255106  23.604  39.747   5.793
 4332POPC   C1A55107  23.806  40.141   6.202
 4332POPC   D2A55108  23.882  39.936   6.612
 4332POPC   C3A55109  23.721  40.136   7.003
 4332POPC   C4A55110  23.812  40.232   7.460
 4332POPC   C1B55111  23.949  39.622   6.122
 4332POPC   C2B55112  24.038  39.441   6.555
 4332POPC   C3B55113  23.993  39.590   6.986
 4332POPC   C4B55114  23.861  39.720   7.383
 4333POPC   NC355115   9.389  13.031   5.219
 4333POPC   PO455116   8.734  12.875   5.322
 4333POPC   GL155117   8.887  12.799   5.789
 4333POPC   GL255118   9.055  12.516   5.994
 4333POPC   C1A55119   8.700  12.814   6.224
 4333POPC   D2A55120   8.516  12.840   6.655
 4333POPC   C3A55121   8.809  12.963   6.980
 4333POPC   C4A55122   8.768  13.329   7.230
 4333POPC   C1B55123   9.247  12.817   6.331
 4333POPC   C2B55124   9.328  12.986   6.786
 4333POPC   C3B55125   9.249  13.044   7.255
 4333POPC   C4B55126   9.217  13.066   7.739
 4334POPC   NC355127  19.172  28.815   5.146
 4334POPC   PO455128  19.536  29.219   5.495
 4334POPC   GL155129  19.656  29.298   5.860
 4334POPC   GL255130  19.837  29.010   5.962
 4334POPC   C1A55131  19.727  29.425   6.275
 4334POPC   D2A55132  20.065  29.353   6.565
 4334POPC   C3A55133  19.994  29.152   6.945
 4334POPC   C4A55134  20.065  28.820   7.218
 4334POPC   C1B55135  19.517  28.959   6.249
 4334POPC   C2B55136  19.573  29.089   6.655
 4334POPC   C3B55137  19.573  28.853   7.029
 4334POPC   C4B55138  19.287  28.873   7.338
 4335POPC   NC355139  26.268  31.970   5.438
 4335POPC   PO455140  25.842  32.475   5.254
 4335POPC   GL155141  25.985  32.386   5.696
 4335POPC   GL255142  25.881  32.041   5.745
 4335POPC   C1A55143  26.024  32.303   6.173
 4335POPC   D2A55144  25.902  32.279   6.615
 4335POPC   C3A55145  26.249  32.356   6.906
 4335POPC   C4A55146  26.153  32.702   7.184
 4335POPC   C1B55147  26.046  31.803   6.102
 4335POPC   C2B55148  26.205  31.865   6.516
 4335POPC   C3B55149  26.011  31.867   6.911
 4335POPC   C4B55150  25.873  32.181   7.210
 4336POPC   NC355151  25.245  10.439   5.435
 4336POPC   PO455152  25.809  10.067   5.640
 4336POPC   GL155153  25.512  10.339   5.870
 4336POPC   GL255154  25.134  10.484   5.929
 4336POPC   C1A55155  25.499  10.405   6.286
 4336POPC   D2A55156  25.307  10.590   6.581
 4336POPC   C3A55157  25.436  10.534   6.954
 4336POPC   C4A55158  25.572  10.899   7.180
 4336POPC   C1B55159  24.884  10.429   6.344
 4336POPC   C2B55160  24.882  10.441   6.830
 4336POPC   C3B55161  24.994  10.682   7.206
 4336POPC   C4B55162  24.911  10.555   7.651
 4337POPC   NC355163  32.818  33.229   5.215
 4337POPC   PO455164  33.241  32.707   5.285
 4337POPC   GL155165  33.030  32.867   5.681
 4337POPC   GL255166  33.064  33.221   5.689
 4337POPC   C1A55167  33.017  32.863   6.143
 4337POPC   D2A55168  32.717  33.039   6.481
 4337POPC   C3A55169  32.908  33.127   6.893
 4337POPC   C4A55170  32.902  32.938   7.294
 4337POPC   C1B55171  32.932  33.349   6.101
 4337POPC   C2B55172  33.202  33.234   6.482
 4337POPC   C3B55173  33.320  33.434   6.893
 4337POPC   C4B55174  33.140  33.386   7.333
 4338POPC   NC355175   7.797  10.677   5.244
 4338POPC   PO455176   7.253  10.647   5.598
 4338POPC   GL155177   7.476  10.595   5.944
 4338POPC   GL255178   7.788  10.699   5.755
 4338POPC   C1A55179   7.371  10.221   6.246
 4338POPC   D2A55180   7.107  10.193   6.650
 4338POPC   C3A55181   7.162  10.619   6.837
 4338POPC   C4A55182   7.353  10.754   7.263
 4338POPC   C1B55183   7.985  10.757   6.136
 4338POPC   C2B55184   7.907  10.728   6.574
 4338POPC   C3B55185   7.824  10.632   7.017
 4338POPC   C4B55186   7.515  10.284   7.037
 4339POPC   NC355187  11.565  16.949   5.351
 4339POPC   PO455188  10.914  16.765   5.318
 4339POPC   GL155189  11.158  16.786   5.711
 4339POPC   GL255190  11.513  16.688   5.803
 4339POPC   C1A55191  11.174  16.838   6.168
 4339POPC   D2A55192  10.976  16.755   6.576
 4339POPC   C3A55193  11.243  16.612   6.902
 4339POPC   C4A55194  11.228  16.823   7.265
 4339POPC   C1B55195  11.515  16.434   6.208
 4339POPC   C2B55196  11.675  16.190   6.550
 4339POPC   C3B55197  11.748  16.347   6.971
 4339POPC   C4B55198  11.541  16.433   7.329
 4340POPC   NC355199  19.305  28.802   5.626
 4340POPC   PO455200  18.875  29.179   5.213
 4340POPC   GL155201  18.968  29.199   5.659
 4340POPC   GL255202  19.181  29.517   5.689
 4340POPC   C1A55203  18.903  28.978   6.098
 4340POPC   D2A55204  18.758  28.740   6.460
 4340POPC   C3A55205  18.992  28.794   6.873
 4340POPC   C4A55206  18.833  29.048   7.254
 4340POPC   C1B55207  19.221  29.362   6.119
 4340POPC   C2B55208  19.094  29.197   6.540
 4340POPC   C3B55209  19.236  29.264   6.990
 4340POPC   C4B55210  19.201  29.408   7.412
 4341POPC   NC355211   5.820  36.157   5.307
 4341POPC   PO455212   6.111  36.555   5.709
 4341POPC   GL155213   5.771  36.296   5.849
 4341POPC   GL255214   5.687  35.932   5.772
 4341POPC   C1A55215   5.817  36.229   6.274
 4341POPC   D2A55216   5.717  36.164   6.674
 4341POPC   C3A55217   6.015  36.107   6.981
 4341POPC   C4A55218   6.152  36.371   7.274
 4341POPC   C1B55219   5.635  35.763   6.202
 4341POPC   C2B55220   5.525  35.709   6.638
 4341POPC   C3B55221   5.628  35.774   7.084
 4341POPC   C4B55222   5.823  36.013   7.462
 4342POPC   NC355223   7.697  30.063   5.511
 4342POPC   PO455224   7.033  30.019   5.422
 4342POPC   GL155225   7.297  29.885   5.791
 4342POPC   GL255226   7.531  30.133   5.976
 4342POPC   C1A55227   7.510  29.671   6.147
 4342POPC   D2A55228   7.778  29.790   6.493
 4342POPC   C3A55229   7.484  29.868   6.855
 4342POPC   C4A55230   7.583  29.878   7.249
 4342POPC   C1B55231   7.389  30.095   6.404
 4342POPC   C2B55232   7.112  30.205   6.729
 4342POPC   C3B55233   7.386  30.350   7.007
 4342POPC   C4B55234   7.405  30.316   7.411
 4343POPC   NC355235  44.307  17.875   5.389
 4343POPC   PO455236  44.841  17.453   5.465
 4343POPC   GL155237  44.649  17.713   5.738
 4343POPC   GL255238  44.679  17.434   5.964
 4343POPC   C1A55239  44.589  17.885   6.141
 4343POPC   D2A55240  44.807  17.724   6.465
 4343POPC   C3A55241  44.633  17.620   6.851
 4343POPC   C4A55242  44.623  17.761   7.287
 4343POPC   C1B55243  44.328  17.326   6.198
 4343POPC   C2B55244  44.270  17.050   6.540
 4343POPC   C3B55245  44.413  16.994   6.969
 4343POPC   C4B55246  44.733  17.263   7.211
 4344POPC   NC355247   8.543  31.545   5.404
 4344POPC   PO455248   8.718  31.009   5.767
 4344POPC   GL155249   9.076  31.314   5.876
 4344POPC   GL255250   9.134  31.667   5.760
 4344POPC   C1A55251   9.272  31.497   6.265
 4344POPC   D2A55252   9.227  31.321   6.719
 4344POPC   C3A55253   8.815  31.275   6.966
 4344POPC   C4A55254   8.716  31.264   7.420
 4344POPC   C1B55255   8.832  31.773   6.099
 4344POPC   C2B55256   8.684  31.869   6.537
 4344POPC   C3B55257   8.893  31.797   6.933
 4344POPC   C4B55258   9.025  31.712   7.352
 4345POPC   NC355259  42.935  24.931   5.312
 4345POPC   PO455260  43.357  24.406   5.550
 4345POPC   GL155261  43.077  24.630   5.793
 4345POPC   GL255262  43.314  24.567   6.057
 4345POPC   C1A55263  42.831  24.498   6.156
 4345POPC   D2A55264  43.076  24.445   6.526
 4345POPC   C3A55265  42.912  24.423   6.947
 4345POPC   C4A55266  42.980  24.671   7.309
 4345POPC   C1B55267  43.557  24.333   6.335
 4345POPC   C2B55268  43.657  24.039   6.662
 4345POPC   C3B55269  43.338  24.001   6.990
 4345POPC   C4B55270  43.350  24.320   7.303
 4346POPC   NC355271  35.669  23.913   5.197
 4346POPC   PO455272  36.327  23.762   5.351
 4346POPC   GL155273  36.041  23.891   5.668
 4346POPC   GL255274  36.293  23.737   5.860
 4346POPC   C1A55275  36.005  24.051   6.116
 4346POPC   D2A55276  35.945  23.821   6.514
 4346POPC   C3A55277  36.160  23.952   6.879
 4346POPC   C4A55278  36.022  23.742   7.235
 4346POPC   C1B55279  36.140  23.431   6.131
 4346POPC   C2B55280  36.335  23.452   6.503
 4346POPC   C3B55281  36.326  23.469   6.924
 4346POPC   C4B55282  36.548  23.681   7.256
 4347POPC   NC355283   2.837  39.889   5.269
 4347POPC   PO455284   2.778  40.547   5.150
 4347POPC   GL155285   2.588  40.293   5.616
 4347POPC   GL255286   2.649  39.943   5.771
 4347POPC   C1A55287   2.424  40.239   6.117
 4347POPC   D2A55288   2.662  40.075   6.517
 4347POPC   C3A55289   2.705  40.262   6.965
 4347POPC   C4A55290   2.387  40.434   7.254
 4347POPC   C1B55291   2.577  39.704   6.140
 4347POPC   C2B55292   2.577  39.551   6.550
 4347POPC   C3B55293   2.570  39.775   6.940
 4347POPC   C4B55294   2.533  39.959   7.383
 4348POPC   NC355295  44.364  25.007   5.450
 4348POPC   PO455296  44.824  25.538   5.456
 4348POPC   GL155297  44.605  25.304   5.801
 4348POPC   GL255298  44.288  25.140   5.951
 4348POPC   C1A55299  44.817  25.195   6.178
 4348POPC   D2A55300   0.015  25.496   6.449
 4348POPC   C3A55301  44.712  25.527   6.765
 4348POPC   C4A55302  44.607  25.383   7.179
 4348POPC   C1B55303  44.379  24.952   6.350
 4348POPC   C2B55304  44.503  25.016   6.779
 4348POPC   C3B55305  44.292  24.989   7.191
 4348POPC   C4B55306  44.296  25.113   7.647
 4349POPC   NC355307   8.411  18.138   5.513
 4349POPC   PO455308   9.001  18.468   5.428
 4349POPC   GL155309   8.838  18.350   5.826
 4349POPC   GL255310   8.991  18.032   5.876
 4349POPC   C1A55311   8.786  18.280   6.287
 4349POPC   D2A55312   9.020  18.252   6.686
 4349POPC   C3A55313   8.724  18.138   7.001
 4349POPC   C4A55314   8.643  18.383   7.350
 4349POPC   C1B55315   9.193  17.967   6.262
 4349POPC   C2B55316   9.350  17.813   6.631
 4349POPC   C3B55317   9.199  17.863   7.017
 4349POPC   C4B55318   9.303  17.783   7.423
 4350POPC   NC355319  38.471  28.153   5.305
 4350POPC   PO455320  38.054  28.688   5.587
 4350POPC   GL155321  38.278  28.540   5.969
 4350POPC   GL255322  38.478  28.297   5.794
 4350POPC   C1A55323  38.445  28.503   6.369
 4350POPC   D2A55324  38.262  28.338   6.683
 4350POPC   C3A55325  38.451  28.429   7.006
 4350POPC   C4A55326  38.790  28.597   7.201
 4350POPC   C1B55327  38.542  28.045   6.132
 4350POPC   C2B55328  38.569  27.938   6.557
 4350POPC   C3B55329  38.772  28.029   6.963
 4350POPC   C4B55330  38.634  28.150   7.398
 4351POPC   NC355331   4.839   2.488   5.441
 4351POPC   PO455332   5.360   2.888   5.254
 4351POPC   GL155333   5.284   2.719   5.723
 4351POPC   GL255334   5.012   2.496   5.902
 4351POPC   C1A55335   5.279   2.776   6.213
 4351POPC   D2A55336   5.278   2.485   6.595
 4351POPC   C3A55337   5.182   2.607   7.022
 4351POPC   C4A55338   5.279   2.556   7.463
 4351POPC   C1B55339   4.842   2.566   6.291
 4351POPC   C2B55340   4.852   2.791   6.618
 4351POPC   C3B55341   4.686   2.731   6.971
 4351POPC   C4B55342   4.873   2.864   7.352
 4352POPC   NC355343  11.932   8.778   5.376
 4352POPC   PO455344  12.218   9.354   5.542
 4352POPC   GL155345  12.117   9.015   5.855
 4352POPC   GL255346  11.812   8.788   5.868
 4352POPC   C1A55347  12.039   8.965   6.305
 4352POPC   D2A55348  12.224   9.172   6.609
 4352POPC   C3A55349  12.156   9.207   7.016
 4352POPC   C4A55350  12.546   9.348   7.186
 4352POPC   C1B55351  12.195   8.548   6.066
 4352POPC   C2B55352  12.345   8.367   6.478
 4352POPC   C3B55353  12.390   8.415   6.938
 4352POPC   C4B55354  12.121   8.698   7.165
 4353POPC   NC355355  37.174  20.088   5.258
 4353POPC   PO455356  36.495  20.306   5.466
 4353POPC   GL155357  36.661  19.947   5.856
 4353POPC   GL255358  37.066  19.941   5.941
 4353POPC   C1A55359  36.729  19.794   6.318
 4353POPC   D2A55360  36.938  19.958   6.706
 4353POPC   C3A55361  36.748  19.802   7.074
 4353POPC   C4A55362  36.514  19.428   7.151
 4353POPC   C1B55363  37.195  19.614   6.269
 4353POPC   C2B55364  37.077  19.456   6.682
 4353POPC   C3B55365  37.153  19.502   7.137
 4353POPC   C4B55366  37.084  19.644   7.596
 4354POPC   NC355367   0.076   3.155   5.553
 4354POPC   PO455368   0.540   2.702   5.317
 4354POPC   GL155369   0.690   2.674   5.752
 4354POPC   GL255370   0.596   3.011   5.818
 4354POPC   C1A55371   0.594   2.719   6.241
 4354POPC   D2A55372   0.220   2.734   6.571
 4354POPC   C3A55373   0.317   2.595   7.007
 4354POPC   C4A55374   0.686   2.761   7.221
 4354POPC   C1B55375   0.337   3.159   6.187
 4354POPC   C2B55376   0.480   3.201   6.639
 4354POPC   C3B55377   0.283   3.091   7.051
 4354POPC   C4B55378   0.258   2.819   7.477
 4355POPC   NC355379  15.868  19.149   5.428
 4355POPC   PO455380  16.215  18.596   5.296
 4355POPC   GL155381  16.062  18.703   5.735
 4355POPC   GL255382  15.904  19.020   5.901
 4355POPC   C1A55383  16.287  18.813   6.157
 4355POPC   D2A55384  16.371  19.012   6.572
 4355POPC   C3A55385  16.104  18.856   6.931
 4355POPC   C4A55386  16.162  18.695   7.355
 4355POPC   C1B55387  15.973  19.253   6.283
 4355POPC   C2B55388  15.932  19.324   6.738
 4355POPC   C3B55389  15.878  19.269   7.182
 4355POPC   C4B55390  16.126  19.191   7.545
 4356POPC   NC355391  18.589   7.339   5.247
 4356POPC   PO455392  18.116   7.644   5.501
 4356POPC   GL155393  18.314   7.349   5.799
 4356POPC   GL255394  18.691   7.267   5.788
 4356POPC   C1A55395  18.130   7.307   6.214
 4356POPC   D2A55396  17.909   7.525   6.550
 4356POPC   C3A55397  18.210   7.524   6.864
 4356POPC   C4A55398  18.341   7.360   7.221
 4356POPC   C1B55399  18.649   7.482   6.214
 4356POPC   C2B55400  18.814   7.449   6.666
 4356POPC   C3B55401  18.810   7.529   7.115
 4356POPC   C4B55402  18.756   7.326   7.517
 4357POPC   NC355403  27.393  12.652   5.371
 4357POPC   PO455404  27.941  12.786   5.610
 4357POPC   GL155405  27.640  12.836   5.926
 4357POPC   GL255406  27.283  12.774   5.889
 4357POPC   C1A55407  27.641  12.806   6.368
 4357POPC   D2A55408  27.438  12.665   6.729
 4357POPC   C3A55409  27.651  12.716   7.143
 4357POPC   C4A55410  27.601  12.487   7.552
 4357POPC   C1B55411  27.243  13.090   6.241
 4357POPC   C2B55412  27.391  13.173   6.672
 4357POPC   C3B55413  27.212  12.976   7.071
 4357POPC   C4B55414  27.256  12.862   7.514
 4358POPC   NC355415  35.364  11.657   5.494
 4358POPC   PO455416  35.225  10.989   5.293
 4358POPC   GL155417  35.207  11.218   5.690
 4358POPC   GL255418  34.895  11.147   5.822
 4358POPC   C1A55419  35.546  11.193   6.043
 4358POPC   D2A55420  35.741  10.964   6.408
 4358POPC   C3A55421  35.730  11.175   6.790
 4358POPC   C4A55422  35.654  11.234   7.209
 4358POPC   C1B55423  35.067  11.298   6.174
 4358POPC   C2B55424  35.262  11.187   6.537
 4358POPC   C3B55425  35.244  11.366   6.931
 4358POPC   C4B55426  35.007  11.589   7.192
 4359POPC   NC355427  16.760  19.589   5.530
 4359POPC   PO455428  16.417  20.126   5.365
 4359POPC   GL155429  16.513  19.968   5.784
 4359POPC   GL255430  16.903  19.991   5.817
 4359POPC   C1A55431  16.575  19.793   6.211
 4359POPC   D2A55432  16.752  19.946   6.604
 4359POPC   C3A55433  16.649  19.797   7.023
 4359POPC   C4A55434  16.317  19.557   7.238
 4359POPC   C1B55435  17.081  19.717   6.171
 4359POPC   C2B55436  17.197  19.667   6.621
 4359POPC   C3B55437  17.144  19.492   7.032
 4359POPC   C4B55438  16.825  19.443   7.357
 4360POPC   NC355439  36.456  12.935   5.504
 4360POPC   PO455440  37.148  12.947   5.418
 4360POPC   GL155441  37.110  12.725   5.814
 4360POPC   GL255442  36.724  12.646   5.864
 4360POPC   C1A55443  37.014  12.817   6.253
 4360POPC   D2A55444  36.811  12.601   6.554
 4360POPC   C3A55445  36.901  12.822   6.901
 4360POPC   C4A55446  37.003  12.858   7.322
 4360POPC   C1B55447  36.486  12.857   6.227
 4360POPC   C2B55448  36.496  13.036   6.664
 4360POPC   C3B55449  36.494  13.047   7.139
 4360POPC   C4B55450  36.671  13.174   7.554
 4361POPC   NC355451   4.208  12.683   5.161
 4361POPC   PO455452   4.608  13.034   5.438
 4361POPC   GL155453   4.225  12.896   5.660
 4361POPC   GL255454   4.405  12.583   5.698
 4361POPC   C1A55455   4.028  12.927   6.105
 4361POPC   D2A55456   3.956  12.592   6.369
 4361POPC   C3A55457   3.977  12.614   6.835
 4361POPC   C4A55458   4.147  12.912   7.207
 4361POPC   C1B55459   4.511  12.781   6.115
 4361POPC   C2B55460   4.375  12.818   6.555
 4361POPC   C3B55461   4.456  12.615   6.939
 4361POPC   C4B55462   4.597  12.696   7.368
 4362POPC   NC355463  28.978  43.962   5.394
 4362POPC   PO455464  29.662  43.859   5.464
 4362POPC   GL155465  29.436  43.835   5.869
 4362POPC   GL255466  29.079  43.893   5.899
 4362POPC   C1A55467  29.426  43.944   6.310
 4362POPC   D2A55468  29.214  44.066   6.674
 4362POPC   C3A55469  29.383  43.869   7.014
 4362POPC   C4A55470  29.477  44.106   7.339
 4362POPC   C1B55471  28.924  43.863   6.318
 4362POPC   C2B55472  28.879  43.686   6.735
 4362POPC   C3B55473  28.905  43.939   7.095
 4362POPC   C4B55474  28.928  43.871   7.541
 4363POPC   NC355475  44.710   1.956   5.315
 4363POPC   PO455476  44.140   1.614   5.598
 4363POPC   GL155477  44.488   1.825   5.792
 4363POPC   GL255478  44.460   2.147   5.723
 4363POPC   C1A55479  44.776   1.980   6.128
 4363POPC   D2A55480  44.590   1.955   6.549
 4363POPC   C3A55481  44.822   1.907   6.914
 4363POPC   C4A55482  44.735   1.908   7.336
 4363POPC   C1B55483  44.359   2.272   6.154
 4363POPC   C2B55484  44.354   2.428   6.570
 4363POPC   C3B55485  44.513   2.330   6.972
 4363POPC   C4B55486  44.378   2.274   7.379
 4364POPC   NC355487   6.162  42.665   5.513
 4364POPC   PO455488   5.510  42.538   5.319
 4364POPC   GL155489   5.723  42.570   5.746
 4364POPC   GL255490   5.795  42.233   5.829
 4364POPC   C1A55491   5.880  42.712   6.182
 4364POPC   D2A55492   6.037  42.624   6.634
 4364POPC   C3A55493   5.801  42.378   6.986
 4364POPC   C4A55494   5.694  42.234   7.442
 4364POPC   C1B55495   6.083  42.265   6.202
 4364POPC   C2B55496   6.201  42.042   6.557
 4364POPC   C3B55497   6.272  41.955   6.979
 4364POPC   C4B55498   6.190  42.230   7.345
 4365POPC   NC355499   1.490  34.270   5.522
 4365POPC   PO455500   1.158  34.815   5.298
 4365POPC   GL155501   1.212  34.681   5.706
 4365POPC   GL255502   0.972  34.411   5.745
 4365POPC   C1A55503   1.400  34.727   6.094
 4365POPC   D2A55504   1.418  34.483   6.481
 4365POPC   C3A55505   1.327  34.642   6.882
 4365POPC   C4A55506   1.271  34.421   7.299
 4365POPC   C1B55507   0.929  34.522   6.189
 4365POPC   C2B55508   0.893  34.423   6.636
 4365POPC   C3B55509   0.863  34.570   7.059
 4365POPC   C4B55510   1.124  34.915   7.264
 4366POPC   NC355511  41.720  39.301   5.394
 4366POPC   PO455512  41.238  38.874   5.247
 4366POPC   GL155513  41.409  39.182   5.750
 4366POPC   GL255514  41.617  39.459   5.868
 4366POPC   C1A55515  41.532  39.084   6.226
 4366POPC   D2A55516  41.764  39.010   6.635
 4366POPC   C3A55517  41.436  39.018   6.917
 4366POPC   C4A55518  41.424  38.926   7.356
 4366POPC   C1B55519  41.791  39.526   6.291
 4366POPC   C2B55520  41.596  39.477   6.717
 4366POPC   C3B55521  41.569  39.419   7.188
 4366POPC   C4B55522  41.752  39.540   7.559
 4367POPC   NC355523  21.231   9.151   5.368
 4367POPC   PO455524  21.499   8.433   5.453
 4367POPC   GL155525  21.381   8.758   5.716
 4367POPC   GL255526  21.564   9.083   5.733
 4367POPC   C1A55527  21.411   8.721   6.156
 4367POPC   D2A55528  21.640   8.629   6.556
 4367POPC   C3A55529  21.415   8.767   6.948
 4367POPC   C4A55530  21.488   8.959   7.343
 4367POPC   C1B55531  21.383   9.231   6.096
 4367POPC   C2B55532  21.385   9.090   6.528
 4367POPC   C3B55533  21.391   9.291   6.927
 4367POPC   C4B55534  21.083   9.263   7.245
 4368POPC   NC355535   3.414  10.836   5.615
 4368POPC   PO455536   3.540  11.435   5.318
 4368POPC   GL155537   3.529  11.386   5.777
 4368POPC   GL255538   3.735  11.129   5.841
 4368POPC   C1A55539   3.489  11.346   6.263
 4368POPC   D2A55540   3.138  11.470   6.571
 4368POPC   C3A55541   3.223  11.498   7.034
 4368POPC   C4A55542   3.270  11.103   7.234
 4368POPC   C1B55543   3.958  11.476   6.073
 4368POPC   C2B55544   3.910  11.608   6.478
 4368POPC   C3B55545   3.924  11.489   6.894
 4368POPC   C4B55546   3.742  11.254   7.214
 4369POPC   NC355547  17.040  43.364   5.529
 4369POPC   PO455548  16.504  42.962   5.386
 4369POPC   GL155549  16.600  43.081   5.803
 4369POPC   GL255550  16.532  43.387   5.911
 4369POPC   C1A55551  16.507  43.035   6.269
 4369POPC   D2A55552  16.684  43.179   6.674
 4369POPC   C3A55553  17.047  42.922   6.760
 4369POPC   C4A55554  17.082  42.618   7.097
 4369POPC   C1B55555  16.936  43.268   6.162
 4369POPC   C2B55556  17.105  43.437   6.544
 4369POPC   C3B55557  17.139  43.392   6.944
 4369POPC   C4B55558  16.925  43.104   7.234
 4370POPC   NC355559  41.563   3.033   5.350
 4370POPC   PO455560  41.214   2.527   5.493
 4370POPC   GL155561  41.386   2.855   5.797
 4370POPC   GL255562  41.768   2.930   5.799
 4370POPC   C1A55563  41.494   2.792   6.224
 4370POPC   D2A55564  41.331   2.564   6.560
 4370POPC   C3A55565  41.373   2.804   6.890
 4370POPC   C4A55566  41.435   2.872   7.317
 4370POPC   C1B55567  41.934   3.099   6.180
 4370POPC   C2B55568  41.756   3.050   6.596
 4370POPC   C3B55569  41.857   2.926   7.009
 4370POPC   C4B55570  41.844   3.165   7.375
 4371POPC   NC355571  38.888  12.334   5.529
 4371POPC   PO455572  38.474  11.813   5.290
 4371POPC   GL155573  38.423  11.925   5.741
 4371POPC   GL255574  38.347  12.274   5.820
 4371POPC   C1A55575  38.566  11.974   6.190
 4371POPC   D2A55576  38.703  11.865   6.604
 4371POPC   C3A55577  38.776  12.109   6.986
 4371POPC   C4A55578  38.534  12.351   7.274
 4371POPC   C1B55579  38.268  12.389   6.296
 4371POPC   C2B55580  38.337  12.261   6.762
 4371POPC   C3B55581  38.339  11.835   7.004
 4371POPC   C4B55582  38.085  11.516   7.217
 4372POPC   NC355583  26.536  42.726   5.359
 4372POPC   PO455584  26.560  42.223   5.795
 4372POPC   GL155585  26.870  42.495   5.891
 4372POPC   GL255586  27.135  42.254   5.907
 4372POPC   C1A55587  26.909  42.563   6.305
 4372POPC   D2A55588  27.185  42.442   6.611
 4372POPC   C3A55589  27.026  42.511   6.987
 4372POPC   C4A55590  26.767  42.571   7.388
 4372POPC   C1B55591  26.969  42.047   6.298
 4372POPC   C2B55592  26.715  42.211   6.616
 4372POPC   C3B55593  26.620  42.188   7.014
 4372POPC   C4B55594  26.932  42.112   7.276
 4373POPC   NC355595  37.923   6.029   5.468
 4373POPC   PO455596  37.512   5.524   5.420
 4373POPC   GL155597  37.678   5.698   5.760
 4373POPC   GL255598  37.348   5.907   5.758
 4373POPC   C1A55599  37.844   5.855   6.155
 4373POPC   D2A55600  38.006   6.053   6.522
 4373POPC   C3A55601  37.871   5.851   6.880
 4373POPC   C4A55602  37.695   5.718   7.232
 4373POPC   C1B55603  37.352   5.641   6.134
 4373POPC   C2B55604  37.540   5.630   6.549
 4373POPC   C3B55605  37.310   5.780   6.905
 4373POPC   C4B55606  37.201   5.561   7.291
 4374POPC   NC355607  25.130  36.417   5.377
 4374POPC   PO455608  25.558  35.936   5.502
 4374POPC   GL155609  25.240  36.059   5.833
 4374POPC   GL255610  24.931  36.317   5.816
 4374POPC   C1A55611  25.326  35.989   6.291
 4374POPC   D2A55612  25.630  36.003   6.644
 4374POPC   C3A55613  25.507  36.116   7.050
 4374POPC   C4A55614  25.342  36.318   7.398
 4374POPC   C1B55615  24.842  36.129   6.181
 4374POPC   C2B55616  24.899  36.157   6.603
 4374POPC   C3B55617  25.003  36.226   7.008
 4374POPC   C4B55618  25.034  35.928   7.308
 4375POPC   NC355619  39.045  36.655   5.319
 4375POPC   PO455620  39.522  37.062   5.496
 4375POPC   GL155621  39.441  37.137   5.889
 4375POPC   GL255622  39.129  36.942   5.870
 4375POPC   C1A55623  39.387  37.040   6.334
 4375POPC   D2A55624  39.272  36.629   6.446
 4375POPC   C3A55625  39.247  36.557   6.875
 4375POPC   C4A55626  39.283  36.858   7.154
 4375POPC   C1B55627  38.885  36.950   6.255
 4375POPC   C2B55628  38.989  37.059   6.683
 4375POPC   C3B55629  38.988  37.263   7.065
 4375POPC   C4B55630  38.940  37.072   7.480
 4376POPC   NC355631  42.834  19.141   5.354
 4376POPC   PO455632  43.296  18.656   5.199
 4376POPC   GL155633  43.088  18.729   5.655
 4376POPC   GL255634  42.718  18.760   5.692
 4376POPC   C1A55635  43.182  18.932   6.121
 4376POPC   D2A55636  43.457  19.012   6.528
 4376POPC   C3A55637  43.375  18.921   6.977
 4376POPC   C4A55638  43.376  19.140   7.375
 4376POPC   C1B55639  42.674  19.054   6.092
 4376POPC   C2B55640  42.667  19.226   6.524
 4376POPC   C3B55641  42.864  19.062   6.919
 4376POPC   C4B55642  42.972  18.723   7.257
 4377POPC   NC355643  23.676  37.098   5.447
 4377POPC   PO455644  23.633  36.394   5.303
 4377POPC   GL155645  23.796  36.633   5.674
 4377POPC   GL255646  23.459  36.743   5.815
 4377POPC   C1A55647  23.831  36.639   6.147
 4377POPC   D2A55648  23.517  36.725   6.493
 4377POPC   C3A55649  23.677  36.817   6.877
 4377POPC   C4A55650  23.909  36.743   7.226
 4377POPC   C1B55651  23.550  37.085   6.124
 4377POPC   C2B55652  23.847  37.153   6.472
 4377POPC   C3B55653  23.888  37.314   6.881
 4377POPC   C4B55654  23.695  37.204   7.247
 4378POPC   NC355655  26.807  32.780   5.657
 4378POPC   PO455656  26.830  33.289   5.213
 4378POPC   GL155657  26.994  33.287   5.699
 4378POPC   GL255658  26.819  33.138   6.011
 4378POPC   C1A55659  27.289  33.279   6.081
 4378POPC   D2A55660  27.362  33.117   6.495
 4378POPC   C3A55661  27.080  33.086   6.858
 4378POPC   C4A55662  27.060  33.289   7.255
 4378POPC   C1B55663  26.519  33.298   6.315
 4378POPC   C2B55664  26.524  33.289   6.762
 4378POPC   C3B55665  26.554  32.899   6.927
 4378POPC   C4B55666  26.807  32.855   7.235
 4379POPC   NC355667  25.801  26.653   5.284
 4379POPC   PO455668  26.460  27.081   5.365
 4379POPC   GL155669  26.346  26.838   5.737
 4379POPC   GL255670  25.961  26.886   5.743
 4379POPC   C1A55671  26.248  26.910   6.175
 4379POPC   D2A55672  26.050  26.723   6.510
 4379POPC   C3A55673  26.164  26.892   6.908
 4379POPC   C4A55674  26.319  26.888   7.319
 4379POPC   C1B55675  25.729  27.003   6.136
 4379POPC   C2B55676  25.570  26.902   6.557
 4379POPC   C3B55677  25.701  26.643   6.905
 4379POPC   C4B55678  25.863  26.687   7.312
 4380POPC   NC355679   1.174  21.275   4.994
 4380POPC   PO455680   0.990  21.674   5.536
 4380POPC   GL155681   1.164  21.485   5.863
 4380POPC   GL255682   1.244  21.818   5.966
 4380POPC   C1A55683   1.162  21.412   6.295
 4380POPC   D2A55684   1.368  21.156   6.553
 4380POPC   C3A55685   1.243  21.318   6.906
 4380POPC   C4A55686   1.368  21.359   7.312
 4380POPC   C1B55687   0.916  21.870   6.240
 4380POPC   C2B55688   0.906  21.758   6.635
 4380POPC   C3B55689   1.189  21.834   6.942
 4380POPC   C4B55690   1.064  21.753   7.340
 4381POPC   NC355691   2.173  32.945   5.395
 4381POPC   PO455692   1.543  33.151   5.409
 4381POPC   GL155693   1.732  33.122   5.843
 4381POPC   GL255694   2.079  33.021   5.909
 4381POPC   C1A55695   1.703  33.063   6.307
 4381POPC   D2A55696   1.996  33.201   6.657
 4381POPC   C3A55697   1.971  33.049   7.102
 4381POPC   C4A55698   1.708  32.983   7.458
 4381POPC   C1B55699   2.086  32.741   6.292
 4381POPC   C2B55700   1.979  32.683   6.740
 4381POPC   C3B55701   1.990  32.548   7.170
 4381POPC   C4B55702   2.162  32.780   7.531
 4382POPC   NC355703  19.243  34.647   5.417
 4382POPC   PO455704  18.689  34.208   5.539
 4382POPC   GL155705  18.907  34.529   5.822
 4382POPC   GL255706  18.674  34.794   5.872
 4382POPC   C1A55707  19.083  34.728   6.240
 4382POPC   D2A55708  19.198  34.510   6.660
 4382POPC   C3A55709  19.325  34.592   7.125
 4382POPC   C4A55710  19.089  34.475   7.514
 4382POPC   C1B55711  18.623  34.984   6.251
 4382POPC   C2B55712  18.756  34.829   6.651
 4382POPC   C3B55713  18.834  34.677   7.051
 4382POPC   C4B55714  18.674  34.719   7.439
 4383POPC   NC355715  15.558  42.355   5.538
 4383POPC   PO455716  14.952  42.161   5.279
 4383POPC   GL155717  15.043  42.152   5.736
 4383POPC   GL255718  14.966  42.494   5.811
 4383POPC   C1A55719  15.207  42.240   6.185
 4383POPC   D2A55720  15.389  42.487   6.556
 4383POPC   C3A55721  15.474  42.277   6.974
 4383POPC   C4A55722  15.354  42.116   7.382
 4383POPC   C1B55723  15.023  42.730   6.217
 4383POPC   C2B55724  15.045  42.850   6.662
 4383POPC   C3B55725  15.060  42.563   6.994
 4383POPC   C4B55726  14.807  42.562   7.316
 4384POPC   NC355727  35.029  22.149   5.336
 4384POPC   PO455728  35.583  22.498   5.275
 4384POPC   GL155729  35.527  22.197   5.627
 4384POPC   GL255730  35.202  22.101   5.801
 4384POPC   C1A55731  35.623  22.225   6.078
 4384POPC   D2A55732  35.362  22.237   6.451
 4384POPC   C3A55733  35.497  22.365   6.823
 4384POPC   C4A55734  35.557  22.071   7.148
 4384POPC   C1B55735  34.958  22.110   6.157
 4384POPC   C2B55736  34.890  21.893   6.523
 4384POPC   C3B55737  35.121  21.867   6.902
 4384POPC   C4B55738  35.053  22.244   7.089
 4385POPC   NC355739  26.419  22.938   5.442
 4385POPC   PO455740  25.718  22.980   5.358
 4385POPC   GL155741  25.968  23.011   5.709
 4385POPC   GL255742  25.963  22.660   5.676
 4385POPC   C1A55743  26.224  22.929   6.079
 4385POPC   D2A55744  26.275  22.932   6.510
 4385POPC   C3A55745  26.223  23.193   6.853
 4385POPC   C4A55746  25.973  23.090   7.203
 4385POPC   C1B55747  25.822  22.565   6.068
 4385POPC   C2B55748  25.854  22.586   6.487
 4385POPC   C3B55749  25.947  22.675   6.907
 4385POPC   C4B55750  25.628  22.696   7.242
 4386POPC   NC355751  11.666  18.769   5.543
 4386POPC   PO455752  11.222  19.181   5.233
 4386POPC   GL155753  11.210  18.987   5.706
 4386POPC   GL255754  11.080  19.308   5.804
 4386POPC   C1A55755  11.437  18.901   6.156
 4386POPC   D2A55756  11.768  18.803   6.496
 4386POPC   C3A55757  11.611  18.670   6.908
 4386POPC   C4A55758  11.312  18.954   7.134
 4386POPC   C1B55759  11.164  19.326   6.240
 4386POPC   C2B55760  11.138  19.162   6.673
 4386POPC   C3B55761  10.941  19.364   7.034
 4386POPC   C4B55762  11.039  19.350   7.441
 4387POPC   NC355763  20.882  21.280   5.397
 4387POPC   PO455764  20.287  21.044   5.484
 4387POPC   GL155765  20.475  21.416   5.753
 4387POPC   GL255766  20.816  21.359   5.911
 4387POPC   C1A55767  20.468  21.592   6.192
 4387POPC   D2A55768  20.696  21.396   6.566
 4387POPC   C3A55769  20.593  21.470   7.008
 4387POPC   C4A55770  20.332  21.637   7.342
 4387POPC   C1B55771  20.983  21.686   6.236
 4387POPC   C2B55772  21.173  21.599   6.639
 4387POPC   C3B55773  21.092  21.511   7.074
 4387POPC   C4B55774  20.899  21.106   7.253
 4388POPC   NC355775  13.904  11.863   5.536
 4388POPC   PO455776  13.420  12.357   5.454
 4388POPC   GL155777  13.589  12.199   5.807
 4388POPC   GL255778  13.892  12.412   5.825
 4388POPC   C1A55779  13.600  11.888   6.168
 4388POPC   D2A55780  13.382  11.666   6.525
 4388POPC   C3A55781  13.364  11.844   6.959
 4388POPC   C4A55782  13.450  12.260   7.117
 4388POPC   C1B55783  13.775  12.387   6.242
 4388POPC   C2B55784  13.606  12.380   6.617
 4388POPC   C3B55785  13.855  12.493   6.904
 4388POPC   C4B55786  13.782  12.651   7.261
 4389POPC   NC355787  36.601  15.918   5.500
 4389POPC   PO455788  36.002  15.659   5.253
 4389POPC   GL155789  36.087  15.772   5.714
 4389POPC   GL255790  36.355  15.518   5.724
 4389POPC   C1A55791  36.064  16.070   6.144
 4389POPC   D2A55792  35.865  16.197   6.562
 4389POPC   C3A55793  36.077  16.096   6.989
 4389POPC   C4A55794  35.963  15.981   7.405
 4389POPC   C1B55795  36.220  15.586   6.158
 4389POPC   C2B55796  36.184  15.787   6.562
 4389POPC   C3B55797  36.052  15.594   6.939
 4389POPC   C4B55798  36.312  15.627   7.299
 4390POPC   NC355799  34.120   6.627   5.560
 4390POPC   PO455800  34.759   6.507   5.338
 4390POPC   GL155801  34.830   6.423   5.779
 4390POPC   GL255802  34.509   6.538   5.903
 4390POPC   C1A55803  34.908   6.521   6.243
 4390POPC   D2A55804  34.725   6.558   6.689
 4390POPC   C3A55805  34.844   6.843   7.082
 4390POPC   C4A55806  34.915   6.659   7.537
 4390POPC   C1B55807  34.445   6.886   6.188
 4390POPC   C2B55808  34.279   6.906   6.614
 4390POPC   C3B55809  34.356   6.716   7.001
 4390POPC   C4B55810  34.633   6.401   7.203
 4391POPC   NC355811   1.942  19.309   5.488
 4391POPC   PO455812   1.589  19.867   5.180
 4391POPC   GL155813   1.779  19.746   5.702
 4391POPC   GL255814   2.088  19.666   5.861
 4391POPC   C1A55815   1.759  19.853   6.199
 4391POPC   D2A55816   1.898  20.214   6.488
 4391POPC   C3A55817   2.148  20.201   6.859
 4391POPC   C4A55818   2.202  20.119   7.303
 4391POPC   C1B55819   2.453  19.627   6.126
 4391POPC   C2B55820   2.410  19.843   6.505
 4391POPC   C3B55821   2.134  19.693   6.790
 4391POPC   C4B55822   2.164  19.613   7.193
 4392POPC   NC355823  26.348  28.508   5.514
 4392POPC   PO455824  25.660  28.463   5.384
 4392POPC   GL155825  25.724  28.479   5.822
 4392POPC   GL255826  26.045  28.314   5.905
 4392POPC   C1A55827  25.838  28.632   6.248
 4392POPC   D2A55828  25.952  28.312   6.533
 4392POPC   C3A55829  25.796  28.477   6.874
 4392POPC   C4A55830  25.845  28.479   7.276
 4392POPC   C1B55831  26.347  28.139   6.228
 4392POPC   C2B55832  26.341  27.984   6.668
 4392POPC   C3B55833  26.264  28.234   7.019
 4392POPC   C4B55834  26.317  28.242   7.462
 4393POPC   NC355835  37.473  31.183   5.237
 4393POPC   PO455836  37.845  31.680   5.539
 4393POPC   GL155837  37.865  31.317   5.813
 4393POPC   GL255838  37.505  31.186   5.751
 4393POPC   C1A55839  37.935  31.353   6.285
 4393POPC   D2A55840  37.675  31.572   6.568
 4393POPC   C3A55841  37.907  31.516   6.897
 4393POPC   C4A55842  37.853  31.500   7.327
 4393POPC   C1B55843  37.450  31.304   6.167
 4393POPC   C2B55844  37.542  31.076   6.541
 4393POPC   C3B55845  37.486  31.256   6.962
 4393POPC   C4B55846  37.183  31.390   7.234
 4394POPC   NC355847  23.335  39.102   5.385
 4394POPC   PO455848  23.914  39.253   5.239
 4394POPC   GL155849  23.855  39.255   5.697
 4394POPC   GL255850  24.064  38.931   5.745
 4394POPC   C1A55851  23.543  39.319   6.087
 4394POPC   D2A55852  23.529  39.500   6.542
 4394POPC   C3A55853  23.600  39.272   6.971
 4394POPC   C4A55854  23.518  39.290   7.460
 4394POPC   C1B55855  23.999  39.070   6.173
 4394POPC   C2B55856  23.915  38.909   6.578
 4394POPC   C3B55857  24.045  38.962   6.978
 4394POPC   C4B55858  23.991  39.190   7.327
 4395POPC   NC355859  12.102  19.251   5.311
 4395POPC   PO455860  11.625  19.241   5.636
 4395POPC   GL155861  11.976  19.081   5.846
 4395POPC   GL255862  12.321  19.231   5.786
 4395POPC   C1A55863  11.978  19.221   6.268
 4395POPC   D2A55864  12.108  19.254   6.687
 4395POPC   C3A55865  11.794  19.136   7.003
 4395POPC   C4A55866  11.806  18.838   7.360
 4395POPC   C1B55867  12.458  19.025   6.162
 4395POPC   C2B55868  12.314  18.776   6.508
 4395POPC   C3B55869  12.127  18.788   6.907
 4395POPC   C4B55870  12.224  19.136   7.259
 4396POPC   NC355871   2.784  17.420   5.399
 4396POPC   PO455872   2.581  17.997   5.314
 4396POPC   GL155873   2.578  17.877   5.753
 4396POPC   GL255874   2.914  17.715   5.835
 4396POPC   C1A55875   2.501  17.607   6.126
 4396POPC   D2A55876   2.590  17.311   6.460
 4396POPC   C3A55877   2.607  17.496   6.861
 4396POPC   C4A55878   2.612  17.322   7.266
 4396POPC   C1B55879   3.037  17.386   6.159
 4396POPC   C2B55880   3.191  17.321   6.598
 4396POPC   C3B55881   2.959  17.106   6.913
 4396POPC   C4B55882   3.047  17.050   7.371
 4397POPC   NC355883  21.901   1.525   5.484
 4397POPC   PO455884  22.290   2.162   5.359
 4397POPC   GL155885  22.326   2.088   5.791
 4397POPC   GL255886  22.043   1.851   5.894
 4397POPC   C1A55887  22.238   2.246   6.208
 4397POPC   D2A55888  21.936   2.048   6.487
 4397POPC   C3A55889  22.092   1.877   6.876
 4397POPC   C4A55890  21.947   2.105   7.256
 4397POPC   C1B55891  22.232   1.651   6.287
 4397POPC   C2B55892  22.542   1.637   6.640
 4397POPC   C3B55893  22.541   1.632   7.101
 4397POPC   C4B55894  22.511   1.560   7.546
 4398POPC   NC355895  33.491  40.342   5.433
 4398POPC   PO455896  34.112  40.237   5.179
 4398POPC   GL155897  33.963  40.052   5.647
 4398POPC   GL255898  33.603  39.913   5.748
 4398POPC   C1A55899  33.968  39.888   6.135
 4398POPC   D2A55900  33.755  39.799   6.579
 4398POPC   C3A55901  33.869  40.046   6.974
 4398POPC   C4A55902  34.007  39.974   7.427
 4398POPC   C1B55903  33.490  40.069   6.201
 4398POPC   C2B55904  33.566  40.279   6.613
 4398POPC   C3B55905  33.503  40.414   7.052
 4398POPC   C4B55906  33.559  40.237   7.449
 4399POPC   NC355907  32.358   6.027   5.586
 4399POPC   PO455908  32.399   6.529   5.086
 4399POPC   GL155909  32.289   6.528   5.591
 4399POPC   GL255910  32.304   6.814   5.818
 4399POPC   C1A55911  32.290   6.429   6.111
 4399POPC   D2A55912  32.300   6.683   6.511
 4399POPC   C3A55913  32.147   6.545   6.919
 4399POPC   C4A55914  32.227   6.466   7.341
 4399POPC   C1B55915  32.553   6.976   6.157
 4399POPC   C2B55916  32.656   7.060   6.589
 4399POPC   C3B55917  32.525   6.863   6.964
 4399POPC   C4B55918  32.177   6.970   7.224
 4400POPC   NC355919  38.061  19.296   5.098
 4400POPC   PO455920  37.426  19.146   5.280
 4400POPC   GL155921  37.711  19.130   5.718
 4400POPC   GL255922  37.951  18.879   5.779
 4400POPC   C1A55923  37.866  19.263   6.143
 4400POPC   D2A55924  37.529  19.251   6.485
 4400POPC   C3A55925  37.606  19.223   6.950
 4400POPC   C4A55926  37.944  19.209   7.271
 4400POPC   C1B55927  37.657  18.808   6.135
 4400POPC   C2B55928  37.709  18.740   6.583
 4400POPC   C3B55929  37.855  18.749   7.016
 4400POPC   C4B55930  37.641  18.783   7.392
 4401POPC   NC355931   0.635  14.004   5.490
 4401POPC   PO455932   0.301  14.526   5.419
 4401POPC   GL155933   0.366  14.649   5.828
 4401POPC   GL255934   0.098  14.879   5.892
 4401POPC   C1A55935   0.608  14.439   6.191
 4401POPC   D2A55936   0.611  14.092   6.484
 4401POPC   C3A55937   0.580  14.171   6.915
 4401POPC   C4A55938   0.666  14.556   7.112
 4401POPC   C1B55939   0.255  14.788   6.293
 4401POPC   C2B55940   0.387  14.611   6.667
 4401POPC   C3B55941   0.214  14.745   7.031
 4401POPC   C4B55942   0.288  14.703   7.519
 4402POPC   NC355943  13.475  43.216   5.437
 4402POPC   PO455944  14.110  43.535   5.630
 4402POPC   GL155945  13.848  43.153   5.797
 4402POPC   GL255946  13.744  42.790   5.756
 4402POPC   C1A55947  13.631  43.103   6.199
 4402POPC   D2A55948  13.602  43.442   6.519
 4402POPC   C3A55949  13.328  43.372   6.850
 4402POPC   C4A55950  13.468  43.228   7.230
 4402POPC   C1B55951  14.060  42.807   6.131
 4402POPC   C2B55952  14.081  42.725   6.599
 4402POPC   C3B55953  13.802  42.812   6.985
 4402POPC   C4B55954  13.850  42.955   7.405
 4403POPC   NC355955  11.491   3.944   5.368
 4403POPC   PO455956  11.561   3.223   5.193
 4403POPC   GL155957  11.430   3.279   5.654
 4403POPC   GL255958  11.496   3.634   5.792
 4403POPC   C1A55959  11.256   3.316   6.106
 4403POPC   D2A55960  11.440   3.455   6.507
 4403POPC   C3A55961  11.261   3.322   6.866
 4403POPC   C4A55962  10.960   3.531   7.116
 4403POPC   C1B55963  11.648   3.874   6.171
 4403POPC   C2B55964  11.765   4.119   6.551
 4403POPC   C3B55965  11.653   4.014   6.965
 4403POPC   C4B55966  11.453   3.659   7.200
 4404POPC   NC355967  30.023  30.122   5.333
 4404POPC   PO455968  30.112  29.425   5.223
 4404POPC   GL155969  29.928  29.706   5.600
 4404POPC   GL255970  30.229  29.931   5.755
 4404POPC   C1A55971  29.712  29.712   6.022
 4404POPC   D2A55972  29.521  29.693   6.444
 4404POPC   C3A55973  29.636  29.950   6.808
 4404POPC   C4A55974  29.839  30.015   7.214
 4404POPC   C1B55975  30.052  30.077   6.150
 4404POPC   C2B55976  30.041  29.824   6.525
 4404POPC   C3B55977  30.208  29.792   6.940
 4404POPC   C4B55978  30.319  29.925   7.380
 4405POPC   NC355979  39.804  29.917   5.307
 4405POPC   PO455980  40.351  29.923   5.154
 4405POPC   GL155981  40.190  29.899   5.656
 4405POPC   GL255982  39.852  29.727   5.778
 4405POPC   C1A55983  40.152  29.905   6.154
 4405POPC   D2A55984  40.223  29.898   6.615
 4405POPC   C3A55985  40.032  30.201   6.897
 4405POPC   C4A55986  40.101  29.977   7.260
 4405POPC   C1B55987  39.651  29.781   6.195
 4405POPC   C2B55988  39.704  29.901   6.647
 4405POPC   C3B55989  39.627  29.874   7.094
 4405POPC   C4B55990  39.470  29.575   7.402
 4406POPC   NC355991  18.918  18.159   5.585
 4406POPC   PO455992  19.190  18.815   5.463
 4406POPC   GL155993  19.172  18.528   5.834
 4406POPC   GL255994  19.404  18.211   5.788
 4406POPC   C1A55995  19.117  18.325   6.250
 4406POPC   D2A55996  19.200  18.406   6.684
 4406POPC   C3A55997  19.000  18.176   6.961
 4406POPC   C4A55998  18.859  18.348   7.348
 4406POPC   C1B55999  19.495  17.871   6.090
 4406POPC   C2B56000  19.470  17.717   6.528
 4406POPC   C3B56001  19.549  17.907   6.926
 4406POPC   C4B56002  19.357  18.072   7.278
 4407POPC   NC356003  13.143  40.587   5.602
 4407POPC   PO456004  13.559  41.022   5.299
 4407POPC   GL156005  13.683  40.905   5.732
 4407POPC   GL256006  13.840  40.585   5.832
 4407POPC   C1A56007  13.812  41.013   6.146
 4407POPC   D2A56008  13.628  41.022   6.562
 4407POPC   C3A56009  13.764  40.684   6.829
 4407POPC   C4A56010  13.953  40.854   7.180
 4407POPC   C1B56011  13.678  40.527   6.287
 4407POPC   C2B56012  13.310  40.620   6.575
 4407POPC   C3B56013  13.285  40.770   7.006
 4407POPC   C4B56014  13.298  40.595   7.456
 4408POPC   NC356015  43.206   9.285   5.414
 4408POPC   PO456016  42.912   8.669   5.330
 4408POPC   GL156017  42.906   8.941   5.698
 4408POPC   GL256018  42.977   9.276   5.852
 4408POPC   C1A56019  42.863   8.797   6.122
 4408POPC   D2A56020  43.085   8.634   6.477
 4408POPC   C3A56021  42.852   8.605   6.860
 4408POPC   C4A56022  42.963   8.839   7.243
 4408POPC   C1B56023  43.184   9.257   6.208
 4408POPC   C2B56024  43.154   9.485   6.575
 4408POPC   C3B56025  43.100   9.253   6.950
 4408POPC   C4B56026  43.379   9.144   7.268
 4409POPC   NC356027  17.865  13.073   5.530
 4409POPC   PO456028  17.263  13.029   5.295
 4409POPC   GL156029  17.342  12.909   5.737
 4409POPC   GL256030  17.658  12.783   5.914
 4409POPC   C1A56031  17.171  12.715   6.098
 4409POPC   D2A56032  17.394  12.603   6.457
 4409POPC   C3A56033  17.188  12.756   6.827
 4409POPC   C4A56034  17.368  12.821   7.223
 4409POPC   C1B56035  17.867  12.460   6.190
 4409POPC   C2B56036  17.825  12.285   6.559
 4409POPC   C3B56037  17.637  12.490   6.901
 4409POPC   C4B56038  17.717  12.403   7.300
 4410POPC   NC356039  16.142  34.290   5.516
 4410POPC   PO456040  15.643  33.909   5.414
 4410POPC   GL156041  15.855  33.708   5.752
 4410POPC   GL256042  15.596  33.721   5.999
 4410POPC   C1A56043  16.090  33.741   6.127
 4410POPC   D2A56044  16.183  33.845   6.546
 4410POPC   C3A56045  16.118  33.577   6.875
 4410POPC   C4A56046  16.125  33.409   7.277
 4410POPC   C1B56047  15.644  33.471   6.357
 4410POPC   C2B56048  15.643  33.405   6.802
 4410POPC   C3B56049  15.685  33.648   7.167
 4410POPC   C4B56050  15.509  33.903   7.469
 4411POPC   NC356051  30.156  32.588   5.506
 4411POPC   PO456052  29.990  32.002   5.325
 4411POPC   GL156053  29.981  32.171   5.770
 4411POPC   GL256054  29.809  31.884   5.912
 4411POPC   C1A56055  30.203  32.413   6.147
 4411POPC   D2A56056  30.202  32.581   6.579
 4411POPC   C3A56057  29.808  32.467   6.740
 4411POPC   C4A56058  29.756  32.376   7.158
 4411POPC   C1B56059  30.165  31.884   6.220
 4411POPC   C2B56060  30.299  32.074   6.597
 4411POPC   C3B56061  30.024  31.995   6.920
 4411POPC   C4B56062  30.019  31.961   7.352
 4412POPC   NC356063   5.781  30.389   5.365
 4412POPC   PO456064   5.760  31.066   5.276
 4412POPC   GL156065   5.782  30.860   5.660
 4412POPC   GL256066   6.099  30.863   5.836
 4412POPC   C1A56067   5.643  30.799   6.117
 4412POPC   D2A56068   5.812  30.642   6.513
 4412POPC   C3A56069   5.599  30.574   6.912
 4412POPC   C4A56070   5.736  30.558   7.306
 4412POPC   C1B56071   6.392  30.957   6.172
 4412POPC   C2B56072   6.282  30.807   6.587
 4412POPC   C3B56073   6.022  30.885   6.950
 4412POPC   C4B56074   6.019  31.090   7.340
 4413POPC   NC356075  13.010  43.857   5.340
 4413POPC   PO456076  12.464  43.479   5.176
 4413POPC   GL156077  12.645  43.649   5.647
 4413POPC   GL256078  12.726  44.009   5.758
 4413POPC   C1A56079  12.845  43.668   6.120
 4413POPC   D2A56080  13.163  43.699   6.440
 4413POPC   C3A56081  12.997  43.771   6.816
 4413POPC   C4A56082  12.933  43.716   7.215
 4413POPC   C1B56083  12.654  44.147   6.221
 4413POPC   C2B56084  12.627  44.106   6.683
 4413POPC   C3B56085  12.837  44.210   7.070
 4413POPC   C4B56086  12.832  44.123   7.527
 4414POPC   NC356087   9.126  39.375   5.276
 4414POPC   PO456088   8.624  38.996   5.475
 4414POPC   GL156089   8.960  39.208   5.739
 4414POPC   GL256090   9.098  39.575   5.748
 4414POPC   C1A56091   8.889  39.309   6.175
 4414POPC   D2A56092   8.825  39.002   6.507
 4414POPC   C3A56093   8.905  39.197   6.933
 4414POPC   C4A56094   8.664  39.098   7.315
 4414POPC   C1B56095   9.346  39.612   6.137
 4414POPC   C2B56096   9.293  39.646   6.581
 4414POPC   C3B56097   9.359  39.485   6.981
 4414POPC   C4B56098   9.211  39.626   7.374
 4415POPC   NC356099  17.158  35.667   5.501
 4415POPC   PO456100  17.711  35.311   5.302
 4415POPC   GL156101  17.671  35.420   5.747
 4415POPC   GL256102  17.655  35.103   5.914
 4415POPC   C1A56103  17.715  35.485   6.236
 4415POPC   D2A56104  17.918  35.529   6.664
 4415POPC   C3A56105  17.621  35.379   6.966
 4415POPC   C4A56106  17.443  35.246   7.375
 4415POPC   C1B56107  17.766  34.951   6.322
 4415POPC   C2B56108  17.920  35.025   6.731
 4415POPC   C3B56109  17.815  34.933   7.118
 4415POPC   C4B56110  17.881  35.093   7.516
 4416POPC   NC356111  40.916  17.223   5.490
 4416POPC   PO456112  40.450  17.644   5.184
 4416POPC   GL156113  40.595  17.602   5.631
 4416POPC   GL256114  40.556  17.906   5.793
 4416POPC   C1A56115  40.694  17.463   6.081
 4416POPC   D2A56116  40.465  17.289   6.449
 4416POPC   C3A56117  40.601  17.366   6.865
 4416POPC   C4A56118  40.988  17.328   7.083
 4416POPC   C1B56119  40.847  17.952   6.159
 4416POPC   C2B56120  40.848  17.804   6.591
 4416POPC   C3B56121  40.840  17.859   7.032
 4416POPC   C4B56122  40.509  17.643   7.277
 4417POPC   NC356123  30.931  33.436   5.450
 4417POPC   PO456124  30.551  34.039   5.478
 4417POPC   GL156125  30.738  33.840   5.826
 4417POPC   GL256126  31.003  34.070   5.892
 4417POPC   C1A56127  30.527  33.706   6.226
 4417POPC   D2A56128  30.211  33.602   6.530
 4417POPC   C3A56129  30.329  33.759   6.918
 4417POPC   C4A56130  30.693  33.735   7.137
 4417POPC   C1B56131  31.026  33.826   6.257
 4417POPC   C2B56132  30.877  33.956   6.635
 4417POPC   C3B56133  31.042  34.089   6.983
 4417POPC   C4B56134  31.136  33.889   7.333
 4418POPC   NC356135  16.987   5.571   5.574
 4418POPC   PO456136  16.582   6.002   5.307
 4418POPC   GL156137  16.562   5.865   5.750
 4418POPC   GL256138  16.906   5.964   5.859
 4418POPC   C1A56139  16.586   5.554   6.127
 4418POPC   D2A56140  16.780   5.462   6.564
 4418POPC   C3A56141  16.528   5.634   6.909
 4418POPC   C4A56142  16.555   5.917   7.240
 4418POPC   C1B56143  16.985   5.839   6.256
 4418POPC   C2B56144  16.989   6.061   6.627
 4418POPC   C3B56145  17.021   5.948   7.053
 4418POPC   C4B56146  17.083   5.873   7.521
 4419POPC   NC356147  11.715  27.533   5.631
 4419POPC   PO456148  11.208  27.816   5.268
 4419POPC   GL156149  11.275  27.806   5.737
 4419POPC   GL256150  11.203  27.467   5.821
 4419POPC   C1A56151  11.313  27.835   6.215
 4419POPC   D2A56152  11.533  27.572   6.554
 4419POPC   C3A56153  11.403  27.519   6.961
 4419POPC   C4A56154  11.134  27.659   7.260
 4419POPC   C1B56155  10.977  27.255   6.157
 4419POPC   C2B56156  11.080  27.230   6.577
 4419POPC   C3B56157  10.914  27.324   6.957
 4419POPC   C4B56158  11.135  27.113   7.232
 4420POPC   NC356159  21.907  37.128   5.378
 4420POPC   PO456160  22.478  36.904   5.562
 4420POPC   GL156161  22.178  36.902   5.881
 4420POPC   GL256162  22.005  37.263   5.863
 4420POPC   C1A56163  22.152  36.679   6.304
 4420POPC   D2A56164  22.264  36.494   6.721
 4420POPC   C3A56165  22.229  36.774   7.085
 4420POPC   C4A56166  22.325  37.242   7.138
 4420POPC   C1B56167  22.093  37.186   6.294
 4420POPC   C2B56168  21.977  36.987   6.673
 4420POPC   C3B56169  21.839  37.104   7.051
 4420POPC   C4B56170  21.750  36.890   7.426
 4421POPC   NC356171  19.214  21.990   5.639
 4421POPC   PO456172  18.790  22.309   5.527
 4421POPC   GL156173  19.000  22.403   5.890
 4421POPC   GL256174  18.635  22.509   5.984
 4421POPC   C1A56175  19.311  22.221   6.218
 4421POPC   D2A56176  19.257  21.970   6.573
 4421POPC   C3A56177  19.373  22.140   6.971
 4421POPC   C4A56178  19.050  21.955   7.198
 4421POPC   C1B56179  18.837  22.301   6.349
 4421POPC   C2B56180  18.982  22.391   6.780
 4421POPC   C3B56181  18.924  22.454   7.237
 4421POPC   C4B56182  18.768  22.630   7.651
 4422POPC   NC356183  23.029  40.954   5.400
 4422POPC   PO456184  22.882  40.427   5.677
 4422POPC   GL156185  22.928  40.803   5.888
 4422POPC   GL256186  22.628  40.918   5.740
 4422POPC   C1A56187  23.002  40.806   6.316
 4422POPC   D2A56188  23.125  40.695   6.707
 4422POPC   C3A56189  22.984  40.988   6.940
 4422POPC   C4A56190  23.103  40.891   7.313
 4422POPC   C1B56191  22.473  40.818   6.133
 4422POPC   C2B56192  22.544  40.557   6.437
 4422POPC   C3B56193  22.609  40.614   6.859
 4422POPC   C4B56194  22.588  40.781   7.255
 4423POPC   NC356195   5.491  39.656   5.542
 4423POPC   PO456196   6.014  39.961   5.294
 4423POPC   GL156197   5.785  40.050   5.708
 4423POPC   GL256198   6.040  40.127   5.913
 4423POPC   C1A56199   5.692  39.810   6.129
 4423POPC   D2A56200   5.868  39.625   6.494
 4423POPC   C3A56201   5.661  39.669   6.886
 4423POPC   C4A56202   5.695  39.812   7.306
 4423POPC   C1B56203   6.082  40.071   6.358
 4423POPC   C2B56204   6.079  39.987   6.802
 4423POPC   C3B56205   6.168  39.993   7.231
 4423POPC   C4B56206   6.174  40.291   7.625
 4424POPC   NC356207  10.731  42.878   5.506
 4424POPC   PO456208  10.047  42.676   5.551
 4424POPC   GL156209  10.344  42.941   5.862
 4424POPC   GL256210  10.564  43.229   5.810
 4424POPC   C1A56211  10.418  43.131   6.291
 4424POPC   D2A56212  10.514  42.882   6.642
 4424POPC   C3A56213  10.582  42.979   7.037
 4424POPC   C4A56214  10.344  43.317   7.124
 4424POPC   C1B56215  10.903  43.119   6.104
 4424POPC   C2B56216  10.955  43.144   6.531
 4424POPC   C3B56217  10.777  43.405   6.831
 4424POPC   C4B56218  10.824  43.383   7.270
 4425POPC   NC356219  28.486   4.498   4.998
 4425POPC   PO456220  28.255   3.932   5.230
 4425POPC   GL156221  28.263   4.208   5.614
 4425POPC   GL256222  28.481   3.986   5.745
 4425POPC   C1A56223  28.119   4.428   6.037
 4425POPC   D2A56224  28.032   4.330   6.503
 4425POPC   C3A56225  28.239   4.436   6.943
 4425POPC   C4A56226  28.313   4.737   7.319
 4425POPC   C1B56227  28.214   3.934   6.092
 4425POPC   C2B56228  28.334   3.902   6.486
 4425POPC   C3B56229  28.147   3.882   6.855
 4425POPC   C4B56230  28.306   4.012   7.213
 4426POPC   NC356231  12.403  12.852   5.565
 4426POPC   PO456232  11.736  12.791   5.523
 4426POPC   GL156233  11.971  12.833   5.879
 4426POPC   GL256234  11.869  13.155   5.996
 4426POPC   C1A56235  11.962  12.712   6.308
 4426POPC   D2A56236  11.954  12.872   6.711
 4426POPC   C3A56237  11.966  12.598   7.073
 4426POPC   C4A56238  12.183  12.663   7.460
 4426POPC   C1B56239  12.290  13.159   6.244
 4426POPC   C2B56240  12.499  13.209   6.678
 4426POPC   C3B56241  12.321  13.006   7.049
 4426POPC   C4B56242  11.949  13.084   7.257
 4427POPC   NC356243   2.141  24.215   5.546
 4427POPC   PO456244   1.951  23.690   5.132
 4427POPC   GL156245   1.945  23.695   5.625
 4427POPC   GL256246   2.190  23.854   5.891
 4427POPC   C1A56247   1.882  23.492   6.056
 4427POPC   D2A56248   2.090  23.668   6.437
 4427POPC   C3A56249   2.084  23.519   6.872
 4427POPC   C4A56250   1.813  23.640   7.238
 4427POPC   C1B56251   2.315  24.126   6.252
 4427POPC   C2B56252   2.376  24.288   6.697
 4427POPC   C3B56253   2.112  24.090   7.051
 4427POPC   C4B56254   2.291  23.779   7.301
 4428POPC   NC356255   2.556  18.398   5.546
 4428POPC   PO456256   2.018  18.196   5.154
 4428POPC   GL156257   2.130  18.134   5.609
 4428POPC   GL256258   2.085  18.453   5.699
 4428POPC   C1A56259   2.194  18.024   6.109
 4428POPC   D2A56260   2.017  17.887   6.585
 4428POPC   C3A56261   2.039  18.126   6.986
 4428POPC   C4A56262   2.304  18.475   7.086
 4428POPC   C1B56263   2.000  18.489   6.125
 4428POPC   C2B56264   1.977  18.408   6.549
 4428POPC   C3B56265   1.896  18.711   6.868
 4428POPC   C4B56266   1.853  18.651   7.292
 4429POPC   NC356267  25.398  34.025   5.455
 4429POPC   PO456268  24.944  33.491   5.332
 4429POPC   GL156269  25.086  33.699   5.730
 4429POPC   GL256270  25.397  33.543   5.772
 4429POPC   C1A56271  25.060  33.970   6.134
 4429POPC   D2A56272  24.852  34.177   6.529
 4429POPC   C3A56273  25.085  34.174   6.931
 4429POPC   C4A56274  25.114  33.980   7.361
 4429POPC   C1B56275  25.201  33.423   6.186
 4429POPC   C2B56276  25.133  33.530   6.646
 4429POPC   C3B56277  25.315  33.617   7.050
 4429POPC   C4B56278  25.626  33.914   7.206
 4430POPC   NC356279   4.495  23.375   5.402
 4430POPC   PO456280   4.175  23.951   5.246
 4430POPC   GL156281   4.278  23.880   5.740
 4430POPC   GL256282   4.508  23.604   5.854
 4430POPC   C1A56283   4.376  23.965   6.195
 4430POPC   D2A56284   4.597  23.727   6.533
 4430POPC   C3A56285   4.488  23.784   6.951
 4430POPC   C4A56286   4.289  24.015   7.272
 4430POPC   C1B56287   4.256  23.461   6.216
 4430POPC   C2B56288   4.288  23.327   6.642
 4430POPC   C3B56289   4.095  23.472   7.000
 4430POPC   C4B56290   4.328  23.438   7.329
 4431POPC   NC356291  44.684  24.228   5.363
 4431POPC   PO456292  44.430  24.669   5.765
 4431POPC   GL156293  44.841  24.589   5.915
 4431POPC   GL256294  44.933  24.240   5.803
 4431POPC   C1A56295  44.873  24.615   6.367
 4431POPC   D2A56296  44.484  24.486   6.556
 4431POPC   C3A56297  44.419  24.522   6.979
 4431POPC   C4A56298  44.757  24.755   7.137
 4431POPC   C1B56299  44.666  24.149   6.149
 4431POPC   C2B56300  44.852  24.116   6.519
 4431POPC   C3B56301  44.901  24.342   6.870
 4431POPC   C4B56302  44.734  24.229   7.264
 4432POPC   NC356303  37.311  33.483   5.632
 4432POPC   PO456304  37.959  33.297   5.458
 4432POPC   GL156305  37.766  33.629   5.840
 4432POPC   GL256306  37.520  33.937   5.867
 4432POPC   C1A56307  37.633  33.699   6.314
 4432POPC   D2A56308  37.535  33.538   6.761
 4432POPC   C3A56309  37.859  33.505   7.102
 4432POPC   C4A56310  37.887  33.677   7.535
 4432POPC   C1B56311  37.485  34.197   6.277
 4432POPC   C2B56312  37.421  34.069   6.748
 4432POPC   C3B56313  37.492  33.877   7.188
 4432POPC   C4B56314  37.518  34.014   7.646
 4433POPC   NC356315  41.115  11.746   5.575
 4433POPC   PO456316  40.688  11.158   5.336
 4433POPC   GL156317  40.608  11.353   5.735
 4433POPC   GL256318  40.517  11.711   5.652
 4433POPC   C1A56319  40.753  11.286   6.202
 4433POPC   D2A56320  40.678  10.992   6.564
 4433POPC   C3A56321  40.841  11.066   6.992
 4433POPC   C4A56322  40.608  11.093   7.373
 4433POPC   C1B56323  40.401  11.631   6.097
 4433POPC   C2B56324  40.414  11.509   6.554
 4433POPC   C3B56325  40.592  11.595   7.010
 4433POPC   C4B56326  40.781  11.604   7.453
 4434POPC   NC356327  10.038  43.564   5.284
 4434POPC   PO456328   9.660  44.096   5.273
 4434POPC   GL156329   9.609  44.059   5.683
 4434POPC   GL256330   9.986  44.066   5.713
 4434POPC   C1A56331   9.335  43.992   6.082
 4434POPC   D2A56332   9.193  43.956   6.546
 4434POPC   C3A56333   9.486  44.081   6.922
 4434POPC   C4A56334   9.614  43.947   7.372
 4434POPC   C1B56335   9.795  43.738   6.006
 4434POPC   C2B56336   9.661  43.743   6.428
 4434POPC   C3B56337   9.862  43.747   6.823
 4434POPC   C4B56338   9.955  43.602   7.231
 4435POPC   NC356339  40.551  28.864   5.297
 4435POPC   PO456340  41.069  29.267   5.389
 4435POPC   GL156341  40.981  29.205   5.789
 4435POPC   GL256342  40.786  28.945   5.741
 4435POPC   C1A56343  41.173  29.088   6.147
 4435POPC   D2A56344  41.018  28.975   6.556
 4435POPC   C3A56345  41.121  29.258   6.894
 4435POPC   C4A56346  40.823  29.405   7.191
 4435POPC   C1B56347  40.665  28.891   6.152
 4435POPC   C2B56348  40.498  29.014   6.539
 4435POPC   C3B56349  40.655  28.970   6.970
 4435POPC   C4B56350  40.493  29.071   7.404
 4436POPC   NC356351   4.803   1.644   5.440
 4436POPC   PO456352   5.220   2.218   5.527
 4436POPC   GL156353   5.187   1.985   5.864
 4436POPC   GL256354   4.871   1.971   5.842
 4436POPC   C1A56355   5.134   2.104   6.277
 4436POPC   D2A56356   5.444   1.987   6.547
 4436POPC   C3A56357   5.330   1.832   6.919
 4436POPC   C4A56358   5.219   2.062   7.287
 4436POPC   C1B56359   4.756   1.765   6.229
 4436POPC   C2B56360   4.851   1.750   6.679
 4436POPC   C3B56361   4.894   1.693   7.128
 4436POPC   C4B56362   4.741   1.882   7.505
 4437POPC   NC356363  16.612  18.859   5.210
 4437POPC   PO456364  16.338  19.408   5.412
 4437POPC   GL156365  16.417  19.107   5.745
 4437POPC   GL256366  16.566  18.754   5.716
 4437POPC   C1A56367  16.693  19.134   6.121
 4437POPC   D2A56368  16.816  19.365   6.489
 4437POPC   C3A56369  16.806  19.154   6.879
 4437POPC   C4A56370  16.495  19.078   7.192
 4437POPC   C1B56371  16.787  18.624   6.095
 4437POPC   C2B56372  16.893  18.755   6.522
 4437POPC   C3B56373  16.630  18.677   6.876
 4437POPC   C4B56374  16.673  18.605   7.288
 4438POPC   NC356375  42.782  23.129   5.214
 4438POPC   PO456376  43.137  22.584   5.382
 4438POPC   GL156377  43.178  22.767   5.758
 4438POPC   GL256378  43.301  23.082   5.666
 4438POPC   C1A56379  43.012  23.008   6.115
 4438POPC   D2A56380  42.987  23.203   6.519
 4438POPC   C3A56381  42.908  22.903   6.819
 4438POPC   C4A56382  43.124  22.745   7.158
 4438POPC   C1B56383  43.512  23.004   6.075
 4438POPC   C2B56384  43.404  22.830   6.465
 4438POPC   C3B56385  43.392  23.058   6.830
 4438POPC   C4B56386  43.506  23.065   7.239
 4439POPC   NC356387  33.265  19.960   5.471
 4439POPC   PO456388  32.716  19.632   5.440
 4439POPC   GL156389  32.926  19.688   5.836
 4439POPC   GL256390  33.302  19.633   5.866
 4439POPC   C1A56391  32.740  19.790   6.251
 4439POPC   D2A56392  32.878  19.645   6.635
 4439POPC   C3A56393  32.634  19.678   6.970
 4439POPC   C4A56394  32.830  19.869   7.298
 4439POPC   C1B56395  33.222  19.950   6.176
 4439POPC   C2B56396  33.103  20.122   6.584
 4439POPC   C3B56397  33.247  20.060   7.027
 4439POPC   C4B56398  33.343  20.196   7.462
 4440POPC   NC356399  40.691  40.942   5.337
 4440POPC   PO456400  41.214  40.610   5.485
 4440POPC   GL156401  41.013  40.675   5.861
 4440POPC   GL256402  40.873  40.958   5.798
 4440POPC   C1A56403  41.019  40.726   6.309
 4440POPC   D2A56404  41.193  40.538   6.688
 4440POPC   C3A56405  40.955  40.539   7.071
 4440POPC   C4A56406  41.072  40.633   7.517
 4440POPC   C1B56407  40.604  40.960   6.119
 4440POPC   C2B56408  40.686  41.096   6.512
 4440POPC   C3B56409  40.545  40.962   6.922
 4440POPC   C4B56410  40.758  40.960   7.278
 4441POPC   NC356411  24.031  10.188   5.412
 4441POPC   PO456412  23.445   9.999   5.629
 4441POPC   GL156413  23.786   9.839   5.869
 4441POPC   GL256414  23.847   9.467   5.876
 4441POPC   C1A56415  23.624   9.750   6.272
 4441POPC   D2A56416  23.447   9.974   6.591
 4441POPC   C3A56417  23.529   9.817   6.971
 4441POPC   C4A56418  23.538  10.065   7.323
 4441POPC   C1B56419  23.867   9.304   6.270
 4441POPC   C2B56420  23.904   9.454   6.665
 4441POPC   C3B56421  23.940   9.332   7.068
 4441POPC   C4B56422  23.825   9.650   7.368
 4442POPC   NC356423  28.274   3.080   5.547
 4442POPC   PO456424  28.472   2.492   5.220
 4442POPC   GL156425  28.520   2.630   5.663
 4442POPC   GL256426  28.352   2.395   5.838
 4442POPC   C1A56427  28.419   2.808   6.122
 4442POPC   D2A56428  28.421   3.010   6.521
 4442POPC   C3A56429  28.146   2.897   6.862
 4442POPC   C4A56430  28.250   2.989   7.294
 4442POPC   C1B56431  28.798   2.470   6.070
 4442POPC   C2B56432  28.812   2.686   6.492
 4442POPC   C3B56433  28.625   2.722   6.924
 4442POPC   C4B56434  28.595   2.598   7.378
 4443POPC   NC356435  29.026   8.241   5.342
 4443POPC   PO456436  29.558   7.850   5.340
 4443POPC   GL156437  29.289   7.894   5.709
 4443POPC   GL256438  29.200   8.222   5.828
 4443POPC   C1A56439  29.092   7.812   6.128
 4443POPC   D2A56440  29.086   7.892   6.573
 4443POPC   C3A56441  29.152   8.187   6.919
 4443POPC   C4A56442  29.077   7.998   7.358
 4443POPC   C1B56443  29.301   8.483   6.178
 4443POPC   C2B56444  29.300   8.637   6.593
 4443POPC   C3B56445  29.488   8.582   7.003
 4443POPC   C4B56446  29.227   8.505   7.343
 4444POPC   NC356447  25.366  28.025   5.462
 4444POPC   PO456448  24.974  27.491   5.262
 4444POPC   GL156449  25.240  27.482   5.703
 4444POPC   GL256450  25.170  27.772   5.878
 4444POPC   C1A56451  25.521  27.530   6.128
 4444POPC   D2A56452  25.489  27.412   6.541
 4444POPC   C3A56453  25.435  27.650   6.899
 4444POPC   C4A56454  25.685  27.465   7.212
 4444POPC   C1B56455  25.197  27.855   6.353
 4444POPC   C2B56456  25.016  27.959   6.808
 4444POPC   C3B56457  24.998  27.679   7.176
 4444POPC   C4B56458  25.255  27.427   7.483
 4445POPC   NC356459   9.502  31.827   5.427
 4445POPC   PO456460   9.472  32.557   5.404
 4445POPC   GL156461   9.627  32.520   5.853
 4445POPC   GL256462   9.784  32.203   5.894
 4445POPC   C1A56463   9.652  32.427   6.327
 4445POPC   D2A56464  10.021  32.384   6.610
 4445POPC   C3A56465   9.947  32.496   7.073
 4445POPC   C4A56466   9.750  32.758   7.414
 4445POPC   C1B56467   9.839  31.955   6.275
 4445POPC   C2B56468   9.688  31.990   6.692
 4445POPC   C3B56469   9.793  32.018   7.126
 4445POPC   C4B56470  10.015  31.778   7.433
 4446POPC   NC356471  35.453  43.611   5.396
 4446POPC   PO456472  35.609  44.200   5.298
 4446POPC   GL156473  35.583  43.999   5.707
 4446POPC   GL256474  35.229  43.986   5.774
 4446POPC   C1A56475  35.571  44.200   6.119
 4446POPC   D2A56476  35.658  44.045   6.517
 4446POPC   C3A56477  35.596  44.228   6.924
 4446POPC   C4A56478  35.533  43.928   7.257
 4446POPC   C1B56479  35.053  44.110   6.156
 4446POPC   C2B56480  35.155  44.231   6.549
 4446POPC   C3B56481  35.174  43.945   6.851
 4446POPC   C4B56482  35.023  43.906   7.239
 4447POPC   NC356483   7.813  27.262   5.476
 4447POPC   PO456484   8.461  27.550   5.494
 4447POPC   GL156485   8.334  27.427   5.863
 4447POPC   GL256486   8.014  27.600   5.822
 4447POPC   C1A56487   8.427  27.575   6.277
 4447POPC   D2A56488   8.291  27.884   6.572
 4447POPC   C3A56489   8.188  27.699   6.991
 4447POPC   C4A56490   8.247  27.471   7.404
 4447POPC   C1B56491   7.926  27.359   6.194
 4447POPC   C2B56492   8.063  27.370   6.612
 4447POPC   C3B56493   8.118  27.176   7.009
 4447POPC   C4B56494   7.804  27.052   7.292
 4448POPC   NC356495  15.699   9.654   5.439
 4448POPC   PO456496  16.325   9.423   5.464
 4448POPC   GL156497  16.198   9.636   5.852
 4448POPC   GL256498  15.821   9.679   5.955
 4448POPC   C1A56499  16.289   9.786   6.282
 4448POPC   D2A56500  16.027  10.053   6.566
 4448POPC   C3A56501  15.911   9.847   6.932
 4448POPC   C4A56502  15.764   9.782   7.328
 4448POPC   C1B56503  15.460   9.415   6.168
 4448POPC   C2B56504  15.402   9.301   6.622
 4448POPC   C3B56505  15.647   9.366   7.021
 4448POPC   C4B56506  15.738   9.294   7.476
 4449POPC   NC356507  10.245  26.721   5.444
 4449POPC   PO456508  10.985  27.012   5.468
 4449POPC   GL156509  10.627  27.014   5.750
 4449POPC   GL256510  10.629  26.641   5.793
 4449POPC   C1A56511  10.473  27.113   6.184
 4449POPC   D2A56512  10.646  26.859   6.543
 4449POPC   C3A56513  10.688  26.874   7.004
 4449POPC   C4A56514  10.364  27.048   7.257
 4449POPC   C1B56515  10.325  26.620   6.144
 4449POPC   C2B56516  10.258  26.480   6.581
 4449POPC   C3B56517  10.225  26.610   7.018
 4449POPC   C4B56518  10.233  26.389   7.423
 4450POPC   NC356519  13.843   7.924   5.313
 4450POPC   PO456520  13.320   8.309   5.374
 4450POPC   GL156521  13.571   8.099   5.735
 4450POPC   GL256522  13.873   8.307   5.816
 4450POPC   C1A56523  13.678   7.957   6.182
 4450POPC   D2A56524  13.936   8.122   6.559
 4450POPC   C3A56525  13.831   7.990   7.008
 4450POPC   C4A56526  13.457   7.741   7.166
 4450POPC   C1B56527  13.529   8.439   6.130
 4450POPC   C2B56528  13.241   8.192   6.362
 4450POPC   C3B56529  13.236   8.082   6.772
 4450POPC   C4B56530  13.394   8.254   7.129
 4451POPC   NC356531  44.468  32.705   5.713
 4451POPC   PO456532   0.062  32.488   5.366
 4451POPC   GL156533  44.877  32.414   5.793
 4451POPC   GL256534  44.852  32.080   5.784
 4451POPC   C1A56535  44.550  32.319   6.183
 4451POPC   D2A56536  44.281  32.448   6.504
 4451POPC   C3A56537  44.364  32.389   6.937
 4451POPC   C4A56538  44.713  32.538   7.155
 4451POPC   C1B56539   0.015  32.137   6.212
 4451POPC   C2B56540  44.805  32.231   6.613
 4451POPC   C3B56541  44.748  32.057   7.007
 4451POPC   C4B56542  44.673  31.839   7.401
 4452POPC   NC356543  40.421  24.454   5.432
 4452POPC   PO456544  39.770  24.602   5.526
 4452POPC   GL156545  40.069  24.528   5.840
 4452POPC   GL256546  40.424  24.655   5.887
 4452POPC   C1A56547  39.945  24.584   6.251
 4452POPC   D2A56548  39.688  24.467   6.599
 4452POPC   C3A56549  39.936  24.641   6.928
 4452POPC   C4A56550  40.069  24.402   7.236
 4452POPC   C1B56551  40.410  24.338   6.169
 4452POPC   C2B56552  40.564  24.298   6.539
 4452POPC   C3B56553  40.449  24.319   6.925
 4452POPC   C4B56554  40.480  24.087   7.291
 4453POPC   NC356555   4.449  24.735   5.462
 4453POPC   PO456556   4.684  25.430   5.373
 4453POPC   GL156557   4.518  25.176   5.731
 4453POPC   GL256558   4.248  25.313   5.822
 4453POPC   C1A56559   4.627  25.092   6.200
 4453POPC   D2A56560   4.635  24.730   6.511
 4453POPC   C3A56561   4.644  24.797   6.950
 4453POPC   C4A56562   4.375  24.937   7.293
 4453POPC   C1B56563   4.139  24.977   6.119
 4453POPC   C2B56564   4.133  24.949   6.602
 4453POPC   C3B56565   4.017  25.175   7.017
 4453POPC   C4B56566   4.214  25.427   7.363
 4454POPC   NC356567  30.593   1.200   5.331
 4454POPC   PO456568  31.027   1.639   5.683
 4454POPC   GL156569  30.636   1.438   5.803
 4454POPC   GL256570  30.560   1.083   5.859
 4454POPC   C1A56571  30.578   1.452   6.246
 4454POPC   D2A56572  30.693   1.323   6.681
 4454POPC   C3A56573  30.644   1.521   7.094
 4454POPC   C4A56574  30.976   1.399   7.386
 4454POPC   C1B56575  30.707   0.965   6.311
 4454POPC   C2B56576  30.658   0.819   6.772
 4454POPC   C3B56577  30.657   0.989   7.207
 4454POPC   C4B56578  30.436   0.830   7.544
 4455POPC   NC356579   6.204   9.134   5.037
 4455POPC   PO456580   6.706   9.034   5.504
 4455POPC   GL156581   6.606   9.015   5.878
 4455POPC   GL256582   6.302   8.872   5.869
 4455POPC   C1A56583   6.688   8.852   6.262
 4455POPC   D2A56584   6.446   8.775   6.628
 4455POPC   C3A56585   6.721   8.842   6.978
 4455POPC   C4A56586   6.640   8.966   7.370
 4455POPC   C1B56587   6.251   9.148   6.218
 4455POPC   C2B56588   6.302   9.267   6.630
 4455POPC   C3B56589   6.254   9.071   7.014
 4455POPC   C4B56590   6.297   9.348   7.324
 4456POPC   NC356591   4.563  17.260   5.345
 4456POPC   PO456592   4.178  17.815   5.308
 4456POPC   GL156593   4.327  17.545   5.709
 4456POPC   GL256594   4.631  17.315   5.831
 4456POPC   C1A56595   4.260  17.490   6.173
 4456POPC   D2A56596   4.185  17.303   6.565
 4456POPC   C3A56597   4.059  17.548   6.906
 4456POPC   C4A56598   4.207  17.446   7.275
 4456POPC   C1B56599   4.765  17.430   6.227
 4456POPC   C2B56600   4.687  17.648   6.572
 4456POPC   C3B56601   4.574  17.468   6.919
 4456POPC   C4B56602   4.706  17.452   7.317
 4457POPC   NC356603  18.112  44.681   5.309
 4457POPC   PO456604  18.720  44.573   5.360
 4457POPC   GL156605  18.426  44.506   5.770
 4457POPC   GL256606  18.040  44.540   5.836
 4457POPC   C1A56607  18.392  44.726   6.191
 4457POPC   D2A56608  18.130  44.974   6.503
 4457POPC   C3A56609  18.239  44.886   6.942
 4457POPC   C4A56610  18.529  44.786   7.282
 4457POPC   C1B56611  18.055  44.344   6.234
 4457POPC   C2B56612  18.103  44.462   6.657
 4457POPC   C3B56613  18.066  44.402   7.096
 4457POPC   C4B56614  18.444  44.267   7.306
 4458POPC   NC356615  19.928  28.130   5.323
 4458POPC   PO456616  19.754  28.754   5.505
 4458POPC   GL156617  19.637  28.534   5.880
 4458POPC   GL256618  19.591  28.252   5.684
 4458POPC   C1A56619  19.867  28.571   6.258
 4458POPC   D2A56620  19.946  28.763   6.615
 4458POPC   C3A56621  19.873  28.464   6.870
 4458POPC   C4A56622  19.901  28.344   7.214
 4458POPC   C1B56623  19.842  28.110   6.060
 4458POPC   C2B56624  19.846  28.067   6.502
 4458POPC   C3B56625  19.865  27.938   6.914
 4458POPC   C4B56626  19.607  27.945   7.251
 4459POPC   NC356627   0.403  38.219   5.019
 4459POPC   PO456628   0.388  38.083   5.629
 4459POPC   GL156629   0.534  38.417   5.914
 4459POPC   GL256630   0.543  38.741   5.741
 4459POPC   C1A56631   0.571  38.451   6.375
 4459POPC   D2A56632   0.691  38.207   6.725
 4459POPC   C3A56633   0.341  38.243   7.019
 4459POPC   C4A56634   0.022  38.243   7.343
 4459POPC   C1B56635   0.819  38.841   6.119
 4459POPC   C2B56636   0.705  38.935   6.549
 4459POPC   C3B56637   0.604  38.693   6.895
 4459POPC   C4B56638   0.576  38.583   7.319
 4460POPC   NC356639   1.708  38.566   5.508
 4460POPC   PO456640   2.308  38.359   5.356
 4460POPC   GL156641   2.160  38.465   5.749
 4460POPC   GL256642   1.923  38.195   5.794
 4460POPC   C1A56643   2.013  38.564   6.159
 4460POPC   D2A56644   2.223  38.558   6.541
 4460POPC   C3A56645   2.008  38.792   6.826
 4460POPC   C4A56646   1.856  38.668   7.215
 4460POPC   C1B56647   2.082  38.078   6.214
 4460POPC   C2B56648   2.183  38.039   6.636
 4460POPC   C3B56649   2.127  38.289   6.978
 4460POPC   C4B56650   2.070  38.163   7.370
 4461POPC   NC356651  32.486   7.636   5.391
 4461POPC   PO456652  32.175   7.038   5.396
 4461POPC   GL156653  32.330   7.328   5.815
 4461POPC   GL256654  32.661   7.526   5.846
 4461POPC   C1A56655  32.200   7.447   6.299
 4461POPC   D2A56656  32.046   7.272   6.728
 4461POPC   C3A56657  31.988   7.464   7.186
 4461POPC   C4A56658  32.016   7.241   7.611
 4461POPC   C1B56659  32.711   7.455   6.259
 4461POPC   C2B56660  32.620   7.594   6.656
 4461POPC   C3B56661  32.470   7.392   7.002
 4461POPC   C4B56662  32.476   7.414   7.440
 4462POPC   NC356663  43.748   1.856   5.568
 4462POPC   PO456664  43.785   2.505   5.418
 4462POPC   GL156665  43.969   2.282   5.801
 4462POPC   GL256666  44.023   1.963   5.964
 4462POPC   C1A56667  43.852   2.324   6.274
 4462POPC   D2A56668  43.984   2.074   6.645
 4462POPC   C3A56669  43.918   2.231   7.071
 4462POPC   C4A56670  43.914   1.954   7.444
 4462POPC   C1B56671  44.203   1.721   6.282
 4462POPC   C2B56672  43.933   1.497   6.574
 4462POPC   C3B56673  43.884   1.660   6.992
 4462POPC   C4B56674  44.285   1.867   7.084
 4463POPC   NC356675  13.301   4.408   5.466
 4463POPC   PO456676  12.817   3.948   5.379
 4463POPC   GL156677  12.983   4.120   5.793
 4463POPC   GL256678  13.341   4.047   5.857
 4463POPC   C1A56679  12.845   4.275   6.216
 4463POPC   D2A56680  12.628   4.494   6.568
 4463POPC   C3A56681  12.707   4.320   6.955
 4463POPC   C4A56682  12.528   4.485   7.343
 4463POPC   C1B56683  13.346   4.056   6.316
 4463POPC   C2B56684  13.117   4.098   6.687
 4463POPC   C3B56685  13.204   4.076   7.115
 4463POPC   C4B56686  13.044   4.410   7.354
 4464POPC   NC356687  33.768  31.049   5.087
 4464POPC   PO456688  33.459  31.725   5.270
 4464POPC   GL156689  33.638  31.595   5.731
 4464POPC   GL256690  34.012  31.541   5.736
 4464POPC   C1A56691  33.761  31.432   6.169
 4464POPC   D2A56692  33.606  31.412   6.585
 4464POPC   C3A56693  33.735  31.527   6.968
 4464POPC   C4A56694  33.672  31.193   7.235
 4464POPC   C1B56695  34.269  31.538   6.120
 4464POPC   C2B56696  34.115  31.577   6.547
 4464POPC   C3B56697  34.192  31.337   6.920
 4464POPC   C4B56698  34.125  31.436   7.318
 4465POPC   NC356699  24.856  23.850   5.532
 4465POPC   PO456700  24.320  23.384   5.428
 4465POPC   GL156701  24.519  23.560   5.804
 4465POPC   GL256702  24.686  23.319   5.884
 4465POPC   C1A56703  24.642  23.584   6.287
 4465POPC   D2A56704  24.589  23.889   6.567
 4465POPC   C3A56705  24.697  23.839   6.958
 4465POPC   C4A56706  24.356  23.878   7.230
 4465POPC   C1B56707  24.314  23.212   6.131
 4465POPC   C2B56708  24.321  23.167   6.566
 4465POPC   C3B56709  24.412  23.427   6.910
 4465POPC   C4B56710  24.591  23.445   7.321
 4466POPC   NC356711  27.962  25.775   5.525
 4466POPC   PO456712  28.557  26.125   5.418
 4466POPC   GL156713  28.326  25.997   5.833
 4466POPC   GL256714  27.969  26.093   5.923
 4466POPC   C1A56715  28.478  25.966   6.252
 4466POPC   D2A56716  28.839  26.123   6.465
 4466POPC   C3A56717  28.718  26.262   6.853
 4466POPC   C4A56718  28.447  26.093   7.153
 4466POPC   C1B56719  28.131  26.343   6.250
 4466POPC   C2B56720  28.196  26.160   6.654
 4466POPC   C3B56721  27.961  26.101   7.038
 4466POPC   C4B56722  28.033  26.404   7.313
 4467POPC   NC356723   1.591  20.378   5.517
 4467POPC   PO456724   1.149  20.899   5.282
 4467POPC   GL156725   1.067  20.789   5.739
 4467POPC   GL256726   0.826  21.059   5.805
 4467POPC   C1A56727   1.171  20.497   6.138
 4467POPC   D2A56728   1.389  20.304   6.539
 4467POPC   C3A56729   1.206  20.317   6.982
 4467POPC   C4A56730   0.974  20.304   7.364
 4467POPC   C1B56731   0.965  20.946   6.249
 4467POPC   C2B56732   1.099  20.741   6.657
 4467POPC   C3B56733   1.188  20.836   7.101
 4467POPC   C4B56734   1.144  20.930   7.531
 4468POPC   NC356735  32.716   2.965   5.531
 4468POPC   PO456736  33.396   3.244   5.630
 4468POPC   GL156737  33.330   2.854   5.867
 4468POPC   GL256738  32.992   2.709   5.866
 4468POPC   C1A56739  33.286   2.732   6.289
 4468POPC   D2A56740  33.280   2.523   6.665
 4468POPC   C3A56741  33.187   2.695   7.098
 4468POPC   C4A56742  33.090   3.036   7.380
 4468POPC   C1B56743  32.749   2.691   6.232
 4468POPC   C2B56744  32.768   2.446   6.632
 4468POPC   C3B56745  32.714   2.516   7.032
 4468POPC   C4B56746  32.673   2.953   7.118
 4469POPC   NC356747  43.597  44.102   5.097
 4469POPC   PO456748  43.881  43.572   5.366
 4469POPC   GL156749  43.803  43.805   5.740
 4469POPC   GL256750  43.514  43.702   5.895
 4469POPC   C1A56751  43.834  44.002   6.158
 4469POPC   D2A56752  43.983  44.171   6.535
 4469POPC   C3A56753  44.100  43.951   6.885
 4469POPC   C4A56754  43.995  44.200   7.217
 4469POPC   C1B56755  43.439  43.528   6.274
 4469POPC   C2B56756  43.678  43.718   6.566
 4469POPC   C3B56757  43.755  43.549   6.918
 4469POPC   C4B56758  43.551  43.497   7.253
 4470POPC   NC356759  25.338  21.890   5.647
 4470POPC   PO456760  24.983  21.423   5.337
 4470POPC   GL156761  25.113  21.467   5.805
 4470POPC   GL256762  25.420  21.314   5.953
 4470POPC   C1A56763  24.977  21.287   6.213
 4470POPC   D2A56764  25.246  21.111   6.491
 4470POPC   C3A56765  25.251  21.254   6.896
 4470POPC   C4A56766  25.220  21.164   7.307
 4470POPC   C1B56767  25.694  21.491   6.258
 4470POPC   C2B56768  25.741  21.279   6.635
 4470POPC   C3B56769  25.755  21.084   7.008
 4470POPC   C4B56770  25.667  21.380   7.279
 4471POPC   NC356771  15.504   6.087   5.603
 4471POPC   PO456772  15.012   5.747   5.380
 4471POPC   GL156773  15.022   5.819   5.831
 4471POPC   GL256774  15.002   6.190   5.828
 4471POPC   C1A56775  15.210   5.943   6.242
 4471POPC   D2A56776  15.519   5.935   6.578
 4471POPC   C3A56777  15.358   5.776   6.945
 4471POPC   C4A56778  14.980   5.842   7.176
 4471POPC   C1B56779  14.966   6.403   6.240
 4471POPC   C2B56780  15.162   6.503   6.623
 4471POPC   C3B56781  15.251   6.296   7.036
 4471POPC   C4B56782  15.362   6.354   7.491
 4472POPC   NC356783  23.421   7.601   5.436
 4472POPC   PO456784  23.596   6.980   5.606
 4472POPC   GL156785  23.522   7.352   5.887
 4472POPC   GL256786  23.851   7.523   5.883
 4472POPC   C1A56787  23.358   7.399   6.315
 4472POPC   D2A56788  23.480   7.253   6.713
 4472POPC   C3A56789  23.728   7.490   6.913
 4472POPC   C4A56790  24.153   7.515   6.814
 4472POPC   C1B56791  23.857   7.544   6.352
 4472POPC   C2B56792  23.828   7.912   6.635
 4472POPC   C3B56793  23.890   7.937   7.091
 4472POPC   C4B56794  23.895   7.752   7.541
 4473POPC   NC356795  33.558  39.353   5.559
 4473POPC   PO456796  34.166  39.413   5.253
 4473POPC   GL156797  34.008  39.476   5.743
 4473POPC   GL256798  33.961  39.132   5.866
 4473POPC   C1A56799  33.720  39.442   6.187
 4473POPC   D2A56800  33.597  39.214   6.590
 4473POPC   C3A56801  33.594  39.389   7.033
 4473POPC   C4A56802  33.570  39.757   7.263
 4473POPC   C1B56803  34.133  38.954   6.281
 4473POPC   C2B56804  34.079  38.868   6.734
 4473POPC   C3B56805  33.970  39.060   7.111
 4473POPC   C4B56806  33.683  38.969   7.457
 4474POPC   NC356807  15.720  17.631   5.171
 4474POPC   PO456808  15.052  17.506   5.343
 4474POPC   GL156809  15.312  17.598   5.724
 4474POPC   GL256810  15.010  17.651   5.892
 4474POPC   C1A56811  15.425  17.790   6.137
 4474POPC   D2A56812  15.148  17.760   6.516
 4474POPC   C3A56813  15.321  17.614   6.911
 4474POPC   C4A56814  15.159  17.705   7.310
 4474POPC   C1B56815  15.129  17.342   6.214
 4474POPC   C2B56816  14.933  17.229   6.633
 4474POPC   C3B56817  14.967  17.252   7.080
 4474POPC   C4B56818  14.968  16.875   7.353
 4475POPC   NC356819   3.866   4.307   5.321
 4475POPC   PO456820   3.376   4.001   5.152
 4475POPC   GL156821   3.450   4.109   5.633
 4475POPC   GL256822   3.788   3.987   5.706
 4475POPC   C1A56823   3.366   4.391   6.054
 4475POPC   D2A56824   3.253   4.657   6.444
 4475POPC   C3A56825   3.461   4.612   6.857
 4475POPC   C4A56826   3.533   4.274   7.154
 4475POPC   C1B56827   3.859   4.297   6.037
 4475POPC   C2B56828   3.746   4.383   6.481
 4475POPC   C3B56829   3.948   4.169   6.852
 4475POPC   C4B56830   4.056   4.023   7.265
 4476POPC   NC356831   0.317  41.098   5.490
 4476POPC   PO456832   0.583  40.374   5.462
 4476POPC   GL156833   0.544  40.705   5.765
 4476POPC   GL256834   0.162  40.644   5.753
 4476POPC   C1A56835   0.705  40.859   6.192
 4476POPC   D2A56836   0.626  40.685   6.620
 4476POPC   C3A56837   0.513  40.616   7.069
 4476POPC   C4A56838   0.500  40.985   7.324
 4476POPC   C1B56839   0.232  40.645   6.189
 4476POPC   C2B56840   0.074  40.859   6.534
 4476POPC   C3B56841   0.087  40.871   6.961
 4476POPC   C4B56842   0.081  40.703   7.364
 4477POPC   NC356843  22.844  31.034   5.390
 4477POPC   PO456844  23.200  30.439   5.369
 4477POPC   GL156845  23.026  30.695   5.745
 4477POPC   GL256846  22.687  30.882   5.845
 4477POPC   C1A56847  23.101  30.984   6.104
 4477POPC   D2A56848  22.955  30.944   6.518
 4477POPC   C3A56849  23.110  31.099   6.909
 4477POPC   C4A56850  23.263  30.871   7.293
 4477POPC   C1B56851  22.765  30.562   6.168
 4477POPC   C2B56852  22.856  30.446   6.574
 4477POPC   C3B56853  23.021  30.577   6.938
 4477POPC   C4B56854  22.958  30.451   7.349
 4478POPC   NC356855   7.599  43.062   5.391
 4478POPC   PO456856   7.143  43.558   5.370
 4478POPC   GL156857   7.134  43.244   5.736
 4478POPC   GL256858   7.428  43.020   5.875
 4478POPC   C1A56859   7.099  43.213   6.205
 4478POPC   D2A56860   7.503  43.129   6.491
 4478POPC   C3A56861   7.574  43.279   6.919
 4478POPC   C4A56862   7.527  43.243   7.360
 4478POPC   C1B56863   7.395  42.713   6.228
 4478POPC   C2B56864   7.418  42.658   6.662
 4478POPC   C3B56865   7.451  42.797   7.057
 4478POPC   C4B56866   7.287  42.806   7.451
 4479POPC   NC356867  21.027  19.718   5.478
 4479POPC   PO456868  20.474  19.897   5.123
 4479POPC   GL156869  20.567  19.965   5.597
 4479POPC   GL256870  20.457  20.243   5.825
 4479POPC   C1A56871  20.613  19.782   6.031
 4479POPC   D2A56872  20.881  19.777   6.392
 4479POPC   C3A56873  20.719  19.588   6.780
 4479POPC   C4A56874  20.785  19.681   7.203
 4479POPC   C1B56875  20.265  20.137   6.214
 4479POPC   C2B56876  20.427  19.969   6.582
 4479POPC   C3B56877  20.684  20.107   6.940
 4479POPC   C4B56878  20.738  20.174   7.396
 4480POPC   NC356879   2.468   0.531   5.419
 4480POPC   PO456880   3.115   0.159   5.517
 4480POPC   GL156881   2.815   0.394   5.775
 4480POPC   GL256882   2.468   0.227   5.814
 4480POPC   C1A56883   2.683   0.507   6.180
 4480POPC   D2A56884   2.600   0.655   6.564
 4480POPC   C3A56885   2.799   0.509   6.927
 4480POPC   C4A56886   2.611   0.512   7.306
 4480POPC   C1B56887   2.340   0.082   6.210
 4480POPC   C2B56888   2.550   0.061   6.590
 4480POPC   C3B56889   2.450   0.129   6.991
 4480POPC   C4B56890   2.233   0.023   7.329
 4481POPC   NC356891  12.050  34.636   5.500
 4481POPC   PO456892  12.342  34.003   5.649
 4481POPC   GL156893  12.305  34.421   5.896
 4481POPC   GL256894  12.458  34.805   5.963
 4481POPC   C1A56895  12.058  34.582   6.223
 4481POPC   D2A56896  11.926  34.807   6.582
 4481POPC   C3A56897  11.940  34.555   6.946
 4481POPC   C4A56898  12.195  34.753   7.182
 4481POPC   C1B56899  12.581  34.576   6.315
 4481POPC   C2B56900  12.338  34.337   6.582
 4481POPC   C3B56901  12.429  34.323   6.972
 4481POPC   C4B56902  12.529  34.449   7.370
 4482POPC   NC356903  13.112  12.743   5.449
 4482POPC   PO456904  12.604  13.288   5.535
 4482POPC   GL156905  12.881  13.043   5.826
 4482POPC   GL256906  13.208  13.205   5.765
 4482POPC   C1A56907  12.803  12.803   6.232
 4482POPC   D2A56908  12.439  12.691   6.527
 4482POPC   C3A56909  12.475  12.536   6.964
 4482POPC   C4A56910  12.688  12.727   7.278
 4482POPC   C1B56911  13.296  13.310   6.184
 4482POPC   C2B56912  13.170  13.063   6.545
 4482POPC   C3B56913  12.957  13.026   6.959
 4482POPC   C4B56914  12.993  13.102   7.431
 4483POPC   NC356915  27.927   3.666   5.043
 4483POPC   PO456916  27.310   3.635   5.369
 4483POPC   GL156917  27.429   3.806   5.789
 4483POPC   GL256918  27.744   3.663   5.940
 4483POPC   C1A56919  27.257   3.793   6.188
 4483POPC   D2A56920  27.385   3.515   6.508
 4483POPC   C3A56921  27.623   3.648   6.861
 4483POPC   C4A56922  27.400   3.729   7.225
 4483POPC   C1B56923  27.891   3.621   6.373
 4483POPC   C2B56924  28.086   3.393   6.707
 4483POPC   C3B56925  27.866   3.255   7.093
 4483POPC   C4B56926  27.832   3.547   7.403
 4484POPC   NC356927  26.370   2.995   5.406
 4484POPC   PO456928  27.062   2.926   5.398
 4484POPC   GL156929  26.798   2.798   5.743
 4484POPC   GL256930  26.793   2.434   5.842
 4484POPC   C1A56931  26.953   2.885   6.162
 4484POPC   D2A56932  27.259   2.838   6.496
 4484POPC   C3A56933  27.068   2.793   6.881
 4484POPC   C4A56934  26.758   3.083   7.009
 4484POPC   C1B56935  26.582   2.543   6.222
 4484POPC   C2B56936  26.643   2.798   6.584
 4484POPC   C3B56937  26.470   2.666   6.982
 4484POPC   C4B56938  26.468   2.321   7.228
 4485POPC   NC356939  16.304  13.564   5.641
 4485POPC   PO456940  16.856  13.915   5.383
 4485POPC   GL156941  16.818  13.593   5.769
 4485POPC   GL256942  16.964  13.273   5.676
 4485POPC   C1A56943  16.602  13.407   6.196
 4485POPC   D2A56944  16.482  13.575   6.621
 4485POPC   C3A56945  16.730  13.540   7.025
 4485POPC   C4A56946  17.150  13.703   7.244
 4485POPC   C1B56947  17.076  13.239   6.115
 4485POPC   C2B56948  16.945  13.235   6.566
 4485POPC   C3B56949  17.164  13.279   6.945
 4485POPC   C4B56950  17.024  13.225   7.358
 4486POPC   NC356951   8.106  14.398   5.304
 4486POPC   PO456952   8.707  14.290   5.202
 4486POPC   GL156953   8.519  14.374   5.630
 4486POPC   GL256954   8.271  14.122   5.712
 4486POPC   C1A56955   8.263  14.521   6.015
 4486POPC   D2A56956   8.196  14.365   6.434
 4486POPC   C3A56957   8.297  14.593   6.788
 4486POPC   C4A56958   8.246  14.473   7.213
 4486POPC   C1B56959   8.017  14.038   6.078
 4486POPC   C2B56960   7.833  14.011   6.502
 4486POPC   C3B56961   7.930  14.184   6.927
 4486POPC   C4B56962   7.840  14.194   7.393
 4487POPC   NC356963  40.788   2.402   5.356
 4487POPC   PO456964  40.322   2.809   5.191
 4487POPC   GL156965  40.494   2.708   5.622
 4487POPC   GL256966  40.407   2.378   5.715
 4487POPC   C1A56967  40.806   2.835   5.955
 4487POPC   D2A56968  40.978   2.928   6.384
 4487POPC   C3A56969  40.846   2.630   6.712
 4487POPC   C4A56970  40.977   2.621   7.140
 4487POPC   C1B56971  40.313   2.653   6.089
 4487POPC   C2B56972  40.339   2.819   6.485
 4487POPC   C3B56973  40.350   2.602   6.845
 4487POPC   C4B56974  40.518   2.417   7.215
 4488POPC   NC356975   0.827  33.529   5.630
 4488POPC   PO456976   1.436  33.804   5.395
 4488POPC   GL156977   1.165  33.931   5.790
 4488POPC   GL256978   0.831  33.993   6.029
 4488POPC   C1A56979   1.306  34.083   6.186
 4488POPC   D2A56980   1.287  33.915   6.605
 4488POPC   C3A56981   1.109  34.074   6.973
 4488POPC   C4A56982   1.469  33.959   7.263
 4488POPC   C1B56983   1.016  33.647   6.253
 4488POPC   C2B56984   1.003  33.446   6.649
 4488POPC   C3B56985   1.182  33.573   7.021
 4488POPC   C4B56986   1.047  33.711   7.400
 4489POPC   NC356987   2.669  19.005   5.330
 4489POPC   PO456988   3.256  19.228   5.486
 4489POPC   GL156989   2.913  19.192   5.793
 4489POPC   GL256990   2.541  19.312   5.720
 4489POPC   C1A56991   3.039  19.145   6.266
 4489POPC   D2A56992   2.845  19.025   6.652
 4489POPC   C3A56993   2.962  19.094   7.060
 4489POPC   C4A56994   2.678  18.894   7.335
 4489POPC   C1B56995   2.547  19.112   6.145
 4489POPC   C2B56996   2.444  19.312   6.538
 4489POPC   C3B56997   2.588  19.444   6.918
 4489POPC   C4B56998   2.598  19.381   7.345
 4490POPC   NC356999   0.916  10.338   5.440
 4490POPC   PO457000   1.546  10.506   5.604
 4490POPC   GL157001   1.325  10.663   5.924
 4490POPC   GL257002   1.162  10.325   5.928
 4490POPC   C1A57003   1.217  10.697   6.345
 4490POPC   D2A57004   1.091  10.328   6.493
 4490POPC   C3A57005   1.324  10.274   6.804
 4490POPC   C4A57006   1.324  10.593   7.145
 4490POPC   C1B57007   0.797  10.539   6.083
 4490POPC   C2B57008   0.701  10.659   6.490
 4490POPC   C3B57009   0.900  10.685   6.870
 4490POPC   C4B57010   0.693  10.709   7.273
 4491POPC   NC357011  40.301  16.783   5.471
 4491POPC   PO457012  40.884  16.760   5.361
 4491POPC   GL157013  40.769  16.704   5.756
 4491POPC   GL257014  41.091  16.859   5.836
 4491POPC   C1A57015  40.670  16.942   6.118
 4491POPC   D2A57016  40.914  17.039   6.486
 4491POPC   C3A57017  40.685  16.859   6.812
 4491POPC   C4A57018  40.718  16.845   7.236
 4491POPC   C1B57019  41.071  16.622   6.215
 4491POPC   C2B57020  40.836  16.389   6.516
 4491POPC   C3B57021  40.772  16.371   6.954
 4491POPC   C4B57022  40.997  16.424   7.305
 4492POPC   NC357023  31.998  35.657   5.418
 4492POPC   PO457024  32.403  35.091   5.378
 4492POPC   GL157025  32.298  35.352   5.703
 4492POPC   GL257026  31.954  35.366   5.836
 4492POPC   C1A57027  32.420  35.485   6.100
 4492POPC   D2A57028  32.497  35.294   6.512
 4492POPC   C3A57029  32.264  35.415   6.869
 4492POPC   C4A57030  32.525  35.262   7.183
 4492POPC   C1B57031  31.789  35.082   6.149
 4492POPC   C2B57032  31.631  34.954   6.548
 4492POPC   C3B57033  31.768  35.146   6.906
 4492POPC   C4B57034  31.996  35.212   7.272
 4493POPC   NC357035  41.482  21.417   5.491
 4493POPC   PO457036  42.121  21.351   5.292
 4493POPC   GL157037  41.925  21.372   5.755
 4493POPC   GL257038  41.779  21.712   5.833
 4493POPC   C1A57039  41.784  21.188   6.189
 4493POPC   D2A57040  41.795  21.001   6.615
 4493POPC   C3A57041  41.486  21.039   6.935
 4493POPC   C4A57042  41.644  21.267   7.335
 4493POPC   C1B57043  41.445  21.590   6.159
 4493POPC   C2B57044  41.430  21.440   6.604
 4493POPC   C3B57045  41.288  21.496   7.046
 4493POPC   C4B57046  41.401  21.713   7.431
 4494POPC   NC357047  41.452   6.903   5.484
 4494POPC   PO457048  41.304   6.265   5.232
 4494POPC   GL157049  41.378   6.443   5.710
 4494POPC   GL257050  41.703   6.661   5.845
 4494POPC   C1A57051  41.431   6.412   6.193
 4494POPC   D2A57052  41.655   6.462   6.605
 4494POPC   C3A57053  41.428   6.531   7.034
 4494POPC   C4A57054  41.422   6.680   7.502
 4494POPC   C1B57055  41.589   6.900   6.262
 4494POPC   C2B57056  41.617   6.966   6.731
 4494POPC   C3B57057  41.757   6.925   7.159
 4494POPC   C4B57058  41.639   7.135   7.547
 4495POPC   NC357059  34.297   2.995   5.450
 4495POPC   PO457060  34.753   2.418   5.356
 4495POPC   GL157061  34.724   2.666   5.746
 4495POPC   GL257062  34.711   3.015   5.760
 4495POPC   C1A57063  34.626   2.684   6.202
 4495POPC   D2A57064  34.787   2.786   6.622
 4495POPC   C3A57065  34.676   2.618   7.035
 4495POPC   C4A57066  34.543   2.627   7.469
 4495POPC   C1B57067  34.572   3.202   6.162
 4495POPC   C2B57068  34.454   3.326   6.564
 4495POPC   C3B57069  34.480   3.125   6.941
 4495POPC   C4B57070  34.563   3.298   7.328
 4496POPC   NC357071   4.205  10.254   5.426
 4496POPC   PO457072   4.262   9.566   5.336
 4496POPC   GL157073   4.509   9.722   5.688
 4496POPC   GL257074   4.404   9.427   5.828
 4496POPC   C1A57075   4.505   9.903   6.117
 4496POPC   D2A57076   4.227   9.952   6.465
 4496POPC   C3A57077   4.346  10.063   6.886
 4496POPC   C4A57078   4.346   9.944   7.350
 4496POPC   C1B57079   4.190   9.452   6.198
 4496POPC   C2B57080   4.328   9.429   6.586
 4496POPC   C3B57081   4.207   9.581   6.956
 4496POPC   C4B57082   4.005   9.350   7.258
 4497POPC   NC357083  16.896   7.155   5.435
 4497POPC   PO457084  16.559   7.744   5.526
 4497POPC   GL157085  16.737   7.511   5.797
 4497POPC   GL257086  16.535   7.229   5.803
 4497POPC   C1A57087  16.643   7.572   6.211
 4497POPC   D2A57088  16.871   7.624   6.551
 4497POPC   C3A57089  16.681   7.436   6.871
 4497POPC   C4A57090  16.813   7.409   7.249
 4497POPC   C1B57091  16.855   7.114   6.143
 4497POPC   C2B57092  16.835   7.041   6.599
 4497POPC   C3B57093  16.871   6.949   7.056
 4497POPC   C4B57094  16.631   6.975   7.465
 4498POPC   NC357095  20.506   4.586   5.471
 4498POPC   PO457096  20.831   3.997   5.659
 4498POPC   GL157097  20.619   4.269   5.904
 4498POPC   GL257098  20.705   4.643   5.936
 4498POPC   C1A57099  20.680   4.138   6.311
 4498POPC   D2A57100  20.832   4.315   6.634
 4498POPC   C3A57101  20.743   4.102   6.975
 4498POPC   C4A57102  20.367   4.183   7.187
 4498POPC   C1B57103  20.399   4.593   6.267
 4498POPC   C2B57104  20.361   4.550   6.714
 4498POPC   C3B57105  20.232   4.672   7.131
 4498POPC   C4B57106  20.487   4.750   7.498
 4499POPC   NC357107  17.659  44.275   5.519
 4499POPC   PO457108  17.335  43.638   5.255
 4499POPC   GL157109  17.297  43.848   5.679
 4499POPC   GL257110  17.656  43.907   5.871
 4499POPC   C1A57111  17.284  43.659   6.105
 4499POPC   D2A57112  17.554  43.649   6.463
 4499POPC   C3A57113  17.404  43.871   6.772
 4499POPC   C4A57114  17.161  43.887   7.110
 4499POPC   C1B57115  17.584  44.124   6.274
 4499POPC   C2B57116  17.594  44.394   6.638
 4499POPC   C3B57117  17.516  44.313   7.048
 4499POPC   C4B57118  17.663  43.959   7.221
 4500POPC   NC357119   1.320  11.858   5.453
 4500POPC   PO457120   1.259  12.450   5.760
 4500POPC   GL157121   1.176  12.147   6.027
 4500POPC   GL257122   1.311  11.846   5.956
 4500POPC   C1A57123   0.889  12.128   6.326
 4500POPC   D2A57124   0.930  12.003   6.706
 4500POPC   C3A57125   1.176  12.224   6.976
 4500POPC   C4A57126   1.223  12.060   7.378
 4500POPC   C1B57127   1.577  11.688   6.287
 4500POPC   C2B57128   1.638  11.787   6.716
 4500POPC   C3B57129   1.601  11.769   7.144
 4500POPC   C4B57130   1.656  11.830   7.591
 4501POPC   NC357131  25.856  28.892   5.364
 4501POPC   PO457132  25.727  29.573   5.466
 4501POPC   GL157133  25.979  29.242   5.752
 4501POPC   GL257134  26.060  28.860   5.832
 4501POPC   C1A57135  26.170  29.219   6.156
 4501POPC   D2A57136  26.150  28.999   6.554
 4501POPC   C3A57137  26.215  29.252   6.931
 4501POPC   C4A57138  26.121  29.461   7.314
 4501POPC   C1B57139  26.337  28.663   6.162
 4501POPC   C2B57140  26.391  28.549   6.609
 4501POPC   C3B57141  26.223  28.733   7.010
 4501POPC   C4B57142  26.057  28.956   7.351
 4502POPC   NC357143  40.580  32.043   5.419
 4502POPC   PO457144  41.238  32.252   5.540
 4502POPC   GL157145  40.907  32.250   5.803
 4502POPC   GL257146  40.873  31.918   5.834
 4502POPC   C1A57147  40.839  32.421   6.210
 4502POPC   D2A57148  40.679  32.677   6.525
 4502POPC   C3A57149  40.733  32.527   6.912
 4502POPC   C4A57150  40.924  32.659   7.241
 4502POPC   C1B57151  40.565  31.995   6.155
 4502POPC   C2B57152  40.465  32.187   6.558
 4502POPC   C3B57153  40.534  32.049   6.986
 4502POPC   C4B57154  40.754  32.197   7.365
 4503POPC   NC357155  19.526   6.201   5.533
 4503POPC   PO457156  19.982   5.716   5.360
 4503POPC   GL157157  19.876   5.911   5.803
 4503POPC   GL257158  20.036   6.189   5.921
 4503POPC   C1A57159  19.686   5.813   6.202
 4503POPC   D2A57160  19.783   5.962   6.613
 4503POPC   C3A57161  19.764   5.693   6.995
 4503POPC   C4A57162  19.527   5.796   7.360
 4503POPC   C1B57163  20.092   6.332   6.333
 4503POPC   C2B57164  20.191   6.270   6.733
 4503POPC   C3B57165  19.932   6.168   7.098
 4503POPC   C4B57166  19.929   6.081   7.538
 4504POPC   NC357167  14.685  29.944   5.150
 4504POPC   PO457168  14.168  29.778   5.344
 4504POPC   GL157169  14.392  29.887   5.716
 4504POPC   GL257170  14.721  30.058   5.665
 4504POPC   C1A57171  14.294  30.034   6.139
 4504POPC   D2A57172  14.170  29.832   6.548
 4504POPC   C3A57173  14.355  30.009   6.893
 4504POPC   C4A57174  14.213  30.184   7.269
 4504POPC   C1B57175  14.777  29.791   6.064
 4504POPC   C2B57176  14.697  29.920   6.490
 4504POPC   C3B57177  14.855  29.826   6.885
 4504POPC   C4B57178  14.695  29.930   7.276
 4505POPC   NC357179  36.294   9.341   5.162
 4505POPC   PO457180  35.998   9.904   5.487
 4505POPC   GL157181  36.243   9.748   5.806
 4505POPC   GL257182  36.375   9.414   5.709
 4505POPC   C1A57183  36.024   9.699   6.186
 4505POPC   D2A57184  35.828   9.478   6.524
 4505POPC   C3A57185  35.745   9.768   6.852
 4505POPC   C4A57186  35.950   9.834   7.249
 4505POPC   C1B57187  36.484   9.441   6.171
 4505POPC   C2B57188  36.340   9.582   6.573
 4505POPC   C3B57189  36.371   9.714   6.973
 4505POPC   C4B57190  36.351   9.490   7.317
 4506POPC   NC357191  33.570   7.160   5.445
 4506POPC   PO457192  33.734   7.741   5.269
 4506POPC   GL157193  33.869   7.525   5.699
 4506POPC   GL257194  33.712   7.255   5.898
 4506POPC   C1A57195  33.872   7.599   6.206
 4506POPC   D2A57196  33.643   7.629   6.623
 4506POPC   C3A57197  33.998   7.603   6.901
 4506POPC   C4A57198  34.136   7.563   7.311
 4506POPC   C1B57199  33.944   7.071   6.221
 4506POPC   C2B57200  33.830   7.139   6.639
 4506POPC   C3B57201  33.562   7.218   6.961
 4506POPC   C4B57202  33.562   7.123   7.382
 4507POPC   NC357203   1.640  21.377   5.507
 4507POPC   PO457204   2.222  21.227   5.219
 4507POPC   GL157205   2.072  21.130   5.703
 4507POPC   GL257206   1.752  21.007   5.870
 4507POPC   C1A57207   2.120  21.185   6.176
 4507POPC   D2A57208   1.874  21.298   6.554
 4507POPC   C3A57209   1.775  21.094   6.897
 4507POPC   C4A57210   2.080  21.168   7.186
 4507POPC   C1B57211   1.635  21.420   6.139
 4507POPC   C2B57212   1.513  21.651   6.561
 4507POPC   C3B57213   1.690  21.581   6.990
 4507POPC   C4B57214   1.805  21.487   7.482
 4508POPC   NC357215  35.696  12.909   5.493
 4508POPC   PO457216  36.245  12.525   5.499
 4508POPC   GL157217  36.102  12.812   5.847
 4508POPC   GL257218  35.758  12.754   5.969
 4508POPC   C1A57219  36.033  13.128   6.161
 4508POPC   D2A57220  35.752  13.062   6.493
 4508POPC   C3A57221  35.996  12.960   6.885
 4508POPC   C4A57222  36.008  12.972   7.353
 4508POPC   C1B57223  36.018  12.634   6.342
 4508POPC   C2B57224  35.939  12.455   6.743
 4508POPC   C3B57225  35.895  12.536   7.184
 4508POPC   C4B57226  35.985  12.460   7.637
 4509POPC   NC357227  10.701  36.883   5.412
 4509POPC   PO457228  10.090  37.056   5.465
 4509POPC   GL157229  10.397  37.126   5.817
 4509POPC   GL257230  10.743  36.990   5.896
 4509POPC   C1A57231  10.482  37.172   6.291
 4509POPC   D2A57232  10.700  37.261   6.674
 4509POPC   C3A57233  10.645  37.017   7.042
 4509POPC   C4A57234  10.363  36.715   7.270
 4509POPC   C1B57235  10.731  36.726   6.295
 4509POPC   C2B57236  10.931  36.707   6.715
 4509POPC   C3B57237  10.884  36.474   7.121
 4509POPC   C4B57238  11.031  36.480   7.567
 4510POPC   NC357239  27.437   3.027   5.634
 4510POPC   PO457240  28.023   2.692   5.548
 4510POPC   GL157241  27.814   2.780   5.912
 4510POPC   GL257242  27.990   3.095   5.979
 4510POPC   C1A57243  27.545   2.502   6.219
 4510POPC   D2A57244  27.416   2.384   6.648
 4510POPC   C3A57245  27.584   2.678   6.905
 4510POPC   C4A57246  27.829   2.711   7.237
 4510POPC   C1B57247  27.944   2.870   6.380
 4510POPC   C2B57248  27.688   3.100   6.622
 4510POPC   C3B57249  27.396   3.174   6.900
 4510POPC   C4B57250  27.417   3.025   7.275
 4511POPC   NC357251  41.575   9.377   5.267
 4511POPC   PO457252  41.344   8.750   5.518
 4511POPC   GL157253  41.393   8.869   5.905
 4511POPC   GL257254  41.651   9.082   5.794
 4511POPC   C1A57255  41.658   8.891   6.280
 4511POPC   D2A57256  41.628   9.226   6.585
 4511POPC   C3A57257  41.519   9.079   7.006
 4511POPC   C4A57258  41.794   8.788   7.193
 4511POPC   C1B57259  41.950   9.281   6.103
 4511POPC   C2B57260  42.151   9.167   6.502
 4511POPC   C3B57261  42.046   9.221   6.949
 4511POPC   C4B57262  41.827   9.298   7.362
 4512POPC   NC357263   5.218  37.681   5.371
 4512POPC   PO457264   4.621  37.941   5.664
 4512POPC   GL157265   4.946  37.659   5.815
 4512POPC   GL257266   5.325  37.741   5.853
 4512POPC   C1A57267   5.021  37.590   6.234
 4512POPC   D2A57268   5.147  37.752   6.606
 4512POPC   C3A57269   4.930  37.587   6.942
 4512POPC   C4A57270   5.048  37.685   7.359
 4512POPC   C1B57271   5.352  38.021   6.197
 4512POPC   C2B57272   5.412  38.227   6.603
 4512POPC   C3B57273   5.349  38.053   7.030
 4512POPC   C4B57274   5.478  37.893   7.443
 4513POPC   NC357275   9.143  20.429   5.318
 4513POPC   PO457276   8.723  20.933   5.436
 4513POPC   GL157277   8.954  20.844   5.808
 4513POPC   GL257278   9.047  20.507   5.814
 4513POPC   C1A57279   9.140  20.794   6.229
 4513POPC   D2A57280   8.946  20.867   6.612
 4513POPC   C3A57281   9.105  20.734   7.001
 4513POPC   C4A57282   8.869  20.409   7.156
 4513POPC   C1B57283   8.934  20.308   6.206
 4513POPC   C2B57284   9.065  20.330   6.640
 4513POPC   C3B57285   9.325  20.221   6.969
 4513POPC   C4B57286   9.405  20.376   7.390
 4514POPC   NC357287   0.918  42.525   5.514
 4514POPC   PO457288   0.184  42.562   5.447
 4514POPC   GL157289   0.340  42.381   5.853
 4514POPC   GL257290   0.703  42.374   5.934
 4514POPC   C1A57291   0.412  42.425   6.339
 4514POPC   D2A57292   0.438  42.768   6.611
 4514POPC   C3A57293   0.278  42.602   6.982
 4514POPC   C4A57294   0.331  42.160   6.959
 4514POPC   C1B57295   0.862  42.151   6.294
 4514POPC   C2B57296   0.796  42.081   6.729
 4514POPC   C3B57297   0.805  42.015   7.171
 4514POPC   C4B57298   0.728  42.258   7.458
 4515POPC   NC357299  39.487  16.889   5.187
 4515POPC   PO457300  39.156  16.352   5.444
 4515POPC   GL157301  39.393  16.537   5.786
 4515POPC   GL257302  39.388  16.921   5.726
 4515POPC   C1A57303  39.360  16.391   6.231
 4515POPC   D2A57304  39.443  16.410   6.673
 4515POPC   C3A57305  39.211  16.607   7.041
 4515POPC   C4A57306  39.319  17.008   7.234
 4515POPC   C1B57307  39.113  16.833   6.104
 4515POPC   C2B57308  39.055  16.749   6.556
 4515POPC   C3B57309  38.891  17.005   6.924
 4515POPC   C4B57310  38.838  17.131   7.361
 4516POPC   NC357311   5.875  25.528   5.400
 4516POPC   PO457312   6.314  24.982   5.480
 4516POPC   GL157313   6.047  25.190   5.739
 4516POPC   GL257314   6.217  25.491   5.797
 4516POPC   C1A57315   5.923  25.184   6.156
 4516POPC   D2A57316   6.090  25.360   6.535
 4516POPC   C3A57317   5.924  25.194   6.916
 4516POPC   C4A57318   5.532  25.210   7.185
 4516POPC   C1B57319   6.182  25.782   6.145
 4516POPC   C2B57320   6.376  25.778   6.569
 4516POPC   C3B57321   6.179  25.667   6.968
 4516POPC   C4B57322   5.912  25.514   7.303
 4517POPC   NC357323   7.002   9.415   5.479
 4517POPC   PO457324   7.584   9.061   5.418
 4517POPC   GL157325   7.490   9.092   5.837
 4517POPC   GL257326   7.121   9.102   5.863
 4517POPC   C1A57327   7.697   9.058   6.243
 4517POPC   D2A57328   7.746   9.370   6.556
 4517POPC   C3A57329   7.661   9.210   6.986
 4517POPC   C4A57330   7.555   8.790   7.108
 4517POPC   C1B57331   7.216   8.833   6.222
 4517POPC   C2B57332   7.236   8.864   6.685
 4517POPC   C3B57333   7.152   9.123   7.069
 4517POPC   C4B57334   7.132   8.993   7.512
 4518POPC   NC357335   5.822  27.852   5.450
 4518POPC   PO457336   5.656  28.463   5.457
 4518POPC   GL157337   6.003  28.302   5.734
 4518POPC   GL257338   6.159  28.004   5.840
 4518POPC   C1A57339   6.172  28.466   6.121
 4518POPC   D2A57340   6.170  28.219   6.458
 4518POPC   C3A57341   6.178  28.400   6.850
 4518POPC   C4A57342   6.083  28.286   7.257
 4518POPC   C1B57343   5.774  28.071   6.131
 4518POPC   C2B57344   5.536  28.113   6.508
 4518POPC   C3B57345   5.693  28.138   6.926
 4518POPC   C4B57346   5.716  27.952   7.329
 4519POPC   NC357347  18.698  11.514   5.668
 4519POPC   PO457348  19.263  11.313   5.360
 4519POPC   GL157349  19.360  11.100   5.782
 4519POPC   GL257350  19.105  11.309   5.916
 4519POPC   C1A57351  19.487  11.001   6.240
 4519POPC   D2A57352  19.597  11.019   6.716
 4519POPC   C3A57353  19.411  11.319   7.022
 4519POPC   C4A57354  19.261  11.354   7.407
 4519POPC   C1B57355  18.976  11.102   6.279
 4519POPC   C2B57356  19.061  11.197   6.691
 4519POPC   C3B57357  18.861  11.256   7.095
 4519POPC   C4B57358  18.480  11.153   7.367
 4520POPC   NC357359  44.378  28.236   5.708
 4520POPC   PO457360   0.018  28.137   5.391
 4520POPC   GL157361  44.870  28.390   5.751
 4520POPC   GL257362  44.702  28.731   5.718
 4520POPC   C1A57363  44.783  28.445   6.203
 4520POPC   D2A57364  44.472  28.407   6.537
 4520POPC   C3A57365  44.666  28.431   6.952
 4520POPC   C4A57366  44.737  28.150   7.314
 4520POPC   C1B57367  44.393  28.764   6.081
 4520POPC   C2B57368  44.285  28.920   6.457
 4520POPC   C3B57369  44.265  28.758   6.855
 4520POPC   C4B57370  44.118  28.792   7.251
 4521POPC   NC357371   2.099   6.870   5.190
 4521POPC   PO457372   1.657   6.631   5.605
 4521POPC   GL157373   1.987   6.665   5.829
 4521POPC   GL257374   2.186   6.432   5.658
 4521POPC   C1A57375   1.974   6.631   6.275
 4521POPC   D2A57376   2.139   6.821   6.637
 4521POPC   C3A57377   1.971   6.710   6.996
 4521POPC   C4A57378   1.665   6.644   7.238
 4521POPC   C1B57379   2.398   6.423   6.066
 4521POPC   C2B57380   2.357   6.368   6.506
 4521POPC   C3B57381   2.375   6.410   6.942
 4521POPC   C4B57382   2.447   6.799   7.172
 4522POPC   NC357383  44.140  16.209   5.175
 4522POPC   PO457384  43.710  15.706   5.379
 4522POPC   GL157385  43.934  15.832   5.757
 4522POPC   GL257386  43.611  15.820   5.904
 4522POPC   C1A57387  44.016  16.069   6.133
 4522POPC   D2A57388  43.854  16.175   6.540
 4522POPC   C3A57389  43.889  15.911   6.879
 4522POPC   C4A57390  44.210  16.009   7.198
 4522POPC   C1B57391  43.689  15.724   6.339
 4522POPC   C2B57392  43.457  15.632   6.707
 4522POPC   C3B57393  43.449  15.620   7.145
 4522POPC   C4B57394  43.809  15.738   7.351
 4523POPC   NC357395   6.163  20.293   5.439
 4523POPC   PO457396   5.661  20.702   5.476
 4523POPC   GL157397   5.747  20.618   5.874
 4523POPC   GL257398   5.518  20.375   5.859
 4523POPC   C1A57399   5.980  20.655   6.252
 4523POPC   D2A57400   6.127  20.546   6.617
 4523POPC   C3A57401   6.114  20.811   6.943
 4523POPC   C4A57402   6.128  20.594   7.336
 4523POPC   C1B57403   5.674  20.247   6.255
 4523POPC   C2B57404   5.606  20.387   6.640
 4523POPC   C3B57405   5.741  20.433   7.030
 4523POPC   C4B57406   5.576  20.569   7.391
 4524POPC   NC357407  31.349  16.852   5.358
 4524POPC   PO457408  31.366  16.212   5.356
 4524POPC   GL157409  31.374  16.505   5.742
 4524POPC   GL257410  31.657  16.760   5.806
 4524POPC   C1A57411  31.287  16.524   6.187
 4524POPC   D2A57412  31.544  16.488   6.531
 4524POPC   C3A57413  31.336  16.592   6.896
 4524POPC   C4A57414  31.459  16.762   7.274
 4524POPC   C1B57415  31.787  16.878   6.263
 4524POPC   C2B57416  31.799  16.895   6.753
 4524POPC   C3B57417  31.985  16.901   7.198
 4524POPC   C4B57418  31.836  16.901   7.641
 4525POPC   NC357419  26.385   4.858   5.480
 4525POPC   PO457420  25.732   4.817   5.751
 4525POPC   GL157421  26.024   5.073   5.882
 4525POPC   GL257422  26.188   5.411   5.797
 4525POPC   C1A57423  25.954   5.087   6.316
 4525POPC   D2A57424  25.872   5.165   6.727
 4525POPC   C3A57425  26.066   4.860   7.007
 4525POPC   C4A57426  26.106   5.001   7.416
 4525POPC   C1B57427  26.440   5.181   6.138
 4525POPC   C2B57428  26.382   5.165   6.580
 4525POPC   C3B57429  26.274   5.333   7.004
 4525POPC   C4B57430  26.487   5.320   7.390
 4526POPC   NC357431  25.994   2.399   5.523
 4526POPC   PO457432  25.879   3.058   5.395
 4526POPC   GL157433  26.017   2.928   5.791
 4526POPC   GL257434  26.299   2.698   5.819
 4526POPC   C1A57435  25.945   2.705   6.168
 4526POPC   D2A57436  26.148   2.688   6.553
 4526POPC   C3A57437  25.941   2.791   6.931
 4526POPC   C4A57438  26.047   2.676   7.326
 4526POPC   C1B57439  26.452   3.025   6.089
 4526POPC   C2B57440  26.436   3.269   6.453
 4526POPC   C3B57441  26.280   3.133   6.806
 4526POPC   C4B57442  26.302   3.097   7.232
 4527POPC   NC357443  40.019   0.960   5.534
 4527POPC   PO457444  39.522   0.437   5.434
 4527POPC   GL157445  39.821   0.417   5.806
 4527POPC   GL257446  39.780   0.740   5.917
 4527POPC   C1A57447  40.014   0.343   6.252
 4527POPC   D2A57448  39.901   0.133   6.669
 4527POPC   C3A57449  39.883   0.271   7.070
 4527POPC   C4A57450  40.098   0.229   7.460
 4527POPC   C1B57451  39.993   0.851   6.274
 4527POPC   C2B57452  40.144   0.733   6.681
 4527POPC   C3B57453  40.270   0.600   7.063
 4527POPC   C4B57454  40.063   0.729   7.404
 4528POPC   NC357455  44.165  14.543   5.560
 4528POPC   PO457456  43.672  14.156   5.542
 4528POPC   GL157457  43.765  14.466   5.862
 4528POPC   GL257458  44.019  14.259   5.944
 4528POPC   C1A57459  43.848  14.647   6.300
 4528POPC   D2A57460  43.797  14.854   6.726
 4528POPC   C3A57461  43.798  14.616   7.107
 4528POPC   C4A57462  44.103  14.442   7.402
 4528POPC   C1B57463  43.794  14.116   6.261
 4528POPC   C2B57464  43.876  14.089   6.651
 4528POPC   C3B57465  44.045  14.177   6.985
 4528POPC   C4B57466  43.746  14.108   7.293
 4529POPC   NC357467   6.590  30.001   5.263
 4529POPC   PO457468   6.392  30.573   5.545
 4529POPC   GL157469   6.506  30.141   5.751
 4529POPC   GL257470   6.723  29.810   5.769
 4529POPC   C1A57471   6.451  29.979   6.178
 4529POPC   D2A57472   6.656  30.131   6.518
 4529POPC   C3A57473   6.597  30.224   6.942
 4529POPC   C4A57474   6.511  30.219   7.378
 4529POPC   C1B57475   6.965  29.877   6.172
 4529POPC   C2B57476   6.909  29.692   6.591
 4529POPC   C3B57477   6.775  29.729   7.009
 4529POPC   C4B57478   7.052  29.994   7.216
 4530POPC   NC357479   9.865  13.824   5.359
 4530POPC   PO457480   9.289  13.480   5.123
 4530POPC   GL157481   9.404  13.331   5.625
 4530POPC   GL257482   9.780  13.395   5.638
 4530POPC   C1A57483   9.452  13.456   6.118
 4530POPC   D2A57484   9.550  13.491   6.591
 4530POPC   C3A57485   9.467  13.882   6.861
 4530POPC   C4A57486   9.485  13.937   7.312
 4530POPC   C1B57487   9.944  13.580   6.049
 4530POPC   C2B57488  10.076  13.497   6.495
 4530POPC   C3B57489  10.005  13.595   6.916
 4530POPC   C4B57490  10.014  13.448   7.345
 4531POPC   NC357491  41.297  31.794   5.461
 4531POPC   PO457492  41.807  31.374   5.483
 4531POPC   GL157493  41.506  31.467   5.794
 4531POPC   GL257494  41.261  31.183   5.873
 4531POPC   C1A57495  41.514  31.598   6.191
 4531POPC   D2A57496  41.694  31.593   6.581
 4531POPC   C3A57497  41.469  31.858   6.852
 4531POPC   C4A57498  41.408  31.789   7.292
 4531POPC   C1B57499  41.270  31.181   6.340
 4531POPC   C2B57500  41.230  31.390   6.738
 4531POPC   C3B57501  41.457  31.301   7.136
 4531POPC   C4B57502  41.314  31.152   7.563
 4532POPC   NC357503  28.634  39.659   5.117
 4532POPC   PO457504  28.215  40.137   5.468
 4532POPC   GL157505  28.447  40.045   5.841
 4532POPC   GL257506  28.379  39.717   5.827
 4532POPC   C1A57507  28.489  39.920   6.288
 4532POPC   D2A57508  28.397  40.045   6.691
 4532POPC   C3A57509  28.531  39.784   7.010
 4532POPC   C4A57510  28.491  40.098   7.296
 4532POPC   C1B57511  28.186  39.540   6.159
 4532POPC   C2B57512  28.249  39.542   6.566
 4532POPC   C3B57513  28.114  39.503   6.959
 4532POPC   C4B57514  28.071  39.810   7.268
 4533POPC   NC357515  16.968  42.785   5.294
 4533POPC   PO457516  16.526  42.295   5.182
 4533POPC   GL157517  16.685  42.263   5.638
 4533POPC   GL257518  16.580  42.577   5.745
 4533POPC   C1A57519  16.948  42.392   6.053
 4533POPC   D2A57520  16.887  42.498   6.518
 4533POPC   C3A57521  16.743  42.269   6.899
 4533POPC   C4A57522  16.972  42.168   7.306
 4533POPC   C1B57523  16.438  42.529   6.193
 4533POPC   C2B57524  16.396  42.677   6.633
 4533POPC   C3B57525  16.592  42.764   7.014
 4533POPC   C4B57526  16.579  42.465   7.356
 4534POPC   NC357527  19.217  42.186   5.360
 4534POPC   PO457528  18.632  41.870   5.711
 4534POPC   GL157529  18.980  42.192   5.884
 4534POPC   GL257530  19.114  42.514   5.741
 4534POPC   C1A57531  18.932  42.355   6.341
 4534POPC   D2A57532  18.809  42.182   6.745
 4534POPC   C3A57533  18.822  42.377   7.127
 4534POPC   C4A57534  19.088  42.314   7.502
 4534POPC   C1B57535  19.107  42.778   6.109
 4534POPC   C2B57536  19.430  42.867   6.419
 4534POPC   C3B57537  19.341  42.688   6.791
 4534POPC   C4B57538  19.197  42.714   7.205
 4535POPC   NC357539   9.805  44.537   5.231
 4535POPC   PO457540   9.394   0.060   5.257
 4535POPC   GL157541   9.690  44.889   5.633
 4535POPC   GL257542   9.762  44.544   5.734
 4535POPC   C1A57543   9.897  44.871   6.095
 4535POPC   D2A57544   9.871  44.632   6.506
 4535POPC   C3A57545   9.722  44.804   6.928
 4535POPC   C4A57546   9.475  44.855   7.334
 4535POPC   C1B57547   9.744  44.297   6.118
 4535POPC   C2B57548  10.022  44.120   6.431
 4535POPC   C3B57549  10.041  44.255   6.842
 4535POPC   C4B57550  10.183  44.596   7.075
 4536POPC   NC357551  34.714  21.558   5.292
 4536POPC   PO457552  34.165  21.212   5.431
 4536POPC   GL157553  34.451  21.439   5.729
 4536POPC   GL257554  34.836  21.350   5.748
 4536POPC   C1A57555  34.468  21.380   6.172
 4536POPC   D2A57556  34.667  21.413   6.586
 4536POPC   C3A57557  34.499  21.465   7.014
 4536POPC   C4A57558  34.318  21.182   7.316
 4536POPC   C1B57559  34.947  21.543   6.141
 4536POPC   C2B57560  35.169  21.464   6.529
 4536POPC   C3B57561  35.067  21.344   6.900
 4536POPC   C4B57562  34.969  21.500   7.243
 4537POPC   NC357563  42.110  29.282   5.431
 4537POPC   PO457564  42.537  28.780   5.189
 4537POPC   GL157565  42.429  28.919   5.631
 4537POPC   GL257566  42.548  29.301   5.684
 4537POPC   C1A57567  42.256  28.929   6.077
 4537POPC   D2A57568  42.175  29.189   6.475
 4537POPC   C3A57569  42.395  29.087   6.881
 4537POPC   C4A57570  42.203  29.065   7.268
 4537POPC   C1B57571  42.527  29.374   6.122
 4537POPC   C2B57572  42.638  29.421   6.549
 4537POPC   C3B57573  42.406  29.589   6.873
 4537POPC   C4B57574  42.466  29.500   7.279
 4538POPC   NC357575   9.177  12.399   5.508
 4538POPC   PO457576   8.603  11.991   5.541
 4538POPC   GL157577   8.824  11.993   5.908
 4538POPC   GL257578   9.140  11.991   5.848
 4538POPC   C1A57579   8.853  12.164   6.322
 4538POPC   D2A57580   8.925  12.523   6.599
 4538POPC   C3A57581   9.002  12.390   6.997
 4538POPC   C4A57582   9.039  11.961   7.128
 4538POPC   C1B57583   9.343  12.118   6.218
 4538POPC   C2B57584   9.250  12.065   6.644
 4538POPC   C3B57585   9.532  12.101   6.974
 4538POPC   C4B57586   9.484  12.022   7.370
 4539POPC   NC357587  13.213  33.499   5.348
 4539POPC   PO457588  12.518  33.688   5.208
 4539POPC   GL157589  12.703  33.586   5.688
 4539POPC   GL257590  13.054  33.713   5.809
 4539POPC   C1A57591  12.678  33.773   6.141
 4539POPC   D2A57592  12.459  33.846   6.496
 4539POPC   C3A57593  12.629  33.854   6.870
 4539POPC   C4A57594  12.587  33.921   7.271
 4539POPC   C1B57595  13.174  33.791   6.281
 4539POPC   C2B57596  13.154  33.831   6.753
 4539POPC   C3B57597  13.107  33.789   7.210
 4539POPC   C4B57598  13.049  33.416   7.504
 4540POPC   NC357599  27.666  38.612   5.363
 4540POPC   PO457600  27.282  38.123   5.481
 4540POPC   GL157601  27.604  38.294   5.775
 4540POPC   GL257602  27.419  38.618   5.810
 4540POPC   C1A57603  27.738  38.176   6.203
 4540POPC   D2A57604  27.540  38.251   6.601
 4540POPC   C3A57605  27.657  38.089   7.019
 4540POPC   C4A57606  27.846  38.227   7.445
 4540POPC   C1B57607  27.670  38.669   6.158
 4540POPC   C2B57608  27.673  38.740   6.601
 4540POPC   C3B57609  27.620  38.625   7.013
 4540POPC   C4B57610  27.831  38.780   7.361
 4541POPC   NC357611   6.844  39.202   5.718
 4541POPC   PO457612   6.243  39.105   5.404
 4541POPC   GL157613   6.280  38.989   5.861
 4541POPC   GL257614   6.617  38.870   6.027
 4541POPC   C1A57615   6.196  38.813   6.287
 4541POPC   D2A57616   6.554  38.849   6.592
 4541POPC   C3A57617   6.581  39.186   6.901
 4541POPC   C4A57618   6.441  39.133   7.325
 4541POPC   C1B57619   6.687  39.254   6.326
 4541POPC   C2B57620   7.019  39.221   6.615
 4541POPC   C3B57621   7.020  39.465   6.969
 4541POPC   C4B57622   6.904  39.326   7.304
 4542POPC   NC357623  12.196  20.226   5.513
 4542POPC   PO457624  11.661  19.923   5.283
 4542POPC   GL157625  11.795  19.917   5.731
 4542POPC   GL257626  11.969  19.611   5.840
 4542POPC   C1A57627  11.919  20.006   6.176
 4542POPC   D2A57628  11.942  19.782   6.573
 4542POPC   C3A57629  11.713  19.941   6.932
 4542POPC   C4A57630  12.063  20.094   7.182
 4542POPC   C1B57631  12.297  19.613   6.191
 4542POPC   C2B57632  12.451  19.649   6.632
 4542POPC   C3B57633  12.250  19.595   7.037
 4542POPC   C4B57634  11.880  19.586   7.244
 4543POPC   NC357635  27.675   7.252   5.384
 4543POPC   PO457636  27.354   7.826   5.541
 4543POPC   GL157637  27.382   7.426   5.809
 4543POPC   GL257638  27.458   7.068   5.816
 4543POPC   C1A57639  27.592   7.364   6.216
 4543POPC   D2A57640  27.578   7.662   6.536
 4543POPC   C3A57641  27.690   7.610   6.939
 4543POPC   C4A57642  27.834   7.708   7.324
 4543POPC   C1B57643  27.266   6.966   6.226
 4543POPC   C2B57644  27.293   7.165   6.642
 4543POPC   C3B57645  27.526   7.128   7.032
 4543POPC   C4B57646  27.944   7.217   7.225
 4544POPC   NC357647  43.294  15.500   5.320
 4544POPC   PO457648  43.070  14.941   5.456
 4544POPC   GL157649  43.338  15.069   5.793
 4544POPC   GL257650  43.284  15.427   5.825
 4544POPC   C1A57651  43.379  14.927   6.236
 4544POPC   D2A57652  43.367  15.120   6.662
 4544POPC   C3A57653  43.256  14.859   7.004
 4544POPC   C4A57654  43.266  14.979   7.446
 4544POPC   C1B57655  43.270  15.431   6.257
 4544POPC   C2B57656  42.979  15.497   6.591
 4544POPC   C3B57657  42.857  15.452   7.021
 4544POPC   C4B57658  42.567  15.512   7.386
 4545POPC   NC357659   5.347   7.883   5.593
 4545POPC   PO457660   4.871   8.316   5.288
 4545POPC   GL157661   4.908   8.125   5.720
 4545POPC   GL257662   5.183   8.359   5.813
 4545POPC   C1A57663   5.103   7.992   6.160
 4545POPC   D2A57664   4.957   8.067   6.545
 4545POPC   C3A57665   5.202   8.110   6.897
 4545POPC   C4A57666   5.000   7.850   7.201
 4545POPC   C1B57667   4.873   8.450   6.190
 4545POPC   C2B57668   4.873   8.551   6.675
 4545POPC   C3B57669   4.809   8.380   7.117
 4545POPC   C4B57670   4.874   8.215   7.552
 4546POPC   NC357671  30.384   3.857   5.627
 4546POPC   PO457672  29.670   3.845   5.615
 4546POPC   GL157673  29.731   3.551   5.918
 4546POPC   GL257674  30.032   3.395   5.778
 4546POPC   C1A57675  29.960   3.639   6.295
 4546POPC   D2A57676  29.986   3.436   6.680
 4546POPC   C3A57677  29.756   3.595   7.019
 4546POPC   C4A57678  30.066   3.847   7.223
 4546POPC   C1B57679  30.007   3.144   6.163
 4546POPC   C2B57680  29.849   2.961   6.551
 4546POPC   C3B57681  29.985   3.002   6.958
 4546POPC   C4B57682  30.148   3.328   7.187
 4547POPC   NC357683  33.259  32.324   5.528
 4547POPC   PO457684  33.985  32.411   5.425
 4547POPC   GL157685  33.770  32.471   5.812
 4547POPC   GL257686  33.652  32.128   5.783
 4547POPC   C1A57687  33.792  32.427   6.287
 4547POPC   D2A57688  33.500  32.416   6.659
 4547POPC   C3A57689  33.649  32.528   7.067
 4547POPC   C4A57690  34.049  32.319   7.192
 4547POPC   C1B57691  33.497  32.028   6.184
 4547POPC   C2B57692  33.728  31.935   6.559
 4547POPC   C3B57693  33.653  32.024   6.980
 4547POPC   C4B57694  33.712  31.986   7.424
 4548POPC   NC357695  38.138  19.938   5.381
 4548POPC   PO457696  38.753  19.523   5.423
 4548POPC   GL157697  38.527  19.723   5.757
 4548POPC   GL257698  38.435  20.058   5.771
 4548POPC   C1A57699  38.434  19.726   6.204
 4548POPC   D2A57700  38.656  19.585   6.594
 4548POPC   C3A57701  38.438  19.618   7.004
 4548POPC   C4A57702  38.176  19.651   7.382
 4548POPC   C1B57703  38.738  20.149   6.060
 4548POPC   C2B57704  38.812  20.073   6.458
 4548POPC   C3B57705  38.631  20.075   6.845
 4548POPC   C4B57706  38.672  20.043   7.222
 4549POPC   NC357707  18.424   4.012   5.491
 4549POPC   PO457708  18.467   3.311   5.476
 4549POPC   GL157709  18.171   3.331   5.772
 4549POPC   GL257710  18.320   3.648   5.848
 4549POPC   C1A57711  18.010   3.410   6.173
 4549POPC   D2A57712  18.226   3.517   6.537
 4549POPC   C3A57713  18.033   3.387   6.907
 4549POPC   C4A57714  18.354   3.384   7.213
 4549POPC   C1B57715  18.541   3.729   6.203
 4549POPC   C2B57716  18.675   3.851   6.620
 4549POPC   C3B57717  18.700   3.753   7.064
 4549POPC   C4B57718  18.540   3.757   7.527
 4550POPC   NC357719  13.250  25.555   5.445
 4550POPC   PO457720  13.742  25.218   5.179
 4550POPC   GL157721  13.629  25.223   5.689
 4550POPC   GL257722  13.374  25.246   5.858
 4550POPC   C1A57723  13.812  25.317   6.127
 4550POPC   D2A57724  13.668  25.284   6.542
 4550POPC   C3A57725  13.778  25.318   6.974
 4550POPC   C4A57726  14.143  25.151   7.179
 4550POPC   C1B57727  13.237  25.422   6.284
 4550POPC   C2B57728  13.281  25.527   6.752
 4550POPC   C3B57729  13.317  25.471   7.190
 4550POPC   C4B57730  13.413  25.383   7.611
 4551POPC   NC357731  42.001  30.166   5.611
 4551POPC   PO457732  41.393  29.835   5.365
 4551POPC   GL157733  41.525  29.992   5.766
 4551POPC   GL257734  41.815  29.827   5.949
 4551POPC   C1A57735  41.413  30.179   6.171
 4551POPC   D2A57736  41.565  29.962   6.533
 4551POPC   C3A57737  41.477  30.077   6.941
 4551POPC   C4A57738  41.472  29.788   7.255
 4551POPC   C1B57739  41.933  30.187   6.248
 4551POPC   C2B57740  41.775  30.412   6.637
 4551POPC   C3B57741  41.929  30.316   7.042
 4551POPC   C4B57742  41.789  30.224   7.446
 4552POPC   NC357743  42.586  39.461   5.482
 4552POPC   PO457744  42.157  38.934   5.354
 4552POPC   GL157745  42.311  39.048   5.736
 4552POPC   GL257746  41.949  39.071   5.801
 4552POPC   C1A57747  42.533  39.062   6.138
 4552POPC   D2A57748  42.682  39.098   6.556
 4552POPC   C3A57749  42.544  39.276   6.931
 4552POPC   C4A57750  42.389  38.994   7.195
 4552POPC   C1B57751  42.037  39.084   6.199
 4552POPC   C2B57752  42.196  39.310   6.549
 4552POPC   C3B57753  42.042  39.348   6.979
 4552POPC   C4B57754  41.889  39.006   7.196
 4553POPC   NC357755  38.913  38.311   5.456
 4553POPC   PO457756  39.477  37.922   5.484
 4553POPC   GL157757  39.342  38.222   5.857
 4553POPC   GL257758  38.976  38.328   5.950
 4553POPC   C1A57759  39.343  38.624   6.135
 4553POPC   D2A57760  39.159  38.776   6.532
 4553POPC   C3A57761  39.404  38.656   6.907
 4553POPC   C4A57762  39.213  38.527   7.283
 4553POPC   C1B57763  38.914  38.332   6.384
 4553POPC   C2B57764  39.006  38.116   6.757
 4553POPC   C3B57765  38.921  38.136   7.200
 4553POPC   C4B57766  38.913  38.274   7.681
 4554POPC   NC357767  33.780  24.113   5.462
 4554POPC   PO457768  33.910  23.527   5.451
 4554POPC   GL157769  33.811  23.766   5.854
 4554POPC   GL257770  33.532  24.042   5.896
 4554POPC   C1A57771  33.676  23.628   6.281
 4554POPC   D2A57772  33.701  23.380   6.663
 4554POPC   C3A57773  33.833  23.628   7.007
 4554POPC   C4A57774  33.672  23.672   7.420
 4554POPC   C1B57775  33.778  24.122   6.273
 4554POPC   C2B57776  33.778  24.075   6.725
 4554POPC   C3B57777  33.438  23.949   7.021
 4554POPC   C4B57778  33.356  24.060   7.455
 4555POPC   NC357779  20.089  36.895   5.459
 4555POPC   PO457780  19.603  37.318   5.434
 4555POPC   GL157781  19.693  37.080   5.799
 4555POPC   GL257782  19.692  36.747   5.749
 4555POPC   C1A57783  19.987  37.005   6.158
 4555POPC   D2A57784  20.215  37.066   6.555
 4555POPC   C3A57785  20.020  36.952   6.965
 4555POPC   C4A57786  20.047  36.975   7.437
 4555POPC   C1B57787  19.698  36.582   6.173
 4555POPC   C2B57788  19.880  36.665   6.559
 4555POPC   C3B57789  19.917  36.456   6.942
 4555POPC   C4B57790  19.674  36.697   7.228
 4556POPC   NC357791   6.585  34.895   5.525
 4556POPC   PO457792   6.959  34.430   5.823
 4556POPC   GL157793   6.565  34.605   5.972
 4556POPC   GL257794   6.291  34.413   5.945
 4556POPC   C1A57795   6.404  34.694   6.387
 4556POPC   D2A57796   6.597  34.891   6.740
 4556POPC   C3A57797   6.541  34.740   7.134
 4556POPC   C4A57798   6.817  34.843   7.492
 4556POPC   C1B57799   6.512  34.201   6.331
 4556POPC   C2B57800   6.444  34.350   6.771
 4556POPC   C3B57801   6.279  34.305   7.177
 4556POPC   C4B57802   6.587  34.138   7.439
 4557POPC   NC357803  19.648  18.807   5.383
 4557POPC   PO457804  19.969  18.195   5.365
 4557POPC   GL157805  19.934  18.083   5.770
 4557POPC   GL257806  20.133  18.401   5.797
 4557POPC   C1A57807  19.962  18.100   6.200
 4557POPC   D2A57808  19.625  18.215   6.497
 4557POPC   C3A57809  19.655  18.408   6.945
 4557POPC   C4A57810  19.738  18.818   7.185
 4557POPC   C1B57811  20.062  18.618   6.160
 4557POPC   C2B57812  20.097  18.452   6.548
 4557POPC   C3B57813  20.124  18.607   6.912
 4557POPC   C4B57814  20.058  18.369   7.278
 4558POPC   NC357815  44.642  28.528   5.207
 4558POPC   PO457816  44.797  29.112   5.350
 4558POPC   GL157817  44.604  29.353   5.642
 4558POPC   GL257818  44.901  29.290   5.830
 4558POPC   C1A57819  44.432  29.265   6.045
 4558POPC   D2A57820  44.610  29.355   6.445
 4558POPC   C3A57821  44.543  29.172   6.850
 4558POPC   C4A57822  44.572  29.001   7.255
 4558POPC   C1B57823  44.850  28.984   6.155
 4558POPC   C2B57824  44.817  28.834   6.579
 4558POPC   C3B57825   0.016  28.886   6.998
 4558POPC   C4B57826  44.926  28.622   7.356
 4559POPC   NC357827  44.457  40.407   5.551
 4559POPC   PO457828  44.872  40.968   5.468
 4559POPC   GL157829  44.611  40.989   5.774
 4559POPC   GL257830  44.253  40.864   5.715
 4559POPC   C1A57831  44.714  40.742   6.124
 4559POPC   D2A57832  44.801  40.437   6.418
 4559POPC   C3A57833  44.690  40.579   6.802
 4559POPC   C4A57834  44.609  40.633   7.216
 4559POPC   C1B57835  44.280  41.020   6.138
 4559POPC   C2B57836  44.555  41.025   6.518
 4559POPC   C3B57837  44.614  41.080   6.958
 4559POPC   C4B57838  44.298  41.025   7.321
 4560POPC   NC357839  44.228  39.379   5.369
 4560POPC   PO457840  43.836  38.752   5.527
 4560POPC   GL157841  43.976  39.130   5.750
 4560POPC   GL257842  43.732  39.335   5.858
 4560POPC   C1A57843  44.104  39.246   6.179
 4560POPC   D2A57844  44.178  38.958   6.531
 4560POPC   C3A57845  44.052  39.142   6.922
 4560POPC   C4A57846  44.285  39.340   7.258
 4560POPC   C1B57847  43.703  39.569   6.211
 4560POPC   C2B57848  43.909  39.531   6.599
 4560POPC   C3B57849  43.716  39.612   6.980
 4560POPC   C4B57850  43.785  39.356   7.325
 4561POPC   NC357851  39.879   0.129   5.372
 4561POPC   PO457852  40.209  44.561   5.531
 4561POPC   GL157853  40.102  44.732   5.900
 4561POPC   GL257854  39.787  44.865   5.821
 4561POPC   C1A57855  40.092  44.553   6.298
 4561POPC   D2A57856  39.857  44.628   6.654
 4561POPC   C3A57857  39.807  44.362   6.970
 4561POPC   C4A57858  40.203  44.262   7.153
 4561POPC   C1B57859  39.696  44.929   6.249
 4561POPC   C2B57860  39.430  44.895   6.633
 4561POPC   C3B57861  39.570  44.843   7.044
 4561POPC   C4B57862  40.020  44.785   7.145
 4562POPC   NC357863  11.396  39.403   5.301
 4562POPC   PO457864  10.914  38.978   5.629
 4562POPC   GL157865  11.137  39.176   5.903
 4562POPC   GL257866  11.465  39.234   5.845
 4562POPC   C1A57867  11.179  39.154   6.328
 4562POPC   D2A57868  11.117  38.937   6.694
 4562POPC   C3A57869  11.269  39.190   6.961
 4562POPC   C4A57870  11.110  39.271   7.327
 4562POPC   C1B57871  11.547  38.870   6.114
 4562POPC   C2B57872  11.614  38.938   6.557
 4562POPC   C3B57873  11.777  39.177   6.913
 4562POPC   C4B57874  11.618  39.292   7.324
 4563POPC   NC357875  18.906  40.484   5.427
 4563POPC   PO457876  19.513  40.072   5.465
 4563POPC   GL157877  19.279  40.029   5.829
 4563POPC   GL257878  19.076  40.310   5.877
 4563POPC   C1A57879  19.270  40.041   6.275
 4563POPC   D2A57880  19.101  40.289   6.587
 4563POPC   C3A57881  19.229  40.062   6.914
 4563POPC   C4A57882  19.045  39.797   7.170
 4563POPC   C1B57883  18.785  40.168   6.186
 4563POPC   C2B57884  18.581  40.171   6.594
 4563POPC   C3B57885  18.660  40.103   7.025
 4563POPC   C4B57886  18.701  40.316   7.425
 4564POPC   NC357887  17.657   6.587   5.124
 4564POPC   PO457888  17.924   6.678   5.671
 4564POPC   GL157889  17.541   6.577   5.907
 4564POPC   GL257890  17.213   6.493   5.723
 4564POPC   C1A57891  17.296   6.803   6.248
 4564POPC   D2A57892  17.290   6.856   6.707
 4564POPC   C3A57893  17.538   6.659   7.005
 4564POPC   C4A57894  17.525   6.891   7.380
 4564POPC   C1B57895  17.181   6.313   6.153
 4564POPC   C2B57896  17.409   6.376   6.542
 4564POPC   C3B57897  17.472   6.154   6.911
 4564POPC   C4B57898  17.310   6.274   7.316
 4565POPC   NC357899  24.681  34.711   5.331
 4565POPC   PO457900  24.764  35.259   5.584
 4565POPC   GL157901  24.860  34.857   5.809
 4565POPC   GL257902  24.547  34.651   5.813
 4565POPC   C1A57903  24.814  34.625   6.218
 4565POPC   D2A57904  24.518  34.596   6.563
 4565POPC   C3A57905  24.634  34.476   6.953
 4565POPC   C4A57906  24.469  34.508   7.364
 4565POPC   C1B57907  24.250  34.757   6.167
 4565POPC   C2B57908  24.180  34.987   6.554
 4565POPC   C3B57909  24.202  34.791   6.984
 4565POPC   C4B57910  23.962  34.639   7.340
 4566POPC   NC357911   0.988   2.809   5.333
 4566POPC   PO457912   1.546   3.236   5.323
 4566POPC   GL157913   1.370   2.997   5.679
 4566POPC   GL257914   1.436   2.662   5.625
 4566POPC   C1A57915   1.101   2.782   6.042
 4566POPC   D2A57916   1.052   2.587   6.490
 4566POPC   C3A57917   1.112   2.830   6.921
 4566POPC   C4A57918   1.438   3.112   7.174
 4566POPC   C1B57919   1.484   2.419   6.009
 4566POPC   C2B57920   1.549   2.359   6.452
 4566POPC   C3B57921   1.396   2.420   6.857
 4566POPC   C4B57922   1.165   2.265   7.168
 4567POPC   NC357923   5.211  32.102   5.506
 4567POPC   PO457924   4.707  32.429   5.367
 4567POPC   GL157925   4.891  32.388   5.775
 4567POPC   GL257926   4.827  32.021   5.851
 4567POPC   C1A57927   4.834  32.362   6.216
 4567POPC   D2A57928   5.116  32.445   6.529
 4567POPC   C3A57929   5.078  32.298   6.947
 4567POPC   C4A57930   5.156  32.556   7.298
 4567POPC   C1B57931   5.175  31.976   6.147
 4567POPC   C2B57932   5.278  31.703   6.480
 4567POPC   C3B57933   5.007  31.643   6.797
 4567POPC   C4B57934   5.016  31.824   7.196
 4568POPC   NC357935  13.240  32.755   5.480
 4568POPC   PO457936  13.688  33.298   5.324
 4568POPC   GL157937  13.722  33.124   5.778
 4568POPC   GL257938  13.697  32.780   5.792
 4568POPC   C1A57939  13.835  33.198   6.224
 4568POPC   D2A57940  13.693  32.950   6.573
 4568POPC   C3A57941  13.887  33.030   6.960
 4568POPC   C4A57942  13.621  33.037   7.280
 4568POPC   C1B57943  13.415  32.850   6.152
 4568POPC   C2B57944  13.325  32.566   6.534
 4568POPC   C3B57945  13.316  32.658   6.982
 4568POPC   C4B57946  13.489  32.575   7.418
 4569POPC   NC357947  15.415  34.325   5.442
 4569POPC   PO457948  15.025  34.934   5.406
 4569POPC   GL157949  15.080  34.626   5.710
 4569POPC   GL257950  15.413  34.706   5.795
 4569POPC   C1A57951  14.987  34.409   6.097
 4569POPC   D2A57952  14.926  34.316   6.529
 4569POPC   C3A57953  15.030  34.598   6.846
 4569POPC   C4A57954  15.035  34.686   7.262
 4569POPC   C1B57955  15.487  34.530   6.217
 4569POPC   C2B57956  15.460  34.376   6.651
 4569POPC   C3B57957  15.466  34.427   7.109
 4569POPC   C4B57958  15.507  34.834   7.364
 4570POPC   NC357959   6.959  18.643   5.395
 4570POPC   PO457960   6.571  19.164   5.405
 4570POPC   GL157961   6.710  18.942   5.767
 4570POPC   GL257962   6.392  18.828   5.790
 4570POPC   C1A57963   6.789  19.046   6.232
 4570POPC   D2A57964   6.716  19.289   6.643
 4570POPC   C3A57965   6.772  19.096   7.086
 4570POPC   C4A57966   6.619  18.863   7.464
 4570POPC   C1B57967   6.284  19.073   6.157
 4570POPC   C2B57968   6.225  19.052   6.618
 4570POPC   C3B57969   6.326  19.313   6.999
 4570POPC   C4B57970   6.444  19.325   7.454
 4571POPC   NC357971  20.394  15.642   5.402
 4571POPC   PO457972  20.840  16.128   5.506
 4571POPC   GL157973  20.683  16.068   5.883
 4571POPC   GL257974  20.625  15.724   5.849
 4571POPC   C1A57975  20.693  16.244   6.317
 4571POPC   D2A57976  20.646  16.367   6.749
 4571POPC   C3A57977  20.881  16.205   7.062
 4571POPC   C4A57978  20.757  16.084   7.455
 4571POPC   C1B57979  20.350  15.842   6.192
 4571POPC   C2B57980  20.420  15.933   6.617
 4571POPC   C3B57981  20.524  15.842   7.027
 4571POPC   C4B57982  20.235  15.580   7.184
 4572POPC   NC357983  14.064  44.820   5.401
 4572POPC   PO457984  13.429  44.715   5.460
 4572POPC   GL157985  13.610  44.686   5.831
 4572POPC   GL257986  13.967  44.735   5.902
 4572POPC   C1A57987  13.498  44.510   6.192
 4572POPC   D2A57988  13.334  44.726   6.518
 4572POPC   C3A57989  13.558  44.544   6.816
 4572POPC   C4A57990  13.674  44.687   7.196
 4572POPC   C1B57991  13.826  44.907   6.333
 4572POPC   C2B57992  13.901  44.929   6.783
 4572POPC   C3B57993  14.176  44.815   7.143
 4572POPC   C4B57994  13.993  44.911   7.549
 4573POPC   NC357995  20.378  17.947   5.538
 4573POPC   PO457996  20.797  18.524   5.345
 4573POPC   GL157997  20.650  18.378   5.745
 4573POPC   GL257998  20.952  18.361   5.930
 4573POPC   C1A57999  20.465  18.297   6.168
 4573POPC   D2A58000  20.439  18.024   6.508
 4573POPC   C3A58001  20.338  18.135   6.916
 4573POPC   C4A58002  20.561  18.083   7.309
 4573POPC   C1B58003  20.921  18.163   6.369
 4573POPC   C2B58004  20.884  18.159   6.839
 4573POPC   C3B58005  21.020  18.314   7.246
 4573POPC   C4B58006  20.918  18.353   7.669
 4574POPC   NC358007  14.581   7.011   5.507
 4574POPC   PO458008  14.203   6.543   5.197
 4574POPC   GL158009  14.366   6.490   5.671
 4574POPC   GL258010  14.318   6.779   5.871
 4574POPC   C1A58011  14.429   6.385   6.176
 4574POPC   D2A58012  14.298   6.224   6.626
 4574POPC   C3A58013  14.372   6.451   7.051
 4574POPC   C4A58014  14.363   6.405   7.559
 4574POPC   C1B58015  14.117   6.783   6.260
 4574POPC   C2B58016  14.038   6.686   6.688
 4574POPC   C3B58017  14.005   6.949   7.034
 4574POPC   C4B58018  14.042   6.926   7.449
 4575POPC   NC358019   4.526  31.977   5.441
 4575POPC   PO458020   4.113  32.492   5.347
 4575POPC   GL158021   4.143  32.188   5.706
 4575POPC   GL258022   4.391  32.387   5.781
 4575POPC   C1A58023   4.399  32.042   6.122
 4575POPC   D2A58024   4.723  31.892   6.419
 4575POPC   C3A58025   4.597  31.965   6.851
 4575POPC   C4A58026   4.629  32.256   7.198
 4575POPC   C1B58027   4.386  32.592   6.165
 4575POPC   C2B58028   4.449  32.366   6.550
 4575POPC   C3B58029   4.233  32.372   6.924
 4575POPC   C4B58030   4.317  32.693   7.232
 4576POPC   NC358031  21.757  39.744   5.391
 4576POPC   PO458032  21.068  39.880   5.422
 4576POPC   GL158033  21.222  39.732   5.809
 4576POPC   GL258034  20.914  39.770   5.944
 4576POPC   C1A58035  21.367  39.876   6.226
 4576POPC   D2A58036  21.334  40.153   6.577
 4576POPC   C3A58037  21.307  39.866   6.905
 4576POPC   C4A58038  21.577  39.636   7.151
 4576POPC   C1B58039  20.969  40.195   6.133
 4576POPC   C2B58040  20.894  40.419   6.535
 4576POPC   C3B58041  21.082  40.439   6.968
 4576POPC   C4B58042  21.198  40.112   7.337
 4577POPC   NC358043  34.809   5.964   5.268
 4577POPC   PO458044  34.130   6.037   5.294
 4577POPC   GL158045  34.449   6.099   5.634
 4577POPC   GL258046  34.542   5.780   5.669
 4577POPC   C1A58047  34.725   6.025   6.063
 4577POPC   D2A58048  34.708   5.785   6.461
 4577POPC   C3A58049  34.665   6.025   6.836
 4577POPC   C4A58050  34.763   5.913   7.231
 4577POPC   C1B58051  34.393   5.617   6.084
 4577POPC   C2B58052  34.297   5.467   6.514
 4577POPC   C3B58053  34.355   5.615   6.943
 4577POPC   C4B58054  34.237   5.421   7.353
 4578POPC   NC358055   4.617  24.024   5.387
 4578POPC   PO458056   4.109  24.385   5.579
 4578POPC   GL158057   4.297  24.416   5.911
 4578POPC   GL258058   4.535  24.670   5.949
 4578POPC   C1A58059   4.200  24.494   6.311
 4578POPC   D2A58060   4.312  24.300   6.672
 4578POPC   C3A58061   4.181  24.516   7.008
 4578POPC   C4A58062   4.066  24.457   7.443
 4578POPC   C1B58063   4.709  24.339   6.202
 4578POPC   C2B58064   4.806  24.193   6.591
 4578POPC   C3B58065   4.694  24.255   7.018
 4578POPC   C4B58066   4.567  24.477   7.343
 4579POPC   NC358067  36.619   6.375   4.971
 4579POPC   PO458068  37.166   6.476   5.291
 4579POPC   GL158069  37.175   6.705   5.663
 4579POPC   GL258070  37.011   6.424   5.802
 4579POPC   C1A58071  37.164   6.787   6.124
 4579POPC   D2A58072  37.121   6.575   6.504
 4579POPC   C3A58073  37.195   6.823   6.861
 4579POPC   C4A58074  37.038   6.760   7.258
 4579POPC   C1B58075  36.707   6.426   6.115
 4579POPC   C2B58076  36.605   6.399   6.532
 4579POPC   C3B58077  36.741   6.568   6.882
 4579POPC   C4B58078  36.745   6.315   7.246
 4580POPC   NC358079  30.043   9.518   5.413
 4580POPC   PO458080  29.628   9.897   5.096
 4580POPC   GL158081  29.742   9.917   5.601
 4580POPC   GL258082  30.033  10.063   5.773
 4580POPC   C1A58083  29.717   9.731   6.049
 4580POPC   D2A58084  29.655   9.833   6.509
 4580POPC   C3A58085  29.633   9.610   6.925
 4580POPC   C4A58086  29.943   9.423   7.221
 4580POPC   C1B58087  29.940  10.185   6.220
 4580POPC   C2B58088  30.137   9.979   6.577
 4580POPC   C3B58089  30.286   9.743   6.907
 4580POPC   C4B58090  30.099   9.963   7.219
 4581POPC   NC358091  36.243   2.224   5.405
 4581POPC   PO458092  36.174   1.500   5.380
 4581POPC   GL158093  36.257   1.750   5.729
 4581POPC   GL258094  35.939   1.938   5.739
 4581POPC   C1A58095  36.272   1.949   6.149
 4581POPC   D2A58096  36.349   2.168   6.523
 4581POPC   C3A58097  36.205   1.983   6.908
 4581POPC   C4A58098  36.003   2.167   7.281
 4581POPC   C1B58099  35.772   1.816   6.150
 4581POPC   C2B58100  35.839   2.010   6.533
 4581POPC   C3B58101  35.683   2.072   6.893
 4581POPC   C4B58102  35.700   1.741   7.159
 4582POPC   NC358103  11.743   7.276   5.496
 4582POPC   PO458104  12.367   7.106   5.237
 4582POPC   GL158105  12.450   7.300   5.701
 4582POPC   GL258106  12.138   7.408   5.786
 4582POPC   C1A58107  12.365   7.469   6.203
 4582POPC   D2A58108  12.253   7.371   6.667
 4582POPC   C3A58109  11.913   7.536   6.850
 4582POPC   C4A58110  11.863   7.734   7.257
 4582POPC   C1B58111  11.891   7.249   6.210
 4582POPC   C2B58112  11.702   7.077   6.617
 4582POPC   C3B58113  11.834   7.019   7.065
 4582POPC   C4B58114  12.182   7.281   7.206
 4583POPC   NC358115  38.248  25.798   5.183
 4583POPC   PO458116  38.700  26.171   5.551
 4583POPC   GL158117  38.348  26.102   5.837
 4583POPC   GL258118  38.148  25.767   5.825
 4583POPC   C1A58119  38.450  26.069   6.275
 4583POPC   D2A58120  38.446  25.786   6.616
 4583POPC   C3A58121  38.690  25.819   6.980
 4583POPC   C4A58122  38.624  26.150   7.254
 4583POPC   C1B58123  38.052  25.714   6.285
 4583POPC   C2B58124  37.963  25.718   6.751
 4583POPC   C3B58125  38.189  25.935   7.103
 4583POPC   C4B58126  38.224  26.029   7.571
 4584POPC   NC358127  32.610   6.887   5.383
 4584POPC   PO458128  32.804   6.225   5.483
 4584POPC   GL158129  32.752   6.539   5.848
 4584POPC   GL258130  32.923   6.891   5.828
 4584POPC   C1A58131  32.765   6.515   6.324
 4584POPC   D2A58132  32.924   6.639   6.738
 4584POPC   C3A58133  32.864   6.449   7.161
 4584POPC   C4A58134  32.654   6.309   7.566
 4584POPC   C1B58135  33.081   6.945   6.293
 4584POPC   C2B58136  33.369   6.863   6.671
 4584POPC   C3B58137  33.254   6.794   7.128
 4584POPC   C4B58138  33.133   6.880   7.563
 4585POPC   NC358139  19.897  33.440   5.397
 4585POPC   PO458140  19.793  32.778   5.458
 4585POPC   GL158141  19.710  33.116   5.747
 4585POPC   GL258142  19.430  32.990   5.934
 4585POPC   C1A58143  19.785  33.287   6.164
 4585POPC   D2A58144  19.676  33.127   6.594
 4585POPC   C3A58145  20.055  33.201   6.867
 4585POPC   C4A58146  20.102  33.253   7.339
 4585POPC   C1B58147  19.760  32.775   6.166
 4585POPC   C2B58148  20.036  32.767   6.536
 4585POPC   C3B58149  19.824  32.759   6.947
 4585POPC   C4B58150  19.640  33.115   7.168
 4586POPC   NC358151  29.593  10.733   5.398
 4586POPC   PO458152  30.199  11.039   5.431
 4586POPC   GL158153  29.952  10.794   5.790
 4586POPC   GL258154  29.704  10.466   5.812
 4586POPC   C1A58155  30.028  10.715   6.239
 4586POPC   D2A58156  30.230  10.482   6.574
 4586POPC   C3A58157  30.040  10.513   7.006
 4586POPC   C4A58158  29.986  10.859   7.273
 4586POPC   C1B58159  29.531  10.552   6.216
 4586POPC   C2B58160  29.683  10.470   6.614
 4586POPC   C3B58161  29.713  10.141   6.912
 4586POPC   C4B58162  29.685  10.262   7.311
 4587POPC   NC358163  20.866  22.319   5.468
 4587POPC   PO458164  20.338  21.845   5.384
 4587POPC   GL158165  20.441  22.085   5.744
 4587POPC   GL258166  20.749  21.889   5.810
 4587POPC   C1A58167  20.375  22.124   6.197
 4587POPC   D2A58168  20.598  21.941   6.562
 4587POPC   C3A58169  20.337  21.967   6.921
 4587POPC   C4A58170  20.271  22.202   7.284
 4587POPC   C1B58171  20.868  22.207   6.123
 4587POPC   C2B58172  20.754  22.475   6.481
 4587POPC   C3B58173  20.736  22.332   6.898
 4587POPC   C4B58174  20.787  21.938   7.150
 4588POPC   NC358175  33.726  12.152   5.443
 4588POPC   PO458176  34.316  12.248   5.728
 4588POPC   GL158177  33.870  12.234   5.919
 4588POPC   GL258178  33.597  11.953   5.906
 4588POPC   C1A58179  33.536  12.336   6.209
 4588POPC   D2A58180  33.490  12.292   6.642
 4588POPC   C3A58181  33.821  12.132   6.870
 4588POPC   C4A58182  33.788  12.298   7.249
 4588POPC   C1B58183  33.596  11.771   6.315
 4588POPC   C2B58184  33.699  11.640   6.735
 4588POPC   C3B58185  33.559  11.711   7.161
 4588POPC   C4B58186  33.484  11.959   7.524
 4589POPC   NC358187  20.051  21.469   5.467
 4589POPC   PO458188  19.622  21.085   5.186
 4589POPC   GL158189  19.642  21.202   5.676
 4589POPC   GL258190  19.980  21.184   5.866
 4589POPC   C1A58191  19.600  21.348   6.148
 4589POPC   D2A58192  19.788  21.212   6.570
 4589POPC   C3A58193  19.634  21.210   7.017
 4589POPC   C4A58194  19.788  21.575   7.292
 4589POPC   C1B58195  20.198  21.143   6.242
 4589POPC   C2B58196  20.291  21.076   6.660
 4589POPC   C3B58197  20.117  21.315   6.990
 4589POPC   C4B58198  20.016  21.140   7.403
 4590POPC   NC358199   7.036  27.399   5.377
 4590POPC   PO458200   7.550  27.642   5.505
 4590POPC   GL158201   7.338  27.488   5.815
 4590POPC   GL258202   7.094  27.778   5.756
 4590POPC   C1A58203   7.403  27.368   6.259
 4590POPC   D2A58204   7.585  27.611   6.612
 4590POPC   C3A58205   7.685  27.487   7.054
 4590POPC   C4A58206   7.456  27.371   7.467
 4590POPC   C1B58207   7.307  27.892   6.147
 4590POPC   C2B58208   7.146  27.982   6.556
 4590POPC   C3B58209   7.280  27.855   6.974
 4590POPC   C4B58210   7.006  27.710   7.270
 4591POPC   NC358211  23.396  16.751   5.037
 4591POPC   PO458212  24.033  16.890   5.395
 4591POPC   GL158213  23.936  16.633   5.817
 4591POPC   GL258214  23.580  16.720   5.874
 4591POPC   C1A58215  23.810  16.590   6.300
 4591POPC   D2A58216  23.466  16.813   6.598
 4591POPC   C3A58217  23.526  16.967   7.051
 4591POPC   C4A58218  23.608  17.027   7.524
 4591POPC   C1B58219  23.322  16.503   6.161
 4591POPC   C2B58220  23.450  16.296   6.561
 4591POPC   C3B58221  23.356  16.386   6.970
 4591POPC   C4B58222  23.480  16.546   7.354
 4592POPC   NC358223  24.889  42.474   5.230
 4592POPC   PO458224  24.407  41.898   5.146
 4592POPC   GL158225  24.496  42.221   5.574
 4592POPC   GL258226  24.223  42.430   5.792
 4592POPC   C1A58227  24.686  42.400   6.008
 4592POPC   D2A58228  24.800  42.336   6.474
 4592POPC   C3A58229  24.535  42.363   6.850
 4592POPC   C4A58230  24.633  42.286   7.310
 4592POPC   C1B58231  24.176  42.310   6.269
 4592POPC   C2B58232  23.935  42.340   6.698
 4592POPC   C3B58233  24.107  42.303   7.134
 4592POPC   C4B58234  24.301  41.896   7.204
 4593POPC   NC358235   8.966   1.730   5.180
 4593POPC   PO458236   8.726   2.264   5.528
 4593POPC   GL158237   8.882   2.102   5.915
 4593POPC   GL258238   8.965   1.775   5.767
 4593POPC   C1A58239   9.091   2.081   6.354
 4593POPC   D2A58240   9.327   1.944   6.758
 4593POPC   C3A58241   9.037   1.951   7.122
 4593POPC   C4A58242   9.055   1.964   7.568
 4593POPC   C1B58243   8.827   1.656   6.205
 4593POPC   C2B58244   9.079   1.515   6.546
 4593POPC   C3B58245   9.173   1.443   6.962
 4593POPC   C4B58246   8.924   1.479   7.344
 4594POPC   NC358247  15.817   3.904   5.313
 4594POPC   PO458248  15.961   4.555   5.414
 4594POPC   GL158249  15.830   4.234   5.750
 4594POPC   GL258250  16.133   4.049   5.706
 4594POPC   C1A58251  15.677   4.118   6.208
 4594POPC   D2A58252  15.641   4.043   6.680
 4594POPC   C3A58253  15.929   4.319   6.905
 4594POPC   C4A58254  16.237   4.317   7.235
 4594POPC   C1B58255  16.221   3.922   6.144
 4594POPC   C2B58256  16.332   3.928   6.585
 4594POPC   C3B58257  16.179   3.855   7.016
 4594POPC   C4B58258  16.143   3.884   7.478
 4595POPC   NC358259  31.836  36.912   5.420
 4595POPC   PO458260  31.156  37.071   5.421
 4595POPC   GL158261  31.464  37.045   5.741
 4595POPC   GL258262  31.572  36.689   5.814
 4595POPC   C1A58263  31.499  37.181   6.145
 4595POPC   D2A58264  31.298  37.238   6.511
 4595POPC   C3A58265  31.406  36.946   6.845
 4595POPC   C4A58266  31.449  37.022   7.284
 4595POPC   C1B58267  31.742  36.744   6.253
 4595POPC   C2B58268  31.791  36.644   6.683
 4595POPC   C3B58269  31.798  36.675   7.102
 4595POPC   C4B58270  31.897  36.906   7.477
 4596POPC   NC358271   3.632  28.707   5.316
 4596POPC   PO458272   3.252  29.237   5.363
 4596POPC   GL158273   3.503  29.035   5.705
 4596POPC   GL258274   3.523  29.331   5.903
 4596POPC   C1A58275   3.618  28.865   6.142
 4596POPC   D2A58276   3.488  28.921   6.584
 4596POPC   C3A58277   3.759  28.845   6.971
 4596POPC   C4A58278   3.751  28.916   7.450
 4596POPC   C1B58279   3.254  29.288   6.257
 4596POPC   C2B58280   3.269  29.384   6.678
 4596POPC   C3B58281   3.092  29.377   7.034
 4596POPC   C4B58282   3.480  29.226   7.166
 4597POPC   NC358283  34.110   5.609   5.457
 4597POPC   PO458284  33.536   5.690   5.024
 4597POPC   GL158285  33.660   5.838   5.529
 4597POPC   GL258286  33.966   5.958   5.767
 4597POPC   C1A58287  33.542   5.944   6.015
 4597POPC   D2A58288  33.728   6.158   6.398
 4597POPC   C3A58289  33.721   6.010   6.842
 4597POPC   C4A58290  33.950   5.810   7.174
 4597POPC   C1B58291  34.209   6.096   6.117
 4597POPC   C2B58292  34.207   6.004   6.570
 4597POPC   C3B58293  34.198   6.212   6.988
 4597POPC   C4B58294  34.315   6.052   7.414
 4598POPC   NC358295  22.352  21.707   5.090
 4598POPC   PO458296  22.237  22.320   5.267
 4598POPC   GL158297  22.280  22.176   5.690
 4598POPC   GL258298  22.039  22.307   5.887
 4598POPC   C1A58299  22.470  22.133   6.133
 4598POPC   D2A58300  22.680  21.977   6.508
 4598POPC   C3A58301  22.517  22.017   6.922
 4598POPC   C4A58302  22.365  21.974   7.345
 4598POPC   C1B58303  21.984  21.942   6.128
 4598POPC   C2B58304  22.138  22.004   6.540
 4598POPC   C3B58305  22.018  21.905   6.939
 4598POPC   C4B58306  21.841  22.073   7.268
 4599POPC   NC358307   5.308  18.567   5.573
 4599POPC   PO458308   5.011  18.079   5.242
 4599POPC   GL158309   5.079  18.158   5.761
 4599POPC   GL258310   5.392  17.985   5.968
 4599POPC   C1A58311   4.766  18.360   6.145
 4599POPC   D2A58312   4.669  18.174   6.572
 4599POPC   C3A58313   4.864  18.224   6.992
 4599POPC   C4A58314   4.672  17.946   7.329
 4599POPC   C1B58315   5.267  18.342   6.214
 4599POPC   C2B58316   5.036  18.547   6.577
 4599POPC   C3B58317   5.210  18.616   7.001
 4599POPC   C4B58318   5.345  18.502   7.397
 4600POPC   NC358319  12.753  34.022   5.438
 4600POPC   PO458320  12.510  34.728   5.478
 4600POPC   GL158321  12.812  34.454   5.794
 4600POPC   GL258322  13.007  34.704   6.061
 4600POPC   C1A58323  12.949  34.223   6.151
 4600POPC   D2A58324  12.839  34.183   6.559
 4600POPC   C3A58325  12.933  34.249   6.992
 4600POPC   C4A58326  12.981  34.627   7.211
 4600POPC   C1B58327  13.302  34.704   6.372
 4600POPC   C2B58328  13.022  34.670   6.705
 4600POPC   C3B58329  12.630  34.821   6.891
 4600POPC   C4B58330  12.618  34.994   7.318
 4601POPC   NC358331   1.600  16.044   5.410
 4601POPC   PO458332   0.953  15.897   5.564
 4601POPC   GL158333   1.317  15.758   5.812
 4601POPC   GL258334   1.392  16.088   5.906
 4601POPC   C1A58335   1.549  15.755   6.245
 4601POPC   D2A58336   1.460  16.148   6.501
 4601POPC   C3A58337   1.135  16.056   6.793
 4601POPC   C4A58338   1.161  15.819   7.166
 4601POPC   C1B58339   1.063  15.907   6.238
 4601POPC   C2B58340   0.680  15.981   6.495
 4601POPC   C3B58341   0.639  16.250   6.847
 4601POPC   C4B58342   0.861  16.229   7.216
 4602POPC   NC358343  11.129   3.176   5.052
 4602POPC   PO458344  11.034   2.587   5.292
 4602POPC   GL158345  11.161   2.468   5.768
 4602POPC   GL258346  11.426   2.700   5.926
 4602POPC   C1A58347  11.165   2.424   6.260
 4602POPC   D2A58348  11.358   2.514   6.693
 4602POPC   C3A58349  11.056   2.689   6.928
 4602POPC   C4A58350  11.080   3.002   7.222
 4602POPC   C1B58351  11.627   2.716   6.325
 4602POPC   C2B58352  11.645   2.989   6.718
 4602POPC   C3B58353  11.615   3.090   7.196
 4602POPC   C4B58354  11.573   2.960   7.644
 4603POPC   NC358355  43.319  43.490   5.496
 4603POPC   PO458356  43.134  44.040   5.171
 4603POPC   GL158357  43.155  44.018   5.637
 4603POPC   GL258358  43.477  44.209   5.677
 4603POPC   C1A58359  43.036  43.786   6.050
 4603POPC   D2A58360  43.121  43.915   6.491
 4603POPC   C3A58361  43.222  43.680   6.859
 4603POPC   C4A58362  43.165  43.836   7.308
 4603POPC   C1B58363  43.351  44.191   6.122
 4603POPC   C2B58364  43.488  44.250   6.577
 4603POPC   C3B58365  43.593  44.015   6.979
 4603POPC   C4B58366  43.639  43.946   7.474
 4604POPC   NC358367  20.068  35.002   5.516
 4604POPC   PO458368  19.924  35.670   5.655
 4604POPC   GL158369  20.003  35.314   5.944
 4604POPC   GL258370  19.706  35.096   5.920
 4604POPC   C1A58371  19.980  35.273   6.396
 4604POPC   D2A58372  19.705  35.371   6.727
 4604POPC   C3A58373  19.897  35.474   7.098
 4604POPC   C4A58374  19.610  35.678   7.395
 4604POPC   C1B58375  19.499  35.096   6.323
 4604POPC   C2B58376  19.523  34.908   6.762
 4604POPC   C3B58377  19.566  35.083   7.180
 4604POPC   C4B58378  19.654  34.875   7.559
 4605POPC   NC358379  16.745  30.380   5.463
 4605POPC   PO458380  16.835  29.720   5.303
 4605POPC   GL158381  16.918  29.947   5.679
 4605POPC   GL258382  16.960  29.677   5.873
 4605POPC   C1A58383  16.681  30.076   6.071
 4605POPC   D2A58384  16.513  29.991   6.479
 4605POPC   C3A58385  16.712  30.264   6.784
 4605POPC   C4A58386  16.769  30.132   7.184
 4605POPC   C1B58387  16.779  29.567   6.278
 4605POPC   C2B58388  16.908  29.478   6.708
 4605POPC   C3B58389  16.838  29.613   7.150
 4605POPC   C4B58390  16.671  29.438   7.533
 4606POPC   NC358391  14.017   4.543   5.346
 4606POPC   PO458392  13.641   4.010   5.442
 4606POPC   GL158393  13.890   4.149   5.721
 4606POPC   GL258394  13.728   4.435   5.744
 4606POPC   C1A58395  13.855   4.112   6.140
 4606POPC   D2A58396  13.784   3.884   6.508
 4606POPC   C3A58397  13.633   4.170   6.807
 4606POPC   C4A58398  13.791   4.049   7.193
 4606POPC   C1B58399  13.478   4.487   6.094
 4606POPC   C2B58400  13.206   4.562   6.448
 4606POPC   C3B58401  13.250   4.561   6.895
 4606POPC   C4B58402  13.538   4.487   7.245
 4607POPC   NC358403  16.150   7.161   5.432
 4607POPC   PO458404  15.601   7.476   5.420
 4607POPC   GL158405  15.788   7.328   5.754
 4607POPC   GL258406  16.083   7.568   5.723
 4607POPC   C1A58407  15.654   7.167   6.138
 4607POPC   D2A58408  15.860   7.365   6.487
 4607POPC   C3A58409  15.783   7.269   6.902
 4607POPC   C4A58410  15.851   7.507   7.283
 4607POPC   C1B58411  16.136   7.659   6.143
 4607POPC   C2B58412  16.279   7.706   6.570
 4607POPC   C3B58413  16.236   7.618   6.996
 4607POPC   C4B58414  16.317   7.371   7.384
 4608POPC   NC358415  37.093  11.685   5.604
 4608POPC   PO458416  37.038  11.100   5.171
 4608POPC   GL158417  37.029  11.131   5.668
 4608POPC   GL258418  36.692  11.221   5.810
 4608POPC   C1A58419  37.017  11.019   6.153
 4608POPC   D2A58420  37.155  10.752   6.526
 4608POPC   C3A58421  37.146  11.048   6.900
 4608POPC   C4A58422  36.947  11.127   7.298
 4608POPC   C1B58423  36.514  11.486   6.167
 4608POPC   C2B58424  36.630  11.526   6.618
 4608POPC   C3B58425  36.646  11.494   7.085
 4608POPC   C4B58426  36.383  11.644   7.458
 4609POPC   NC358427  44.137   5.251   5.396
 4609POPC   PO458428  43.965   4.680   5.458
 4609POPC   GL158429  44.133   4.915   5.789
 4609POPC   GL258430  43.850   5.159   5.811
 4609POPC   C1A58431  44.044   4.937   6.224
 4609POPC   D2A58432  43.832   4.775   6.567
 4609POPC   C3A58433  43.895   5.014   6.938
 4609POPC   C4A58434  43.844   4.817   7.319
 4609POPC   C1B58435  43.649   5.424   6.139
 4609POPC   C2B58436  43.736   5.586   6.567
 4609POPC   C3B58437  43.574   5.526   6.979
 4609POPC   C4B58438  43.431   5.233   7.256
 4610POPC   NC358439  11.465   1.804   5.474
 4610POPC   PO458440  11.680   2.381   5.607
 4610POPC   GL158441  11.547   2.177   6.013
 4610POPC   GL258442  11.438   1.822   5.979
 4610POPC   C1A58443  11.440   2.051   6.462
 4610POPC   D2A58444  11.021   2.151   6.679
 4610POPC   C3A58445  11.108   2.173   7.064
 4610POPC   C4A58446  11.509   2.089   7.152
 4610POPC   C1B58447  11.048   1.897   6.172
 4610POPC   C2B58448  10.988   1.685   6.548
 4610POPC   C3B58449  11.228   1.685   6.924
 4610POPC   C4B58450  11.170   1.710   7.361
 4611POPC   NC358451  28.054  33.137   5.471
 4611POPC   PO458452  28.691  32.828   5.465
 4611POPC   GL158453  28.480  32.986   5.822
 4611POPC   GL258454  28.143  32.857   5.890
 4611POPC   C1A58455  28.641  32.887   6.250
 4611POPC   D2A58456  28.789  33.071   6.641
 4611POPC   C3A58457  28.522  33.121   6.978
 4611POPC   C4A58458  28.566  32.796   7.235
 4611POPC   C1B58459  28.217  33.163   6.253
 4611POPC   C2B58460  28.070  33.191   6.694
 4611POPC   C3B58461  28.063  32.888   7.045
 4611POPC   C4B58462  28.145  32.882   7.496
 4612POPC   NC358463  33.884   1.379   5.432
 4612POPC   PO458464  33.349   1.188   5.138
 4612POPC   GL158465  33.442   1.403   5.677
 4612POPC   GL258466  33.731   1.296   5.903
 4612POPC   C1A58467  33.429   1.560   6.177
 4612POPC   D2A58468  33.703   1.379   6.564
 4612POPC   C3A58469  33.662   1.464   7.077
 4612POPC   C4A58470  33.764   1.253   7.515
 4612POPC   C1B58471  33.899   1.037   6.223
 4612POPC   C2B58472  34.095   1.003   6.606
 4612POPC   C3B58473  33.873   1.019   6.955
 4612POPC   C4B58474  33.977   0.834   7.302
 4613POPC   NC358475   1.525   1.799   5.533
 4613POPC   PO458476   1.120   2.332   5.376
 4613POPC   GL158477   1.172   2.070   5.775
 4613POPC   GL258478   1.121   1.678   5.831
 4613POPC   C1A58479   1.271   1.983   6.217
 4613POPC   D2A58480   1.092   2.056   6.620
 4613POPC   C3A58481   1.325   1.838   6.914
 4613POPC   C4A58482   1.493   1.846   7.301
 4613POPC   C1B58483   0.799   1.767   6.197
 4613POPC   C2B58484   0.613   1.771   6.585
 4613POPC   C3B58485   0.698   1.860   6.990
 4613POPC   C4B58486   0.961   1.825   7.311
 4614POPC   NC358487  19.255  31.093   5.600
 4614POPC   PO458488  18.811  31.482   5.211
 4614POPC   GL158489  19.036  31.562   5.647
 4614POPC   GL258490  19.000  31.313   5.958
 4614POPC   C1A58491  18.981  31.781   6.060
 4614POPC   D2A58492  19.084  31.724   6.485
 4614POPC   C3A58493  19.313  31.552   6.835
 4614POPC   C4A58494  19.141  31.523   7.238
 4614POPC   C1B58495  18.749  31.356   6.327
 4614POPC   C2B58496  18.515  31.471   6.684
 4614POPC   C3B58497  18.676  31.301   7.025
 4614POPC   C4B58498  18.960  31.024   7.225
 4615POPC   NC358499  32.217  22.091   5.329
 4615POPC   PO458500  32.315  22.647   5.704
 4615POPC   GL158501  32.462  22.165   5.806
 4615POPC   GL258502  32.242  21.817   5.779
 4615POPC   C1A58503  32.421  21.986   6.232
 4615POPC   D2A58504  32.124  22.050   6.569
 4615POPC   C3A58505  32.288  22.143   6.981
 4615POPC   C4A58506  32.105  22.481   7.258
 4615POPC   C1B58507  31.908  21.847   6.116
 4615POPC   C2B58508  31.794  21.654   6.534
 4615POPC   C3B58509  31.862  21.806   6.987
 4615POPC   C4B58510  32.056  21.965   7.392
 4616POPC   NC358511  31.520   5.810   5.471
 4616POPC   PO458512  31.906   5.399   5.862
 4616POPC   GL158513  31.486   5.660   5.968
 4616POPC   GL258514  31.286   5.988   5.885
 4616POPC   C1A58515  31.247   5.731   6.365
 4616POPC   D2A58516  31.397   5.532   6.762
 4616POPC   C3A58517  31.556   5.776   7.083
 4616POPC   C4A58518  31.857   5.652   7.376
 4616POPC   C1B58519  31.294   6.249   6.227
 4616POPC   C2B58520  31.478   6.138   6.618
 4616POPC   C3B58521  31.371   6.268   7.000
 4616POPC   C4B58522  31.300   6.078   7.392
 4617POPC   NC358523  37.640   2.055   5.074
 4617POPC   PO458524  37.381   2.462   5.560
 4617POPC   GL158525  37.632   2.233   5.904
 4617POPC   GL258526  37.985   2.147   5.879
 4617POPC   C1A58527  37.566   2.155   6.287
 4617POPC   D2A58528  37.863   2.286   6.548
 4617POPC   C3A58529  37.607   2.251   6.885
 4617POPC   C4A58530  37.491   2.112   7.283
 4617POPC   C1B58531  37.972   1.873   6.218
 4617POPC   C2B58532  37.813   1.798   6.662
 4617POPC   C3B58533  37.940   1.893   7.075
 4617POPC   C4B58534  37.836   1.820   7.517
 4618POPC   NC358535  35.653  33.093   5.511
 4618POPC   PO458536  36.321  32.985   5.381
 4618POPC   GL158537  36.106  33.007   5.757
 4618POPC   GL258538  36.093  32.645   5.796
 4618POPC   C1A58539  36.093  33.262   6.141
 4618POPC   D2A58540  36.270  33.296   6.564
 4618POPC   C3A58541  35.986  33.162   6.911
 4618POPC   C4A58542  35.675  33.341   7.199
 4618POPC   C1B58543  35.811  32.791   6.113
 4618POPC   C2B58544  35.751  32.859   6.550
 4618POPC   C3B58545  35.870  32.656   6.912
 4618POPC   C4B58546  36.195  32.637   7.170
 4619POPC   NC358547  23.696  15.874   5.379
 4619POPC   PO458548  23.397  16.495   5.449
 4619POPC   GL158549  23.612  16.200   5.784
 4619POPC   GL258550  23.513  15.818   5.834
 4619POPC   C1A58551  23.768  16.085   6.199
 4619POPC   D2A58552  23.725  15.852   6.600
 4619POPC   C3A58553  23.730  16.021   7.014
 4619POPC   C4A58554  23.716  15.716   7.398
 4619POPC   C1B58555  23.494  15.571   6.232
 4619POPC   C2B58556  23.476  15.385   6.666
 4619POPC   C3B58557  23.671  15.320   7.082
 4619POPC   C4B58558  23.719  15.218   7.524
 4620POPC   NC358559  33.208  30.051   5.549
 4620POPC   PO458560  32.594  30.037   5.486
 4620POPC   GL158561  32.836  29.887   5.871
 4620POPC   GL258562  33.148  29.640   5.865
 4620POPC   C1A58563  33.130  30.051   6.186
 4620POPC   D2A58564  33.224  30.223   6.577
 4620POPC   C3A58565  32.935  30.010   6.806
 4620POPC   C4A58566  32.955  30.042   7.213
 4620POPC   C1B58567  33.269  29.561   6.312
 4620POPC   C2B58568  33.313  29.589   6.760
 4620POPC   C3B58569  32.963  29.551   7.050
 4620POPC   C4B58570  32.554  29.706   7.165
 4621POPC   NC358571  22.128  23.143   5.494
 4621POPC   PO458572  22.098  23.841   5.424
 4621POPC   GL158573  22.257  23.586   5.802
 4621POPC   GL258574  22.455  23.841   5.961
 4621POPC   C1A58575  22.068  23.515   6.251
 4621POPC   D2A58576  21.816  23.455   6.672
 4621POPC   C3A58577  21.872  23.756   7.041
 4621POPC   C4A58578  22.005  23.715   7.527
 4621POPC   C1B58579  22.575  23.593   6.308
 4621POPC   C2B58580  22.788  23.752   6.597
 4621POPC   C3B58581  22.588  23.973   6.857
 4621POPC   C4B58582  22.360  23.810   7.173
 4622POPC   NC358583  33.511   8.158   5.451
 4622POPC   PO458584  34.175   8.212   5.437
 4622POPC   GL158585  33.960   8.278   5.818
 4622POPC   GL258586  33.762   7.989   5.870
 4622POPC   C1A58587  33.917   8.273   6.283
 4622POPC   D2A58588  34.004   8.116   6.697
 4622POPC   C3A58589  33.844   8.433   6.990
 4622POPC   C4A58590  33.509   8.383   7.301
 4622POPC   C1B58591  33.501   7.946   6.241
 4622POPC   C2B58592  33.475   8.135   6.663
 4622POPC   C3B58593  33.638   7.971   7.040
 4622POPC   C4B58594  33.615   7.617   7.247
 4623POPC   NC358595   4.084  27.255   5.211
 4623POPC   PO458596   3.493  27.533   5.432
 4623POPC   GL158597   3.522  27.360   5.854
 4623POPC   GL258598   3.853  27.370   5.997
 4623POPC   C1A58599   3.348  27.431   6.260
 4623POPC   D2A58600   3.606  27.468   6.610
 4623POPC   C3A58601   3.418  27.383   6.999
 4623POPC   C4A58602   3.294  27.653   7.319
 4623POPC   C1B58603   3.749  27.771   6.190
 4623POPC   C2B58604   3.885  27.970   6.577
 4623POPC   C3B58605   3.747  27.827   6.973
 4623POPC   C4B58606   3.606  28.045   7.325
 4624POPC   NC358607  20.369  31.126   5.463
 4624POPC   PO458608  20.530  30.503   5.428
 4624POPC   GL158609  20.414  30.699   5.783
 4624POPC   GL258610  20.661  30.951   5.903
 4624POPC   C1A58611  20.512  30.550   6.177
 4624POPC   D2A58612  20.828  30.607   6.446
 4624POPC   C3A58613  20.653  30.489   6.823
 4624POPC   C4A58614  20.705  30.397   7.231
 4624POPC   C1B58615  20.323  31.034   6.172
 4624POPC   C2B58616  20.403  30.883   6.568
 4624POPC   C3B58617  20.746  31.016   6.779
 4624POPC   C4B58618  20.667  30.886   7.185
 4625POPC   NC358619  34.473  35.274   5.417
 4625POPC   PO458620  34.763  35.876   5.284
 4625POPC   GL158621  34.870  35.565   5.646
 4625POPC   GL258622  34.600  35.390   5.880
 4625POPC   C1A58623  34.988  35.605   6.110
 4625POPC   D2A58624  34.746  35.337   6.425
 4625POPC   C3A58625  34.627  35.479   6.836
 4625POPC   C4A58626  34.782  35.337   7.239
 4625POPC   C1B58627  34.337  35.161   6.184
 4625POPC   C2B58628  34.129  35.150   6.581
 4625POPC   C3B58629  34.320  35.055   6.946
 4625POPC   C4B58630  34.276  35.379   7.230
 4626POPC   NC358631  17.695  33.188   5.470
 4626POPC   PO458632  17.049  33.171   5.451
 4626POPC   GL158633  17.296  33.093   5.818
 4626POPC   GL258634  17.622  32.906   5.897
 4626POPC   C1A58635  17.222  33.013   6.257
 4626POPC   D2A58636  17.458  32.824   6.620
 4626POPC   C3A58637  17.401  32.917   7.077
 4626POPC   C4A58638  17.354  33.085   7.531
 4626POPC   C1B58639  17.813  33.293   6.104
 4626POPC   C2B58640  17.990  33.353   6.498
 4626POPC   C3B58641  17.826  33.159   6.869
 4626POPC   C4B58642  17.787  33.170   7.308
 4627POPC   NC358643  30.647  37.027   5.364
 4627POPC   PO458644  30.758  36.402   5.579
 4627POPC   GL158645  30.830  36.817   5.784
 4627POPC   GL258646  30.509  36.987   5.851
 4627POPC   C1A58647  30.952  37.082   6.139
 4627POPC   D2A58648  31.033  36.812   6.499
 4627POPC   C3A58649  30.992  36.639   6.902
 4627POPC   C4A58650  30.978  37.017   7.117
 4627POPC   C1B58651  30.451  36.991   6.301
 4627POPC   C2B58652  30.212  36.805   6.639
 4627POPC   C3B58653  30.529  36.848   6.916
 4627POPC   C4B58654  30.547  36.819   7.366
 4628POPC   NC358655  41.937   7.346   5.404
 4628POPC   PO458656  41.244   7.258   5.264
 4628POPC   GL158657  41.508   7.416   5.685
 4628POPC   GL258658  41.732   7.193   5.847
 4628POPC   C1A58659  41.458   7.480   6.180
 4628POPC   D2A58660  41.375   7.621   6.627
 4628POPC   C3A58661  41.557   7.429   7.005
 4628POPC   C4A58662  41.373   7.528   7.402
 4628POPC   C1B58663  41.937   7.572   6.072
 4628POPC   C2B58664  41.838   7.793   6.475
 4628POPC   C3B58665  41.954   7.768   6.911
 4628POPC   C4B58666  42.060   7.328   7.005
 4629POPC   NC358667   0.763  27.031   5.524
 4629POPC   PO458668   0.264  26.632   5.574
 4629POPC   GL158669   0.374  26.971   5.852
 4629POPC   GL258670   0.072  27.084   5.954
 4629POPC   C1A58671   0.618  26.926   6.257
 4629POPC   D2A58672   0.741  26.717   6.644
 4629POPC   C3A58673   0.629  26.927   7.067
 4629POPC   C4A58674   0.657  27.009   7.575
 4629POPC   C1B58675   0.121  26.813   6.278
 4629POPC   C2B58676   0.248  26.789   6.683
 4629POPC   C3B58677   0.078  26.760   7.059
 4629POPC   C4B58678   0.215  27.060   7.323
 4630POPC   NC358679  23.580   2.875   5.475
 4630POPC   PO458680  24.024   2.412   5.350
 4630POPC   GL158681  23.762   2.446   5.723
 4630POPC   GL258682  23.890   2.762   5.870
 4630POPC   C1A58683  23.585   2.486   6.158
 4630POPC   D2A58684  23.790   2.569   6.555
 4630POPC   C3A58685  23.479   2.547   6.887
 4630POPC   C4A58686  23.341   2.915   7.104
 4630POPC   C1B58687  23.698   3.002   6.223
 4630POPC   C2B58688  23.590   3.022   6.668
 4630POPC   C3B58689  23.860   2.848   7.029
 4630POPC   C4B58690  23.950   2.941   7.485
 4631POPC   NC358691  17.055  26.311   5.358
 4631POPC   PO458692  17.681  25.976   5.164
 4631POPC   GL158693  17.441  26.025   5.619
 4631POPC   GL258694  17.171  26.267   5.835
 4631POPC   C1A58695  17.563  26.067   6.078
 4631POPC   D2A58696  17.667  26.175   6.484
 4631POPC   C3A58697  17.440  26.313   6.835
 4631POPC   C4A58698  17.588  26.235   7.254
 4631POPC   C1B58699  17.095  25.892   6.091
 4631POPC   C2B58700  17.221  25.874   6.516
 4631POPC   C3B58701  17.059  25.915   6.920
 4631POPC   C4B58702  17.099  26.104   7.311
 4632POPC   NC358703   0.763  37.006   5.544
 4632POPC   PO458704   0.215  36.634   5.422
 4632POPC   GL158705   0.318  36.854   5.792
 4632POPC   GL258706   0.313  37.215   5.749
 4632POPC   C1A58707   0.535  36.711   6.153
 4632POPC   D2A58708   0.424  36.563   6.533
 4632POPC   C3A58709   0.529  36.859   6.819
 4632POPC   C4A58710   0.347  36.821   7.177
 4632POPC   C1B58711   0.470  37.243   6.187
 4632POPC   C2B58712   0.242  37.311   6.584
 4632POPC   C3B58713   0.390  37.347   7.010
 4632POPC   C4B58714   0.576  37.218   7.392
 4633POPC   NC358715  30.998  34.305   5.448
 4633POPC   PO458716  30.593  34.886   5.443
 4633POPC   GL158717  30.769  34.658   5.748
 4633POPC   GL258718  30.590  34.395   5.835
 4633POPC   C1A58719  30.899  34.678   6.159
 4633POPC   D2A58720  30.662  34.606   6.522
 4633POPC   C3A58721  30.868  34.593   6.895
 4633POPC   C4A58722  30.823  34.833   7.224
 4633POPC   C1B58723  30.630  34.204   6.216
 4633POPC   C2B58724  30.416  34.155   6.604
 4633POPC   C3B58725  30.554  34.206   7.008
 4633POPC   C4B58726  30.759  34.343   7.373
 4634POPC   NC358727  37.361  12.527   5.379
 4634POPC   PO458728  38.052  12.520   5.427
 4634POPC   GL158729  37.693  12.752   5.706
 4634POPC   GL258730  37.532  13.100   5.767
 4634POPC   C1A58731  37.534  12.608   6.133
 4634POPC   D2A58732  37.785  12.397   6.484
 4634POPC   C3A58733  37.771  12.561   6.924
 4634POPC   C4A58734  37.979  12.702   7.312
 4634POPC   C1B58735  37.418  13.111   6.207
 4634POPC   C2B58736  37.422  12.880   6.593
 4634POPC   C3B58737  37.390  13.023   7.004
 4634POPC   C4B58738  37.508  12.868   7.395
 4635POPC   NC358739  41.841  22.312   5.477
 4635POPC   PO458740  41.303  21.882   5.476
 4635POPC   GL158741  41.457  22.146   5.829
 4635POPC   GL258742  41.188  22.340   5.964
 4635POPC   C1A58743  41.631  22.394   6.212
 4635POPC   D2A58744  41.473  22.527   6.649
 4635POPC   C3A58745  41.666  22.399   7.057
 4635POPC   C4A58746  41.600  22.214   7.485
 4635POPC   C1B58747  41.078  21.970   6.191
 4635POPC   C2B58748  40.960  21.672   6.503
 4635POPC   C3B58749  41.145  21.913   6.790
 4635POPC   C4B58750  41.229  22.155   7.123
 4636POPC   NC358751  16.231  27.734   5.071
 4636POPC   PO458752  16.736  27.517   5.583
 4636POPC   GL158753  16.877  27.698   5.908
 4636POPC   GL258754  16.929  27.320   6.030
 4636POPC   C1A58755  16.704  27.904   6.251
 4636POPC   D2A58756  16.903  27.598   6.501
 4636POPC   C3A58757  16.868  27.416   6.879
 4636POPC   C4A58758  16.901  27.459   7.282
 4636POPC   C1B58759  16.521  27.410   6.208
 4636POPC   C2B58760  16.366  27.422   6.637
 4636POPC   C3B58761  16.398  27.328   7.090
 4636POPC   C4B58762  16.465  27.437   7.547
 4637POPC   NC358763  40.244  22.581   5.415
 4637POPC   PO458764  40.320  23.289   5.459
 4637POPC   GL158765  40.117  23.118   5.773
 4637POPC   GL258766  40.396  22.912   5.844
 4637POPC   C1A58767  39.887  22.977   6.122
 4637POPC   D2A58768  39.752  22.633   6.358
 4637POPC   C3A58769  39.873  22.676   6.775
 4637POPC   C4A58770  39.784  23.013   7.061
 4637POPC   C1B58771  40.361  23.183   6.223
 4637POPC   C2B58772  40.146  23.067   6.604
 4637POPC   C3B58773  40.267  22.929   7.027
 4637POPC   C4B58774  40.371  23.219   7.346
 4638POPC   NC358775  17.944   8.094   5.512
 4638POPC   PO458776  18.439   8.607   5.441
 4638POPC   GL158777  18.296   8.399   5.834
 4638POPC   GL258778  18.335   8.018   5.819
 4638POPC   C1A58779  17.999   8.314   6.182
 4638POPC   D2A58780  17.916   8.090   6.563
 4638POPC   C3A58781  18.237   8.286   6.793
 4638POPC   C4A58782  18.268   8.435   7.199
 4638POPC   C1B58783  18.242   7.832   6.218
 4638POPC   C2B58784  18.494   7.847   6.587
 4638POPC   C3B58785  18.500   7.929   7.027
 4638POPC   C4B58786  18.059   7.961   7.167
 4639POPC   NC358787  42.601   9.753   5.213
 4639POPC   PO458788  43.325   9.937   5.331
 4639POPC   GL158789  43.080   9.796   5.683
 4639POPC   GL258790  43.273  10.068   5.830
 4639POPC   C1A58791  42.994   9.734   6.145
 4639POPC   D2A58792  42.803   9.870   6.544
 4639POPC   C3A58793  43.023   9.809   6.956
 4639POPC   C4A58794  43.082   9.567   7.330
 4639POPC   C1B58795  43.453  10.178   6.203
 4639POPC   C2B58796  43.298  10.015   6.570
 4639POPC   C3B58797  43.525   9.996   6.945
 4639POPC   C4B58798  43.505  10.125   7.357
 4640POPC   NC358799  17.342  44.998   5.514
 4640POPC   PO458800  17.323   0.660   5.404
 4640POPC   GL158801  17.558   0.464   5.808
 4640POPC   GL258802  17.494   0.131   5.972
 4640POPC   C1A58803  17.836   0.436   6.225
 4640POPC   D2A58804  17.931   0.615   6.662
 4640POPC   C3A58805  17.905   0.298   7.037
 4640POPC   C4A58806  17.883   0.372   7.511
 4640POPC   C1B58807  17.345   0.365   6.326
 4640POPC   C2B58808  17.459   0.409   6.736
 4640POPC   C3B58809  17.369   0.159   7.044
 4640POPC   C4B58810  17.137   0.256   7.377
 4641POPC   NC358811  34.091  30.035   5.401
 4641POPC   PO458812  33.539  29.719   5.537
 4641POPC   GL158813  33.671  30.040   5.795
 4641POPC   GL258814  33.990  29.945   5.916
 4641POPC   C1A58815  33.628  30.174   6.223
 4641POPC   D2A58816  33.694  29.952   6.609
 4641POPC   C3A58817  33.516  30.072   6.993
 4641POPC   C4A58818  33.370  29.759   7.250
 4641POPC   C1B58819  34.133  30.147   6.309
 4641POPC   C2B58820  34.029  30.307   6.722
 4641POPC   C3B58821  34.048  30.034   7.067
 4641POPC   C4B58822  33.804  30.011   7.435
 4642POPC   NC358823   0.115  17.894   5.442
 4642POPC   PO458824   0.592  18.483   5.565
 4642POPC   GL158825   0.411  18.367   5.941
 4642POPC   GL258826   0.382  18.044   5.847
 4642POPC   C1A58827   0.476  18.306   6.399
 4642POPC   D2A58828   0.609  18.270   6.816
 4642POPC   C3A58829   0.398  18.204   7.187
 4642POPC   C4A58830   0.488  18.133   7.630
 4642POPC   C1B58831   0.712  17.957   6.124
 4642POPC   C2B58832   0.731  17.839   6.538
 4642POPC   C3B58833   0.614  17.751   6.949
 4642POPC   C4B58834   0.819  17.865   7.311
 4643POPC   NC358835  19.570  35.933   5.511
 4643POPC   PO458836  20.103  36.415   5.499
 4643POPC   GL158837  19.826  36.252   5.816
 4643POPC   GL258838  19.406  36.326   5.794
 4643POPC   C1A58839  19.956  36.129   6.224
 4643POPC   D2A58840  19.867  35.795   6.507
 4643POPC   C3A58841  19.757  35.930   6.941
 4643POPC   C4A58842  19.802  36.146   7.341
 4643POPC   C1B58843  19.438  36.119   6.190
 4643POPC   C2B58844  19.598  36.251   6.575
 4643POPC   C3B58845  19.433  36.339   6.968
 4643POPC   C4B58846  19.282  36.023   7.194
 4644POPC   NC358847  23.165  31.821   5.385
 4644POPC   PO458848  22.618  31.423   5.471
 4644POPC   GL158849  22.954  31.422   5.766
 4644POPC   GL258850  22.753  31.679   5.927
 4644POPC   C1A58851  23.153  31.500   6.183
 4644POPC   D2A58852  22.945  31.593   6.587
 4644POPC   C3A58853  23.127  31.599   7.018
 4644POPC   C4A58854  23.083  31.326   7.399
 4644POPC   C1B58855  22.654  31.314   6.237
 4644POPC   C2B58856  22.596  31.235   6.721
 4644POPC   C3B58857  22.651  31.423   7.111
 4644POPC   C4B58858  22.588  31.310   7.557
 4645POPC   NC358859  27.590  27.180   5.558
 4645POPC   PO458860  27.329  27.748   5.423
 4645POPC   GL158861  27.372  27.588   5.875
 4645POPC   GL258862  27.242  27.227   5.931
 4645POPC   C1A58863  27.648  27.727   6.239
 4645POPC   D2A58864  27.811  27.877   6.649
 4645POPC   C3A58865  27.592  27.738   7.010
 4645POPC   C4A58866  27.846  27.687   7.389
 4645POPC   C1B58867  27.554  27.224   6.248
 4645POPC   C2B58868  27.656  27.364   6.641
 4645POPC   C3B58869  27.713  27.266   7.064
 4645POPC   C4B58870  27.430  27.296   7.396
 4646POPC   NC358871   9.151   2.435   5.567
 4646POPC   PO458872   8.655   2.829   5.363
 4646POPC   GL158873   8.864   2.800   5.782
 4646POPC   GL258874   9.238   2.884   5.820
 4646POPC   C1A58875   9.007   2.600   6.186
 4646POPC   D2A58876   9.070   2.737   6.600
 4646POPC   C3A58877   8.897   2.430   6.904
 4646POPC   C4A58878   8.909   2.784   7.156
 4646POPC   C1B58879   9.446   2.939   6.234
 4646POPC   C2B58880   9.358   3.173   6.619
 4646POPC   C3B58881   9.313   3.096   7.046
 4646POPC   C4B58882   9.271   2.970   7.479
 4647POPC   NC358883  17.849   6.232   5.616
 4647POPC   PO458884  18.429   5.906   5.284
 4647POPC   GL158885  18.377   5.942   5.715
 4647POPC   GL258886  18.510   5.610   5.762
 4647POPC   C1A58887  18.374   5.972   6.188
 4647POPC   D2A58888  18.136   6.023   6.604
 4647POPC   C3A58889  18.360   5.977   7.004
 4647POPC   C4A58890  18.610   6.076   7.376
 4647POPC   C1B58891  18.324   5.413   6.104
 4647POPC   C2B58892  18.320   5.540   6.510
 4647POPC   C3B58893  18.362   5.376   6.892
 4647POPC   C4B58894  18.256   5.503   7.273
 4648POPC   NC358895  38.252  31.419   5.444
 4648POPC   PO458896  38.728  31.843   5.562
 4648POPC   GL158897  38.716  31.546   5.846
 4648POPC   GL258898  38.661  31.199   5.708
 4648POPC   C1A58899  38.425  31.523   6.191
 4648POPC   D2A58900  38.338  31.606   6.638
 4648POPC   C3A58901  38.332  31.297   6.997
 4648POPC   C4A58902  38.350  31.596   7.308
 4648POPC   C1B58903  38.779  31.141   6.130
 4648POPC   C2B58904  38.853  31.458   6.466
 4648POPC   C3B58905  38.806  31.449   6.936
 4648POPC   C4B58906  38.701  31.100   7.282
 4649POPC   NC358907   5.324  23.317   5.404
 4649POPC   PO458908   4.833  22.808   5.405
 4649POPC   GL158909   5.124  22.943   5.731
 4649POPC   GL258910   4.978  23.263   5.811
 4649POPC   C1A58911   5.257  22.940   6.183
 4649POPC   D2A58912   5.411  23.052   6.613
 4649POPC   C3A58913   5.154  22.912   6.938
 4649POPC   C4A58914   4.931  22.874   7.311
 4649POPC   C1B58915   4.801  23.350   6.225
 4649POPC   C2B58916   4.921  23.337   6.676
 4649POPC   C3B58917   4.826  23.378   7.126
 4649POPC   C4B58918   4.894  23.313   7.579
 4650POPC   NC358919   7.653  22.517   5.678
 4650POPC   PO458920   7.257  21.992   5.598
 4650POPC   GL158921   7.099  22.078   5.981
 4650POPC   GL258922   6.952  22.394   5.862
 4650POPC   C1A58923   7.431  22.147   6.309
 4650POPC   D2A58924   7.769  22.271   6.562
 4650POPC   C3A58925   7.745  21.996   6.890
 4650POPC   C4A58926   7.520  21.918   7.234
 4650POPC   C1B58927   7.134  22.541   6.270
 4650POPC   C2B58928   7.216  22.402   6.730
 4650POPC   C3B58929   7.176  22.315   7.192
 4650POPC   C4B58930   7.091  22.519   7.613
 4651POPC   NC358931   4.526   7.708   5.436
 4651POPC   PO458932   4.088   7.299   5.467
 4651POPC   GL158933   4.146   7.608   5.793
 4651POPC   GL258934   4.482   7.476   5.874
 4651POPC   C1A58935   4.155   7.568   6.258
 4651POPC   D2A58936   4.335   7.240   6.531
 4651POPC   C3A58937   4.139   7.111   6.921
 4651POPC   C4A58938   4.193   7.251   7.322
 4651POPC   C1B58939   4.615   7.821   6.123
 4651POPC   C2B58940   4.567   7.731   6.560
 4651POPC   C3B58941   4.388   7.569   6.935
 4651POPC   C4B58942   4.632   7.500   7.260
 4652POPC   NC358943  42.730   3.996   5.511
 4652POPC   PO458944  42.456   4.596   5.238
 4652POPC   GL158945  42.497   4.422   5.688
 4652POPC   GL258946  42.195   4.485   5.856
 4652POPC   C1A58947  42.462   4.169   6.126
 4652POPC   D2A58948  42.341   4.353   6.529
 4652POPC   C3A58949  42.331   4.134   6.911
 4652POPC   C4A58950  42.585   4.313   7.193
 4652POPC   C1B58951  42.035   4.673   6.220
 4652POPC   C2B58952  41.931   4.684   6.646
 4652POPC   C3B58953  42.189   4.640   6.996
 4652POPC   C4B58954  42.138   4.444   7.366
 4653POPC   NC358955  17.034  29.340   5.470
 4653POPC   PO458956  16.551  28.973   5.270
 4653POPC   GL158957  16.785  28.941   5.696
 4653POPC   GL258958  17.076  28.720   5.808
 4653POPC   C1A58959  16.667  29.058   6.134
 4653POPC   D2A58960  16.787  28.954   6.564
 4653POPC   C3A58961  16.637  29.117   6.966
 4653POPC   C4A58962  16.674  28.819   7.294
 4653POPC   C1B58963  17.179  28.976   6.171
 4653POPC   C2B58964  17.285  29.114   6.581
 4653POPC   C3B58965  17.145  28.944   6.963
 4653POPC   C4B58966  17.050  29.164   7.297
 4654POPC   NC358967   2.685  29.949   5.415
 4654POPC   PO458968   2.069  29.767   5.377
 4654POPC   GL158969   2.370  29.824   5.811
 4654POPC   GL258970   2.699  30.050   5.906
 4654POPC   C1A58971   2.632  29.632   6.184
 4654POPC   D2A58972   2.930  29.711   6.508
 4654POPC   C3A58973   2.720  29.705   6.888
 4654POPC   C4A58974   2.838  29.760   7.297
 4654POPC   C1B58975   2.996  30.149   6.242
 4654POPC   C2B58976   3.012  30.219   6.693
 4654POPC   C3B58977   2.751  30.205   7.065
 4654POPC   C4B58978   2.813  30.284   7.495
 4655POPC   NC358979  13.064  26.496   5.528
 4655POPC   PO458980  12.834  25.812   5.444
 4655POPC   GL158981  12.813  26.052   5.779
 4655POPC   GL258982  13.162  26.091   5.839
 4655POPC   C1A58983  12.582  26.084   6.148
 4655POPC   D2A58984  12.499  25.940   6.548
 4655POPC   C3A58985  12.694  25.962   6.943
 4655POPC   C4A58986  12.791  26.099   7.383
 4655POPC   C1B58987  13.066  25.908   6.237
 4655POPC   C2B58988  13.104  25.991   6.651
 4655POPC   C3B58989  13.196  25.952   7.100
 4655POPC   C4B58990  13.186  25.826   7.569
 4656POPC   NC358991   4.741   8.677   5.558
 4656POPC   PO458992   5.173   9.174   5.464
 4656POPC   GL158993   5.360   9.154   5.859
 4656POPC   GL258994   5.121   8.873   5.897
 4656POPC   C1A58995   5.236   9.372   6.245
 4656POPC   D2A58996   5.003   9.318   6.657
 4656POPC   C3A58997   5.249   9.242   7.003
 4656POPC   C4A58998   5.291   9.164   7.419
 4656POPC   C1B58999   5.033   8.919   6.313
 4656POPC   C2B59000   5.323   8.878   6.647
 4656POPC   C3B59001   5.240   8.713   7.036
 4656POPC   C4B59002   4.842   8.920   7.084
 4657POPC   NC359003  41.227  15.692   5.701
 4657POPC   PO459004  41.327  16.097   5.209
 4657POPC   GL159005  41.655  16.034   5.673
 4657POPC   GL259006  41.721  15.659   5.797
 4657POPC   C1A59007  41.826  16.039   6.112
 4657POPC   D2A59008  41.906  16.288   6.475
 4657POPC   C3A59009  41.808  16.152   6.882
 4657POPC   C4A59010  42.159  16.127   7.167
 4657POPC   C1B59011  41.537  15.616   6.233
 4657POPC   C2B59012  41.492  15.322   6.577
 4657POPC   C3B59013  41.389  15.339   7.000
 4657POPC   C4B59014  41.374  15.663   7.281
 4658POPC   NC359015   1.162  19.682   5.195
 4658POPC   PO459016   1.359  19.998   5.662
 4658POPC   GL159017   1.349  19.642   5.960
 4658POPC   GL259018   1.587  19.328   5.918
 4658POPC   C1A59019   1.197  19.754   6.375
 4658POPC   D2A59020   0.970  19.613   6.740
 4658POPC   C3A59021   1.116  19.819   7.115
 4658POPC   C4A59022   0.981  19.805   7.545
 4658POPC   C1B59023   1.517  19.362   6.370
 4658POPC   C2B59024   1.625  19.667   6.680
 4658POPC   C3B59025   1.645  19.742   7.111
 4658POPC   C4B59026   1.494  19.525   7.489
 4659POPC   NC359027  33.917   5.395   5.027
 4659POPC   PO459028  33.625   4.921   5.409
 4659POPC   GL159029  33.698   5.121   5.829
 4659POPC   GL259030  33.831   5.460   5.845
 4659POPC   C1A59031  33.875   5.178   6.259
 4659POPC   D2A59032  33.985   4.970   6.596
 4659POPC   C3A59033  33.971   4.829   7.009
 4659POPC   C4A59034  33.958   4.960   7.415
 4659POPC   C1B59035  33.910   5.685   6.230
 4659POPC   C2B59036  33.797   5.552   6.616
 4659POPC   C3B59037  33.901   5.332   6.978
 4659POPC   C4B59038  33.727   5.411   7.398
 4660POPC   NC359039   0.935   0.281   5.401
 4660POPC   PO459040   0.340  44.923   5.412
 4660POPC   GL159041   0.467   0.362   5.631
 4660POPC   GL259042   0.206   0.609   5.744
 4660POPC   C1A59043   0.596   0.522   6.054
 4660POPC   D2A59044   0.644   0.320   6.474
 4660POPC   C3A59045   0.547   0.491   6.881
 4660POPC   C4A59046   0.268   0.288   7.148
 4660POPC   C1B59047   0.150   0.848   6.135
 4660POPC   C2B59048   0.241   0.809   6.586
 4660POPC   C3B59049   0.112   0.766   7.025
 4660POPC   C4B59050   0.325   0.964   7.393
 4661POPC   NC359051  18.580  13.079   5.721
 4661POPC   PO459052  18.036  12.643   5.596
 4661POPC   GL159053  18.243  12.748   5.953
 4661POPC   GL259054  18.115  13.065   5.962
 4661POPC   C1A59055  18.422  12.946   6.350
 4661POPC   D2A59056  18.473  13.110   6.748
 4661POPC   C3A59057  18.435  12.799   7.060
 4661POPC   C4A59058  18.371  12.903   7.487
 4661POPC   C1B59059  17.910  12.952   6.344
 4661POPC   C2B59060  18.018  12.844   6.743
 4661POPC   C3B59061  17.951  12.817   7.184
 4661POPC   C4B59062  17.742  12.898   7.536
 4662POPC   NC359063  35.390  16.974   5.407
 4662POPC   PO459064  35.092  17.453   5.696
 4662POPC   GL159065  34.997  17.541   6.069
 4662POPC   GL259066  34.713  17.298   6.036
 4662POPC   C1A59067  35.308  17.605   6.414
 4662POPC   D2A59068  35.749  17.427   6.488
 4662POPC   C3A59069  35.762  17.272   6.903
 4662POPC   C4A59070  35.462  17.449   7.183
 4662POPC   C1B59071  34.978  17.137   6.358
 4662POPC   C2B59072  35.004  17.339   6.771
 4662POPC   C3B59073  35.006  17.177   7.186
 4662POPC   C4B59074  35.115  17.080   7.612
 4663POPC   NC359075  42.940   2.236   5.279
 4663POPC   PO459076  43.318   1.759   5.438
 4663POPC   GL159077  43.142   1.960   5.800
 4663POPC   GL259078  42.900   2.254   5.782
 4663POPC   C1A59079  43.314   2.128   6.193
 4663POPC   D2A59080  43.411   2.195   6.648
 4663POPC   C3A59081  43.206   1.861   6.927
 4663POPC   C4A59082  43.422   1.866   7.329
 4663POPC   C1B59083  42.779   2.043   6.156
 4663POPC   C2B59084  42.905   2.121   6.547
 4663POPC   C3B59085  42.780   2.235   6.922
 4663POPC   C4B59086  42.819   2.004   7.274
 4664POPC   NC359087  30.289  33.657   5.605
 4664POPC   PO459088  29.625  33.666   5.543
 4664POPC   GL159089  29.857  33.850   5.829
 4664POPC   GL259090  30.049  34.184   5.751
 4664POPC   C1A59091  29.798  33.656   6.225
 4664POPC   D2A59092  29.578  33.467   6.560
 4664POPC   C3A59093  29.614  33.730   6.909
 4664POPC   C4A59094  29.913  33.723   7.218
 4664POPC   C1B59095  30.130  34.055   6.195
 4664POPC   C2B59096  29.923  34.009   6.599
 4664POPC   C3B59097  30.022  34.171   6.994
 4664POPC   C4B59098  30.269  34.053   7.397
 4665POPC   NC359099  30.533  36.035   5.418
 4665POPC   PO459100  29.857  35.858   5.382
 4665POPC   GL159101  29.700  35.967   5.782
 4665POPC   GL259102  29.546  35.655   5.897
 4665POPC   C1A59103  29.892  36.170   6.160
 4665POPC   D2A59104  30.177  36.288   6.469
 4665POPC   C3A59105  30.060  36.258   6.860
 4665POPC   C4A59106  30.159  36.488   7.227
 4665POPC   C1B59107  29.767  35.630   6.240
 4665POPC   C2B59108  30.036  35.806   6.516
 4665POPC   C3B59109  29.913  35.745   6.902
 4665POPC   C4B59110  29.981  35.938   7.252
 4666POPC   NC359111  10.338   0.190   5.534
 4666POPC   PO459112  10.209  44.513   5.448
 4666POPC   GL159113  10.280  44.708   5.806
 4666POPC   GL259114  10.220  44.425   6.022
 4666POPC   C1A59115  10.431  44.851   6.212
 4666POPC   D2A59116  10.371  44.660   6.605
 4666POPC   C3A59117  10.642  44.786   6.949
 4666POPC   C4A59118  10.489  44.895   7.352
 4666POPC   C1B59119  10.621  44.332   6.243
 4666POPC   C2B59120  10.814  44.405   6.611
 4666POPC   C3B59121  10.583  44.283   6.939
 4666POPC   C4B59122  10.594  44.272   7.345
 4667POPC   NC359123   5.236  20.461   5.422
 4667POPC   PO459124   5.260  21.203   5.449
 4667POPC   GL159125   5.324  20.906   5.821
 4667POPC   GL259126   5.049  20.640   5.865
 4667POPC   C1A59127   5.365  20.703   6.254
 4667POPC   D2A59128   5.105  20.813   6.615
 4667POPC   C3A59129   5.266  20.673   6.988
 4667POPC   C4A59130   5.102  20.704   7.397
 4667POPC   C1B59131   4.767  20.575   6.237
 4667POPC   C2B59132   4.596  20.384   6.619
 4667POPC   C3B59133   4.761  20.527   7.002
 4667POPC   C4B59134   4.786  20.957   7.090
 4668POPC   NC359135  27.479  28.103   5.173
 4668POPC   PO459136  27.734  28.527   5.512
 4668POPC   GL159137  27.654  28.392   5.886
 4668POPC   GL259138  27.479  28.095   5.795
 4668POPC   C1A59139  27.701  28.289   6.306
 4668POPC   D2A59140  27.728  28.602   6.601
 4668POPC   C3A59141  27.614  28.473   6.997
 4668POPC   C4A59142  27.666  28.158   7.267
 4668POPC   C1B59143  27.246  28.042   6.180
 4668POPC   C2B59144  27.295  27.902   6.597
 4668POPC   C3B59145  27.245  28.107   6.965
 4668POPC   C4B59146  27.151  28.194   7.348
 4669POPC   NC359147  38.318  22.608   5.682
 4669POPC   PO459148  38.628  22.020   5.518
 4669POPC   GL159149  38.504  22.190   5.882
 4669POPC   GL259150  38.793  22.465   5.843
 4669POPC   C1A59151  38.304  22.360   6.293
 4669POPC   D2A59152  38.174  22.530   6.674
 4669POPC   C3A59153  38.054  22.198   6.914
 4669POPC   C4A59154  38.166  22.085   7.309
 4669POPC   C1B59155  38.805  22.265   6.255
 4669POPC   C2B59156  38.599  22.136   6.643
 4669POPC   C3B59157  38.526  22.342   7.027
 4669POPC   C4B59158  38.670  22.263   7.426
 4670POPC   NC359159  24.142   1.978   5.257
 4670POPC   PO459160  24.674   2.214   5.386
 4670POPC   GL159161  24.400   2.055   5.694
 4670POPC   GL259162  24.260   2.345   5.801
 4670POPC   C1A59163  24.349   1.950   6.139
 4670POPC   D2A59164  24.177   2.120   6.535
 4670POPC   C3A59165  24.225   1.861   6.911
 4670POPC   C4A59166  24.461   1.681   7.270
 4670POPC   C1B59167  24.188   2.514   6.190
 4670POPC   C2B59168  24.296   2.627   6.583
 4670POPC   C3B59169  24.334   2.451   6.942
 4670POPC   C4B59170  24.427   2.198   7.238
 4671POPC   NC359171  15.692  41.639   5.483
 4671POPC   PO459172  16.306  41.425   5.261
 4671POPC   GL159173  16.163  41.509   5.714
 4671POPC   GL259174  15.864  41.336   5.871
 4671POPC   C1A59175  16.233  41.526   6.193
 4671POPC   D2A59176  16.025  41.741   6.564
 4671POPC   C3A59177  16.117  41.675   7.000
 4671POPC   C4A59178  16.110  41.655   7.469
 4671POPC   C1B59179  15.692  41.442   6.287
 4671POPC   C2B59180  15.563  41.574   6.709
 4671POPC   C3B59181  15.699  41.416   7.117
 4671POPC   C4B59182  15.622  41.049   7.370
 4672POPC   NC359183  43.321   6.611   5.482
 4672POPC   PO459184  42.705   6.937   5.496
 4672POPC   GL159185  42.942   6.620   5.843
 4672POPC   GL259186  43.276   6.713   5.994
 4672POPC   C1A59187  43.035   6.399   6.264
 4672POPC   D2A59188  43.205   6.674   6.575
 4672POPC   C3A59189  43.240   6.518   6.967
 4672POPC   C4A59190  43.536   6.546   7.275
 4672POPC   C1B59191  42.907   6.927   6.242
 4672POPC   C2B59192  42.663   6.973   6.590
 4672POPC   C3B59193  42.859   6.870   6.959
 4672POPC   C4B59194  42.906   6.793   7.391
 4673POPC   NC359195  31.652   0.613   5.221
 4673POPC   PO459196  31.242   0.154   5.557
 4673POPC   GL159197  31.377   0.541   5.752
 4673POPC   GL259198  31.726   0.503   5.826
 4673POPC   C1A59199  31.370   0.615   6.225
 4673POPC   D2A59200  31.537   0.331   6.562
 4673POPC   C3A59201  31.247   0.306   6.905
 4673POPC   C4A59202  31.016   0.629   7.140
 4673POPC   C1B59203  31.872   0.595   6.244
 4673POPC   C2B59204  31.907   0.634   6.713
 4673POPC   C3B59205  31.738   0.363   7.084
 4673POPC   C4B59206  31.757   0.265   7.553
 4674POPC   NC359207  11.318  13.900   5.260
 4674POPC   PO459208  11.025  13.371   5.399
 4674POPC   GL159209  11.244  13.496   5.755
 4674POPC   GL259210  11.367  13.835   5.793
 4674POPC   C1A59211  11.366  13.318   6.130
 4674POPC   D2A59212  11.362  13.563   6.494
 4674POPC   C3A59213  11.142  13.419   6.807
 4674POPC   C4A59214  11.357  13.323   7.196
 4674POPC   C1B59215  11.401  14.041   6.215
 4674POPC   C2B59216  11.370  14.245   6.634
 4674POPC   C3B59217  11.301  13.912   6.948
 4674POPC   C4B59218  11.466  13.831   7.340
 4675POPC   NC359219   5.486   1.853   5.453
 4675POPC   PO459220   5.998   2.212   5.216
 4675POPC   GL159221   5.867   2.184   5.641
 4675POPC   GL259222   6.103   1.952   5.809
 4675POPC   C1A59223   5.656   2.159   6.050
 4675POPC   D2A59224   5.842   2.288   6.425
 4675POPC   C3A59225   5.917   2.029   6.760
 4675POPC   C4A59226   5.676   2.179   7.091
 4675POPC   C1B59227   5.992   1.820   6.249
 4675POPC   C2B59228   6.251   1.641   6.609
 4675POPC   C3B59229   6.293   1.588   7.062
 4675POPC   C4B59230   6.080   1.920   7.275
 4676POPC   NC359231   3.681  17.130   5.262
 4676POPC   PO459232   3.624  16.431   5.233
 4676POPC   GL159233   3.491  16.771   5.624
 4676POPC   GL259234   3.728  17.019   5.753
 4676POPC   C1A59235   3.375  16.968   6.104
 4676POPC   D2A59236   3.431  16.855   6.572
 4676POPC   C3A59237   3.309  16.740   7.025
 4676POPC   C4A59238   3.378  16.407   7.351
 4676POPC   C1B59239   3.890  17.047   6.202
 4676POPC   C2B59240   3.975  16.808   6.603
 4676POPC   C3B59241   3.858  16.781   7.065
 4676POPC   C4B59242   4.052  16.798   7.486
 4677POPC   NC359243  14.010   9.548   5.577
 4677POPC   PO459244  14.549   9.904   5.467
 4677POPC   GL159245  14.410   9.741   5.832
 4677POPC   GL259246  14.148   9.980   5.829
 4677POPC   C1A59247  14.239   9.715   6.251
 4677POPC   D2A59248  14.559   9.663   6.548
 4677POPC   C3A59249  14.363   9.743   6.902
 4677POPC   C4A59250  14.507   9.693   7.263
 4677POPC   C1B59251  14.134  10.272   6.189
 4677POPC   C2B59252  13.940  10.276   6.603
 4677POPC   C3B59253  13.895   9.955   6.951
 4677POPC   C4B59254  14.076   9.953   7.362
 4678POPC   NC359255  12.243  38.896   5.460
 4678POPC   PO459256  11.777  39.510   5.532
 4678POPC   GL159257  11.964  39.195   5.811
 4678POPC   GL259258  12.318  39.206   5.873
 4678POPC   C1A59259  11.841  39.283   6.222
 4678POPC   D2A59260  12.149  39.273   6.533
 4678POPC   C3A59261  12.161  39.534   6.852
 4678POPC   C4A59262  12.083  39.449   7.278
 4678POPC   C1B59263  12.547  39.077   6.215
 4678POPC   C2B59264  12.536  38.977   6.649
 4678POPC   C3B59265  12.443  39.142   7.044
 4678POPC   C4B59266  12.471  38.950   7.443
 4679POPC   NC359267  18.593   1.332   5.335
 4679POPC   PO459268  18.086   0.843   5.375
 4679POPC   GL159269  18.194   1.230   5.668
 4679POPC   GL259270  17.900   1.465   5.746
 4679POPC   C1A59271  18.382   1.402   6.081
 4679POPC   D2A59272  18.478   1.556   6.506
 4679POPC   C3A59273  18.497   1.355   6.892
 4679POPC   C4A59274  18.214   1.477   7.202
 4679POPC   C1B59275  17.930   1.165   6.114
 4679POPC   C2B59276  18.184   1.104   6.488
 4679POPC   C3B59277  18.005   1.177   6.860
 4679POPC   C4B59278  17.766   1.245   7.226
 4680POPC   NC359279  15.729  26.618   5.463
 4680POPC   PO459280  16.185  27.155   5.364
 4680POPC   GL159281  15.919  26.995   5.747
 4680POPC   GL259282  16.115  26.682   5.795
 4680POPC   C1A59283  15.794  26.782   6.188
 4680POPC   D2A59284  15.913  26.636   6.644
 4680POPC   C3A59285  15.807  26.889   7.048
 4680POPC   C4A59286  16.064  27.067   7.400
 4680POPC   C1B59287  16.279  26.493   6.192
 4680POPC   C2B59288  16.451  26.563   6.617
 4680POPC   C3B59289  16.282  26.643   7.062
 4680POPC   C4B59290  15.929  26.463   7.298
 4681POPC   NC359291  33.059  27.986   5.391
 4681POPC   PO459292  33.404  27.373   5.211
 4681POPC   GL159293  33.174  27.422   5.634
 4681POPC   GL259294  32.787  27.486   5.714
 4681POPC   C1A59295  33.178  27.542   6.082
 4681POPC   D2A59296  32.893  27.489   6.433
 4681POPC   C3A59297  33.115  27.447   6.813
 4681POPC   C4A59298  33.106  27.332   7.225
 4681POPC   C1B59299  32.775  27.833   6.042
 4681POPC   C2B59300  32.891  28.014   6.433
 4681POPC   C3B59301  32.838  27.856   6.832
 4681POPC   C4B59302  33.107  27.843   7.188
 4682POPC   NC359303  37.457   9.203   5.588
 4682POPC   PO459304  37.657   8.601   5.638
 4682POPC   GL159305  37.999   8.843   5.888
 4682POPC   GL259306  37.916   9.210   5.921
 4682POPC   C1A59307  37.953   8.883   6.329
 4682POPC   D2A59308  37.583   8.794   6.562
 4682POPC   C3A59309  37.674   8.789   6.965
 4682POPC   C4A59310  37.577   9.134   7.197
 4682POPC   C1B59311  37.532   9.197   6.230
 4682POPC   C2B59312  37.587   9.323   6.663
 4682POPC   C3B59313  37.958   9.259   6.895
 4682POPC   C4B59314  38.097   9.414   7.284
 4683POPC   NC359315   1.613  26.865   5.572
 4683POPC   PO459316   0.969  26.653   5.315
 4683POPC   GL159317   1.119  26.669   5.749
 4683POPC   GL259318   1.433  26.552   5.930
 4683POPC   C1A59319   1.118  26.868   6.166
 4683POPC   D2A59320   1.232  26.794   6.543
 4683POPC   C3A59321   1.055  27.083   6.833
 4683POPC   C4A59322   1.062  27.099   7.286
 4683POPC   C1B59323   1.410  26.348   6.345
 4683POPC   C2B59324   1.617  26.489   6.710
 4683POPC   C3B59325   1.433  26.751   7.006
 4683POPC   C4B59326   1.502  26.780   7.377
 4684POPC   NC359327  38.871   8.570   5.482
 4684POPC   PO459328  39.379   8.988   5.485
 4684POPC   GL159329  39.067   8.935   5.794
 4684POPC   GL259330  39.195   8.593   5.856
 4684POPC   C1A59331  38.997   8.869   6.220
 4684POPC   D2A59332  39.253   8.917   6.559
 4684POPC   C3A59333  39.074   8.812   6.906
 4684POPC   C4A59334  39.017   9.021   7.298
 4684POPC   C1B59335  39.482   8.684   6.158
 4684POPC   C2B59336  39.549   8.489   6.533
 4684POPC   C3B59337  39.602   8.574   6.945
 4684POPC   C4B59338  39.493   8.899   7.181
 4685POPC   NC359339   4.158  44.384   5.323
 4685POPC   PO459340   4.639  44.829   5.302
 4685POPC   GL159341   4.491  44.570   5.679
 4685POPC   GL259342   4.174  44.708   5.723
 4685POPC   C1A59343   4.628  44.493   6.113
 4685POPC   D2A59344   4.576  44.702   6.522
 4685POPC   C3A59345   4.447  44.493   6.891
 4685POPC   C4A59346   4.619  44.590   7.287
 4685POPC   C1B59347   4.122  44.442   6.093
 4685POPC   C2B59348   3.965  44.277   6.501
 4685POPC   C3B59349   3.932  44.520   6.871
 4685POPC   C4B59350   4.095  44.576   7.296
 4686POPC   NC359351  41.641  35.827   5.416
 4686POPC   PO459352  41.482  36.476   5.618
 4686POPC   GL159353  41.530  36.087   5.894
 4686POPC   GL259354  41.864  35.908   5.853
 4686POPC   C1A59355  41.505  36.107   6.358
 4686POPC   D2A59356  41.828  36.289   6.665
 4686POPC   C3A59357  41.591  36.404   7.023
 4686POPC   C4A59358  41.225  36.124   7.067
 4686POPC   C1B59359  41.999  36.023   6.221
 4686POPC   C2B59360  41.839  35.775   6.542
 4686POPC   C3B59361  41.649  35.876   6.915
 4686POPC   C4B59362  41.953  36.040   7.166
 4687POPC   NC359363  19.478  13.868   5.432
 4687POPC   PO459364  19.408  13.265   5.430
 4687POPC   GL159365  19.751  13.419   5.759
 4687POPC   GL259366  19.691  13.734   5.869
 4687POPC   C1A59367  19.958  13.515   6.221
 4687POPC   D2A59368  19.822  13.796   6.588
 4687POPC   C3A59369  19.997  13.662   6.992
 4687POPC   C4A59370  20.155  13.313   7.281
 4687POPC   C1B59371  19.451  13.626   6.242
 4687POPC   C2B59372  19.254  13.645   6.636
 4687POPC   C3B59373  19.464  13.726   7.026
 4687POPC   C4B59374  19.674  13.478   7.305
 4688POPC   NC359375  32.289  19.768   5.373
 4688POPC   PO459376  31.906  20.237   5.497
 4688POPC   GL159377  32.116  20.001   5.827
 4688POPC   GL259378  32.415  19.754   5.854
 4688POPC   C1A59379  32.235  20.037   6.234
 4688POPC   D2A59380  32.325  19.852   6.582
 4688POPC   C3A59381  32.113  20.073   6.905
 4688POPC   C4A59382  32.279  19.946   7.286
 4688POPC   C1B59383  32.117  19.538   6.111
 4688POPC   C2B59384  31.952  19.461   6.523
 4688POPC   C3B59385  32.114  19.562   6.954
 4688POPC   C4B59386  32.362  19.445   7.326
 4689POPC   NC359387  28.937  20.936   5.523
 4689POPC   PO459388  29.327  20.419   5.228
 4689POPC   GL159389  29.220  20.520   5.689
 4689POPC   GL259390  28.992  20.324   5.880
 4689POPC   C1A59391  29.162  20.739   6.119
 4689POPC   D2A59392  29.413  20.783   6.488
 4689POPC   C3A59393  29.218  20.919   6.884
 4689POPC   C4A59394  29.303  20.784   7.286
 4689POPC   C1B59395  29.005  20.199   6.314
 4689POPC   C2B59396  29.001  20.475   6.648
 4689POPC   C3B59397  29.134  20.363   7.036
 4689POPC   C4B59398  28.857  20.537   7.302
 4690POPC   NC359399  44.466  29.920   5.453
 4690POPC   PO459400   0.135  29.856   5.376
 4690POPC   GL159401  44.875  29.789   5.708
 4690POPC   GL259402  44.787  30.131   5.805
 4690POPC   C1A59403  44.643  29.737   6.095
 4690POPC   D2A59404  44.667  29.882   6.519
 4690POPC   C3A59405  44.536  29.665   6.874
 4690POPC   C4A59406  44.818  29.507   7.184
 4690POPC   C1B59407  44.649  30.291   6.216
 4690POPC   C2B59408  44.395  30.334   6.585
 4690POPC   C3B59409  44.353  30.113   6.987
 4690POPC   C4B59410  44.650  30.090   7.334
 4691POPC   NC359411  37.571  23.224   5.431
 4691POPC   PO459412  37.680  23.883   5.322
 4691POPC   GL159413  37.742  23.909   5.767
 4691POPC   GL259414  37.621  23.581   5.812
 4691POPC   C1A59415  37.632  23.902   6.228
 4691POPC   D2A59416  37.468  23.774   6.643
 4691POPC   C3A59417  37.688  23.997   6.967
 4691POPC   C4A59418  37.828  24.253   7.325
 4691POPC   C1B59419  38.011  23.560   6.073
 4691POPC   C2B59420  38.069  23.430   6.501
 4691POPC   C3B59421  37.855  23.423   6.884
 4691POPC   C4B59422  37.947  23.660   7.253
 4692POPC   NC359423  16.763  31.955   5.426
 4692POPC   PO459424  16.386  32.544   5.487
 4692POPC   GL159425  16.575  32.286   5.758
 4692POPC   GL259426  16.912  32.385   5.752
 4692POPC   C1A59427  16.598  32.014   6.129
 4692POPC   D2A59428  16.802  31.903   6.522
 4692POPC   C3A59429  16.757  32.139   6.909
 4692POPC   C4A59430  17.048  32.137   7.233
 4692POPC   C1B59431  16.795  32.487   6.164
 4692POPC   C2B59432  16.557  32.379   6.509
 4692POPC   C3B59433  16.510  32.625   6.860
 4692POPC   C4B59434  16.545  32.551   7.268
 4693POPC   NC359435  17.595  28.697   5.432
 4693POPC   PO459436  17.482  29.394   5.367
 4693POPC   GL159437  17.429  29.104   5.699
 4693POPC   GL259438  17.366  29.370   5.888
 4693POPC   C1A59439  17.687  28.974   6.053
 4693POPC   D2A59440  17.732  28.855   6.488
 4693POPC   C3A59441  17.747  29.186   6.820
 4693POPC   C4A59442  17.571  29.138   7.224
 4693POPC   C1B59443  17.290  29.561   6.261
 4693POPC   C2B59444  17.400  29.634   6.654
 4693POPC   C3B59445  17.334  29.537   7.026
 4693POPC   C4B59446  17.672  29.638   7.256
 4694POPC   NC359447  42.567  36.266   5.426
 4694POPC   PO459448  42.088  35.701   5.436
 4694POPC   GL159449  42.382  35.837   5.800
 4694POPC   GL259450  42.430  36.190   5.908
 4694POPC   C1A59451  42.482  35.834   6.261
 4694POPC   D2A59452  42.291  35.998   6.649
 4694POPC   C3A59453  42.472  35.868   6.996
 4694POPC   C4A59454  42.444  36.100   7.353
 4694POPC   C1B59455  42.388  36.385   6.325
 4694POPC   C2B59456  42.242  36.579   6.748
 4694POPC   C3B59457  42.069  36.530   7.175
 4694POPC   C4B59458  42.249  36.509   7.600
 4695POPC   NC359459  30.250  22.261   5.483
 4695POPC   PO459460  30.841  22.109   5.275
 4695POPC   GL159461  30.906  21.954   5.731
 4695POPC   GL259462  30.577  21.968   5.913
 4695POPC   C1A59463  31.009  22.025   6.185
 4695POPC   D2A59464  30.768  21.951   6.552
 4695POPC   C3A59465  30.822  22.153   6.926
 4695POPC   C4A59466  30.516  22.161   7.194
 4695POPC   C1B59467  30.420  21.683   6.251
 4695POPC   C2B59468  30.343  21.577   6.686
 4695POPC   C3B59469  30.286  21.707   7.119
 4695POPC   C4B59470  30.297  21.784   7.561
 4696POPC   NC359471  16.444   9.936   5.440
 4696POPC   PO459472  17.052   9.701   5.155
 4696POPC   GL159473  16.916   9.809   5.666
 4696POPC   GL259474  16.630   9.971   5.895
 4696POPC   C1A59475  16.838   9.562   6.085
 4696POPC   D2A59476  16.673   9.493   6.506
 4696POPC   C3A59477  16.884   9.519   6.880
 4696POPC   C4A59478  16.866   9.787   7.220
 4696POPC   C1B59479  16.784  10.070   6.305
 4696POPC   C2B59480  16.755   9.988   6.735
 4696POPC   C3B59481  16.417   9.950   7.015
 4696POPC   C4B59482  16.396   9.903   7.460
 4697POPC   NC359483  31.674   8.140   5.353
 4697POPC   PO459484  31.129   7.820   5.407
 4697POPC   GL159485  31.316   8.016   5.781
 4697POPC   GL259486  31.446   8.378   5.779
 4697POPC   C1A59487  31.561   8.021   6.170
 4697POPC   D2A59488  31.572   8.291   6.513
 4697POPC   C3A59489  31.701   8.089   6.893
 4697POPC   C4A59490  31.767   7.960   7.320
 4697POPC   C1B59491  31.855   8.439   6.038
 4697POPC   C2B59492  31.985   8.631   6.449
 4697POPC   C3B59493  31.745   8.638   6.849
 4697POPC   C4B59494  31.701   8.462   7.254
 4698POPC   NC359495  43.043  27.723   5.437
 4698POPC   PO459496  43.515  27.314   5.736
 4698POPC   GL159497  43.214  27.630   5.923
 4698POPC   GL259498  43.464  27.866   5.799
 4698POPC   C1A59499  43.084  27.616   6.394
 4698POPC   D2A59500  43.174  27.250   6.724
 4698POPC   C3A59501  43.176  27.435   7.142
 4698POPC   C4A59502  43.040  27.897   7.124
 4698POPC   C1B59503  43.563  27.726   6.274
 4698POPC   C2B59504  43.457  27.730   6.747
 4698POPC   C3B59505  43.537  27.799   7.186
 4698POPC   C4B59506  43.447  28.114   7.402
 4699POPC   NC359507  43.618   4.370   5.456
 4699POPC   PO459508  44.220   4.034   5.560
 4699POPC   GL159509  43.987   4.344   5.853
 4699POPC   GL259510  43.732   4.619   5.902
 4699POPC   C1A59511  44.054   4.410   6.271
 4699POPC   D2A59512  43.876   4.248   6.614
 4699POPC   C3A59513  43.977   4.470   6.974
 4699POPC   C4A59514  44.084   4.353   7.405
 4699POPC   C1B59515  43.542   4.362   6.197
 4699POPC   C2B59516  43.401   4.479   6.598
 4699POPC   C3B59517  43.494   4.279   6.939
 4699POPC   C4B59518  43.575   4.394   7.297
 4700POPC   NC359519  41.842  11.508   5.139
 4700POPC   PO459520  42.226  11.019   5.351
 4700POPC   GL159521  42.418  11.263   5.733
 4700POPC   GL259522  42.149  11.448   5.941
 4700POPC   C1A59523  42.505  11.211   6.189
 4700POPC   D2A59524  42.350  11.003   6.548
 4700POPC   C3A59525  42.453  11.198   6.938
 4700POPC   C4A59526  42.388  11.545   7.204
 4700POPC   C1B59527  41.954  11.198   6.285
 4700POPC   C2B59528  41.935  11.281   6.746
 4700POPC   C3B59529  41.988  11.152   7.184
 4700POPC   C4B59530  41.999  11.043   7.624
 4701POPC   NC359531  21.975  30.994   5.332
 4701POPC   PO459532  22.551  30.668   5.403
 4701POPC   GL159533  22.192  30.702   5.709
 4701POPC   GL259534  22.324  30.461   5.925
 4701POPC   C1A59535  21.868  30.656   6.090
 4701POPC   D2A59536  22.014  30.528   6.524
 4701POPC   C3A59537  22.028  30.742   6.913
 4701POPC   C4A59538  21.994  30.499   7.254
 4701POPC   C1B59539  22.329  30.831   6.194
 4701POPC   C2B59540  22.456  30.773   6.571
 4701POPC   C3B59541  22.530  30.710   6.969
 4701POPC   C4B59542  22.758  30.933   7.221
 4702POPC   NC359543  17.690  27.110   5.519
 4702POPC   PO459544  17.111  26.778   5.395
 4702POPC   GL159545  17.423  26.720   5.733
 4702POPC   GL259546  17.398  27.037   5.961
 4702POPC   C1A59547  17.559  26.581   6.143
 4702POPC   D2A59548  17.673  26.707   6.542
 4702POPC   C3A59549  17.336  26.887   6.766
 4702POPC   C4A59550  17.539  26.757   7.120
 4702POPC   C1B59551  17.735  27.164   6.288
 4702POPC   C2B59552  17.758  27.219   6.760
 4702POPC   C3B59553  17.814  27.270   7.252
 4702POPC   C4B59554  17.860  27.304   7.764
 4703POPC   NC359555  39.043   9.357   5.466
 4703POPC   PO459556  39.332   9.987   5.460
 4703POPC   GL159557  39.222   9.751   5.796
 4703POPC   GL259558  39.474   9.470   5.750
 4703POPC   C1A59559  39.335   9.769   6.225
 4703POPC   D2A59560  39.088   9.677   6.594
 4703POPC   C3A59561  39.227   9.869   6.953
 4703POPC   C4A59562  39.016  10.209   7.125
 4703POPC   C1B59563  39.344   9.261   6.133
 4703POPC   C2B59564  39.490   9.380   6.539
 4703POPC   C3B59565  39.256   9.311   6.926
 4703POPC   C4B59566  39.147   9.512   7.311
 4704POPC   NC359567  33.123  26.990   5.321
 4704POPC   PO459568  32.943  26.377   5.426
 4704POPC   GL159569  32.935  26.696   5.750
 4704POPC   GL259570  33.305  26.706   5.708
 4704POPC   C1A59571  32.976  26.682   6.249
 4704POPC   D2A59572  33.286  26.585   6.623
 4704POPC   C3A59573  33.046  26.448   7.012
 4704POPC   C4A59574  32.693  26.704   7.209
 4704POPC   C1B59575  33.232  27.043   6.012
 4704POPC   C2B59576  33.236  27.085   6.473
 4704POPC   C3B59577  33.037  26.955   6.885
 4704POPC   C4B59578  33.192  26.829   7.300
 4705POPC   NC359579  17.250  14.212   5.343
 4705POPC   PO459580  17.510  14.892   5.268
 4705POPC   GL159581  17.438  14.756   5.718
 4705POPC   GL259582  17.328  14.407   5.827
 4705POPC   C1A59583  17.639  14.682   6.149
 4705POPC   D2A59584  17.485  14.609   6.565
 4705POPC   C3A59585  17.723  14.521   6.936
 4705POPC   C4A59586  17.503  14.685   7.254
 4705POPC   C1B59587  17.246  14.244   6.288
 4705POPC   C2B59588  17.477  14.111   6.702
 4705POPC   C3B59589  17.507  14.104   7.186
 4705POPC   C4B59590  17.356  13.993   7.625
 4706POPC   NC359591  29.302   6.901   5.729
 4706POPC   PO459592  29.091   6.338   5.487
 4706POPC   GL159593  29.079   6.376   5.922
 4706POPC   GL259594  28.844   6.587   5.870
 4706POPC   C1A59595  29.153   6.527   6.332
 4706POPC   D2A59596  29.335   6.766   6.659
 4706POPC   C3A59597  29.235   6.534   6.996
 4706POPC   C4A59598  28.901   6.467   7.273
 4706POPC   C1B59599  28.778   6.836   6.190
 4706POPC   C2B59600  28.821   6.834   6.588
 4706POPC   C3B59601  28.892   6.902   6.974
 4706POPC   C4B59602  28.861   6.958   7.405
 4707POPC   NC359603  40.984  18.973   5.367
 4707POPC   PO459604  40.291  18.909   5.454
 4707POPC   GL159605  40.590  18.875   5.801
 4707POPC   GL259606  40.746  19.169   5.747
 4707POPC   C1A59607  40.603  19.180   6.213
 4707POPC   D2A59608  40.728  19.273   6.622
 4707POPC   C3A59609  40.817  18.838   6.796
 4707POPC   C4A59610  40.786  18.781   7.217
 4707POPC   C1B59611  41.110  19.157   6.062
 4707POPC   C2B59612  41.227  19.124   6.529
 4707POPC   C3B59613  41.080  19.207   6.990
 4707POPC   C4B59614  40.785  19.343   7.253
 4708POPC   NC359615  21.711   5.892   5.348
 4708POPC   PO459616  22.388   5.716   5.294
 4708POPC   GL159617  22.461   5.791   5.715
 4708POPC   GL259618  22.094   5.889   5.710
 4708POPC   C1A59619  22.556   6.105   6.080
 4708POPC   D2A59620  22.689   6.208   6.524
 4708POPC   C3A59621  22.480   6.089   6.903
 4708POPC   C4A59622  22.473   6.219   7.329
 4708POPC   C1B59623  22.149   5.786   6.126
 4708POPC   C2B59624  22.193   6.039   6.472
 4708POPC   C3B59625  21.919   6.175   6.796
 4708POPC   C4B59626  22.018   6.044   7.202
 4709POPC   NC359627  22.145   0.850   5.174
 4709POPC   PO459628  22.031   0.216   5.438
 4709POPC   GL159629  22.190   0.287   5.842
 4709POPC   GL259630  22.058   0.613   5.845
 4709POPC   C1A59631  22.062   0.244   6.276
 4709POPC   D2A59632  21.848   0.238   6.669
 4709POPC   C3A59633  22.024   0.366   7.075
 4709POPC   C4A59634  22.381   0.293   7.353
 4709POPC   C1B59635  21.857   0.712   6.235
 4709POPC   C2B59636  21.969   0.726   6.668
 4709POPC   C3B59637  21.935   0.879   7.066
 4709POPC   C4B59638  22.138   0.751   7.472
 4710POPC   NC359639  16.249   6.289   5.489
 4710POPC   PO459640  15.615   6.524   5.562
 4710POPC   GL159641  15.807   6.796   5.821
 4710POPC   GL259642  16.160   6.782   5.787
 4710POPC   C1A59643  15.911   6.713   6.241
 4710POPC   D2A59644  15.994   6.888   6.612
 4710POPC   C3A59645  16.002   6.629   6.934
 4710POPC   C4A59646  15.841   6.509   7.362
 4710POPC   C1B59647  16.156   7.142   6.108
 4710POPC   C2B59648  16.369   7.213   6.507
 4710POPC   C3B59649  16.323   7.073   6.964
 4710POPC   C4B59650  15.974   6.998   7.278
 4711POPC   NC359651  13.144  11.937   5.533
 4711POPC   PO459652  12.678  12.461   5.550
 4711POPC   GL159653  12.951  12.325   5.830
 4711POPC   GL259654  13.182  12.577   5.917
 4711POPC   C1A59655  12.770  12.262   6.239
 4711POPC   D2A59656  12.603  12.179   6.631
 4711POPC   C3A59657  12.825  11.980   7.023
 4711POPC   C4A59658  12.716  11.945   7.483
 4711POPC   C1B59659  13.277  12.274   6.223
 4711POPC   C2B59660  13.139  12.186   6.629
 4711POPC   C3B59661  12.993  12.461   6.933
 4711POPC   C4B59662  12.994  12.351   7.362
 4712POPC   NC359663   2.750  32.774   5.202
 4712POPC   PO459664   2.379  33.331   5.523
 4712POPC   GL159665   2.603  33.150   5.855
 4712POPC   GL259666   2.515  32.782   5.793
 4712POPC   C1A59667   2.981  33.143   6.157
 4712POPC   D2A59668   3.032  32.931   6.549
 4712POPC   C3A59669   3.178  32.919   6.957
 4712POPC   C4A59670   2.924  32.948   7.283
 4712POPC   C1B59671   2.580  32.838   6.254
 4712POPC   C2B59672   2.472  32.909   6.698
 4712POPC   C3B59673   2.471  33.108   7.106
 4712POPC   C4B59674   2.545  33.110   7.542
 4713POPC   NC359675  41.223  27.835   5.260
 4713POPC   PO459676  41.815  27.393   5.166
 4713POPC   GL159677  41.681  27.441   5.669
 4713POPC   GL259678  41.335  27.563   5.711
 4713POPC   C1A59679  41.608  27.481   6.181
 4713POPC   D2A59680  41.504  27.716   6.624
 4713POPC   C3A59681  41.797  27.692   7.017
 4713POPC   C4A59682  41.833  27.467   7.480
 4713POPC   C1B59683  41.148  27.255   6.017
 4713POPC   C2B59684  41.069  27.164   6.473
 4713POPC   C3B59685  41.220  27.294   6.892
 4713POPC   C4B59686  41.073  27.274   7.352
 4714POPC   NC359687   7.925  11.142   5.511
 4714POPC   PO459688   8.550  11.376   5.491
 4714POPC   GL159689   8.335  11.176   5.795
 4714POPC   GL259690   8.473  10.881   5.902
 4714POPC   C1A59691   8.123  11.252   6.188
 4714POPC   D2A59692   7.873  11.275   6.544
 4714POPC   C3A59693   8.064  11.090   6.873
 4714POPC   C4A59694   8.186  11.237   7.223
 4714POPC   C1B59695   8.623  11.184   6.196
 4714POPC   C2B59696   8.472  11.305   6.590
 4714POPC   C3B59697   8.564  11.054   6.899
 4714POPC   C4B59698   8.683  11.108   7.268
 4715POPC   NC359699   1.840  40.373   5.364
 4715POPC   PO459700   2.323  39.914   5.381
 4715POPC   GL159701   2.137  39.915   5.794
 4715POPC   GL259702   1.936  40.219   5.871
 4715POPC   C1A59703   2.094  39.820   6.238
 4715POPC   D2A59704   2.003  40.120   6.532
 4715POPC   C3A59705   2.158  40.101   6.931
 4715POPC   C4A59706   1.902  40.132   7.280
 4715POPC   C1B59707   1.621  39.916   6.058
 4715POPC   C2B59708   1.559  39.747   6.499
 4715POPC   C3B59709   1.739  39.712   6.935
 4715POPC   C4B59710   1.492  39.792   7.299
 4716POPC   NC359711  17.937  14.794   5.424
 4716POPC   PO459712  18.290  15.426   5.508
 4716POPC   GL159713  18.293  15.292   5.866
 4716POPC   GL259714  18.292  14.930   5.839
 4716POPC   C1A59715  18.310  15.487   6.252
 4716POPC   D2A59716  18.151  15.342   6.601
 4716POPC   C3A59717  18.319  15.520   6.918
 4716POPC   C4A59718  18.326  15.296   7.230
 4716POPC   C1B59719  18.085  14.979   6.223
 4716POPC   C2B59720  18.064  14.847   6.647
 4716POPC   C3B59721  18.115  14.844   7.080
 4716POPC   C4B59722  18.442  14.593   7.285
 4717POPC   NC359723  28.873   5.254   5.400
 4717POPC   PO459724  29.467   4.810   5.448
 4717POPC   GL159725  29.254   5.119   5.690
 4717POPC   GL259726  28.979   4.923   5.783
 4717POPC   C1A59727  29.225   5.213   6.122
 4717POPC   D2A59728  29.280   4.920   6.446
 4717POPC   C3A59729  29.140   5.034   6.851
 4717POPC   C4A59730  29.402   5.029   7.206
 4717POPC   C1B59731  28.877   4.728   6.144
 4717POPC   C2B59732  28.758   4.866   6.533
 4717POPC   C3B59733  28.670   4.778   6.945
 4717POPC   C4B59734  28.998   4.682   7.207
 4718POPC   NC359735   7.215   3.623   5.338
 4718POPC   PO459736   7.665   3.864   5.593
 4718POPC   GL159737   7.554   3.488   5.878
 4718POPC   GL259738   7.188   3.488   5.839
 4718POPC   C1A59739   7.712   3.375   6.319
 4718POPC   D2A59740   7.528   3.542   6.733
 4718POPC   C3A59741   7.720   3.496   7.163
 4718POPC   C4A59742   7.568   3.446   7.609
 4718POPC   C1B59743   7.221   3.275   6.238
 4718POPC   C2B59744   7.387   3.053   6.610
 4718POPC   C3B59745   7.317   3.184   7.031
 4718POPC   C4B59746   7.193   3.540   7.270
 4719POPC   NC359747   0.768  39.893   5.451
 4719POPC   PO459748   1.391  40.275   5.431
 4719POPC   GL159749   1.147  40.096   5.735
 4719POPC   GL259750   1.245  39.758   5.682
 4719POPC   C1A59751   1.177  40.189   6.157
 4719POPC   D2A59752   1.529  40.278   6.410
 4719POPC   C3A59753   1.537  40.197   6.864
 4719POPC   C4A59754   1.227  40.309   7.191
 4719POPC   C1B59755   1.145  39.691   6.117
 4719POPC   C2B59756   1.041  39.859   6.519
 4719POPC   C3B59757   1.095  39.864   6.954
 4719POPC   C4B59758   0.818  39.635   7.218
 4720POPC   NC359759  38.675  14.883   5.342
 4720POPC   PO459760  38.364  14.224   5.425
 4720POPC   GL159761  38.322  14.417   5.818
 4720POPC   GL259762  38.596  14.657   5.814
 4720POPC   C1A59763  38.125  14.274   6.201
 4720POPC   D2A59764  38.342  14.016   6.505
 4720POPC   C3A59765  38.300  14.112   6.925
 4720POPC   C4A59766  38.377  14.106   7.363
 4720POPC   C1B59767  38.574  14.517   6.264
 4720POPC   C2B59768  38.679  14.376   6.680
 4720POPC   C3B59769  38.758  14.333   7.109
 4720POPC   C4B59770  38.802  14.640   7.416
 4721POPC   NC359771   7.120   0.002   5.508
 4721POPC   PO459772   7.254  44.405   5.274
 4721POPC   GL159773   7.385  44.543   5.714
 4721POPC   GL259774   7.586  44.864   5.714
 4721POPC   C1A59775   7.627  44.542   6.123
 4721POPC   D2A59776   7.743  44.432   6.575
 4721POPC   C3A59777   7.618  44.640   6.959
 4721POPC   C4A59778   7.289  44.533   7.232
 4721POPC   C1B59779   7.418  44.997   6.134
 4721POPC   C2B59780   7.372   0.052   6.583
 4721POPC   C3B59781   7.273   0.016   7.025
 4721POPC   C4B59782   7.505  44.957   7.418
 4722POPC   NC359783   6.888  28.824   5.377
 4722POPC   PO459784   6.598  29.509   5.357
 4722POPC   GL159785   6.487  29.304   5.720
 4722POPC   GL259786   6.784  29.165   5.745
 4722POPC   C1A59787   6.400  29.108   6.129
 4722POPC   D2A59788   6.479  29.292   6.536
 4722POPC   C3A59789   6.400  29.189   6.946
 4722POPC   C4A59790   6.500  29.392   7.316
 4722POPC   C1B59791   6.815  29.390   6.141
 4722POPC   C2B59792   6.975  29.200   6.507
 4722POPC   C3B59793   6.906  29.217   6.946
 4722POPC   C4B59794   6.810  28.988   7.313
 4723POPC   NC359795  17.041  27.865   5.423
 4723POPC   PO459796  17.688  27.590   5.487
 4723POPC   GL159797  17.644  27.570   5.903
 4723POPC   GL259798  17.824  27.913   5.991
 4723POPC   C1A59799  17.347  27.489   6.250
 4723POPC   D2A59800  17.380  27.659   6.671
 4723POPC   C3A59801  17.368  27.430   7.032
 4723POPC   C4A59802  17.364  27.736   7.325
 4723POPC   C1B59803  17.793  27.701   6.361
 4723POPC   C2B59804  17.915  27.710   6.716
 4723POPC   C3B59805  17.826  27.822   7.088
 4723POPC   C4B59806  17.867  27.737   7.510
 4724POPC   NC359807  41.257  25.494   5.447
 4724POPC   PO459808  41.690  25.005   5.447
 4724POPC   GL159809  41.604  25.282   5.779
 4724POPC   GL259810  41.293  25.292   5.920
 4724POPC   C1A59811  41.722  25.504   6.148
 4724POPC   D2A59812  41.923  25.432   6.564
 4724POPC   C3A59813  41.621  25.430   6.924
 4724POPC   C4A59814  41.745  25.268   7.326
 4724POPC   C1B59815  41.054  25.624   6.120
 4724POPC   C2B59816  41.097  25.789   6.551
 4724POPC   C3B59817  41.068  25.575   6.969
 4724POPC   C4B59818  41.221  25.296   7.334
 4725POPC   NC359819  28.685  38.198   5.322
 4725POPC   PO459820  28.085  38.470   5.526
 4725POPC   GL159821  28.147  38.380   5.937
 4725POPC   GL259822  28.494  38.208   5.896
 4725POPC   C1A59823  28.098  38.503   6.387
 4725POPC   D2A59824  28.414  38.536   6.671
 4725POPC   C3A59825  28.474  38.261   6.978
 4725POPC   C4A59826  28.074  38.395   7.054
 4725POPC   C1B59827  28.563  38.596   6.184
 4725POPC   C2B59828  28.745  38.889   6.569
 4725POPC   C3B59829  28.624  38.836   7.015
 4725POPC   C4B59830  28.401  38.661   7.323
 4726POPC   NC359831  21.826  28.769   5.295
 4726POPC   PO459832  21.308  28.373   5.353
 4726POPC   GL159833  21.373  28.512   5.763
 4726POPC   GL259834  21.207  28.816   5.693
 4726POPC   C1A59835  21.396  28.311   6.198
 4726POPC   D2A59836  21.457  28.110   6.636
 4726POPC   C3A59837  21.376  28.100   7.084
 4726POPC   C4A59838  21.588  28.002   7.476
 4726POPC   C1B59839  21.200  28.799   6.157
 4726POPC   C2B59840  21.211  28.574   6.579
 4726POPC   C3B59841  21.158  28.555   7.006
 4726POPC   C4B59842  21.380  28.516   7.406
 4727POPC   NC359843  39.513  24.195   5.495
 4727POPC   PO459844  39.002  24.616   5.391
 4727POPC   GL159845  39.287  24.613   5.723
 4727POPC   GL259846  39.047  24.346   5.836
 4727POPC   C1A59847  39.442  24.432   6.129
 4727POPC   D2A59848  39.137  24.304   6.428
 4727POPC   C3A59849  39.323  24.131   6.780
 4727POPC   C4A59850  39.526  24.397   7.106
 4727POPC   C1B59851  38.964  24.705   6.097
 4727POPC   C2B59852  38.826  24.703   6.513
 4727POPC   C3B59853  39.012  24.580   6.919
 4727POPC   C4B59854  38.922  24.850   7.259
 4728POPC   NC359855  25.887   7.557   5.398
 4728POPC   PO459856  25.695   6.981   5.769
 4728POPC   GL159857  25.834   7.402   5.936
 4728POPC   GL259858  26.166   7.539   5.847
 4728POPC   C1A59859  26.078   7.421   6.347
 4728POPC   D2A59860  26.280   7.179   6.681
 4728POPC   C3A59861  25.973   7.276   6.991
 4728POPC   C4A59862  25.948   7.554   7.322
 4728POPC   C1B59863  26.326   7.826   6.168
 4728POPC   C2B59864  26.255   7.942   6.603
 4728POPC   C3B59865  26.310   7.686   6.971
 4728POPC   C4B59866  26.468   7.636   7.410
 4729POPC   NC359867  23.609  29.278   5.454
 4729POPC   PO459868  24.033  28.719   5.535
 4729POPC   GL159869  23.845  29.062   5.848
 4729POPC   GL259870  24.033  29.185   6.144
 4729POPC   C1A59871  23.587  29.389   6.103
 4729POPC   D2A59872  23.441  29.348   6.546
 4729POPC   C3A59873  23.633  29.187   6.882
 4729POPC   C4A59874  23.976  29.126   7.061
 4729POPC   C1B59875  23.651  28.935   6.338
 4729POPC   C2B59876  23.593  28.703   6.745
 4729POPC   C3B59877  23.664  28.731   7.203
 4729POPC   C4B59878  23.510  28.708   7.633
 4730POPC   NC359879  16.680   6.381   5.074
 4730POPC   PO459880  16.514   6.885   5.403
 4730POPC   GL159881  16.682   6.733   5.785
 4730POPC   GL259882  16.701   6.392   5.684
 4730POPC   C1A59883  16.483   6.772   6.206
 4730POPC   D2A59884  16.328   6.503   6.520
 4730POPC   C3A59885  16.522   6.586   6.903
 4730POPC   C4A59886  16.346   6.593   7.294
 4730POPC   C1B59887  16.667   6.305   6.146
 4730POPC   C2B59888  16.879   6.545   6.502
 4730POPC   C3B59889  17.031   6.474   6.935
 4730POPC   C4B59890  16.797   6.340   7.307
 4731POPC   NC359891  27.262  13.747   5.413
 4731POPC   PO459892  27.899  13.500   5.365
 4731POPC   GL159893  27.655  13.606   5.738
 4731POPC   GL259894  27.406  13.334   5.816
 4731POPC   C1A59895  27.788  13.808   6.118
 4731POPC   D2A59896  27.917  13.670   6.520
 4731POPC   C3A59897  27.635  13.650   6.870
 4731POPC   C4A59898  27.650  13.864   7.261
 4731POPC   C1B59899  27.729  13.290   6.183
 4731POPC   C2B59900  27.914  13.170   6.612
 4731POPC   C3B59901  27.779  13.194   7.049
 4731POPC   C4B59902  27.457  13.364   7.324
 4732POPC   NC359903  21.108  15.726   5.574
 4732POPC   PO459904  21.522  16.144   5.491
 4732POPC   GL159905  21.411  16.031   5.876
 4732POPC   GL259906  21.162  16.241   5.959
 4732POPC   C1A59907  21.488  16.031   6.314
 4732POPC   D2A59908  21.192  16.166   6.615
 4732POPC   C3A59909  21.381  16.096   7.017
 4732POPC   C4A59910  21.593  15.743   7.245
 4732POPC   C1B59911  21.007  15.860   6.221
 4732POPC   C2B59912  20.902  15.743   6.665
 4732POPC   C3B59913  21.032  15.713   7.108
 4732POPC   C4B59914  20.875  15.573   7.506
 4733POPC   NC359915  24.576  25.479   5.152
 4733POPC   PO459916  24.255  24.935   5.456
 4733POPC   GL159917  24.666  24.934   5.664
 4733POPC   GL259918  24.749  25.299   5.763
 4733POPC   C1A59919  24.762  24.923   6.099
 4733POPC   D2A59920  24.597  25.087   6.486
 4733POPC   C3A59921  24.555  25.063   6.930
 4733POPC   C4A59922  24.193  25.083   7.151
 4733POPC   C1B59923  24.911  25.420   6.227
 4733POPC   C2B59924  24.826  25.496   6.713
 4733POPC   C3B59925  24.775  25.677   7.147
 4733POPC   C4B59926  24.666  25.769   7.577
 4734POPC   NC359927  18.973   8.562   5.364
 4734POPC   PO459928  19.486   8.127   5.204
 4734POPC   GL159929  19.160   8.071   5.644
 4734POPC   GL259930  18.817   8.220   5.738
 4734POPC   C1A59931  19.188   8.198   6.119
 4734POPC   D2A59932  19.321   8.168   6.579
 4734POPC   C3A59933  19.050   8.036   6.928
 4734POPC   C4A59934  19.178   8.145   7.311
 4734POPC   C1B59935  18.656   8.165   6.182
 4734POPC   C2B59936  18.745   8.289   6.611
 4734POPC   C3B59937  18.748   8.431   7.026
 4734POPC   C4B59938  18.681   8.204   7.427
 4735POPC   NC359939  21.755   7.757   5.383
 4735POPC   PO459940  20.989   7.796   5.395
 4735POPC   GL159941  21.345   7.972   5.671
 4735POPC   GL259942  21.087   8.090   5.887
 4735POPC   C1A59943  21.533   8.204   6.078
 4735POPC   D2A59944  21.647   8.071   6.493
 4735POPC   C3A59945  21.576   8.250   6.920
 4735POPC   C4A59946  21.367   7.951   7.168
 4735POPC   C1B59947  20.976   8.460   6.131
 4735POPC   C2B59948  21.111   8.591   6.561
 4735POPC   C3B59949  21.048   8.389   6.981
 4735POPC   C4B59950  21.273   8.477   7.379
 4736POPC   NC359951  12.564  37.949   5.455
 4736POPC   PO459952  13.093  37.731   5.265
 4736POPC   GL159953  12.968  37.603   5.703
 4736POPC   GL259954  12.623  37.460   5.756
 4736POPC   C1A59955  12.937  37.476   6.174
 4736POPC   D2A59956  12.788  37.623   6.590
 4736POPC   C3A59957  12.947  37.538   7.008
 4736POPC   C4A59958  13.038  37.165   7.237
 4736POPC   C1B59959  12.440  37.643   6.160
 4736POPC   C2B59960  12.371  37.885   6.550
 4736POPC   C3B59961  12.441  37.731   6.996
 4736POPC   C4B59962  12.558  37.888   7.410
 4737POPC   NC359963   4.828   1.032   5.615
 4737POPC   PO459964   5.388   1.411   5.420
 4737POPC   GL159965   5.284   1.235   5.798
 4737POPC   GL259966   5.038   1.470   5.897
 4737POPC   C1A59967   5.370   1.164   6.234
 4737POPC   D2A59968   5.225   1.450   6.545
 4737POPC   C3A59969   5.216   1.291   6.959
 4737POPC   C4A59970   5.407   0.968   7.232
 4737POPC   C1B59971   4.836   1.249   6.255
 4737POPC   C2B59972   4.745   1.054   6.642
 4737POPC   C3B59973   4.760   1.042   7.056
 4737POPC   C4B59974   4.939   0.749   7.274
 4738POPC   NC359975  36.597   6.831   5.547
 4738POPC   PO459976  36.895   7.502   5.322
 4738POPC   GL159977  36.914   7.553   5.750
 4738POPC   GL259978  37.258   7.668   5.792
 4738POPC   C1A59979  36.809   7.311   6.105
 4738POPC   D2A59980  36.958   7.104   6.475
 4738POPC   C3A59981  36.710   7.124   6.828
 4738POPC   C4A59982  36.785   7.217   7.229
 4738POPC   C1B59983  37.105   7.724   6.215
 4738POPC   C2B59984  37.209   7.554   6.575
 4738POPC   C3B59985  37.191   7.332   6.937
 4738POPC   C4B59986  37.200   7.514   7.321
 4739POPC   NC359987  35.006   1.202   5.416
 4739POPC   PO459988  34.314   1.191   5.447
 4739POPC   GL159989  34.632   1.027   5.756
 4739POPC   GL259990  34.360   1.053   6.004
 4739POPC   C1A59991  34.822   1.187   6.151
 4739POPC   D2A59992  34.506   1.279   6.455
 4739POPC   C3A59993  34.542   1.213   6.872
 4739POPC   C4A59994  34.476   0.900   7.185
 4739POPC   C1B59995  34.178   1.472   6.094
 4739POPC   C2B59996  34.244   1.715   6.462
 4739POPC   C3B59997  34.117   1.521   6.827
 4739POPC   C4B59998  34.178   1.336   7.224
 4740POPC   NC359999  19.248  10.846   5.310
 4740POPC   PO460000  18.812  10.420   5.380
 4740POPC   GL160001  18.924  10.436   5.752
 4740POPC   GL260002  18.954  10.779   5.805
 4740POPC   C1A60003  18.800  10.263   6.136
 4740POPC   D2A60004  19.137  10.209   6.472
 4740POPC   C3A60005  18.951  10.224   6.874
 4740POPC   C4A60006  18.849  10.135   7.275
 4740POPC   C1B60007  19.138  10.634   6.195
 4740POPC   C2B60008  19.057  10.692   6.650
 4740POPC   C3B60009  19.210  10.858   7.071
 4740POPC   C4B60010  19.355  10.863   7.522
 4741POPC   NC360011  22.276   4.308   5.407
 4741POPC   PO460012  21.711   4.288   5.283
 4741POPC   GL160013  21.880   4.175   5.703
 4741POPC   GL260014  22.143   3.910   5.720
 4741POPC   C1A60015  21.919   4.533   6.036
 4741POPC   D2A60016  21.934   4.485   6.507
 4741POPC   C3A60017  22.076   4.527   6.961
 4741POPC   C4A60018  22.458   4.416   7.237
 4741POPC   C1B60019  22.137   4.098   6.149
 4741POPC   C2B60020  21.967   3.949   6.551
 4741POPC   C3B60021  21.943   3.998   7.017
 4741POPC   C4B60022  21.987   4.255   7.409
 4742POPC   NC360023   4.722  22.432   5.159
 4742POPC   PO460024   4.141  22.396   5.464
 4742POPC   GL160025   4.232  22.216   5.817
 4742POPC   GL260026   3.891  22.159   5.892
 4742POPC   C1A60027   4.476  22.042   6.144
 4742POPC   D2A60028   4.555  22.250   6.544
 4742POPC   C3A60029   4.403  22.073   6.935
 4742POPC   C4A60030   4.524  21.812   7.258
 4742POPC   C1B60031   3.991  22.003   6.293
 4742POPC   C2B60032   3.843  21.890   6.703
 4742POPC   C3B60033   3.898  22.111   7.103
 4742POPC   C4B60034   4.206  22.279   7.418
 4743POPC   NC360035  44.329  31.746   5.467
 4743POPC   PO460036  44.761  31.283   5.547
 4743POPC   GL160037  44.699  31.591   5.830
 4743POPC   GL260038   0.051  31.617   5.827
 4743POPC   C1A60039  44.503  31.812   6.182
 4743POPC   D2A60040  44.531  31.760   6.630
 4743POPC   C3A60041  44.320  31.763   7.038
 4743POPC   C4A60042  44.444  31.387   7.305
 4743POPC   C1B60043   0.010  31.635   6.259
 4743POPC   C2B60044   0.058  31.765   6.679
 4743POPC   C3B60045  44.848  31.561   6.992
 4743POPC   C4B60046  44.956  31.400   7.340
 4744POPC   NC360047  24.363  19.581   5.017
 4744POPC   PO460048  24.595  20.118   5.382
 4744POPC   GL160049  24.649  19.935   5.779
 4744POPC   GL260050  24.323  19.918   5.895
 4744POPC   C1A60051  24.649  19.642   6.154
 4744POPC   D2A60052  24.673  19.743   6.578
 4744POPC   C3A60053  24.466  19.517   6.887
 4744POPC   C4A60054  24.577  19.712   7.258
 4744POPC   C1B60055  24.131  19.910   6.308
 4744POPC   C2B60056  24.196  19.962   6.714
 4744POPC   C3B60057  24.497  20.109   6.956
 4744POPC   C4B60058  24.195  20.059   7.259
 4745POPC   NC360059  36.535  41.543   5.611
 4745POPC   PO460060  37.129  41.355   5.422
 4745POPC   GL160061  37.070  41.529   5.824
 4745POPC   GL260062  36.879  41.839   5.843
 4745POPC   C1A60063  36.861  41.557   6.255
 4745POPC   D2A60064  36.974  41.356   6.640
 4745POPC   C3A60065  36.690  41.187   6.943
 4745POPC   C4A60066  36.888  41.122   7.374
 4745POPC   C1B60067  37.231  41.909   6.122
 4745POPC   C2B60068  37.344  41.694   6.488
 4745POPC   C3B60069  37.243  41.742   6.897
 4745POPC   C4B60070  36.827  41.657   7.070
 4746POPC   NC360071   6.234  17.976   5.567
 4746POPC   PO460072   5.621  18.221   5.592
 4746POPC   GL160073   5.792  18.351   5.946
 4746POPC   GL260074   6.155  18.382   5.890
 4746POPC   C1A60075   5.764  18.216   6.352
 4746POPC   D2A60076   5.472  18.308   6.675
 4746POPC   C3A60077   5.471  18.118   7.052
 4746POPC   C4A60078   5.815  18.391   7.173
 4746POPC   C1B60079   6.265  18.156   6.253
 4746POPC   C2B60080   6.152  17.966   6.634
 4746POPC   C3B60081   6.250  18.051   7.075
 4746POPC   C4B60082   6.045  18.083   7.500
 4747POPC   NC360083  40.601   9.164   5.347
 4747POPC   PO460084  41.155   9.453   5.057
 4747POPC   GL160085  41.108   9.265   5.573
 4747POPC   GL260086  40.883   8.980   5.758
 4747POPC   C1A60087  41.071   9.336   6.076
 4747POPC   D2A60088  40.849   9.387   6.528
 4747POPC   C3A60089  40.992   9.104   6.898
 4747POPC   C4A60090  41.077   8.796   7.242
 4747POPC   C1B60091  40.615   9.080   6.173
 4747POPC   C2B60092  40.473   8.925   6.621
 4747POPC   C3B60093  40.583   8.832   7.084
 4747POPC   C4B60094  40.646   8.844   7.552
 4748POPC   NC360095  31.205  28.718   5.451
 4748POPC   PO460096  30.589  28.591   5.499
 4748POPC   GL160097  30.693  28.360   5.864
 4748POPC   GL260098  30.429  28.140   5.953
 4748POPC   C1A60099  30.864  28.270   6.279
 4748POPC   D2A60100  31.123  28.300   6.647
 4748POPC   C3A60101  30.759  28.270   6.953
 4748POPC   C4A60102  30.393  28.124   7.195
 4748POPC   C1B60103  30.351  28.485   6.240
 4748POPC   C2B60104  30.420  28.640   6.664
 4748POPC   C3B60105  30.274  28.605   7.084
 4748POPC   C4B60106  30.371  28.541   7.507
 4749POPC   NC360107  40.503  34.618   5.541
 4749POPC   PO460108  41.100  34.377   5.330
 4749POPC   GL160109  40.971  34.428   5.748
 4749POPC   GL260110  40.955  34.762   5.814
 4749POPC   C1A60111  40.762  34.422   6.185
 4749POPC   D2A60112  40.738  34.579   6.616
 4749POPC   C3A60113  40.836  34.394   7.003
 4749POPC   C4A60114  41.258  34.414   7.203
 4749POPC   C1B60115  40.853  34.931   6.228
 4749POPC   C2B60116  40.764  35.085   6.629
 4749POPC   C3B60117  40.512  34.906   6.947
 4749POPC   C4B60118  40.487  34.662   7.307
 4750POPC   NC360119  35.068   7.887   5.363
 4750POPC   PO460120  35.236   8.472   5.428
 4750POPC   GL160121  35.062   8.345   5.815
 4750POPC   GL260122  35.152   8.014   5.850
 4750POPC   C1A60123  35.246   8.330   6.247
 4750POPC   D2A60124  35.574   8.154   6.572
 4750POPC   C3A60125  35.564   8.352   7.005
 4750POPC   C4A60126  35.205   8.316   7.289
 4750POPC   C1B60127  35.514   7.876   6.093
 4750POPC   C2B60128  35.690   7.650   6.430
 4750POPC   C3B60129  35.538   7.660   6.845
 4750POPC   C4B60130  35.529   7.908   7.206
 4751POPC   NC360131   7.551   8.593   5.324
 4751POPC   PO460132   7.029   8.235   5.498
 4751POPC   GL160133   7.280   8.404   5.842
 4751POPC   GL260134   7.658   8.378   5.803
 4751POPC   C1A60135   7.437   8.346   6.278
 4751POPC   D2A60136   7.615   8.133   6.651
 4751POPC   C3A60137   7.387   8.319   6.974
 4751POPC   C4A60138   7.117   8.114   7.232
 4751POPC   C1B60139   7.906   8.524   6.164
 4751POPC   C2B60140   7.761   8.626   6.584
 4751POPC   C3B60141   7.997   8.577   6.968
 4751POPC   C4B60142   7.833   8.261   7.232
 4752POPC   NC360143   6.109  24.621   5.715
 4752POPC   PO460144   6.700  24.602   5.273
 4752POPC   GL160145   6.662  24.725   5.769
 4752POPC   GL260146   6.428  24.958   5.977
 4752POPC   C1A60147   6.654  24.565   6.235
 4752POPC   D2A60148   6.806  24.295   6.602
 4752POPC   C3A60149   6.948  24.404   7.040
 4752POPC   C4A60150   7.132  24.195   7.416
 4752POPC   C1B60151   6.291  24.893   6.404
 4752POPC   C2B60152   6.453  24.640   6.725
 4752POPC   C3B60153   6.589  24.745   7.121
 4752POPC   C4B60154   6.398  24.788   7.485
 4753POPC   NC360155  18.435  29.239   5.395
 4753POPC   PO460156  18.810  28.693   5.452
 4753POPC   GL160157  18.530  28.890   5.757
 4753POPC   GL260158  18.159  28.920   5.733
 4753POPC   C1A60159  18.432  29.203   6.096
 4753POPC   D2A60160  18.145  29.211   6.467
 4753POPC   C3A60161  18.308  29.244   6.891
 4753POPC   C4A60162  18.064  29.321   7.247
 4753POPC   C1B60163  18.150  28.784   6.177
 4753POPC   C2B60164  18.194  28.696   6.636
 4753POPC   C3B60165  18.058  28.831   7.060
 4753POPC   C4B60166  18.361  28.937   7.382
 4754POPC   NC360167  12.397  14.572   5.574
 4754POPC   PO460168  12.712  14.068   5.203
 4754POPC   GL160169  12.922  14.166   5.675
 4754POPC   GL260170  13.094  14.508   5.760
 4754POPC   C1A60171  12.834  14.170   6.129
 4754POPC   D2A60172  12.482  14.265   6.387
 4754POPC   C3A60173  12.585  14.245   6.798
 4754POPC   C4A60174  12.739  14.243   7.195
 4754POPC   C1B60175  12.783  14.673   6.089
 4754POPC   C2B60176  12.697  14.702   6.535
 4754POPC   C3B60177  12.829  14.693   6.951
 4754POPC   C4B60178  13.201  14.651   7.188
 4755POPC   NC360179  18.890  14.534   5.264
 4755POPC   PO460180  19.292  14.215   5.663
 4755POPC   GL160181  19.173  14.649   5.794
 4755POPC   GL260182  18.814  14.803   5.812
 4755POPC   C1A60183  19.050  14.525   6.217
 4755POPC   D2A60184  19.041  14.120   6.433
 4755POPC   C3A60185  19.260  14.139   6.806
 4755POPC   C4A60186  19.186  14.133   7.224
 4755POPC   C1B60187  18.568  14.671   6.222
 4755POPC   C2B60188  18.687  14.458   6.624
 4755POPC   C3B60189  18.897  14.516   7.032
 4755POPC   C4B60190  18.964  14.499   7.498
 4756POPC   NC360191  39.002  44.344   5.530
 4756POPC   PO460192  39.535  44.770   5.380
 4756POPC   GL160193  39.280  44.730   5.789
 4756POPC   GL260194  39.435  44.543   6.086
 4756POPC   C1A60195  39.150  44.930   6.197
 4756POPC   D2A60196  38.927  44.781   6.577
 4756POPC   C3A60197  39.023  44.964   6.977
 4756POPC   C4A60198  39.219   0.067   7.379
 4756POPC   C1B60199  38.999  44.397   6.221
 4756POPC   C2B60200  39.015  44.263   6.641
 4756POPC   C3B60201  39.208  44.468   6.983
 4756POPC   C4B60202  39.000  44.227   7.258
 4757POPC   NC360203  23.574  30.193   5.519
 4757POPC   PO460204  23.796  29.646   5.244
 4757POPC   GL160205  23.780  29.697   5.715
 4757POPC   GL260206  24.095  29.529   5.740
 4757POPC   C1A60207  23.615  29.922   6.128
 4757POPC   D2A60208  23.842  30.160   6.447
 4757POPC   C3A60209  23.722  30.166   6.879
 4757POPC   C4A60210  23.557  29.946   7.231
 4757POPC   C1B60211  24.086  29.725   6.147
 4757POPC   C2B60212  23.858  29.621   6.490
 4757POPC   C3B60213  23.821  29.657   6.896
 4757POPC   C4B60214  24.070  29.915   7.142
 4758POPC   NC360215  14.619   6.356   5.223
 4758POPC   PO460216  14.286   5.935   5.578
 4758POPC   GL160217  14.537   5.961   5.926
 4758POPC   GL260218  14.522   5.619   6.061
 4758POPC   C1A60219  14.705   5.982   6.363
 4758POPC   D2A60220  14.803   6.158   6.776
 4758POPC   C3A60221  14.513   5.960   7.035
 4758POPC   C4A60222  14.476   5.538   7.223
 4758POPC   C1B60223  14.138   5.853   6.217
 4758POPC   C2B60224  13.913   5.859   6.581
 4758POPC   C3B60225  14.034   5.731   6.986
 4758POPC   C4B60226  14.148   5.957   7.379
 4759POPC   NC360227   5.519   9.487   5.361
 4759POPC   PO460228   6.198   9.581   5.180
 4759POPC   GL160229   5.953   9.691   5.596
 4759POPC   GL260230   6.183   9.723   5.871
 4759POPC   C1A60231   5.683   9.644   6.019
 4759POPC   D2A60232   5.569   9.645   6.503
 4759POPC   C3A60233   5.753   9.872   6.852
 4759POPC   C4A60234   5.971   9.716   7.216
 4759POPC   C1B60235   6.363   9.656   6.283
 4759POPC   C2B60236   6.264   9.778   6.733
 4759POPC   C3B60237   6.206  10.113   7.030
 4759POPC   C4B60238   6.185  10.114   7.476
 4760POPC   NC360239  29.210  17.682   5.517
 4760POPC   PO460240  28.640  17.313   5.456
 4760POPC   GL160241  28.826  17.497   5.805
 4760POPC   GL260242  29.088  17.310   5.906
 4760POPC   C1A60243  28.832  17.699   6.222
 4760POPC   D2A60244  28.727  17.486   6.624
 4760POPC   C3A60245  28.932  17.489   7.043
 4760POPC   C4A60246  29.025  17.295   7.490
 4760POPC   C1B60247  29.088  17.217   6.328
 4760POPC   C2B60248  29.390  17.137   6.656
 4760POPC   C3B60249  29.362  17.179   7.113
 4760POPC   C4B60250  29.501  17.125   7.566
 4761POPC   NC360251  17.117  16.769   5.591
 4761POPC   PO460252  17.705  16.734   5.238
 4761POPC   GL160253  17.601  16.611   5.693
 4761POPC   GL260254  17.521  16.924   5.890
 4761POPC   C1A60255  17.690  16.473   6.133
 4761POPC   D2A60256  17.578  16.477   6.588
 4761POPC   C3A60257  17.849  16.423   6.927
 4761POPC   C4A60258  17.790  16.440   7.391
 4761POPC   C1B60259  17.255  16.758   6.248
 4761POPC   C2B60260  17.242  16.843   6.693
 4761POPC   C3B60261  17.198  16.768   7.129
 4761POPC   C4B60262  17.135  17.167   7.277
 4762POPC   NC360263  26.980  27.999   5.596
 4762POPC   PO460264  26.763  28.558   5.273
 4762POPC   GL160265  26.812  28.587   5.732
 4762POPC   GL260266  27.156  28.497   5.725
 4762POPC   C1A60267  26.791  28.387   6.146
 4762POPC   D2A60268  26.818  28.069   6.465
 4762POPC   C3A60269  26.771  28.286   6.830
 4762POPC   C4A60270  26.718  28.426   7.229
 4762POPC   C1B60271  27.263  28.561   6.164
 4762POPC   C2B60272  27.228  28.426   6.582
 4762POPC   C3B60273  27.134  28.605   7.017
 4762POPC   C4B60274  27.060  28.905   7.348
 4763POPC   NC360275   0.650   2.260   5.385
 4763POPC   PO460276   0.146   1.784   5.363
 4763POPC   GL160277   0.341   1.807   5.761
 4763POPC   GL260278   0.674   1.921   5.748
 4763POPC   C1A60279   0.330   2.002   6.165
 4763POPC   D2A60280   0.085   2.208   6.494
 4763POPC   C3A60281   0.285   2.119   6.857
 4763POPC   C4A60282   0.241   1.962   7.259
 4763POPC   C1B60283   0.799   2.260   6.071
 4763POPC   C2B60284   0.633   2.277   6.492
 4763POPC   C3B60285   0.762   2.368   6.889
 4763POPC   C4B60286   0.649   2.256   7.313
 4764POPC   NC360287  18.468  32.558   5.548
 4764POPC   PO460288  18.136  31.933   5.434
 4764POPC   GL160289  18.362  32.083   5.770
 4764POPC   GL260290  18.607  31.832   5.720
 4764POPC   C1A60291  18.255  32.262   6.191
 4764POPC   D2A60292  17.981  32.281   6.571
 4764POPC   C3A60293  18.257  32.228   6.921
 4764POPC   C4A60294  18.474  32.453   7.209
 4764POPC   C1B60295  18.498  31.791   6.176
 4764POPC   C2B60296  18.614  31.964   6.556
 4764POPC   C3B60297  18.821  31.819   6.916
 4764POPC   C4B60298  18.569  31.921   7.237
 4765POPC   NC360299  23.785  40.694   5.466
 4765POPC   PO460300  23.363  41.275   5.450
 4765POPC   GL160301  23.412  40.935   5.740
 4765POPC   GL260302  23.716  41.047   5.860
 4765POPC   C1A60303  23.522  40.642   6.101
 4765POPC   D2A60304  23.913  40.650   6.374
 4765POPC   C3A60305  23.841  40.613   6.848
 4765POPC   C4A60306  23.505  40.572   7.191
 4765POPC   C1B60307  23.890  41.178   6.254
 4765POPC   C2B60308  24.019  41.071   6.697
 4765POPC   C3B60309  24.032  41.000   7.149
 4765POPC   C4B60310  23.905  40.725   7.508
 4766POPC   NC360311  23.511  36.004   5.098
 4766POPC   PO460312  24.130  36.002   5.407
 4766POPC   GL160313  23.819  35.882   5.681
 4766POPC   GL260314  23.671  36.181   5.857
 4766POPC   C1A60315  23.749  35.707   6.092
 4766POPC   D2A60316  23.594  35.797   6.493
 4766POPC   C3A60317  23.788  35.896   6.866
 4766POPC   C4A60318  23.539  35.895   7.268
 4766POPC   C1B60319  23.460  36.256   6.264
 4766POPC   C2B60320  23.462  36.274   6.732
 4766POPC   C3B60321  23.530  36.391   7.174
 4766POPC   C4B60322  23.364  36.276   7.616
 4767POPC   NC360323   3.337  34.995   5.333
 4767POPC   PO460324   3.738  35.522   5.340
 4767POPC   GL160325   3.662  35.242   5.696
 4767POPC   GL260326   3.648  35.510   5.914
 4767POPC   C1A60327   3.730  35.062   6.135
 4767POPC   D2A60328   3.874  35.040   6.583
 4767POPC   C3A60329   3.516  35.116   6.872
 4767POPC   C4A60330   3.203  35.174   7.201
 4767POPC   C1B60331   3.590  35.483   6.388
 4767POPC   C2B60332   3.746  35.572   6.753
 4767POPC   C3B60333   3.603  35.572   7.160
 4767POPC   C4B60334   3.829  35.851   7.387
 4768POPC   NC360335  20.133   2.104   5.212
 4768POPC   PO460336  19.491   1.978   5.461
 4768POPC   GL160337  19.868   1.956   5.713
 4768POPC   GL260338  19.870   2.250   5.931
 4768POPC   C1A60339  19.953   1.790   6.157
 4768POPC   D2A60340  19.764   1.922   6.586
 4768POPC   C3A60341  19.838   1.804   7.026
 4768POPC   C4A60342  19.918   1.763   7.514
 4768POPC   C1B60343  20.223   2.215   6.169
 4768POPC   C2B60344  20.440   2.251   6.527
 4768POPC   C3B60345  20.218   2.167   6.902
 4768POPC   C4B60346  20.027   2.211   7.283
 4769POPC   NC360347  41.220  24.900   5.574
 4769POPC   PO460348  41.586  24.379   5.279
 4769POPC   GL160349  41.457  24.443   5.713
 4769POPC   GL260350  41.617  24.734   5.875
 4769POPC   C1A60351  41.374  24.349   6.162
 4769POPC   D2A60352  41.583  24.418   6.572
 4769POPC   C3A60353  41.363  24.402   6.959
 4769POPC   C4A60354  41.556  24.290   7.309
 4769POPC   C1B60355  41.355  24.873   6.235
 4769POPC   C2B60356  41.260  24.829   6.669
 4769POPC   C3B60357  41.526  24.900   7.001
 4769POPC   C4B60358  41.862  24.598   7.035
 4770POPC   NC360359   0.819  38.168   5.487
 4770POPC   PO460360   0.649  37.488   5.459
 4770POPC   GL160361   0.591  37.656   5.864
 4770POPC   GL260362   0.778  37.956   5.946
 4770POPC   C1A60363   0.313  37.751   6.206
 4770POPC   D2A60364   0.208  38.048   6.531
 4770POPC   C3A60365   0.112  37.795   6.899
 4770POPC   C4A60366   0.220  37.748   7.345
 4770POPC   C1B60367   0.790  37.796   6.339
 4770POPC   C2B60368   0.582  37.689   6.667
 4770POPC   C3B60369   0.629  37.814   7.050
 4770POPC   C4B60370   0.864  37.617   7.284
 4771POPC   NC360371   6.805  42.582   5.342
 4771POPC   PO460372   6.229  42.200   5.569
 4771POPC   GL160373   6.473  42.384   5.852
 4771POPC   GL260374   6.816  42.330   5.791
 4771POPC   C1A60375   6.593  42.306   6.260
 4771POPC   D2A60376   6.554  42.572   6.598
 4771POPC   C3A60377   6.524  42.394   6.980
 4771POPC   C4A60378   6.676  42.108   7.291
 4771POPC   C1B60379   6.895  42.703   6.098
 4771POPC   C2B60380   6.959  42.873   6.551
 4771POPC   C3B60381   6.986  42.639   6.944
 4771POPC   C4B60382   6.846  42.576   7.345
 4772POPC   NC360383  34.859  18.105   5.318
 4772POPC   PO460384  34.217  17.900   5.507
 4772POPC   GL160385  34.352  18.205   5.782
 4772POPC   GL260386  34.704  18.238   5.798
 4772POPC   C1A60387  34.347  18.220   6.242
 4772POPC   D2A60388  34.661  18.034   6.503
 4772POPC   C3A60389  34.770  18.169   6.899
 4772POPC   C4A60390  34.516  18.095   7.216
 4772POPC   C1B60391  34.776  18.477   6.183
 4772POPC   C2B60392  34.575  18.562   6.591
 4772POPC   C3B60393  34.846  18.680   6.895
 4772POPC   C4B60394  34.910  18.592   7.282
 4773POPC   NC360395  20.748  31.985   5.121
 4773POPC   PO460396  20.301  32.311   5.519
 4773POPC   GL160397  20.525  32.263   5.881
 4773POPC   GL260398  20.682  32.583   5.813
 4773POPC   C1A60399  20.546  32.048   6.317
 4773POPC   D2A60400  20.448  32.208   6.745
 4773POPC   C3A60401  20.458  32.156   7.196
 4773POPC   C4A60402  20.413  32.447   7.569
 4773POPC   C1B60403  20.857  32.452   6.206
 4773POPC   C2B60404  20.951  32.278   6.601
 4773POPC   C3B60405  20.912  32.356   7.052
 4773POPC   C4B60406  20.922  32.081   7.437
 4774POPC   NC360407  39.297  39.376   5.378
 4774POPC   PO460408  38.952  38.772   5.440
 4774POPC   GL160409  39.011  39.090   5.846
 4774POPC   GL260410  39.364  39.184   5.845
 4774POPC   C1A60411  39.083  39.350   6.304
 4774POPC   D2A60412  39.055  39.727   6.652
 4774POPC   C3A60413  39.223  39.502   7.019
 4774POPC   C4A60414  39.107  39.049   7.072
 4774POPC   C1B60415  39.605  39.246   6.209
 4774POPC   C2B60416  39.593  39.044   6.615
 4774POPC   C3B60417  39.625  39.155   7.043
 4774POPC   C4B60418  39.610  38.859   7.363
 4775POPC   NC360419  35.529   8.819   5.353
 4775POPC   PO460420  34.921   9.062   5.401
 4775POPC   GL160421  35.045   8.853   5.816
 4775POPC   GL260422  35.399   8.734   5.881
 4775POPC   C1A60423  35.109   8.842   6.309
 4775POPC   D2A60424  35.325   8.631   6.658
 4775POPC   C3A60425  35.350   8.819   7.067
 4775POPC   C4A60426  35.165   9.158   7.275
 4775POPC   C1B60427  35.617   8.911   6.272
 4775POPC   C2B60428  35.608   9.055   6.697
 4775POPC   C3B60429  35.621   9.305   7.048
 4775POPC   C4B60430  35.660   9.066   7.396
 4776POPC   NC360431  24.141  43.015   5.381
 4776POPC   PO460432  23.812  43.513   5.250
 4776POPC   GL160433  23.734  43.194   5.648
 4776POPC   GL260434  23.932  42.868   5.823
 4776POPC   C1A60435  23.799  43.241   6.108
 4776POPC   D2A60436  24.049  43.146   6.420
 4776POPC   C3A60437  23.994  43.200   6.851
 4776POPC   C4A60438  23.649  43.174   7.093
 4776POPC   C1B60439  23.853  42.706   6.229
 4776POPC   C2B60440  23.689  42.819   6.632
 4776POPC   C3B60441  23.864  42.731   7.039
 4776POPC   C4B60442  23.872  42.672   7.483
 4777POPC   NC360443  24.952   6.471   5.476
 4777POPC   PO460444  25.351   6.927   5.269
 4777POPC   GL160445  25.210   6.813   5.750
 4777POPC   GL260446  24.945   6.605   5.955
 4777POPC   C1A60447  25.318   6.757   6.227
 4777POPC   D2A60448  25.278   6.541   6.603
 4777POPC   C3A60449  25.223   6.731   6.968
 4777POPC   C4A60450  25.011   6.836   7.310
 4777POPC   C1B60451  25.134   6.235   6.215
 4777POPC   C2B60452  25.205   6.042   6.650
 4777POPC   C3B60453  25.381   6.248   7.029
 4777POPC   C4B60454  25.314   6.449   7.441
 4778POPC   NC360455  26.227  21.217   5.438
 4778POPC   PO460456  25.565  21.496   5.502
 4778POPC   GL160457  25.924  21.377   5.815
 4778POPC   GL260458  26.126  21.084   5.915
 4778POPC   C1A60459  26.174  21.643   6.116
 4778POPC   D2A60460  26.292  21.722   6.569
 4778POPC   C3A60461  25.988  21.655   6.924
 4778POPC   C4A60462  26.134  21.517   7.335
 4778POPC   C1B60463  26.202  21.182   6.338
 4778POPC   C2B60464  26.229  21.231   6.775
 4778POPC   C3B60465  26.254  21.064   7.165
 4778POPC   C4B60466  26.418  21.087   7.586
 4779POPC   NC360467  12.855   8.407   5.391
 4779POPC   PO460468  12.505   7.788   5.449
 4779POPC   GL160469  12.764   8.080   5.773
 4779POPC   GL260470  13.091   8.310   5.852
 4779POPC   C1A60471  12.741   8.171   6.192
 4779POPC   D2A60472  12.837   7.883   6.467
 4779POPC   C3A60473  12.729   8.028   6.856
 4779POPC   C4A60474  12.949   7.943   7.187
 4779POPC   C1B60475  12.990   8.613   6.230
 4779POPC   C2B60476  12.826   8.489   6.628
 4779POPC   C3B60477  12.935   8.513   7.059
 4779POPC   C4B60478  12.781   8.350   7.438
 4780POPC   NC360479  30.909  32.681   5.542
 4780POPC   PO460480  30.502  33.256   5.506
 4780POPC   GL160481  30.738  33.089   5.849
 4780POPC   GL260482  30.500  32.787   5.874
 4780POPC   C1A60483  30.816  33.281   6.259
 4780POPC   D2A60484  30.710  33.480   6.659
 4780POPC   C3A60485  30.654  33.222   7.026
 4780POPC   C4A60486  30.795  33.280   7.436
 4780POPC   C1B60487  30.598  32.781   6.318
 4780POPC   C2B60488  30.655  32.737   6.791
 4780POPC   C3B60489  30.960  32.791   7.151
 4780POPC   C4B60490  31.105  32.623   7.562
 4781POPC   NC360491   7.860  31.049   5.553
 4781POPC   PO460492   8.134  31.770   5.542
 4781POPC   GL160493   7.964  31.502   5.791
 4781POPC   GL260494   8.255  31.277   5.814
 4781POPC   C1A60495   7.790  31.454   6.201
 4781POPC   D2A60496   7.702  31.161   6.562
 4781POPC   C3A60497   7.919  31.297   6.932
 4781POPC   C4A60498   7.964  31.685   7.164
 4781POPC   C1B60499   8.312  31.601   6.157
 4781POPC   C2B60500   8.132  31.659   6.563
 4781POPC   C3B60501   8.393  31.594   6.906
 4781POPC   C4B60502   8.521  31.691   7.295
 4782POPC   NC360503  21.056   5.136   5.328
 4782POPC   PO460504  20.509   5.035   5.611
 4782POPC   GL160505  20.637   5.303   5.877
 4782POPC   GL260506  20.981   5.395   5.787
 4782POPC   C1A60507  20.574   5.167   6.270
 4782POPC   D2A60508  20.381   5.310   6.580
 4782POPC   C3A60509  20.444   5.052   6.879
 4782POPC   C4A60510  20.340   5.170   7.281
 4782POPC   C1B60511  21.036   5.387   6.254
 4782POPC   C2B60512  20.820   5.572   6.658
 4782POPC   C3B60513  20.750   5.407   7.089
 4782POPC   C4B60514  20.865   4.944   7.164
 4783POPC   NC360515  20.144  12.184   5.443
 4783POPC   PO460516  19.406  12.291   5.260
 4783POPC   GL160517  19.551  12.062   5.638
 4783POPC   GL260518  19.542  11.691   5.763
 4783POPC   C1A60519  19.530  12.190   6.061
 4783POPC   D2A60520  19.412  12.020   6.450
 4783POPC   C3A60521  19.595  12.213   6.778
 4783POPC   C4A60522  19.655  12.091   7.180
 4783POPC   C1B60523  19.809  11.786   6.171
 4783POPC   C2B60524  20.111  11.741   6.542
 4783POPC   C3B60525  20.075  11.917   6.958
 4783POPC   C4B60526  20.112  11.957   7.404
 4784POPC   NC360527   7.082  41.623   5.282
 4784POPC   PO460528   7.718  41.727   5.461
 4784POPC   GL160529   7.533  41.574   5.815
 4784POPC   GL260530   7.486  41.911   5.917
 4784POPC   C1A60531   7.524  41.284   6.193
 4784POPC   D2A60532   7.374  41.264   6.635
 4784POPC   C3A60533   7.483  41.254   7.074
 4784POPC   C4A60534   7.374  41.426   7.482
 4784POPC   C1B60535   7.753  41.753   6.250
 4784POPC   C2B60536   7.673  41.716   6.681
 4784POPC   C3B60537   7.550  41.784   7.102
 4784POPC   C4B60538   7.826  41.683   7.444
 4785POPC   NC360539  11.745  39.929   5.741
 4785POPC   PO460540  11.225  40.133   5.339
 4785POPC   GL160541  11.209  40.026   5.779
 4785POPC   GL260542  11.222  39.674   5.741
 4785POPC   C1A60543  11.018  40.113   6.206
 4785POPC   D2A60544  11.016  40.065   6.659
 4785POPC   C3A60545  11.406  40.083   6.871
 4785POPC   C4A60546  11.467  40.228   7.273
 4785POPC   C1B60547  11.362  39.615   6.173
 4785POPC   C2B60548  11.324  39.583   6.615
 4785POPC   C3B60549  11.077  39.663   6.969
 4785POPC   C4B60550  11.181  39.764   7.349
 4786POPC   NC360551  18.137   2.943   5.412
 4786POPC   PO460552  18.809   2.602   5.407
 4786POPC   GL160553  18.571   2.849   5.742
 4786POPC   GL260554  18.315   2.623   5.809
 4786POPC   C1A60555  18.349   3.008   6.142
 4786POPC   D2A60556  18.109   3.010   6.547
 4786POPC   C3A60557  18.250   2.911   6.985
 4786POPC   C4A60558  18.577   2.938   7.309
 4786POPC   C1B60559  18.449   2.437   6.243
 4786POPC   C2B60560  18.351   2.484   6.706
 4786POPC   C3B60561  18.460   2.453   7.156
 4786POPC   C4B60562  18.416   2.301   7.624
 4787POPC   NC360563  23.137  40.074   5.508
 4787POPC   PO460564  22.554  40.282   5.219
 4787POPC   GL160565  22.677  39.985   5.738
 4787POPC   GL260566  22.998  39.756   5.878
 4787POPC   C1A60567  22.796  40.054   6.209
 4787POPC   D2A60568  22.920  40.243   6.590
 4787POPC   C3A60569  22.827  40.031   6.964
 4787POPC   C4A60570  22.934  39.755   7.271
 4787POPC   C1B60571  23.315  39.958   6.192
 4787POPC   C2B60572  23.350  39.953   6.666
 4787POPC   C3B60573  23.418  39.750   7.091
 4787POPC   C4B60574  23.321  40.099   7.356
 4788POPC   NC360575  22.687  43.303   5.415
 4788POPC   PO460576  22.034  43.395   5.387
 4788POPC   GL160577  22.229  43.214   5.758
 4788POPC   GL260578  22.516  42.951   5.749
 4788POPC   C1A60579  22.112  43.360   6.198
 4788POPC   D2A60580  22.075  43.187   6.607
 4788POPC   C3A60581  22.007  43.367   7.007
 4788POPC   C4A60582  22.098  43.003   7.270
 4788POPC   C1B60583  22.598  43.183   6.123
 4788POPC   C2B60584  22.535  43.422   6.499
 4788POPC   C3B60585  22.495  43.237   6.904
 4788POPC   C4B60586  22.733  43.214   7.246
 4789POPC   NC360587  22.787  36.656   5.327
 4789POPC   PO460588  23.179  37.156   5.525
 4789POPC   GL160589  22.946  36.858   5.816
 4789POPC   GL260590  22.655  36.622   5.934
 4789POPC   C1A60591  23.089  36.843   6.240
 4789POPC   D2A60592  23.046  37.028   6.660
 4789POPC   C3A60593  23.244  37.029   7.070
 4789POPC   C4A60594  23.110  37.092   7.504
 4789POPC   C1B60595  22.580  36.973   6.240
 4789POPC   C2B60596  22.491  37.013   6.690
 4789POPC   C3B60597  22.726  36.915   7.079
 4789POPC   C4B60598  22.586  36.685   7.450
 4790POPC   NC360599  31.394  38.913   5.163
 4790POPC   PO460600  31.611  39.551   5.385
 4790POPC   GL160601  31.532  39.343   5.781
 4790POPC   GL260602  31.677  38.988   5.709
 4790POPC   C1A60603  31.410  39.235   6.211
 4790POPC   D2A60604  31.323  39.342   6.645
 4790POPC   C3A60605  31.419  39.175   7.058
 4790POPC   C4A60606  31.467  39.431   7.437
 4790POPC   C1B60607  31.862  38.999   6.124
 4790POPC   C2B60608  31.854  39.122   6.574
 4790POPC   C3B60609  31.831  38.873   6.978
 4790POPC   C4B60610  31.780  39.021   7.424
 4791POPC   NC360611  41.937  19.197   5.425
 4791POPC   PO460612  41.440  18.841   5.428
 4791POPC   GL160613  41.572  19.046   5.791
 4791POPC   GL260614  41.571  19.404   5.776
 4791POPC   C1A60615  41.595  18.923   6.211
 4791POPC   D2A60616  41.822  19.020   6.583
 4791POPC   C3A60617  41.562  19.137   6.926
 4791POPC   C4A60618  41.611  19.258   7.359
 4791POPC   C1B60619  41.779  19.394   6.183
 4791POPC   C2B60620  41.674  19.528   6.610
 4791POPC   C3B60621  41.884  19.555   7.016
 4791POPC   C4B60622  42.164  19.529   7.398
 4792POPC   NC360623  29.171  37.722   5.411
 4792POPC   PO460624  28.798  37.140   5.205
 4792POPC   GL160625  28.933  37.328   5.692
 4792POPC   GL260626  29.174  37.610   5.875
 4792POPC   C1A60627  28.967  37.340   6.209
 4792POPC   D2A60628  29.248  37.321   6.603
 4792POPC   C3A60629  29.049  37.483   7.014
 4792POPC   C4A60630  29.095  37.691   7.408
 4792POPC   C1B60631  29.295  37.722   6.289
 4792POPC   C2B60632  29.052  37.807   6.634
 4792POPC   C3B60633  29.006  38.010   7.018
 4792POPC   C4B60634  29.298  38.152   7.348
 4793POPC   NC360635  21.171  36.852   5.513
 4793POPC   PO460636  21.844  36.667   5.323
 4793POPC   GL160637  21.690  36.771   5.777
 4793POPC   GL260638  21.344  36.673   5.950
 4793POPC   C1A60639  21.679  36.896   6.234
 4793POPC   D2A60640  21.337  36.778   6.512
 4793POPC   C3A60641  21.396  36.920   6.909
 4793POPC   C4A60642  21.292  36.766   7.312
 4793POPC   C1B60643  21.168  37.091   6.152
 4793POPC   C2B60644  21.137  37.273   6.587
 4793POPC   C3B60645  21.001  37.209   7.054
 4793POPC   C4B60646  20.988  37.314   7.519
 4794POPC   NC360647  10.774  29.769   5.518
 4794POPC   PO460648  10.351  30.296   5.483
 4794POPC   GL160649  10.455  29.993   5.835
 4794POPC   GL260650  10.834  30.078   5.931
 4794POPC   C1A60651  10.508  29.885   6.269
 4794POPC   D2A60652  10.507  30.259   6.517
 4794POPC   C3A60653  10.621  30.112   6.890
 4794POPC   C4A60654  10.435  29.897   7.221
 4794POPC   C1B60655  10.978  29.693   6.158
 4794POPC   C2B60656  10.933  29.563   6.599
 4794POPC   C3B60657  10.865  29.624   7.058
 4794POPC   C4B60658  10.862  29.597   7.523
 4795POPC   NC360659  17.739  36.585   5.081
 4795POPC   PO460660  17.337  36.099   5.398
 4795POPC   GL160661  17.539  36.270   5.738
 4795POPC   GL260662  17.641  35.930   5.803
 4795POPC   C1A60663  17.359  36.390   6.133
 4795POPC   D2A60664  17.387  36.276   6.582
 4795POPC   C3A60665  17.177  36.457   6.926
 4795POPC   C4A60666  17.442  36.470   7.276
 4795POPC   C1B60667  17.422  35.900   6.211
 4795POPC   C2B60668  17.497  35.800   6.663
 4795POPC   C3B60669  17.398  35.922   7.090
 4795POPC   C4B60670  17.220  35.686   7.464
 4796POPC   NC360671  10.449   7.675   5.517
 4796POPC   PO460672  10.868   7.116   5.418
 4796POPC   GL160673  10.840   7.404   5.737
 4796POPC   GL260674  10.947   7.721   5.569
 4796POPC   C1A60675  10.710   7.362   6.189
 4796POPC   D2A60676  10.486   7.152   6.538
 4796POPC   C3A60677  10.562   7.331   6.956
 4796POPC   C4A60678  10.391   7.473   7.338
 4796POPC   C1B60679  10.917   7.810   6.023
 4796POPC   C2B60680  11.011   7.704   6.450
 4796POPC   C3B60681  11.056   7.659   6.883
 4796POPC   C4B60682  10.840   7.698   7.263
 4797POPC   NC360683  29.969  17.608   5.539
 4797POPC   PO460684  29.396  17.226   5.509
 4797POPC   GL160685  29.572  17.507   5.859
 4797POPC   GL260686  29.934  17.518   6.030
 4797POPC   C1A60687  29.524  17.547   6.310
 4797POPC   D2A60688  29.891  17.428   6.559
 4797POPC   C3A60689  29.790  17.430   6.969
 4797POPC   C4A60690  29.479  17.661   7.214
 4797POPC   C1B60691  30.168  17.173   6.209
 4797POPC   C2B60692  30.390  17.062   6.575
 4797POPC   C3B60693  30.283  17.247   6.948
 4797POPC   C4B60694  30.314  17.482   7.303
 4798POPC   NC360695  19.898  23.798   5.434
 4798POPC   PO460696  19.779  23.180   5.401
 4798POPC   GL160697  19.838  23.336   5.831
 4798POPC   GL260698  19.711  23.668   5.884
 4798POPC   C1A60699  19.872  23.424   6.307
 4798POPC   D2A60700  19.992  23.615   6.710
 4798POPC   C3A60701  19.705  23.600   7.094
 4798POPC   C4A60702  19.805  23.526   7.571
 4798POPC   C1B60703  19.707  23.959   6.220
 4798POPC   C2B60704  19.549  23.965   6.664
 4798POPC   C3B60705  19.455  24.054   7.099
 4798POPC   C4B60706  19.718  23.998   7.464
 4799POPC   NC360707   9.254  40.179   5.405
 4799POPC   PO460708   8.741  39.741   5.366
 4799POPC   GL160709   8.877  40.047   5.749
 4799POPC   GL260710   9.106  40.342   5.852
 4799POPC   C1A60711   8.853  39.990   6.216
 4799POPC   D2A60712   8.781  39.654   6.552
 4799POPC   C3A60713   8.926  39.768   6.961
 4799POPC   C4A60714   8.903  40.100   7.260
 4799POPC   C1B60715   9.325  40.178   6.211
 4799POPC   C2B60716   9.202  40.145   6.645
 4799POPC   C3B60717   9.238  40.405   6.993
 4799POPC   C4B60718   9.324  40.326   7.435
 4800POPC   NC360719  12.920  13.692   5.399
 4800POPC   PO460720  12.409  14.103   5.638
 4800POPC   GL160721  12.727  13.738   5.876
 4800POPC   GL260722  13.098  13.712   5.868
 4800POPC   C1A60723  12.765  13.515   6.268
 4800POPC   D2A60724  12.781  13.830   6.601
 4800POPC   C3A60725  12.639  13.734   6.985
 4800POPC   C4A60726  12.620  13.361   7.225
 4800POPC   C1B60727  13.164  13.830   6.285
 4800POPC   C2B60728  13.227  13.567   6.648
 4800POPC   C3B60729  13.085  13.515   7.076
 4800POPC   C4B60730  12.980  13.805   7.393
 4801POPC   NC360731  15.427   7.853   5.624
 4801POPC   PO460732  15.098   8.328   5.275
 4801POPC   GL160733  15.140   8.337   5.707
 4801POPC   GL260734  14.892   8.593   5.782
 4801POPC   C1A60735  15.295   8.377   6.127
 4801POPC   D2A60736  15.512   8.358   6.511
 4801POPC   C3A60737  15.335   8.046   6.751
 4801POPC   C4A60738  15.225   8.022   7.160
 4801POPC   C1B60739  14.878   8.654   6.231
 4801POPC   C2B60740  14.859   8.463   6.647
 4801POPC   C3B60741  14.889   8.380   7.079
 4801POPC   C4B60742  14.617   8.500   7.410
 4802POPC   NC360743  22.324  20.335   5.550
 4802POPC   PO460744  22.217  19.625   5.503
 4802POPC   GL160745  22.008  19.796   5.858
 4802POPC   GL260746  22.263  20.031   5.947
 4802POPC   C1A60747  22.004  19.834   6.335
 4802POPC   D2A60748  22.253  19.930   6.691
 4802POPC   C3A60749  22.044  19.958   7.103
 4802POPC   C4A60750  21.659  20.058   7.378
 4802POPC   C1B60751  22.448  19.677   6.183
 4802POPC   C2B60752  22.363  19.450   6.563
 4802POPC   C3B60753  22.540  19.632   6.971
 4802POPC   C4B60754  22.476  19.781   7.371
 4803POPC   NC360755  43.315   5.752   5.541
 4803POPC   PO460756  42.846   6.286   5.451
 4803POPC   GL160757  43.000   6.079   5.817
 4803POPC   GL260758  42.875   5.734   5.833
 4803POPC   C1A60759  43.198   5.925   6.209
 4803POPC   D2A60760  43.336   6.075   6.609
 4803POPC   C3A60761  43.061   6.038   6.979
 4803POPC   C4A60762  43.020   6.290   7.378
 4803POPC   C1B60763  43.090   5.440   6.123
 4803POPC   C2B60764  43.203   5.523   6.570
 4803POPC   C3B60765  43.048   5.486   7.001
 4803POPC   C4B60766  42.988   5.549   7.441
 4804POPC   NC360767  30.039   7.569   5.377
 4804POPC   PO460768  29.716   7.079   5.744
 4804POPC   GL160769  29.960   7.406   5.844
 4804POPC   GL260770  29.768   7.700   5.810
 4804POPC   C1A60771  30.183   7.362   6.190
 4804POPC   D2A60772  30.009   7.424   6.607
 4804POPC   C3A60773  30.203   7.284   6.970
 4804POPC   C4A60774  30.215   7.125   7.359
 4804POPC   C1B60775  29.975   7.807   6.239
 4804POPC   C2B60776  30.129   8.042   6.573
 4804POPC   C3B60777  30.217   7.793   6.920
 4804POPC   C4B60778  29.837   7.625   7.120
 4805POPC   NC360779   9.491   5.447   5.352
 4805POPC   PO460780  10.049   5.748   5.425
 4805POPC   GL160781   9.757   5.926   5.686
 4805POPC   GL260782   9.993   6.172   5.778
 4805POPC   C1A60783   9.552   5.745   6.063
 4805POPC   D2A60784   9.731   5.614   6.470
 4805POPC   C3A60785   9.523   5.738   6.859
 4805POPC   C4A60786   9.665   5.748   7.287
 4805POPC   C1B60787   9.711   6.227   6.151
 4805POPC   C2B60788   9.816   6.372   6.581
 4805POPC   C3B60789   9.858   6.150   6.957
 4805POPC   C4B60790   9.770   6.236   7.365
 4806POPC   NC360791  24.711   4.885   5.403
 4806POPC   PO460792  24.604   5.382   5.741
 4806POPC   GL160793  24.574   4.984   5.904
 4806POPC   GL260794  24.250   4.908   5.856
 4806POPC   C1A60795  24.568   4.872   6.320
 4806POPC   D2A60796  24.743   5.047   6.672
 4806POPC   C3A60797  24.527   5.104   7.027
 4806POPC   C4A60798  24.487   5.341   7.379
 4806POPC   C1B60799  24.152   5.187   6.197
 4806POPC   C2B60800  24.200   5.070   6.626
 4806POPC   C3B60801  24.094   4.824   6.973
 4806POPC   C4B60802  24.058   5.086   7.306
 4807POPC   NC360803  30.182  35.482   5.352
 4807POPC   PO460804  29.646  35.250   5.487
 4807POPC   GL160805  29.931  35.303   5.820
 4807POPC   GL260806  30.106  35.641   5.851
 4807POPC   C1A60807  29.965  35.092   6.210
 4807POPC   D2A60808  29.945  35.310   6.609
 4807POPC   C3A60809  29.806  35.197   7.004
 4807POPC   C4A60810  29.713  35.482   7.319
 4807POPC   C1B60811  30.294  35.467   6.249
 4807POPC   C2B60812  30.400  35.503   6.729
 4807POPC   C3B60813  30.255  35.501   7.188
 4807POPC   C4B60814  30.324  35.616   7.627
 4808POPC   NC360815  29.491  13.410   5.472
 4808POPC   PO460816  30.085  13.704   5.294
 4808POPC   GL160817  29.968  13.580   5.730
 4808POPC   GL260818  29.775  13.864   5.800
 4808POPC   C1A60819  30.117  13.646   6.179
 4808POPC   D2A60820  30.245  13.689   6.612
 4808POPC   C3A60821  29.995  13.452   6.891
 4808POPC   C4A60822  30.039  13.441   7.298
 4808POPC   C1B60823  29.601  13.972   6.197
 4808POPC   C2B60824  29.722  13.780   6.570
 4808POPC   C3B60825  29.632  13.789   6.995
 4808POPC   C4B60826  29.568  13.639   7.400
 4809POPC   NC360827  26.834  38.102   5.583
 4809POPC   PO460828  26.389  38.561   5.378
 4809POPC   GL160829  26.519  38.692   5.822
 4809POPC   GL260830  26.875  38.617   5.841
 4809POPC   C1A60831  26.584  38.733   6.288
 4809POPC   D2A60832  26.658  38.393   6.570
 4809POPC   C3A60833  26.735  38.485   6.993
 4809POPC   C4A60834  26.861  38.318   7.398
 4809POPC   C1B60835  27.114  38.516   6.222
 4809POPC   C2B60836  27.151  38.619   6.651
 4809POPC   C3B60837  27.206  38.341   6.989
 4809POPC   C4B60838  27.366  38.301   7.374
 4810POPC   NC360839  10.165  10.465   5.482
 4810POPC   PO460840  10.865  10.395   5.376
 4810POPC   GL160841  10.740  10.665   5.734
 4810POPC   GL260842  10.680  11.005   5.798
 4810POPC   C1A60843  10.499  10.643   6.130
 4810POPC   D2A60844  10.318  10.318   6.398
 4810POPC   C3A60845  10.353  10.459   6.815
 4810POPC   C4A60846  10.381  10.601   7.230
 4810POPC   C1B60847  10.826  11.104   6.190
 4810POPC   C2B60848  10.870  10.957   6.608
 4810POPC   C3B60849  10.624  11.005   6.979
 4810POPC   C4B60850  10.658  10.962   7.433
 4811POPC   NC360851  20.097  41.397   5.468
 4811POPC   PO460852  19.495  41.543   5.355
 4811POPC   GL160853  19.572  41.380   5.823
 4811POPC   GL260854  19.922  41.255   5.955
 4811POPC   C1A60855  19.641  41.578   6.256
 4811POPC   D2A60856  19.798  41.746   6.640
 4811POPC   C3A60857  19.518  41.704   6.986
 4811POPC   C4A60858  19.557  41.421   7.287
 4811POPC   C1B60859  20.176  41.227   6.366
 4811POPC   C2B60860  20.372  41.587   6.607
 4811POPC   C3B60861  20.230  41.644   7.027
 4811POPC   C4B60862  20.073  41.302   7.291
 4812POPC   NC360863   1.781  15.072   5.558
 4812POPC   PO460864   2.326  15.466   5.424
 4812POPC   GL160865   2.170  15.206   5.818
 4812POPC   GL260866   2.161  14.876   5.845
 4812POPC   C1A60867   1.964  15.183   6.240
 4812POPC   D2A60868   1.667  15.334   6.550
 4812POPC   C3A60869   1.897  15.291   6.919
 4812POPC   C4A60870   1.899  15.143   7.340
 4812POPC   C1B60871   2.355  14.865   6.254
 4812POPC   C2B60872   2.321  15.069   6.676
 4812POPC   C3B60873   2.329  14.993   7.137
 4812POPC   C4B60874   2.291  14.994   7.645
 4813POPC   NC360875  40.078  35.863   5.369
 4813POPC   PO460876  39.821  36.480   5.407
 4813POPC   GL160877  40.080  36.275   5.719
 4813POPC   GL260878  39.831  36.376   5.975
 4813POPC   C1A60879  40.156  35.969   6.066
 4813POPC   D2A60880  39.949  36.017   6.471
 4813POPC   C3A60881  40.117  35.859   6.866
 4813POPC   C4A60882  40.042  35.961   7.297
 4813POPC   C1B60883  40.191  36.447   6.214
 4813POPC   C2B60884  40.262  36.411   6.646
 4813POPC   C3B60885  39.923  36.343   6.921
 4813POPC   C4B60886  39.870  36.445   7.330
 4814POPC   NC360887  19.761   0.677   5.591
 4814POPC   PO460888  19.480   0.197   5.211
 4814POPC   GL160889  19.873   0.194   5.629
 4814POPC   GL260890  19.778   0.372   5.982
 4814POPC   C1A60891  20.219   0.153   6.018
 4814POPC   D2A60892  20.298   0.321   6.485
 4814POPC   C3A60893  20.050   0.510   6.848
 4814POPC   C4A60894  19.883   0.373   7.254
 4814POPC   C1B60895  19.533   0.253   6.345
 4814POPC   C2B60896  19.599   0.248   6.783
 4814POPC   C3B60897  19.432   0.144   7.152
 4814POPC   C4B60898  19.498   0.249   7.582
 4815POPC   NC360899  41.073  22.329   5.470
 4815POPC   PO460900  40.380  22.067   5.412
 4815POPC   GL160901  40.683  22.156   5.736
 4815POPC   GL260902  40.862  21.851   5.746
 4815POPC   C1A60903  40.703  22.340   6.155
 4815POPC   D2A60904  40.979  22.424   6.492
 4815POPC   C3A60905  40.799  22.317   6.876
 4815POPC   C4A60906  40.806  22.381   7.326
 4815POPC   C1B60907  40.590  21.833   6.128
 4815POPC   C2B60908  40.569  22.010   6.536
 4815POPC   C3B60909  40.517  21.911   6.978
 4815POPC   C4B60910  40.876  21.764   7.207
 4816POPC   NC360911   0.422  30.213   5.430
 4816POPC   PO460912   0.681  29.579   5.361
 4816POPC   GL160913   0.640  29.826   5.723
 4816POPC   GL260914   0.335  29.916   5.851
 4816POPC   C1A60915   0.674  29.727   6.182
 4816POPC   D2A60916   0.401  29.822   6.549
 4816POPC   C3A60917   0.541  30.029   6.925
 4816POPC   C4A60918   0.668  29.898   7.342
 4816POPC   C1B60919   0.102  30.057   6.196
 4816POPC   C2B60920   0.040  30.230   6.599
 4816POPC   C3B60921  44.974  29.971   6.943
 4816POPC   C4B60922   0.182  30.001   7.306
 4817POPC   NC360923  27.579  36.281   5.519
 4817POPC   PO460924  27.521  35.661   5.576
 4817POPC   GL160925  27.542  35.944   5.930
 4817POPC   GL260926  27.855  36.130   5.917
 4817POPC   C1A60927  27.601  36.176   6.341
 4817POPC   D2A60928  27.961  36.111   6.640
 4817POPC   C3A60929  27.766  35.943   6.984
 4817POPC   C4A60930  27.373  36.054   7.131
 4817POPC   C1B60931  28.023  36.437   6.215
 4817POPC   C2B60932  27.995  36.627   6.645
 4817POPC   C3B60933  27.924  36.551   7.105
 4817POPC   C4B60934  27.729  36.265   7.436
 4818POPC   NC360935  10.172  28.150   5.486
 4818POPC   PO460936  10.758  28.525   5.387
 4818POPC   GL160937  10.614  28.462   5.807
 4818POPC   GL260938  10.312  28.397   5.918
 4818POPC   C1A60939  10.713  28.268   6.226
 4818POPC   D2A60940  10.969  28.243   6.601
 4818POPC   C3A60941  10.789  28.338   7.009
 4818POPC   C4A60942  10.494  28.296   7.340
 4818POPC   C1B60943  10.218  28.130   6.233
 4818POPC   C2B60944  10.446  28.017   6.616
 4818POPC   C3B60945  10.258  27.957   7.029
 4818POPC   C4B60946  10.014  28.092   7.373
 4819POPC   NC360947  18.606  34.583   5.299
 4819POPC   PO460948  17.944  34.561   5.360
 4819POPC   GL160949  18.221  34.616   5.739
 4819POPC   GL260950  18.151  34.848   5.996
 4819POPC   C1A60951  18.410  34.409   6.105
 4819POPC   D2A60952  18.675  34.365   6.450
 4819POPC   C3A60953  18.453  34.401   6.847
 4819POPC   C4A60954  18.443  34.268   7.283
 4819POPC   C1B60955  18.227  34.726   6.453
 4819POPC   C2B60956  17.959  34.515   6.743
 4819POPC   C3B60957  18.001  34.464   7.145
 4819POPC   C4B60958  18.175  34.693   7.444
 4820POPC   NC360959   1.211  23.857   5.294
 4820POPC   PO460960   1.533  23.287   5.500
 4820POPC   GL160961   1.441  23.630   5.756
 4820POPC   GL260962   1.092  23.649   5.770
 4820POPC   C1A60963   1.387  23.691   6.192
 4820POPC   D2A60964   1.513  23.834   6.592
 4820POPC   C3A60965   1.217  23.767   6.907
 4820POPC   C4A60966   1.279  23.553   7.266
 4820POPC   C1B60967   0.900  23.851   6.145
 4820POPC   C2B60968   0.764  23.782   6.543
 4820POPC   C3B60969   0.715  23.854   6.977
 4820POPC   C4B60970   0.766  23.539   7.292
 4821POPC   NC360971  10.771  16.386   5.582
 4821POPC   PO460972  10.286  16.469   5.219
 4821POPC   GL160973  10.344  16.658   5.659
 4821POPC   GL260974  10.301  16.359   5.858
 4821POPC   C1A60975  10.462  16.815   6.116
 4821POPC   D2A60976  10.297  16.746   6.572
 4821POPC   C3A60977  10.474  16.785   6.991
 4821POPC   C4A60978  10.819  17.059   7.047
 4821POPC   C1B60979  10.418  16.334   6.283
 4821POPC   C2B60980  10.645  16.370   6.677
 4821POPC   C3B60981  10.760  16.322   7.110
 4821POPC   C4B60982  10.613  16.240   7.560
 4822POPC   NC360983   6.950  10.247   5.554
 4822POPC   PO460984   6.295  10.566   5.322
 4822POPC   GL160985   6.504  10.631   5.777
 4822POPC   GL260986   6.825  10.557   5.912
 4822POPC   C1A60987   6.481  10.732   6.244
 4822POPC   D2A60988   6.709  10.727   6.618
 4822POPC   C3A60989   6.588  10.877   7.028
 4822POPC   C4A60990   6.800  10.752   7.409
 4822POPC   C1B60991   6.731  10.263   6.237
 4822POPC   C2B60992   6.554  10.198   6.629
 4822POPC   C3B60993   6.668  10.363   7.020
 4822POPC   C4B60994   7.046  10.321   7.211
 4823POPC   NC360995  20.130   6.955   5.439
 4823POPC   PO460996  19.987   7.643   5.469
 4823POPC   GL160997  19.748   7.407   5.749
 4823POPC   GL260998  19.878   7.135   5.835
 4823POPC   C1A60999  19.560   7.433   6.155
 4823POPC   D2A61000  19.791   7.422   6.525
 4823POPC   C3A61001  19.640   7.369   6.940
 4823POPC   C4A61002  19.553   7.052   7.257
 4823POPC   C1B61003  20.115   7.397   6.115
 4823POPC   C2B61004  20.323   7.412   6.494
 4823POPC   C3B61005  20.149   7.511   6.881
 4823POPC   C4B61006  20.034   7.280   7.229
 4824POPC   NC361007  34.415  32.614   5.432
 4824POPC   PO461008  34.531  33.243   5.328
 4824POPC   GL161009  34.686  33.120   5.738
 4824POPC   GL261010  34.883  32.838   5.643
 4824POPC   C1A61011  34.521  33.148   6.182
 4824POPC   D2A61012  34.554  33.335   6.621
 4824POPC   C3A61013  34.441  33.126   7.016
 4824POPC   C4A61014  34.406  33.259   7.441
 4824POPC   C1B61015  34.935  32.808   6.101
 4824POPC   C2B61016  34.881  32.960   6.513
 4824POPC   C3B61017  34.834  32.812   6.936
 4824POPC   C4B61018  35.090  32.695   7.260
 4825POPC   NC361019  41.362  10.211   5.570
 4825POPC   PO461020  41.635  10.859   5.456
 4825POPC   GL161021  41.702  10.599   5.816
 4825POPC   GL261022  41.959  10.329   5.846
 4825POPC   C1A61023  41.513  10.687   6.227
 4825POPC   D2A61024  41.420  10.502   6.633
 4825POPC   C3A61025  41.541  10.756   7.014
 4825POPC   C4A61026  41.494  10.847   7.450
 4825POPC   C1B61027  41.739  10.242   6.208
 4825POPC   C2B61028  41.889  10.248   6.613
 4825POPC   C3B61029  41.700  10.259   7.000
 4825POPC   C4B61030  41.422  10.350   7.341
 4826POPC   NC361031  16.542  41.852   5.305
 4826POPC   PO461032  17.247  41.706   5.450
 4826POPC   GL161033  16.879  41.762   5.730
 4826POPC   GL261034  16.673  41.469   5.797
 4826POPC   C1A61035  16.707  41.952   6.118
 4826POPC   D2A61036  16.939  41.938   6.528
 4826POPC   C3A61037  16.897  41.785   6.969
 4826POPC   C4A61038  16.544  41.884   7.285
 4826POPC   C1B61039  16.766  41.481   6.256
 4826POPC   C2B61040  16.524  41.636   6.623
 4826POPC   C3B61041  16.536  41.421   7.006
 4826POPC   C4B61042  16.877  41.292   7.141
 4827POPC   NC361043  16.208  42.595   5.345
 4827POPC   PO461044  15.892  42.042   5.596
 4827POPC   GL161045  16.178  42.252   5.808
 4827POPC   GL261046  16.067  42.607   5.825
 4827POPC   C1A61047  16.220  42.074   6.219
 4827POPC   D2A61048  16.092  42.274   6.588
 4827POPC   C3A61049  16.218  42.182   7.009
 4827POPC   C4A61050  15.843  42.029   7.235
 4827POPC   C1B61051  15.848  42.559   6.191
 4827POPC   C2B61052  15.840  42.736   6.585
 4827POPC   C3B61053  15.887  42.569   6.961
 4827POPC   C4B61054  16.141  42.670   7.223
 4828POPC   NC361055  26.155   3.885   5.482
 4828POPC   PO461056  25.959   4.555   5.258
 4828POPC   GL161057  26.164   4.493   5.738
 4828POPC   GL261058  26.305   4.187   5.891
 4828POPC   C1A61059  26.294   4.679   6.117
 4828POPC   D2A61060  26.178   4.678   6.542
 4828POPC   C3A61061  25.970   4.354   6.789
 4828POPC   C4A61062  26.202   4.376   7.168
 4828POPC   C1B61063  26.079   4.209   6.274
 4828POPC   C2B61064  25.765   3.930   6.481
 4828POPC   C3B61065  25.681   3.851   6.942
 4828POPC   C4B61066  25.764   4.071   7.344
 4829POPC   NC361067  42.486  34.039   5.190
 4829POPC   PO461068  42.257  33.481   5.524
 4829POPC   GL161069  42.337  33.675   5.886
 4829POPC   GL261070  42.463  33.999   5.772
 4829POPC   C1A61071  42.244  33.696   6.304
 4829POPC   D2A61072  42.462  33.786   6.663
 4829POPC   C3A61073  42.402  33.668   7.050
 4829POPC   C4A61074  42.580  33.956   7.300
 4829POPC   C1B61075  42.325  34.184   6.172
 4829POPC   C2B61076  42.064  34.116   6.537
 4829POPC   C3B61077  42.237  34.171   6.934
 4829POPC   C4B61078  42.073  34.051   7.301
 4830POPC   NC361079  20.463  37.593   5.431
 4830POPC   PO461080  21.017  38.015   5.522
 4830POPC   GL161081  20.767  37.757   5.817
 4830POPC   GL261082  20.385  37.877   5.837
 4830POPC   C1A61083  20.799  37.525   6.222
 4830POPC   D2A61084  20.627  37.370   6.610
 4830POPC   C3A61085  20.634  37.565   7.023
 4830POPC   C4A61086  20.330  37.860   7.119
 4830POPC   C1B61087  20.281  37.671   6.207
 4830POPC   C2B61088  20.047  37.608   6.574
 4830POPC   C3B61089  20.128  37.431   6.953
 4830POPC   C4B61090  20.169  37.461   7.380
 4831POPC   NC361091  17.932  24.056   5.390
 4831POPC   PO461092  18.599  24.274   5.403
 4831POPC   GL161093  18.446  23.943   5.710
 4831POPC   GL261094  18.096  23.818   5.817
 4831POPC   C1A61095  18.546  23.791   6.136
 4831POPC   D2A61096  18.486  23.908   6.579
 4831POPC   C3A61097  18.453  23.603   6.895
 4831POPC   C4A61098  18.511  23.689   7.366
 4831POPC   C1B61099  18.159  23.421   6.060
 4831POPC   C2B61100  18.084  23.405   6.508
 4831POPC   C3B61101  17.952  23.444   6.934
 4831POPC   C4B61102  18.070  23.846   7.114
 4832POPC   NC361103  30.403  20.597   5.412
 4832POPC   PO461104  30.962  20.322   5.447
 4832POPC   GL161105  30.782  20.585   5.786
 4832POPC   GL261106  31.002  20.461   6.056
 4832POPC   C1A61107  30.544  20.618   6.197
 4832POPC   D2A61108  30.802  20.505   6.564
 4832POPC   C3A61109  30.634  20.627   6.950
 4832POPC   C4A61110  30.482  20.458   7.330
 4832POPC   C1B61111  30.987  20.897   6.200
 4832POPC   C2B61112  30.900  21.020   6.613
 4832POPC   C3B61113  31.120  20.780   6.922
 4832POPC   C4B61114  31.040  20.481   7.243
 4833POPC   NC361115  20.797  42.752   5.565
 4833POPC   PO461116  20.533  42.101   5.488
 4833POPC   GL161117  20.584  42.375   5.864
 4833POPC   GL261118  20.863  42.503   6.007
 4833POPC   C1A61119  20.431  42.481   6.286
 4833POPC   D2A61120  20.499  42.644   6.721
 4833POPC   C3A61121  20.214  42.481   7.061
 4833POPC   C4A61122  20.336  42.086   7.283
 4833POPC   C1B61123  21.184  42.622   6.286
 4833POPC   C2B61124  21.122  42.857   6.652
 4833POPC   C3B61125  21.006  42.538   6.939
 4833POPC   C4B61126  20.699  42.544   7.211
 4834POPC   NC361127   7.809  25.512   5.422
 4834POPC   PO461128   7.210  25.421   5.535
 4834POPC   GL161129   7.326  25.247   5.875
 4834POPC   GL261130   7.198  24.908   5.785
 4834POPC   C1A61131   7.266  25.402   6.291
 4834POPC   D2A61132   7.451  25.584   6.680
 4834POPC   C3A61133   7.229  25.578   7.060
 4834POPC   C4A61134   7.238  25.388   7.482
 4834POPC   C1B61135   7.387  24.889   6.227
 4834POPC   C2B61136   7.377  25.062   6.648
 4834POPC   C3B61137   7.480  25.122   7.063
 4834POPC   C4B61138   7.320  24.873   7.381
 4835POPC   NC361139  26.146  34.390   5.364
 4835POPC   PO461140  25.373  34.372   5.130
 4835POPC   GL161141  25.705  34.569   5.592
 4835POPC   GL261142  25.987  34.400   5.851
 4835POPC   C1A61143  26.029  34.866   5.943
 4835POPC   D2A61144  26.220  34.651   6.332
 4835POPC   C3A61145  26.266  34.770   6.801
 4835POPC   C4A61146  26.028  34.773   7.191
 4835POPC   C1B61147  25.983  34.176   6.237
 4835POPC   C2B61148  26.240  34.190   6.604
 4835POPC   C3B61149  26.150  34.284   7.029
 4835POPC   C4B61150  26.029  34.319   7.472
 4836POPC   NC361151  39.210   6.922   5.454
 4836POPC   PO461152  38.945   6.296   5.472
 4836POPC   GL161153  39.276   6.443   5.825
 4836POPC   GL261154  39.451   6.781   5.869
 4836POPC   C1A61155  39.259   6.554   6.285
 4836POPC   D2A61156  39.069   6.694   6.661
 4836POPC   C3A61157  39.143   6.447   7.012
 4836POPC   C4A61158  39.027   6.510   7.412
 4836POPC   C1B61159  39.636   6.912   6.230
 4836POPC   C2B61160  39.519   6.937   6.655
 4836POPC   C3B61161  39.569   6.722   7.010
 4836POPC   C4B61162  39.624   6.809   7.421
 4837POPC   NC361163  19.757   3.929   5.387
 4837POPC   PO461164  20.114   3.424   5.402
 4837POPC   GL161165  19.887   3.581   5.794
 4837POPC   GL261166  19.550   3.756   5.831
 4837POPC   C1A61167  19.884   3.694   6.240
 4837POPC   D2A61168  19.999   3.571   6.659
 4837POPC   C3A61169  19.660   3.377   6.912
 4837POPC   C4A61170  19.805   3.385   7.350
 4837POPC   C1B61171  19.483   4.004   6.232
 4837POPC   C2B61172  19.611   3.941   6.653
 4837POPC   C3B61173  19.785   3.834   7.058
 4837POPC   C4B61174  19.770   3.879   7.518
 4838POPC   NC361175  26.902  40.456   5.407
 4838POPC   PO461176  26.671  41.049   5.426
 4838POPC   GL161177  26.728  40.849   5.795
 4838POPC   GL261178  26.778  40.495   5.884
 4838POPC   C1A61179  27.031  40.842   6.135
 4838POPC   D2A61180  27.087  41.008   6.533
 4838POPC   C3A61181  26.900  40.802   6.885
 4838POPC   C4A61182  27.016  40.912   7.280
 4838POPC   C1B61183  26.539  40.660   6.236
 4838POPC   C2B61184  26.421  40.656   6.672
 4838POPC   C3B61185  26.454  40.578   7.101
 4838POPC   C4B61186  26.660  40.625   7.477
 4839POPC   NC361187  36.509   7.818   5.416
 4839POPC   PO461188  36.694   8.512   5.385
 4839POPC   GL161189  36.830   8.422   5.807
 4839POPC   GL261190  36.892   8.062   5.759
 4839POPC   C1A61191  36.993   8.257   6.208
 4839POPC   D2A61192  36.872   8.063   6.586
 4839POPC   C3A61193  37.004   8.305   6.939
 4839POPC   C4A61194  36.861   8.460   7.312
 4839POPC   C1B61195  36.623   7.854   6.126
 4839POPC   C2B61196  36.692   7.586   6.532
 4839POPC   C3B61197  36.800   7.684   6.970
 4839POPC   C4B61198  36.593   8.016   7.219
 4840POPC   NC361199  33.315  37.639   5.384
 4840POPC   PO461200  32.796  38.154   5.437
 4840POPC   GL161201  32.862  37.984   5.865
 4840POPC   GL261202  33.189  37.828   5.843
 4840POPC   C1A61203  33.048  38.045   6.301
 4840POPC   D2A61204  33.103  37.952   6.753
 4840POPC   C3A61205  32.797  37.801   7.039
 4840POPC   C4A61206  32.757  37.417   7.235
 4840POPC   C1B61207  33.131  37.545   6.204
 4840POPC   C2B61208  33.361  37.540   6.590
 4840POPC   C3B61209  33.225  37.428   7.012
 4840POPC   C4B61210  33.186  37.235   7.437
 4841POPC   NC361211  36.488  19.810   5.363
 4841POPC   PO461212  35.796  19.984   5.272
 4841POPC   GL161213  35.850  19.789   5.699
 4841POPC   GL261214  36.151  19.917   5.862
 4841POPC   C1A61215  35.839  19.611   6.141
 4841POPC   D2A61216  36.069  19.745   6.496
 4841POPC   C3A61217  36.065  19.583   6.926
 4841POPC   C4A61218  36.059  19.571   7.374
 4841POPC   C1B61219  36.343  20.112   6.251
 4841POPC   C2B61220  36.396  20.058   6.739
 4841POPC   C3B61221  36.302  20.002   7.215
 4841POPC   C4B61222  36.288  20.110   7.708
 4842POPC   NC361223  23.450  19.192   5.250
 4842POPC   PO461224  24.090  19.194   5.108
 4842POPC   GL161225  23.909  19.015   5.586
 4842POPC   GL261226  23.575  19.165   5.743
 4842POPC   C1A61227  23.812  18.900   6.092
 4842POPC   D2A61228  23.796  19.090   6.539
 4842POPC   C3A61229  23.713  18.815   6.904
 4842POPC   C4A61230  23.845  18.657   7.307
 4842POPC   C1B61231  23.434  19.298   6.184
 4842POPC   C2B61232  23.431  19.477   6.610
 4842POPC   C3B61233  23.554  19.325   6.973
 4842POPC   C4B61234  23.773  19.154   7.281
 4843POPC   NC361235   5.593  12.351   5.282
 4843POPC   PO461236   5.161  11.799   5.361
 4843POPC   GL161237   5.018  11.941   5.813
 4843POPC   GL261238   4.811  12.263   5.819
 4843POPC   C1A61239   4.790  11.964   6.214
 4843POPC   D2A61240   4.848  11.979   6.620
 4843POPC   C3A61241   5.222  11.764   6.774
 4843POPC   C4A61242   5.356  11.858   7.176
 4843POPC   C1B61243   5.145  12.314   6.184
 4843POPC   C2B61244   5.261  12.281   6.650
 4843POPC   C3B61245   5.247  12.339   7.112
 4843POPC   C4B61246   5.131  12.616   7.463
 4844POPC   NC361247  25.764  12.889   5.527
 4844POPC   PO461248  26.281  13.276   5.311
 4844POPC   GL161249  26.264  12.956   5.734
 4844POPC   GL261250  25.997  12.967   5.954
 4844POPC   C1A61251  26.329  12.733   6.214
 4844POPC   D2A61252  26.035  12.833   6.601
 4844POPC   C3A61253  26.127  12.721   7.058
 4844POPC   C4A61254  26.323  12.659   7.479
 4844POPC   C1B61255  25.696  12.803   6.207
 4844POPC   C2B61256  25.541  13.121   6.470
 4844POPC   C3B61257  25.685  13.231   6.846
 4844POPC   C4B61258  25.735  13.021   7.209
 4845POPC   NC361259  37.499  25.944   5.433
 4845POPC   PO461260  38.069  26.210   5.267
 4845POPC   GL161261  37.843  26.207   5.711
 4845POPC   GL261262  37.450  26.279   5.814
 4845POPC   C1A61263  37.813  26.146   6.166
 4845POPC   D2A61264  38.047  26.195   6.554
 4845POPC   C3A61265  37.797  26.194   6.901
 4845POPC   C4A61266  37.717  26.040   7.308
 4845POPC   C1B61267  37.326  25.950   6.125
 4845POPC   C2B61268  37.511  25.881   6.544
 4845POPC   C3B61269  37.357  25.921   6.962
 4845POPC   C4B61270  37.366  25.659   7.377
 4846POPC   NC361271   2.223  27.614   5.314
 4846POPC   PO461272   1.670  27.344   5.137
 4846POPC   GL161273   1.776  27.367   5.630
 4846POPC   GL261274   2.112  27.425   5.769
 4846POPC   C1A61275   1.778  27.359   6.124
 4846POPC   D2A61276   1.787  27.611   6.491
 4846POPC   C3A61277   1.892  27.489   6.868
 4846POPC   C4A61278   1.885  27.628   7.249
 4846POPC   C1B61279   2.245  27.552   6.200
 4846POPC   C2B61280   2.345  27.458   6.626
 4846POPC   C3B61281   2.348  27.458   7.079
 4846POPC   C4B61282   2.417  27.795   7.393
 4847POPC   NC361283  15.040  31.769   5.537
 4847POPC   PO461284  15.507  31.368   5.530
 4847POPC   GL161285  15.269  31.476   5.900
 4847POPC   GL261286  15.102  31.173   6.002
 4847POPC   C1A61287  15.081  31.647   6.275
 4847POPC   D2A61288  14.950  31.337   6.585
 4847POPC   C3A61289  14.796  31.518   6.960
 4847POPC   C4A61290  14.900  31.670   7.378
 4847POPC   C1B61291  15.413  31.147   6.315
 4847POPC   C2B61292  15.527  31.108   6.736
 4847POPC   C3B61293  15.256  31.218   7.073
 4847POPC   C4B61294  15.350  31.434   7.444
 4848POPC   NC361295  23.261  19.997   5.642
 4848POPC   PO461296  22.817  20.407   5.336
 4848POPC   GL161297  22.734  20.077   5.727
 4848POPC   GL261298  22.692  19.710   5.740
 4848POPC   C1A61299  22.905  19.925   6.163
 4848POPC   D2A61300  22.807  19.765   6.572
 4848POPC   C3A61301  22.952  19.901   7.016
 4848POPC   C4A61302  22.982  19.652   7.394
 4848POPC   C1B61303  22.941  19.423   6.048
 4848POPC   C2B61304  22.969  19.290   6.494
 4848POPC   C3B61305  23.017  19.390   6.939
 4848POPC   C4B61306  23.191  19.175   7.301
 4849POPC   NC361307  37.057  23.663   5.377
 4849POPC   PO461308  37.301  23.134   5.791
 4849POPC   GL161309  36.979  23.438   5.825
 4849POPC   GL261310  37.145  23.785   5.857
 4849POPC   C1A61311  36.740  23.610   6.158
 4849POPC   D2A61312  36.970  23.574   6.549
 4849POPC   C3A61313  36.834  23.315   6.889
 4849POPC   C4A61314  37.003  23.433   7.284
 4849POPC   C1B61315  37.120  24.010   6.225
 4849POPC   C2B61316  37.002  24.087   6.658
 4849POPC   C3B61317  37.035  23.855   7.016
 4849POPC   C4B61318  36.962  23.917   7.467
 4850POPC   NC361319   0.194  11.025   5.520
 4850POPC   PO461320   0.549  11.599   5.480
 4850POPC   GL161321   0.481  11.389   5.869
 4850POPC   GL261322   0.599  11.080   5.833
 4850POPC   C1A61323   0.539  11.340   6.329
 4850POPC   D2A61324   0.610  11.592   6.700
 4850POPC   C3A61325   0.345  11.421   7.047
 4850POPC   C4A61326   0.523  11.302   7.428
 4850POPC   C1B61327   0.889  11.034   6.121
 4850POPC   C2B61328   0.954  11.113   6.548
 4850POPC   C3B61329   0.794  11.182   6.956
 4850POPC   C4B61330   0.997  11.132   7.327
 4851POPC   NC361331  38.252  36.811   5.437
 4851POPC   PO461332  38.896  37.110   5.427
 4851POPC   GL161333  38.615  36.892   5.783
 4851POPC   GL261334  38.293  37.068   5.872
 4851POPC   C1A61335  38.433  36.713   6.214
 4851POPC   D2A61336  38.445  36.997   6.620
 4851POPC   C3A61337  38.597  36.929   7.068
 4851POPC   C4A61338  38.574  36.709   7.490
 4851POPC   C1B61339  38.196  37.293   6.262
 4851POPC   C2B61340  37.956  37.208   6.640
 4851POPC   C3B61341  38.089  37.066   7.036
 4851POPC   C4B61342  38.222  37.096   7.447
 4852POPC   NC361343  36.416  10.107   5.453
 4852POPC   PO461344  36.187  10.771   5.308
 4852POPC   GL161345  35.968  10.610   5.695
 4852POPC   GL261346  36.075  10.272   5.834
 4852POPC   C1A61347  36.097  10.682   6.134
 4852POPC   D2A61348  36.296  10.610   6.505
 4852POPC   C3A61349  36.109  10.765   6.865
 4852POPC   C4A61350  35.789  10.695   7.124
 4852POPC   C1B61351  36.344  10.130   6.202
 4852POPC   C2B61352  36.306  10.116   6.669
 4852POPC   C3B61353  36.133  10.282   7.086
 4852POPC   C4B61354  36.201  10.170   7.564
 4853POPC   NC361355  32.547  34.731   5.619
 4853POPC   PO461356  33.065  34.616   5.281
 4853POPC   GL161357  33.045  34.594   5.759
 4853POPC   GL261358  32.760  34.359   5.887
 4853POPC   C1A61359  33.262  34.594   6.193
 4853POPC   D2A61360  33.068  34.567   6.625
 4853POPC   C3A61361  33.251  34.767   7.007
 4853POPC   C4A61362  33.174  34.572   7.435
 4853POPC   C1B61363  32.768  34.710   6.220
 4853POPC   C2B61364  32.635  34.809   6.633
 4853POPC   C3B61365  32.748  34.745   7.086
 4853POPC   C4B61366  32.741  34.866   7.528
 4854POPC   NC361367  34.188  14.986   5.378
 4854POPC   PO461368  34.754  15.304   5.367
 4854POPC   GL161369  34.536  15.243   5.751
 4854POPC   GL261370  34.566  14.882   5.722
 4854POPC   C1A61371  34.491  15.382   6.195
 4854POPC   D2A61372  34.632  15.499   6.629
 4854POPC   C3A61373  34.431  15.315   6.986
 4854POPC   C4A61374  34.657  15.258   7.372
 4854POPC   C1B61375  34.420  14.863   6.135
 4854POPC   C2B61376  34.406  15.011   6.561
 4854POPC   C3B61377  34.613  14.820   6.942
 4854POPC   C4B61378  34.896  14.813   7.286
 4855POPC   NC361379  13.117  14.271   5.234
 4855POPC   PO461380  13.596  14.631   5.389
 4855POPC   GL161381  13.620  14.394   5.819
 4855POPC   GL261382  13.415  14.120   5.891
 4855POPC   C1A61383  13.832  14.277   6.195
 4855POPC   D2A61384  13.707  14.595   6.501
 4855POPC   C3A61385  13.577  14.446   6.887
 4855POPC   C4A61386  13.682  14.496   7.321
 4855POPC   C1B61387  13.307  14.334   6.271
 4855POPC   C2B61388  13.105  14.300   6.684
 4855POPC   C3B61389  13.239  14.132   7.104
 4855POPC   C4B61390  13.244  14.289   7.559
 4856POPC   NC361391   9.299  37.766   5.377
 4856POPC   PO461392   9.956  37.913   5.437
 4856POPC   GL161393   9.745  37.727   5.800
 4856POPC   GL261394   9.400  37.556   5.861
 4856POPC   C1A61395   9.763  37.651   6.244
 4856POPC   D2A61396   9.608  37.739   6.638
 4856POPC   C3A61397   9.886  37.799   7.000
 4856POPC   C4A61398   9.930  37.525   7.355
 4856POPC   C1B61399   9.364  37.340   6.292
 4856POPC   C2B61400   9.604  37.238   6.681
 4856POPC   C3B61401   9.530  37.433   7.067
 4856POPC   C4B61402   9.506  37.344   7.539
 4857POPC   NC361403   9.700  14.723   5.294
 4857POPC   PO461404  10.012  14.168   5.059
 4857POPC   GL161405   9.789  14.296   5.549
 4857POPC   GL261406  10.051  14.440   5.749
 4857POPC   C1A61407   9.633  14.542   6.012
 4857POPC   D2A61408   9.555  14.434   6.479
 4857POPC   C3A61409   9.696  14.597   6.884
 4857POPC   C4A61410   9.648  14.427   7.295
 4857POPC   C1B61411   9.878  14.110   6.072
 4857POPC   C2B61412   9.830  13.971   6.497
 4857POPC   C3B61413   9.935  14.139   6.907
 4857POPC   C4B61414  10.001  13.950   7.289
 4858POPC   NC361415  19.175  24.275   5.179
 4858POPC   PO461416  18.905  23.668   5.418
 4858POPC   GL161417  19.212  23.670   5.768
 4858POPC   GL261418  19.319  23.329   5.726
 4858POPC   C1A61419  19.224  23.828   6.231
 4858POPC   D2A61420  19.012  24.038   6.633
 4858POPC   C3A61421  18.893  23.839   7.009
 4858POPC   C4A61422  19.194  23.587   7.195
 4858POPC   C1B61423  18.974  23.345   6.075
 4858POPC   C2B61424  18.883  23.565   6.468
 4858POPC   C3B61425  18.921  23.363   6.812
 4858POPC   C4B61426  18.749  23.300   7.172
 4859POPC   NC361427   5.338  41.132   5.457
 4859POPC   PO461428   4.793  40.793   5.341
 4859POPC   GL161429   5.009  40.779   5.750
 4859POPC   GL261430   4.943  41.129   5.779
 4859POPC   C1A61431   5.080  40.557   6.187
 4859POPC   D2A61432   5.088  40.342   6.620
 4859POPC   C3A61433   5.069  40.611   7.005
 4859POPC   C4A61434   5.289  40.830   7.357
 4859POPC   C1B61435   5.137  41.073   6.176
 4859POPC   C2B61436   5.186  41.006   6.625
 4859POPC   C3B61437   5.012  41.128   7.034
 4859POPC   C4B61438   4.794  40.960   7.402
 4860POPC   NC361439  14.844  17.992   5.410
 4860POPC   PO461440  15.545  17.964   5.435
 4860POPC   GL161441  15.250  18.118   5.767
 4860POPC   GL261442  15.346  18.461   5.898
 4860POPC   C1A61443  15.011  18.128   6.171
 4860POPC   D2A61444  15.059  18.386   6.572
 4860POPC   C3A61445  15.008  18.171   6.974
 4860POPC   C4A61446  15.087  18.206   7.437
 4860POPC   C1B61447  15.482  18.264   6.313
 4860POPC   C2B61448  15.482  18.089   6.718
 4860POPC   C3B61449  15.490  18.060   7.156
 4860POPC   C4B61450  15.578  18.012   7.620
 4861POPC   NC361451  32.482  15.799   5.563
 4861POPC   PO461452  32.075  16.268   5.429
 4861POPC   GL161453  32.152  16.094   5.819
 4861POPC   GL261454  31.938  15.832   5.855
 4861POPC   C1A61455  32.396  16.242   6.202
 4861POPC   D2A61456  32.499  16.062   6.609
 4861POPC   C3A61457  32.337  16.254   6.997
 4861POPC   C4A61458  32.233  16.101   7.413
 4861POPC   C1B61459  32.037  15.875   6.269
 4861POPC   C2B61460  31.991  15.928   6.677
 4861POPC   C3B61461  32.196  15.770   7.021
 4861POPC   C4B61462  31.830  15.928   7.189
 4862POPC   NC361463  22.390  44.930   5.484
 4862POPC   PO461464  22.450  44.303   5.367
 4862POPC   GL161465  22.229  44.459   5.780
 4862POPC   GL261466  21.877  44.616   5.790
 4862POPC   C1A61467  22.148  44.750   6.184
 4862POPC   D2A61468  22.409  44.848   6.541
 4862POPC   C3A61469  22.300  44.937   6.973
 4862POPC   C4A61470  22.200  44.791   7.408
 4862POPC   C1B61471  21.909  44.312   6.178
 4862POPC   C2B61472  22.153  44.294   6.594
 4862POPC   C3B61473  22.052  44.429   7.031
 4862POPC   C4B61474  21.900  44.231   7.418
 4863POPC   NC361475  28.044  23.849   5.410
 4863POPC   PO461476  28.675  23.990   5.529
 4863POPC   GL161477  28.509  23.690   5.857
 4863POPC   GL261478  28.137  23.634   5.869
 4863POPC   C1A61479  28.493  23.652   6.329
 4863POPC   D2A61480  28.464  23.888   6.739
 4863POPC   C3A61481  28.425  23.685   7.160
 4863POPC   C4A61482  28.328  23.991   7.534
 4863POPC   C1B61483  28.070  23.379   6.241
 4863POPC   C2B61484  28.124  23.468   6.711
 4863POPC   C3B61485  27.952  23.483   7.133
 4863POPC   C4B61486  28.034  23.278   7.541
 4864POPC   NC361487  37.477   2.943   5.503
 4864POPC   PO461488  37.880   2.469   5.159
 4864POPC   GL161489  37.871   2.603   5.646
 4864POPC   GL261490  37.979   2.911   5.744
 4864POPC   C1A61491  37.657   2.679   6.119
 4864POPC   D2A61492  37.374   2.839   6.449
 4864POPC   C3A61493  37.488   2.886   6.899
 4864POPC   C4A61494  37.609   2.618   7.257
 4864POPC   C1B61495  38.140   2.776   6.165
 4864POPC   C2B61496  37.925   2.782   6.590
 4864POPC   C3B61497  38.001   2.893   7.028
 4864POPC   C4B61498  38.071   2.734   7.444
 4865POPC   NC361499  26.333  25.936   5.174
 4865POPC   PO461500  25.981  25.460   5.574
 4865POPC   GL161501  26.279  25.323   5.845
 4865POPC   GL261502  26.333  25.665   5.976
 4865POPC   C1A61503  26.325  25.141   6.251
 4865POPC   D2A61504  26.334  25.359   6.622
 4865POPC   C3A61505  26.229  25.186   6.987
 4865POPC   C4A61506  26.312  25.085   7.408
 4865POPC   C1B61507  25.978  25.571   6.228
 4865POPC   C2B61508  25.834  25.509   6.607
 4865POPC   C3B61509  25.741  25.332   6.978
 4865POPC   C4B61510  25.966  25.465   7.319
 4866POPC   NC361511  36.531  36.914   5.627
 4866POPC   PO461512  35.897  36.679   5.594
 4866POPC   GL161513  36.152  36.691   5.921
 4866POPC   GL261514  36.126  37.072   5.927
 4866POPC   C1A61515  36.028  36.745   6.345
 4866POPC   D2A61516  36.044  37.122   6.580
 4866POPC   C3A61517  36.085  37.034   7.002
 4866POPC   C4A61518  36.062  36.900   7.427
 4866POPC   C1B61519  36.453  37.112   6.243
 4866POPC   C2B61520  36.580  37.051   6.666
 4866POPC   C3B61521  36.513  37.310   7.033
 4866POPC   C4B61522  36.238  37.379   7.370
 4867POPC   NC361523   4.358  26.530   5.433
 4867POPC   PO461524   3.825  26.881   5.180
 4867POPC   GL161525   4.031  27.033   5.653
 4867POPC   GL261526   4.422  27.040   5.667
 4867POPC   C1A61527   4.096  26.911   6.119
 4867POPC   D2A61528   4.128  26.604   6.490
 4867POPC   C3A61529   4.070  26.839   6.867
 4867POPC   C4A61530   4.382  27.003   7.156
 4867POPC   C1B61531   4.610  27.058   6.108
 4867POPC   C2B61532   4.438  27.026   6.537
 4867POPC   C3B61533   4.560  26.675   6.772
 4867POPC   C4B61534   4.851  26.581   7.057
 4868POPC   NC361535  38.070  35.549   5.626
 4868POPC   PO461536  38.661  35.540   5.321
 4868POPC   GL161537  38.576  35.346   5.753
 4868POPC   GL261538  38.371  35.027   5.738
 4868POPC   C1A61539  38.740  35.266   6.212
 4868POPC   D2A61540  38.730  35.492   6.625
 4868POPC   C3A61541  38.810  35.303   7.029
 4868POPC   C4A61542  38.787  34.917   7.288
 4868POPC   C1B61543  38.211  35.165   6.138
 4868POPC   C2B61544  38.220  35.203   6.567
 4868POPC   C3B61545  38.264  35.502   6.875
 4868POPC   C4B61546  38.432  35.533   7.259
 4869POPC   NC361547  38.273  41.655   5.360
 4869POPC   PO461548  38.699  41.085   5.449
 4869POPC   GL161549  38.555  41.451   5.745
 4869POPC   GL261550  38.191  41.473   5.836
 4869POPC   C1A61551  38.495  41.700   6.159
 4869POPC   D2A61552  38.656  41.572   6.548
 4869POPC   C3A61553  38.719  41.820   6.865
 4869POPC   C4A61554  38.588  41.674   7.242
 4869POPC   C1B61555  38.008  41.250   6.203
 4869POPC   C2B61556  37.915  41.391   6.623
 4869POPC   C3B61557  38.193  41.445   6.972
 4869POPC   C4B61558  38.084  41.633   7.349
 4870POPC   NC361559  11.987  29.129   5.179
 4870POPC   PO461560  12.375  29.538   5.561
 4870POPC   GL161561  12.109  29.176   5.758
 4870POPC   GL261562  11.830  29.189   6.010
 4870POPC   C1A61563  12.273  29.021   6.184
 4870POPC   D2A61564  12.379  29.201   6.612
 4870POPC   C3A61565  12.078  29.089   6.967
 4870POPC   C4A61566  11.916  28.969   7.366
 4870POPC   C1B61567  11.847  29.245   6.482
 4870POPC   C2B61568  11.855  29.533   6.869
 4870POPC   C3B61569  11.688  29.411   7.309
 4870POPC   C4B61570  11.833  29.330   7.758
 4871POPC   NC361571   3.956   9.297   5.571
 4871POPC   PO461572   3.509   8.824   5.444
 4871POPC   GL161573   3.460   8.828   5.874
 4871POPC   GL261574   3.506   9.174   5.856
 4871POPC   C1A61575   3.312   8.687   6.285
 4871POPC   D2A61576   3.425   8.835   6.679
 4871POPC   C3A61577   3.382   8.656   7.072
 4871POPC   C4A61578   3.525   8.806   7.479
 4871POPC   C1B61579   3.509   9.166   6.295
 4871POPC   C2B61580   3.439   9.340   6.676
 4871POPC   C3B61581   3.549   9.198   7.079
 4871POPC   C4B61582   3.533   9.477   7.402
 4872POPC   NC361583   2.068  35.083   5.452
 4872POPC   PO461584   2.256  35.727   5.470
 4872POPC   GL161585   2.139  35.449   5.808
 4872POPC   GL261586   2.387  35.334   6.000
 4872POPC   C1A61587   1.872  35.172   6.076
 4872POPC   D2A61588   1.813  35.135   6.506
 4872POPC   C3A61589   2.017  35.496   6.733
 4872POPC   C4A61590   2.018  35.791   7.097
 4872POPC   C1B61591   2.367  34.992   6.309
 4872POPC   C2B61592   2.163  34.794   6.660
 4872POPC   C3B61593   1.964  35.045   6.993
 4872POPC   C4B61594   2.223  35.341   7.211
 4873POPC   NC361595  39.298  21.507   4.939
 4873POPC   PO461596  39.036  21.148   5.489
 4873POPC   GL161597  39.213  21.350   5.819
 4873POPC   GL261598  39.196  21.053   5.977
 4873POPC   C1A61599  39.338  21.568   6.192
 4873POPC   D2A61600  39.477  21.552   6.630
 4873POPC   C3A61601  39.141  21.454   6.888
 4873POPC   C4A61602  38.880  21.558   7.200
 4873POPC   C1B61603  39.435  21.081   6.312
 4873POPC   C2B61604  39.393  21.019   6.690
 4873POPC   C3B61605  39.534  21.172   7.037
 4873POPC   C4B61606  39.294  21.286   7.377
 4874POPC   NC361607  20.912  35.607   5.171
 4874POPC   PO461608  20.502  35.103   5.369
 4874POPC   GL161609  20.628  35.195   5.759
 4874POPC   GL261610  20.938  35.404   5.693
 4874POPC   C1A61611  20.557  35.435   6.146
 4874POPC   D2A61612  20.377  35.594   6.540
 4874POPC   C3A61613  20.431  35.338   6.905
 4874POPC   C4A61614  20.364  35.360   7.337
 4874POPC   C1B61615  21.034  35.130   6.068
 4874POPC   C2B61616  20.838  35.156   6.480
 4874POPC   C3B61617  20.956  35.293   6.888
 4874POPC   C4B61618  20.870  35.388   7.321
 4875POPC   NC361619  43.779  41.708   5.430
 4875POPC   PO461620  44.156  41.192   5.333
 4875POPC   GL161621  44.095  41.390   5.750
 4875POPC   GL261622  44.414  41.578   5.831
 4875POPC   C1A61623  43.804  41.604   6.076
 4875POPC   D2A61624  43.631  41.520   6.485
 4875POPC   C3A61625  43.754  41.547   6.892
 4875POPC   C4A61626  43.683  41.776   7.226
 4875POPC   C1B61627  44.292  41.511   6.241
 4875POPC   C2B61628  44.447  41.509   6.634
 4875POPC   C3B61629  44.217  41.378   6.943
 4875POPC   C4B61630  44.102  41.513   7.315
 4876POPC   NC361631  42.950  16.436   5.395
 4876POPC   PO461632  43.236  17.009   5.487
 4876POPC   GL161633  42.991  16.819   5.836
 4876POPC   GL261634  42.807  16.475   5.904
 4876POPC   C1A61635  42.975  16.901   6.253
 4876POPC   D2A61636  43.267  17.007   6.525
 4876POPC   C3A61637  43.096  17.015   6.898
 4876POPC   C4A61638  42.856  16.837   7.210
 4876POPC   C1B61639  43.059  16.415   6.262
 4876POPC   C2B61640  43.063  16.529   6.699
 4876POPC   C3B61641  42.930  16.349   7.079
 4876POPC   C4B61642  43.020  16.402   7.548
 4877POPC   NC361643  37.466   7.631   5.088
 4877POPC   PO461644  37.831   7.149   5.331
 4877POPC   GL161645  37.665   7.316   5.748
 4877POPC   GL261646  37.899   7.481   5.998
 4877POPC   C1A61647  37.391   7.282   6.124
 4877POPC   D2A61648  37.467   7.115   6.527
 4877POPC   C3A61649  37.692   7.377   6.847
 4877POPC   C4A61650  37.709   7.477   7.291
 4877POPC   C1B61651  37.696   7.648   6.383
 4877POPC   C2B61652  37.862   7.874   6.762
 4877POPC   C3B61653  38.102   7.788   7.154
 4877POPC   C4B61654  37.988   7.732   7.621
 4878POPC   NC361655   8.418  29.946   5.454
 4878POPC   PO461656   7.783  29.594   5.511
 4878POPC   GL161657   8.071  29.823   5.814
 4878POPC   GL261658   8.446  29.707   5.898
 4878POPC   C1A61659   8.040  30.121   6.137
 4878POPC   D2A61660   8.181  30.172   6.544
 4878POPC   C3A61661   7.940  30.069   6.883
 4878POPC   C4A61662   8.120  29.913   7.209
 4878POPC   C1B61663   8.327  29.734   6.320
 4878POPC   C2B61664   8.236  29.677   6.736
 4878POPC   C3B61665   8.401  29.498   7.096
 4878POPC   C4B61666   8.760  29.514   7.347
 4879POPC   NC361667  44.172  23.391   5.558
 4879POPC   PO461668  44.741  23.752   5.354
 4879POPC   GL161669  44.701  23.754   5.786
 4879POPC   GL261670  44.355  23.827   5.869
 4879POPC   C1A61671  44.882  23.678   6.205
 4879POPC   D2A61672  44.667  23.649   6.598
 4879POPC   C3A61673  44.828  23.814   6.958
 4879POPC   C4A61674  44.686  23.711   7.350
 4879POPC   C1B61675  44.296  23.564   6.249
 4879POPC   C2B61676  44.322  23.278   6.633
 4879POPC   C3B61677  44.332  23.442   7.096
 4879POPC   C4B61678  44.436  23.342   7.592
 4880POPC   NC361679  12.429  27.694   5.437
 4880POPC   PO461680  13.045  27.461   5.199
 4880POPC   GL161681  12.995  27.655   5.645
 4880POPC   GL261682  12.704  27.845   5.850
 4880POPC   C1A61683  12.950  27.456   6.055
 4880POPC   D2A61684  12.926  27.635   6.474
 4880POPC   C3A61685  12.931  27.347   6.837
 4880POPC   C4A61686  13.140  27.378   7.234
 4880POPC   C1B61687  12.489  27.845   6.295
 4880POPC   C2B61688  12.460  27.635   6.738
 4880POPC   C3B61689  12.576  27.594   7.188
 4880POPC   C4B61690  12.470  27.766   7.616
 4881POPC   NC361691  42.919  37.916   5.312
 4881POPC   PO461692  43.074  37.272   5.382
 4881POPC   GL161693  43.128  37.642   5.726
 4881POPC   GL261694  42.858  37.797   5.888
 4881POPC   C1A61695  43.279  37.810   6.180
 4881POPC   D2A61696  42.933  37.976   6.522
 4881POPC   C3A61697  42.903  37.832   6.988
 4881POPC   C4A61698  43.273  37.838   7.263
 4881POPC   C1B61699  42.896  37.514   6.263
 4881POPC   C2B61700  43.132  37.516   6.682
 4881POPC   C3B61701  43.067  37.371   7.163
 4881POPC   C4B61702  42.902  37.267   7.604
 4882POPC   NC361703  33.145  44.858   5.354
 4882POPC   PO461704  33.106  44.299   5.457
 4882POPC   GL161705  33.218  44.620   5.827
 4882POPC   GL261706  33.090  44.986   5.833
 4882POPC   C1A61707  32.952  44.655   6.248
 4882POPC   D2A61708  32.778  44.547   6.686
 4882POPC   C3A61709  33.002  44.404   7.071
 4882POPC   C4A61710  33.102  44.267   7.517
 4882POPC   C1B61711  33.229   0.076   6.237
 4882POPC   C2B61712  33.202  44.881   6.644
 4882POPC   C3B61713  32.978  44.911   6.997
 4882POPC   C4B61714  33.206  44.997   7.326
 4883POPC   NC361715   0.086  43.073   5.506
 4883POPC   PO461716  44.448  43.323   5.590
 4883POPC   GL161717  44.701  43.053   5.856
 4883POPC   GL261718  44.450  42.786   5.898
 4883POPC   C1A61719  44.924  43.220   6.251
 4883POPC   D2A61720  44.685  43.342   6.624
 4883POPC   C3A61721  44.731  43.341   7.061
 4883POPC   C4A61722  44.413  43.307   7.394
 4883POPC   C1B61723  44.505  42.942   6.318
 4883POPC   C2B61724  44.313  43.000   6.709
 4883POPC   C3B61725  44.364  42.875   7.121
 4883POPC   C4B61726  44.039  42.713   7.393
 4884POPC   NC361727  31.185   8.969   5.601
 4884POPC   PO461728  31.706   8.600   5.334
 4884POPC   GL161729  31.691   8.847   5.727
 4884POPC   GL261730  31.583   9.214   5.789
 4884POPC   C1A61731  31.566   8.851   6.164
 4884POPC   D2A61732  31.698   9.064   6.514
 4884POPC   C3A61733  31.530   9.130   6.920
 4884POPC   C4A61734  31.333   8.876   7.240
 4884POPC   C1B61735  31.282   9.345   6.192
 4884POPC   C2B61736  31.120   9.350   6.683
 4884POPC   C3B61737  31.151   9.386   7.173
 4884POPC   C4B61738  31.369   9.229   7.604
 4885POPC   NC361739  38.076  14.589   5.402
 4885POPC   PO461740  37.430  14.558   5.552
 4885POPC   GL161741  37.760  14.458   5.799
 4885POPC   GL261742  37.921  14.778   5.859
 4885POPC   C1A61743  37.649  14.462   6.192
 4885POPC   D2A61744  37.477  14.227   6.475
 4885POPC   C3A61745  37.750  14.306   6.785
 4885POPC   C4A61746  37.520  14.281   7.150
 4885POPC   C1B61747  38.018  14.807   6.302
 4885POPC   C2B61748  38.199  14.573   6.631
 4885POPC   C3B61749  38.327  14.630   7.042
 4885POPC   C4B61750  38.006  14.442   7.212
 4886POPC   NC361751  31.719  12.808   5.582
 4886POPC   PO461752  31.106  12.717   5.361
 4886POPC   GL161753  31.231  12.899   5.769
 4886POPC   GL261754  31.353  12.564   5.841
 4886POPC   C1A61755  31.481  12.922   6.203
 4886POPC   D2A61756  31.658  13.146   6.579
 4886POPC   C3A61757  31.606  12.879   6.951
 4886POPC   C4A61758  31.422  12.735   7.355
 4886POPC   C1B61759  30.998  12.599   6.119
 4886POPC   C2B61760  30.952  12.455   6.539
 4886POPC   C3B61761  31.202  12.506   6.907
 4886POPC   C4B61762  31.158  12.292   7.275
 4887POPC   NC361763  29.609   2.460   5.447
 4887POPC   PO461764  29.774   3.046   5.139
 4887POPC   GL161765  29.770   2.929   5.658
 4887POPC   GL261766  30.021   2.639   5.772
 4887POPC   C1A61767  29.667   2.739   6.118
 4887POPC   D2A61768  29.706   2.466   6.522
 4887POPC   C3A61769  29.674   2.594   6.987
 4887POPC   C4A61770  29.741   2.864   7.381
 4887POPC   C1B61771  30.175   2.665   6.234
 4887POPC   C2B61772  30.190   2.598   6.672
 4887POPC   C3B61773  30.195   2.541   7.089
 4887POPC   C4B61774  30.112   2.541   7.530
 4888POPC   NC361775  13.894  30.537   5.300
 4888POPC   PO461776  14.482  30.781   5.370
 4888POPC   GL161777  14.372  30.842   5.785
 4888POPC   GL261778  14.668  30.939   5.888
 4888POPC   C1A61779  14.386  30.588   6.166
 4888POPC   D2A61780  14.389  30.350   6.521
 4888POPC   C3A61781  14.235  30.516   6.879
 4888POPC   C4A61782  14.458  30.612   7.263
 4888POPC   C1B61783  14.737  30.924   6.330
 4888POPC   C2B61784  14.637  30.798   6.750
 4888POPC   C3B61785  14.844  30.902   7.139
 4888POPC   C4B61786  14.761  30.770   7.620
 4889POPC   NC361787  26.252  32.778   5.405
 4889POPC   PO461788  25.789  33.314   5.430
 4889POPC   GL161789  25.981  33.062   5.737
 4889POPC   GL261790  26.152  33.277   5.965
 4889POPC   C1A61791  26.157  32.789   6.081
 4889POPC   D2A61792  26.188  32.718   6.534
 4889POPC   C3A61793  26.064  33.067   6.804
 4889POPC   C4A61794  26.238  33.227   7.208
 4889POPC   C1B61795  25.718  33.243   6.129
 4889POPC   C2B61796  25.596  33.332   6.532
 4889POPC   C3B61797  25.461  33.158   6.884
 4889POPC   C4B61798  25.733  33.003   7.183
 4890POPC   NC361799  38.019  11.996   5.389
 4890POPC   PO461800  37.283  12.059   5.316
 4890POPC   GL161801  37.465  12.171   5.742
 4890POPC   GL261802  37.817  12.268   5.810
 4890POPC   C1A61803  37.509  12.082   6.186
 4890POPC   D2A61804  37.499  11.861   6.563
 4890POPC   C3A61805  37.409  12.026   6.972
 4890POPC   C4A61806  37.719  11.844   7.278
 4890POPC   C1B61807  38.016  11.965   6.077
 4890POPC   C2B61808  38.122  11.888   6.486
 4890POPC   C3B61809  37.897  12.051   6.847
 4890POPC   C4B61810  38.048  12.216   7.224
 4891POPC   NC361811  30.217  38.743   5.551
 4891POPC   PO461812  29.912  38.177   5.641
 4891POPC   GL161813  29.948  38.525   5.926
 4891POPC   GL261814  29.728  38.794   5.882
 4891POPC   C1A61815  29.871  38.643   6.363
 4891POPC   D2A61816  29.987  38.442   6.751
 4891POPC   C3A61817  30.152  38.676   7.142
 4891POPC   C4A61818  30.210  38.894   7.533
 4891POPC   C1B61819  29.469  38.447   6.093
 4891POPC   C2B61820  29.318  38.212   6.466
 4891POPC   C3B61821  29.446  38.270   6.876
 4891POPC   C4B61822  29.739  38.382   7.185
 4892POPC   NC361823  16.490  31.134   5.206
 4892POPC   PO461824  16.940  31.608   5.180
 4892POPC   GL161825  16.841  31.421   5.600
 4892POPC   GL261826  16.544  31.592   5.793
 4892POPC   C1A61827  16.947  31.360   6.050
 4892POPC   D2A61828  16.687  31.394   6.433
 4892POPC   C3A61829  16.853  31.196   6.809
 4892POPC   C4A61830  16.780  31.293   7.238
 4892POPC   C1B61831  16.268  31.628   6.184
 4892POPC   C2B61832  16.286  31.824   6.599
 4892POPC   C3B61833  16.551  31.650   6.907
 4892POPC   C4B61834  16.677  31.800   7.289
 4893POPC   NC361835  30.305  27.420   5.337
 4893POPC   PO461836  30.956  27.673   5.349
 4893POPC   GL161837  30.816  27.729   5.786
 4893POPC   GL261838  31.043  27.469   5.907
 4893POPC   C1A61839  30.640  27.784   6.226
 4893POPC   D2A61840  30.478  27.971   6.627
 4893POPC   C3A61841  30.582  27.689   6.989
 4893POPC   C4A61842  30.340  27.299   7.059
 4893POPC   C1B61843  30.953  27.385   6.356
 4893POPC   C2B61844  30.968  27.348   6.815
 4893POPC   C3B61845  31.012  27.406   7.245
 4893POPC   C4B61846  31.081  27.508   7.700
 4894POPC   NC361847  28.439  11.339   5.381
 4894POPC   PO461848  27.802  11.269   5.381
 4894POPC   GL161849  28.106  11.252   5.778
 4894POPC   GL261850  28.512  11.152   5.835
 4894POPC   C1A61851  28.300  11.506   6.142
 4894POPC   D2A61852  28.513  11.422   6.576
 4894POPC   C3A61853  28.409  11.553   7.027
 4894POPC   C4A61854  28.531  11.443   7.486
 4894POPC   C1B61855  28.343  11.018   6.243
 4894POPC   C2B61856  28.259  10.868   6.642
 4894POPC   C3B61857  28.347  11.042   7.046
 4894POPC   C4B61858  28.406  10.956   7.474
 4895POPC   NC361859  10.018  16.765   5.012
 4895POPC   PO461860   9.454  16.833   5.339
 4895POPC   GL161861   9.821  16.683   5.620
 4895POPC   GL261862   9.749  16.367   5.733
 4895POPC   C1A61863   9.938  16.689   6.099
 4895POPC   D2A61864   9.860  16.976   6.468
 4895POPC   C3A61865   9.879  16.787   6.891
 4895POPC   C4A61866   9.823  16.490   7.236
 4895POPC   C1B61867   9.485  16.390   6.096
 4895POPC   C2B61868   9.506  16.578   6.487
 4895POPC   C3B61869   9.483  16.418   6.866
 4895POPC   C4B61870   9.289  16.497   7.239
 4896POPC   NC361871  22.702  37.320   5.497
 4896POPC   PO461872  21.996  37.650   5.423
 4896POPC   GL161873  22.128  37.782   5.803
 4896POPC   GL261874  22.441  37.687   5.738
 4896POPC   C1A61875  22.002  37.701   6.245
 4896POPC   D2A61876  22.164  37.533   6.645
 4896POPC   C3A61877  21.916  37.719   6.917
 4896POPC   C4A61878  21.900  37.538   7.296
 4896POPC   C1B61879  22.449  37.511   6.113
 4896POPC   C2B61880  22.488  37.843   6.414
 4896POPC   C3B61881  22.553  37.822   6.836
 4896POPC   C4B61882  22.346  37.744   7.205
 4897POPC   NC361883  36.585  28.430   5.284
 4897POPC   PO461884  37.224  28.661   5.261
 4897POPC   GL161885  36.933  28.450   5.637
 4897POPC   GL261886  37.081  28.159   5.771
 4897POPC   C1A61887  36.788  28.447   6.108
 4897POPC   D2A61888  36.477  28.487   6.475
 4897POPC   C3A61889  36.592  28.552   6.924
 4897POPC   C4A61890  36.781  28.229   7.178
 4897POPC   C1B61891  37.337  28.137   6.166
 4897POPC   C2B61892  37.291  28.233   6.592
 4897POPC   C3B61893  37.406  28.511   6.899
 4897POPC   C4B61894  37.113  28.611   7.198
 4898POPC   NC361895  35.498  29.672   5.472
 4898POPC   PO461896  35.310  28.998   5.361
 4898POPC   GL161897  35.368  29.197   5.740
 4898POPC   GL261898  35.106  28.976   5.859
 4898POPC   C1A61899  35.389  29.270   6.193
 4898POPC   D2A61900  35.618  29.103   6.566
 4898POPC   C3A61901  35.519  29.342   6.950
 4898POPC   C4A61902  35.425  29.347   7.381
 4898POPC   C1B61903  34.965  28.973   6.289
 4898POPC   C2B61904  35.100  29.203   6.652
 4898POPC   C3B61905  35.076  29.097   7.084
 4898POPC   C4B61906  34.885  28.769   7.281
 4899POPC   NC361907  34.904   0.101   5.434
 4899POPC   PO461908  35.148   0.753   5.364
 4899POPC   GL161909  35.085   0.429   5.777
 4899POPC   GL261910  35.351   0.512   6.049
 4899POPC   C1A61911  35.058   0.152   6.174
 4899POPC   D2A61912  35.057   0.248   6.626
 4899POPC   C3A61913  35.357   0.225   6.973
 4899POPC   C4A61914  35.262   0.592   7.175
 4899POPC   C1B61915  35.672   0.650   6.289
 4899POPC   C2B61916  35.549   0.676   6.737
 4899POPC   C3B61917  35.766   0.629   7.115
 4899POPC   C4B61918  35.940   0.853   7.447
 4900POPC   NC361919  43.477  44.794   5.407
 4900POPC   PO461920  42.840  44.781   5.217
 4900POPC   GL161921  42.913  44.586   5.665
 4900POPC   GL261922  43.246  44.648   5.841
 4900POPC   C1A61923  42.783  44.688   6.112
 4900POPC   D2A61924  42.782   0.023   6.456
 4900POPC   C3A61925  42.863  44.909   6.897
 4900POPC   C4A61926  42.968  44.608   7.225
 4900POPC   C1B61927  43.266  44.673   6.297
 4900POPC   C2B61928  43.004  44.482   6.607
 4900POPC   C3B61929  43.109  44.210   6.944
 4900POPC   C4B61930  43.388  44.332   7.290
 4901POPC   NC361931  16.068  10.637   5.372
 4901POPC   PO461932  15.989   9.999   5.515
 4901POPC   GL161933  15.869  10.350   5.751
 4901POPC   GL261934  16.164  10.548   5.854
 4901POPC   C1A61935  15.815  10.430   6.183
 4901POPC   D2A61936  15.980  10.593   6.537
 4901POPC   C3A61937  15.784  10.450   6.883
 4901POPC   C4A61938  15.867  10.712   7.219
 4901POPC   C1B61939  16.303  10.296   6.201
 4901POPC   C2B61940  16.425  10.349   6.627
 4901POPC   C3B61941  16.286  10.461   7.015
 4901POPC   C4B61942  16.026  10.212   7.271
 4902POPC   NC361943  12.994  20.464   5.182
 4902POPC   PO461944  12.621  19.914   5.452
 4902POPC   GL161945  12.623  19.846   5.877
 4902POPC   GL261946  12.388  20.094   5.972
 4902POPC   C1A61947  12.797  19.862   6.309
 4902POPC   D2A61948  13.026  19.744   6.707
 4902POPC   C3A61949  12.797  19.492   7.016
 4902POPC   C4A61950  12.661  19.527   7.431
 4902POPC   C1B61951  12.288  20.355   6.328
 4902POPC   C2B61952  12.333  20.147   6.739
 4902POPC   C3B61953  12.592  19.941   7.057
 4902POPC   C4B61954  13.004  19.972   7.203
 4903POPC   NC361955  20.261  35.977   5.622
 4903POPC   PO461956  20.772  36.052   5.204
 4903POPC   GL161957  20.787  35.970   5.664
 4903POPC   GL261958  20.609  36.241   5.889
 4903POPC   C1A61959  20.917  35.817   6.084
 4903POPC   D2A61960  20.934  35.671   6.529
 4903POPC   C3A61961  20.686  35.858   6.884
 4903POPC   C4A61962  20.728  36.265   7.134
 4903POPC   C1B61963  20.476  36.040   6.286
 4903POPC   C2B61964  20.232  36.109   6.673
 4903POPC   C3B61965  20.252  36.085   7.111
 4903POPC   C4B61966  20.296  36.223   7.556
 4904POPC   NC361967  32.837  28.945   5.317
 4904POPC   PO461968  33.484  29.052   5.144
 4904POPC   GL161969  33.338  29.081   5.632
 4904POPC   GL261970  32.977  29.147   5.775
 4904POPC   C1A61971  33.351  29.085   6.118
 4904POPC   D2A61972  33.040  29.125   6.505
 4904POPC   C3A61973  33.192  29.090   6.957
 4904POPC   C4A61974  33.375  28.838   7.320
 4904POPC   C1B61975  32.778  29.415   6.142
 4904POPC   C2B61976  32.683  29.500   6.612
 4904POPC   C3B61977  32.603  29.205   6.979
 4904POPC   C4B61978  32.806  28.961   7.290
 4905POPC   NC361979  37.540  35.507   5.156
 4905POPC   PO461980  38.021  35.157   5.381
 4905POPC   GL161981  37.791  35.149   5.771
 4905POPC   GL261982  37.490  35.317   5.642
 4905POPC   C1A61983  37.729  35.385   6.198
 4905POPC   D2A61984  37.583  35.663   6.565
 4905POPC   C3A61985  37.746  35.609   6.998
 4905POPC   C4A61986  37.966  35.276   7.222
 4905POPC   C1B61987  37.286  35.166   6.016
 4905POPC   C2B61988  37.266  35.265   6.434
 4905POPC   C3B61989  37.263  35.340   6.847
 4905POPC   C4B61990  37.069  35.062   7.154
 4906POPC   NC361991  43.752  18.697   5.267
 4906POPC   PO461992  43.968  19.273   5.343
 4906POPC   GL161993  43.952  19.203   5.750
 4906POPC   GL261994  43.790  19.486   5.813
 4906POPC   C1A61995  43.842  19.068   6.184
 4906POPC   D2A61996  43.906  18.735   6.514
 4906POPC   C3A61997  43.893  18.933   6.906
 4906POPC   C4A61998  44.205  19.019   7.206
 4906POPC   C1B61999  43.747  19.606   6.237
 4906POPC   C2B62000  43.783  19.432   6.628
 4906POPC   C3B62001  44.076  19.446   6.944
 4906POPC   C4B62002  43.800  19.331   7.225
 4907POPC   NC362003  34.758   6.957   5.166
 4907POPC   PO462004  35.310   6.638   5.494
 4907POPC   GL162005  35.490   6.633   5.845
 4907POPC   GL262006  35.703   6.334   5.855
 4907POPC   C1A62007  35.323   6.832   6.213
 4907POPC   D2A62008  35.148   6.839   6.605
 4907POPC   C3A62009  35.213   6.525   6.909
 4907POPC   C4A62010  35.329   6.781   7.202
 4907POPC   C1B62011  35.432   6.294   6.215
 4907POPC   C2B62012  35.587   6.140   6.565
 4907POPC   C3B62013  35.791   6.227   6.910
 4907POPC   C4B62014  35.607   6.293   7.300
 4908POPC   NC362015  41.997   4.500   5.398
 4908POPC   PO462016  41.467   4.112   5.351
 4908POPC   GL162017  41.463   4.320   5.742
 4908POPC   GL262018  41.690   4.597   5.831
 4908POPC   C1A62019  41.311   4.419   6.169
 4908POPC   D2A62020  41.406   4.710   6.526
 4908POPC   C3A62021  41.279   4.522   6.907
 4908POPC   C4A62022  41.255   4.368   7.327
 4908POPC   C1B62023  41.812   4.199   6.085
 4908POPC   C2B62024  41.993   3.989   6.442
 4908POPC   C3B62025  41.864   3.935   6.871
 4908POPC   C4B62026  41.741   4.354   7.028
 4909POPC   NC362027  26.379  41.845   5.620
 4909POPC   PO462028  26.193  42.425   5.274
 4909POPC   GL162029  26.050  42.318   5.747
 4909POPC   GL262030  25.753  42.093   5.827
 4909POPC   C1A62031  26.066  42.349   6.208
 4909POPC   D2A62032  26.267  42.453   6.591
 4909POPC   C3A62033  26.140  42.318   6.988
 4909POPC   C4A62034  26.299  42.356   7.407
 4909POPC   C1B62035  25.582  42.189   6.214
 4909POPC   C2B62036  25.761  42.204   6.609
 4909POPC   C3B62037  25.621  42.158   7.013
 4909POPC   C4B62038  25.784  42.402   7.327
 4910POPC   NC362039   3.766  40.167   5.513
 4910POPC   PO462040   3.286  39.689   5.233
 4910POPC   GL162041   3.125  40.014   5.681
 4910POPC   GL262042   3.395  40.173   5.842
 4910POPC   C1A62043   3.106  39.983   6.211
 4910POPC   D2A62044   3.433  39.980   6.588
 4910POPC   C3A62045   3.224  40.082   7.012
 4910POPC   C4A62046   3.050  40.102   7.437
 4910POPC   C1B62047   3.762  40.103   6.175
 4910POPC   C2B62048   3.859  40.357   6.550
 4910POPC   C3B62049   3.640  40.382   6.943
 4910POPC   C4B62050   3.628  40.196   7.351
 4911POPC   NC362051  44.267  13.694   5.425
 4911POPC   PO462052  44.422  13.106   5.531
 4911POPC   GL162053  44.447  13.398   5.868
 4911POPC   GL262054  44.597  13.729   5.822
 4911POPC   C1A62055  44.584  13.463   6.277
 4911POPC   D2A62056  44.747  13.661   6.621
 4911POPC   C3A62057  44.583  13.476   6.972
 4911POPC   C4A62058  44.569  13.648   7.360
 4911POPC   C1B62059  44.740  13.966   6.187
 4911POPC   C2B62060  44.563  14.139   6.570
 4911POPC   C3B62061  44.526  14.000   6.970
 4911POPC   C4B62062  44.684  14.133   7.336
 4912POPC   NC362063  43.301  27.082   5.407
 4912POPC   PO462064  43.026  26.456   5.545
 4912POPC   GL162065  43.051  26.781   5.829
 4912POPC   GL262066  43.423  26.777   5.792
 4912POPC   C1A62067  42.997  26.886   6.282
 4912POPC   D2A62068  42.762  26.789   6.678
 4912POPC   C3A62069  42.894  26.942   7.084
 4912POPC   C4A62070  42.916  26.751   7.499
 4912POPC   C1B62071  43.401  26.561   6.194
 4912POPC   C2B62072  43.336  26.709   6.628
 4912POPC   C3B62073  43.299  26.589   7.061
 4912POPC   C4B62074  43.373  26.935   7.347
 4913POPC   NC362075  34.102  10.335   5.363
 4913POPC   PO462076  33.504  10.754   5.323
 4913POPC   GL162077  33.733  10.706   5.727
 4913POPC   GL262078  33.668  10.376   5.850
 4913POPC   C1A62079  33.802  10.765   6.195
 4913POPC   D2A62080  33.677  10.629   6.604
 4913POPC   C3A62081  33.897  10.730   6.967
 4913POPC   C4A62082  33.944  10.632   7.356
 4913POPC   C1B62083  33.681  10.243   6.279
 4913POPC   C2B62084  33.948  10.213   6.666
 4913POPC   C3B62085  33.876  10.171   7.090
 4913POPC   C4B62086  33.455  10.102   7.194
 4914POPC   NC362087  10.753  40.021   5.356
 4914POPC   PO462088  10.181  39.649   5.382
 4914POPC   GL162089  10.237  39.919   5.762
 4914POPC   GL262090  10.232  40.303   5.708
 4914POPC   C1A62091  10.359  39.803   6.174
 4914POPC   D2A62092  10.201  39.753   6.573
 4914POPC   C3A62093  10.587  39.768   6.804
 4914POPC   C4A62094  10.660  39.876   7.233
 4914POPC   C1B62095  10.511  40.266   6.082
 4914POPC   C2B62096  10.569  40.273   6.534
 4914POPC   C3B62097  10.676  40.328   6.977
 4914POPC   C4B62098  10.508  40.409   7.375
 4915POPC   NC362099  30.366  16.694   5.451
 4915POPC   PO462100  30.939  17.058   5.413
 4915POPC   GL162101  30.797  17.053   5.838
 4915POPC   GL262102  30.457  16.896   5.918
 4915POPC   C1A62103  30.827  16.977   6.298
 4915POPC   D2A62104  30.879  16.780   6.698
 4915POPC   C3A62105  30.837  17.036   7.063
 4915POPC   C4A62106  30.904  16.891   7.500
 4915POPC   C1B62107  30.220  16.642   6.278
 4915POPC   C2B62108  30.266  16.429   6.711
 4915POPC   C3B62109  30.526  16.600   7.055
 4915POPC   C4B62110  30.414  16.962   7.349
 4916POPC   NC362111  40.363  30.387   5.315
 4916POPC   PO462112  39.695  30.362   5.357
 4916POPC   GL162113  39.935  30.621   5.716
 4916POPC   GL262114  40.320  30.689   5.732
 4916POPC   C1A62115  40.052  30.815   6.135
 4916POPC   D2A62116  39.963  30.560   6.502
 4916POPC   C3A62117  39.919  30.807   6.846
 4916POPC   C4A62118  40.182  30.786   7.157
 4916POPC   C1B62119  40.312  30.379   6.092
 4916POPC   C2B62120  40.431  30.345   6.546
 4916POPC   C3B62121  40.486  30.395   7.008
 4916POPC   C4B62122  40.329  30.372   7.452
 4917POPC   NC362123  11.101  21.423   5.497
 4917POPC   PO462124  10.473  21.607   5.322
 4917POPC   GL162125  10.520  21.469   5.727
 4917POPC   GL262126  10.771  21.683   5.765
 4917POPC   C1A62127  10.412  21.306   6.139
 4917POPC   D2A62128  10.403  21.039   6.482
 4917POPC   C3A62129  10.371  21.161   6.883
 4917POPC   C4A62130  10.563  21.205   7.239
 4917POPC   C1B62131  10.697  21.715   6.184
 4917POPC   C2B62132  10.579  21.541   6.588
 4917POPC   C3B62133  10.527  21.707   7.010
 4917POPC   C4B62134  10.290  21.629   7.364
 4918POPC   NC362135  23.941   4.733   5.509
 4918POPC   PO462136  23.925   5.376   5.449
 4918POPC   GL162137  23.729   5.138   5.792
 4918POPC   GL262138  23.524   4.817   5.779
 4918POPC   C1A62139  23.640   5.283   6.220
 4918POPC   D2A62140  23.880   5.456   6.568
 4918POPC   C3A62141  23.755   5.258   6.940
 4918POPC   C4A62142  23.474   5.265   7.276
 4918POPC   C1B62143  23.802   4.799   6.164
 4918POPC   C2B62144  23.678   4.900   6.582
 4918POPC   C3B62145  23.441   4.850   6.971
 4918POPC   C4B62146  23.671   4.752   7.328
 4919POPC   NC362147  39.565  15.328   5.438
 4919POPC   PO462148  38.871  15.397   5.377
 4919POPC   GL162149  39.114  15.213   5.713
 4919POPC   GL262150  39.452  15.089   5.851
 4919POPC   C1A62151  39.074  15.270   6.143
 4919POPC   D2A62152  39.054  15.035   6.508
 4919POPC   C3A62153  39.161  15.211   6.904
 4919POPC   C4A62154  39.006  15.292   7.312
 4919POPC   C1B62155  39.473  14.894   6.228
 4919POPC   C2B62156  39.514  14.863   6.652
 4919POPC   C3B62157  39.580  14.891   7.062
 4919POPC   C4B62158  39.361  14.949   7.411
 4920POPC   NC362159  42.497  19.684   5.265
 4920POPC   PO462160  42.359  18.992   5.295
 4920POPC   GL162161  42.321  19.089   5.732
 4920POPC   GL262162  42.532  19.380   5.718
 4920POPC   C1A62163  42.127  18.929   6.137
 4920POPC   D2A62164  42.136  18.613   6.478
 4920POPC   C3A62165  42.229  18.789   6.857
 4920POPC   C4A62166  42.012  19.060   7.100
 4920POPC   C1B62167  42.292  19.423   6.136
 4920POPC   C2B62168  42.184  19.394   6.586
 4920POPC   C3B62169  42.415  19.343   6.979
 4920POPC   C4B62170  42.477  18.972   7.268
 4921POPC   NC362171   9.546   9.028   5.458
 4921POPC   PO462172  10.175   8.994   5.278
 4921POPC   GL162173   9.982   9.005   5.786
 4921POPC   GL262174   9.679   8.796   5.883
 4921POPC   C1A62175  10.209   9.120   6.229
 4921POPC   D2A62176  10.260   9.009   6.694
 4921POPC   C3A62177  10.001   9.095   7.043
 4921POPC   C4A62178   9.823   8.822   7.316
 4921POPC   C1B62179   9.717   9.052   6.248
 4921POPC   C2B62180   9.732   8.848   6.670
 4921POPC   C3B62181   9.435   8.699   7.006
 4921POPC   C4B62182   9.319   8.832   7.437
 4922POPC   NC362183  32.382  14.009   5.431
 4922POPC   PO462184  32.562  14.628   5.274
 4922POPC   GL162185  32.259  14.474   5.661
 4922POPC   GL262186  32.348  14.178   5.901
 4922POPC   C1A62187  31.976  14.487   6.083
 4922POPC   D2A62188  31.842  14.450   6.518
 4922POPC   C3A62189  32.175  14.370   6.773
 4922POPC   C4A62190  32.218  14.276   7.183
 4922POPC   C1B62191  32.497  14.526   6.113
 4922POPC   C2B62192  32.550  14.663   6.520
 4922POPC   C3B62193  32.548  14.689   6.953
 4922POPC   C4B62194  32.709  14.393   7.190
 4923POPC   NC362195  42.602  22.432   5.457
 4923POPC   PO462196  42.330  23.057   5.335
 4923POPC   GL162197  42.159  23.069   5.770
 4923POPC   GL262198  42.143  22.704   5.711
 4923POPC   C1A62199  42.214  23.150   6.232
 4923POPC   D2A62200  42.431  23.206   6.640
 4923POPC   C3A62201  42.157  23.119   7.022
 4923POPC   C4A62202  42.149  23.034   7.483
 4923POPC   C1B62203  42.549  22.831   5.973
 4923POPC   C2B62204  42.664  22.717   6.397
 4923POPC   C3B62205  42.425  22.719   6.794
 4923POPC   C4B62206  42.570  22.865   7.204
 4924POPC   NC362207  38.977  40.190   5.444
 4924POPC   PO462208  39.445  39.734   5.623
 4924POPC   GL162209  39.347  39.671   5.981
 4924POPC   GL262210  39.007  39.627   5.900
 4924POPC   C1A62211  39.464  39.754   6.356
 4924POPC   D2A62212  39.451  40.143   6.568
 4924POPC   C3A62213  39.389  39.992   6.962
 4924POPC   C4A62214  39.392  40.182   7.329
 4924POPC   C1B62215  39.017  39.998   6.204
 4924POPC   C2B62216  38.847  40.241   6.572
 4924POPC   C3B62217  38.962  40.270   7.007
 4924POPC   C4B62218  38.934  39.893   7.204
 4925POPC   NC362219  11.175   0.370   5.245
 4925POPC   PO462220  11.504   0.909   5.435
 4925POPC   GL162221  11.465   0.636   5.769
 4925POPC   GL262222  11.154   0.466   5.784
 4925POPC   C1A62223  11.537   0.495   6.185
 4925POPC   D2A62224  11.667   0.374   6.583
 4925POPC   C3A62225  11.390   0.369   6.945
 4925POPC   C4A62226  11.223   0.043   7.183
 4925POPC   C1B62227  11.074   0.746   6.153
 4925POPC   C2B62228  11.243   0.729   6.574
 4925POPC   C3B62229  10.977   0.686   6.924
 4925POPC   C4B62230  11.023   0.503   7.320
 4926POPC   NC362231   4.732  36.814   5.482
 4926POPC   PO462232   5.257  37.249   5.576
 4926POPC   GL162233   5.125  37.161   5.940
 4926POPC   GL262234   5.028  36.820   5.903
 4926POPC   C1A62235   5.005  37.095   6.354
 4926POPC   D2A62236   5.002  36.890   6.715
 4926POPC   C3A62237   5.111  37.132   7.070
 4926POPC   C4A62238   4.694  37.106   7.158
 4926POPC   C1B62239   5.144  36.584   6.279
 4926POPC   C2B62240   5.370  36.543   6.685
 4926POPC   C3B62241   5.225  36.649   7.115
 4926POPC   C4B62242   5.360  36.886   7.529
 4927POPC   NC362243  36.724  35.152   5.333
 4927POPC   PO462244  37.145  35.659   5.329
 4927POPC   GL162245  36.982  35.511   5.753
 4927POPC   GL262246  36.808  35.170   5.845
 4927POPC   C1A62247  36.883  35.547   6.206
 4927POPC   D2A62248  36.779  35.363   6.611
 4927POPC   C3A62249  36.814  35.538   7.007
 4927POPC   C4A62250  37.141  35.546   7.300
 4927POPC   C1B62251  36.843  34.971   6.285
 4927POPC   C2B62252  36.808  34.863   6.746
 4927POPC   C3B62253  36.550  35.084   7.058
 4927POPC   C4B62254  36.324  35.512   7.123
 4928POPC   NC362255  24.849   4.080   5.188
 4928POPC   PO462256  24.333   4.537   5.370
 4928POPC   GL162257  24.572   4.487   5.721
 4928POPC   GL262258  24.447   4.167   5.774
 4928POPC   C1A62259  24.666   4.404   6.165
 4928POPC   D2A62260  24.641   4.258   6.593
 4928POPC   C3A62261  24.602   4.588   6.917
 4928POPC   C4A62262  24.592   4.277   7.288
 4928POPC   C1B62263  24.176   4.448   6.079
 4928POPC   C2B62264  24.228   4.547   6.539
 4928POPC   C3B62265  24.213   4.278   6.929
 4928POPC   C4B62266  24.074   4.401   7.341
 4929POPC   NC362267   9.493   9.886   5.114
 4929POPC   PO462268   9.773   9.437   5.535
 4929POPC   GL162269   9.619   9.533   5.889
 4929POPC   GL262270   9.831   9.837   5.889
 4929POPC   C1A62271   9.563   9.574   6.310
 4929POPC   D2A62272   9.528   9.848   6.642
 4929POPC   C3A62273   9.744   9.679   6.992
 4929POPC   C4A62274   9.642   9.759   7.407
 4929POPC   C1B62275   9.829  10.053   6.264
 4929POPC   C2B62276  10.008  10.008   6.662
 4929POPC   C3B62277  10.051  10.129   7.066
 4929POPC   C4B62278  10.144   9.814   7.320
 4930POPC   NC362279   2.821  33.563   5.523
 4930POPC   PO462280   2.690  34.192   5.439
 4930POPC   GL162281   2.560  34.067   5.844
 4930POPC   GL262282   2.527  33.702   5.906
 4930POPC   C1A62283   2.707  34.101   6.242
 4930POPC   D2A62284   2.744  33.907   6.643
 4930POPC   C3A62285   2.544  34.004   7.016
 4930POPC   C4A62286   2.517  33.719   7.354
 4930POPC   C1B62287   2.773  33.591   6.239
 4930POPC   C2B62288   2.993  33.454   6.602
 4930POPC   C3B62289   2.898  33.374   7.019
 4930POPC   C4B62290   2.953  33.432   7.485
 4931POPC   NC362291  35.145  40.804   5.031
 4931POPC   PO462292  35.548  40.491   5.499
 4931POPC   GL162293  35.405  40.627   5.868
 4931POPC   GL262294  35.166  40.416   6.029
 4931POPC   C1A62295  35.576  40.672   6.252
 4931POPC   D2A62296  35.650  40.868   6.607
 4931POPC   C3A62297  35.364  40.715   6.880
 4931POPC   C4A62298  35.409  40.930   7.238
 4931POPC   C1B62299  35.050  40.740   6.349
 4931POPC   C2B62300  35.031  41.040   6.685
 4931POPC   C3B62301  34.930  40.908   7.082
 4931POPC   C4B62302  35.058  40.561   7.361
 4932POPC   NC362303  23.676   6.305   5.129
 4932POPC   PO462304  23.932   6.852   5.183
 4932POPC   GL162305  23.831   6.538   5.589
 4932POPC   GL262306  23.997   6.739   5.842
 4932POPC   C1A62307  23.646   6.327   6.005
 4932POPC   D2A62308  23.785   6.298   6.479
 4932POPC   C3A62309  23.525   6.307   6.849
 4932POPC   C4A62310  23.271   6.504   7.136
 4932POPC   C1B62311  23.775   6.765   6.252
 4932POPC   C2B62312  23.719   6.763   6.711
 4932POPC   C3B62313  23.730   6.987   7.076
 4932POPC   C4B62314  24.002   7.298   7.294
 4933POPC   NC362315  43.661   7.645   5.094
 4933POPC   PO462316  44.249   7.410   5.415
 4933POPC   GL162317  44.108   7.465   5.846
 4933POPC   GL262318  43.798   7.315   5.981
 4933POPC   C1A62319  44.020   7.664   6.257
 4933POPC   D2A62320  43.836   7.331   6.511
 4933POPC   C3A62321  43.873   7.430   6.928
 4933POPC   C4A62322  44.113   7.699   7.214
 4933POPC   C1B62323  43.513   7.622   6.230
 4933POPC   C2B62324  43.363   7.693   6.645
 4933POPC   C3B62325  43.390   7.548   7.068
 4933POPC   C4B62326  43.670   7.472   7.394
 4934POPC   NC362327  26.749  30.438   5.456
 4934POPC   PO462328  26.819  30.944   5.120
 4934POPC   GL162329  26.674  30.910   5.641
 4934POPC   GL262330  26.496  30.635   5.826
 4934POPC   C1A62331  26.877  30.787   6.125
 4934POPC   D2A62332  27.012  30.677   6.557
 4934POPC   C3A62333  27.095  30.966   6.882
 4934POPC   C4A62334  26.927  31.005   7.293
 4934POPC   C1B62335  26.358  30.603   6.248
 4934POPC   C2B62336  26.527  30.546   6.619
 4934POPC   C3B62337  26.657  30.686   6.960
 4934POPC   C4B62338  26.485  30.659   7.379
 4935POPC   NC362339   9.916  40.046   5.390
 4935POPC   PO462340   9.455  39.687   5.366
 4935POPC   GL162341   9.726  39.706   5.733
 4935POPC   GL262342   9.659  40.032   5.838
 4935POPC   C1A62343   9.867  39.685   6.147
 4935POPC   D2A62344   9.698  39.932   6.475
 4935POPC   C3A62345   9.778  39.863   6.897
 4935POPC   C4A62346   9.441  39.965   7.112
 4935POPC   C1B62347   9.987  40.181   6.148
 4935POPC   C2B62348  10.066  40.261   6.599
 4935POPC   C3B62349  10.229  40.082   6.985
 4935POPC   C4B62350  10.154  40.013   7.406
 4936POPC   NC362351   9.200   4.742   5.412
 4936POPC   PO462352   9.042   5.378   5.236
 4936POPC   GL162353   9.171   5.203   5.677
 4936POPC   GL262354   8.986   4.932   5.842
 4936POPC   C1A62355   9.295   5.285   6.145
 4936POPC   D2A62356   9.127   5.409   6.590
 4936POPC   C3A62357   9.087   5.098   6.943
 4936POPC   C4A62358   9.083   5.076   7.415
 4936POPC   C1B62359   8.916   4.969   6.299
 4936POPC   C2B62360   8.664   5.059   6.668
 4936POPC   C3B62361   8.621   4.991   7.129
 4936POPC   C4B62362   8.666   4.705   7.467
 4937POPC   NC362363  24.483  36.415   5.563
 4937POPC   PO462364  24.144  36.920   5.409
 4937POPC   GL162365  24.272  36.837   5.851
 4937POPC   GL262366  24.615  36.718   5.952
 4937POPC   C1A62367  24.373  37.089   6.249
 4937POPC   D2A62368  24.694  37.240   6.573
 4937POPC   C3A62369  24.593  37.047   6.988
 4937POPC   C4A62370  24.244  37.132   7.258
 4937POPC   C1B62371  24.875  36.633   6.310
 4937POPC   C2B62372  24.761  36.622   6.746
 4937POPC   C3B62373  24.600  36.514   7.126
 4937POPC   C4B62374  24.762  36.373   7.514
 4938POPC   NC362375  21.100   0.943   5.340
 4938POPC   PO462376  21.471   1.453   5.326
 4938POPC   GL162377  21.388   1.320   5.755
 4938POPC   GL262378  21.366   0.937   5.785
 4938POPC   C1A62379  21.231   1.509   6.163
 4938POPC   D2A62380  21.210   1.366   6.595
 4938POPC   C3A62381  21.201   1.602   6.963
 4938POPC   C4A62382  21.284   1.433   7.376
 4938POPC   C1B62383  21.464   1.051   6.233
 4938POPC   C2B62384  21.599   1.063   6.656
 4938POPC   C3B62385  21.441   1.059   7.053
 4938POPC   C4B62386  21.707   1.138   7.421
 4939POPC   NC362387   0.842  16.370   5.616
 4939POPC   PO462388   0.666  17.014   5.622
 4939POPC   GL162389   0.430  16.706   5.799
 4939POPC   GL262390   0.656  16.598   6.035
 4939POPC   C1A62391   0.167  16.767   6.160
 4939POPC   D2A62392   0.168  16.901   6.591
 4939POPC   C3A62393   0.193  16.518   6.823
 4939POPC   C4A62394   0.330  16.488   7.218
 4939POPC   C1B62395   0.798  16.888   6.353
 4939POPC   C2B62396   0.633  16.817   6.776
 4939POPC   C3B62397   0.783  16.731   7.183
 4939POPC   C4B62398   0.739  16.931   7.598
 4940POPC   NC362399  14.535  22.604   5.492
 4940POPC   PO462400  14.087  23.046   5.219
 4940POPC   GL162401  14.110  22.969   5.668
 4940POPC   GL262402  14.138  22.663   5.835
 4940POPC   C1A62403  14.082  23.190   6.101
 4940POPC   D2A62404  14.358  23.216   6.494
 4940POPC   C3A62405  14.225  23.336   6.895
 4940POPC   C4A62406  14.075  23.236   7.305
 4940POPC   C1B62407  14.446  22.833   6.107
 4940POPC   C2B62408  14.515  22.722   6.507
 4940POPC   C3B62409  14.355  22.789   6.894
 4940POPC   C4B62410  14.527  22.594   7.272
 4941POPC   NC362411  37.168   9.776   5.377
 4941POPC   PO462412  36.558   9.696   5.272
 4941POPC   GL162413  36.760   9.783   5.709
 4941POPC   GL262414  36.867   9.457   5.850
 4941POPC   C1A62415  36.825   9.838   6.184
 4941POPC   D2A62416  36.859   9.642   6.598
 4941POPC   C3A62417  36.810   9.983   6.873
 4941POPC   C4A62418  36.580  10.097   7.243
 4941POPC   C1B62419  36.987   9.275   6.239
 4941POPC   C2B62420  37.104   9.137   6.648
 4941POPC   C3B62421  37.172   9.386   7.019
 4941POPC   C4B62422  36.901   9.666   7.256
 4942POPC   NC362423  27.063  32.023   5.407
 4942POPC   PO462424  26.521  32.421   5.544
 4942POPC   GL162425  26.836  32.270   5.800
 4942POPC   GL262426  26.663  31.960   5.781
 4942POPC   C1A62427  26.949  32.372   6.221
 4942POPC   D2A62428  26.673  32.491   6.584
 4942POPC   C3A62429  26.872  32.433   6.980
 4942POPC   C4A62430  26.933  32.408   7.442
 4942POPC   C1B62431  26.558  32.064   6.216
 4942POPC   C2B62432  26.848  31.996   6.592
 4942POPC   C3B62433  26.924  31.944   7.036
 4942POPC   C4B62434  26.563  32.054   7.286
 4943POPC   NC362435   1.397   7.021   5.575
 4943POPC   PO462436   0.975   6.353   5.469
 4943POPC   GL162437   1.192   6.443   5.836
 4943POPC   GL262438   1.066   6.776   5.888
 4943POPC   C1A62439   1.366   6.496   6.265
 4943POPC   D2A62440   1.625   6.517   6.649
 4943POPC   C3A62441   1.490   6.249   6.992
 4943POPC   C4A62442   1.147   6.457   7.240
 4943POPC   C1B62443   0.918   6.796   6.318
 4943POPC   C2B62444   1.025   6.836   6.763
 4943POPC   C3B62445   0.829   6.860   7.178
 4943POPC   C4B62446   0.891   6.901   7.656
 4944POPC   NC362447   2.259   3.824   5.426
 4944POPC   PO462448   2.908   3.515   5.349
 4944POPC   GL162449   2.809   3.543   5.795
 4944POPC   GL262450   2.516   3.676   5.832
 4944POPC   C1A62451   2.910   3.495   6.217
 4944POPC   D2A62452   3.056   3.301   6.598
 4944POPC   C3A62453   2.912   3.573   6.910
 4944POPC   C4A62454   2.728   3.562   7.275
 4944POPC   C1B62455   2.561   3.902   6.178
 4944POPC   C2B62456   2.672   3.867   6.569
 4944POPC   C3B62457   2.554   3.958   6.957
 4944POPC   C4B62458   2.800   4.110   7.277
 4945POPC   NC362459  17.008  36.435   5.422
 4945POPC   PO462460  16.710  35.787   5.352
 4945POPC   GL162461  16.714  36.081   5.679
 4945POPC   GL262462  17.058  36.071   5.818
 4945POPC   C1A62463  16.717  36.400   6.020
 4945POPC   D2A62464  16.912  36.400   6.429
 4945POPC   C3A62465  16.657  36.383   6.781
 4945POPC   C4A62466  16.700  36.378   7.201
 4945POPC   C1B62467  16.873  35.936   6.179
 4945POPC   C2B62468  17.008  35.893   6.567
 4945POPC   C3B62469  16.914  35.971   6.959
 4945POPC   C4B62470  16.757  35.722   7.235
 4946POPC   NC362471  23.263   0.064   5.386
 4946POPC   PO462472  23.312   0.703   5.327
 4946POPC   GL162473  23.011   0.696   5.772
 4946POPC   GL262474  22.633   0.835   5.797
 4946POPC   C1A62475  22.927   0.852   6.236
 4946POPC   D2A62476  22.838   0.734   6.702
 4946POPC   C3A62477  23.080   0.499   7.042
 4946POPC   C4A62478  23.416   0.336   7.360
 4946POPC   C1B62479  22.414   0.668   6.207
 4946POPC   C2B62480  22.389   0.454   6.621
 4946POPC   C3B62481  22.405   0.706   6.987
 4946POPC   C4B62482  22.674   0.749   7.310
 4947POPC   NC362483  17.434  34.913   5.346
 4947POPC   PO462484  17.575  34.284   5.558
 4947POPC   GL162485  17.689  34.590   5.834
 4947POPC   GL262486  17.323  34.721   5.822
 4947POPC   C1A62487  17.813  34.439   6.255
 4947POPC   D2A62488  17.529  34.257   6.608
 4947POPC   C3A62489  17.508  34.383   7.067
 4947POPC   C4A62490  17.610  34.630   7.466
 4947POPC   C1B62491  17.269  34.922   6.245
 4947POPC   C2B62492  17.420  34.863   6.710
 4947POPC   C3B62493  17.264  34.841   7.143
 4947POPC   C4B62494  17.176  34.848   7.627
 4948POPC   NC362495  24.318   5.659   5.506
 4948POPC   PO462496  24.616   6.223   5.270
 4948POPC   GL162497  24.711   6.036   5.718
 4948POPC   GL262498  24.426   5.837   5.952
 4948POPC   C1A62499  24.641   6.231   6.134
 4948POPC   D2A62500  24.685   6.049   6.535
 4948POPC   C3A62501  24.582   6.195   6.940
 4948POPC   C4A62502  24.572   5.843   7.220
 4948POPC   C1B62503  24.460   5.596   6.348
 4948POPC   C2B62504  24.481   5.543   6.765
 4948POPC   C3B62505  24.165   5.538   7.042
 4948POPC   C4B62506  23.902   5.560   7.384
 4949POPC   NC362507  35.435  25.533   5.354
 4949POPC   PO462508  35.222  24.900   5.512
 4949POPC   GL162509  35.204  25.187   5.854
 4949POPC   GL262510  35.492  25.431   5.848
 4949POPC   C1A62511  35.211  25.173   6.301
 4949POPC   D2A62512  35.357  25.250   6.707
 4949POPC   C3A62513  35.052  25.192   7.066
 4949POPC   C4A62514  35.172  25.264   7.524
 4949POPC   C1B62515  35.704  25.371   6.248
 4949POPC   C2B62516  35.855  25.639   6.568
 4949POPC   C3B62517  35.714  25.707   6.969
 4949POPC   C4B62518  35.519  25.362   7.172
 4950POPC   NC362519  15.929  30.324   5.381
 4950POPC   PO462520  15.837  29.669   5.308
 4950POPC   GL162521  15.761  29.925   5.690
 4950POPC   GL262522  16.115  30.058   5.788
 4950POPC   C1A62523  15.837  29.824   6.142
 4950POPC   D2A62524  15.984  29.939   6.570
 4950POPC   C3A62525  15.901  29.677   6.920
 4950POPC   C4A62526  15.792  29.874   7.270
 4950POPC   C1B62527  16.136  30.277   6.204
 4950POPC   C2B62528  16.238  30.395   6.640
 4950POPC   C3B62529  16.243  30.163   7.025
 4950POPC   C4B62530  16.090  30.266   7.428
 4951POPC   NC362531  25.014   7.250   5.362
 4951POPC   PO462532  25.503   7.779   5.197
 4951POPC   GL162533  25.441   7.658   5.639
 4951POPC   GL262534  25.320   7.327   5.758
 4951POPC   C1A62535  25.393   7.713   6.087
 4951POPC   D2A62536  25.483   7.804   6.515
 4951POPC   C3A62537  25.169   7.726   6.830
 4951POPC   C4A62538  25.397   7.620   7.180
 4951POPC   C1B62539  24.999   7.149   6.075
 4951POPC   C2B62540  24.996   7.035   6.533
 4951POPC   C3B62541  25.060   7.217   6.959
 4951POPC   C4B62542  25.482   7.131   7.162
 4952POPC   NC362543   3.827  23.997   5.533
 4952POPC   PO462544   3.235  23.647   5.403
 4952POPC   GL162545   3.367  23.883   5.755
 4952POPC   GL262546   3.629  23.656   5.834
 4952POPC   C1A62547   3.316  23.808   6.206
 4952POPC   D2A62548   3.537  23.888   6.598
 4952POPC   C3A62549   3.364  23.864   7.008
 4952POPC   C4A62550   3.311  23.575   7.346
 4952POPC   C1B62551   3.872  23.808   6.187
 4952POPC   C2B62552   4.073  23.857   6.596
 4952POPC   C3B62553   3.895  24.021   6.958
 4952POPC   C4B62554   3.789  23.802   7.319
 4953POPC   NC362555  39.818  44.329   5.593
 4953POPC   PO462556  39.753  43.602   5.386
 4953POPC   GL162557  39.795  43.837   5.778
 4953POPC   GL262558  40.149  43.887   5.779
 4953POPC   C1A62559  39.892  44.042   6.210
 4953POPC   D2A62560  40.127  44.090   6.621
 4953POPC   C3A62561  39.919  43.870   6.980
 4953POPC   C4A62562  39.972  43.921   7.424
 4953POPC   C1B62563  40.250  43.670   6.197
 4953POPC   C2B62564  40.418  43.643   6.645
 4953POPC   C3B62565  40.390  43.742   7.114
 4953POPC   C4B62566  40.396  43.713   7.579
 4954POPC   NC362567  26.885  27.290   5.316
 4954POPC   PO462568  26.527  27.860   5.569
 4954POPC   GL162569  26.745  27.770   5.986
 4954POPC   GL262570  26.869  27.516   5.774
 4954POPC   C1A62571  27.027  27.545   6.312
 4954POPC   D2A62572  27.169  27.426   6.762
 4954POPC   C3A62573  27.033  27.680   7.097
 4954POPC   C4A62574  26.646  27.921   7.172
 4954POPC   C1B62575  26.590  27.270   6.028
 4954POPC   C2B62576  26.508  27.247   6.473
 4954POPC   C3B62577  26.636  27.510   6.803
 4954POPC   C4B62578  26.557  27.434   7.219
 4955POPC   NC362579  39.732  12.257   4.999
 4955POPC   PO462580  40.018  11.791   5.347
 4955POPC   GL162581  40.024  11.903   5.747
 4955POPC   GL262582  39.857  12.228   5.751
 4955POPC   C1A62583  39.970  11.839   6.160
 4955POPC   D2A62584  40.032  11.979   6.566
 4955POPC   C3A62585  40.104  11.746   6.918
 4955POPC   C4A62586  40.130  11.886   7.318
 4955POPC   C1B62587  39.928  12.343   6.194
 4955POPC   C2B62588  39.748  12.397   6.621
 4955POPC   C3B62589  39.874  12.398   7.054
 4955POPC   C4B62590  39.877  12.416   7.515
 4956POPC   NC362591  22.576  30.220   5.530
 4956POPC   PO462592  21.980  29.886   5.480
 4956POPC   GL162593  22.191  29.964   5.832
 4956POPC   GL262594  22.478  29.746   5.836
 4956POPC   C1A62595  22.032  30.137   6.213
 4956POPC   D2A62596  21.909  29.982   6.631
 4956POPC   C3A62597  22.130  30.052   7.015
 4956POPC   C4A62598  22.378  29.889   7.370
 4956POPC   C1B62599  22.554  30.024   6.193
 4956POPC   C2B62600  22.414  30.184   6.586
 4956POPC   C3B62601  22.620  30.204   6.986
 4956POPC   C4B62602  22.466  30.375   7.357
 4957POPC   NC362603  44.394  38.632   5.355
 4957POPC   PO462604  44.966  38.166   5.186
 4957POPC   GL162605  44.849  38.097   5.725
 4957POPC   GL262606   0.073  38.159   6.011
 4957POPC   C1A62607  44.620  38.342   6.127
 4957POPC   D2A62608  44.644  38.668   6.500
 4957POPC   C3A62609  44.424  38.600   6.904
 4957POPC   C4A62610  44.342  38.831   7.254
 4957POPC   C1B62611   0.098  38.574   6.212
 4957POPC   C2B62612   0.155  38.625   6.663
 4957POPC   C3B62613  44.923  38.669   7.061
 4957POPC   C4B62614  44.774  38.699   7.514
 4958POPC   NC362615  41.314   2.102   5.618
 4958POPC   PO462616  41.825   1.735   5.775
 4958POPC   GL162617  41.525   1.892   6.066
 4958POPC   GL262618  41.185   1.762   5.964
 4958POPC   C1A62619  41.658   2.282   6.282
 4958POPC   D2A62620  41.865   2.547   6.611
 4958POPC   C3A62621  41.730   2.423   7.026
 4958POPC   C4A62622  41.366   2.296   7.191
 4958POPC   C1B62623  41.083   2.011   6.328
 4958POPC   C2B62624  41.375   2.070   6.671
 4958POPC   C3B62625  41.613   1.885   6.969
 4958POPC   C4B62626  41.319   1.773   7.281
 4959POPC   NC362627  10.525   3.135   5.578
 4959POPC   PO462628  10.241   2.573   5.392
 4959POPC   GL162629  10.426   2.713   5.851
 4959POPC   GL262630  10.425   3.069   6.067
 4959POPC   C1A62631  10.841   2.788   6.110
 4959POPC   D2A62632  11.071   2.985   6.489
 4959POPC   C3A62633  10.776   3.126   6.832
 4959POPC   C4A62634  10.577   2.885   7.159
 4959POPC   C1B62635  10.277   2.759   6.347
 4959POPC   C2B62636  10.220   2.677   6.801
 4959POPC   C3B62637  10.110   2.701   7.258
 4959POPC   C4B62638   9.986   2.785   7.707
 4960POPC   NC362639  11.830  27.697   5.092
 4960POPC   PO462640  12.095  27.776   5.736
 4960POPC   GL162641  11.780  27.946   5.950
 4960POPC   GL262642  11.752  27.658   6.112
 4960POPC   C1A62643  11.850  28.121   6.325
 4960POPC   D2A62644  12.012  27.824   6.566
 4960POPC   C3A62645  11.865  27.772   6.950
 4960POPC   C4A62646  12.070  27.663   7.326
 4960POPC   C1B62647  11.967  27.370   6.331
 4960POPC   C2B62648  11.987  27.328   6.744
 4960POPC   C3B62649  12.190  27.242   7.078
 4960POPC   C4B62650  11.905  27.120   7.431
 4961POPC   NC362651  39.584  30.830   5.387
 4961POPC   PO462652  38.821  30.604   5.412
 4961POPC   GL162653  39.072  30.819   5.782
 4961POPC   GL262654  39.443  30.853   5.868
 4961POPC   C1A62655  39.083  30.754   6.267
 4961POPC   D2A62656  38.957  30.991   6.636
 4961POPC   C3A62657  39.030  30.787   7.032
 4961POPC   C4A62658  39.108  30.833   7.491
 4961POPC   C1B62659  39.575  30.822   6.304
 4961POPC   C2B62660  39.430  30.800   6.720
 4961POPC   C3B62661  39.534  30.836   7.186
 4961POPC   C4B62662  39.602  30.980   7.613
 4962POPC   NC362663  37.526  36.995   5.400
 4962POPC   PO462664  37.942  36.450   5.446
 4962POPC   GL162665  37.831  36.799   5.753
 4962POPC   GL262666  37.502  36.774   5.875
 4962POPC   C1A62667  37.894  36.889   6.195
 4962POPC   D2A62668  38.019  36.675   6.588
 4962POPC   C3A62669  37.724  36.731   6.936
 4962POPC   C4A62670  37.714  36.919   7.366
 4962POPC   C1B62671  37.419  37.120   6.077
 4962POPC   C2B62672  37.481  37.105   6.512
 4962POPC   C3B62673  37.455  37.191   6.964
 4962POPC   C4B62674  37.249  37.223   7.368
 4963POPC   NC362675  10.933   5.060   5.445
 4963POPC   PO462676  10.377   4.853   5.380
 4963POPC   GL162677  10.506   5.087   5.794
 4963POPC   GL262678  10.837   5.306   5.870
 4963POPC   C1A62679  10.371   4.930   6.208
 4963POPC   D2A62680  10.509   4.630   6.533
 4963POPC   C3A62681  10.510   4.775   6.974
 4963POPC   C4A62682  10.308   5.116   7.151
 4963POPC   C1B62683  10.856   5.092   6.256
 4963POPC   C2B62684  10.629   5.155   6.635
 4963POPC   C3B62685  10.724   5.368   7.017
 4963POPC   C4B62686  10.827   5.068   7.338
 4964POPC   NC362687   0.715  44.616   5.453
 4964POPC   PO462688   0.311  44.187   5.444
 4964POPC   GL162689   0.309  44.498   5.740
 4964POPC   GL262690   0.572  44.395   5.896
 4964POPC   C1A62691   0.256  44.814   6.064
 4964POPC   D2A62692   0.144  44.797   6.489
 4964POPC   C3A62693   0.386  44.859   6.861
 4964POPC   C4A62694   0.164  44.748   7.223
 4964POPC   C1B62695   0.315  44.339   6.255
 4964POPC   C2B62696   0.433  44.369   6.662
 4964POPC   C3B62697   0.466  44.329   7.083
 4964POPC   C4B62698   0.661  44.634   7.356
 4965POPC   NC362699  37.216  10.715   5.394
 4965POPC   PO462700  37.909  10.659   5.313
 4965POPC   GL162701  37.621  10.517   5.687
 4965POPC   GL262702  37.463  10.183   5.671
 4965POPC   C1A62703  37.549  10.554   6.156
 4965POPC   D2A62704  37.765  10.583   6.553
 4965POPC   C3A62705  37.519  10.696   6.915
 4965POPC   C4A62706  37.342  10.786   7.308
 4965POPC   C1B62707  37.699  10.079   6.064
 4965POPC   C2B62708  37.704  10.051   6.513
 4965POPC   C3B62709  37.754  10.234   6.919
 4965POPC   C4B62710  37.560  10.315   7.279
 4966POPC   NC362711   4.705  10.859   5.361
 4966POPC   PO462712   4.048  10.606   5.175
 4966POPC   GL162713   4.161  10.688   5.706
 4966POPC   GL262714   4.468  10.789   5.911
 4966POPC   C1A62715   4.183  10.461   6.154
 4966POPC   D2A62716   4.317  10.717   6.551
 4966POPC   C3A62717   4.301  10.558   6.977
 4966POPC   C4A62718   4.036  10.342   7.248
 4966POPC   C1B62719   4.694  10.546   6.209
 4966POPC   C2B62720   4.711  10.243   6.482
 4966POPC   C3B62721   4.877  10.180   6.864
 4966POPC   C4B62722   4.689  10.304   7.190
 4967POPC   NC362723   0.863  18.111   5.530
 4967POPC   PO462724   1.505  18.073   5.429
 4967POPC   GL162725   1.369  18.140   5.800
 4967POPC   GL262726   1.602  18.384   5.834
 4967POPC   C1A62727   1.196  18.031   6.180
 4967POPC   D2A62728   1.032  18.245   6.494
 4967POPC   C3A62729   1.077  18.144   6.909
 4967POPC   C4A62730   0.917  18.351   7.298
 4967POPC   C1B62731   1.439  18.481   6.218
 4967POPC   C2B62732   1.474  18.489   6.636
 4967POPC   C3B62733   1.556  18.299   7.024
 4967POPC   C4B62734   1.337  18.036   7.318
 4968POPC   NC362735  18.884  16.567   5.421
 4968POPC   PO462736  19.354  17.090   5.353
 4968POPC   GL162737  19.255  16.840   5.711
 4968POPC   GL262738  19.537  16.912   5.916
 4968POPC   C1A62739  19.256  16.505   6.048
 4968POPC   D2A62740  19.361  16.476   6.508
 4968POPC   C3A62741  19.325  16.822   6.815
 4968POPC   C4A62742  19.096  16.676   7.176
 4968POPC   C1B62743  19.203  16.964   6.285
 4968POPC   C2B62744  18.853  16.870   6.597
 4968POPC   C3B62745  18.765  17.050   6.992
 4968POPC   C4B62746  19.161  17.167   7.178
 4969POPC   NC362747  13.823  13.382   5.374
 4969POPC   PO462748  13.367  13.923   5.415
 4969POPC   GL162749  13.607  13.666   5.761
 4969POPC   GL262750  13.885  13.876   5.834
 4969POPC   C1A62751  13.633  13.732   6.251
 4969POPC   D2A62752  13.559  13.975   6.644
 4969POPC   C3A62753  13.549  13.705   7.033
 4969POPC   C4A62754  13.489  13.267   7.251
 4969POPC   C1B62755  14.107  13.692   6.148
 4969POPC   C2B62756  14.047  13.705   6.589
 4969POPC   C3B62757  14.038  13.602   7.018
 4969POPC   C4B62758  13.882  13.579   7.436
 4970POPC   NC362759  24.655  23.081   5.461
 4970POPC   PO462760  24.205  22.682   5.404
 4970POPC   GL162761  24.409  22.812   5.825
 4970POPC   GL262762  24.799  22.829   5.875
 4970POPC   C1A62763  24.422  22.723   6.280
 4970POPC   D2A62764  24.229  22.671   6.685
 4970POPC   C3A62765  24.442  22.719   7.046
 4970POPC   C4A62766  24.242  23.073   7.215
 4970POPC   C1B62767  24.812  23.037   6.268
 4970POPC   C2B62768  24.799  22.890   6.672
 4970POPC   C3B62769  24.821  23.072   7.068
 4970POPC   C4B62770  24.667  22.973   7.502
 4971POPC   NC362771  29.717  29.239   5.452
 4971POPC   PO462772  30.283  29.411   5.762
 4971POPC   GL162773  30.039  29.004   5.934
 4971POPC   GL262774  29.668  28.921   5.895
 4971POPC   C1A62775  30.053  28.903   6.359
 4971POPC   D2A62776  30.059  29.242   6.627
 4971POPC   C3A62777  30.135  29.080   7.000
 4971POPC   C4A62778  30.105  29.397   7.242
 4971POPC   C1B62779  29.668  29.223   6.213
 4971POPC   C2B62780  29.541  29.203   6.619
 4971POPC   C3B62781  29.645  29.239   7.023
 4971POPC   C4B62782  29.577  29.581   7.237
 4972POPC   NC362783  27.813  22.228   5.354
 4972POPC   PO462784  27.201  21.972   5.346
 4972POPC   GL162785  27.422  21.921   5.725
 4972POPC   GL262786  27.348  22.262   5.838
 4972POPC   C1A62787  27.510  21.942   6.201
 4972POPC   D2A62788  27.380  22.146   6.599
 4972POPC   C3A62789  27.633  22.031   6.974
 4972POPC   C4A62790  27.984  22.242   7.197
 4972POPC   C1B62791  27.593  22.457   6.199
 4972POPC   C2B62792  27.570  22.661   6.604
 4972POPC   C3B62793  27.584  22.561   7.040
 4972POPC   C4B62794  27.239  22.308   7.131
 4973POPC   NC362795  31.102  31.108   5.521
 4973POPC   PO462796  31.427  30.457   5.420
 4973POPC   GL162797  31.280  30.697   5.772
 4973POPC   GL262798  31.573  30.912   5.820
 4973POPC   C1A62799  31.288  30.732   6.222
 4973POPC   D2A62800  31.549  30.565   6.563
 4973POPC   C3A62801  31.516  30.669   7.014
 4973POPC   C4A62802  31.176  30.723   7.335
 4973POPC   C1B62803  31.826  30.907   6.245
 4973POPC   C2B62804  31.780  31.003   6.703
 4973POPC   C3B62805  31.969  30.953   7.126
 4973POPC   C4B62806  31.795  30.753   7.553
 4974POPC   NC362807  19.403  26.148   5.392
 4974POPC   PO462808  20.054  25.950   5.164
 4974POPC   GL162809  19.851  26.060   5.619
 4974POPC   GL262810  19.567  25.828   5.758
 4974POPC   C1A62811  19.748  26.239   6.080
 4974POPC   D2A62812  19.830  26.144   6.534
 4974POPC   C3A62813  19.654  26.216   6.969
 4974POPC   C4A62814  19.446  25.859   7.191
 4974POPC   C1B62815  19.724  25.737   6.182
 4974POPC   C2B62816  19.780  25.627   6.638
 4974POPC   C3B62817  19.939  25.761   7.044
 4974POPC   C4B62818  20.230  25.620   7.383
 4975POPC   NC362819  39.188  19.329   5.529
 4975POPC   PO462820  38.948  18.693   5.389
 4975POPC   GL162821  39.070  18.861   5.804
 4975POPC   GL262822  39.390  18.732   5.936
 4975POPC   C1A62823  39.140  19.143   6.191
 4975POPC   D2A62824  39.119  19.242   6.653
 4975POPC   C3A62825  38.849  19.273   7.000
 4975POPC   C4A62826  38.966  19.192   7.447
 4975POPC   C1B62827  39.255  18.627   6.322
 4975POPC   C2B62828  39.356  18.787   6.706
 4975POPC   C3B62829  39.336  18.975   7.108
 4975POPC   C4B62830  39.208  18.757   7.493
 4976POPC   NC362831  28.333  32.550   5.505
 4976POPC   PO462832  28.160  31.951   5.441
 4976POPC   GL162833  28.080  32.127   5.826
 4976POPC   GL262834  27.806  31.898   5.855
 4976POPC   C1A62835  28.341  32.158   6.221
 4976POPC   D2A62836  28.598  32.082   6.600
 4976POPC   C3A62837  28.531  32.374   6.922
 4976POPC   C4A62838  28.223  32.434   7.238
 4976POPC   C1B62839  27.865  32.000   6.279
 4976POPC   C2B62840  27.978  31.831   6.665
 4976POPC   C3B62841  28.216  31.969   6.988
 4976POPC   C4B62842  28.591  31.902   7.212
 4977POPC   NC362843  38.721  16.432   5.587
 4977POPC   PO462844  38.404  17.015   5.478
 4977POPC   GL162845  38.319  16.687   5.809
 4977POPC   GL262846  38.192  16.328   5.763
 4977POPC   C1A62847  38.518  16.616   6.208
 4977POPC   D2A62848  38.541  16.805   6.588
 4977POPC   C3A62849  38.693  16.520   6.873
 4977POPC   C4A62850  38.589  16.691   7.244
 4977POPC   C1B62851  38.057  16.403   6.203
 4977POPC   C2B62852  38.271  16.335   6.614
 4977POPC   C3B62853  38.176  16.442   7.038
 4977POPC   C4B62854  37.813  16.441   7.252
 4978POPC   NC362855  21.589  30.109   5.411
 4978POPC   PO462856  20.984  29.888   5.401
 4978POPC   GL162857  21.193  29.824   5.828
 4978POPC   GL262858  21.570  29.730   5.780
 4978POPC   C1A62859  21.148  30.043   6.267
 4978POPC   D2A62860  21.130  30.284   6.697
 4978POPC   C3A62861  21.111  30.082   7.129
 4978POPC   C4A62862  21.375  30.112   7.521
 4978POPC   C1B62863  21.596  29.772   6.244
 4978POPC   C2B62864  21.400  29.856   6.671
 4978POPC   C3B62865  21.600  29.923   7.048
 4978POPC   C4B62866  21.889  29.581   7.081
 4979POPC   NC362867  31.428  10.446   5.388
 4979POPC   PO462868  31.856  10.819   5.534
 4979POPC   GL162869  31.643  10.571   5.835
 4979POPC   GL262870  31.744  10.228   5.747
 4979POPC   C1A62871  31.485  10.484   6.236
 4979POPC   D2A62872  31.685  10.518   6.631
 4979POPC   C3A62873  31.449  10.423   6.973
 4979POPC   C4A62874  31.399  10.803   7.152
 4979POPC   C1B62875  31.920  10.153   6.169
 4979POPC   C2B62876  32.163  10.313   6.542
 4979POPC   C3B62877  32.055  10.371   6.986
 4979POPC   C4B62878  31.762  10.156   7.285
 4980POPC   NC362879  32.466   4.580   5.486
 4980POPC   PO462880  32.590   4.081   5.091
 4980POPC   GL162881  32.237   4.162   5.548
 4980POPC   GL262882  31.900   4.060   5.595
 4980POPC   C1A62883  32.226   4.360   6.025
 4980POPC   D2A62884  32.220   4.450   6.490
 4980POPC   C3A62885  32.489   4.211   6.783
 4980POPC   C4A62886  32.695   3.997   7.108
 4980POPC   C1B62887  31.897   3.972   6.044
 4980POPC   C2B62888  31.834   4.036   6.514
 4980POPC   C3B62889  31.985   4.204   6.899
 4980POPC   C4B62890  32.194   4.585   7.067
 4981POPC   NC362891  30.744   4.199   5.259
 4981POPC   PO462892  30.825   4.832   5.538
 4981POPC   GL162893  30.703   4.374   5.740
 4981POPC   GL262894  30.871   3.990   5.728
 4981POPC   C1A62895  30.553   4.271   6.152
 4981POPC   D2A62896  30.452   4.536   6.499
 4981POPC   C3A62897  30.606   4.426   6.911
 4981POPC   C4A62898  30.735   4.402   7.347
 4981POPC   C1B62899  30.905   3.885   6.170
 4981POPC   C2B62900  30.863   4.114   6.586
 4981POPC   C3B62901  30.936   4.002   7.050
 4981POPC   C4B62902  30.927   3.958   7.539
 4982POPC   NC362903   6.110  22.724   5.553
 4982POPC   PO462904   5.822  23.333   5.539
 4982POPC   GL162905   5.575  23.205   5.844
 4982POPC   GL262906   5.641  22.844   5.837
 4982POPC   C1A62907   5.729  23.157   6.240
 4982POPC   D2A62908   6.005  23.259   6.546
 4982POPC   C3A62909   5.831  23.195   6.950
 4982POPC   C4A62910   6.173  23.331   7.205
 4982POPC   C1B62911   5.912  22.663   6.166
 4982POPC   C2B62912   5.870  22.759   6.573
 4982POPC   C3B62913   5.649  22.682   6.903
 4982POPC   C4B62914   5.779  22.707   7.298
 4983POPC   NC362915   4.478   8.502   5.085
 4983POPC   PO462916   4.102   8.021   5.398
 4983POPC   GL162917   4.330   8.096   5.748
 4983POPC   GL262918   4.310   8.428   5.639
 4983POPC   C1A62919   4.198   8.081   6.185
 4983POPC   D2A62920   4.473   8.240   6.491
 4983POPC   C3A62921   4.359   8.078   6.885
 4983POPC   C4A62922   4.492   7.984   7.292
 4983POPC   C1B62923   4.304   8.552   6.075
 4983POPC   C2B62924   4.198   8.670   6.501
 4983POPC   C3B62925   4.385   8.585   6.894
 4983POPC   C4B62926   4.182   8.411   7.226
 4984POPC   NC362927  34.942  41.124   5.447
 4984POPC   PO462928  34.840  41.778   5.486
 4984POPC   GL162929  34.702  41.662   5.876
 4984POPC   GL262930  34.674  41.317   5.824
 4984POPC   C1A62931  34.833  41.722   6.297
 4984POPC   D2A62932  35.002  41.561   6.687
 4984POPC   C3A62933  34.913  41.804   7.053
 4984POPC   C4A62934  34.652  41.785   7.451
 4984POPC   C1B62935  34.826  41.207   6.225
 4984POPC   C2B62936  34.575  41.250   6.593
 4984POPC   C3B62937  34.601  41.404   7.011
 4984POPC   C4B62938  34.892  41.350   7.330
 4985POPC   NC362939  38.364  33.109   5.362
 4985POPC   PO462940  38.745  32.543   5.503
 4985POPC   GL162941  38.453  32.868   5.798
 4985POPC   GL262942  38.564  33.161   5.941
 4985POPC   C1A62943  38.260  32.870   6.247
 4985POPC   D2A62944  38.567  33.100   6.553
 4985POPC   C3A62945  38.384  33.286   6.922
 4985POPC   C4A62946  38.135  32.956   7.139
 4985POPC   C1B62947  38.737  32.756   6.190
 4985POPC   C2B62948  38.759  32.570   6.587
 4985POPC   C3B62949  38.801  32.805   6.951
 4985POPC   C4B62950  38.627  33.011   7.281
 4986POPC   NC362951   6.677  43.445   5.436
 4986POPC   PO462952   6.455  42.848   5.216
 4986POPC   GL162953   6.586  42.873   5.713
 4986POPC   GL262954   6.642  43.192   5.879
 4986POPC   C1A62955   6.399  42.850   6.175
 4986POPC   D2A62956   6.421  43.089   6.602
 4986POPC   C3A62957   6.568  42.915   7.002
 4986POPC   C4A62958   6.354  42.734   7.355
 4986POPC   C1B62959   6.511  43.445   6.221
 4986POPC   C2B62960   6.241  43.599   6.569
 4986POPC   C3B62961   6.191  43.548   7.003
 4986POPC   C4B62962   6.419  43.310   7.299
 4987POPC   NC362963  27.611   4.873   5.297
 4987POPC   PO462964  27.060   5.079   5.321
 4987POPC   GL162965  27.319   5.049   5.711
 4987POPC   GL262966  27.688   5.126   5.792
 4987POPC   C1A62967  27.328   5.196   6.144
 4987POPC   D2A62968  27.423   5.066   6.549
 4987POPC   C3A62969  27.436   5.389   6.902
 4987POPC   C4A62970  27.488   5.275   7.348
 4987POPC   C1B62971  27.832   5.015   6.207
 4987POPC   C2B62972  27.897   5.178   6.624
 4987POPC   C3B62973  27.715   4.936   6.980
 4987POPC   C4B62974  27.833   4.565   7.211
 4988POPC   NC362975   3.651  22.329   5.452
 4988POPC   PO462976   3.011  22.124   5.605
 4988POPC   GL162977   3.381  22.071   5.825
 4988POPC   GL262978   3.423  22.427   5.893
 4988POPC   C1A62979   3.484  21.975   6.250
 4988POPC   D2A62980   3.295  21.803   6.625
 4988POPC   C3A62981   3.432  21.876   7.024
 4988POPC   C4A62982   3.385  22.263   7.151
 4988POPC   C1B62983   3.666  22.453   6.259
 4988POPC   C2B62984   3.573  22.367   6.679
 4988POPC   C3B62985   3.723  22.610   7.027
 4988POPC   C4B62986   3.729  22.453   7.465
 4989POPC   NC362987  38.873  32.179   5.251
 4989POPC   PO462988  39.491  32.136   5.462
 4989POPC   GL162989  39.274  32.367   5.776
 4989POPC   GL262990  39.457  32.122   5.984
 4989POPC   C1A62991  39.119  32.425   6.211
 4989POPC   D2A62992  39.276  32.240   6.561
 4989POPC   C3A62993  39.050  32.343   6.937
 4989POPC   C4A62994  39.092  32.601   7.310
 4989POPC   C1B62995  39.624  32.489   6.183
 4989POPC   C2B62996  39.622  32.649   6.587
 4989POPC   C3B62997  39.571  32.463   6.960
 4989POPC   C4B62998  39.845  32.449   7.276
 4990POPC   NC362999  24.276  17.267   5.524
 4990POPC   PO463000  24.761  17.728   5.448
 4990POPC   GL163001  24.652  17.655   5.887
 4990POPC   GL263002  24.300  17.638   5.905
 4990POPC   C1A63003  24.562  17.473   6.337
 4990POPC   D2A63004  24.570  17.203   6.726
 4990POPC   C3A63005  24.449  17.410   7.127
 4990POPC   C4A63006  24.436  17.557   7.620
 4990POPC   C1B63007  24.049  17.464   6.264
 4990POPC   C2B63008  24.072  17.444   6.726
 4990POPC   C3B63009  23.942  17.270   7.099
 4990POPC   C4B63010  24.057  17.248   7.521
 4991POPC   NC363011  40.262  11.399   5.325
 4991POPC   PO463012  39.933  10.813   5.338
 4991POPC   GL163013  40.087  11.078   5.699
 4991POPC   GL263014  39.888  11.395   5.794
 4991POPC   C1A63015  40.230  11.130   6.133
 4991POPC   D2A63016  40.081  11.040   6.553
 4991POPC   C3A63017  40.317  11.158   6.914
 4991POPC   C4A63018  40.179  11.374   7.286
 4991POPC   C1B63019  39.644  11.457   6.204
 4991POPC   C2B63020  39.772  11.476   6.649
 4991POPC   C3B63021  39.680  11.498   7.122
 4991POPC   C4B63022  39.750  11.634   7.595
 4992POPC   NC363023  21.658   4.745   5.385
 4992POPC   PO463024  21.405   5.435   5.418
 4992POPC   GL163025  21.385   5.042   5.705
 4992POPC   GL263026  21.464   5.265   5.929
 4992POPC   C1A63027  21.456   4.805   6.131
 4992POPC   D2A63028  21.476   5.046   6.539
 4992POPC   C3A63029  21.560   4.875   6.957
 4992POPC   C4A63030  21.655   5.200   7.278
 4992POPC   C1B63031  21.554   5.470   6.277
 4992POPC   C2B63032  21.344   5.556   6.636
 4992POPC   C3B63033  21.238   5.291   6.959
 4992POPC   C4B63034  21.173   5.335   7.383
 4993POPC   NC363035  43.990   6.196   5.106
 4993POPC   PO463036  43.715   5.552   5.351
 4993POPC   GL163037  43.815   5.773   5.748
 4993POPC   GL263038  44.096   5.613   5.915
 4993POPC   C1A63039  43.720   5.952   6.177
 4993POPC   D2A63040  43.870   6.091   6.596
 4993POPC   C3A63041  43.678   6.032   6.990
 4993POPC   C4A63042  43.806   6.144   7.395
 4993POPC   C1B63043  44.225   5.882   6.274
 4993POPC   C2B63044  44.295   5.802   6.712
 4993POPC   C3B63045  44.068   5.661   7.065
 4993POPC   C4B63046  44.100   5.747   7.505
 4994POPC   NC363047  44.746   9.871   5.343
 4994POPC   PO463048  44.469   9.247   5.397
 4994POPC   GL163049  44.495   9.614   5.726
 4994POPC   GL263050  44.793   9.865   5.837
 4994POPC   C1A63051  44.544   9.563   6.179
 4994POPC   D2A63052  44.716   9.744   6.555
 4994POPC   C3A63053  44.577   9.560   6.924
 4994POPC   C4A63054  44.732   9.639   7.336
 4994POPC   C1B63055  44.471  10.053   6.097
 4994POPC   C2B63056  44.297  10.014   6.517
 4994POPC   C3B63057  44.482  10.073   6.925
 4994POPC   C4B63058  44.433  10.236   7.345
 4995POPC   NC363059  15.917   0.360   5.408
 4995POPC   PO463060  15.664   0.992   5.364
 4995POPC   GL163061  15.859   0.737   5.746
 4995POPC   GL263062  15.736   0.389   5.882
 4995POPC   C1A63063  16.129   0.590   6.132
 4995POPC   D2A63064  16.045   0.214   6.392
 4995POPC   C3A63065  16.023   0.236   6.842
 4995POPC   C4A63066  16.116   0.462   7.222
 4995POPC   C1B63067  15.538   0.413   6.296
 4995POPC   C2B63068  15.516   0.379   6.747
 4995POPC   C3B63069  15.539   0.331   7.192
 4995POPC   C4B63070  15.556   0.178   7.660
 4996POPC   NC363071  11.225  26.533   5.417
 4996POPC   PO463072  11.951  26.357   5.402
 4996POPC   GL163073  11.665  26.637   5.726
 4996POPC   GL263074  11.484  27.007   5.732
 4996POPC   C1A63075  11.453  26.715   6.155
 4996POPC   D2A63076  11.140  26.725   6.465
 4996POPC   C3A63077  11.225  26.739   6.902
 4996POPC   C4A63078  11.062  26.582   7.317
 4996POPC   C1B63079  11.490  27.215   6.171
 4996POPC   C2B63080  11.582  27.046   6.578
 4996POPC   C3B63081  11.619  27.048   7.023
 4996POPC   C4B63082  11.517  26.790   7.402
 4997POPC   NC363083  24.321  17.969   5.383
 4997POPC   PO463084  24.909  18.280   5.418
 4997POPC   GL163085  24.633  18.407   5.752
 4997POPC   GL263086  24.416  18.150   5.843
 4997POPC   C1A63087  24.577  18.527   6.198
 4997POPC   D2A63088  24.363  18.383   6.567
 4997POPC   C3A63089  24.389  18.592   6.962
 4997POPC   C4A63090  24.374  18.459   7.343
 4997POPC   C1B63091  24.482  17.990   6.245
 4997POPC   C2B63092  24.291  17.885   6.642
 4997POPC   C3B63093  24.395  18.065   7.016
 4997POPC   C4B63094  24.682  17.896   7.300
 4998POPC   NC363095  11.477  31.207   5.196
 4998POPC   PO463096  10.965  31.625   5.011
 4998POPC   GL163097  11.093  31.441   5.535
 4998POPC   GL263098  11.433  31.509   5.635
 4998POPC   C1A63099  11.093  31.452   6.033
 4998POPC   D2A63100  10.936  31.605   6.443
 4998POPC   C3A63101  11.181  31.747   6.813
 4998POPC   C4A63102  11.229  31.571   7.197
 4998POPC   C1B63103  11.596  31.384   6.056
 4998POPC   C2B63104  11.519  31.427   6.508
 4998POPC   C3B63105  11.618  31.378   6.946
 4998POPC   C4B63106  11.675  31.112   7.294
 4999POPC   NC363107   0.200  18.757   5.499
 4999POPC   PO463108   0.604  19.340   5.565
 4999POPC   GL163109   0.292  19.178   5.828
 4999POPC   GL263110   0.484  18.889   5.918
 4999POPC   C1A63111   0.201  19.254   6.248
 4999POPC   D2A63112   0.001  19.155   6.599
 4999POPC   C3A63113   0.299  19.158   6.870
 4999POPC   C4A63114   0.241  19.058   7.272
 4999POPC   C1B63115   0.236  18.742   6.270
 4999POPC   C2B63116   0.324  18.693   6.709
 4999POPC   C3B63117   0.576  18.713   7.082
 4999POPC   C4B63118   0.571  18.640   7.520
 5000POPC   NC363119  19.375  22.941   5.375
 5000POPC   PO463120  18.713  22.982   5.408
 5000POPC   GL163121  18.974  22.908   5.786
 5000POPC   GL263122  19.332  22.807   5.863
 5000POPC   C1A63123  18.950  22.822   6.236
 5000POPC   D2A63124  18.637  22.721   6.567
 5000POPC   C3A63125  18.855  22.867   6.936
 5000POPC   C4A63126  19.037  22.944   7.349
 5000POPC   C1B63127  19.462  23.125   6.166
 5000POPC   C2B63128  19.397  23.366   6.567
 5000POPC   C3B63129  19.370  23.146   6.982
 5000POPC   C4B63130  19.383  22.685   7.077
 5001POPC   NC363131  13.723  29.655   5.425
 5001POPC   PO463132  13.216  30.084   5.318
 5001POPC   GL163133  13.585  30.105   5.701
 5001POPC   GL263134  13.852  29.833   5.874
 5001POPC   C1A63135  13.673  30.166   6.188
 5001POPC   D2A63136  13.516  30.017   6.592
 5001POPC   C3A63137  13.827  30.060   6.939
 5001POPC   C4A63138  13.706  30.240   7.354
 5001POPC   C1B63139  13.760  29.621   6.302
 5001POPC   C2B63140  13.694  29.575   6.793
 5001POPC   C3B63141  13.606  29.697   7.251
 5001POPC   C4B63142  13.543  29.525   7.703
 5002POPC   NC363143  29.872   5.275   5.331
 5002POPC   PO463144  29.881   6.059   5.280
 5002POPC   GL163145  29.866   5.995   5.772
 5002POPC   GL263146  29.934   5.721   6.054
 5002POPC   C1A63147  29.647   6.109   6.182
 5002POPC   D2A63148  29.790   5.904   6.577
 5002POPC   C3A63149  30.093   6.111   6.827
 5002POPC   C4A63150  30.180   6.130   7.253
 5002POPC   C1B63151  30.209   5.489   6.328
 5002POPC   C2B63152  30.207   5.502   6.785
 5002POPC   C3B63153  29.967   5.693   7.094
 5002POPC   C4B63154  29.568   5.885   7.062
 5003POPC   NC363155  12.024  42.114   5.268
 5003POPC   PO463156  12.323  42.681   5.602
 5003POPC   GL163157  12.250  42.382   5.874
 5003POPC   GL263158  12.241  42.062   5.727
 5003POPC   C1A63159  12.352  42.448   6.273
 5003POPC   D2A63160  12.278  42.702   6.617
 5003POPC   C3A63161  12.364  42.517   6.978
 5003POPC   C4A63162  12.230  42.397   7.372
 5003POPC   C1B63163  12.101  42.011   6.185
 5003POPC   C2B63164  12.095  42.164   6.607
 5003POPC   C3B63165  12.247  42.020   6.977
 5003POPC   C4B63166  11.913  42.034   7.232
 5004POPC   NC363167  18.385  10.612   5.338
 5004POPC   PO463168  17.880  10.672   5.680
 5004POPC   GL163169  18.129  10.419   5.825
 5004POPC   GL263170  18.443  10.528   5.852
 5004POPC   C1A63171  18.164  10.266   6.244
 5004POPC   D2A63172  18.511  10.223   6.559
 5004POPC   C3A63173  18.367  10.356   6.965
 5004POPC   C4A63174  18.438  10.456   7.382
 5004POPC   C1B63175  18.599  10.723   6.252
 5004POPC   C2B63176  18.588  10.982   6.641
 5004POPC   C3B63177  18.668  10.785   7.043
 5004POPC   C4B63178  18.894  10.638   7.403
 5005POPC   NC363179  18.016  40.932   5.342
 5005POPC   PO463180  18.737  40.987   5.432
 5005POPC   GL163181  18.367  40.970   5.697
 5005POPC   GL263182  18.296  40.600   5.672
 5005POPC   C1A63183  18.220  40.954   6.127
 5005POPC   D2A63184  18.316  41.135   6.553
 5005POPC   C3A63185  18.205  40.925   6.925
 5005POPC   C4A63186  18.532  40.739   7.151
 5005POPC   C1B63187  18.313  40.453   6.104
 5005POPC   C2B63188  18.263  40.584   6.542
 5005POPC   C3B63189  18.199  40.397   6.966
 5005POPC   C4B63190  17.838  40.237   7.230
 5006POPC   NC363191  42.333  41.116   5.391
 5006POPC   PO463192  42.239  40.510   5.671
 5006POPC   GL163193  42.255  40.875   5.882
 5006POPC   GL263194  41.987  41.113   5.773
 5006POPC   C1A63195  42.270  40.749   6.331
 5006POPC   D2A63196  42.599  40.570   6.616
 5006POPC   C3A63197  42.565  40.591   7.070
 5006POPC   C4A63198  42.587  40.614   7.521
 5006POPC   C1B63199  42.133  41.234   6.212
 5006POPC   C2B63200  42.314  41.164   6.612
 5006POPC   C3B63201  42.094  41.143   6.972
 5006POPC   C4B63202  42.212  40.884   7.287
 5007POPC   NC363203  38.302  40.952   5.655
 5007POPC   PO463204  38.549  40.403   5.451
 5007POPC   GL163205  38.729  40.641   5.841
 5007POPC   GL263206  38.794  40.990   5.923
 5007POPC   C1A63207  38.638  40.712   6.320
 5007POPC   D2A63208  38.345  40.596   6.617
 5007POPC   C3A63209  38.513  40.501   6.980
 5007POPC   C4A63210  38.391  40.700   7.365
 5007POPC   C1B63211  38.503  41.190   6.204
 5007POPC   C2B63212  38.357  41.118   6.570
 5007POPC   C3B63213  38.588  40.990   6.872
 5007POPC   C4B63214  38.557  41.160   7.225
 5008POPC   NC363215  19.770  44.772   5.358
 5008POPC   PO463216  19.356   0.266   5.697
 5008POPC   GL163217  19.591  44.895   5.921
 5008POPC   GL263218  19.912  44.683   5.839
 5008POPC   C1A63219  19.878  44.889   6.302
 5008POPC   D2A63220  19.678  44.762   6.678
 5008POPC   C3A63221  19.881  44.865   7.055
 5008POPC   C4A63222  19.708  44.736   7.437
 5008POPC   C1B63223  19.641  44.466   6.194
 5008POPC   C2B63224  19.748  44.285   6.565
 5008POPC   C3B63225  19.797  44.349   7.006
 5008POPC   C4B63226  19.773  44.213   7.454
 5009POPC   NC363227  38.091   8.430   5.586
 5009POPC   PO463228  37.805   7.914   5.276
 5009POPC   GL163229  37.840   7.988   5.756
 5009POPC   GL263230  37.498   8.108   5.671
 5009POPC   C1A63231  37.926   8.106   6.241
 5009POPC   D2A63232  37.942   8.420   6.610
 5009POPC   C3A63233  37.886   8.310   7.064
 5009POPC   C4A63234  37.652   7.986   7.293
 5009POPC   C1B63235  37.450   8.067   6.099
 5009POPC   C2B63236  37.400   8.052   6.553
 5009POPC   C3B63237  37.291   7.875   6.961
 5009POPC   C4B63238  37.139   8.015   7.387
 5010POPC   NC363239   8.071   0.209   5.277
 5010POPC   PO463240   8.111   0.875   5.333
 5010POPC   GL163241   8.202   0.603   5.703
 5010POPC   GL263242   7.969   0.687   5.916
 5010POPC   C1A63243   8.377   0.597   6.178
 5010POPC   D2A63244   8.547   0.665   6.619
 5010POPC   C3A63245   8.261   0.513   6.957
 5010POPC   C4A63246   8.284   0.307   7.350
 5010POPC   C1B63247   7.792   0.894   6.263
 5010POPC   C2B63248   7.950   0.872   6.663
 5010POPC   C3B63249   7.830   0.815   7.084
 5010POPC   C4B63250   7.943   0.649   7.491
 5011POPC   NC363251  18.532  14.000   5.550
 5011POPC   PO463252  18.418  14.616   5.389
 5011POPC   GL163253  18.454  14.441   5.782
 5011POPC   GL263254  18.799  14.297   5.841
 5011POPC   C1A63255  18.126  14.450   6.091
 5011POPC   D2A63256  17.939  14.379   6.485
 5011POPC   C3A63257  18.224  14.380   6.835
 5011POPC   C4A63258  18.135  14.171   7.189
 5011POPC   C1B63259  18.563  14.145   6.199
 5011POPC   C2B63260  18.562  13.875   6.550
 5011POPC   C3B63261  18.771  14.009   6.901
 5011POPC   C4B63262  18.644  14.120   7.296
 5012POPC   NC363263  42.521  15.940   5.420
 5012POPC   PO463264  42.028  16.322   5.271
 5012POPC   GL163265  42.171  16.202   5.733
 5012POPC   GL263266  42.184  15.843   5.779
 5012POPC   C1A63267  42.349  16.102   6.202
 5012POPC   D2A63268  42.301  15.999   6.674
 5012POPC   C3A63269  42.590  15.917   7.029
 5012POPC   C4A63270  42.598  16.160   7.425
 5012POPC   C1B63271  42.114  15.611   6.160
 5012POPC   C2B63272  41.913  15.712   6.538
 5012POPC   C3B63273  41.796  15.623   6.925
 5012POPC   C4B63274  42.045  15.595   7.247
 5013POPC   NC363275  15.491  14.043   5.386
 5013POPC   PO463276  16.041  14.482   5.331
 5013POPC   GL163277  15.862  14.249   5.683
 5013POPC   GL263278  16.128  14.030   5.733
 5013POPC   C1A63279  15.733  14.180   6.127
 5013POPC   D2A63280  15.739  14.474   6.476
 5013POPC   C3A63281  15.783  14.286   6.858
 5013POPC   C4A63282  15.894  14.463   7.230
 5013POPC   C1B63283  16.222  14.245   6.126
 5013POPC   C2B63284  16.149  14.088   6.552
 5013POPC   C3B63285  16.295  14.181   6.980
 5013POPC   C4B63286  16.265  14.157   7.434
 5014POPC   NC363287  24.012  20.671   5.316
 5014POPC   PO463288  23.622  20.251   5.567
 5014POPC   GL163289  23.733  20.622   5.784
 5014POPC   GL263290  23.410  20.791   5.749
 5014POPC   C1A63291  23.993  20.822   6.136
 5014POPC   D2A63292  24.036  21.040   6.560
 5014POPC   C3A63293  23.922  20.825   6.915
 5014POPC   C4A63294  23.996  20.722   7.334
 5014POPC   C1B63295  23.483  20.804   6.220
 5014POPC   C2B63296  23.491  20.976   6.654
 5014POPC   C3B63297  23.407  20.767   7.063
 5014POPC   C4B63298  23.507  20.834   7.504
 5015POPC   NC363299  27.341  39.363   5.695
 5015POPC   PO463300  26.798  39.347   5.381
 5015POPC   GL163301  26.820  39.141   5.791
 5015POPC   GL263302  26.868  39.438   5.950
 5015POPC   C1A63303  26.983  39.032   6.226
 5015POPC   D2A63304  26.837  39.225   6.622
 5015POPC   C3A63305  26.932  38.966   6.998
 5015POPC   C4A63306  26.740  38.820   7.381
 5015POPC   C1B63307  27.166  39.508   6.294
 5015POPC   C2B63308  27.238  39.631   6.672
 5015POPC   C3B63309  27.097  39.450   7.048
 5015POPC   C4B63310  27.057  39.246   7.429
 5016POPC   NC363311  33.730  27.676   5.040
 5016POPC   PO463312  34.218  27.855   5.534
 5016POPC   GL163313  33.948  27.687   5.848
 5016POPC   GL263314  34.040  27.413   5.937
 5016POPC   C1A63315  33.655  27.640   6.228
 5016POPC   D2A63316  33.612  27.417   6.637
 5016POPC   C3A63317  33.539  27.616   7.034
 5016POPC   C4A63318  33.440  27.632   7.498
 5016POPC   C1B63319  34.162  27.552   6.316
 5016POPC   C2B63320  34.139  27.340   6.665
 5016POPC   C3B63321  33.980  27.277   7.012
 5016POPC   C4B63322  33.918  27.527   7.350
 5017POPC   NC363323   4.152  18.557   5.276
 5017POPC   PO463324   4.822  18.544   5.543
 5017POPC   GL163325   4.417  18.385   5.710
 5017POPC   GL263326   4.238  18.054   5.771
 5017POPC   C1A63327   4.245  18.450   6.102
 5017POPC   D2A63328   4.198  18.368   6.526
 5017POPC   C3A63329   4.471  18.572   6.820
 5017POPC   C4A63330   4.447  18.392   7.222
 5017POPC   C1B63331   4.412  17.972   6.172
 5017POPC   C2B63332   4.238  17.858   6.550
 5017POPC   C3B63333   4.358  17.963   6.937
 5017POPC   C4B63334   4.157  17.968   7.336
 5018POPC   NC363335  10.561  20.038   5.236
 5018POPC   PO463336  10.662  19.502   5.570
 5018POPC   GL163337  10.469  19.727   5.879
 5018POPC   GL263338  10.298  20.007   5.740
 5018POPC   C1A63339  10.364  19.681   6.311
 5018POPC   D2A63340  10.173  19.653   6.718
 5018POPC   C3A63341  10.557  19.693   6.940
 5018POPC   C4A63342  10.755  19.813   7.319
 5018POPC   C1B63343  10.439  20.160   6.168
 5018POPC   C2B63344  10.389  20.111   6.633
 5018POPC   C3B63345  10.350  20.167   7.098
 5018POPC   C4B63346  10.357  20.097   7.577
 5019POPC   NC363347  40.980   5.307   5.437
 5019POPC   PO463348  40.749   4.759   5.463
 5019POPC   GL163349  40.873   4.991   5.873
 5019POPC   GL263350  40.879   5.371   5.914
 5019POPC   C1A63351  40.735   5.099   6.318
 5019POPC   D2A63352  40.634   5.303   6.721
 5019POPC   C3A63353  40.801   5.063   7.038
 5019POPC   C4A63354  41.061   4.820   7.277
 5019POPC   C1B63355  40.835   5.607   6.277
 5019POPC   C2B63356  40.963   5.698   6.682
 5019POPC   C3B63357  40.917   5.560   7.102
 5019POPC   C4B63358  40.518   5.415   7.265
 5020POPC   NC363359  25.519   8.272   5.298
 5020POPC   PO463360  25.909   7.926   5.680
 5020POPC   GL163361  25.531   8.147   5.814
 5020POPC   GL263362  25.214   8.340   5.722
 5020POPC   C1A63363  25.377   8.223   6.202
 5020POPC   D2A63364  25.076   8.124   6.482
 5020POPC   C3A63365  25.348   8.214   6.813
 5020POPC   C4A63366  25.231   8.092   7.200
 5020POPC   C1B63367  24.971   8.504   6.117
 5020POPC   C2B63368  25.070   8.614   6.584
 5020POPC   C3B63369  25.087   8.557   7.077
 5020POPC   C4B63370  25.443   8.516   7.394
 5021POPC   NC363371  22.232  22.756   5.130
 5021POPC   PO463372  21.929  22.835   5.761
 5021POPC   GL163373  22.275  22.983   5.963
 5021POPC   GL263374  22.434  22.648   5.854
 5021POPC   C1A63375  22.341  23.122   6.432
 5021POPC   D2A63376  22.368  23.472   6.758
 5021POPC   C3A63377  22.157  23.325   7.092
 5021POPC   C4A63378  22.078  22.895   7.123
 5021POPC   C1B63379  22.288  22.589   6.267
 5021POPC   C2B63380  22.112  22.683   6.636
 5021POPC   C3B63381  22.167  22.397   6.911
 5021POPC   C4B63382  22.190  22.435   7.291
 5022POPC   NC363383  41.198  26.170   5.490
 5022POPC   PO463384  41.688  25.679   5.419
 5022POPC   GL163385  41.487  25.849   5.771
 5022POPC   GL263386  41.656  26.193   5.756
 5022POPC   C1A63387  41.433  25.967   6.187
 5022POPC   D2A63388  41.606  25.828   6.552
 5022POPC   C3A63389  41.453  25.940   6.927
 5022POPC   C4A63390  41.417  25.783   7.302
 5022POPC   C1B63391  41.709  26.401   6.151
 5022POPC   C2B63392  41.537  26.351   6.537
 5022POPC   C3B63393  41.673  26.412   6.916
 5022POPC   C4B63394  41.784  26.223   7.288
 5023POPC   NC363395  37.173  29.272   5.473
 5023POPC   PO463396  37.337  28.683   5.778
 5023POPC   GL163397  37.043  28.979   5.881
 5023POPC   GL263398  36.813  29.299   5.835
 5023POPC   C1A63399  36.927  28.959   6.273
 5023POPC   D2A63400  37.001  28.670   6.575
 5023POPC   C3A63401  36.941  28.946   6.870
 5023POPC   C4A63402  36.779  28.975   7.270
 5023POPC   C1B63403  37.120  29.430   6.142
 5023POPC   C2B63404  37.142  29.383   6.603
 5023POPC   C3B63405  36.884  29.432   6.997
 5023POPC   C4B63406  36.891  29.460   7.449
 5024POPC   NC363407  32.969  38.972   5.398
 5024POPC   PO463408  33.201  39.621   5.418
 5024POPC   GL163409  33.101  39.325   5.780
 5024POPC   GL263410  32.806  39.147   5.853
 5024POPC   C1A63411  33.270  39.141   6.166
 5024POPC   D2A63412  33.078  38.976   6.524
 5024POPC   C3A63413  33.156  39.185   6.878
 5024POPC   C4A63414  33.192  39.071   7.298
 5024POPC   C1B63415  32.806  39.328   6.264
 5024POPC   C2B63416  32.694  39.309   6.691
 5024POPC   C3B63417  32.717  39.217   7.140
 5024POPC   C4B63418  32.745  39.378   7.557
 5025POPC   NC363419  44.898   6.495   5.399
 5025POPC   PO463420  44.239   6.541   5.344
 5025POPC   GL163421  44.482   6.682   5.707
 5025POPC   GL263422  44.356   7.005   5.801
 5025POPC   C1A63423  44.742   6.739   6.098
 5025POPC   D2A63424  44.683   6.658   6.548
 5025POPC   C3A63425  44.911   6.804   6.894
 5025POPC   C4A63426  44.767   7.025   7.228
 5025POPC   C1B63427  44.267   6.885   6.223
 5025POPC   C2B63428  44.204   6.984   6.648
 5025POPC   C3B63429  44.370   6.793   7.003
 5025POPC   C4B63430  44.580   6.418   7.064
 5026POPC   NC363431  43.712   7.653   5.609
 5026POPC   PO463432  43.686   8.208   5.200
 5026POPC   GL163433  43.859   8.273   5.667
 5026POPC   GL263434  44.053   7.992   5.810
 5026POPC   C1A63435  43.998   8.499   6.109
 5026POPC   D2A63436  44.112   8.569   6.579
 5026POPC   C3A63437  43.859   8.462   6.973
 5026POPC   C4A63438  44.019   8.210   7.327
 5026POPC   C1B63439  43.723   8.071   6.122
 5026POPC   C2B63440  43.758   8.095   6.549
 5026POPC   C3B63441  43.712   7.946   6.959
 5026POPC   C4B63442  43.560   7.977   7.353
 5027POPC   NC363443  10.405   3.786   5.373
 5027POPC   PO463444  10.858   3.360   5.370
 5027POPC   GL163445  10.721   3.595   5.759
 5027POPC   GL263446  10.369   3.566   5.854
 5027POPC   C1A63447  10.835   3.788   6.173
 5027POPC   D2A63448  10.874   3.589   6.579
 5027POPC   C3A63449  10.491   3.621   6.827
 5027POPC   C4A63450  10.474   3.512   7.245
 5027POPC   C1B63451  10.392   3.540   6.295
 5027POPC   C2B63452  10.340   3.201   6.588
 5027POPC   C3B63453  10.177   3.170   7.009
 5027POPC   C4B63454  10.228   3.158   7.481
 5028POPC   NC363455   4.450  32.807   5.513
 5028POPC   PO463456   4.987  33.240   5.339
 5028POPC   GL163457   4.887  32.983   5.695
 5028POPC   GL263458   4.920  33.256   5.900
 5028POPC   C1A63459   5.055  32.805   6.087
 5028POPC   D2A63460   5.248  32.956   6.460
 5028POPC   C3A63461   5.159  32.843   6.862
 5028POPC   C4A63462   5.245  33.076   7.206
 5028POPC   C1B63463   4.962  33.365   6.329
 5028POPC   C2B63464   4.850  33.244   6.747
 5028POPC   C3B63465   4.864  33.428   7.151
 5028POPC   C4B63466   4.742  33.327   7.588
 5029POPC   NC363467   0.494   7.701   5.232
 5029POPC   PO463468   0.763   8.160   5.658
 5029POPC   GL163469   0.451   8.243   5.975
 5029POPC   GL263470   0.265   8.514   6.195
 5029POPC   C1A63471   0.200   8.014   6.264
 5029POPC   D2A63472   0.023   8.171   6.640
 5029POPC   C3A63473   0.367   8.142   6.944
 5029POPC   C4A63474   0.603   7.894   7.226
 5029POPC   C1B63475   0.597   8.377   6.440
 5029POPC   C2B63476   0.789   8.447   6.804
 5029POPC   C3B63477   0.652   8.501   7.201
 5029POPC   C4B63478   0.830   8.555   7.667
 5030POPC   NC363479   2.422  31.104   5.625
 5030POPC   PO463480   1.985  30.755   5.248
 5030POPC   GL163481   2.133  30.664   5.712
 5030POPC   GL263482   2.389  30.410   5.724
 5030POPC   C1A63483   2.032  30.731   6.196
 5030POPC   D2A63484   2.038  30.824   6.674
 5030POPC   C3A63485   1.653  30.926   6.916
 5030POPC   C4A63486   1.570  30.950   7.348
 5030POPC   C1B63487   2.511  30.544   6.148
 5030POPC   C2B63488   2.526  30.391   6.587
 5030POPC   C3B63489   2.268  30.411   6.967
 5030POPC   C4B63490   2.055  30.750   7.222
 5031POPC   NC363491  41.189  38.437   5.416
 5031POPC   PO463492  40.594  38.765   5.599
 5031POPC   GL163493  40.808  38.503   5.883
 5031POPC   GL263494  40.959  38.173   5.796
 5031POPC   C1A63495  40.763  38.565   6.307
 5031POPC   D2A63496  40.825  38.796   6.658
 5031POPC   C3A63497  40.540  38.655   6.961
 5031POPC   C4A63498  40.636  38.632   7.381
 5031POPC   C1B63499  41.071  38.172   6.235
 5031POPC   C2B63500  40.996  38.264   6.675
 5031POPC   C3B63501  41.028  38.410   7.082
 5031POPC   C4B63502  40.994  38.153   7.454
 5032POPC   NC363503  41.029  29.685   5.607
 5032POPC   PO463504  40.647  30.155   5.581
 5032POPC   GL163505  40.618  29.952   5.947
 5032POPC   GL263506  40.612  29.607   5.883
 5032POPC   C1A63507  40.672  29.901   6.369
 5032POPC   D2A63508  41.052  30.024   6.595
 5032POPC   C3A63509  41.019  29.823   6.969
 5032POPC   C4A63510  40.641  29.951   7.183
 5032POPC   C1B63511  40.802  29.412   6.257
 5032POPC   C2B63512  40.681  29.474   6.688
 5032POPC   C3B63513  40.358  29.551   6.993
 5032POPC   C4B63514  40.420  29.582   7.437
 5033POPC   NC363515  26.803  24.809   5.069
 5033POPC   PO463516  26.986  24.237   5.455
 5033POPC   GL163517  26.954  24.312   5.899
 5033POPC   GL263518  26.599  24.276   5.933
 5033POPC   C1A63519  26.985  24.336   6.337
 5033POPC   D2A63520  26.957  24.678   6.605
 5033POPC   C3A63521  26.739  24.471   6.901
 5033POPC   C4A63522  26.791  24.302   7.268
 5033POPC   C1B63523  26.492  24.586   6.278
 5033POPC   C2B63524  26.442  24.830   6.665
 5033POPC   C3B63525  26.667  24.950   7.053
 5033POPC   C4B63526  26.706  24.783   7.505
 5034POPC   NC363527   2.548   4.727   5.556
 5034POPC   PO463528   3.010   5.213   5.539
 5034POPC   GL163529   2.673   5.127   5.835
 5034POPC   GL263530   2.842   4.869   6.019
 5034POPC   C1A63531   2.401   4.941   6.204
 5034POPC   D2A63532   2.693   4.768   6.534
 5034POPC   C3A63533   2.721   4.974   6.964
 5034POPC   C4A63534   2.891   5.087   7.431
 5034POPC   C1B63535   2.763   5.303   6.281
 5034POPC   C2B63536   2.810   5.530   6.689
 5034POPC   C3B63537   2.795   5.485   7.130
 5034POPC   C4B63538   3.053   5.596   7.514
 5035POPC   NC363539  12.486  32.837   5.527
 5035POPC   PO463540  13.029  33.162   5.591
 5035POPC   GL163541  12.853  32.947   5.865
 5035POPC   GL263542  12.572  33.135   5.940
 5035POPC   C1A63543  12.910  32.805   6.263
 5035POPC   D2A63544  13.107  33.015   6.573
 5035POPC   C3A63545  12.850  32.938   6.883
 5035POPC   C4A63546  13.064  33.028   7.201
 5035POPC   C1B63547  12.884  33.324   6.212
 5035POPC   C2B63548  12.850  33.468   6.599
 5035POPC   C3B63549  12.792  33.420   7.034
 5035POPC   C4B63550  12.549  33.392   7.384
 5036POPC   NC363551  18.354  11.641   5.224
 5036POPC   PO463552  18.191  11.057   5.290
 5036POPC   GL163553  18.262  11.013   5.757
 5036POPC   GL263554  18.570  11.102   5.924
 5036POPC   C1A63555  18.117  11.137   6.197
 5036POPC   D2A63556  18.132  11.422   6.581
 5036POPC   C3A63557  18.145  11.170   6.948
 5036POPC   C4A63558  18.114  10.825   7.231
 5036POPC   C1B63559  18.567  11.400   6.291
 5036POPC   C2B63560  18.667  11.526   6.698
 5036POPC   C3B63561  18.447  11.584   7.076
 5036POPC   C4B63562  18.109  11.510   7.322
 5037POPC   NC363563  25.353  33.149   5.421
 5037POPC   PO463564  24.976  32.680   5.176
 5037POPC   GL163565  25.045  32.748   5.642
 5037POPC   GL263566  25.407  32.816   5.811
 5037POPC   C1A63567  24.965  32.923   6.059
 5037POPC   D2A63568  25.266  32.944   6.400
 5037POPC   C3A63569  25.140  32.778   6.787
 5037POPC   C4A63570  25.215  32.887   7.234
 5037POPC   C1B63571  25.658  32.680   6.190
 5037POPC   C2B63572  25.680  32.751   6.652
 5037POPC   C3B63573  25.571  32.547   7.039
 5037POPC   C4B63574  25.592  32.628   7.519
 5038POPC   NC363575  12.704   9.386   5.530
 5038POPC   PO463576  13.011   8.768   5.626
 5038POPC   GL163577  12.646   8.825   5.845
 5038POPC   GL263578  12.811   9.134   5.960
 5038POPC   C1A63579  12.536   8.858   6.278
 5038POPC   D2A63580  12.747   9.000   6.591
 5038POPC   C3A63581  12.567   8.895   6.933
 5038POPC   C4A63582  12.575   8.822   7.347
 5038POPC   C1B63583  13.063   9.284   6.309
 5038POPC   C2B63584  13.199   9.153   6.756
 5038POPC   C3B63585  13.015   9.057   7.178
 5038POPC   C4B63586  13.231   9.028   7.583
 5039POPC   NC363587   1.241  32.654   5.524
 5039POPC   PO463588   1.570  31.994   5.490
 5039POPC   GL163589   1.260  32.212   5.843
 5039POPC   GL263590   1.004  32.547   5.943
 5039POPC   C1A63591   1.128  32.191   6.283
 5039POPC   D2A63592   0.997  32.489   6.582
 5039POPC   C3A63593   1.065  32.396   7.025
 5039POPC   C4A63594   0.869  32.061   7.277
 5039POPC   C1B63595   1.347  32.661   6.210
 5039POPC   C2B63596   1.510  32.515   6.615
 5039POPC   C3B63597   1.501  32.719   7.043
 5039POPC   C4B63598   1.299  32.656   7.471
 5040POPC   NC363599  18.705  36.348   5.181
 5040POPC   PO463600  19.112  35.890   5.431
 5040POPC   GL163601  18.936  36.032   5.810
 5040POPC   GL263602  18.817  36.374   5.749
 5040POPC   C1A63603  18.966  35.877   6.239
 5040POPC   D2A63604  18.868  35.628   6.598
 5040POPC   C3A63605  18.893  35.883   6.894
 5040POPC   C4A63606  18.774  35.950   7.281
 5040POPC   C1B63607  19.037  36.448   6.162
 5040POPC   C2B63608  19.093  36.274   6.591
 5040POPC   C3B63609  18.938  36.383   7.028
 5040POPC   C4B63610  18.934  36.372   7.486
 5041POPC   NC363611  27.749  34.035   5.496
 5041POPC   PO463612  27.408  33.450   5.427
 5041POPC   GL163613  27.550  33.633   5.812
 5041POPC   GL263614  27.915  33.553   5.751
 5041POPC   C1A63615  27.397  33.740   6.278
 5041POPC   D2A63616  27.402  33.589   6.724
 5041POPC   C3A63617  27.324  33.938   6.996
 5041POPC   C4A63618  27.713  34.178   7.109
 5041POPC   C1B63619  27.850  33.507   6.205
 5041POPC   C2B63620  27.938  33.689   6.603
 5041POPC   C3B63621  27.809  33.664   7.028
 5041POPC   C4B63622  27.480  33.544   7.270
 5042POPC   NC363623  16.452  17.449   5.511
 5042POPC   PO463624  15.945  17.229   5.138
 5042POPC   GL163625  15.899  17.491   5.629
 5042POPC   GL263626  16.088  17.330   5.863
 5042POPC   C1A63627  15.972  17.751   6.083
 5042POPC   D2A63628  15.935  18.008   6.464
 5042POPC   C3A63629  15.873  17.782   6.878
 5042POPC   C4A63630  15.734  17.633   7.293
 5042POPC   C1B63631  15.687  17.346   6.117
 5042POPC   C2B63632  15.638  17.514   6.513
 5042POPC   C3B63633  15.734  17.284   6.905
 5042POPC   C4B63634  15.446  17.203   7.261
 5043POPC   NC363635  36.472  24.153   5.540
 5043POPC   PO463636  35.862  24.296   5.375
 5043POPC   GL163637  36.014  24.440   5.769
 5043POPC   GL263638  36.367  24.577   5.865
 5043POPC   C1A63639  35.872  24.568   6.170
 5043POPC   D2A63640  35.955  24.343   6.545
 5043POPC   C3A63641  35.836  24.353   6.961
 5043POPC   C4A63642  36.130  24.220   7.330
 5043POPC   C1B63643  36.359  24.673   6.327
 5043POPC   C2B63644  36.161  24.779   6.732
 5043POPC   C3B63645  36.158  24.703   7.176
 5043POPC   C4B63646  36.533  24.605   7.445
 5044POPC   NC363647  43.281   0.471   5.440
 5044POPC   PO463648  42.713   0.267   5.681
 5044POPC   GL163649  43.044   0.471   5.890
 5044POPC   GL263650  43.362   0.220   5.886
 5044POPC   C1A63651  42.975   0.676   6.279
 5044POPC   D2A63652  42.893   0.538   6.684
 5044POPC   C3A63653  43.092   0.385   7.004
 5044POPC   C4A63654  43.032   0.629   7.337
 5044POPC   C1B63655  43.502   0.577   6.171
 5044POPC   C2B63656  43.385   0.716   6.602
 5044POPC   C3B63657  43.529   0.683   7.041
 5044POPC   C4B63658  43.493   0.366   7.340
 5045POPC   NC363659  35.435  38.743   5.194
 5045POPC   PO463660  35.698  38.170   5.289
 5045POPC   GL163661  35.591  38.186   5.791
 5045POPC   GL263662  35.225  38.296   5.878
 5045POPC   C1A63663  35.497  38.207   6.289
 5045POPC   D2A63664  35.494  38.372   6.719
 5045POPC   C3A63665  35.332  38.141   7.085
 5045POPC   C4A63666  35.468  38.409   7.453
 5045POPC   C1B63667  35.143  38.643   6.207
 5045POPC   C2B63668  35.166  38.768   6.654
 5045POPC   C3B63669  35.164  38.608   7.074
 5045POPC   C4B63670  35.060  38.722   7.517
 5046POPC   NC363671  15.044  25.061   5.281
 5046POPC   PO463672  15.440  25.507   5.462
 5046POPC   GL163673  15.337  25.149   5.733
 5046POPC   GL263674  14.989  25.079   5.803
 5046POPC   C1A63675  15.383  25.045   6.167
 5046POPC   D2A63676  15.371  25.324   6.537
 5046POPC   C3A63677  15.464  25.100   6.921
 5046POPC   C4A63678  15.246  24.987   7.285
 5046POPC   C1B63679  14.999  25.400   6.144
 5046POPC   C2B63680  14.866  25.454   6.585
 5046POPC   C3B63681  15.010  25.373   7.012
 5046POPC   C4B63682  15.055  25.648   7.365
 5047POPC   NC363683   0.152  42.082   5.390
 5047POPC   PO463684  44.453  41.879   5.415
 5047POPC   GL163685  44.486  42.155   5.790
 5047POPC   GL263686  44.741  42.399   5.697
 5047POPC   C1A63687  44.432  42.384   6.202
 5047POPC   D2A63688  44.514  42.527   6.603
 5047POPC   C3A63689  44.251  42.420   6.907
 5047POPC   C4A63690  44.397  42.368   7.287
 5047POPC   C1B63691  44.927  42.328   6.118
 5047POPC   C2B63692  44.971  42.219   6.560
 5047POPC   C3B63693  44.818  42.309   6.980
 5047POPC   C4B63694  44.831  42.595   7.336
 5048POPC   NC363695  33.978  14.035   5.607
 5048POPC   PO463696  33.512  14.319   5.251
 5048POPC   GL163697  33.606  14.362   5.727
 5048POPC   GL263698  33.326  14.534   5.799
 5048POPC   C1A63699  33.765  14.187   6.184
 5048POPC   D2A63700  34.035  14.097   6.556
 5048POPC   C3A63701  33.858  14.330   6.896
 5048POPC   C4A63702  33.651  14.173   7.269
 5048POPC   C1B63703  33.501  14.613   6.209
 5048POPC   C2B63704  33.505  14.588   6.627
 5048POPC   C3B63705  33.592  14.796   6.989
 5048POPC   C4B63706  33.852  14.639   7.312
 5049POPC   NC363707  36.789  40.744   5.390
 5049POPC   PO463708  36.276  41.156   5.660
 5049POPC   GL163709  36.727  41.088   5.773
 5049POPC   GL263710  36.776  40.728   5.899
 5049POPC   C1A63711  37.045  41.097   6.115
 5049POPC   D2A63712  37.048  40.835   6.472
 5049POPC   C3A63713  37.066  40.860   6.917
 5049POPC   C4A63714  36.715  40.700   7.137
 5049POPC   C1B63715  36.785  40.426   6.235
 5049POPC   C2B63716  36.948  40.346   6.644
 5049POPC   C3B63717  37.088  40.344   7.063
 5049POPC   C4B63718  37.194  40.637   7.367
 5050POPC   NC363719  35.309   3.470   5.412
 5050POPC   PO463720  35.322   2.809   5.573
 5050POPC   GL163721  35.520   3.190   5.824
 5050POPC   GL263722  35.622   3.584   5.795
 5050POPC   C1A63723  35.414   3.393   6.233
 5050POPC   D2A63724  35.280   3.682   6.559
 5050POPC   C3A63725  35.278   3.442   6.952
 5050POPC   C4A63726  35.099   3.430   7.348
 5050POPC   C1B63727  35.790   3.782   6.157
 5050POPC   C2B63728  35.790   3.630   6.569
 5050POPC   C3B63729  35.641   3.782   6.962
 5050POPC   C4B63730  35.591   3.556   7.397
 5051POPC   NC363731  37.918  10.183   5.432
 5051POPC   PO463732  37.689   9.590   5.491
 5051POPC   GL163733  37.592   9.614   5.894
 5051POPC   GL263734  37.276   9.755   5.897
 5051POPC   C1A63735  37.836   9.606   6.274
 5051POPC   D2A63736  38.072   9.687   6.610
 5051POPC   C3A63737  37.824   9.736   6.942
 5051POPC   C4A63738  37.900   9.904   7.306
 5051POPC   C1B63739  37.322   9.671   6.339
 5051POPC   C2B63740  37.334   9.794   6.767
 5051POPC   C3B63741  37.382   9.854   7.175
 5051POPC   C4B63742  37.456   9.566   7.451
 5052POPC   NC363743  35.801  18.618   5.563
 5052POPC   PO463744  35.594  19.202   5.369
 5052POPC   GL163745  35.331  19.029   5.700
 5052POPC   GL263746  35.006  19.128   5.865
 5052POPC   C1A63747  35.463  18.984   6.118
 5052POPC   D2A63748  35.449  19.134   6.516
 5052POPC   C3A63749  35.290  18.858   6.763
 5052POPC   C4A63750  35.321  18.864   7.172
 5052POPC   C1B63751  34.966  18.948   6.302
 5052POPC   C2B63752  34.899  19.160   6.694
 5052POPC   C3B63753  35.256  19.339   6.953
 5052POPC   C4B63754  35.656  19.327   7.167
 5053POPC   NC363755  35.331  26.809   5.414
 5053POPC   PO463756  35.822  27.269   5.399
 5053POPC   GL163757  35.695  27.019   5.777
 5053POPC   GL263758  35.708  26.668   5.759
 5053POPC   C1A63759  35.408  26.894   6.118
 5053POPC   D2A63760  35.213  27.040   6.501
 5053POPC   C3A63761  35.462  27.007   6.866
 5053POPC   C4A63762  35.214  27.065   7.199
 5053POPC   C1B63763  35.564  26.408   6.110
 5053POPC   C2B63764  35.427  26.560   6.525
 5053POPC   C3B63765  35.155  26.601   6.877
 5053POPC   C4B63766  35.398  26.577   7.234
 5054POPC   NC363767  15.155  16.424   5.434
 5054POPC   PO463768  15.048  15.874   5.699
 5054POPC   GL163769  15.201  16.061   6.001
 5054POPC   GL263770  15.503  16.129   5.846
 5054POPC   C1A63771  15.135  15.819   6.372
 5054POPC   D2A63772  15.081  15.990   6.728
 5054POPC   C3A63773  14.999  15.774   7.093
 5054POPC   C4A63774  14.971  15.806   7.512
 5054POPC   C1B63775  15.572  15.731   6.129
 5054POPC   C2B63776  15.615  15.861   6.565
 5054POPC   C3B63777  15.505  15.880   6.986
 5054POPC   C4B63778  15.474  15.586   7.303
 5055POPC   NC363779  12.605  10.375   5.638
 5055POPC   PO463780  13.225  10.773   5.512
 5055POPC   GL163781  13.110  10.503   5.829
 5055POPC   GL263782  13.163  10.131   5.773
 5055POPC   C1A63783  13.049  10.645   6.258
 5055POPC   D2A63784  13.079  10.789   6.701
 5055POPC   C3A63785  12.695  10.689   6.986
 5055POPC   C4A63786  12.749  10.506   7.384
 5055POPC   C1B63787  12.939  10.154   6.172
 5055POPC   C2B63788  13.110  10.231   6.574
 5055POPC   C3B63789  13.039  10.319   6.991
 5055POPC   C4B63790  13.135  10.184   7.411
 5056POPC   NC363791  16.923  11.613   5.468
 5056POPC   PO463792  16.792  12.342   5.395
 5056POPC   GL163793  16.556  12.105   5.751
 5056POPC   GL263794  16.441  11.739   5.705
 5056POPC   C1A63795  16.567  12.245   6.190
 5056POPC   D2A63796  16.868  12.459   6.476
 5056POPC   C3A63797  16.766  12.419   6.904
 5056POPC   C4A63798  16.735  12.219   7.293
 5056POPC   C1B63799  16.682  11.742   6.112
 5056POPC   C2B63800  16.765  11.929   6.535
 5056POPC   C3B63801  16.598  11.842   6.948
 5056POPC   C4B63802  16.786  11.703   7.315
 5057POPC   NC363803   3.608  23.327   5.425
 5057POPC   PO463804   3.333  22.720   5.370
 5057POPC   GL163805   3.470  22.928   5.762
 5057POPC   GL263806   3.311  23.244   5.834
 5057POPC   C1A63807   3.367  22.883   6.210
 5057POPC   D2A63808   3.593  22.954   6.590
 5057POPC   C3A63809   3.339  22.978   6.942
 5057POPC   C4A63810   3.340  22.777   7.318
 5057POPC   C1B63811   3.667  23.288   6.157
 5057POPC   C2B63812   3.793  23.436   6.551
 5057POPC   C3B63813   3.602  23.420   6.949
 5057POPC   C4B63814   3.661  23.174   7.326
 5058POPC   NC363815  30.344  31.854   5.586
 5058POPC   PO463816  30.777  31.390   5.313
 5058POPC   GL163817  30.629  31.462   5.755
 5058POPC   GL263818  30.891  31.357   5.916
 5058POPC   C1A63819  30.432  31.278   6.196
 5058POPC   D2A63820  30.495  31.075   6.601
 5058POPC   C3A63821  30.375  31.315   6.983
 5058POPC   C4A63822  30.501  31.490   7.384
 5058POPC   C1B63823  30.945  31.159   6.302
 5058POPC   C2B63824  30.931  31.314   6.693
 5058POPC   C3B63825  30.905  31.363   7.100
 5058POPC   C4B63826  31.113  31.345   7.491
 5059POPC   NC363827  21.823  19.907   5.360
 5059POPC   PO463828  21.322  20.050   5.632
 5059POPC   GL163829  21.289  19.809   5.965
 5059POPC   GL263830  21.527  19.548   5.889
 5059POPC   C1A63831  21.500  19.764   6.358
 5059POPC   D2A63832  21.762  19.547   6.664
 5059POPC   C3A63833  21.581  19.722   7.003
 5059POPC   C4A63834  21.196  19.993   7.126
 5059POPC   C1B63835  21.185  19.366   6.196
 5059POPC   C2B63836  21.190  19.461   6.643
 5059POPC   C3B63837  21.060  19.295   7.013
 5059POPC   C4B63838  21.258  19.514   7.314
 5060POPC   NC363839   9.703  11.557   5.382
 5060POPC   PO463840  10.022  10.922   5.488
 5060POPC   GL163841   9.844  11.224   5.789
 5060POPC   GL263842   9.483  11.326   5.779
 5060POPC   C1A63843   9.679  11.111   6.207
 5060POPC   D2A63844   9.651  11.293   6.606
 5060POPC   C3A63845   9.566  11.106   6.983
 5060POPC   C4A63846   9.797  11.071   7.320
 5060POPC   C1B63847   9.372  11.606   6.097
 5060POPC   C2B63848   9.237  11.564   6.503
 5060POPC   C3B63849   9.381  11.630   6.898
 5060POPC   C4B63850   9.522  11.519   7.269
 5061POPC   NC363851   2.347   9.194   5.475
 5061POPC   PO463852   1.838   8.795   5.480
 5061POPC   GL163853   1.952   9.084   5.768
 5061POPC   GL263854   2.173   8.823   5.924
 5061POPC   C1A63855   2.120   9.292   6.134
 5061POPC   D2A63856   2.117   9.027   6.457
 5061POPC   C3A63857   2.125   9.173   6.880
 5061POPC   C4A63858   1.958   9.157   7.286
 5061POPC   C1B63859   2.236   8.533   6.293
 5061POPC   C2B63860   2.293   8.637   6.728
 5061POPC   C3B63861   2.183   8.701   7.154
 5061POPC   C4B63862   2.149   8.734   7.604
 5062POPC   NC363863  25.614   9.801   5.328
 5062POPC   PO463864  25.032   9.534   5.285
 5062POPC   GL163865  25.196   9.589   5.691
 5062POPC   GL263866  25.239   9.947   5.691
 5062POPC   C1A63867  25.236   9.492   6.166
 5062POPC   D2A63868  24.956   9.466   6.544
 5062POPC   C3A63869  25.174   9.523   6.938
 5062POPC   C4A63870  25.477   9.665   7.233
 5062POPC   C1B63871  25.174  10.007   6.148
 5062POPC   C2B63872  25.295  10.049   6.595
 5062POPC   C3B63873  25.186  10.044   7.020
 5062POPC   C4B63874  24.933  10.183   7.316
 5063POPC   NC363875  34.190  44.806   5.379
 5063POPC   PO463876  34.796  44.664   5.321
 5063POPC   GL163877  34.701  44.757   5.772
 5063POPC   GL263878  34.891  44.425   5.781
 5063POPC   C1A63879  34.643  44.889   6.234
 5063POPC   D2A63880  34.581   0.016   6.677
 5063POPC   C3A63881  34.611  44.729   7.025
 5063POPC   C4A63882  34.460  44.702   7.443
 5063POPC   C1B63883  34.622  44.398   6.143
 5063POPC   C2B63884  34.666  44.472   6.569
 5063POPC   C3B63885  34.748  44.231   6.919
 5063POPC   C4B63886  34.727  44.302   7.335
 5064POPC   NC363887   8.426  32.175   5.546
 5064POPC   PO463888   7.886  32.330   5.232
 5064POPC   GL163889   7.926  32.254   5.702
 5064POPC   GL263890   8.202  32.426   5.911
 5064POPC   C1A63891   7.998  32.022   6.117
 5064POPC   D2A63892   8.272  32.159   6.460
 5064POPC   C3A63893   8.146  32.081   6.878
 5064POPC   C4A63894   8.275  32.101   7.272
 5064POPC   C1B63895   8.064  32.604   6.305
 5064POPC   C2B63896   8.116  32.582   6.753
 5064POPC   C3B63897   8.100  32.549   7.188
 5064POPC   C4B63898   8.055  32.367   7.640
 5065POPC   NC363899  43.677  40.148   5.383
 5065POPC   PO463900  43.780  39.510   5.405
 5065POPC   GL163901  44.035  39.730   5.806
 5065POPC   GL263902  43.981  40.123   5.840
 5065POPC   C1A63903  44.128  39.862   6.256
 5065POPC   D2A63904  43.941  40.014   6.665
 5065POPC   C3A63905  44.173  39.796   7.016
 5065POPC   C4A63906  43.970  39.811   7.427
 5065POPC   C1B63907  43.688  40.170   6.227
 5065POPC   C2B63908  43.474  40.233   6.658
 5065POPC   C3B63909  43.644  40.121   7.090
 5065POPC   C4B63910  43.491  39.998   7.517
 5066POPC   NC363911  41.888  33.243   5.281
 5066POPC   PO463912  42.405  32.761   5.460
 5066POPC   GL163913  42.128  32.991   5.740
 5066POPC   GL263914  42.055  32.713   5.875
 5066POPC   C1A63915  42.210  33.202   6.163
 5066POPC   D2A63916  42.487  33.304   6.537
 5066POPC   C3A63917  42.396  33.159   6.944
 5066POPC   C4A63918  42.001  33.188   7.085
 5066POPC   C1B63919  42.340  32.718   6.189
 5066POPC   C2B63920  42.223  32.854   6.582
 5066POPC   C3B63921  41.991  32.670   6.908
 5066POPC   C4B63922  41.891  32.734   7.306
 5067POPC   NC363923   1.166  28.649   5.464
 5067POPC   PO463924   1.637  28.173   5.504
 5067POPC   GL163925   1.407  28.372   5.820
 5067POPC   GL263926   1.142  28.152   5.883
 5067POPC   C1A63927   1.257  28.552   6.205
 5067POPC   D2A63928   1.333  28.412   6.622
 5067POPC   C3A63929   1.143  28.668   6.919
 5067POPC   C4A63930   0.970  28.541   7.298
 5067POPC   C1B63931   1.359  27.876   6.203
 5067POPC   C2B63932   1.309  27.822   6.655
 5067POPC   C3B63933   1.095  28.104   6.956
 5067POPC   C4B63934   1.424  28.295   7.200
 5068POPC   NC363935  10.595   1.564   5.459
 5068POPC   PO463936  10.623   0.906   5.346
 5068POPC   GL163937  10.723   1.201   5.763
 5068POPC   GL263938  10.349   1.336   5.847
 5068POPC   C1A63939  10.673   1.173   6.214
 5068POPC   D2A63940  10.568   1.392   6.604
 5068POPC   C3A63941  10.634   1.073   6.900
 5068POPC   C4A63942  10.747   0.935   7.313
 5068POPC   C1B63943  10.171   1.271   6.285
 5068POPC   C2B63944  10.133   1.114   6.717
 5068POPC   C3B63945  10.264   1.335   7.105
 5068POPC   C4B63946  10.265   1.443   7.572
 5069POPC   NC363947  29.551  39.276   5.028
 5069POPC   PO463948  30.202  39.349   5.250
 5069POPC   GL163949  29.998  39.197   5.686
 5069POPC   GL263950  30.181  39.035   5.939
 5069POPC   C1A63951  29.783  39.296   6.106
 5069POPC   D2A63952  29.698  39.166   6.522
 5069POPC   C3A63953  29.570  39.316   6.931
 5069POPC   C4A63954  29.729  39.079   7.290
 5069POPC   C1B63955  30.267  38.955   6.321
 5069POPC   C2B63956  30.103  38.964   6.735
 5069POPC   C3B63957  30.161  39.227   7.083
 5069POPC   C4B63958  30.147  39.404   7.496
 5070POPC   NC363959  25.296  21.116   5.490
 5070POPC   PO463960  25.276  20.468   5.383
 5070POPC   GL163961  25.363  20.698   5.791
 5070POPC   GL263962  25.686  20.844   5.803
 5070POPC   C1A63963  25.296  20.617   6.238
 5070POPC   D2A63964  25.006  20.651   6.610
 5070POPC   C3A63965  24.945  20.421   7.025
 5070POPC   C4A63966  24.991  20.468   7.489
 5070POPC   C1B63967  25.691  20.959   6.246
 5070POPC   C2B63968  25.546  20.742   6.662
 5070POPC   C3B63969  25.365  20.730   7.073
 5070POPC   C4B63970  25.575  20.831   7.463
 5071POPC   NC363971  38.495  28.793   5.605
 5071POPC   PO463972  38.562  29.485   5.557
 5071POPC   GL163973  38.667  29.210   5.873
 5071POPC   GL263974  38.300  29.143   5.955
 5071POPC   C1A63975  38.650  29.060   6.295
 5071POPC   D2A63976  38.504  29.314   6.617
 5071POPC   C3A63977  38.620  29.224   7.030
 5071POPC   C4A63978  38.412  29.329   7.395
 5071POPC   C1B63979  38.165  28.918   6.372
 5071POPC   C2B63980  38.274  28.896   6.851
 5071POPC   C3B63981  38.360  28.819   7.320
 5071POPC   C4B63982  38.482  28.692   7.765
 5072POPC   NC363983   2.356  36.208   5.427
 5072POPC   PO463984   1.674  36.430   5.310
 5072POPC   GL163985   1.778  36.132   5.694
 5072POPC   GL263986   2.091  36.222   5.877
 5072POPC   C1A63987   1.720  36.015   6.168
 5072POPC   D2A63988   1.674  35.881   6.629
 5072POPC   C3A63989   1.788  36.208   6.931
 5072POPC   C4A63990   1.781  36.169   7.399
 5072POPC   C1B63991   2.318  36.391   6.270
 5072POPC   C2B63992   2.270  36.383   6.751
 5072POPC   C3B63993   2.273  36.235   7.183
 5072POPC   C4B63994   2.214  35.964   7.570
 5073POPC   NC363995  26.320  35.357   5.551
 5073POPC   PO463996  25.732  35.066   5.419
 5073POPC   GL163997  25.769  35.303   5.808
 5073POPC   GL263998  25.939  35.628   5.786
 5073POPC   C1A63999  25.716  35.163   6.207
 5073POPC   D2A64000  26.013  35.106   6.498
 5073POPC   C3A64001  25.902  35.178   6.920
 5073POPC   C4A64002  26.214  35.272   7.234
 5073POPC   C1B64003  26.257  35.605   6.183
 5073POPC   C2B64004  26.427  35.439   6.594
 5073POPC   C3B64005  26.446  35.650   6.976
 5073POPC   C4B64006  26.270  35.775   7.374
 5074POPC   NC364007  14.909  33.033   5.360
 5074POPC   PO464008  15.569  32.946   5.155
 5074POPC   GL164009  15.269  32.739   5.586
 5074POPC   GL264010  15.107  33.040   5.817
 5074POPC   C1A64011  15.306  32.650   6.058
 5074POPC   D2A64012  15.518  32.939   6.395
 5074POPC   C3A64013  15.281  33.046   6.794
 5074POPC   C4A64014  15.271  33.334   7.159
 5074POPC   C1B64015  14.825  32.814   6.076
 5074POPC   C2B64016  14.658  32.764   6.445
 5074POPC   C3B64017  14.748  32.935   6.841
 5074POPC   C4B64018  15.009  32.894   7.201
 5075POPC   NC364019  35.279  42.787   5.104
 5075POPC   PO464020  35.440  42.168   5.329
 5075POPC   GL164021  35.389  42.275   5.753
 5075POPC   GL264022  35.412  41.976   5.924
 5075POPC   C1A64023  35.537  42.459   6.173
 5075POPC   D2A64024  35.531  42.660   6.604
 5075POPC   C3A64025  35.609  42.445   6.988
 5075POPC   C4A64026  35.351  42.554   7.326
 5075POPC   C1B64027  35.160  42.124   6.272
 5075POPC   C2B64028  34.938  42.129   6.629
 5075POPC   C3B64029  35.111  42.293   6.953
 5075POPC   C4B64030  34.999  42.191   7.365
 5076POPC   NC364031  23.334  23.950   5.394
 5076POPC   PO464032  23.515  23.333   5.206
 5076POPC   GL164033  23.644  23.452   5.677
 5076POPC   GL264034  23.982  23.495   5.783
 5076POPC   C1A64035  23.632  23.729   6.083
 5076POPC   D2A64036  23.647  23.888   6.547
 5076POPC   C3A64037  23.459  23.623   6.873
 5076POPC   C4A64038  23.494  23.844   7.234
 5076POPC   C1B64039  24.157  23.721   6.134
 5076POPC   C2B64040  24.120  23.661   6.560
 5076POPC   C3B64041  23.951  23.722   6.965
 5076POPC   C4B64042  23.851  23.427   7.277
 5077POPC   NC364043  13.954   6.234   5.459
 5077POPC   PO464044  13.545   5.676   5.283
 5077POPC   GL164045  13.630   5.894   5.700
 5077POPC   GL264046  13.482   6.239   5.751
 5077POPC   C1A64047  13.605   5.955   6.154
 5077POPC   D2A64048  13.343   5.895   6.513
 5077POPC   C3A64049  13.518   5.886   6.927
 5077POPC   C4A64050  13.669   5.843   7.322
 5077POPC   C1B64051  13.222   6.289   6.165
 5077POPC   C2B64052  12.977   6.260   6.555
 5077POPC   C3B64053  13.191   6.292   6.943
 5077POPC   C4B64054  13.442   6.276   7.317
 5078POPC   NC364055  43.399   1.328   5.304
 5078POPC   PO464056  42.984   0.817   5.434
 5078POPC   GL164057  43.022   1.017   5.808
 5078POPC   GL264058  43.058   1.383   5.727
 5078POPC   C1A64059  43.269   1.076   6.169
 5078POPC   D2A64060  43.141   1.190   6.568
 5078POPC   C3A64061  43.088   0.952   6.931
 5078POPC   C4A64062  43.292   1.120   7.273
 5078POPC   C1B64063  42.964   1.550   6.135
 5078POPC   C2B64064  42.753   1.523   6.538
 5078POPC   C3B64065  42.862   1.415   6.967
 5078POPC   C4B64066  42.792   1.144   7.311
 5079POPC   NC364067   7.137  14.174   5.395
 5079POPC   PO464068   7.746  14.089   5.391
 5079POPC   GL164069   7.803  14.394   5.758
 5079POPC   GL264070   7.472  14.590   5.835
 5079POPC   C1A64071   7.753  14.463   6.231
 5079POPC   D2A64072   7.435  14.350   6.559
 5079POPC   C3A64073   7.457  14.357   7.016
 5079POPC   C4A64074   7.364  14.320   7.477
 5079POPC   C1B64075   7.356  14.785   6.282
 5079POPC   C2B64076   7.323  14.819   6.773
 5079POPC   C3B64077   7.161  14.727   7.200
 5079POPC   C4B64078   7.305  14.868   7.584
 5080POPC   NC364079  10.232   9.373   5.565
 5080POPC   PO464080  10.760   9.529   5.178
 5080POPC   GL164081  10.736   9.584   5.655
 5080POPC   GL264082  10.930   9.376   5.905
 5080POPC   C1A64083  10.688   9.819   6.049
 5080POPC   D2A64084  10.783   9.898   6.485
 5080POPC   C3A64085  10.490   9.972   6.809
 5080POPC   C4A64086  10.548  10.123   7.232
 5080POPC   C1B64087  10.776   9.374   6.313
 5080POPC   C2B64088  10.414   9.514   6.551
 5080POPC   C3B64089  10.317   9.486   6.985
 5080POPC   C4B64090  10.479   9.447   7.426
 5081POPC   NC364091  21.958  16.308   5.461
 5081POPC   PO464092  22.429  15.839   5.443
 5081POPC   GL164093  22.041  15.902   5.756
 5081POPC   GL264094  21.880  16.222   5.944
 5081POPC   C1A64095  21.949  15.803   6.201
 5081POPC   D2A64096  22.162  15.934   6.574
 5081POPC   C3A64097  21.967  15.983   6.978
 5081POPC   C4A64098  22.082  15.890   7.404
 5081POPC   C1B64099  22.296  16.201   6.138
 5081POPC   C2B64100  22.439  16.393   6.516
 5081POPC   C3B64101  22.418  16.222   6.912
 5081POPC   C4B64102  22.496  16.189   7.314
 5082POPC   NC364103  28.401  44.700   5.331
 5082POPC   PO464104  27.914  44.295   5.397
 5082POPC   GL164105  28.217  44.480   5.748
 5082POPC   GL264106  28.223  44.852   5.866
 5082POPC   C1A64107  28.437  44.497   6.168
 5082POPC   D2A64108  28.328  44.507   6.606
 5082POPC   C3A64109  28.569  44.621   6.969
 5082POPC   C4A64110  28.502   0.031   7.151
 5082POPC   C1B64111  28.240  44.982   6.333
 5082POPC   C2B64112  28.149  44.949   6.793
 5082POPC   C3B64113  28.081  44.664   7.147
 5082POPC   C4B64114  27.877  44.635   7.577
 5083POPC   NC364115   1.690  10.105   5.417
 5083POPC   PO464116   1.771   9.417   5.386
 5083POPC   GL164117   1.860   9.607   5.770
 5083POPC   GL264118   2.232   9.625   5.762
 5083POPC   C1A64119   1.718   9.654   6.191
 5083POPC   D2A64120   1.526   9.675   6.593
 5083POPC   C3A64121   1.731   9.907   6.909
 5083POPC   C4A64122   1.969   9.665   7.168
 5083POPC   C1B64123   2.217   9.808   6.181
 5083POPC   C2B64124   2.167   9.665   6.618
 5083POPC   C3B64125   2.391   9.866   6.953
 5083POPC   C4B64126   2.143  10.151   7.162
 5084POPC   NC364127   6.249  10.054   5.328
 5084POPC   PO464128   5.666  10.357   5.435
 5084POPC   GL164129   5.970  10.562   5.736
 5084POPC   GL264130   6.157  10.262   5.779
 5084POPC   C1A64131   5.985  10.641   6.212
 5084POPC   D2A64132   5.678  10.638   6.582
 5084POPC   C3A64133   5.782  10.543   7.023
 5084POPC   C4A64134   5.727  10.189   7.271
 5084POPC   C1B64135   6.213  10.149   6.198
 5084POPC   C2B64136   6.032  10.255   6.573
 5084POPC   C3B64137   6.233  10.565   6.803
 5084POPC   C4B64138   6.254  10.573   7.250
 5085POPC   NC364139  11.043   0.898   5.511
 5085POPC   PO464140  11.048   1.612   5.510
 5085POPC   GL164141  11.407   1.356   5.686
 5085POPC   GL264142  11.285   1.113   5.876
 5085POPC   C1A64143  11.653   1.360   6.090
 5085POPC   D2A64144  11.502   1.547   6.490
 5085POPC   C3A64145  11.562   1.289   6.856
 5085POPC   C4A64146  11.549   1.399   7.291
 5085POPC   C1B64147  11.135   1.364   6.180
 5085POPC   C2B64148  11.056   1.202   6.611
 5085POPC   C3B64149  11.114   1.185   7.052
 5085POPC   C4B64150  11.392   0.863   7.224
 5086POPC   NC364151  42.059  25.347   5.555
 5086POPC   PO464152  42.471  25.517   5.088
 5086POPC   GL164153  42.530  25.164   5.546
 5086POPC   GL264154  42.212  24.897   5.696
 5086POPC   C1A64155  42.529  25.111   6.050
 5086POPC   D2A64156  42.347  25.093   6.507
 5086POPC   C3A64157  42.574  25.097   6.936
 5086POPC   C4A64158  42.525  25.404   7.268
 5086POPC   C1B64159  41.987  24.992   6.118
 5086POPC   C2B64160  41.845  24.895   6.555
 5086POPC   C3B64161  42.030  25.060   6.931
 5086POPC   C4B64162  42.192  24.954   7.328
 5087POPC   NC364163  18.595  41.427   5.552
 5087POPC   PO464164  18.902  41.894   5.164
 5087POPC   GL164165  19.097  41.728   5.602
 5087POPC   GL264166  19.031  41.387   5.808
 5087POPC   C1A64167  19.222  41.784   6.050
 5087POPC   D2A64168  18.943  41.654   6.373
 5087POPC   C3A64169  19.020  41.738   6.785
 5087POPC   C4A64170  19.052  41.887   7.185
 5087POPC   C1B64171  19.225  41.254   6.201
 5087POPC   C2B64172  19.332  41.372   6.649
 5087POPC   C3B64173  19.097  41.364   7.108
 5087POPC   C4B64174  19.137  41.300   7.607
 5088POPC   NC364175  23.230  24.650   5.475
 5088POPC   PO464176  22.929  24.172   5.349
 5088POPC   GL164177  23.020  24.222   5.816
 5088POPC   GL264178  22.963  24.564   5.928
 5088POPC   C1A64179  22.806  24.186   6.257
 5088POPC   D2A64180  22.632  24.428   6.622
 5088POPC   C3A64181  22.847  24.408   7.004
 5088POPC   C4A64182  23.242  24.284   7.166
 5088POPC   C1B64183  22.946  24.751   6.354
 5088POPC   C2B64184  22.862  24.880   6.763
 5088POPC   C3B64185  22.987  24.869   7.170
 5088POPC   C4B64186  22.954  25.079   7.557
 5089POPC   NC364187  27.695  17.915   5.412
 5089POPC   PO464188  27.160  18.398   5.358
 5089POPC   GL164189  27.377  18.281   5.729
 5089POPC   GL264190  27.744  18.300   5.760
 5089POPC   C1A64191  27.426  18.385   6.181
 5089POPC   D2A64192  27.536  18.194   6.573
 5089POPC   C3A64193  27.418  18.298   6.982
 5089POPC   C4A64194  27.437  18.075   7.395
 5089POPC   C1B64195  27.969  18.321   6.165
 5089POPC   C2B64196  28.070  18.174   6.559
 5089POPC   C3B64197  27.951  18.282   6.945
 5089POPC   C4B64198  27.945  18.096   7.309
 5090POPC   NC364199   5.847  10.703   5.203
 5090POPC   PO464200   5.964  11.311   5.427
 5090POPC   GL164201   5.884  11.102   5.799
 5090POPC   GL264202   5.599  10.895   5.610
 5090POPC   C1A64203   6.200  11.159   6.174
 5090POPC   D2A64204   6.157  11.018   6.609
 5090POPC   C3A64205   6.164  11.259   7.020
 5090POPC   C4A64206   5.911  11.301   7.417
 5090POPC   C1B64207   5.533  10.796   6.031
 5090POPC   C2B64208   5.726  11.078   6.332
 5090POPC   C3B64209   5.663  11.099   6.804
 5090POPC   C4B64210   5.526  10.945   7.198
 5091POPC   NC364211  27.810  11.745   5.424
 5091POPC   PO464212  27.679  12.348   5.172
 5091POPC   GL164213  27.667  12.319   5.675
 5091POPC   GL264214  27.767  11.993   5.873
 5091POPC   C1A64215  27.516  12.357   6.128
 5091POPC   D2A64216  27.681  12.099   6.499
 5091POPC   C3A64217  27.643  12.245   6.943
 5091POPC   C4A64218  27.259  12.414   7.170
 5091POPC   C1B64219  27.375  11.863   6.125
 5091POPC   C2B64220  27.277  11.767   6.530
 5091POPC   C3B64221  27.500  11.750   6.905
 5091POPC   C4B64222  27.938  11.830   7.046
 5092POPC   NC364223  25.653  20.226   5.208
 5092POPC   PO464224  26.053  20.754   5.449
 5092POPC   GL164225  26.221  20.587   5.846
 5092POPC   GL264226  25.994  20.350   5.782
 5092POPC   C1A64227  26.296  20.630   6.313
 5092POPC   D2A64228  26.041  20.786   6.626
 5092POPC   C3A64229  26.020  20.622   7.028
 5092POPC   C4A64230  26.074  20.698   7.478
 5092POPC   C1B64231  25.830  20.479   6.185
 5092POPC   C2B64232  25.833  20.290   6.567
 5092POPC   C3B64233  25.601  20.280   6.928
 5092POPC   C4B64234  25.715  20.352   7.341
 5093POPC   NC364235  12.233  22.660   5.451
 5093POPC   PO464236  12.535  23.206   5.487
 5093POPC   GL164237  12.426  22.957   5.845
 5093POPC   GL264238  12.070  22.797   5.901
 5093POPC   C1A64239  12.322  23.081   6.261
 5093POPC   D2A64240  12.055  23.066   6.607
 5093POPC   C3A64241  12.225  23.047   7.021
 5093POPC   C4A64242  11.967  23.326   7.280
 5093POPC   C1B64243  12.343  22.563   6.192
 5093POPC   C2B64244  12.416  22.716   6.612
 5093POPC   C3B64245  12.413  22.441   6.957
 5093POPC   C4B64246  12.187  22.443   7.320
 5094POPC   NC364247  35.512   0.570   5.593
 5094POPC   PO464248  36.103   0.469   5.279
 5094POPC   GL164249  36.157   0.625   5.697
 5094POPC   GL264250  35.917   0.411   5.826
 5094POPC   C1A64251  36.340   0.483   6.118
 5094POPC   D2A64252  36.115   0.535   6.527
 5094POPC   C3A64253  36.331   0.431   6.900
 5094POPC   C4A64254  36.216   0.392   7.324
 5094POPC   C1B64255  35.905   0.187   6.176
 5094POPC   C2B64256  35.678   0.213   6.562
 5094POPC   C3B64257  35.890   0.179   6.923
 5094POPC   C4B64258  35.786   0.081   7.290
 5095POPC   NC364259  30.940   5.218   5.305
 5095POPC   PO464260  30.311   5.186   5.186
 5095POPC   GL164261  30.540   5.286   5.637
 5095POPC   GL264262  30.784   5.483   5.747
 5095POPC   C1A64263  30.549   5.140   6.085
 5095POPC   D2A64264  30.823   4.840   6.291
 5095POPC   C3A64265  30.789   4.881   6.734
 5095POPC   C4A64266  30.735   4.879   7.165
 5095POPC   C1B64267  30.781   5.581   6.183
 5095POPC   C2B64268  30.663   5.419   6.575
 5095POPC   C3B64269  30.820   5.362   6.981
 5095POPC   C4B64270  31.031   5.236   7.373
 5096POPC   NC364271   6.974   7.782   5.523
 5096POPC   PO464272   7.363   7.294   5.472
 5096POPC   GL164273   7.613   7.559   5.791
 5096POPC   GL264274   7.469   7.896   5.839
 5096POPC   C1A64275   7.706   7.506   6.235
 5096POPC   D2A64276   7.516   7.594   6.679
 5096POPC   C3A64277   7.705   7.362   7.018
 5096POPC   C4A64278   7.797   7.076   7.383
 5096POPC   C1B64279   7.323   7.857   6.280
 5096POPC   C2B64280   7.119   7.931   6.716
 5096POPC   C3B64281   7.115   7.606   7.050
 5096POPC   C4B64282   7.363   7.426   7.401
 5097POPC   NC364283  27.023  22.401   5.397
 5097POPC   PO464284  26.441  22.507   5.612
 5097POPC   GL164285  26.818  22.366   5.861
 5097POPC   GL264286  26.883  22.012   5.752
 5097POPC   C1A64287  26.942  22.210   6.286
 5097POPC   D2A64288  26.698  22.057   6.669
 5097POPC   C3A64289  26.740  22.289   7.060
 5097POPC   C4A64290  26.872  22.677   7.224
 5097POPC   C1B64291  27.066  21.714   6.052
 5097POPC   C2B64292  27.030  21.686   6.491
 5097POPC   C3B64293  27.103  21.831   6.913
 5097POPC   C4B64294  26.857  21.827   7.264
 5098POPC   NC364295  10.261  40.838   5.656
 5098POPC   PO464296   9.654  40.464   5.460
 5098POPC   GL164297   9.605  40.527   5.922
 5098POPC   GL264298   9.944  40.651   6.000
 5098POPC   C1A64299   9.657  40.537   6.404
 5098POPC   D2A64300  10.000  40.777   6.626
 5098POPC   C3A64301  10.136  40.581   7.016
 5098POPC   C4A64302   9.789  40.331   7.174
 5098POPC   C1B64303   9.681  40.985   6.142
 5098POPC   C2B64304   9.471  41.052   6.525
 5098POPC   C3B64305   9.556  40.786   6.877
 5098POPC   C4B64306   9.779  40.859   7.245
 5099POPC   NC364307  16.694  28.521   5.231
 5099POPC   PO464308  16.669  27.847   5.159
 5099POPC   GL164309  16.674  28.168   5.603
 5099POPC   GL264310  16.953  28.205   5.807
 5099POPC   C1A64311  16.602  28.520   5.968
 5099POPC   D2A64312  16.560  28.454   6.448
 5099POPC   C3A64313  16.807  28.501   6.848
 5099POPC   C4A64314  16.597  28.310   7.217
 5099POPC   C1B64315  17.002  28.333   6.235
 5099POPC   C2B64316  17.045  28.086   6.623
 5099POPC   C3B64317  16.954  27.934   7.052
 5099POPC   C4B64318  17.075  28.135   7.456
 5100POPC   NC364319  38.429  37.438   5.408
 5100POPC   PO464320  37.943  37.995   5.278
 5100POPC   GL164321  38.265  37.887   5.655
 5100POPC   GL264322  38.201  37.575   5.831
 5100POPC   C1A64323  38.591  37.832   6.053
 5100POPC   D2A64324  38.583  37.563   6.477
 5100POPC   C3A64325  38.716  37.692   6.935
 5100POPC   C4A64326  38.577  37.420   7.290
 5100POPC   C1B64327  38.115  37.818   6.193
 5100POPC   C2B64328  38.050  37.717   6.584
 5100POPC   C3B64329  38.237  37.544   6.910
 5100POPC   C4B64330  38.171  37.728   7.280
 5101POPC   NC364331  37.072  16.493   5.323
 5101POPC   PO464332  36.603  16.994   5.376
 5101POPC   GL164333  36.848  16.782   5.685
 5101POPC   GL264334  36.694  16.486   5.791
 5101POPC   C1A64335  37.145  16.842   6.002
 5101POPC   D2A64336  37.063  16.820   6.436
 5101POPC   C3A64337  37.089  16.925   6.854
 5101POPC   C4A64338  36.885  16.772   7.205
 5101POPC   C1B64339  36.489  16.381   6.199
 5101POPC   C2B64340  36.363  16.290   6.615
 5101POPC   C3B64341  36.571  16.340   7.020
 5101POPC   C4B64342  36.573  16.064   7.407
 5102POPC   NC364343  35.927  42.128   5.378
 5102POPC   PO464344  36.329  42.653   5.126
 5102POPC   GL164345  36.335  42.453   5.583
 5102POPC   GL264346  36.450  42.099   5.674
 5102POPC   C1A64347  36.244  42.425   6.068
 5102POPC   D2A64348  35.980  42.485   6.453
 5102POPC   C3A64349  36.139  42.461   6.881
 5102POPC   C4A64350  36.297  42.378   7.287
 5102POPC   C1B64351  36.418  41.932   6.112
 5102POPC   C2B64352  36.362  42.116   6.518
 5102POPC   C3B64353  36.413  42.023   6.936
 5102POPC   C4B64354  36.474  41.896   7.350
 5103POPC   NC364355   9.532   0.492   5.114
 5103POPC   PO464356   8.933   0.368   5.460
 5103POPC   GL164357   8.684   0.375   5.812
 5103POPC   GL264358   8.621   0.018   5.731
 5103POPC   C1A64359   8.893   0.567   6.200
 5103POPC   D2A64360   9.283   0.630   6.485
 5103POPC   C3A64361   9.141   0.523   6.931
 5103POPC   C4A64362   8.736   0.548   7.214
 5103POPC   C1B64363   8.969   0.034   6.071
 5103POPC   C2B64364   9.039   0.188   6.504
 5103POPC   C3B64365   8.741   0.201   6.837
 5103POPC   C4B64366   8.696   0.007   7.221
 5104POPC   NC364367  21.522  36.016   5.413
 5104POPC   PO464368  21.009  36.431   5.644
 5104POPC   GL164369  21.300  36.102   5.870
 5104POPC   GL264370  21.686  36.037   5.891
 5104POPC   C1A64371  21.400  35.921   6.293
 5104POPC   D2A64372  21.259  36.199   6.605
 5104POPC   C3A64373  21.182  36.003   6.983
 5104POPC   C4A64374  21.541  35.921   7.211
 5104POPC   C1B64375  21.682  36.375   6.192
 5104POPC   C2B64376  21.755  36.515   6.609
 5104POPC   C3B64377  21.543  36.421   6.986
 5104POPC   C4B64378  21.668  36.388   7.384
 5105POPC   NC364379  35.940  37.774   5.384
 5105POPC   PO464380  36.566  37.363   5.465
 5105POPC   GL164381  36.328  37.634   5.787
 5105POPC   GL264382  36.076  37.918   5.851
 5105POPC   C1A64383  36.128  37.529   6.195
 5105POPC   D2A64384  36.376  37.512   6.571
 5105POPC   C3A64385  36.096  37.557   6.896
 5105POPC   C4A64386  36.044  37.824   7.196
 5105POPC   C1B64387  35.989  38.045   6.275
 5105POPC   C2B64388  35.828  37.981   6.718
 5105POPC   C3B64389  35.819  38.251   7.110
 5105POPC   C4B64390  35.870  38.107   7.592
 5106POPC   NC364391  28.911  42.828   5.050
 5106POPC   PO464392  29.098  42.363   5.524
 5106POPC   GL164393  28.911  42.247   5.941
 5106POPC   GL264394  29.017  41.898   6.059
 5106POPC   C1A64395  28.821  42.516   6.263
 5106POPC   D2A64396  29.056  42.672   6.600
 5106POPC   C3A64397  28.926  42.445   6.941
 5106POPC   C4A64398  29.178  42.222   7.234
 5106POPC   C1B64399  29.091  42.140   6.479
 5106POPC   C2B64400  29.412  42.334   6.782
 5106POPC   C3B64401  29.675  42.275   7.163
 5106POPC   C4B64402  29.581  42.385   7.596
 5107POPC   NC364403  17.732  24.849   5.451
 5107POPC   PO464404  17.576  24.263   5.173
 5107POPC   GL164405  17.336  24.415   5.602
 5107POPC   GL264406  17.397  24.735   5.789
 5107POPC   C1A64407  17.296  24.366   6.079
 5107POPC   D2A64408  17.618  24.307   6.386
 5107POPC   C3A64409  17.558  24.360   6.805
 5107POPC   C4A64410  17.742  24.233   7.151
 5107POPC   C1B64411  17.677  24.753   6.146
 5107POPC   C2B64412  17.421  24.855   6.462
 5107POPC   C3B64413  17.416  24.876   6.879
 5107POPC   C4B64414  17.430  24.623   7.240
 5108POPC   NC364415  16.909  12.790   5.455
 5108POPC   PO464416  16.435  13.176   5.441
 5108POPC   GL164417  16.585  12.974   5.828
 5108POPC   GL264418  16.653  12.606   5.842
 5108POPC   C1A64419  16.707  12.908   6.257
 5108POPC   D2A64420  16.561  12.842   6.657
 5108POPC   C3A64421  16.751  12.997   6.990
 5108POPC   C4A64422  16.885  12.735   7.303
 5108POPC   C1B64423  16.296  12.661   6.112
 5108POPC   C2B64424  16.145  12.595   6.490
 5108POPC   C3B64425  16.249  12.513   6.911
 5108POPC   C4B64426  16.381  12.770   7.233
 5109POPC   NC364427  40.806  15.941   5.282
 5109POPC   PO464428  41.189  16.144   5.785
 5109POPC   GL164429  40.750  16.144   5.899
 5109POPC   GL264430  40.719  15.782   5.885
 5109POPC   C1A64431  40.519  16.037   6.296
 5109POPC   D2A64432  40.644  15.912   6.726
 5109POPC   C3A64433  40.358  16.069   7.044
 5109POPC   C4A64434  40.510  16.301   7.402
 5109POPC   C1B64435  40.985  15.758   6.309
 5109POPC   C2B64436  41.307  15.808   6.661
 5109POPC   C3B64437  41.197  16.040   7.013
 5109POPC   C4B64438  40.837  15.946   7.260
 5110POPC   NC364439   6.668  19.600   5.476
 5110POPC   PO464440   6.543  20.200   5.676
 5110POPC   GL164441   6.495  19.843   5.895
 5110POPC   GL264442   6.873  19.784   5.910
 5110POPC   C1A64443   6.551  19.602   6.269
 5110POPC   D2A64444   6.581  19.820   6.669
 5110POPC   C3A64445   6.737  19.640   7.028
 5110POPC   C4A64446   6.451  19.792   7.286
 5110POPC   C1B64447   6.795  20.065   6.265
 5110POPC   C2B64448   6.861  20.300   6.639
 5110POPC   C3B64449   6.862  20.163   7.067
 5110POPC   C4B64450   6.821  20.083   7.501
 5111POPC   NC364451   8.680   9.550   5.152
 5111POPC   PO464452   8.123   9.886   5.250
 5111POPC   GL164453   8.151   9.724   5.666
 5111POPC   GL264454   7.923   9.423   5.760
 5111POPC   C1A64455   8.219   9.934   6.063
 5111POPC   D2A64456   8.103   9.760   6.482
 5111POPC   C3A64457   8.316   9.772   6.856
 5111POPC   C4A64458   8.239   9.688   7.271
 5111POPC   C1B64459   8.245   9.434   6.094
 5111POPC   C2B64460   8.427   9.369   6.516
 5111POPC   C3B64461   8.670   9.385   6.907
 5111POPC   C4B64462   8.581   9.325   7.346
 5112POPC   NC364463  29.006  39.292   5.507
 5112POPC   PO464464  29.643  38.981   5.380
 5112POPC   GL164465  29.459  39.216   5.718
 5112POPC   GL264466  29.228  38.919   5.781
 5112POPC   C1A64467  29.302  39.488   6.097
 5112POPC   D2A64468  29.385  39.647   6.526
 5112POPC   C3A64469  29.084  39.566   6.901
 5112POPC   C4A64470  29.193  39.380   7.319
 5112POPC   C1B64471  29.368  38.995   6.176
 5112POPC   C2B64472  29.190  39.166   6.567
 5112POPC   C3B64473  29.094  39.019   6.972
 5112POPC   C4B64474  28.938  38.905   7.411
 5113POPC   NC364475  37.053  36.116   5.336
 5113POPC   PO464476  36.478  36.487   5.425
 5113POPC   GL164477  36.717  36.182   5.751
 5113POPC   GL264478  37.088  36.174   5.839
 5113POPC   C1A64479  36.737  36.078   6.229
 5113POPC   D2A64480  36.467  36.234   6.585
 5113POPC   C3A64481  36.578  36.109   7.010
 5113POPC   C4A64482  36.596  36.339   7.415
 5113POPC   C1B64483  37.247  35.941   6.214
 5113POPC   C2B64484  37.077  35.798   6.621
 5113POPC   C3B64485  37.080  35.967   7.039
 5113POPC   C4B64486  37.460  35.936   7.299
 5114POPC   NC364487  33.230   5.144   5.357
 5114POPC   PO464488  32.619   5.020   5.473
 5114POPC   GL164489  32.900   5.169   5.812
 5114POPC   GL264490  33.206   4.962   5.854
 5114POPC   C1A64491  32.973   5.164   6.278
 5114POPC   D2A64492  32.822   5.147   6.708
 5114POPC   C3A64493  33.068   5.217   7.052
 5114POPC   C4A64494  33.063   5.544   7.344
 5114POPC   C1B64495  33.432   4.939   6.257
 5114POPC   C2B64496  33.493   5.106   6.693
 5114POPC   C3B64497  33.518   5.015   7.148
 5114POPC   C4B64498  33.321   5.151   7.543
 5115POPC   NC364499  28.385   9.518   5.518
 5115POPC   PO464500  28.280  10.219   5.571
 5115POPC   GL164501  28.381   9.940   5.875
 5115POPC   GL264502  28.069   9.744   5.836
 5115POPC   C1A64503  28.482   9.672   6.234
 5115POPC   D2A64504  28.365   9.461   6.621
 5115POPC   C3A64505  28.498   9.648   7.015
 5115POPC   C4A64506  28.288  10.027   7.087
 5115POPC   C1B64507  27.954   9.750   6.249
 5115POPC   C2B64508  28.071   9.864   6.642
 5115POPC   C3B64509  27.983   9.587   6.971
 5115POPC   C4B64510  28.090   9.610   7.367
 5116POPC   NC364511   0.569   9.400   5.432
 5116POPC   PO464512   0.208   9.990   5.467
 5116POPC   GL164513   0.394   9.721   5.821
 5116POPC   GL264514   0.132   9.472   5.880
 5116POPC   C1A64515   0.636   9.656   6.251
 5116POPC   D2A64516   0.617   9.468   6.705
 5116POPC   C3A64517   0.692   9.806   7.016
 5116POPC   C4A64518   0.897  10.212   7.084
 5116POPC   C1B64519   0.129   9.776   6.260
 5116POPC   C2B64520   0.234   9.856   6.728
 5116POPC   C3B64521   0.205   9.865   7.197
 5116POPC   C4B64522   0.161   9.642   7.611
 5117POPC   NC364523  16.115  22.662   5.481
 5117POPC   PO464524  15.630  23.101   5.448
 5117POPC   GL164525  15.834  22.978   5.802
 5117POPC   GL264526  15.682  22.644   5.828
 5117POPC   C1A64527  16.051  23.085   6.187
 5117POPC   D2A64528  16.260  22.994   6.589
 5117POPC   C3A64529  16.084  23.127   6.985
 5117POPC   C4A64530  16.017  23.300   7.403
 5117POPC   C1B64531  15.783  22.640   6.245
 5117POPC   C2B64532  15.836  22.716   6.671
 5117POPC   C3B64533  16.065  22.617   6.996
 5117POPC   C4B64534  15.815  22.829   7.300
 5118POPC   NC364535  18.022  18.472   5.271
 5118POPC   PO464536  18.479  18.014   5.558
 5118POPC   GL164537  18.181  18.292   5.729
 5118POPC   GL264538  18.454  18.504   5.796
 5118POPC   C1A64539  18.080  18.382   6.151
 5118POPC   D2A64540  18.206  18.166   6.522
 5118POPC   C3A64541  18.090  18.364   6.880
 5118POPC   C4A64542  18.018  18.562   7.249
 5118POPC   C1B64543  18.589  18.290   6.188
 5118POPC   C2B64544  18.661  18.371   6.637
 5118POPC   C3B64545  18.506  18.089   6.981
 5118POPC   C4B64546  18.394  17.928   7.377
 5119POPC   NC364547  11.593  43.158   5.367
 5119POPC   PO464548  11.167  42.743   5.569
 5119POPC   GL164549  11.337  43.023   5.819
 5119POPC   GL264550  11.177  43.347   5.714
 5119POPC   C1A64551  11.552  42.994   6.202
 5119POPC   D2A64552  11.471  43.208   6.584
 5119POPC   C3A64553  11.446  42.955   6.920
 5119POPC   C4A64554  11.078  42.929   7.165
 5119POPC   C1B64555  11.293  43.466   6.159
 5119POPC   C2B64556  11.184  43.619   6.590
 5119POPC   C3B64557  11.269  43.493   7.050
 5119POPC   C4B64558  11.174  43.711   7.477
 5120POPC   NC364559  40.561  31.043   5.409
 5120POPC   PO464560  40.855  31.662   5.377
 5120POPC   GL164561  40.816  31.419   5.743
 5120POPC   GL264562  40.470  31.360   5.803
 5120POPC   C1A64563  40.927  31.524   6.174
 5120POPC   D2A64564  40.751  31.714   6.562
 5120POPC   C3A64565  40.965  31.761   6.983
 5120POPC   C4A64566  40.701  31.693   7.330
 5120POPC   C1B64567  40.490  31.249   6.226
 5120POPC   C2B64568  40.784  31.169   6.540
 5120POPC   C3B64569  40.678  31.343   6.913
 5120POPC   C4B64570  40.952  31.267   7.214
 5121POPC   NC364571  35.904  31.776   5.464
 5121POPC   PO464572  35.263  31.775   5.382
 5121POPC   GL164573  35.334  31.703   5.825
 5121POPC   GL264574  35.663  31.881   5.909
 5121POPC   C1A64575  35.213  31.399   6.159
 5121POPC   D2A64576  35.005  31.276   6.533
 5121POPC   C3A64577  35.198  31.156   6.912
 5121POPC   C4A64578  35.251  31.409   7.266
 5121POPC   C1B64579  35.751  31.446   6.098
 5121POPC   C2B64580  35.606  31.252   6.505
 5121POPC   C3B64581  35.559  31.515   6.869
 5121POPC   C4B64582  35.770  31.729   7.212
 5122POPC   NC364583  44.226  26.533   5.385
 5122POPC   PO464584  43.752  27.005   5.283
 5122POPC   GL164585  43.967  26.873   5.698
 5122POPC   GL264586  43.887  26.571   5.849
 5122POPC   C1A64587  44.016  27.059   6.131
 5122POPC   D2A64588  43.855  26.913   6.540
 5122POPC   C3A64589  44.086  26.951   6.932
 5122POPC   C4A64590  43.917  26.935   7.335
 5122POPC   C1B64591  44.184  26.593   6.226
 5122POPC   C2B64592  44.116  26.456   6.665
 5122POPC   C3B64593  44.032  26.462   7.115
 5122POPC   C4B64594  44.152  26.522   7.542
 5123POPC   NC364595   4.524   3.738   5.674
 5123POPC   PO464596   3.938   3.521   5.585
 5123POPC   GL164597   4.119   3.303   5.929
 5123POPC   GL264598   4.452   3.246   5.865
 5123POPC   C1A64599   4.227   3.384   6.353
 5123POPC   D2A64600   4.041   3.635   6.679
 5123POPC   C3A64601   4.286   3.627   7.019
 5123POPC   C4A64602   4.196   3.518   7.413
 5123POPC   C1B64603   4.673   3.140   6.278
 5123POPC   C2B64604   4.633   3.253   6.750
 5123POPC   C3B64605   4.703   3.408   7.225
 5123POPC   C4B64606   4.607   3.623   7.683
 5124POPC   NC364607   3.773  37.094   5.440
 5124POPC   PO464608   3.556  36.485   5.260
 5124POPC   GL164609   3.621  36.687   5.729
 5124POPC   GL264610   3.291  36.758   5.911
 5124POPC   C1A64611   3.690  36.827   6.194
 5124POPC   D2A64612   3.872  36.976   6.587
 5124POPC   C3A64613   3.743  37.026   7.018
 5124POPC   C4A64614   3.875  36.857   7.431
 5124POPC   C1B64615   3.273  37.126   6.206
 5124POPC   C2B64616   3.404  37.168   6.621
 5124POPC   C3B64617   3.218  36.977   6.984
 5124POPC   C4B64618   3.366  36.984   7.410
 5125POPC   NC364619  16.382  24.326   5.273
 5125POPC   PO464620  15.845  24.030   5.587
 5125POPC   GL164621  15.774  24.512   5.656
 5125POPC   GL264622  16.078  24.766   5.710
 5125POPC   C1A64623  15.731  24.655   6.073
 5125POPC   D2A64624  15.881  24.329   6.360
 5125POPC   C3A64625  15.731  24.321   6.767
 5125POPC   C4A64626  15.809  24.275   7.223
 5125POPC   C1B64627  16.232  24.809   6.169
 5125POPC   C2B64628  16.082  24.759   6.622
 5125POPC   C3B64629  15.890  24.730   7.059
 5125POPC   C4B64630  16.136  24.622   7.470
 5126POPC   NC364631  35.901  26.365   5.412
 5126POPC   PO464632  36.478  26.090   5.391
 5126POPC   GL164633  36.227  26.045   5.763
 5126POPC   GL264634  35.934  25.805   5.759
 5126POPC   C1A64635  36.027  26.190   6.143
 5126POPC   D2A64636  36.120  26.394   6.564
 5126POPC   C3A64637  35.949  26.219   6.954
 5126POPC   C4A64638  36.119  26.114   7.349
 5126POPC   C1B64639  36.160  25.668   6.132
 5126POPC   C2B64640  36.307  25.897   6.489
 5126POPC   C3B64641  36.240  25.810   6.913
 5126POPC   C4B64642  36.466  25.748   7.280
 5127POPC   NC364643  41.532  34.192   5.174
 5127POPC   PO464644  41.834  34.734   5.425
 5127POPC   GL164645  41.556  34.383   5.702
 5127POPC   GL264646  41.453  34.633   5.922
 5127POPC   C1A64647  41.239  34.210   6.102
 5127POPC   D2A64648  41.136  34.242   6.568
 5127POPC   C3A64649  41.232  34.667   6.763
 5127POPC   C4A64650  41.560  34.877   7.020
 5127POPC   C1B64651  41.691  34.385   6.230
 5127POPC   C2B64652  41.734  34.514   6.645
 5127POPC   C3B64653  41.725  34.309   7.018
 5127POPC   C4B64654  41.716  34.553   7.387
 5128POPC   NC364655  27.063  34.706   5.392
 5128POPC   PO464656  26.571  34.115   5.365
 5128POPC   GL164657  26.860  34.363   5.747
 5128POPC   GL264658  26.831  34.740   5.842
 5128POPC   C1A64659  26.972  34.482   6.234
 5128POPC   D2A64660  26.659  34.522   6.574
 5128POPC   C3A64661  26.828  34.564   6.974
 5128POPC   C4A64662  26.948  34.364   7.386
 5128POPC   C1B64663  26.674  34.938   6.241
 5128POPC   C2B64664  26.767  35.033   6.685
 5128POPC   C3B64665  26.622  35.006   7.122
 5128POPC   C4B64666  26.687  35.019   7.574
 5129POPC   NC364667  32.451  38.360   5.201
 5129POPC   PO464668  31.796  38.700   5.288
 5129POPC   GL164669  32.140  38.647   5.626
 5129POPC   GL264670  32.340  38.321   5.705
 5129POPC   C1A64671  32.245  38.678   6.071
 5129POPC   D2A64672  31.995  38.600   6.472
 5129POPC   C3A64673  32.248  38.591   6.849
 5129POPC   C4A64674  32.401  38.603   7.240
 5129POPC   C1B64675  32.067  38.210   6.084
 5129POPC   C2B64676  31.932  38.084   6.524
 5129POPC   C3B64677  31.825  38.313   6.917
 5129POPC   C4B64678  31.937  38.403   7.351
 5130POPC   NC364679   3.574   0.190   5.411
 5130POPC   PO464680   3.721  44.523   5.472
 5130POPC   GL164681   3.686  44.652   5.889
 5130POPC   GL264682   3.472  44.908   5.839
 5130POPC   C1A64683   3.740  44.698   6.351
 5130POPC   D2A64684   3.420  44.493   6.650
 5130POPC   C3A64685   3.480  44.648   7.062
 5130POPC   C4A64686   3.795  44.964   7.186
 5130POPC   C1B64687   3.297  44.890   6.264
 5130POPC   C2B64688   3.448   0.004   6.692
 5130POPC   C3B64689   3.370   0.230   7.097
 5130POPC   C4B64690   3.351  44.949   7.451
 5131POPC   NC364691  38.573   1.534   5.427
 5131POPC   PO464692  38.155   1.033   5.457
 5131POPC   GL164693  38.479   1.060   5.843
 5131POPC   GL264694  38.595   1.401   5.904
 5131POPC   C1A64695  38.512   1.156   6.333
 5131POPC   D2A64696  38.539   0.901   6.710
 5131POPC   C3A64697  38.513   1.118   7.109
 5131POPC   C4A64698  38.874   1.380   7.192
 5131POPC   C1B64699  38.155   1.413   6.054
 5131POPC   C2B64700  38.130   1.461   6.489
 5131POPC   C3B64701  38.305   1.545   6.892
 5131POPC   C4B64702  38.103   1.452   7.278
 5132POPC   NC364703  16.433  34.984   5.585
 5132POPC   PO464704  15.827  34.652   5.493
 5132POPC   GL164705  15.883  34.493   5.893
 5132POPC   GL264706  15.719  34.209   5.856
 5132POPC   C1A64707  16.002  34.664   6.258
 5132POPC   D2A64708  15.826  34.955   6.497
 5132POPC   C3A64709  15.697  34.845   6.887
 5132POPC   C4A64710  15.952  34.615   7.162
 5132POPC   C1B64711  15.784  34.119   6.300
 5132POPC   C2B64712  15.714  33.932   6.712
 5132POPC   C3B64713  15.901  34.101   7.091
 5132POPC   C4B64714  15.807  34.289   7.509
 5133POPC   NC364715   9.586  42.769   5.647
 5133POPC   PO464716   9.636  43.313   5.218
 5133POPC   GL164717   9.584  43.321   5.671
 5133POPC   GL264718   9.910  43.181   5.768
 5133POPC   C1A64719   9.579  43.273   6.147
 5133POPC   D2A64720   9.493  42.961   6.511
 5133POPC   C3A64721   9.612  43.104   6.942
 5133POPC   C4A64722   9.844  43.106   7.335
 5133POPC   C1B64723   9.945  42.907   6.182
 5133POPC   C2B64724   9.971  42.695   6.586
 5133POPC   C3B64725  10.084  42.823   6.990
 5133POPC   C4B64726  10.268  42.821   7.407
 5134POPC   NC364727   3.030  21.675   5.637
 5134POPC   PO464728   2.545  22.105   5.334
 5134POPC   GL164729   2.593  22.353   5.764
 5134POPC   GL264730   2.578  22.036   5.939
 5134POPC   C1A64731   2.907  22.359   6.174
 5134POPC   D2A64732   2.801  22.022   6.469
 5134POPC   C3A64733   2.932  22.052   6.932
 5134POPC   C4A64734   3.020  21.971   7.381
 5134POPC   C1B64735   2.420  22.357   6.260
 5134POPC   C2B64736   2.567  22.409   6.704
 5134POPC   C3B64737   2.478  22.356   7.123
 5134POPC   C4B64738   2.372  22.082   7.411
 5135POPC   NC364739   5.234  28.660   5.414
 5135POPC   PO464740   4.746  28.187   5.510
 5135POPC   GL164741   4.923  28.481   5.798
 5135POPC   GL264742   5.295  28.480   5.871
 5135POPC   C1A64743   4.964  28.690   6.189
 5135POPC   D2A64744   5.264  28.549   6.455
 5135POPC   C3A64745   5.173  28.349   6.826
 5135POPC   C4A64746   5.134  28.522   7.198
 5135POPC   C1B64747   5.649  28.557   6.112
 5135POPC   C2B64748   5.773  28.556   6.529
 5135POPC   C3B64749   5.583  28.635   6.912
 5135POPC   C4B64750   5.644  28.535   7.328
 5136POPC   NC364751  16.153  16.480   5.427
 5136POPC   PO464752  15.822  16.976   5.610
 5136POPC   GL164753  15.958  16.861   6.001
 5136POPC   GL264754  16.155  16.567   5.926
 5136POPC   C1A64755  15.899  16.976   6.444
 5136POPC   D2A64756  15.741  16.705   6.782
 5136POPC   C3A64757  15.872  16.862   7.168
 5136POPC   C4A64758  16.289  16.943   7.200
 5136POPC   C1B64759  16.293  16.673   6.328
 5136POPC   C2B64760  16.322  16.726   6.742
 5136POPC   C3B64761  16.159  16.449   7.014
 5136POPC   C4B64762  15.773  16.330   7.166
 5137POPC   NC364763  27.974  42.928   5.385
 5137POPC   PO464764  27.443  43.414   5.436
 5137POPC   GL164765  27.623  43.064   5.734
 5137POPC   GL264766  27.427  42.735   5.756
 5137POPC   C1A64767  27.787  42.936   6.101
 5137POPC   D2A64768  27.772  43.227   6.390
 5137POPC   C3A64769  27.832  43.173   6.844
 5137POPC   C4A64770  27.710  43.410   7.211
 5137POPC   C1B64771  27.390  42.613   6.172
 5137POPC   C2B64772  27.535  42.806   6.567
 5137POPC   C3B64773  27.410  42.884   6.986
 5137POPC   C4B64774  27.321  42.654   7.364
 5138POPC   NC364775  12.364  25.232   5.094
 5138POPC   PO464776  12.983  25.162   5.433
 5138POPC   GL164777  12.886  25.207   5.879
 5138POPC   GL264778  12.968  25.564   5.873
 5138POPC   C1A64779  13.002  24.992   6.248
 5138POPC   D2A64780  13.277  24.978   6.612
 5138POPC   C3A64781  13.014  25.093   6.940
 5138POPC   C4A64782  12.634  24.895   7.078
 5138POPC   C1B64783  12.681  25.558   6.202
 5138POPC   C2B64784  12.787  25.515   6.604
 5138POPC   C3B64785  12.606  25.427   6.970
 5138POPC   C4B64786  12.831  25.607   7.263
 5139POPC   NC364787  41.698   1.301   5.748
 5139POPC   PO464788  41.297   1.058   5.262
 5139POPC   GL164789  41.320   0.936   5.762
 5139POPC   GL264790  41.629   0.795   5.861
 5139POPC   C1A64791  41.313   1.171   6.227
 5139POPC   D2A64792  41.484   1.514   6.529
 5139POPC   C3A64793  41.494   1.382   6.991
 5139POPC   C4A64794  41.872   1.294   7.238
 5139POPC   C1B64795  41.759   0.913   6.267
 5139POPC   C2B64796  41.609   1.018   6.643
 5139POPC   C3B64797  41.630   0.874   7.053
 5139POPC   C4B64798  41.472   1.020   7.426
 5140POPC   NC364799   8.551  27.102   5.465
 5140POPC   PO464800   8.707  26.450   5.466
 5140POPC   GL164801   8.892  26.587   5.862
 5140POPC   GL264802   8.781  26.898   5.855
 5140POPC   C1A64803   9.026  26.826   6.276
 5140POPC   D2A64804   9.067  27.083   6.660
 5140POPC   C3A64805   9.101  26.822   7.004
 5140POPC   C4A64806   8.880  26.466   7.144
 5140POPC   C1B64807   8.534  27.067   6.219
 5140POPC   C2B64808   8.563  27.236   6.665
 5140POPC   C3B64809   8.795  27.263   7.077
 5140POPC   C4B64810   8.974  27.027   7.457
 5141POPC   NC364811  36.503  20.809   5.329
 5141POPC   PO464812  37.179  20.732   5.361
 5141POPC   GL164813  36.840  20.727   5.705
 5141POPC   GL264814  36.846  20.412   5.834
 5141POPC   C1A64815  36.795  20.772   6.181
 5141POPC   D2A64816  36.738  20.989   6.567
 5141POPC   C3A64817  36.769  20.853   7.006
 5141POPC   C4A64818  36.684  20.707   7.467
 5141POPC   C1B64819  36.877  20.288   6.280
 5141POPC   C2B64820  36.933  20.481   6.692
 5141POPC   C3B64821  36.694  20.333   7.059
 5141POPC   C4B64822  36.729  20.190   7.470
 5142POPC   NC364823  32.912   1.172   5.032
 5142POPC   PO464824  32.960   1.514   5.571
 5142POPC   GL164825  32.981   1.361   5.958
 5142POPC   GL264826  32.979   1.034   5.996
 5142POPC   C1A64827  32.971   1.429   6.383
 5142POPC   D2A64828  32.829   1.499   6.778
 5142POPC   C3A64829  33.160   1.380   7.070
 5142POPC   C4A64830  33.298   1.439   7.530
 5142POPC   C1B64831  33.348   1.065   6.235
 5142POPC   C2B64832  33.282   1.103   6.650
 5142POPC   C3B64833  33.361   0.870   6.977
 5142POPC   C4B64834  33.365   0.988   7.335
 5143POPC   NC364835  27.619  42.027   5.367
 5143POPC   PO464836  27.634  41.319   5.403
 5143POPC   GL164837  27.666  41.446   5.832
 5143POPC   GL264838  27.778  41.782   5.794
 5143POPC   C1A64839  27.499  41.603   6.217
 5143POPC   D2A64840  27.252  41.505   6.567
 5143POPC   C3A64841  27.576  41.548   6.885
 5143POPC   C4A64842  27.593  41.331   7.234
 5143POPC   C1B64843  27.955  41.978   6.172
 5143POPC   C2B64844  27.852  41.854   6.574
 5143POPC   C3B64845  27.896  41.966   7.005
 5143POPC   C4B64846  27.900  41.721   7.367
 5144POPC   NC364847  21.139  18.849   5.364
 5144POPC   PO464848  21.469  19.493   5.349
 5144POPC   GL164849  21.475  19.086   5.686
 5144POPC   GL264850  21.291  18.768   5.828
 5144POPC   C1A64851  21.572  19.026   6.149
 5144POPC   D2A64852  21.372  19.008   6.580
 5144POPC   C3A64853  21.547  19.179   6.943
 5144POPC   C4A64854  21.724  18.988   7.260
 5144POPC   C1B64855  21.094  18.786   6.208
 5144POPC   C2B64856  21.093  18.588   6.594
 5144POPC   C3B64857  21.013  18.764   6.968
 5144POPC   C4B64858  21.216  18.913   7.302
 5145POPC   NC364859  32.272  27.378   5.494
 5145POPC   PO464860  31.906  27.958   5.220
 5145POPC   GL164861  31.968  27.868   5.690
 5145POPC   GL264862  32.292  27.756   5.843
 5145POPC   C1A64863  31.894  27.855   6.156
 5145POPC   D2A64864  31.930  27.612   6.531
 5145POPC   C3A64865  31.916  27.742   6.951
 5145POPC   C4A64866  32.143  27.503   7.249
 5145POPC   C1B64867  32.385  27.558   6.253
 5145POPC   C2B64868  32.447  27.360   6.669
 5145POPC   C3B64869  32.632  27.401   7.069
 5145POPC   C4B64870  32.622  27.766   7.289
 5146POPC   NC364871  36.048  28.011   5.292
 5146POPC   PO464872  36.189  28.672   5.363
 5146POPC   GL164873  36.276  28.276   5.680
 5146POPC   GL264874  35.947  28.139   5.815
 5146POPC   C1A64875  36.384  28.087   6.111
 5146POPC   D2A64876  36.177  28.059   6.521
 5146POPC   C3A64877  36.071  28.354   6.833
 5146POPC   C4A64878  36.244  28.283   7.240
 5146POPC   C1B64879  35.995  28.419   6.187
 5146POPC   C2B64880  36.055  28.786   6.477
 5146POPC   C3B64881  35.949  28.876   6.910
 5146POPC   C4B64882  35.909  28.651   7.320
 5147POPC   NC364883  26.631  26.617   5.345
 5147POPC   PO464884  27.252  26.957   5.311
 5147POPC   GL164885  27.006  26.792   5.705
 5147POPC   GL264886  26.885  26.433   5.758
 5147POPC   C1A64887  26.788  26.804   6.138
 5147POPC   D2A64888  26.610  26.742   6.589
 5147POPC   C3A64889  26.679  26.991   6.943
 5147POPC   C4A64890  26.984  27.173   7.190
 5147POPC   C1B64891  27.067  26.362   6.140
 5147POPC   C2B64892  27.220  26.514   6.552
 5147POPC   C3B64893  26.989  26.545   6.933
 5147POPC   C4B64894  27.034  26.284   7.283
 5148POPC   NC364895   2.319  14.042   5.518
 5148POPC   PO464896   2.000  14.640   5.419
 5148POPC   GL164897   1.975  14.392   5.804
 5148POPC   GL264898   1.663  14.562   5.893
 5148POPC   C1A64899   2.229  14.326   6.212
 5148POPC   D2A64900   2.233  14.131   6.624
 5148POPC   C3A64901   2.267  14.346   7.026
 5148POPC   C4A64902   2.176  14.174   7.451
 5148POPC   C1B64903   1.879  14.681   6.233
 5148POPC   C2B64904   2.053  14.635   6.609
 5148POPC   C3B64905   1.911  14.756   6.979
 5148POPC   C4B64906   2.059  14.652   7.385
 5149POPC   NC364907  41.983  12.207   5.392
 5149POPC   PO464908  42.304  11.596   5.359
 5149POPC   GL164909  42.248  11.885   5.715
 5149POPC   GL264910  42.275  12.244   5.806
 5149POPC   C1A64911  42.216  11.906   6.176
 5149POPC   D2A64912  42.472  12.088   6.479
 5149POPC   C3A64913  42.392  11.925   6.862
 5149POPC   C4A64914  42.660  12.036   7.170
 5149POPC   C1B64915  42.126  12.483   6.159
 5149POPC   C2B64916  42.112  12.426   6.571
 5149POPC   C3B64917  42.332  12.421   6.931
 5149POPC   C4B64918  42.151  12.502   7.311
 5150POPC   NC364919   2.793  15.485   5.380
 5150POPC   PO464920   2.689  16.140   5.434
 5150POPC   GL164921   2.623  15.832   5.739
 5150POPC   GL264922   2.944  15.749   5.821
 5150POPC   C1A64923   2.537  15.860   6.168
 5150POPC   D2A64924   2.791  15.974   6.524
 5150POPC   C3A64925   2.730  15.895   6.964
 5150POPC   C4A64926   2.899  16.239   7.199
 5150POPC   C1B64927   2.932  15.544   6.240
 5150POPC   C2B64928   3.042  15.528   6.689
 5150POPC   C3B64929   3.092  15.546   7.157
 5150POPC   C4B64930   2.791  15.646   7.464
 5151POPC   NC364931   4.017  38.833   5.207
 5151POPC   PO464932   4.334  38.286   5.194
 5151POPC   GL164933   4.288  38.332   5.668
 5151POPC   GL264934   4.317  38.679   5.715
 5151POPC   C1A64935   4.314  38.370   6.166
 5151POPC   D2A64936   4.557  38.582   6.537
 5151POPC   C3A64937   4.601  38.522   7.019
 5151POPC   C4A64938   4.476  38.343   7.446
 5151POPC   C1B64939   4.047  38.841   6.049
 5151POPC   C2B64940   3.900  38.653   6.426
 5151POPC   C3B64941   4.101  38.575   6.805
 5151POPC   C4B64942   4.175  38.774   7.200
 5152POPC   NC364943  24.343   7.988   5.431
 5152POPC   PO464944  24.669   8.605   5.366
 5152POPC   GL164945  24.517   8.403   5.778
 5152POPC   GL264946  24.160   8.249   5.836
 5152POPC   C1A64947  24.536   8.253   6.217
 5152POPC   D2A64948  24.598   8.427   6.618
 5152POPC   C3A64949  24.791   8.148   6.929
 5152POPC   C4A64950  24.724   7.988   7.350
 5152POPC   C1B64951  24.128   7.949   6.191
 5152POPC   C2B64952  24.337   7.967   6.625
 5152POPC   C3B64953  24.287   8.248   6.991
 5152POPC   C4B64954  24.196   8.194   7.403
 5153POPC   NC364955  25.011  24.619   5.417
 5153POPC   PO464956  25.671  24.632   5.594
 5153POPC   GL164957  25.481  24.281   5.881
 5153POPC   GL264958  25.111  24.183   5.874
 5153POPC   C1A64959  25.440  24.276   6.319
 5153POPC   D2A64960  25.468  24.596   6.623
 5153POPC   C3A64961  25.464  24.491   7.044
 5153POPC   C4A64962  25.624  24.155   7.298
 5153POPC   C1B64963  25.104  24.566   6.090
 5153POPC   C2B64964  24.989  24.741   6.524
 5153POPC   C3B64965  24.927  24.713   6.969
 5153POPC   C4B64966  25.034  24.519   7.328
 5154POPC   NC364967  17.014   4.904   5.337
 5154POPC   PO464968  16.588   5.332   5.470
 5154POPC   GL164969  16.717   5.159   5.815
 5154POPC   GL264970  16.617   4.814   5.808
 5154POPC   C1A64971  16.761   5.056   6.239
 5154POPC   D2A64972  16.504   4.991   6.604
 5154POPC   C3A64973  16.669   5.138   7.023
 5154POPC   C4A64974  16.901   5.488   7.231
 5154POPC   C1B64975  16.475   4.604   6.204
 5154POPC   C2B64976  16.394   4.471   6.646
 5154POPC   C3B64977  16.300   4.748   7.000
 5154POPC   C4B64978  16.562   4.716   7.342
 5155POPC   NC364979  42.163  44.962   5.106
 5155POPC   PO464980  42.342  44.400   5.535
 5155POPC   GL164981  42.069  44.520   5.816
 5155POPC   GL264982  41.969  44.854   5.646
 5155POPC   C1A64983  42.209  44.376   6.238
 5155POPC   D2A64984  42.489  44.596   6.529
 5155POPC   C3A64985  42.541  44.495   6.950
 5155POPC   C4A64986  42.508  44.843   7.275
 5155POPC   C1B64987  41.869  44.893   6.081
 5155POPC   C2B64988  41.999  44.778   6.481
 5155POPC   C3B64989  42.144  44.826   6.906
 5155POPC   C4B64990  42.055  44.532   7.254
 5156POPC   NC364991  41.685  42.577   5.303
 5156POPC   PO464992  41.160  42.113   5.382
 5156POPC   GL164993  41.454  42.306   5.694
 5156POPC   GL264994  41.735  42.534   5.818
 5156POPC   C1A64995  41.377  42.327   6.134
 5156POPC   D2A64996  41.345  42.530   6.535
 5156POPC   C3A64997  41.454  42.345   6.903
 5156POPC   C4A64998  41.307  42.416   7.301
 5156POPC   C1B64999  41.841  42.704   6.228
 5156POPC   C2B65000  41.866  42.566   6.655
 5156POPC   C3B65001  41.840  42.706   7.080
 5156POPC   C4B65002  41.702  42.672   7.501
 5157POPC   NC365003  33.171  21.794   5.284
 5157POPC   PO465004  33.075  21.135   5.543
 5157POPC   GL165005  33.025  21.427   5.846
 5157POPC   GL265006  32.768  21.699   5.802
 5157POPC   C1A65007  33.050  21.196   6.227
 5157POPC   D2A65008  33.333  21.141   6.556
 5157POPC   C3A65009  33.112  21.060   6.909
 5157POPC   C4A65010  33.103  21.166   7.329
 5157POPC   C1B65011  32.763  21.613   6.262
 5157POPC   C2B65012  32.767  21.344   6.621
 5157POPC   C3B65013  32.829  21.511   7.023
 5157POPC   C4B65014  32.737  21.937   7.178
 5158POPC   NC365015   7.529  44.090   5.488
 5158POPC   PO465016   6.933  44.194   5.715
 5158POPC   GL165017   7.266  44.049   5.926
 5158POPC   GL265018   7.385  43.715   5.826
 5158POPC   C1A65019   7.568  44.061   6.240
 5158POPC   D2A65020   7.578  43.902   6.647
 5158POPC   C3A65021   7.297  44.113   6.906
 5158POPC   C4A65022   7.538  44.080   7.250
 5158POPC   C1B65023   7.440  43.578   6.258
 5158POPC   C2B65024   7.204  43.530   6.666
 5158POPC   C3B65025   7.226  43.638   7.121
 5158POPC   C4B65026   7.339  43.699   7.556
 5159POPC   NC365027  42.489   8.887   5.382
 5159POPC   PO465028  42.041   9.444   5.338
 5159POPC   GL165029  42.144   9.100   5.674
 5159POPC   GL265030  42.453   9.155   5.830
 5159POPC   C1A65031  42.196   8.818   6.106
 5159POPC   D2A65032  42.458   8.732   6.512
 5159POPC   C3A65033  42.260   8.672   6.938
 5159POPC   C4A65034  42.265   8.941   7.309
 5159POPC   C1B65035  42.650   9.240   6.223
 5159POPC   C2B65036  42.829   9.073   6.569
 5159POPC   C3B65037  42.608   9.063   6.948
 5159POPC   C4B65038  42.647   9.292   7.333
 5160POPC   NC365039  41.146  10.990   5.270
 5160POPC   PO465040  41.012  10.328   5.267
 5160POPC   GL165041  40.901  10.232   5.752
 5160POPC   GL265042  40.593  10.316   5.842
 5160POPC   C1A65043  41.080  10.321   6.218
 5160POPC   D2A65044  40.858  10.402   6.651
 5160POPC   C3A65045  41.060  10.582   7.011
 5160POPC   C4A65046  40.979  10.700   7.425
 5160POPC   C1B65047  40.566  10.541   6.239
 5160POPC   C2B65048  40.345  10.607   6.645
 5160POPC   C3B65049  40.523  10.663   7.030
 5160POPC   C4B65050  40.660  10.316   7.191
 5161POPC   NC365051   8.406  26.135   5.674
 5161POPC   PO465052   8.083  26.795   5.428
 5161POPC   GL165053   8.209  26.925   5.811
 5161POPC   GL265054   8.358  26.612   5.860
 5161POPC   C1A65055   8.051  26.853   6.216
 5161POPC   D2A65056   8.195  26.872   6.609
 5161POPC   C3A65057   7.924  26.700   6.926
 5161POPC   C4A65058   7.859  26.553   7.332
 5161POPC   C1B65059   8.524  26.559   6.275
 5161POPC   C2B65060   8.689  26.734   6.656
 5161POPC   C3B65061   8.520  26.823   7.036
 5161POPC   C4B65062   8.354  26.460   7.199
 5162POPC   NC365063   5.474   8.749   5.532
 5162POPC   PO465064   5.925   9.195   5.408
 5162POPC   GL165065   5.889   9.203   5.842
 5162POPC   GL265066   5.786   8.855   5.923
 5162POPC   C1A65067   5.724   9.187   6.288
 5162POPC   D2A65068   5.840   8.993   6.684
 5162POPC   C3A65069   5.767   9.238   7.085
 5162POPC   C4A65070   5.770   9.352   7.524
 5162POPC   C1B65071   5.509   8.622   6.242
 5162POPC   C2B65072   5.632   8.466   6.702
 5162POPC   C3B65073   5.758   8.710   7.108
 5162POPC   C4B65074   5.565   8.777   7.524
 5163POPC   NC365075  25.580  41.394   5.452
 5163POPC   PO465076  24.953  41.254   5.575
 5163POPC   GL165077  25.169  41.466   5.894
 5163POPC   GL265078  25.346  41.762   5.733
 5163POPC   C1A65079  25.186  41.474   6.379
 5163POPC   D2A65080  25.518  41.236   6.624
 5163POPC   C3A65081  25.325  41.153   6.935
 5163POPC   C4A65082  25.394  41.295   7.286
 5163POPC   C1B65083  25.554  41.701   6.126
 5163POPC   C2B65084  25.614  41.725   6.564
 5163POPC   C3B65085  25.303  41.659   6.877
 5163POPC   C4B65086  25.307  41.822   7.255
 5164POPC   NC365087  23.430  35.127   5.232
 5164POPC   PO465088  22.762  35.254   5.489
 5164POPC   GL165089  22.859  35.342   5.918
 5164POPC   GL265090  23.181  35.453   5.767
 5164POPC   C1A65091  22.714  35.387   6.353
 5164POPC   D2A65092  22.460  35.649   6.634
 5164POPC   C3A65093  22.443  35.446   7.027
 5164POPC   C4A65094  22.759  35.290   7.310
 5164POPC   C1B65095  23.225  35.626   6.164
 5164POPC   C2B65096  23.202  35.435   6.525
 5164POPC   C3B65097  22.943  35.489   6.843
 5164POPC   C4B65098  23.187  35.535   7.192
 5165POPC   NC365099  21.571  41.309   5.467
 5165POPC   PO465100  21.288  41.879   5.154
 5165POPC   GL165101  21.252  41.730   5.657
 5165POPC   GL265102  21.132  41.394   5.752
 5165POPC   C1A65103  21.500  41.721   6.109
 5165POPC   D2A65104  21.629  41.779   6.581
 5165POPC   C3A65105  21.659  41.683   7.034
 5165POPC   C4A65106  21.717  41.357   7.313
 5165POPC   C1B65107  21.027  41.589   6.165
 5165POPC   C2B65108  20.893  41.687   6.578
 5165POPC   C3B65109  20.977  41.447   6.915
 5165POPC   C4B65110  21.216  41.499   7.273
 5166POPC   NC365111   8.025  38.628   5.379
 5166POPC   PO465112   8.188  37.955   5.526
 5166POPC   GL165113   8.180  38.294   5.805
 5166POPC   GL265114   8.355  38.619   5.768
 5166POPC   C1A65115   8.325  38.360   6.230
 5166POPC   D2A65116   8.399  38.643   6.560
 5166POPC   C3A65117   8.407  38.333   6.896
 5166POPC   C4A65118   8.284  38.298   7.335
 5166POPC   C1B65119   7.980  38.713   6.049
 5166POPC   C2B65120   7.954  38.876   6.462
 5166POPC   C3B65121   7.980  38.640   6.857
 5166POPC   C4B65122   8.302  38.774   7.162
 5167POPC   NC365123  16.493   9.116   5.156
 5167POPC   PO465124  15.807   9.023   5.400
 5167POPC   GL165125  15.752   8.872   5.832
 5167POPC   GL265126  15.893   9.154   6.020
 5167POPC   C1A65127  15.880   8.639   6.223
 5167POPC   D2A65128  15.984   8.518   6.651
 5167POPC   C3A65129  15.812   8.864   6.860
 5167POPC   C4A65130  16.062   9.025   7.176
 5167POPC   C1B65131  15.941   9.404   6.421
 5167POPC   C2B65132  16.231   9.478   6.782
 5167POPC   C3B65133  16.203   9.499   7.240
 5167POPC   C4B65134  16.292   9.211   7.616
 5168POPC   NC365135  21.321   4.010   5.418
 5168POPC   PO465136  21.172   4.699   5.367
 5168POPC   GL165137  21.125   4.422   5.713
 5168POPC   GL265138  21.447   4.393   5.809
 5168POPC   C1A65139  21.102   4.404   6.187
 5168POPC   D2A65140  21.254   4.601   6.586
 5168POPC   C3A65141  21.114   4.501   7.018
 5168POPC   C4A65142  20.842   4.424   7.380
 5168POPC   C1B65143  21.583   4.200   6.241
 5168POPC   C2B65144  21.556   4.216   6.705
 5168POPC   C3B65145  21.581   4.362   7.138
 5168POPC   C4B65146  21.523   4.387   7.614
 5169POPC   NC365147   1.274  36.565   5.140
 5169POPC   PO465148   1.340  37.221   5.354
 5169POPC   GL165149   1.397  37.146   5.780
 5169POPC   GL265150   1.265  36.834   5.741
 5169POPC   C1A65151   1.544  36.966   6.170
 5169POPC   D2A65152   1.393  36.751   6.520
 5169POPC   C3A65153   1.407  36.992   6.869
 5169POPC   C4A65154   1.347  36.884   7.283
 5169POPC   C1B65155   1.037  36.799   6.136
 5169POPC   C2B65156   0.923  36.593   6.539
 5169POPC   C3B65157   1.000  36.693   6.955
 5169POPC   C4B65158   0.841  36.794   7.346
 5170POPC   NC365159   7.617  26.494   5.409
 5170POPC   PO465160   7.326  27.046   5.394
 5170POPC   GL165161   7.263  26.969   5.826
 5170POPC   GL265162   7.182  26.621   5.869
 5170POPC   C1A65163   7.483  26.865   6.251
 5170POPC   D2A65164   7.626  27.066   6.672
 5170POPC   C3A65165   7.419  26.842   7.034
 5170POPC   C4A65166   7.382  26.819   7.473
 5170POPC   C1B65167   6.872  26.486   6.166
 5170POPC   C2B65168   6.902  26.296   6.560
 5170POPC   C3B65169   7.040  26.516   6.891
 5170POPC   C4B65170   6.954  26.611   7.300
 5171POPC   NC365171  22.316  17.016   5.278
 5171POPC   PO465172  22.403  16.427   5.536
 5171POPC   GL165173  22.140  16.662   5.825
 5171POPC   GL265174  22.015  17.002   5.758
 5171POPC   C1A65175  22.032  16.614   6.266
 5171POPC   D2A65176  21.894  16.377   6.649
 5171POPC   C3A65177  22.053  16.520   7.065
 5171POPC   C4A65178  22.476  16.702   7.195
 5171POPC   C1B65179  22.190  17.116   6.124
 5171POPC   C2B65180  21.987  17.058   6.483
 5171POPC   C3B65181  22.149  16.978   6.855
 5171POPC   C4B65182  22.000  16.996   7.251
 5172POPC   NC365183  25.938   8.858   5.404
 5172POPC   PO465184  26.327   9.378   5.618
 5172POPC   GL165185  26.179   9.059   5.881
 5172POPC   GL265186  25.848   8.912   5.892
 5172POPC   C1A65187  26.160   8.998   6.320
 5172POPC   D2A65188  25.951   8.970   6.702
 5172POPC   C3A65189  26.165   9.162   7.089
 5172POPC   C4A65190  26.415   8.946   7.417
 5172POPC   C1B65191  25.675   9.151   6.225
 5172POPC   C2B65192  25.665   9.433   6.570
 5172POPC   C3B65193  25.652   9.270   6.976
 5172POPC   C4B65194  25.728   9.225   7.404
 5173POPC   NC365195  13.855  27.106   5.513
 5173POPC   PO465196  13.478  26.571   5.342
 5173POPC   GL165197  13.477  26.558   5.826
 5173POPC   GL265198  13.801  26.739   5.882
 5173POPC   C1A65199  13.449  26.770   6.252
 5173POPC   D2A65200  13.777  26.785   6.598
 5173POPC   C3A65201  13.593  26.892   6.991
 5173POPC   C4A65202  13.164  26.883   7.070
 5173POPC   C1B65203  13.833  27.118   6.173
 5173POPC   C2B65204  13.831  27.294   6.594
 5173POPC   C3B65205  13.997  27.199   6.997
 5173POPC   C4B65206  13.995  26.914   7.351
 5174POPC   NC365207  42.107  28.614   5.121
 5174POPC   PO465208  42.298  28.132   5.529
 5174POPC   GL165209  42.378  28.252   5.924
 5174POPC   GL265210  42.597  28.526   5.995
 5174POPC   C1A65211  42.328  28.320   6.374
 5174POPC   D2A65212  42.296  28.694   6.593
 5174POPC   C3A65213  42.196  28.569   7.009
 5174POPC   C4A65214  42.063  28.140   7.079
 5174POPC   C1B65215  42.764  28.105   6.197
 5174POPC   C2B65216  42.603  27.816   6.511
 5174POPC   C3B65217  42.542  27.958   6.936
 5174POPC   C4B65218  42.672  28.251   7.227
 5175POPC   NC365219  26.391  40.028   5.378
 5175POPC   PO465220  26.025  39.492   5.376
 5175POPC   GL165221  25.997  39.762   5.765
 5175POPC   GL265222  26.090  40.121   5.809
 5175POPC   C1A65223  26.171  39.771   6.203
 5175POPC   D2A65224  25.963  39.926   6.587
 5175POPC   C3A65225  25.983  39.754   6.992
 5175POPC   C4A65226  25.817  39.812   7.393
 5175POPC   C1B65227  26.122  40.315   6.244
 5175POPC   C2B65228  26.409  40.159   6.564
 5175POPC   C3B65229  26.378  40.094   6.954
 5175POPC   C4B65230  26.128  40.205   7.266
 5176POPC   NC365231   2.829  24.730   5.396
 5176POPC   PO465232   2.976  25.377   5.398
 5176POPC   GL165233   2.621  25.374   5.714
 5176POPC   GL265234   2.458  25.054   5.722
 5176POPC   C1A65235   2.575  25.470   6.165
 5176POPC   D2A65236   2.835  25.463   6.557
 5176POPC   C3A65237   2.682  25.578   6.960
 5176POPC   C4A65238   2.628  25.407   7.379
 5176POPC   C1B65239   2.311  24.993   6.157
 5176POPC   C2B65240   2.387  24.839   6.600
 5176POPC   C3B65241   2.617  25.048   6.947
 5176POPC   C4B65242   2.464  24.929   7.348
 5177POPC   NC365243   3.228  41.111   5.574
 5177POPC   PO465244   3.663  40.607   5.358
 5177POPC   GL165245   3.669  40.629   5.806
 5177POPC   GL265246   3.300  40.671   5.846
 5177POPC   C1A65247   3.594  40.876   6.204
 5177POPC   D2A65248   3.435  40.757   6.625
 5177POPC   C3A65249   3.602  40.892   6.993
 5177POPC   C4A65250   3.585  41.103   7.354
 5177POPC   C1B65251   3.375  40.419   6.258
 5177POPC   C2B65252   3.091  40.361   6.602
 5177POPC   C3B65253   3.111  40.581   6.980
 5177POPC   C4B65254   3.324  40.586   7.322
 5178POPC   NC365255   8.600  30.678   5.463
 5178POPC   PO465256   8.083  30.294   5.473
 5178POPC   GL165257   8.164  30.605   5.789
 5178POPC   GL265258   8.454  30.353   5.841
 5178POPC   C1A65259   8.024  30.902   6.172
 5178POPC   D2A65260   8.200  30.987   6.606
 5178POPC   C3A65261   8.111  30.807   7.026
 5178POPC   C4A65262   7.868  30.436   7.224
 5178POPC   C1B65263   8.387  30.549   6.249
 5178POPC   C2B65264   8.518  30.532   6.677
 5178POPC   C3B65265   8.342  30.352   7.036
 5178POPC   C4B65266   8.303  30.298   7.487
 5179POPC   NC365267   6.238  24.617   5.208
 5179POPC   PO465268   5.712  24.335   5.618
 5179POPC   GL165269   5.758  24.343   6.022
 5179POPC   GL265270   6.049  24.097   5.995
 5179POPC   C1A65271   5.686  24.684   6.334
 5179POPC   D2A65272   5.607  24.826   6.776
 5179POPC   C3A65273   5.598  24.518   7.058
 5179POPC   C4A65274   5.879  24.163   7.105
 5179POPC   C1B65275   6.161  24.392   6.320
 5179POPC   C2B65276   5.981  24.466   6.709
 5179POPC   C3B65277   6.074  24.714   7.069
 5179POPC   C4B65278   5.898  24.933   7.417
 5180POPC   NC365279  12.068  31.936   5.407
 5180POPC   PO465280  12.375  32.486   5.249
 5180POPC   GL165281  12.309  32.368   5.684
 5180POPC   GL265282  12.475  32.050   5.753
 5180POPC   C1A65283  12.164  32.444   6.109
 5180POPC   D2A65284  11.870  32.240   6.390
 5180POPC   C3A65285  11.890  32.339   6.833
 5180POPC   C4A65286  12.038  32.162   7.220
 5180POPC   C1B65287  12.341  31.969   6.207
 5180POPC   C2B65288  12.239  31.975   6.684
 5180POPC   C3B65289  12.489  32.023   7.086
 5180POPC   C4B65290  12.343  32.062   7.605
 5181POPC   NC365291   7.938  32.772   5.339
 5181POPC   PO465292   8.542  32.651   5.538
 5181POPC   GL165293   8.168  32.915   5.793
 5181POPC   GL265294   7.820  32.772   5.843
 5181POPC   C1A65295   8.014  33.109   6.218
 5181POPC   D2A65296   8.201  33.135   6.660
 5181POPC   C3A65297   8.434  32.906   7.009
 5181POPC   C4A65298   8.595  33.009   7.429
 5181POPC   C1B65299   7.604  32.825   6.231
 5181POPC   C2B65300   7.740  32.909   6.649
 5181POPC   C3B65301   7.911  33.000   7.069
 5181POPC   C4B65302   8.196  33.326   7.225
 5182POPC   NC365303  36.669  26.552   5.436
 5182POPC   PO465304  37.054  26.011   5.326
 5182POPC   GL165305  36.964  25.889   5.738
 5182POPC   GL265306  36.749  26.184   5.802
 5182POPC   C1A65307  36.768  25.842   6.163
 5182POPC   D2A65308  36.994  25.886   6.535
 5182POPC   C3A65309  36.765  25.885   6.889
 5182POPC   C4A65310  36.953  25.921   7.257
 5182POPC   C1B65311  36.522  26.301   6.171
 5182POPC   C2B65312  36.643  26.289   6.603
 5182POPC   C3B65313  36.490  26.299   7.036
 5182POPC   C4B65314  36.613  26.233   7.463
 5183POPC   NC365315  13.000  19.632   5.533
 5183POPC   PO465316  13.116  18.915   5.443
 5183POPC   GL165317  12.984  19.004   5.867
 5183POPC   GL265318  12.823  19.352   5.941
 5183POPC   C1A65319  12.956  19.012   6.308
 5183POPC   D2A65320  12.696  19.193   6.607
 5183POPC   C3A65321  12.606  18.962   6.981
 5183POPC   C4A65322  12.686  18.969   7.457
 5183POPC   C1B65323  13.166  19.468   6.252
 5183POPC   C2B65324  13.233  19.254   6.664
 5183POPC   C3B65325  13.094  19.099   7.037
 5183POPC   C4B65326  13.119  19.240   7.474
 5184POPC   NC365327  37.524  44.191   5.494
 5184POPC   PO465328  37.992  43.689   5.368
 5184POPC   GL165329  37.852  43.917   5.757
 5184POPC   GL265330  37.504  43.773   5.823
 5184POPC   C1A65331  37.951  43.927   6.201
 5184POPC   D2A65332  37.785  43.762   6.588
 5184POPC   C3A65333  37.879  43.946   7.009
 5184POPC   C4A65334  37.796  43.705   7.399
 5184POPC   C1B65335  37.433  44.082   6.152
 5184POPC   C2B65336  37.193  44.074   6.538
 5184POPC   C3B65337  37.371  43.953   6.905
 5184POPC   C4B65338  37.400  44.043   7.309
 5185POPC   NC365339  15.766  18.378   5.438
 5185POPC   PO465340  16.146  17.788   5.298
 5185POPC   GL165341  16.069  18.064   5.709
 5185POPC   GL265342  15.775  18.178   5.903
 5185POPC   C1A65343  16.243  18.290   6.114
 5185POPC   D2A65344  16.156  18.507   6.546
 5185POPC   C3A65345  16.241  18.337   6.972
 5185POPC   C4A65346  15.992  18.094   7.253
 5185POPC   C1B65347  15.816  18.593   6.153
 5185POPC   C2B65348  15.705  18.834   6.530
 5185POPC   C3B65349  15.495  18.614   6.868
 5185POPC   C4B65350  15.703  18.503   7.261
 5186POPC   NC365351  23.535  17.512   4.994
 5186POPC   PO465352  23.984  17.639   5.486
 5186POPC   GL165353  23.798  17.719   5.852
 5186POPC   GL265354  23.905  18.039   5.832
 5186POPC   C1A65355  23.529  17.647   6.183
 5186POPC   D2A65356  23.594  17.347   6.531
 5186POPC   C3A65357  23.475  17.480   6.944
 5186POPC   C4A65358  23.622  17.571   7.365
 5186POPC   C1B65359  23.970  17.981   6.255
 5186POPC   C2B65360  23.749  17.850   6.600
 5186POPC   C3B65361  23.843  17.834   6.993
 5186POPC   C4B65362  24.119  17.734   7.269
 5187POPC   NC365363  32.044  28.351   5.450
 5187POPC   PO465364  32.588  27.909   5.430
 5187POPC   GL165365  32.525  28.209   5.805
 5187POPC   GL265366  32.213  28.380   5.910
 5187POPC   C1A65367  32.380  28.081   6.278
 5187POPC   D2A65368  32.353  27.860   6.698
 5187POPC   C3A65369  32.323  28.120   7.078
 5187POPC   C4A65370  32.415  28.605   7.103
 5187POPC   C1B65371  31.924  28.354   6.246
 5187POPC   C2B65372  31.976  28.210   6.660
 5187POPC   C3B65373  31.938  28.425   7.024
 5187POPC   C4B65374  31.656  28.595   7.282
 5188POPC   NC365375   6.597  44.449   5.526
 5188POPC   PO465376   6.691   0.158   5.616
 5188POPC   GL165377   6.594  44.837   5.876
 5188POPC   GL265378   6.922  44.696   5.870
 5188POPC   C1A65379   6.583  44.489   6.186
 5188POPC   D2A65380   6.674  44.566   6.582
 5188POPC   C3A65381   6.361  44.653   6.883
 5188POPC   C4A65382   6.351  44.861   7.314
 5188POPC   C1B65383   7.125  44.562   6.259
 5188POPC   C2B65384   7.165  44.601   6.715
 5188POPC   C3B65385   6.849  44.662   7.048
 5188POPC   C4B65386   6.609  44.338   7.253
 5189POPC   NC365387  13.406   0.202   5.535
 5189POPC   PO465388  12.883   0.327   5.183
 5189POPC   GL165389  12.914   0.286   5.689
 5189POPC   GL265390  13.049  44.954   5.808
 5189POPC   C1A65391  12.885   0.523   6.120
 5189POPC   D2A65392  12.688   0.510   6.547
 5189POPC   C3A65393  12.743   0.762   6.870
 5189POPC   C4A65394  12.771   0.603   7.264
 5189POPC   C1B65395  12.779   0.028   6.164
 5189POPC   C2B65396  12.924   0.060   6.563
 5189POPC   C3B65397  12.979   0.270   6.944
 5189POPC   C4B65398  13.099   0.005   7.290
 5190POPC   NC365399  31.971   3.182   5.621
 5190POPC   PO465400  32.366   2.648   5.444
 5190POPC   GL165401  32.340   2.661   5.881
 5190POPC   GL265402  31.994   2.740   5.887
 5190POPC   C1A65403  32.231   2.728   6.337
 5190POPC   D2A65404  32.412   2.872   6.696
 5190POPC   C3A65405  32.199   2.752   7.085
 5190POPC   C4A65406  32.338   2.425   7.356
 5190POPC   C1B65407  31.871   3.054   6.224
 5190POPC   C2B65408  31.914   3.071   6.651
 5190POPC   C3B65409  31.979   3.239   7.036
 5190POPC   C4B65410  31.961   3.096   7.426
 5191POPC   NC365411   0.213  43.768   5.281
 5191POPC   PO465412   0.896  43.959   5.305
 5191POPC   GL165413   0.588  43.881   5.719
 5191POPC   GL265414   0.685  43.625   5.959
 5191POPC   C1A65415   0.259  43.858   6.084
 5191POPC   D2A65416   0.389  43.875   6.546
 5191POPC   C3A65417   0.207  43.663   6.888
 5191POPC   C4A65418   0.020  43.762   7.249
 5191POPC   C1B65419   0.723  44.032   6.205
 5191POPC   C2B65420   0.892  44.085   6.623
 5191POPC   C3B65421   0.732  43.862   6.949
 5191POPC   C4B65422   0.516  43.841   7.310
 5192POPC   NC365423  24.689  41.636   5.471
 5192POPC   PO465424  24.147  41.828   5.730
 5192POPC   GL165425  24.271  41.402   5.901
 5192POPC   GL265426  24.589  41.214   5.934
 5192POPC   C1A65427  24.313  41.447   6.337
 5192POPC   D2A65428  24.168  41.757   6.608
 5192POPC   C3A65429  24.249  41.484   6.912
 5192POPC   C4A65430  24.389  41.388   7.313
 5192POPC   C1B65431  24.737  41.627   6.117
 5192POPC   C2B65432  24.749  41.787   6.514
 5192POPC   C3B65433  24.792  41.528   6.855
 5192POPC   C4B65434  24.813  41.700   7.225
 5193POPC   NC365435  44.838  21.974   5.477
 5193POPC   PO465436  44.219  22.166   5.215
 5193POPC   GL165437  44.356  22.319   5.651
 5193POPC   GL265438  44.697  22.459   5.658
 5193POPC   C1A65439  44.548  22.159   6.076
 5193POPC   D2A65440  44.776  21.861   6.389
 5193POPC   C3A65441  44.639  21.829   6.852
 5193POPC   C4A65442  44.776  22.090   7.226
 5193POPC   C1B65443  44.840  22.579   6.075
 5193POPC   C2B65444  44.728  22.416   6.486
 5193POPC   C3B65445  44.755  22.508   6.945
 5193POPC   C4B65446  44.949  22.675   7.328
 5194POPC   NC365447  11.911   9.713   5.542
 5194POPC   PO465448  12.138  10.319   5.569
 5194POPC   GL165449  12.013  10.061   5.913
 5194POPC   GL265450  12.216   9.724   5.957
 5194POPC   C1A65451  11.882   9.929   6.321
 5194POPC   D2A65452  12.172   9.674   6.564
 5194POPC   C3A65453  12.284   9.763   6.994
 5194POPC   C4A65454  12.009   9.997   7.245
 5194POPC   C1B65455  11.890   9.444   6.158
 5194POPC   C2B65456  11.671   9.480   6.558
 5194POPC   C3B65457  11.810   9.612   6.949
 5194POPC   C4B65458  11.941   9.511   7.362
 5195POPC   NC365459  23.492  17.893   5.489
 5195POPC   PO465460  23.958  18.203   5.119
 5195POPC   GL165461  24.049  18.452   5.573
 5195POPC   GL265462  23.699  18.517   5.761
 5195POPC   C1A65463  24.091  18.465   6.081
 5195POPC   D2A65464  23.907  18.572   6.509
 5195POPC   C3A65465  23.950  18.324   6.923
 5195POPC   C4A65466  23.940  18.180   7.396
 5195POPC   C1B65467  23.599  18.327   6.196
 5195POPC   C2B65468  23.479  18.281   6.693
 5195POPC   C3B65469  23.480  18.157   7.174
 5195POPC   C4B65470  23.521  18.020   7.641
 5196POPC   NC365471  17.283  29.838   5.303
 5196POPC   PO465472  17.629  30.362   5.159
 5196POPC   GL165473  17.719  30.154   5.607
 5196POPC   GL265474  17.433  29.947   5.764
 5196POPC   C1A65475  17.786  30.034   6.099
 5196POPC   D2A65476  17.559  30.104   6.510
 5196POPC   C3A65477  17.711  30.035   6.942
 5196POPC   C4A65478  17.744  30.135   7.403
 5196POPC   C1B65479  17.206  30.067   6.119
 5196POPC   C2B65480  17.037  29.970   6.506
 5196POPC   C3B65481  17.197  30.117   6.889
 5196POPC   C4B65482  17.268  29.985   7.276
 5197POPC   NC365483   8.923  13.469   5.399
 5197POPC   PO465484   9.433  13.823   5.565
 5197POPC   GL165485   9.085  13.681   5.864
 5197POPC   GL265486   8.882  13.346   5.867
 5197POPC   C1A65487   8.924  13.755   6.296
 5197POPC   D2A65488   8.776  13.737   6.742
 5197POPC   C3A65489   8.943  13.866   7.166
 5197POPC   C4A65490   8.719  13.735   7.544
 5197POPC   C1B65491   8.995  13.243   6.227
 5197POPC   C2B65492   8.960  13.285   6.625
 5197POPC   C3B65493   9.172  13.461   6.956
 5197POPC   C4B65494   9.556  13.452   7.150
 5198POPC   NC365495  29.732  12.442   5.396
 5198POPC   PO465496  30.222  11.880   5.353
 5198POPC   GL165497  29.923  12.038   5.641
 5198POPC   GL265498  29.727  11.792   5.694
 5198POPC   C1A65499  29.802  12.210   6.075
 5198POPC   D2A65500  29.814  12.053   6.528
 5198POPC   C3A65501  29.907  12.352   6.866
 5198POPC   C4A65502  29.894  12.307   7.298
 5198POPC   C1B65503  29.702  11.706   6.133
 5198POPC   C2B65504  29.726  11.510   6.538
 5198POPC   C3B65505  29.757  11.697   6.946
 5198POPC   C4B65506  29.822  11.811   7.373
 5199POPC   NC365507  17.849  15.612   5.527
 5199POPC   PO465508  18.266  16.051   5.392
 5199POPC   GL165509  17.963  16.069   5.757
 5199POPC   GL265510  18.176  15.801   5.868
 5199POPC   C1A65511  17.867  15.982   6.221
 5199POPC   D2A65512  18.112  15.852   6.575
 5199POPC   C3A65513  18.026  15.949   7.005
 5199POPC   C4A65514  18.242  16.284   7.218
 5199POPC   C1B65515  18.558  15.910   6.098
 5199POPC   C2B65516  18.661  15.811   6.533
 5199POPC   C3B65517  18.549  15.970   6.945
 5199POPC   C4B65518  18.404  15.817   7.350
 5200POPC   NC365519  34.301  37.696   5.225
 5200POPC   PO465520  34.761  38.003   5.536
 5200POPC   GL165521  34.540  37.772   5.816
 5200POPC   GL265522  34.764  37.510   5.911
 5200POPC   C1A65523  34.537  37.819   6.261
 5200POPC   D2A65524  34.773  37.729   6.619
 5200POPC   C3A65525  34.560  37.700   7.012
 5200POPC   C4A65526  34.406  38.001   7.269
 5200POPC   C1B65527  34.486  37.322   6.162
 5200POPC   C2B65528  34.678  37.235   6.497
 5200POPC   C3B65529  34.644  37.211   6.920
 5200POPC   C4B65530  34.809  37.293   7.317
 5201POPC   NC365531  38.802  20.765   5.318
 5201POPC   PO465532  39.307  20.351   5.332
 5201POPC   GL165533  39.195  20.646   5.626
 5201POPC   GL265534  39.511  20.702   5.751
 5201POPC   C1A65535  39.051  20.569   6.041
 5201POPC   D2A65536  39.068  20.630   6.466
 5201POPC   C3A65537  39.067  20.332   6.813
 5201POPC   C4A65538  38.918  20.498   7.195
 5201POPC   C1B65539  39.599  20.608   6.187
 5201POPC   C2B65540  39.521  20.513   6.619
 5201POPC   C3B65541  39.402  20.645   7.031
 5201POPC   C4B65542  39.605  20.769   7.358
 5202POPC   NC365543  32.140   8.711   5.449
 5202POPC   PO465544  32.137   8.014   5.362
 5202POPC   GL165545  32.337   8.018   5.742
 5202POPC   GL265546  32.329   8.377   5.815
 5202POPC   C1A65547  32.100   7.966   6.113
 5202POPC   D2A65548  32.069   8.117   6.517
 5202POPC   C3A65549  32.142   7.806   6.823
 5202POPC   C4A65550  32.257   8.000   7.197
 5202POPC   C1B65551  32.558   8.551   6.200
 5202POPC   C2B65552  32.491   8.766   6.597
 5202POPC   C3B65553  32.265   8.546   6.909
 5202POPC   C4B65554  32.201   8.501   7.324
 5203POPC   NC365555  18.665   4.753   5.376
 5203POPC   PO465556  19.209   5.083   5.307
 5203POPC   GL165557  19.238   5.247   5.755
 5203POPC   GL265558  19.046   5.522   5.816
 5203POPC   C1A65559  19.397   5.314   6.195
 5203POPC   D2A65560  19.514   5.023   6.547
 5203POPC   C3A65561  19.454   5.143   6.994
 5203POPC   C4A65562  19.192   5.019   7.390
 5203POPC   C1B65563  18.839   5.378   6.187
 5203POPC   C2B65564  18.996   5.168   6.554
 5203POPC   C3B65565  18.965   5.237   6.980
 5203POPC   C4B65566  18.683   5.180   7.302
 5204POPC   NC365567  17.866   4.927   5.534
 5204POPC   PO465568  17.287   5.294   5.329
 5204POPC   GL165569  17.242   5.179   5.777
 5204POPC   GL265570  17.129   4.872   5.862
 5204POPC   C1A65571  17.216   5.327   6.221
 5204POPC   D2A65572  17.479   5.194   6.579
 5204POPC   C3A65573  17.277   5.209   6.999
 5204POPC   C4A65574  17.299   5.268   7.472
 5204POPC   C1B65575  17.529   4.900   6.130
 5204POPC   C2B65576  17.711   4.708   6.498
 5204POPC   C3B65577  17.581   4.803   6.894
 5204POPC   C4B65578  17.641   4.935   7.263
 5205POPC   NC365579  44.561  20.154   5.618
 5205POPC   PO465580  44.579  20.681   5.240
 5205POPC   GL165581  44.722  20.755   5.703
 5205POPC   GL265582  44.842  20.461   5.882
 5205POPC   C1A65583  44.786  20.891   6.165
 5205POPC   D2A65584  44.481  20.880   6.524
 5205POPC   C3A65585  44.597  20.717   6.918
 5205POPC   C4A65586  44.669  20.687   7.333
 5205POPC   C1B65587  44.488  20.473   6.181
 5205POPC   C2B65588  44.360  20.356   6.577
 5205POPC   C3B65589  44.160  20.463   6.933
 5205POPC   C4B65590  44.267  20.355   7.339
 5206POPC   NC365591  38.427  35.178   5.145
 5206POPC   PO465592  38.500  34.558   5.417
 5206POPC   GL165593  38.526  34.497   5.856
 5206POPC   GL265594  38.631  34.142   5.909
 5206POPC   C1A65595  38.508  34.749   6.261
 5206POPC   D2A65596  38.676  34.953   6.663
 5206POPC   C3A65597  38.360  34.989   7.018
 5206POPC   C4A65598  38.000  34.756   7.176
 5206POPC   C1B65599  38.457  34.221   6.302
 5206POPC   C2B65600  38.374  34.208   6.720
 5206POPC   C3B65601  38.336  34.349   7.092
 5206POPC   C4B65602  38.577  34.197   7.432
 5207POPC   NC365603  33.022  14.502   5.322
 5207POPC   PO465604  32.784  13.815   5.221
 5207POPC   GL165605  33.102  14.058   5.548
 5207POPC   GL265606  32.861  14.307   5.775
 5207POPC   C1A65607  33.263  14.088   6.004
 5207POPC   D2A65608  33.053  14.027   6.395
 5207POPC   C3A65609  33.279  14.142   6.777
 5207POPC   C4A65610  33.164  14.220   7.187
 5207POPC   C1B65611  32.993  14.510   6.206
 5207POPC   C2B65612  33.043  14.813   6.582
 5207POPC   C3B65613  33.083  14.726   7.036
 5207POPC   C4B65614  33.359  14.625   7.404
 5208POPC   NC365615  25.421  32.371   5.089
 5208POPC   PO465616  25.045  31.936   5.409
 5208POPC   GL165617  25.106  32.232   5.737
 5208POPC   GL265618  25.449  32.325   5.653
 5208POPC   C1A65619  25.175  32.465   6.140
 5208POPC   D2A65620  25.377  32.357   6.529
 5208POPC   C3A65621  25.136  32.299   6.907
 5208POPC   C4A65622  25.177  32.399   7.347
 5208POPC   C1B65623  25.530  32.115   6.073
 5208POPC   C2B65624  25.621  31.889   6.436
 5208POPC   C3B65625  25.530  31.981   6.862
 5208POPC   C4B65626  25.299  31.900   7.221
 5209POPC   NC365627  21.535  33.527   5.515
 5209POPC   PO465628  21.068  34.054   5.377
 5209POPC   GL165629  21.257  34.103   5.786
 5209POPC   GL265630  21.586  34.024   5.687
 5209POPC   C1A65631  21.314  33.803   6.175
 5209POPC   D2A65632  21.441  33.512   6.555
 5209POPC   C3A65633  21.410  33.678   6.983
 5209POPC   C4A65634  21.179  33.960   7.229
 5209POPC   C1B65635  21.756  34.073   6.081
 5209POPC   C2B65636  21.645  34.003   6.519
 5209POPC   C3B65637  21.523  34.186   6.895
 5209POPC   C4B65638  21.700  34.093   7.281
 5210POPC   NC365639  41.130  14.243   5.370
 5210POPC   PO465640  40.689  14.781   5.329
 5210POPC   GL165641  40.856  14.532   5.708
 5210POPC   GL265642  40.772  14.187   5.825
 5210POPC   C1A65643  40.951  14.559   6.153
 5210POPC   D2A65644  41.096  14.441   6.573
 5210POPC   C3A65645  40.856  14.640   6.902
 5210POPC   C4A65646  40.730  14.601   7.330
 5210POPC   C1B65647  40.475  14.137   6.213
 5210POPC   C2B65648  40.502  14.070   6.674
 5210POPC   C3B65649  40.858  14.105   6.957
 5210POPC   C4B65650  40.876  14.113   7.397
 5211POPC   NC365651  34.172   9.548   5.412
 5211POPC   PO465652  33.760  10.025   5.501
 5211POPC   GL165653  33.881   9.790   5.806
 5211POPC   GL265654  33.768   9.471   5.705
 5211POPC   C1A65655  34.029   9.868   6.216
 5211POPC   D2A65656  34.202   9.788   6.602
 5211POPC   C3A65657  33.977   9.672   6.935
 5211POPC   C4A65658  34.176   9.744   7.299
 5211POPC   C1B65659  33.788   9.425   6.150
 5211POPC   C2B65660  33.959   9.303   6.529
 5211POPC   C3B65661  33.893   9.156   6.925
 5211POPC   C4B65662  33.748   9.354   7.298
 5212POPC   NC365663  42.024  16.798   5.290
 5212POPC   PO465664  42.618  16.722   5.503
 5212POPC   GL165665  42.294  16.723   5.835
 5212POPC   GL265666  42.088  17.020   5.741
 5212POPC   C1A65667  42.282  16.610   6.307
 5212POPC   D2A65668  42.548  16.450   6.677
 5212POPC   C3A65669  42.460  16.546   7.114
 5212POPC   C4A65670  42.354  16.965   7.262
 5212POPC   C1B65671  41.953  17.006   6.155
 5212POPC   C2B65672  42.075  16.991   6.590
 5212POPC   C3B65673  42.052  16.633   6.835
 5212POPC   C4B65674  41.974  16.599   7.253
 5213POPC   NC365675  30.031  19.422   5.200
 5213POPC   PO465676  29.725  18.789   5.405
 5213POPC   GL165677  29.896  18.825   5.820
 5213POPC   GL265678  30.257  18.804   5.784
 5213POPC   C1A65679  29.763  18.976   6.239
 5213POPC   D2A65680  29.655  19.193   6.639
 5213POPC   C3A65681  29.694  18.975   7.011
 5213POPC   C4A65682  29.474  18.905   7.407
 5213POPC   C1B65683  30.264  19.088   6.173
 5213POPC   C2B65684  30.151  19.107   6.624
 5213POPC   C3B65685  30.263  19.154   7.068
 5213POPC   C4B65686  30.238  19.393   7.470
 5214POPC   NC365687  20.535  30.023   5.376
 5214POPC   PO465688  19.899  30.037   5.298
 5214POPC   GL165689  20.204  30.149   5.725
 5214POPC   GL265690  20.520  29.907   5.856
 5214POPC   C1A65691  20.255  30.111   6.206
 5214POPC   D2A65692  20.254  29.854   6.575
 5214POPC   C3A65693  20.420  30.032   6.929
 5214POPC   C4A65694  20.616  29.915   7.290
 5214POPC   C1B65695  20.698  29.816   6.281
 5214POPC   C2B65696  20.842  29.871   6.715
 5214POPC   C3B65697  20.884  29.577   7.078
 5214POPC   C4B65698  21.038  29.681   7.527
 5215POPC   NC365699  11.790  25.892   5.382
 5215POPC   PO465700  11.202  26.067   5.292
 5215POPC   GL165701  11.455  26.153   5.687
 5215POPC   GL265702  11.712  25.943   5.866
 5215POPC   C1A65703  11.301  26.249   6.098
 5215POPC   D2A65704  11.404  26.278   6.535
 5215POPC   C3A65705  11.186  26.221   6.922
 5215POPC   C4A65706  11.251  25.888   7.199
 5215POPC   C1B65707  11.555  25.850   6.270
 5215POPC   C2B65708  11.349  25.763   6.657
 5215POPC   C3B65709  11.587  25.589   6.979
 5215POPC   C4B65710  11.782  25.880   7.237
 5216POPC   NC365711   2.361  16.914   5.221
 5216POPC   PO465712   1.935  16.382   5.374
 5216POPC   GL165713   1.982  16.591   5.803
 5216POPC   GL265714   2.048  16.960   5.761
 5216POPC   C1A65715   2.045  16.578   6.282
 5216POPC   D2A65716   1.883  16.415   6.688
 5216POPC   C3A65717   2.064  16.605   7.078
 5216POPC   C4A65718   1.995  16.520   7.542
 5216POPC   C1B65719   1.898  17.053   6.213
 5216POPC   C2B65720   1.902  16.937   6.685
 5216POPC   C3B65721   1.852  17.073   7.128
 5216POPC   C4B65722   2.086  17.346   7.425
 5217POPC   NC365723  41.792  43.417   5.261
 5217POPC   PO465724  41.270  42.837   5.299
 5217POPC   GL165725  41.388  42.921   5.706
 5217POPC   GL265726  41.447  43.271   5.701
 5217POPC   C1A65727  41.361  42.856   6.149
 5217POPC   D2A65728  41.551  43.009   6.570
 5217POPC   C3A65729  41.351  42.852   6.953
 5217POPC   C4A65730  41.024  42.854   7.263
 5217POPC   C1B65731  41.274  43.355   6.141
 5217POPC   C2B65732  41.433  43.534   6.538
 5217POPC   C3B65733  41.449  43.402   6.973
 5217POPC   C4B65734  41.851  43.248   7.089
 5218POPC   NC365735  13.066  22.421   4.958
 5218POPC   PO465736  12.562  22.206   5.454
 5218POPC   GL165737  12.751  21.998   5.828
 5218POPC   GL265738  13.052  21.783   5.813
 5218POPC   C1A65739  12.790  22.215   6.196
 5218POPC   D2A65740  12.782  22.405   6.529
 5218POPC   C3A65741  12.866  22.229   6.886
 5218POPC   C4A65742  13.041  22.424   7.211
 5218POPC   C1B65743  12.904  21.725   6.267
 5218POPC   C2B65744  12.829  21.734   6.740
 5218POPC   C3B65745  12.895  21.857   7.223
 5218POPC   C4B65746  12.753  21.801   7.673
 5219POPC   NC365747   8.469  42.570   5.422
 5219POPC   PO465748   8.056  43.155   5.306
 5219POPC   GL165749   8.231  43.159   5.712
 5219POPC   GL265750   8.144  42.824   5.770
 5219POPC   C1A65751   8.212  43.269   6.171
 5219POPC   D2A65752   8.044  43.128   6.594
 5219POPC   C3A65753   8.076  43.319   7.014
 5219POPC   C4A65754   8.024  43.175   7.464
 5219POPC   C1B65755   7.899  42.838   6.163
 5219POPC   C2B65756   7.926  42.630   6.569
 5219POPC   C3B65757   7.956  42.787   7.005
 5219POPC   C4B65758   7.790  42.702   7.422
 5220POPC   NC365759  18.153  13.889   5.060
 5220POPC   PO465760  18.507  13.524   5.553
 5220POPC   GL165761  18.300  13.711   5.913
 5220POPC   GL265762  17.959  13.557   5.892
 5220POPC   C1A65763  18.099  13.930   6.281
 5220POPC   D2A65764  18.011  13.911   6.738
 5220POPC   C3A65765  18.346  13.732   7.020
 5220POPC   C4A65766  18.308  13.757   7.476
 5220POPC   C1B65767  18.166  13.420   6.307
 5220POPC   C2B65768  18.020  13.387   6.707
 5220POPC   C3B65769  18.133  13.271   7.098
 5220POPC   C4B65770  18.038  13.301   7.504
 5221POPC   NC365771  25.135  17.987   5.135
 5221POPC   PO465772  25.463  17.406   5.323
 5221POPC   GL165773  25.300  17.447   5.738
 5221POPC   GL265774  24.966  17.296   5.670
 5221POPC   C1A65775  25.423  17.573   6.195
 5221POPC   D2A65776  25.687  17.725   6.563
 5221POPC   C3A65777  25.553  17.767   7.016
 5221POPC   C4A65778  25.206  17.760   7.349
 5221POPC   C1B65779  24.999  17.262   6.132
 5221POPC   C2B65780  25.065  17.419   6.555
 5221POPC   C3B65781  24.933  17.517   6.981
 5221POPC   C4B65782  24.851  17.388   7.415
 5222POPC   NC365783  22.440  34.015   5.325
 5222POPC   PO465784  21.934  33.584   5.307
 5222POPC   GL165785  21.992  33.707   5.724
 5222POPC   GL265786  22.358  33.705   5.702
 5222POPC   C1A65787  21.836  33.579   6.163
 5222POPC   D2A65788  22.047  33.700   6.543
 5222POPC   C3A65789  21.918  33.769   6.923
 5222POPC   C4A65790  22.277  33.696   7.187
 5222POPC   C1B65791  22.261  33.870   6.118
 5222POPC   C2B65792  22.130  34.189   6.408
 5222POPC   C3B65793  22.031  34.253   6.824
 5222POPC   C4B65794  22.204  34.194   7.227
 5223POPC   NC365795  10.747  15.472   5.487
 5223POPC   PO465796  10.420  15.045   5.175
 5223POPC   GL165797  10.437  15.156   5.693
 5223POPC   GL265798  10.386  14.896   5.905
 5223POPC   C1A65799  10.522  15.355   6.132
 5223POPC   D2A65800  10.303  15.412   6.563
 5223POPC   C3A65801  10.534  15.386   6.966
 5223POPC   C4A65802  10.625  15.323   7.403
 5223POPC   C1B65803  10.604  14.863   6.281
 5223POPC   C2B65804  10.471  14.943   6.682
 5223POPC   C3B65805  10.653  14.899   7.075
 5223POPC   C4B65806  10.645  14.547   7.345
 5224POPC   NC365807  31.023   2.131   5.538
 5224POPC   PO465808  30.629   1.663   5.282
 5224POPC   GL165809  30.592   1.929   5.696
 5224POPC   GL265810  30.480   2.235   5.553
 5224POPC   C1A65811  30.740   1.970   6.160
 5224POPC   D2A65812  30.751   1.815   6.594
 5224POPC   C3A65813  31.086   1.776   6.924
 5224POPC   C4A65814  31.026   2.079   7.250
 5224POPC   C1B65815  30.351   2.256   5.996
 5224POPC   C2B65816  30.331   2.149   6.473
 5224POPC   C3B65817  30.447   2.065   6.928
 5224POPC   C4B65818  30.434   2.175   7.373
 5225POPC   NC365819  20.106  24.628   5.345
 5225POPC   PO465820  19.592  24.162   5.385
 5225POPC   GL165821  19.651  24.520   5.692
 5225POPC   GL265822  19.962  24.621   5.821
 5225POPC   C1A65823  19.670  24.513   6.197
 5225POPC   D2A65824  19.905  24.624   6.556
 5225POPC   C3A65825  19.750  24.452   6.867
 5225POPC   C4A65826  19.745  24.452   7.257
 5225POPC   C1B65827  20.102  24.284   6.113
 5225POPC   C2B65828  20.026  24.141   6.556
 5225POPC   C3B65829  20.006  24.035   7.000
 5225POPC   C4B65830  20.181  24.125   7.397
 5226POPC   NC365831  44.991  39.428   5.484
 5226POPC   PO465832  44.659  39.991   5.477
 5226POPC   GL165833  44.515  39.969   5.868
 5226POPC   GL265834  44.746  40.259   5.940
 5226POPC   C1A65835  44.660  39.886   6.304
 5226POPC   D2A65836  44.871  40.007   6.695
 5226POPC   C3A65837  44.740  39.970   7.144
 5226POPC   C4A65838  44.967  39.826   7.516
 5226POPC   C1B65839  44.366  40.317   6.202
 5226POPC   C2B65840  44.391  40.204   6.637
 5226POPC   C3B65841  44.307  40.268   7.071
 5226POPC   C4B65842  44.360  40.125   7.477
 5227POPC   NC365843  35.429  19.632   5.417
 5227POPC   PO465844  35.552  20.253   5.687
 5227POPC   GL165845  35.391  19.889   5.930
 5227POPC   GL265846  35.406  19.506   5.894
 5227POPC   C1A65847  35.452  19.859   6.363
 5227POPC   D2A65848  35.601  19.604   6.688
 5227POPC   C3A65849  35.624  19.825   7.082
 5227POPC   C4A65850  35.393  20.129   7.309
 5227POPC   C1B65851  35.171  19.439   6.240
 5227POPC   C2B65852  35.050  19.643   6.589
 5227POPC   C3B65853  35.124  19.886   6.935
 5227POPC   C4B65854  35.166  19.672   7.322
 5228POPC   NC365855  36.418  17.416   5.385
 5228POPC   PO465856  35.801  17.220   5.516
 5228POPC   GL165857  36.144  17.382   5.826
 5228POPC   GL265858  36.293  17.723   5.798
 5228POPC   C1A65859  36.345  17.284   6.235
 5228POPC   D2A65860  36.190  17.123   6.632
 5228POPC   C3A65861  36.266  17.324   7.028
 5228POPC   C4A65862  36.092  17.311   7.436
 5228POPC   C1B65863  36.117  17.749   6.238
 5228POPC   C2B65864  36.128  17.706   6.700
 5228POPC   C3B65865  35.937  17.698   7.112
 5228POPC   C4B65866  35.890  17.763   7.572
 5229POPC   NC365867  16.147   1.078   5.425
 5229POPC   PO465868  15.784   1.613   5.103
 5229POPC   GL165869  15.843   1.435   5.601
 5229POPC   GL265870  15.665   1.201   5.825
 5229POPC   C1A65871  16.067   1.311   6.077
 5229POPC   D2A65872  15.747   1.333   6.459
 5229POPC   C3A65873  15.878   1.275   6.892
 5229POPC   C4A65874  16.276   1.433   7.114
 5229POPC   C1B65875  15.737   0.907   6.199
 5229POPC   C2B65876  15.862   0.718   6.599
 5229POPC   C3B65877  15.737   0.780   7.036
 5229POPC   C4B65878  15.876   1.018   7.413
 5230POPC   NC365879  27.119  29.785   5.575
 5230POPC   PO465880  27.678  29.899   5.224
 5230POPC   GL165881  27.646  29.740   5.682
 5230POPC   GL265882  27.416  29.934   5.960
 5230POPC   C1A65883  27.889  29.762   6.082
 5230POPC   D2A65884  27.818  29.759   6.544
 5230POPC   C3A65885  27.621  30.061   6.790
 5230POPC   C4A65886  27.624  30.265   7.176
 5230POPC   C1B65887  27.219  29.840   6.393
 5230POPC   C2B65888  27.225  29.741   6.857
 5230POPC   C3B65889  27.399  29.819   7.300
 5230POPC   C4B65890  27.221  29.814   7.767
 5231POPC   NC365891   9.359   8.267   5.546
 5231POPC   PO465892   8.676   8.388   5.295
 5231POPC   GL165893   8.841   8.294   5.660
 5231POPC   GL265894   8.766   7.952   5.709
 5231POPC   C1A65895   8.952   8.305   6.094
 5231POPC   D2A65896   8.755   8.228   6.494
 5231POPC   C3A65897   8.887   8.505   6.811
 5231POPC   C4A65898   8.805   8.421   7.211
 5231POPC   C1B65899   8.807   7.830   6.155
 5231POPC   C2B65900   8.982   7.748   6.554
 5231POPC   C3B65901   8.935   7.922   6.971
 5231POPC   C4B65902   9.161   7.834   7.373
 5232POPC   NC365903  43.031  28.993   5.171
 5232POPC   PO465904  42.979  29.521   5.503
 5232POPC   GL165905  43.129  29.126   5.715
 5232POPC   GL265906  42.852  28.974   5.921
 5232POPC   C1A65907  43.272  29.059   6.173
 5232POPC   D2A65908  43.183  29.389   6.496
 5232POPC   C3A65909  43.327  29.266   6.895
 5232POPC   C4A65910  43.387  28.852   6.989
 5232POPC   C1B65911  42.701  28.947   6.357
 5232POPC   C2B65912  42.908  29.006   6.747
 5232POPC   C3B65913  42.853  29.187   7.158
 5232POPC   C4B65914  42.621  29.080   7.558
 5233POPC   NC365915  36.273   5.667   5.199
 5233POPC   PO465916  35.632   5.998   5.435
 5233POPC   GL165917  36.033   5.964   5.684
 5233POPC   GL265918  36.040   5.609   5.803
 5233POPC   C1A65919  36.232   6.125   6.082
 5233POPC   D2A65920  36.090   6.111   6.486
 5233POPC   C3A65921  36.317   6.132   6.879
 5233POPC   C4A65922  36.099   6.161   7.310
 5233POPC   C1B65923  36.210   5.630   6.216
 5233POPC   C2B65924  36.129   5.633   6.666
 5233POPC   C3B65925  36.229   5.699   7.108
 5233POPC   C4B65926  36.051   5.701   7.531
 5234POPC   NC365927  32.814  11.793   5.241
 5234POPC   PO465928  33.269  12.216   5.581
 5234POPC   GL165929  33.082  12.253   5.945
 5234POPC   GL265930  32.771  12.150   5.777
 5234POPC   C1A65931  33.149  12.018   6.337
 5234POPC   D2A65932  33.221  11.888   6.775
 5234POPC   C3A65933  33.302  12.187   7.121
 5234POPC   C4A65934  32.999  12.183   7.519
 5234POPC   C1B65935  32.665  12.119   6.205
 5234POPC   C2B65936  32.791  12.211   6.629
 5234POPC   C3B65937  32.821  12.189   7.028
 5234POPC   C4B65938  32.569  11.995   7.295
 5235POPC   NC365939   1.836   5.427   5.497
 5235POPC   PO465940   2.110   4.860   5.548
 5235POPC   GL165941   2.168   5.223   5.819
 5235POPC   GL265942   1.899   5.135   5.998
 5235POPC   C1A65943   2.278   5.449   6.210
 5235POPC   D2A65944   2.384   5.261   6.628
 5235POPC   C3A65945   2.058   5.182   6.913
 5235POPC   C4A65946   1.978   5.441   7.204
 5235POPC   C1B65947   1.941   5.068   6.415
 5235POPC   C2B65948   2.199   4.775   6.659
 5235POPC   C3B65949   2.193   4.716   7.089
 5235POPC   C4B65950   1.962   4.950   7.403
 5236POPC   NC365951  33.273  36.705   5.740
 5236POPC   PO465952  33.002  37.230   5.383
 5236POPC   GL165953  32.835  37.067   5.784
 5236POPC   GL265954  32.752  36.738   5.694
 5236POPC   C1A65955  32.930  37.068   6.254
 5236POPC   D2A65956  32.873  37.300   6.651
 5236POPC   C3A65957  32.931  37.009   7.005
 5236POPC   C4A65958  32.764  36.934   7.420
 5236POPC   C1B65959  32.747  36.581   6.140
 5236POPC   C2B65960  32.721  36.719   6.615
 5236POPC   C3B65961  32.721  36.554   7.066
 5236POPC   C4B65962  32.705  36.445   7.532
 5237POPC   NC365963  42.183   1.621   5.501
 5237POPC   PO465964  42.484   2.176   5.274
 5237POPC   GL165965  42.435   2.043   5.703
 5237POPC   GL265966  42.661   1.757   5.733
 5237POPC   C1A65967  42.284   2.160   6.120
 5237POPC   D2A65968  42.402   2.287   6.542
 5237POPC   C3A65969  42.105   2.126   6.831
 5237POPC   C4A65970  42.095   1.833   7.165
 5237POPC   C1B65971  42.443   1.637   6.115
 5237POPC   C2B65972  42.298   1.761   6.518
 5237POPC   C3B65973  42.519   1.792   6.909
 5237POPC   C4B65974  42.531   1.600   7.340
 5238POPC   NC365975  38.192  44.924   5.618
 5238POPC   PO465976  38.797  44.749   5.415
 5238POPC   GL165977  38.611  44.618   5.786
 5238POPC   GL265978  38.474  44.272   5.750
 5238POPC   C1A65979  38.551  44.692   6.222
 5238POPC   D2A65980  38.525  44.391   6.564
 5238POPC   C3A65981  38.693  44.543   6.975
 5238POPC   C4A65982  38.857  44.686   7.383
 5238POPC   C1B65983  38.136  44.398   6.063
 5238POPC   C2B65984  38.060  44.613   6.464
 5238POPC   C3B65985  38.175  44.573   6.912
 5238POPC   C4B65986  38.351  44.767   7.310
 5239POPC   NC365987   9.561  10.790   5.536
 5239POPC   PO465988   9.780  10.166   5.428
 5239POPC   GL165989   9.690  10.367   5.821
 5239POPC   GL265990   9.405  10.258   6.033
 5239POPC   C1A65991   9.860  10.562   6.191
 5239POPC   D2A65992   9.751  10.453   6.618
 5239POPC   C3A65993   9.922  10.717   6.925
 5239POPC   C4A65994   9.886  10.555   7.308
 5239POPC   C1B65995   9.358  10.653   6.248
 5239POPC   C2B65996   9.345  10.795   6.661
 5239POPC   C3B65997   9.440  10.591   7.053
 5239POPC   C4B65998   9.544  10.159   7.102
 5240POPC   NC365999  13.557  24.068   5.447
 5240POPC   PO466000  13.515  23.370   5.382
 5240POPC   GL166001  13.575  23.568   5.786
 5240POPC   GL266002  13.327  23.813   5.794
 5240POPC   C1A66003  13.788  23.656   6.198
 5240POPC   D2A66004  13.972  23.673   6.605
 5240POPC   C3A66005  13.760  23.578   7.016
 5240POPC   C4A66006  13.706  23.560   7.485
 5240POPC   C1B66007  13.426  24.008   6.180
 5240POPC   C2B66008  13.460  23.808   6.599
 5240POPC   C3B66009  13.327  23.910   7.006
 5240POPC   C4B66010  13.126  24.183   7.307
 5241POPC   NC366011  29.592  30.772   5.354
 5241POPC   PO466012  28.914  30.534   5.264
 5241POPC   GL166013  29.056  30.637   5.675
 5241POPC   GL266014  29.401  30.508   5.753
 5241POPC   C1A66015  28.893  30.585   6.099
 5241POPC   D2A66016  28.697  30.770   6.466
 5241POPC   C3A66017  28.859  30.710   6.874
 5241POPC   C4A66018  28.935  30.412   7.172
 5241POPC   C1B66019  29.340  30.853   6.054
 5241POPC   C2B66020  29.227  30.766   6.472
 5241POPC   C3B66021  29.356  30.513   6.813
 5241POPC   C4B66022  29.371  30.757   7.159
 5242POPC   NC366023   3.963   9.359   5.052
 5242POPC   PO466024   4.382   8.894   5.338
 5242POPC   GL166025   4.290   8.936   5.749
 5242POPC   GL266026   3.957   8.798   5.735
 5242POPC   C1A66027   4.478   9.017   6.169
 5242POPC   D2A66028   4.602   8.981   6.601
 5242POPC   C3A66029   4.330   9.072   6.946
 5242POPC   C4A66030   4.511   9.281   7.245
 5242POPC   C1B66031   3.953   8.968   6.158
 5242POPC   C2B66032   3.909   9.084   6.610
 5242POPC   C3B66033   3.882   8.806   6.965
 5242POPC   C4B66034   4.030   8.862   7.370
 5243POPC   NC366035   4.779  38.223   5.326
 5243POPC   PO466036   5.448  38.214   5.402
 5243POPC   GL166037   5.130  38.230   5.763
 5243POPC   GL266038   4.794  38.404   5.823
 5243POPC   C1A66039   5.178  38.506   6.151
 5243POPC   D2A66040   5.079  38.662   6.554
 5243POPC   C3A66041   5.152  38.513   6.959
 5243POPC   C4A66042   5.033  38.702   7.304
 5243POPC   C1B66043   4.836  38.141   6.238
 5243POPC   C2B66044   4.874  38.179   6.675
 5243POPC   C3B66045   4.786  38.047   7.074
 5243POPC   C4B66046   4.973  38.201   7.376
 5244POPC   NC366047  44.982   4.912   4.985
 5244POPC   PO466048  44.568   5.095   5.479
 5244POPC   GL166049  44.642   4.981   5.874
 5244POPC   GL266050  44.918   5.163   5.917
 5244POPC   C1A66051  44.508   5.192   6.255
 5244POPC   D2A66052  44.193   5.300   6.571
 5244POPC   C3A66053  44.373   5.240   6.966
 5244POPC   C4A66054  44.532   5.446   7.307
 5244POPC   C1B66055   0.045   5.302   6.313
 5244POPC   C2B66056   0.099   5.109   6.716
 5244POPC   C3B66057  44.874   5.016   7.096
 5244POPC   C4B66058  44.978   5.246   7.466
 5245POPC   NC366059  34.780  26.127   5.364
 5245POPC   PO466060  35.434  26.360   5.433
 5245POPC   GL166061  35.423  25.963   5.707
 5245POPC   GL266062  35.059  25.893   5.774
 5245POPC   C1A66063  35.599  25.874   6.142
 5245POPC   D2A66064  35.685  26.111   6.525
 5245POPC   C3A66065  35.436  26.156   6.901
 5245POPC   C4A66066  35.584  26.065   7.323
 5245POPC   C1B66067  35.145  25.649   6.144
 5245POPC   C2B66068  35.288  25.742   6.592
 5245POPC   C3B66069  35.185  25.734   7.068
 5245POPC   C4B66070  35.207  25.795   7.538
 5246POPC   NC366071  34.800  13.375   5.422
 5246POPC   PO466072  34.287  13.859   5.317
 5246POPC   GL166073  34.481  13.890   5.729
 5246POPC   GL266074  34.829  13.807   5.721
 5246POPC   C1A66075  34.548  13.805   6.153
 5246POPC   D2A66076  34.562  14.030   6.491
 5246POPC   C3A66077  34.534  13.860   6.845
 5246POPC   C4A66078  34.611  13.846   7.245
 5246POPC   C1B66079  34.991  13.556   6.101
 5246POPC   C2B66080  34.954  13.707   6.525
 5246POPC   C3B66081  34.997  13.673   6.966
 5246POPC   C4B66082  34.853  13.383   7.307
 5247POPC   NC366083  14.566  43.609   5.751
 5247POPC   PO466084  14.280  44.190   5.429
 5247POPC   GL166085  14.311  44.052   5.808
 5247POPC   GL266086  14.669  44.101   5.788
 5247POPC   C1A66087  14.062  44.087   6.201
 5247POPC   D2A66088  14.209  44.149   6.631
 5247POPC   C3A66089  14.115  43.825   6.916
 5247POPC   C4A66090  14.253  43.741   7.323
 5247POPC   C1B66091  14.566  44.063   6.233
 5247POPC   C2B66092  14.755  43.841   6.532
 5247POPC   C3B66093  14.640  43.830   6.940
 5247POPC   C4B66094  14.764  43.842   7.343
 5248POPC   NC366095  35.010  33.326   5.358
 5248POPC   PO466096  35.350  32.752   5.438
 5248POPC   GL166097  35.364  32.876   5.865
 5248POPC   GL266098  35.240  33.191   5.804
 5248POPC   C1A66099  35.366  33.070   6.293
 5248POPC   D2A66100  35.498  33.275   6.688
 5248POPC   C3A66101  35.447  32.948   7.008
 5248POPC   C4A66102  35.440  32.997   7.477
 5248POPC   C1B66103  34.986  33.350   6.103
 5248POPC   C2B66104  35.044  33.455   6.519
 5248POPC   C3B66105  35.036  33.278   6.913
 5248POPC   C4B66106  34.957  33.190   7.335
 5249POPC   NC366107   4.191  25.552   5.313
 5249POPC   PO466108   4.546  26.130   5.202
 5249POPC   GL166109   4.556  26.092   5.675
 5249POPC   GL266110   4.517  25.744   5.737
 5249POPC   C1A66111   4.740  26.090   6.120
 5249POPC   D2A66112   4.663  25.969   6.572
 5249POPC   C3A66113   4.327  26.191   6.826
 5249POPC   C4A66114   4.320  26.496   7.192
 5249POPC   C1B66115   4.296  25.795   6.137
 5249POPC   C2B66116   4.206  25.684   6.569
 5249POPC   C3B66117   4.032  25.701   6.952
 5249POPC   C4B66118   4.179  25.945   7.255
 5250POPC   NC366119  21.591  11.013   5.395
 5250POPC   PO466120  21.040  11.417   5.476
 5250POPC   GL166121  21.213  11.075   5.779
 5250POPC   GL266122  21.514  11.199   5.883
 5250POPC   C1A66123  21.218  11.086   6.277
 5250POPC   D2A66124  21.423  11.165   6.674
 5250POPC   C3A66125  21.195  11.185   7.024
 5250POPC   C4A66126  20.883  11.432   7.177
 5250POPC   C1B66127  21.734  11.091   6.269
 5250POPC   C2B66128  21.864  10.928   6.687
 5250POPC   C3B66129  21.779  11.176   7.099
 5250POPC   C4B66130  21.784  11.170   7.594
 5251POPC   NC366131  32.961  36.810   5.179
 5251POPC   PO466132  32.268  36.841   5.244
 5251POPC   GL166133  32.293  36.955   5.687
 5251POPC   GL266134  32.009  36.955   5.879
 5251POPC   C1A66135  32.442  36.976   6.118
 5251POPC   D2A66136  32.234  36.763   6.455
 5251POPC   C3A66137  32.278  36.922   6.857
 5251POPC   C4A66138  32.316  37.102   7.254
 5251POPC   C1B66139  32.004  37.208   6.218
 5251POPC   C2B66140  31.808  37.161   6.586
 5251POPC   C3B66141  31.856  37.169   6.994
 5251POPC   C4B66142  31.819  37.410   7.308
 5252POPC   NC366143  19.249   4.193   5.324
 5252POPC   PO466144  18.617   4.298   5.166
 5252POPC   GL166145  18.867   4.147   5.663
 5252POPC   GL266146  19.150   4.078   5.849
 5252POPC   C1A66147  18.784   4.163   6.178
 5252POPC   D2A66148  19.095   4.139   6.540
 5252POPC   C3A66149  18.923   4.211   6.949
 5252POPC   C4A66150  18.935   4.049   7.395
 5252POPC   C1B66151  19.174   4.471   6.118
 5252POPC   C2B66152  18.993   4.657   6.495
 5252POPC   C3B66153  19.122   4.750   6.910
 5252POPC   C4B66154  19.127   4.519   7.299
 5253POPC   NC366155  44.394  19.458   5.391
 5253POPC   PO466156  44.708  18.820   5.303
 5253POPC   GL166157  44.782  19.025   5.709
 5253POPC   GL266158  44.468  19.179   5.801
 5253POPC   C1A66159  44.769  18.972   6.168
 5253POPC   D2A66160  44.613  18.799   6.558
 5253POPC   C3A66161  44.848  18.799   6.947
 5253POPC   C4A66162  44.560  18.657   7.246
 5253POPC   C1B66163  44.232  19.396   6.124
 5253POPC   C2B66164  44.231  19.186   6.527
 5253POPC   C3B66165  44.533  19.200   6.861
 5253POPC   C4B66166  44.506  19.425   7.230
 5254POPC   NC366167  16.464  14.269   5.341
 5254POPC   PO466168  17.030  14.629   5.331
 5254POPC   GL166169  16.824  14.449   5.734
 5254POPC   GL266170  16.649  14.114   5.795
 5254POPC   C1A66171  16.693  14.430   6.200
 5254POPC   D2A66172  16.445  14.528   6.598
 5254POPC   C3A66173  16.717  14.484   6.975
 5254POPC   C4A66174  17.175  14.440   6.962
 5254POPC   C1B66175  16.593  13.910   6.183
 5254POPC   C2B66176  16.676  14.062   6.576
 5254POPC   C3B66177  16.933  14.001   6.890
 5254POPC   C4B66178  16.751  14.041   7.284
 5255POPC   NC366179  31.945   5.208   5.443
 5255POPC   PO466180  31.346   5.050   5.147
 5255POPC   GL166181  31.415   5.183   5.608
 5255POPC   GL266182  31.607   4.942   5.822
 5255POPC   C1A66183  31.178   5.241   6.023
 5255POPC   D2A66184  31.109   5.216   6.493
 5255POPC   C3A66185  31.241   5.049   6.929
 5255POPC   C4A66186  31.519   5.265   7.235
 5255POPC   C1B66187  31.441   4.852   6.246
 5255POPC   C2B66188  31.612   5.076   6.593
 5255POPC   C3B66189  31.833   4.972   6.980
 5255POPC   C4B66190  31.741   4.830   7.421
 5256POPC   NC366191  19.228  27.840   5.363
 5256POPC   PO466192  18.671  27.721   5.617
 5256POPC   GL166193  18.975  27.849   5.880
 5256POPC   GL266194  19.305  27.890   5.871
 5256POPC   C1A66195  19.076  27.634   6.270
 5256POPC   D2A66196  18.784  27.394   6.529
 5256POPC   C3A66197  18.736  27.502   6.957
 5256POPC   C4A66198  18.932  27.422   7.350
 5256POPC   C1B66199  19.376  28.051   6.301
 5256POPC   C2B66200  19.426  27.758   6.674
 5256POPC   C3B66201  19.183  27.758   7.083
 5256POPC   C4B66202  19.335  27.639   7.562
 5257POPC   NC366203   4.695  11.856   5.442
 5257POPC   PO466204   4.169  12.211   5.358
 5257POPC   GL166205   4.317  12.078   5.791
 5257POPC   GL266206   4.441  11.726   5.866
 5257POPC   C1A66207   4.389  12.282   6.200
 5257POPC   D2A66208   4.258  12.218   6.630
 5257POPC   C3A66209   4.548  12.132   6.981
 5257POPC   C4A66210   4.399  12.240   7.351
 5257POPC   C1B66211   4.356  11.749   6.308
 5257POPC   C2B66212   4.359  11.717   6.754
 5257POPC   C3B66213   4.201  11.811   7.174
 5257POPC   C4B66214   4.411  11.768   7.564
 5258POPC   NC366215  12.826  15.846   5.224
 5258POPC   PO466216  12.702  15.078   5.366
 5258POPC   GL166217  12.786  15.297   5.761
 5258POPC   GL266218  13.057  15.103   5.935
 5258POPC   C1A66219  12.651  15.172   6.195
 5258POPC   D2A66220  12.879  15.171   6.550
 5258POPC   C3A66221  12.611  15.160   6.890
 5258POPC   C4A66222  12.773  15.545   7.120
 5258POPC   C1B66223  13.220  14.841   6.291
 5258POPC   C2B66224  13.295  14.869   6.724
 5258POPC   C3B66225  13.094  15.133   7.019
 5258POPC   C4B66226  12.806  15.092   7.345
 5259POPC   NC366227   0.275  32.072   5.469
 5259POPC   PO466228   0.874  32.371   5.460
 5259POPC   GL166229   0.737  32.121   5.843
 5259POPC   GL266230   0.419  31.955   5.937
 5259POPC   C1A66231   0.628  32.338   6.232
 5259POPC   D2A66232   0.270  32.494   6.476
 5259POPC   C3A66233   0.179  32.405   6.928
 5259POPC   C4A66234   0.453  32.399   7.298
 5259POPC   C1B66235   0.450  31.888   6.364
 5259POPC   C2B66236   0.588  32.146   6.715
 5259POPC   C3B66237   0.431  31.949   7.030
 5259POPC   C4B66238   0.136  32.009   7.322
 5260POPC   NC366239  23.131  30.025   4.993
 5260POPC   PO466240  22.817  29.704   5.436
 5260POPC   GL166241  22.990  29.958   5.762
 5260POPC   GL266242  23.275  29.744   5.784
 5260POPC   C1A66243  23.063  30.142   6.187
 5260POPC   D2A66244  22.906  29.946   6.586
 5260POPC   C3A66245  23.119  30.076   6.972
 5260POPC   C4A66246  22.897  29.863   7.276
 5260POPC   C1B66247  23.179  29.665   6.232
 5260POPC   C2B66248  23.401  29.839   6.617
 5260POPC   C3B66249  23.290  29.572   6.992
 5260POPC   C4B66250  22.909  29.362   7.200
 5261POPC   NC366251   6.016   1.180   5.452
 5261POPC   PO466252   5.866   0.615   5.792
 5261POPC   GL166253   5.786   1.089   5.899
 5261POPC   GL266254   5.753   1.485   5.783
 5261POPC   C1A66255   5.961   1.307   6.224
 5261POPC   D2A66256   6.089   1.164   6.625
 5261POPC   C3A66257   5.760   1.097   6.883
 5261POPC   C4A66258   5.915   1.186   7.269
 5261POPC   C1B66259   5.527   1.643   6.154
 5261POPC   C2B66260   5.716   1.560   6.593
 5261POPC   C3B66261   5.773   1.605   7.017
 5261POPC   C4B66262   5.493   1.508   7.331
 5262POPC   NC366263  18.864   5.831   5.447
 5262POPC   PO466264  19.478   5.732   5.584
 5262POPC   GL166265  19.204   6.017   5.881
 5262POPC   GL266266  18.839   5.972   5.932
 5262POPC   C1A66267  19.028   6.331   6.197
 5262POPC   D2A66268  19.155   6.345   6.604
 5262POPC   C3A66269  18.882   6.113   6.889
 5262POPC   C4A66270  19.091   6.027   7.269
 5262POPC   C1B66271  19.035   5.826   6.332
 5262POPC   C2B66272  18.795   5.639   6.676
 5262POPC   C3B66273  18.749   5.661   7.117
 5262POPC   C4B66274  19.076   5.539   7.420
 5263POPC   NC366275   1.623   0.006   5.522
 5263POPC   PO466276   1.267   0.621   5.481
 5263POPC   GL166277   1.101   0.445   5.861
 5263POPC   GL266278   1.255   0.106   5.904
 5263POPC   C1A66279   1.068   0.582   6.297
 5263POPC   D2A66280   1.272   0.527   6.685
 5263POPC   C3A66281   1.060   0.515   7.073
 5263POPC   C4A66282   0.781   0.826   7.222
 5263POPC   C1B66283   1.599   0.111   6.232
 5263POPC   C2B66284   1.668   0.208   6.669
 5263POPC   C3B66285   1.411   0.130   7.021
 5263POPC   C4B66286   1.414   0.254   7.448
 5264POPC   NC366287   7.899   3.477   5.507
 5264POPC   PO466288   8.530   3.715   5.341
 5264POPC   GL166289   8.396   3.494   5.729
 5264POPC   GL266290   8.293   3.164   5.605
 5264POPC   C1A66291   8.160   3.627   6.143
 5264POPC   D2A66292   8.001   3.695   6.615
 5264POPC   C3A66293   8.233   3.514   6.976
 5264POPC   C4A66294   8.618   3.669   7.177
 5264POPC   C1B66295   8.124   3.116   6.047
 5264POPC   C2B66296   8.201   3.249   6.476
 5264POPC   C3B66297   7.887   3.162   6.779
 5264POPC   C4B66298   8.074   3.021   7.115
 5265POPC   NC366299  33.083  24.667   5.319
 5265POPC   PO466300  32.634  24.947   5.475
 5265POPC   GL166301  32.885  24.716   5.807
 5265POPC   GL266302  33.172  24.463   5.795
 5265POPC   C1A66303  32.904  24.598   6.256
 5265POPC   D2A66304  32.747  24.386   6.631
 5265POPC   C3A66305  32.904  24.487   7.032
 5265POPC   C4A66306  32.729  24.698   7.408
 5265POPC   C1B66307  33.405  24.470   6.198
 5265POPC   C2B66308  33.345  24.366   6.653
 5265POPC   C3B66309  33.430  24.469   7.084
 5265POPC   C4B66310  33.215  24.602   7.431
 5266POPC   NC366311  15.599  44.718   5.459
 5266POPC   PO466312  16.194  44.493   5.407
 5266POPC   GL166313  16.133  44.308   5.809
 5266POPC   GL266314  15.790  44.385   5.805
 5266POPC   C1A66315  16.039  44.344   6.282
 5266POPC   D2A66316  16.111  44.705   6.546
 5266POPC   C3A66317  16.032  44.591   6.941
 5266POPC   C4A66318  16.227  44.470   7.291
 5266POPC   C1B66319  15.803  44.773   6.098
 5266POPC   C2B66320  15.633  44.914   6.499
 5266POPC   C3B66321  15.638  44.905   6.927
 5266POPC   C4B66322  15.893  44.996   7.296
 5267POPC   NC366323  10.784  25.889   5.311
 5267POPC   PO466324  10.417  26.303   5.390
 5267POPC   GL166325  10.585  26.118   5.741
 5267POPC   GL266326  10.928  26.197   5.708
 5267POPC   C1A66327  10.521  26.142   6.193
 5267POPC   D2A66328  10.423  25.947   6.586
 5267POPC   C3A66329  10.449  26.138   6.991
 5267POPC   C4A66330  10.287  25.894   7.329
 5267POPC   C1B66331  10.951  25.894   6.041
 5267POPC   C2B66332  10.948  26.045   6.474
 5267POPC   C3B66333  10.860  25.827   6.851
 5267POPC   C4B66334  10.768  25.733   7.255
 5268POPC   NC366335  12.942  38.871   5.539
 5268POPC   PO466336  12.413  38.429   5.489
 5268POPC   GL166337  12.694  38.384   5.818
 5268POPC   GL266338  12.959  38.126   5.736
 5268POPC   C1A66339  12.681  38.573   6.242
 5268POPC   D2A66340  12.966  38.753   6.568
 5268POPC   C3A66341  12.823  38.729   7.017
 5268POPC   C4A66342  13.143  38.567   7.278
 5268POPC   C1B66343  12.824  37.998   6.165
 5268POPC   C2B66344  12.778  38.192   6.577
 5268POPC   C3B66345  12.763  38.156   7.012
 5268POPC   C4B66346  13.037  38.083   7.357
 5269POPC   NC366347  43.781  40.947   5.243
 5269POPC   PO466348  44.023  40.443   5.425
 5269POPC   GL166349  43.793  40.616   5.726
 5269POPC   GL266350  43.718  40.980   5.738
 5269POPC   C1A66351  43.956  40.623   6.124
 5269POPC   D2A66352  44.169  40.672   6.520
 5269POPC   C3A66353  43.933  40.497   6.831
 5269POPC   C4A66354  43.956  40.620   7.223
 5269POPC   C1B66355  43.754  41.111   6.157
 5269POPC   C2B66356  43.992  41.167   6.523
 5269POPC   C3B66357  43.852  41.016   6.879
 5269POPC   C4B66358  43.783  41.111   7.273
 5270POPC   NC366359  24.810  19.694   5.339
 5270POPC   PO466360  25.552  19.835   5.447
 5270POPC   GL166361  25.204  19.783   5.738
 5270POPC   GL266362  24.972  19.526   5.774
 5270POPC   C1A66363  25.183  19.876   6.173
 5270POPC   D2A66364  25.467  19.899   6.529
 5270POPC   C3A66365  25.230  19.910   6.916
 5270POPC   C4A66366  25.503  19.890   7.266
 5270POPC   C1B66367  25.084  19.383   6.142
 5270POPC   C2B66368  25.134  19.511   6.531
 5270POPC   C3B66369  24.973  19.441   6.893
 5270POPC   C4B66370  25.077  19.518   7.255
 5271POPC   NC366371  34.736  36.717   5.399
 5271POPC   PO466372  34.443  37.360   5.496
 5271POPC   GL166373  34.434  36.998   5.769
 5271POPC   GL266374  34.750  36.994   5.844
 5271POPC   C1A66375  34.429  36.803   6.180
 5271POPC   D2A66376  34.279  36.949   6.562
 5271POPC   C3A66377  34.430  36.737   6.887
 5271POPC   C4A66378  34.460  36.873   7.272
 5271POPC   C1B66379  34.953  36.879   6.247
 5271POPC   C2B66380  34.942  36.852   6.706
 5271POPC   C3B66381  34.895  36.666   7.129
 5271POPC   C4B66382  34.787  36.686   7.619
 5272POPC   NC366383  19.269  32.861   5.444
 5272POPC   PO466384  18.799  33.299   5.374
 5272POPC   GL166385  18.980  33.161   5.760
 5272POPC   GL266386  18.950  32.772   5.854
 5272POPC   C1A66387  18.932  33.121   6.204
 5272POPC   D2A66388  19.125  32.916   6.550
 5272POPC   C3A66389  18.789  32.812   6.819
 5272POPC   C4A66390  18.624  32.969   7.165
 5272POPC   C1B66391  19.256  32.556   6.154
 5272POPC   C2B66392  19.492  32.526   6.565
 5272POPC   C3B66393  19.317  32.674   6.969
 5272POPC   C4B66394  19.127  33.082   7.108
 5273POPC   NC366395  40.835  42.828   5.107
 5273POPC   PO466396  40.723  43.359   5.383
 5273POPC   GL166397  40.934  43.220   5.753
 5273POPC   GL266398  40.718  42.953   5.722
 5273POPC   C1A66399  40.873  43.027   6.192
 5273POPC   D2A66400  40.552  43.127   6.513
 5273POPC   C3A66401  40.721  43.140   6.926
 5273POPC   C4A66402  40.573  43.281   7.309
 5273POPC   C1B66403  40.481  42.725   6.035
 5273POPC   C2B66404  40.276  42.684   6.432
 5273POPC   C3B66405  40.376  42.552   6.832
 5273POPC   C4B66406  40.555  42.700   7.164
 5274POPC   NC366407   4.461  29.284   5.294
 5274POPC   PO466408   4.095  28.795   5.409
 5274POPC   GL166409   4.260  29.091   5.736
 5274POPC   GL266410   4.590  29.286   5.783
 5274POPC   C1A66411   4.076  29.167   6.122
 5274POPC   D2A66412   4.030  28.961   6.525
 5274POPC   C3A66413   4.181  29.163   6.909
 5274POPC   C4A66414   4.062  29.306   7.315
 5274POPC   C1B66415   4.579  29.032   6.156
 5274POPC   C2B66416   4.571  29.038   6.601
 5274POPC   C3B66417   4.670  28.864   6.994
 5274POPC   C4B66418   4.699  28.727   7.428
 5275POPC   NC366419  25.221  17.009   5.323
 5275POPC   PO466420  25.645  16.425   5.244
 5275POPC   GL166421  25.413  16.383   5.648
 5275POPC   GL266422  25.076  16.549   5.704
 5275POPC   C1A66423  25.483  16.357   6.107
 5275POPC   D2A66424  25.575  16.632   6.480
 5275POPC   C3A66425  25.343  16.565   6.883
 5275POPC   C4A66426  25.501  16.617   7.296
 5275POPC   C1B66427  25.215  16.795   6.086
 5275POPC   C2B66428  25.102  16.897   6.526
 5275POPC   C3B66429  25.232  17.082   6.920
 5275POPC   C4B66430  25.138  16.994   7.336
 5276POPC   NC366431  29.463  15.129   5.441
 5276POPC   PO466432  28.764  15.032   5.527
 5276POPC   GL166433  29.082  15.170   5.790
 5276POPC   GL266434  28.875  15.410   5.889
 5276POPC   C1A66435  29.299  15.269   6.178
 5276POPC   D2A66436  29.470  15.144   6.544
 5276POPC   C3A66437  29.368  15.318   6.897
 5276POPC   C4A66438  29.197  15.136   7.231
 5276POPC   C1B66439  28.822  15.122   6.253
 5276POPC   C2B66440  28.939  15.141   6.674
 5276POPC   C3B66441  28.719  15.283   7.005
 5276POPC   C4B66442  28.733  15.513   7.377
 5277POPC   NC366443  44.272  10.747   5.426
 5277POPC   PO466444  44.661  10.296   5.188
 5277POPC   GL166445  44.533  10.370   5.668
 5277POPC   GL266446  44.761  10.550   5.878
 5277POPC   C1A66447  44.338  10.542   6.116
 5277POPC   D2A66448  44.615  10.442   6.480
 5277POPC   C3A66449  44.712  10.763   6.788
 5277POPC   C4A66450  44.422  10.736   7.111
 5277POPC   C1B66451  44.959  10.263   6.113
 5277POPC   C2B66452   0.136  10.313   6.499
 5277POPC   C3B66453  44.964  10.263   6.909
 5277POPC   C4B66454  44.853  10.506   7.241
 5278POPC   NC366455  39.893  38.135   5.382
 5278POPC   PO466456  40.284  38.575   5.202
 5278POPC   GL166457  40.138  38.498   5.692
 5278POPC   GL266458  39.785  38.535   5.744
 5278POPC   C1A66459  40.293  38.382   6.143
 5278POPC   D2A66460  40.439  38.258   6.594
 5278POPC   C3A66461  40.138  38.321   6.954
 5278POPC   C4A66462  40.196  38.406   7.371
 5278POPC   C1B66463  39.777  38.337   6.156
 5278POPC   C2B66464  39.489  38.263   6.515
 5278POPC   C3B66465  39.510  38.151   6.954
 5278POPC   C4B66466  39.704  38.370   7.275
 5279POPC   NC366467   4.943  44.515   5.468
 5279POPC   PO466468   5.439  44.872   5.711
 5279POPC   GL166469   5.228  44.632   5.905
 5279POPC   GL266470   5.344  44.335   5.733
 5279POPC   C1A66471   5.063  44.693   6.328
 5279POPC   D2A66472   5.006  44.997   6.671
 5279POPC   C3A66473   5.344  44.995   6.971
 5279POPC   C4A66474   5.103  44.776   7.218
 5279POPC   C1B66475   5.068  44.207   6.085
 5279POPC   C2B66476   4.911  44.216   6.480
 5279POPC   C3B66477   4.950  44.456   6.834
 5279POPC   C4B66478   5.026  44.286   7.225
 5280POPC   NC366479  14.908  28.116   5.455
 5280POPC   PO466480  15.289  28.553   5.176
 5280POPC   GL166481  15.264  28.464   5.653
 5280POPC   GL266482  14.931  28.579   5.745
 5280POPC   C1A66483  15.281  28.284   6.103
 5280POPC   D2A66484  15.510  28.464   6.485
 5280POPC   C3A66485  15.357  28.534   6.925
 5280POPC   C4A66486  15.327  28.230   7.257
 5280POPC   C1B66487  14.772  28.437   6.146
 5280POPC   C2B66488  14.979  28.487   6.541
 5280POPC   C3B66489  14.911  28.777   6.879
 5280POPC   C4B66490  14.938  28.617   7.305
 5281POPC   NC366491  40.620   3.164   5.361
 5281POPC   PO466492  40.608   3.828   5.127
 5281POPC   GL166493  40.770   3.693   5.571
 5281POPC   GL266494  40.548   3.878   5.788
 5281POPC   C1A66495  40.955   3.583   6.018
 5281POPC   D2A66496  40.944   3.640   6.508
 5281POPC   C3A66497  40.959   3.276   6.821
 5281POPC   C4A66498  41.014   3.159   7.285
 5281POPC   C1B66499  40.445   3.616   6.131
 5281POPC   C2B66500  40.459   3.345   6.477
 5281POPC   C3B66501  40.475   3.549   6.858
 5281POPC   C4B66502  40.671   3.569   7.236
 5282POPC   NC366503  32.356  37.358   5.384
 5282POPC   PO466504  32.200  37.975   5.192
 5282POPC   GL166505  32.167  37.798   5.682
 5282POPC   GL266506  32.327  37.449   5.868
 5282POPC   C1A66507  32.019  37.719   6.138
 5282POPC   D2A66508  32.119  37.578   6.551
 5282POPC   C3A66509  32.394  37.434   6.855
 5282POPC   C4A66510  32.297  37.598   7.257
 5282POPC   C1B66511  32.580  37.474   6.239
 5282POPC   C2B66512  32.628  37.787   6.553
 5282POPC   C3B66513  32.314  37.951   6.861
 5282POPC   C4B66514  32.347  38.107   7.259
 5283POPC   NC366515  43.519  12.128   5.491
 5283POPC   PO466516  44.175  12.456   5.300
 5283POPC   GL166517  43.957  12.305   5.681
 5283POPC   GL266518  44.052  11.970   5.794
 5283POPC   C1A66519  43.777  12.318   6.107
 5283POPC   D2A66520  43.900  12.088   6.469
 5283POPC   C3A66521  43.795  12.282   6.855
 5283POPC   C4A66522  43.584  12.346   7.236
 5283POPC   C1B66523  44.230  11.772   6.180
 5283POPC   C2B66524  44.272  11.718   6.630
 5283POPC   C3B66525  43.911  11.767   6.876
 5283POPC   C4B66526  43.906  11.960   7.244
 5284POPC   NC366527  27.707  30.569   5.303
 5284POPC   PO466528  27.124  30.695   5.553
 5284POPC   GL166529  27.327  30.952   5.836
 5284POPC   GL266530  27.665  30.866   5.739
 5284POPC   C1A66531  27.419  30.702   6.202
 5284POPC   D2A66532  27.366  30.338   6.444
 5284POPC   C3A66533  27.449  30.562   6.817
 5284POPC   C4A66534  27.356  30.698   7.234
 5284POPC   C1B66535  27.928  30.654   6.057
 5284POPC   C2B66536  27.890  30.375   6.423
 5284POPC   C3B66537  27.963  30.453   6.837
 5284POPC   C4B66538  27.945  30.761   7.113
 5285POPC   NC366539  18.527  20.842   5.432
 5285POPC   PO466540  19.149  20.449   5.464
 5285POPC   GL166541  18.825  20.505   5.751
 5285POPC   GL266542  19.061  20.698   5.954
 5285POPC   C1A66543  18.714  20.425   6.200
 5285POPC   D2A66544  18.984  20.622   6.522
 5285POPC   C3A66545  18.919  20.471   6.943
 5285POPC   C4A66546  18.957  20.601   7.385
 5285POPC   C1B66547  19.362  20.901   6.240
 5285POPC   C2B66548  19.441  20.847   6.676
 5285POPC   C3B66549  19.220  20.903   7.055
 5285POPC   C4B66550  19.303  20.968   7.513
 5286POPC   NC366551  14.053  40.969   5.376
 5286POPC   PO466552  14.330  40.404   5.453
 5286POPC   GL166553  14.331  40.737   5.750
 5286POPC   GL266554  14.495  41.028   5.630
 5286POPC   C1A66555  14.217  40.704   6.181
 5286POPC   D2A66556  14.140  40.919   6.549
 5286POPC   C3A66557  14.382  40.810   6.895
 5286POPC   C4A66558  14.450  40.969   7.294
 5286POPC   C1B66559  14.622  41.012   6.098
 5286POPC   C2B66560  14.633  41.121   6.562
 5286POPC   C3B66561  14.857  41.042   6.979
 5286POPC   C4B66562  14.966  40.940   7.440
 5287POPC   NC366563  36.882   0.554   5.411
 5287POPC   PO466564  37.551   0.804   5.525
 5287POPC   GL166565  37.130   0.805   5.773
 5287POPC   GL266566  37.034   0.422   5.861
 5287POPC   C1A66567  36.800   0.825   6.113
 5287POPC   D2A66568  36.767   0.983   6.543
 5287POPC   C3A66569  36.763   0.709   6.907
 5287POPC   C4A66570  36.883   0.638   7.321
 5287POPC   C1B66571  36.846   0.318   6.273
 5287POPC   C2B66572  36.800   0.227   6.728
 5287POPC   C3B66573  36.703   0.188   7.176
 5287POPC   C4B66574  36.641   0.221   7.629
 5288POPC   NC366575  36.913  42.722   5.495
 5288POPC   PO466576  37.096  42.110   5.469
 5288POPC   GL166577  36.892  42.343   5.839
 5288POPC   GL266578  36.681  42.629   5.925
 5288POPC   C1A66579  36.810  42.223   6.264
 5288POPC   D2A66580  36.873  41.950   6.606
 5288POPC   C3A66581  36.888  42.165   6.998
 5288POPC   C4A66582  36.793  42.300   7.432
 5288POPC   C1B66583  36.876  42.736   6.294
 5288POPC   C2B66584  36.951  42.563   6.683
 5288POPC   C3B66585  36.663  42.646   7.029
 5288POPC   C4B66586  36.410  42.917   7.285
 5289POPC   NC366587  26.865  17.772   5.707
 5289POPC   PO466588  27.094  17.030   5.619
 5289POPC   GL166589  27.064  17.336   5.912
 5289POPC   GL266590  26.718  17.338   5.928
 5289POPC   C1A66591  27.206  17.580   6.281
 5289POPC   D2A66592  27.068  17.877   6.604
 5289POPC   C3A66593  27.015  17.712   7.033
 5289POPC   C4A66594  26.918  17.439   7.401
 5289POPC   C1B66595  26.567  17.576   6.289
 5289POPC   C2B66596  26.589  17.564   6.744
 5289POPC   C3B66597  26.526  17.761   7.144
 5289POPC   C4B66598  26.478  17.719   7.567
 5290POPC   NC366599  42.406  23.515   5.421
 5290POPC   PO466600  42.416  24.170   5.322
 5290POPC   GL166601  42.276  23.926   5.699
 5290POPC   GL266602  42.623  23.841   5.770
 5290POPC   C1A66603  42.260  23.662   6.106
 5290POPC   D2A66604  42.192  23.792   6.553
 5290POPC   C3A66605  42.366  23.625   6.934
 5290POPC   C4A66606  42.200  23.517   7.334
 5290POPC   C1B66607  42.547  24.079   6.153
 5290POPC   C2B66608  42.648  24.135   6.575
 5290POPC   C3B66609  42.471  24.133   6.975
 5290POPC   C4B66610  42.459  23.944   7.358
 5291POPC   NC366611   9.280  42.237   5.398
 5291POPC   PO466612   8.618  42.056   5.378
 5291POPC   GL166613   8.728  42.274   5.774
 5291POPC   GL266614   9.090  42.249   5.877
 5291POPC   C1A66615   8.700  42.132   6.212
 5291POPC   D2A66616   8.867  41.855   6.542
 5291POPC   C3A66617   8.914  42.153   6.887
 5291POPC   C4A66618   8.690  42.210   7.267
 5291POPC   C1B66619   8.972  42.594   6.182
 5291POPC   C2B66620   8.987  42.805   6.597
 5291POPC   C3B66621   9.140  42.774   7.033
 5291POPC   C4B66622   9.150  42.423   7.284
 5292POPC   NC366623  35.822  16.119   5.392
 5292POPC   PO466624  35.210  15.838   5.375
 5292POPC   GL166625  35.391  15.993   5.734
 5292POPC   GL266626  35.066  16.163   5.787
 5292POPC   C1A66627  35.642  15.765   6.085
 5292POPC   D2A66628  35.708  15.587   6.521
 5292POPC   C3A66629  35.599  15.889   6.890
 5292POPC   C4A66630  35.430  16.063   7.295
 5292POPC   C1B66631  35.183  16.025   6.202
 5292POPC   C2B66632  34.896  16.000   6.538
 5292POPC   C3B66633  35.013  16.178   6.904
 5292POPC   C4B66634  34.921  16.162   7.314
 5293POPC   NC366635  39.491  20.629   5.019
 5293POPC   PO466636  39.973  20.565   5.475
 5293POPC   GL166637  40.016  20.752   5.854
 5293POPC   GL266638  40.206  21.032   5.830
 5293POPC   C1A66639  40.123  20.569   6.241
 5293POPC   D2A66640  40.267  20.490   6.649
 5293POPC   C3A66641  39.919  20.439   6.926
 5293POPC   C4A66642  40.136  20.506   7.271
 5293POPC   C1B66643  40.477  20.914   6.178
 5293POPC   C2B66644  40.390  21.004   6.599
 5293POPC   C3B66645  40.512  20.926   7.006
 5293POPC   C4B66646  40.402  20.965   7.415
 5294POPC   NC366647   3.817  11.839   5.295
 5294POPC   PO466648   3.467  12.409   5.534
 5294POPC   GL166649   3.519  12.132   5.888
 5294POPC   GL266650   3.817  11.917   5.819
 5294POPC   C1A66651   3.445  11.874   6.277
 5294POPC   D2A66652   3.511  11.783   6.720
 5294POPC   C3A66653   3.348  12.077   6.970
 5294POPC   C4A66654   3.454  12.225   7.341
 5294POPC   C1B66655   3.912  12.082   6.236
 5294POPC   C2B66656   3.691  12.246   6.608
 5294POPC   C3B66657   3.848  12.132   7.009
 5294POPC   C4B66658   3.665  11.773   7.239
 5295POPC   NC366659  29.841   0.547   5.419
 5295POPC   PO466660  30.343   0.345   5.573
 5295POPC   GL166661  30.055   0.497   5.900
 5295POPC   GL266662  30.071   0.864   5.867
 5295POPC   C1A66663  29.764   0.339   6.229
 5295POPC   D2A66664  29.607   0.422   6.645
 5295POPC   C3A66665  29.853   0.321   7.008
 5295POPC   C4A66666  29.703   0.081   7.379
 5295POPC   C1B66667  29.859   0.825   6.305
 5295POPC   C2B66668  29.895   0.813   6.776
 5295POPC   C3B66669  30.093   0.758   7.172
 5295POPC   C4B66670  29.965   0.840   7.633
 5296POPC   NC366671  39.530   1.691   5.546
 5296POPC   PO466672  40.130   1.430   5.446
 5296POPC   GL166673  40.156   1.786   5.787
 5296POPC   GL266674  39.852   2.000   5.798
 5296POPC   C1A66675  40.231   2.150   6.117
 5296POPC   D2A66676  40.090   2.309   6.520
 5296POPC   C3A66677  40.250   2.104   6.918
 5296POPC   C4A66678  40.109   2.138   7.377
 5296POPC   C1B66679  39.878   1.812   6.214
 5296POPC   C2B66680  39.988   1.756   6.623
 5296POPC   C3B66681  39.816   1.873   7.013
 5296POPC   C4B66682  39.845   1.685   7.407
 5297POPC   NC366683   4.207  21.928   5.406
 5297POPC   PO466684   4.346  21.272   5.377
 5297POPC   GL166685   4.246  21.371   5.816
 5297POPC   GL266686   4.141  21.704   5.876
 5297POPC   C1A66687   4.475  21.449   6.225
 5297POPC   D2A66688   4.564  21.169   6.583
 5297POPC   C3A66689   4.562  21.391   6.956
 5297POPC   C4A66690   4.557  21.322   7.387
 5297POPC   C1B66691   3.970  21.484   6.255
 5297POPC   C2B66692   4.076  21.371   6.680
 5297POPC   C3B66693   4.097  21.592   7.075
 5297POPC   C4B66694   4.061  21.806   7.490
 5298POPC   NC366695  38.418   8.292   5.106
 5298POPC   PO466696  38.379   7.909   5.633
 5298POPC   GL166697  38.344   8.146   5.949
 5298POPC   GL266698  38.552   8.367   5.797
 5298POPC   C1A66699  38.276   8.486   6.209
 5298POPC   D2A66700  38.484   8.512   6.557
 5298POPC   C3A66701  38.338   8.172   6.834
 5298POPC   C4A66702  38.423   8.183   7.255
 5298POPC   C1B66703  38.798   8.412   6.136
 5298POPC   C2B66704  39.007   8.433   6.517
 5298POPC   C3B66705  38.808   8.376   6.929
 5298POPC   C4B66706  38.685   8.653   7.227
 5299POPC   NC366707  28.372  25.432   5.235
 5299POPC   PO466708  28.365  24.872   5.479
 5299POPC   GL166709  28.098  25.033   5.861
 5299POPC   GL266710  28.164  25.406   5.891
 5299POPC   C1A66711  28.078  25.025   6.346
 5299POPC   D2A66712  28.306  25.210   6.687
 5299POPC   C3A66713  28.356  25.047   7.115
 5299POPC   C4A66714  28.739  24.953   7.352
 5299POPC   C1B66715  28.108  25.586   6.303
 5299POPC   C2B66716  28.096  25.672   6.740
 5299POPC   C3B66717  28.231  25.632   7.152
 5299POPC   C4B66718  28.184  25.773   7.586
 5300POPC   NC366719  44.088  15.442   5.471
 5300POPC   PO466720  43.831  14.866   5.541
 5300POPC   GL166721  43.831  15.015   5.949
 5300POPC   GL266722  43.801  15.348   5.891
 5300POPC   C1A66723  43.795  15.217   6.377
 5300POPC   D2A66724  43.873  15.374   6.805
 5300POPC   C3A66725  43.678  15.149   7.143
 5300POPC   C4A66726  43.792  14.921   7.517
 5300POPC   C1B66727  44.144  15.538   6.166
 5300POPC   C2B66728  44.280  15.697   6.586
 5300POPC   C3B66729  44.309  15.537   7.018
 5300POPC   C4B66730  44.091  15.342   7.406
 5301POPC   NC366731  40.536   1.474   5.632
 5301POPC   PO466732  40.909   1.962   5.444
 5301POPC   GL166733  40.860   2.164   5.827
 5301POPC   GL266734  40.659   1.898   5.951
 5301POPC   C1A66735  40.733   2.373   6.187
 5301POPC   D2A66736  40.577   2.162   6.523
 5301POPC   C3A66737  40.857   2.103   6.839
 5301POPC   C4A66738  40.918   2.102   7.248
 5301POPC   C1B66739  40.403   1.702   6.277
 5301POPC   C2B66740  40.495   1.662   6.700
 5301POPC   C3B66741  40.262   1.595   7.064
 5301POPC   C4B66742  40.500   1.822   7.289
 5302POPC   NC366743  42.446  38.682   5.095
 5302POPC   PO466744  42.981  38.369   5.392
 5302POPC   GL166745  43.138  38.471   5.783
 5302POPC   GL266746  43.210  38.823   5.752
 5302POPC   C1A66747  43.161  38.310   6.190
 5302POPC   D2A66748  43.433  38.168   6.535
 5302POPC   C3A66749  43.204  38.240   6.911
 5302POPC   C4A66750  43.154  38.599   7.193
 5302POPC   C1B66751  42.998  38.810   6.173
 5302POPC   C2B66752  42.964  38.615   6.582
 5302POPC   C3B66753  42.737  38.756   6.931
 5302POPC   C4B66754  42.684  38.615   7.405
 5303POPC   NC366755  23.867  41.466   5.593
 5303POPC   PO466756  23.470  42.055   5.443
 5303POPC   GL166757  23.484  41.780   5.839
 5303POPC   GL266758  23.384  41.466   5.895
 5303POPC   C1A66759  23.597  41.654   6.287
 5303POPC   D2A66760  23.712  41.466   6.658
 5303POPC   C3A66761  23.546  41.507   7.051
 5303POPC   C4A66762  23.891  41.478   7.257
 5303POPC   C1B66763  23.363  41.147   6.193
 5303POPC   C2B66764  23.526  40.953   6.534
 5303POPC   C3B66765  23.515  41.018   6.944
 5303POPC   C4B66766  23.568  41.095   7.370
 5304POPC   NC366767  42.133   7.965   5.231
 5304POPC   PO466768  42.157   8.557   5.474
 5304POPC   GL166769  42.180   8.332   5.851
 5304POPC   GL266770  41.970   8.044   5.859
 5304POPC   C1A66771  42.388   8.311   6.238
 5304POPC   D2A66772  42.768   8.223   6.485
 5304POPC   C3A66773  42.672   8.031   6.872
 5304POPC   C4A66774  42.400   8.193   7.171
 5304POPC   C1B66775  41.863   8.255   6.262
 5304POPC   C2B66776  42.031   8.247   6.691
 5304POPC   C3B66777  41.906   8.275   7.125
 5304POPC   C4B66778  42.104   8.482   7.487
 5305POPC   NC366779   2.151  22.311   5.458
 5305POPC   PO466780   2.001  21.650   5.587
 5305POPC   GL166781   2.056  21.999   5.885
 5305POPC   GL266782   1.735  21.908   5.985
 5305POPC   C1A66783   1.913  22.300   6.250
 5305POPC   D2A66784   2.067  22.537   6.629
 5305POPC   C3A66785   1.954  22.383   7.074
 5305POPC   C4A66786   1.674  22.447   7.469
 5305POPC   C1B66787   1.966  21.777   6.344
 5305POPC   C2B66788   2.265  21.993   6.570
 5305POPC   C3B66789   2.444  21.888   6.922
 5305POPC   C4B66790   2.144  21.699   7.186
 5306POPC   NC366791  12.422  23.679   5.479
 5306POPC   PO466792  11.858  24.061   5.599
 5306POPC   GL166793  12.131  23.777   5.939
 5306POPC   GL266794  12.379  23.474   5.933
 5306POPC   C1A66795  12.096  23.550   6.380
 5306POPC   D2A66796  11.880  23.516   6.804
 5306POPC   C3A66797  11.969  23.822   7.147
 5306POPC   C4A66798  11.788  23.937   7.569
 5306POPC   C1B66799  12.555  23.723   6.262
 5306POPC   C2B66800  12.457  23.845   6.649
 5306POPC   C3B66801  12.369  23.552   6.945
 5306POPC   C4B66802  12.469  23.572   7.333
 5307POPC   NC366803  37.485   6.831   5.176
 5307POPC   PO466804  38.083   6.409   5.203
 5307POPC   GL166805  37.786   6.632   5.520
 5307POPC   GL266806  37.564   6.370   5.624
 5307POPC   C1A66807  37.647   6.771   5.966
 5307POPC   D2A66808  37.629   6.629   6.432
 5307POPC   C3A66809  37.793   6.849   6.805
 5307POPC   C4A66810  37.894   7.017   7.201
 5307POPC   C1B66811  37.458   6.289   6.072
 5307POPC   C2B66812  37.506   6.136   6.500
 5307POPC   C3B66813  37.685   6.318   6.873
 5307POPC   C4B66814  37.528   6.592   7.165
 5308POPC   NC366815   3.659  33.106   5.332
 5308POPC   PO466816   2.933  33.109   5.475
 5308POPC   GL166817   3.336  33.073   5.757
 5308POPC   GL266818   3.652  32.815   5.752
 5308POPC   C1A66819   3.491  33.030   6.182
 5308POPC   D2A66820   3.550  32.865   6.593
 5308POPC   C3A66821   3.625  33.164   6.975
 5308POPC   C4A66822   3.397  33.180   7.375
 5308POPC   C1B66823   3.896  32.506   6.024
 5308POPC   C2B66824   3.975  32.559   6.485
 5308POPC   C3B66825   3.929  32.763   6.901
 5308POPC   C4B66826   3.604  32.687   7.189
 5309POPC   NC366827   3.479  10.161   5.411
 5309POPC   PO466828   3.609   9.546   5.287
 5309POPC   GL166829   3.553   9.668   5.724
 5309POPC   GL266830   3.372   9.932   5.900
 5309POPC   C1A66831   3.697   9.611   6.150
 5309POPC   D2A66832   3.850   9.612   6.569
 5309POPC   C3A66833   3.632   9.711   6.947
 5309POPC   C4A66834   3.873   9.850   7.230
 5309POPC   C1B66835   3.683  10.115   6.262
 5309POPC   C2B66836   3.823  10.125   6.736
 5309POPC   C3B66837   3.557  10.237   7.107
 5309POPC   C4B66838   3.408   9.972   7.394
 5310POPC   NC366839  25.683  39.579   5.078
 5310POPC   PO466840  25.132  39.456   5.506
 5310POPC   GL166841  25.231  39.261   5.879
 5310POPC   GL266842  25.504  39.022   5.876
 5310POPC   C1A66843  25.399  39.377   6.262
 5310POPC   D2A66844  25.274  39.328   6.679
 5310POPC   C3A66845  25.461  39.561   6.994
 5310POPC   C4A66846  25.546  39.391   7.341
 5310POPC   C1B66847  25.142  38.826   6.120
 5310POPC   C2B66848  24.845  38.855   6.452
 5310POPC   C3B66849  24.845  39.012   6.845
 5310POPC   C4B66850  24.977  38.890   7.232
 5311POPC   NC366851   7.064  35.759   5.374
 5311POPC   PO466852   7.496  36.242   5.454
 5311POPC   GL166853   7.094  36.185   5.697
 5311POPC   GL266854   6.915  36.497   5.666
 5311POPC   C1A66855   7.053  36.061   6.156
 5311POPC   D2A66856   7.112  35.923   6.598
 5311POPC   C3A66857   7.436  36.045   6.891
 5311POPC   C4A66858   7.413  36.221   7.300
 5311POPC   C1B66859   6.965  36.561   6.118
 5311POPC   C2B66860   7.187  36.429   6.519
 5311POPC   C3B66861   7.017  36.347   6.934
 5311POPC   C4B66862   7.015  36.528   7.350
 5312POPC   NC366863  28.657   2.158   5.484
 5312POPC   PO466864  28.071   1.778   5.382
 5312POPC   GL166865  28.163   1.911   5.809
 5312POPC   GL266866  28.503   1.921   5.937
 5312POPC   C1A66867  28.139   1.773   6.260
 5312POPC   D2A66868  28.261   1.936   6.685
 5312POPC   C3A66869  28.407   1.699   7.028
 5312POPC   C4A66870  28.060   1.750   7.285
 5312POPC   C1B66871  28.499   2.145   6.296
 5312POPC   C2B66872  28.707   2.233   6.668
 5312POPC   C3B66873  28.554   2.202   7.057
 5312POPC   C4B66874  28.732   2.075   7.443
 5313POPC   NC366875  44.333  35.880   5.426
 5313POPC   PO466876  44.993  35.919   5.455
 5313POPC   GL166877  44.791  36.022   5.846
 5313POPC   GL266878  44.441  36.066   5.880
 5313POPC   C1A66879  44.705  36.278   6.236
 5313POPC   D2A66880  44.407  36.220   6.540
 5313POPC   C3A66881  44.698  36.133   6.842
 5313POPC   C4A66882  44.845  36.122   7.260
 5313POPC   C1B66883  44.483  35.805   6.217
 5313POPC   C2B66884  44.386  35.686   6.620
 5313POPC   C3B66885  44.397  35.787   7.054
 5313POPC   C4B66886  44.651  35.688   7.451
 5314POPC   NC366887  30.964  35.179   5.132
 5314POPC   PO466888  31.590  35.429   5.412
 5314POPC   GL166889  31.442  35.256   5.796
 5314POPC   GL266890  31.224  35.509   5.882
 5314POPC   C1A66891  31.263  35.126   6.228
 5314POPC   D2A66892  31.291  35.328   6.646
 5314POPC   C3A66893  31.269  34.986   6.955
 5314POPC   C4A66894  31.547  34.872   7.289
 5314POPC   C1B66895  31.585  35.538   6.226
 5314POPC   C2B66896  31.836  35.650   6.608
 5314POPC   C3B66897  31.804  35.638   7.060
 5314POPC   C4B66898  31.554  35.415   7.346
 5315POPC   NC366899  20.455  16.394   5.447
 5315POPC   PO466900  20.912  16.865   5.428
 5315POPC   GL166901  20.598  16.824   5.762
 5315POPC   GL266902  20.781  16.577   5.920
 5315POPC   C1A66903  20.431  16.804   6.208
 5315POPC   D2A66904  20.649  16.851   6.595
 5315POPC   C3A66905  20.403  16.777   6.950
 5315POPC   C4A66906  20.460  17.017   7.363
 5315POPC   C1B66907  21.040  16.615   6.330
 5315POPC   C2B66908  21.089  16.614   6.800
 5315POPC   C3B66909  20.848  16.707   7.169
 5315POPC   C4B66910  20.821  16.685   7.626
 5316POPC   NC366911  40.834   0.411   5.462
 5316POPC   PO466912  40.167   0.543   5.351
 5316POPC   GL166913  40.366   0.632   5.823
 5316POPC   GL266914  40.757   0.511   5.940
 5316POPC   C1A66915  40.461   0.646   6.301
 5316POPC   D2A66916  40.872   0.565   6.539
 5316POPC   C3A66917  40.895   0.299   6.905
 5316POPC   C4A66918  40.725   0.471   7.258
 5316POPC   C1B66919  40.490   0.146   6.116
 5316POPC   C2B66920  40.370  44.964   6.547
 5316POPC   C3B66921  40.404   0.106   7.014
 5316POPC   C4B66922  40.565   0.053   7.474
 5317POPC   NC366923  21.425  44.667   5.496
 5317POPC   PO466924  20.905  44.362   5.520
 5317POPC   GL166925  21.039  44.612   5.913
 5317POPC   GL266926  21.266  44.899   5.918
 5317POPC   C1A66927  21.100  44.772   6.363
 5317POPC   D2A66928  21.388  44.983   6.647
 5317POPC   C3A66929  21.313  44.781   6.997
 5317POPC   C4A66930  21.180  44.613   7.330
 5317POPC   C1B66931  21.622  44.779   6.214
 5317POPC   C2B66932  21.865  44.731   6.610
 5317POPC   C3B66933  21.805  44.885   7.022
 5317POPC   C4B66934  21.703  44.698   7.349
 5318POPC   NC366935  13.710  16.907   5.220
 5318POPC   PO466936  13.198  16.487   5.300
 5318POPC   GL166937  13.488  16.460   5.668
 5318POPC   GL266938  13.463  16.158   5.894
 5318POPC   C1A66939  13.705  16.733   5.984
 5318POPC   D2A66940  13.537  16.934   6.382
 5318POPC   C3A66941  13.674  16.797   6.805
 5318POPC   C4A66942  13.781  16.520   7.138
 5318POPC   C1B66943  13.394  16.430   6.243
 5318POPC   C2B66944  13.225  16.563   6.598
 5318POPC   C3B66945  13.276  16.470   6.991
 5318POPC   C4B66946  13.338  16.807   7.211
 5319POPC   NC366947  29.624  38.508   5.470
 5319POPC   PO466948  29.123  38.142   5.223
 5319POPC   GL166949  29.046  38.130   5.700
 5319POPC   GL266950  28.959  38.472   5.838
 5319POPC   C1A66951  28.959  38.067   6.133
 5319POPC   D2A66952  28.762  38.211   6.509
 5319POPC   C3A66953  28.967  38.485   6.817
 5319POPC   C4A66954  28.874  38.435   7.263
 5319POPC   C1B66955  29.047  38.611   6.285
 5319POPC   C2B66956  29.399  38.696   6.567
 5319POPC   C3B66957  29.601  38.787   6.899
 5319POPC   C4B66958  29.350  38.673   7.250
 5320POPC   NC366959  41.708   0.755   5.347
 5320POPC   PO466960  41.241   0.389   5.661
 5320POPC   GL166961  41.419   0.332   5.990
 5320POPC   GL266962  41.720   0.293   5.826
 5320POPC   C1A66963  41.379   0.583   6.345
 5320POPC   D2A66964  41.627   0.516   6.688
 5320POPC   C3A66965  41.419   0.386   7.028
 5320POPC   C4A66966  41.176   0.676   7.194
 5320POPC   C1B66967  41.875   0.419   6.228
 5320POPC   C2B66968  42.034   0.259   6.612
 5320POPC   C3B66969  41.965   0.322   7.047
 5320POPC   C4B66970  42.036   0.052   7.391
 5321POPC   NC366971  37.595   4.425   5.429
 5321POPC   PO466972  37.466   3.785   5.531
 5321POPC   GL166973  37.771   3.935   5.830
 5321POPC   GL266974  37.811   4.299   5.868
 5321POPC   C1A66975  37.802   3.976   6.265
 5321POPC   D2A66976  37.701   3.753   6.643
 5321POPC   C3A66977  37.488   4.063   6.854
 5321POPC   C4A66978  37.644   4.276   7.195
 5321POPC   C1B66979  37.971   4.491   6.252
 5321POPC   C2B66980  37.974   4.462   6.705
 5321POPC   C3B66981  37.992   4.625   7.112
 5321POPC   C4B66982  37.591   4.791   7.254
 5322POPC   NC366983  42.828  31.638   5.472
 5322POPC   PO466984  43.193  31.065   5.484
 5322POPC   GL166985  43.089  31.338   5.783
 5322POPC   GL266986  42.764  31.298   5.888
 5322POPC   C1A66987  43.229  31.600   6.127
 5322POPC   D2A66988  43.078  31.645   6.559
 5322POPC   C3A66989  43.171  31.817   6.967
 5322POPC   C4A66990  43.006  31.539   7.257
 5322POPC   C1B66991  42.660  31.695   6.116
 5322POPC   C2B66992  42.614  31.872   6.529
 5322POPC   C3B66993  42.666  31.687   6.908
 5322POPC   C4B66994  42.399  31.673   7.234
 5323POPC   NC366995  11.664  21.072   5.545
 5323POPC   PO466996  12.149  21.506   5.321
 5323POPC   GL166997  12.013  21.451   5.765
 5323POPC   GL266998  12.080  21.143   5.835
 5323POPC   C1A66999  11.906  21.442   6.231
 5323POPC   D2A67000  11.890  21.303   6.673
 5323POPC   C3A67001  11.931  21.599   7.054
 5323POPC   C4A67002  12.034  21.403   7.456
 5323POPC   C1B67003  12.397  21.374   6.110
 5323POPC   C2B67004  12.370  21.504   6.565
 5323POPC   C3B67005  12.340  21.335   6.990
 5323POPC   C4B67006  12.518  21.475   7.368
 5324POPC   NC367007  27.391  23.233   5.625
 5324POPC   PO467008  26.876  22.856   5.358
 5324POPC   GL167009  26.753  22.899   5.821
 5324POPC   GL267010  26.591  23.229   5.847
 5324POPC   C1A67011  26.679  22.704   6.232
 5324POPC   D2A67012  26.815  22.613   6.655
 5324POPC   C3A67013  26.469  22.732   6.935
 5324POPC   C4A67014  26.443  22.966   7.321
 5324POPC   C1B67015  26.823  23.199   6.262
 5324POPC   C2B67016  26.775  23.133   6.727
 5324POPC   C3B67017  26.641  23.381   7.086
 5324POPC   C4B67018  26.531  23.407   7.550
 5325POPC   NC367019   8.626   8.850   5.338
 5325POPC   PO467020   9.238   8.714   5.584
 5325POPC   GL167021   8.952   9.050   5.725
 5325POPC   GL267022   9.250   9.166   5.884
 5325POPC   C1A67023   8.766   9.211   6.131
 5325POPC   D2A67024   8.765   8.999   6.530
 5325POPC   C3A67025   9.042   9.031   6.862
 5325POPC   C4A67026   8.878   8.932   7.231
 5325POPC   C1B67027   9.234   9.090   6.342
 5325POPC   C2B67028   9.461   9.282   6.721
 5325POPC   C3B67029   9.518   9.238   7.175
 5325POPC   C4B67030   9.399   9.364   7.605
 5326POPC   NC367031  11.076   5.756   5.446
 5326POPC   PO467032  11.374   5.114   5.382
 5326POPC   GL167033  11.303   4.855   5.729
 5326POPC   GL267034  11.408   5.138   5.918
 5326POPC   C1A67035  11.249   4.723   6.161
 5326POPC   D2A67036  11.338   5.048   6.471
 5326POPC   C3A67037  11.126   4.988   6.890
 5326POPC   C4A67038  11.338   5.052   7.292
 5326POPC   C1B67039  11.698   5.419   6.160
 5326POPC   C2B67040  11.700   5.583   6.565
 5326POPC   C3B67041  11.847   5.490   6.977
 5326POPC   C4B67042  11.630   5.468   7.341
 5327POPC   NC367043  21.785  17.287   5.348
 5327POPC   PO467044  21.177  17.622   5.265
 5327POPC   GL167045  21.337  17.514   5.686
 5327POPC   GL267046  21.517  17.195   5.764
 5327POPC   C1A67047  21.214  17.489   6.146
 5327POPC   D2A67048  21.209  17.743   6.519
 5327POPC   C3A67049  21.176  17.552   6.917
 5327POPC   C4A67050  21.004  17.787   7.253
 5327POPC   C1B67051  21.733  17.376   6.118
 5327POPC   C2B67052  21.567  17.363   6.532
 5327POPC   C3B67053  21.672  17.205   6.906
 5327POPC   C4B67054  21.561  17.268   7.309
 5328POPC   NC367055  19.452   2.401   5.705
 5328POPC   PO467056  19.000   1.903   5.458
 5328POPC   GL167057  19.113   2.031   5.851
 5328POPC   GL267058  19.434   1.931   5.988
 5328POPC   C1A67059  18.940   2.200   6.232
 5328POPC   D2A67060  18.693   2.046   6.594
 5328POPC   C3A67061  18.861   2.173   7.000
 5328POPC   C4A67062  19.029   2.047   7.395
 5328POPC   C1B67063  19.470   2.235   6.308
 5328POPC   C2B67064  19.266   2.244   6.672
 5328POPC   C3B67065  19.356   1.986   6.993
 5328POPC   C4B67066  19.545   2.082   7.362
 5329POPC   NC367067  41.161  20.668   5.413
 5329POPC   PO467068  41.658  20.973   5.584
 5329POPC   GL167069  41.436  20.750   5.892
 5329POPC   GL267070  41.392  20.403   5.795
 5329POPC   C1A67071  41.504  20.684   6.334
 5329POPC   D2A67072  41.294  20.517   6.690
 5329POPC   C3A67073  41.435  20.508   7.116
 5329POPC   C4A67074  41.730  20.765   7.275
 5329POPC   C1B67075  41.801  20.376   6.013
 5329POPC   C2B67076  41.879  20.332   6.456
 5329POPC   C3B67077  41.871  20.539   6.832
 5329POPC   C4B67078  42.099  20.405   7.204
 5330POPC   NC367079  21.359  31.230   5.363
 5330POPC   PO467080  21.144  31.895   5.362
 5330POPC   GL167081  21.287  31.650   5.740
 5330POPC   GL267082  21.585  31.408   5.779
 5330POPC   C1A67083  21.271  31.514   6.179
 5330POPC   D2A67084  21.384  31.320   6.577
 5330POPC   C3A67085  21.451  31.557   6.937
 5330POPC   C4A67086  21.177  31.643   7.270
 5330POPC   C1B67087  21.638  31.132   6.142
 5330POPC   C2B67088  21.758  30.977   6.550
 5330POPC   C3B67089  21.671  31.095   7.001
 5330POPC   C4B67090  21.605  31.369   7.391
 5331POPC   NC367091  43.658  17.138   5.343
 5331POPC   PO467092  43.827  16.517   5.295
 5331POPC   GL167093  43.812  16.588   5.757
 5331POPC   GL267094  43.743  16.950   5.811
 5331POPC   C1A67095  43.934  16.580   6.209
 5331POPC   D2A67096  44.026  16.634   6.665
 5331POPC   C3A67097  43.904  16.417   7.036
 5331POPC   C4A67098  43.974  16.822   7.199
 5331POPC   C1B67099  43.461  16.767   6.112
 5331POPC   C2B67100  43.533  16.588   6.511
 5331POPC   C3B67101  43.545  16.752   6.900
 5331POPC   C4B67102  43.318  16.640   7.204
 5332POPC   NC367103  44.941   2.905   5.102
 5332POPC   PO467104  44.569   2.464   5.294
 5332POPC   GL167105  44.493   2.648   5.768
 5332POPC   GL267106  44.463   3.012   5.830
 5332POPC   C1A67107  44.680   2.685   6.203
 5332POPC   D2A67108  44.597   2.890   6.594
 5332POPC   C3A67109  44.806   2.763   6.960
 5332POPC   C4A67110  44.549   2.738   7.328
 5332POPC   C1B67111  44.774   3.220   6.139
 5332POPC   C2B67112  44.961   3.240   6.530
 5332POPC   C3B67113  44.799   3.276   6.924
 5332POPC   C4B67114  44.869   3.122   7.336
 5333POPC   NC367115   2.247  15.016   5.305
 5333POPC   PO467116   2.927  15.048   5.408
 5333POPC   GL167117   2.672  15.007   5.765
 5333POPC   GL267118   2.647  15.333   5.837
 5333POPC   C1A67119   2.839  15.035   6.193
 5333POPC   D2A67120   2.842  15.017   6.627
 5333POPC   C3A67121   2.722  15.254   6.975
 5333POPC   C4A67122   2.755  15.132   7.384
 5333POPC   C1B67123   2.451  15.360   6.212
 5333POPC   C2B67124   2.524  15.543   6.595
 5333POPC   C3B67125   2.325  15.578   6.972
 5333POPC   C4B67126   2.339  15.427   7.406
 5334POPC   NC367127  25.560  35.496   5.391
 5334POPC   PO467128  25.081  35.202   5.101
 5334POPC   GL167129  25.252  35.200   5.642
 5334POPC   GL267130  25.410  34.923   5.825
 5334POPC   C1A67131  25.327  35.459   6.071
 5334POPC   D2A67132  25.467  35.441   6.550
 5334POPC   C3A67133  25.339  35.650   6.938
 5334POPC   C4A67134  25.419  35.524   7.382
 5334POPC   C1B67135  25.205  34.964   6.223
 5334POPC   C2B67136  25.021  35.173   6.588
 5334POPC   C3B67137  25.031  35.257   7.043
 5334POPC   C4B67138  25.052  35.083   7.435
 5335POPC   NC367139  30.792   0.286   5.583
 5335POPC   PO467140  30.955   0.930   5.500
 5335POPC   GL167141  30.891   0.694   5.910
 5335POPC   GL267142  30.988   0.358   6.033
 5335POPC   C1A67143  30.512   0.532   6.161
 5335POPC   D2A67144  30.232   0.529   6.496
 5335POPC   C3A67145  30.446   0.328   6.820
 5335POPC   C4A67146  30.531   0.449   7.202
 5335POPC   C1B67147  31.156   0.087   6.336
 5335POPC   C2B67148  31.003  44.856   6.698
 5335POPC   C3B67149  30.761  44.939   7.067
 5335POPC   C4B67150  31.016   0.150   7.338
 5336POPC   NC367151   0.281  14.978   5.410
 5336POPC   PO467152   0.733  15.399   5.191
 5336POPC   GL167153   0.569  15.382   5.648
 5336POPC   GL267154   0.186  15.396   5.714
 5336POPC   C1A67155   0.651  15.105   6.029
 5336POPC   D2A67156   0.747  14.892   6.418
 5336POPC   C3A67157   0.726  15.020   6.846
 5336POPC   C4A67158   0.566  15.045   7.258
 5336POPC   C1B67159   0.208  15.311   6.171
 5336POPC   C2B67160   0.262  15.166   6.608
 5336POPC   C3B67161   0.290  15.353   6.983
 5336POPC   C4B67162   0.070  15.129   7.317
 5337POPC   NC367163  24.732  33.093   5.149
 5337POPC   PO467164  24.149  32.886   5.359
 5337POPC   GL167165  24.490  32.818   5.673
 5337POPC   GL267166  24.672  33.138   5.678
 5337POPC   C1A67167  24.361  32.816   6.127
 5337POPC   D2A67168  24.334  33.025   6.523
 5337POPC   C3A67169  24.494  32.837   6.889
 5337POPC   C4A67170  24.765  32.660   7.197
 5337POPC   C1B67171  24.593  33.273   6.119
 5337POPC   C2B67172  24.816  33.156   6.518
 5337POPC   C3B67173  24.896  33.179   6.963
 5337POPC   C4B67174  24.585  33.161   7.275
 5338POPC   NC367175  13.211  15.139   5.453
 5338POPC   PO467176  13.812  15.344   5.383
 5338POPC   GL167177  13.784  15.097   5.768
 5338POPC   GL267178  13.507  14.892   5.844
 5338POPC   C1A67179  13.930  14.922   6.160
 5338POPC   D2A67180  14.046  15.094   6.583
 5338POPC   C3A67181  13.799  14.912   6.926
 5338POPC   C4A67182  13.539  15.090   7.228
 5338POPC   C1B67183  13.501  15.253   6.167
 5338POPC   C2B67184  13.301  15.481   6.524
 5338POPC   C3B67185  13.314  15.595   6.964
 5338POPC   C4B67186  13.214  15.468   7.399
 5339POPC   NC367187  17.543  21.666   5.344
 5339POPC   PO467188  17.718  21.106   5.157
 5339POPC   GL167189  17.662  21.214   5.662
 5339POPC   GL267190  17.791  21.544   5.764
 5339POPC   C1A67191  17.392  21.156   6.101
 5339POPC   D2A67192  17.545  21.132   6.557
 5339POPC   C3A67193  17.345  21.050   6.959
 5339POPC   C4A67194  17.202  21.302   7.323
 5339POPC   C1B67195  17.764  21.482   6.217
 5339POPC   C2B67196  17.666  21.646   6.645
 5339POPC   C3B67197  17.608  21.491   7.069
 5339POPC   C4B67198  17.640  21.660   7.494
 5340POPC   NC367199  22.899   3.423   5.427
 5340POPC   PO467200  23.530   3.774   5.379
 5340POPC   GL167201  23.275   3.571   5.719
 5340POPC   GL267202  23.006   3.812   5.788
 5340POPC   C1A67203  23.311   3.349   6.129
 5340POPC   D2A67204  23.211   3.542   6.518
 5340POPC   C3A67205  23.334   3.390   6.894
 5340POPC   C4A67206  23.206   3.405   7.306
 5340POPC   C1B67207  22.838   3.610   6.160
 5340POPC   C2B67208  22.719   3.420   6.569
 5340POPC   C3B67209  22.860   3.609   6.959
 5340POPC   C4B67210  22.733   3.561   7.376
 5341POPC   NC367211  11.856  21.844   5.479
 5341POPC   PO467212  11.801  22.492   5.511
 5341POPC   GL167213  12.080  22.263   5.789
 5341POPC   GL267214  12.238  21.929   5.794
 5341POPC   C1A67215  11.996  22.152   6.214
 5341POPC   D2A67216  12.042  22.361   6.599
 5341POPC   C3A67217  11.989  22.126   6.970
 5341POPC   C4A67218  11.709  22.287   7.273
 5341POPC   C1B67219  12.413  21.875   6.200
 5341POPC   C2B67220  12.428  22.031   6.617
 5341POPC   C3B67221  12.423  21.879   7.040
 5341POPC   C4B67222  12.228  21.898   7.442
 5342POPC   NC367223  38.943  27.407   5.079
 5342POPC   PO467224  38.738  26.862   5.460
 5342POPC   GL167225  38.603  26.912   5.834
 5342POPC   GL267226  38.438  27.244   5.875
 5342POPC   C1A67227  38.499  26.560   6.085
 5342POPC   D2A67228  38.700  26.556   6.476
 5342POPC   C3A67229  38.463  26.385   6.821
 5342POPC   C4A67230  38.457  26.642   7.197
 5342POPC   C1B67231  38.378  27.003   6.294
 5342POPC   C2B67232  38.474  26.925   6.751
 5342POPC   C3B67233  38.645  27.149   7.109
 5342POPC   C4B67234  38.411  27.320   7.496
 5343POPC   NC367235  32.312  10.237   5.581
 5343POPC   PO467236  32.510  10.740   5.212
 5343POPC   GL167237  32.359  10.747   5.674
 5343POPC   GL267238  32.617  10.648   5.880
 5343POPC   C1A67239  32.135  10.619   6.091
 5343POPC   D2A67240  32.089  10.807   6.491
 5343POPC   C3A67241  32.396  10.726   6.794
 5343POPC   C4A67242  32.512  10.601   7.199
 5343POPC   C1B67243  32.602  10.547   6.337
 5343POPC   C2B67244  32.660  10.278   6.709
 5343POPC   C3B67245  32.581  10.123   7.120
 5343POPC   C4B67246  32.697  10.285   7.569
 5344POPC   NC367247  28.069  39.638   5.445
 5344POPC   PO467248  27.662  39.044   5.558
 5344POPC   GL167249  27.839  39.370   5.817
 5344POPC   GL267250  27.892  39.143   6.078
 5344POPC   C1A67251  27.685  39.611   6.195
 5344POPC   D2A67252  27.728  39.446   6.612
 5344POPC   C3A67253  27.626  39.607   7.014
 5344POPC   C4A67254  27.807  39.400   7.404
 5344POPC   C1B67255  27.499  39.121   6.291
 5344POPC   C2B67256  27.337  39.125   6.702
 5344POPC   C3B67257  27.456  39.095   7.133
 5344POPC   C4B67258  27.246  38.771   7.383
 5345POPC   NC367259  19.197  37.215   5.258
 5345POPC   PO467260  18.724  36.802   5.350
 5345POPC   GL167261  18.792  36.892   5.772
 5345POPC   GL267262  19.157  36.866   5.721
 5345POPC   C1A67263  18.798  37.019   6.211
 5345POPC   D2A67264  18.559  37.149   6.585
 5345POPC   C3A67265  18.729  37.052   7.005
 5345POPC   C4A67266  18.750  37.270   7.408
 5345POPC   C1B67267  19.313  36.903   6.133
 5345POPC   C2B67268  19.338  36.756   6.559
 5345POPC   C3B67269  19.316  36.960   6.964
 5345POPC   C4B67270  19.142  36.819   7.338
 5346POPC   NC367271  10.377   6.070   5.399
 5346POPC   PO467272  10.695   5.448   5.390
 5346POPC   GL167273  10.520   5.709   5.741
 5346POPC   GL267274  10.826   5.828   5.890
 5346POPC   C1A67275  10.302   5.939   6.114
 5346POPC   D2A67276  10.152   5.965   6.550
 5346POPC   C3A67277  10.371   5.807   6.937
 5346POPC   C4A67278  10.218   6.002   7.306
 5346POPC   C1B67279  10.683   5.623   6.260
 5346POPC   C2B67280  10.746   5.868   6.590
 5346POPC   C3B67281  10.937   5.852   6.959
 5346POPC   C4B67282  10.729   5.886   7.347
 5347POPC   NC367283   4.869  21.466   5.373
 5347POPC   PO467284   5.367  21.875   5.451
 5347POPC   GL167285   5.402  21.566   5.809
 5347POPC   GL267286   5.034  21.512   5.855
 5347POPC   C1A67287   5.312  21.375   6.240
 5347POPC   D2A67288   5.047  21.338   6.603
 5347POPC   C3A67289   5.236  21.217   6.979
 5347POPC   C4A67290   5.525  21.487   7.192
 5347POPC   C1B67291   4.895  21.744   6.244
 5347POPC   C2B67292   4.768  21.765   6.667
 5347POPC   C3B67293   4.994  21.693   7.052
 5347POPC   C4B67294   4.972  22.083   7.258
 5348POPC   NC367295  10.936  38.601   5.354
 5348POPC   PO467296  10.334  38.682   5.191
 5348POPC   GL167297  10.539  38.626   5.689
 5348POPC   GL267298  10.528  38.943   5.957
 5348POPC   C1A67299  10.617  38.480   6.139
 5348POPC   D2A67300  10.734  38.194   6.486
 5348POPC   C3A67301  10.601  38.285   6.908
 5348POPC   C4A67302  10.842  38.297   7.295
 5348POPC   C1B67303  10.247  38.820   6.333
 5348POPC   C2B67304  10.290  38.742   6.784
 5348POPC   C3B67305  10.406  38.662   7.205
 5348POPC   C4B67306  10.101  38.619   7.539
 5349POPC   NC367307  21.943  33.042   5.206
 5349POPC   PO467308  22.651  32.925   5.314
 5349POPC   GL167309  22.323  32.921   5.652
 5349POPC   GL267310  22.168  33.233   5.628
 5349POPC   C1A67311  22.220  32.847   6.147
 5349POPC   D2A67312  22.294  32.768   6.624
 5349POPC   C3A67313  21.961  32.803   6.938
 5349POPC   C4A67314  21.754  32.841   7.348
 5349POPC   C1B67315  22.308  33.356   6.049
 5349POPC   C2B67316  22.305  33.279   6.481
 5349POPC   C3B67317  22.137  33.288   6.896
 5349POPC   C4B67318  22.192  33.105   7.303
 5350POPC   NC367319  10.104  17.802   5.025
 5350POPC   PO467320   9.575  17.707   5.442
 5350POPC   GL167321   9.426  17.677   5.843
 5350POPC   GL267322   9.516  18.006   5.885
 5350POPC   C1A67323   9.606  17.407   6.180
 5350POPC   D2A67324   9.746  17.488   6.596
 5350POPC   C3A67325   9.690  17.282   6.949
 5350POPC   C4A67326   9.671  17.416   7.354
 5350POPC   C1B67327   9.726  17.906   6.267
 5350POPC   C2B67328   9.850  17.991   6.692
 5350POPC   C3B67329   9.739  17.840   7.096
 5350POPC   C4B67330   9.771  17.849   7.587
 5351POPC   NC367331  21.509  10.067   5.388
 5351POPC   PO467332  21.621   9.413   5.296
 5351POPC   GL167333  21.443   9.623   5.719
 5351POPC   GL267334  21.671   9.889   5.857
 5351POPC   C1A67335  21.221   9.711   6.152
 5351POPC   D2A67336  21.071   9.499   6.547
 5351POPC   C3A67337  21.057   9.693   6.967
 5351POPC   C4A67338  20.986   9.923   7.355
 5351POPC   C1B67339  21.610   9.981   6.308
 5351POPC   C2B67340  21.487   9.818   6.719
 5351POPC   C3B67341  21.508   9.842   7.196
 5351POPC   C4B67342  21.693   9.845   7.627
 5352POPC   NC367343   1.636  26.886   5.059
 5352POPC   PO467344   2.065  26.701   5.595
 5352POPC   GL167345   1.948  26.916   5.936
 5352POPC   GL267346   2.237  27.041   6.102
 5352POPC   C1A67347   1.708  26.879   6.299
 5352POPC   D2A67348   2.003  27.072   6.575
 5352POPC   C3A67349   1.930  26.920   6.993
 5352POPC   C4A67350   1.878  26.488   7.186
 5352POPC   C1B67351   2.165  26.606   6.305
 5352POPC   C2B67352   2.359  26.400   6.680
 5352POPC   C3B67353   2.433  26.658   7.066
 5352POPC   C4B67354   2.193  26.838   7.423
 5353POPC   NC367355  12.445  12.033   5.638
 5353POPC   PO467356  11.787  11.862   5.476
 5353POPC   GL167357  11.959  12.203   5.766
 5353POPC   GL267358  11.701  12.393   5.914
 5353POPC   C1A67359  12.195  12.272   6.199
 5353POPC   D2A67360  12.095  12.328   6.654
 5353POPC   C3A67361  12.287  12.060   6.992
 5353POPC   C4A67362  12.231  12.153   7.407
 5353POPC   C1B67363  11.754  11.996   6.186
 5353POPC   C2B67364  11.698  12.014   6.644
 5353POPC   C3B67365  11.798  12.108   7.101
 5353POPC   C4B67366  11.776  11.943   7.523
 5354POPC   NC367367  18.433  27.374   5.413
 5354POPC   PO467368  18.298  28.043   5.343
 5354POPC   GL167369  18.171  27.740   5.669
 5354POPC   GL267370  18.322  27.937   5.907
 5354POPC   C1A67371  18.124  27.465   6.043
 5354POPC   D2A67372  18.241  27.324   6.468
 5354POPC   C3A67373  18.227  27.376   6.919
 5354POPC   C4A67374  18.275  27.514   7.308
 5354POPC   C1B67375  18.255  27.894   6.310
 5354POPC   C2B67376  18.426  27.795   6.661
 5354POPC   C3B67377  18.372  27.943   7.044
 5354POPC   C4B67378  18.674  27.851   7.325
 5355POPC   NC367379  11.970  10.729   5.492
 5355POPC   PO467380  12.567  10.855   5.683
 5355POPC   GL167381  12.215  10.721   5.940
 5355POPC   GL267382  12.003  11.017   5.897
 5355POPC   C1A67383  12.031  10.448   6.283
 5355POPC   D2A67384  12.033  10.212   6.715
 5355POPC   C3A67385  12.184  10.433   7.083
 5355POPC   C4A67386  11.944  10.456   7.493
 5355POPC   C1B67387  11.825  10.957   6.293
 5355POPC   C2B67388  11.773  10.703   6.673
 5355POPC   C3B67389  11.769  10.777   7.111
 5355POPC   C4B67390  11.855  10.954   7.515
 5356POPC   NC367391  33.099  11.787   5.696
 5356POPC   PO467392  32.933  11.340   5.215
 5356POPC   GL167393  33.035  11.264   5.646
 5356POPC   GL267394  32.712  11.171   5.790
 5356POPC   C1A67395  33.128  11.255   6.105
 5356POPC   D2A67396  32.991  11.360   6.543
 5356POPC   C3A67397  33.270  11.392   6.871
 5356POPC   C4A67398  33.257  11.264   7.279
 5356POPC   C1B67399  32.664  11.487   6.168
 5356POPC   C2B67400  32.623  11.726   6.561
 5356POPC   C3B67401  32.797  11.661   6.957
 5356POPC   C4B67402  33.057  11.735   7.309
 5357POPC   NC367403  23.990  11.167   5.619
 5357POPC   PO467404  23.929  10.626   5.252
 5357POPC   GL167405  23.712  10.465   5.675
 5357POPC   GL267406  23.870  10.709   5.855
 5357POPC   C1A67407  23.784  10.280   6.134
 5357POPC   D2A67408  23.927  10.491   6.509
 5357POPC   C3A67409  23.739  10.348   6.897
 5357POPC   C4A67410  23.810  10.507   7.276
 5357POPC   C1B67411  24.067  10.899   6.197
 5357POPC   C2B67412  24.082  10.996   6.584
 5357POPC   C3B67413  24.099  10.754   6.931
 5357POPC   C4B67414  24.113  10.898   7.332
 5358POPC   NC367415  30.403   3.060   5.350
 5358POPC   PO467416  30.904   2.607   5.464
 5358POPC   GL167417  30.819   2.574   5.909
 5358POPC   GL267418  31.031   2.822   6.161
 5358POPC   C1A67419  30.697   2.470   6.316
 5358POPC   D2A67420  30.695   2.687   6.666
 5358POPC   C3A67421  30.720   2.485   7.040
 5358POPC   C4A67422  30.582   2.700   7.385
 5358POPC   C1B67423  30.612   2.987   6.225
 5358POPC   C2B67424  30.374   3.097   6.586
 5358POPC   C3B67425  30.513   3.026   7.013
 5358POPC   C4B67426  30.584   3.226   7.451
 5359POPC   NC367427  21.001  38.428   5.317
 5359POPC   PO467428  21.566  38.160   5.029
 5359POPC   GL167429  21.492  38.333   5.510
 5359POPC   GL267430  21.282  38.607   5.710
 5359POPC   C1A67431  21.650  38.295   5.980
 5359POPC   D2A67432  21.534  38.164   6.439
 5359POPC   C3A67433  21.526  38.429   6.826
 5359POPC   C4A67434  21.593  38.451   7.236
 5359POPC   C1B67435  21.149  38.374   6.133
 5359POPC   C2B67436  21.060  38.362   6.627
 5359POPC   C3B67437  21.097  38.382   7.144
 5359POPC   C4B67438  20.929  38.503   7.585
 5360POPC   NC367439  26.074  16.520   5.130
 5360POPC   PO467440  26.120  17.065   5.444
 5360POPC   GL167441  26.191  16.768   5.758
 5360POPC   GL267442  25.888  16.596   5.831
 5360POPC   C1A67443  26.188  16.857   6.211
 5360POPC   D2A67444  26.023  16.899   6.643
 5360POPC   C3A67445  26.393  16.933   6.930
 5360POPC   C4A67446  26.467  17.188   7.314
 5360POPC   C1B67447  26.019  16.370   6.230
 5360POPC   C2B67448  26.175  16.406   6.676
 5360POPC   C3B67449  26.114  16.552   7.136
 5360POPC   C4B67450  26.265  16.338   7.571
 5361POPC   NC367451  28.768  19.990   5.548
 5361POPC   PO467452  28.291  19.599   5.447
 5361POPC   GL167453  28.280  19.671   5.870
 5361POPC   GL267454  28.623  19.543   5.900
 5361POPC   C1A67455  28.085  20.038   6.127
 5361POPC   D2A67456  27.882  20.114   6.519
 5361POPC   C3A67457  28.104  20.117   6.890
 5361POPC   C4A67458  28.061  19.736   7.096
 5361POPC   C1B67459  28.583  19.949   6.163
 5361POPC   C2B67460  28.413  19.820   6.526
 5361POPC   C3B67461  28.675  19.543   6.749
 5361POPC   C4B67462  28.561  19.590   7.152
 5362POPC   NC367463  43.138  36.983   5.025
 5362POPC   PO467464  43.328  36.831   5.648
 5362POPC   GL167465  43.187  36.854   6.012
 5362POPC   GL267466  43.059  37.172   5.942
 5362POPC   C1A67467  42.800  36.758   6.219
 5362POPC   D2A67468  42.749  36.579   6.635
 5362POPC   C3A67469  43.054  36.685   6.955
 5362POPC   C4A67470  42.978  36.787   7.400
 5362POPC   C1B67471  43.359  37.275   6.253
 5362POPC   C2B67472  43.407  37.086   6.618
 5362POPC   C3B67473  43.523  37.306   6.951
 5362POPC   C4B67474  43.400  36.969   7.198
 5363POPC   NC367475  37.561   3.801   5.071
 5363POPC   PO467476  37.863   3.273   5.365
 5363POPC   GL167477  37.670   3.371   5.756
 5363POPC   GL267478  37.953   3.402   5.907
 5363POPC   C1A67479  37.514   3.543   6.183
 5363POPC   D2A67480  37.403   3.337   6.609
 5363POPC   C3A67481  37.266   3.561   7.001
 5363POPC   C4A67482  37.310   3.546   7.490
 5363POPC   C1B67483  37.864   3.186   6.272
 5363POPC   C2B67484  37.949   3.282   6.686
 5363POPC   C3B67485  37.746   3.368   7.048
 5363POPC   C4B67486  37.683   3.772   7.221
 5364POPC   NC367487  36.052  36.390   5.257
 5364POPC   PO467488  35.713  35.864   5.595
 5364POPC   GL167489  36.088  35.825   5.880
 5364POPC   GL267490  36.268  36.143   6.020
 5364POPC   C1A67491  36.367  35.672   6.216
 5364POPC   D2A67492  36.416  35.724   6.656
 5364POPC   C3A67493  36.078  35.911   6.910
 5364POPC   C4A67494  36.194  36.002   7.329
 5364POPC   C1B67495  36.004  36.078   6.405
 5364POPC   C2B67496  35.927  36.382   6.760
 5364POPC   C3B67497  36.140  36.477   7.164
 5364POPC   C4B67498  36.051  36.422   7.646
 5365POPC   NC367499  34.601  27.191   5.121
 5365POPC   PO467500  34.471  26.570   5.261
 5365POPC   GL167501  34.524  26.833   5.643
 5365POPC   GL267502  34.238  26.980   5.764
 5365POPC   C1A67503  34.580  26.741   6.104
 5365POPC   D2A67504  34.813  26.650   6.494
 5365POPC   C3A67505  34.624  26.687   6.927
 5365POPC   C4A67506  34.846  26.733   7.278
 5365POPC   C1B67507  34.215  27.055   6.234
 5365POPC   C2B67508  34.561  27.087   6.530
 5365POPC   C3B67509  34.785  27.168   6.904
 5365POPC   C4B67510  34.457  27.148   7.203
 5366POPC   NC367511  35.846  15.353   5.555
 5366POPC   PO467512  36.403  15.105   5.187
 5366POPC   GL167513  36.374  15.008   5.663
 5366POPC   GL267514  36.034  14.926   5.815
 5366POPC   C1A67515  36.410  15.106   6.128
 5366POPC   D2A67516  36.356  15.312   6.563
 5366POPC   C3A67517  36.447  15.234   6.979
 5366POPC   C4A67518  36.069  15.173   7.231
 5366POPC   C1B67519  35.919  15.147   6.252
 5366POPC   C2B67520  35.900  15.110   6.722
 5366POPC   C3B67521  35.643  14.910   7.071
 5366POPC   C4B67522  35.655  15.073   7.501
 5367POPC   NC367523  22.835   5.768   5.194
 5367POPC   PO467524  23.304   6.155   5.367
 5367POPC   GL167525  23.237   5.992   5.768
 5367POPC   GL267526  23.041   5.698   5.675
 5367POPC   C1A67527  23.098   6.086   6.188
 5367POPC   D2A67528  23.086   5.835   6.546
 5367POPC   C3A67529  23.064   6.041   6.913
 5367POPC   C4A67530  22.960   6.138   7.295
 5367POPC   C1B67531  22.839   5.643   6.059
 5367POPC   C2B67532  22.612   5.718   6.428
 5367POPC   C3B67533  22.715   5.615   6.847
 5367POPC   C4B67534  22.655   5.743   7.240
 5368POPC   NC367535   6.518  41.847   5.651
 5368POPC   PO467536   7.077  42.084   5.390
 5368POPC   GL167537   7.013  41.803   5.777
 5368POPC   GL267538   7.046  41.417   5.740
 5368POPC   C1A67539   6.904  41.833   6.243
 5368POPC   D2A67540   6.713  41.976   6.663
 5368POPC   C3A67541   6.808  41.707   7.025
 5368POPC   C4A67542   6.946  41.724   7.478
 5368POPC   C1B67543   7.004  41.289   6.166
 5368POPC   C2B67544   6.895  41.397   6.593
 5368POPC   C3B67545   6.963  41.222   7.004
 5368POPC   C4B67546   6.556  41.220   7.148
 5369POPC   NC367547   7.545  42.190   5.459
 5369POPC   PO467548   7.205  42.799   5.451
 5369POPC   GL167549   7.310  42.510   5.769
 5369POPC   GL267550   7.679  42.556   5.792
 5369POPC   C1A67551   7.190  42.258   6.125
 5369POPC   D2A67552   7.029  42.355   6.515
 5369POPC   C3A67553   7.163  42.145   6.892
 5369POPC   C4A67554   7.289  42.325   7.264
 5369POPC   C1B67555   7.742  42.316   6.158
 5369POPC   C2B67556   7.541  42.190   6.520
 5369POPC   C3B67557   7.685  42.316   6.929
 5369POPC   C4B67558   7.774  42.197   7.336
 5370POPC   NC367559  14.162   0.561   5.418
 5370POPC   PO467560  14.712   0.818   5.602
 5370POPC   GL167561  14.609   0.383   5.795
 5370POPC   GL267562  14.234   0.209   5.776
 5370POPC   C1A67563  14.585   0.438   6.252
 5370POPC   D2A67564  14.435   0.678   6.615
 5370POPC   C3A67565  14.629   0.551   7.013
 5370POPC   C4A67566  14.518   0.735   7.419
 5370POPC   C1B67567  14.102   0.334   6.194
 5370POPC   C2B67568  14.289   0.199   6.614
 5370POPC   C3B67569  14.151   0.319   7.028
 5370POPC   C4B67570  14.076   0.420   7.458
 5371POPC   NC367571  41.317  32.463   5.131
 5371POPC   PO467572  41.768  32.067   5.343
 5371POPC   GL167573  41.685  31.981   5.822
 5371POPC   GL267574  41.372  32.006   5.941
 5371POPC   C1A67575  41.658  32.060   6.349
 5371POPC   D2A67576  41.624  32.356   6.702
 5371POPC   C3A67577  41.684  32.246   7.134
 5371POPC   C4A67578  41.749  32.320   7.566
 5371POPC   C1B67579  41.128  31.984   6.295
 5371POPC   C2B67580  40.985  32.162   6.656
 5371POPC   C3B67581  41.170  32.249   7.040
 5371POPC   C4B67582  41.258  32.238   7.469
 5372POPC   NC367583  15.127  10.297   5.370
 5372POPC   PO467584  15.621  10.791   5.273
 5372POPC   GL167585  15.417  10.648   5.688
 5372POPC   GL267586  15.043  10.605   5.797
 5372POPC   C1A67587  15.378  10.676   6.158
 5372POPC   D2A67588  15.430  10.349   6.495
 5372POPC   C3A67589  15.275  10.486   6.877
 5372POPC   C4A67590  15.391  10.571   7.284
 5372POPC   C1B67591  15.030  10.308   6.130
 5372POPC   C2B67592  14.933  10.240   6.571
 5372POPC   C3B67593  14.784  10.424   6.982
 5372POPC   C4B67594  14.947  10.775   7.179
 5373POPC   NC367595  23.878  37.849   5.020
 5373POPC   PO467596  23.503  38.341   5.376
 5373POPC   GL167597  23.435  38.279   5.791
 5373POPC   GL267598  23.739  38.461   5.865
 5373POPC   C1A67599  23.452  38.069   6.202
 5373POPC   D2A67600  23.320  37.929   6.622
 5373POPC   C3A67601  23.452  38.136   7.033
 5373POPC   C4A67602  23.592  38.229   7.462
 5373POPC   C1B67603  23.705  38.517   6.298
 5373POPC   C2B67604  23.809  38.376   6.711
 5373POPC   C3B67605  23.783  38.554   7.125
 5373POPC   C4B67606  23.707  38.795   7.500
 5374POPC   NC367607   1.548   3.576   5.645
 5374POPC   PO467608   2.271   3.365   5.510
 5374POPC   GL167609   2.069   3.384   5.858
 5374POPC   GL267610   1.978   3.722   5.872
 5374POPC   C1A67611   2.273   3.488   6.244
 5374POPC   D2A67612   2.531   3.390   6.565
 5374POPC   C3A67613   2.354   3.479   6.939
 5374POPC   C4A67614   2.148   3.742   7.188
 5374POPC   C1B67615   1.770   3.552   6.253
 5374POPC   C2B67616   1.905   3.425   6.646
 5374POPC   C3B67617   1.713   3.543   7.004
 5374POPC   C4B67618   1.674   3.903   7.224
 5375POPC   NC367619  31.464  18.173   5.364
 5375POPC   PO467620  31.273  18.805   5.363
 5375POPC   GL167621  31.376  18.513   5.753
 5375POPC   GL267622  31.690  18.313   5.801
 5375POPC   C1A67623  31.384  18.315   6.217
 5375POPC   D2A67624  31.498  18.026   6.587
 5375POPC   C3A67625  31.385  18.237   6.961
 5375POPC   C4A67626  31.182  18.620   6.997
 5375POPC   C1B67627  31.847  18.089   6.182
 5375POPC   C2B67628  31.969  18.292   6.578
 5375POPC   C3B67629  31.867  18.131   6.979
 5375POPC   C4B67630  31.728  18.255   7.408
 5376POPC   NC367631  41.726   8.499   5.648
 5376POPC   PO467632  41.753   7.815   5.454
 5376POPC   GL167633  41.445   7.933   5.810
 5376POPC   GL267634  41.264   8.287   5.840
 5376POPC   C1A67635  41.398   7.989   6.260
 5376POPC   D2A67636  41.502   8.155   6.668
 5376POPC   C3A67637  41.447   7.937   7.067
 5376POPC   C4A67638  41.643   8.016   7.475
 5376POPC   C1B67639  41.294   8.503   6.268
 5376POPC   C2B67640  41.420   8.665   6.699
 5376POPC   C3B67641  41.429   8.457   7.098
 5376POPC   C4B67642  41.207   8.282   7.427
 5377POPC   NC367643   7.100  31.115   5.405
 5377POPC   PO467644   7.691  31.402   5.318
 5377POPC   GL167645   7.466  31.371   5.737
 5377POPC   GL267646   7.232  31.610   5.636
 5377POPC   C1A67647   7.349  31.184   6.183
 5377POPC   D2A67648   7.165  31.189   6.609
 5377POPC   C3A67649   7.395  31.209   7.019
 5377POPC   C4A67650   7.676  31.253   7.387
 5377POPC   C1B67651   7.205  31.668   6.107
 5377POPC   C2B67652   7.409  31.640   6.517
 5377POPC   C3B67653   7.261  31.672   6.929
 5377POPC   C4B67654   7.189  31.943   7.256
 5378POPC   NC367655  40.175   4.045   5.201
 5378POPC   PO467656  39.766   4.576   5.476
 5378POPC   GL167657  39.965   4.417   5.859
 5378POPC   GL267658  39.670   4.264   5.936
 5378POPC   C1A67659  40.302   4.375   6.211
 5378POPC   D2A67660  40.399   4.367   6.676
 5378POPC   C3A67661  40.082   4.099   6.902
 5378POPC   C4A67662  40.192   3.794   7.233
 5378POPC   C1B67663  39.705   4.289   6.361
 5378POPC   C2B67664  39.547   4.196   6.778
 5378POPC   C3B67665  39.612   4.360   7.195
 5378POPC   C4B67666  39.729   4.406   7.627
 5379POPC   NC367667  38.727  11.124   5.589
 5379POPC   PO467668  39.320  11.281   5.327
 5379POPC   GL167669  39.321  11.357   5.771
 5379POPC   GL267670  39.083  11.632   5.722
 5379POPC   C1A67671  39.212  11.162   6.157
 5379POPC   D2A67672  39.039  11.101   6.556
 5379POPC   C3A67673  39.274  11.195   6.910
 5379POPC   C4A67674  39.059  11.236   7.232
 5379POPC   C1B67675  39.130  11.676   6.163
 5379POPC   C2B67676  39.256  11.580   6.557
 5379POPC   C3B67677  39.092  11.689   6.947
 5379POPC   C4B67678  39.248  11.715   7.343
 5380POPC   NC367679  43.776  10.107   5.398
 5380POPC   PO467680  43.801  10.753   5.414
 5380POPC   GL167681  43.715  10.510   5.790
 5380POPC   GL267682  44.022  10.361   5.772
 5380POPC   C1A67683  43.813  10.626   6.233
 5380POPC   D2A67684  44.134  10.722   6.560
 5380POPC   C3A67685  43.952  10.748   6.960
 5380POPC   C4A67686  43.637  10.549   7.128
 5380POPC   C1B67687  43.955  10.139   6.160
 5380POPC   C2B67688  43.845  10.228   6.614
 5380POPC   C3B67689  43.997  10.207   7.067
 5380POPC   C4B67690  43.974  10.100   7.530
 5381POPC   NC367691   5.903  26.372   5.351
 5381POPC   PO467692   6.270  25.789   5.359
 5381POPC   GL167693   5.938  25.947   5.684
 5381POPC   GL267694   5.705  25.671   5.843
 5381POPC   C1A67695   5.768  26.125   6.077
 5381POPC   D2A67696   5.931  26.074   6.496
 5381POPC   C3A67697   5.736  26.178   6.889
 5381POPC   C4A67698   5.874  26.030   7.297
 5381POPC   C1B67699   5.707  25.635   6.298
 5381POPC   C2B67700   5.703  25.659   6.743
 5381POPC   C3B67701   5.486  25.747   7.108
 5381POPC   C4B67702   5.448  25.631   7.543
 5382POPC   NC367703   1.496  30.780   5.255
 5382POPC   PO467704   0.838  30.452   5.508
 5382POPC   GL167705   1.270  30.578   5.684
 5382POPC   GL267706   1.650  30.498   5.653
 5382POPC   C1A67707   1.285  30.813   6.060
 5382POPC   D2A67708   0.967  30.802   6.394
 5382POPC   C3A67709   1.135  30.952   6.760
 5382POPC   C4A67710   1.101  30.835   7.198
 5382POPC   C1B67711   1.630  30.426   6.104
 5382POPC   C2B67712   1.484  30.596   6.517
 5382POPC   C3B67713   1.260  30.459   6.900
 5382POPC   C4B67714   1.380  30.444   7.350
 5383POPC   NC367715  24.733   9.766   5.562
 5383POPC   PO467716  24.063   9.735   5.433
 5383POPC   GL167717  24.324   9.636   5.825
 5383POPC   GL267718  24.336   9.993   5.861
 5383POPC   C1A67719  24.636   9.748   6.222
 5383POPC   D2A67720  24.797   9.964   6.616
 5383POPC   C3A67721  24.612   9.873   7.020
 5383POPC   C4A67722  24.319   9.638   7.273
 5383POPC   C1B67723  24.129   9.812   6.245
 5383POPC   C2B67724  23.961   9.979   6.595
 5383POPC   C3B67725  24.022   9.932   6.995
 5383POPC   C4B67726  24.114  10.122   7.371
 5384POPC   NC367727   4.992   3.138   5.345
 5384POPC   PO467728   4.896   3.758   5.427
 5384POPC   GL167729   4.920   3.484   5.839
 5384POPC   GL267730   4.953   3.097   5.858
 5384POPC   C1A67731   4.812   3.629   6.296
 5384POPC   D2A67732   5.040   3.574   6.697
 5384POPC   C3A67733   4.969   3.829   7.073
 5384POPC   C4A67734   5.071   3.694   7.468
 5384POPC   C1B67735   5.173   3.271   6.224
 5384POPC   C2B67736   5.257   3.104   6.614
 5384POPC   C3B67737   5.090   3.131   6.990
 5384POPC   C4B67738   5.338   3.048   7.345
 5385POPC   NC367739   1.045  13.490   5.427
 5385POPC   PO467740   1.703  13.821   5.464
 5385POPC   GL167741   1.432  13.534   5.774
 5385POPC   GL267742   1.074  13.614   5.915
 5385POPC   C1A67743   1.361  13.319   6.191
 5385POPC   D2A67744   1.370  13.517   6.585
 5385POPC   C3A67745   1.232  13.538   7.000
 5385POPC   C4A67746   1.488  13.856   7.170
 5385POPC   C1B67747   1.104  13.935   6.221
 5385POPC   C2B67748   1.303  14.038   6.589
 5385POPC   C3B67749   1.089  14.089   6.954
 5385POPC   C4B67750   0.981  13.900   7.333
 5386POPC   NC367751  37.078  39.040   5.470
 5386POPC   PO467752  36.982  39.637   5.102
 5386POPC   GL167753  36.835  39.526   5.639
 5386POPC   GL267754  36.818  39.199   5.864
 5386POPC   C1A67755  36.924  39.543   6.175
 5386POPC   D2A67756  36.772  39.305   6.569
 5386POPC   C3A67757  36.939  39.346   7.001
 5386POPC   C4A67758  36.841  39.448   7.456
 5386POPC   C1B67759  36.952  38.939   6.267
 5386POPC   C2B67760  37.202  38.984   6.671
 5386POPC   C3B67761  37.263  38.928   7.127
 5386POPC   C4B67762  37.063  38.994   7.516
 5387POPC   NC367763  15.284  29.010   5.213
 5387POPC   PO467764  14.864  29.509   5.264
 5387POPC   GL167765  15.105  29.347   5.652
 5387POPC   GL267766  15.265  29.008   5.720
 5387POPC   C1A67767  15.051  29.255   6.113
 5387POPC   D2A67768  15.067  29.471   6.510
 5387POPC   C3A67769  14.912  29.314   6.902
 5387POPC   C4A67770  14.987  29.501   7.334
 5387POPC   C1B67771  15.349  28.786   6.086
 5387POPC   C2B67772  15.252  28.929   6.489
 5387POPC   C3B67773  15.407  29.145   6.815
 5387POPC   C4B67774  15.212  29.043   7.196
 5388POPC   NC367775  37.339  20.455   5.691
 5388POPC   PO467776  37.765  21.004   5.589
 5388POPC   GL167777  37.570  20.902   5.908
 5388POPC   GL267778  37.247  20.971   5.862
 5388POPC   C1A67779  37.812  20.833   6.267
 5388POPC   D2A67780  38.156  20.860   6.551
 5388POPC   C3A67781  38.090  20.515   6.841
 5388POPC   C4A67782  37.910  20.549   7.240
 5388POPC   C1B67783  37.293  20.717   6.297
 5388POPC   C2B67784  37.570  20.641   6.683
 5388POPC   C3B67785  37.460  20.732   7.100
 5388POPC   C4B67786  37.112  20.548   7.238
 5389POPC   NC367787  27.842   3.922   5.502
 5389POPC   PO467788  27.370   4.383   5.288
 5389POPC   GL167789  27.544   4.309   5.675
 5389POPC   GL267790  27.667   4.616   5.764
 5389POPC   C1A67791  27.643   4.201   6.111
 5389POPC   D2A67792  27.600   4.016   6.502
 5389POPC   C3A67793  27.727   4.168   6.884
 5389POPC   C4A67794  27.810   4.059   7.283
 5389POPC   C1B67795  27.415   4.676   6.142
 5389POPC   C2B67796  27.539   4.554   6.574
 5389POPC   C3B67797  27.364   4.496   6.996
 5389POPC   C4B67798  27.403   4.757   7.402
 5390POPC   NC367799  10.067  18.722   5.365
 5390POPC   PO467800   9.742  19.270   5.677
 5390POPC   GL167801   9.985  19.142   5.963
 5390POPC   GL267802   9.974  18.801   5.870
 5390POPC   C1A67803  10.073  19.277   6.357
 5390POPC   D2A67804   9.775  19.207   6.681
 5390POPC   C3A67805   9.837  19.002   7.090
 5390POPC   C4A67806  10.049  19.213   7.431
 5390POPC   C1B67807   9.771  18.841   6.301
 5390POPC   C2B67808   9.471  18.801   6.622
 5390POPC   C3B67809   9.379  18.793   7.023
 5390POPC   C4B67810   9.466  18.681   7.424
 5391POPC   NC367811  12.883  34.920   5.649
 5391POPC   PO467812  12.855  35.485   5.409
 5391POPC   GL167813  12.837  35.545   5.813
 5391POPC   GL267814  12.605  35.325   5.859
 5391POPC   C1A67815  12.794  35.809   6.187
 5391POPC   D2A67816  12.488  35.665   6.481
 5391POPC   C3A67817  12.682  35.402   6.796
 5391POPC   C4A67818  12.767  35.490   7.237
 5391POPC   C1B67819  12.839  35.280   6.262
 5391POPC   C2B67820  13.132  35.172   6.604
 5391POPC   C3B67821  13.057  35.103   7.055
 5391POPC   C4B67822  13.037  35.146   7.546
 5392POPC   NC367823  25.529  23.355   5.531
 5392POPC   PO467824  25.345  23.984   5.468
 5392POPC   GL167825  25.392  23.740   5.867
 5392POPC   GL267826  25.063  23.645   5.956
 5392POPC   C1A67827  25.425  23.488   6.282
 5392POPC   D2A67828  25.052  23.401   6.563
 5392POPC   C3A67829  25.105  23.542   6.971
 5392POPC   C4A67830  25.429  23.669   7.241
 5392POPC   C1B67831  25.094  23.895   6.336
 5392POPC   C2B67832  25.115  24.182   6.717
 5392POPC   C3B67833  25.128  24.068   7.132
 5392POPC   C4B67834  24.928  23.805   7.433
 5393POPC   NC367835  39.770  26.705   5.077
 5393POPC   PO467836  40.352  26.755   5.483
 5393POPC   GL167837  40.213  26.652   5.901
 5393POPC   GL267838  39.948  26.875   5.817
 5393POPC   C1A67839  39.897  26.699   6.284
 5393POPC   D2A67840  39.706  26.722   6.672
 5393POPC   C3A67841  39.976  26.712   7.036
 5393POPC   C4A67842  40.246  26.693   7.402
 5393POPC   C1B67843  40.197  27.090   6.175
 5393POPC   C2B67844  40.151  27.030   6.640
 5393POPC   C3B67845  40.264  27.121   7.081
 5393POPC   C4B67846  40.232  27.213   7.533
 5394POPC   NC367847  41.301  37.548   5.459
 5394POPC   PO467848  41.612  38.119   5.408
 5394POPC   GL167849  41.667  37.807   5.809
 5394POPC   GL267850  41.342  37.724   5.950
 5394POPC   C1A67851  41.698  37.713   6.304
 5394POPC   D2A67852  41.320  37.817   6.580
 5394POPC   C3A67853  41.422  37.935   7.000
 5394POPC   C4A67854  41.657  37.757   7.336
 5394POPC   C1B67855  41.307  37.374   6.284
 5394POPC   C2B67856  41.488  37.292   6.690
 5394POPC   C3B67857  41.472  37.300   7.142
 5394POPC   C4B67858  41.506  37.336   7.604
 5395POPC   NC367859   3.299  19.289   5.042
 5395POPC   PO467860   3.783  18.906   5.270
 5395POPC   GL167861   3.668  19.087   5.736
 5395POPC   GL267862   3.348  18.950   5.913
 5395POPC   C1A67863   3.645  19.232   6.198
 5395POPC   D2A67864   3.861  19.273   6.602
 5395POPC   C3A67865   3.675  19.166   6.999
 5395POPC   C4A67866   3.397  19.203   7.346
 5395POPC   C1B67867   3.410  18.765   6.280
 5395POPC   C2B67868   3.367  18.925   6.667
 5395POPC   C3B67869   3.419  18.733   7.058
 5395POPC   C4B67870   3.141  18.723   7.372
 5396POPC   NC367871  33.389  22.419   5.434
 5396POPC   PO467872  32.765  22.029   5.323
 5396POPC   GL167873  32.987  22.162   5.701
 5396POPC   GL267874  33.246  21.945   5.784
 5396POPC   C1A67875  32.939  22.113   6.168
 5396POPC   D2A67876  32.834  21.992   6.619
 5396POPC   C3A67877  33.060  22.262   6.928
 5396POPC   C4A67878  32.891  22.510   7.255
 5396POPC   C1B67879  33.270  21.715   6.201
 5396POPC   C2B67880  33.185  21.632   6.669
 5396POPC   C3B67881  33.250  21.816   7.120
 5396POPC   C4B67882  33.388  21.942   7.586
 5397POPC   NC367883   2.616  18.323   4.993
 5397POPC   PO467884   2.927  18.660   5.516
 5397POPC   GL167885   2.878  18.644   5.925
 5397POPC   GL267886   2.503  18.604   6.013
 5397POPC   C1A67887   2.899  18.634   6.341
 5397POPC   D2A67888   2.590  18.514   6.622
 5397POPC   C3A67889   2.800  18.570   6.985
 5397POPC   C4A67890   2.734  18.400   7.398
 5397POPC   C1B67891   2.673  18.191   6.181
 5397POPC   C2B67892   2.535  17.957   6.552
 5397POPC   C3B67893   2.618  18.073   6.983
 5397POPC   C4B67894   2.787  17.904   7.361
 5398POPC   NC367895  41.500  29.403   5.203
 5398POPC   PO467896  41.893  28.829   5.475
 5398POPC   GL167897  41.705  29.159   5.745
 5398POPC   GL267898  41.466  29.444   5.735
 5398POPC   C1A67899  41.699  29.107   6.184
 5398POPC   D2A67900  41.534  29.016   6.585
 5398POPC   C3A67901  41.863  28.925   6.848
 5398POPC   C4A67902  41.733  28.897   7.261
 5398POPC   C1B67903  41.450  29.560   6.198
 5398POPC   C2B67904  41.744  29.490   6.581
 5398POPC   C3B67905  41.647  29.357   7.014
 5398POPC   C4B67906  41.786  29.375   7.451
 5399POPC   NC367907  29.418  40.196   5.388
 5399POPC   PO467908  29.229  39.577   5.216
 5399POPC   GL167909  29.239  39.801   5.675
 5399POPC   GL267910  29.015  40.127   5.727
 5399POPC   C1A67911  29.361  40.002   6.113
 5399POPC   D2A67912  29.581  40.148   6.505
 5399POPC   C3A67913  29.413  39.998   6.896
 5399POPC   C4A67914  29.273  39.886   7.292
 5399POPC   C1B67915  28.881  40.211   6.162
 5399POPC   C2B67916  28.931  39.979   6.578
 5399POPC   C3B67917  28.913  40.106   7.023
 5399POPC   C4B67918  28.944  40.224   7.501
 5400POPC   NC367919  34.016  27.384   5.436
 5400POPC   PO467920  33.881  26.722   5.453
 5400POPC   GL167921  33.782  26.807   5.851
 5400POPC   GL267922  33.647  27.142   5.741
 5400POPC   C1A67923  33.997  26.612   6.217
 5400POPC   D2A67924  34.252  26.668   6.587
 5400POPC   C3A67925  34.074  26.766   7.009
 5400POPC   C4A67926  34.010  26.541   7.400
 5400POPC   C1B67927  33.707  27.138   6.208
 5400POPC   C2B67928  33.795  26.937   6.576
 5400POPC   C3B67929  33.551  26.966   6.915
 5400POPC   C4B67930  33.576  27.162   7.280
 5401POPC   NC367931   6.464  36.622   5.419
 5401POPC   PO467932   6.712  35.988   5.200
 5401POPC   GL167933   6.529  36.161   5.618
 5401POPC   GL267934   6.187  36.046   5.649
 5401POPC   C1A67935   6.539  36.260   6.088
 5401POPC   D2A67936   6.696  36.205   6.506
 5401POPC   C3A67937   6.490  36.358   6.872
 5401POPC   C4A67938   6.633  36.203   7.274
 5401POPC   C1B67939   6.154  35.878   6.081
 5401POPC   C2B67940   6.233  35.957   6.545
 5401POPC   C3B67941   6.444  35.841   6.973
 5401POPC   C4B67942   6.596  35.716   7.423
 5402POPC   NC367943  37.019  32.677   5.574
 5402POPC   PO467944  37.006  33.342   5.309
 5402POPC   GL167945  36.752  33.166   5.741
 5402POPC   GL267946  36.587  32.847   5.820
 5402POPC   C1A67947  36.779  33.047   6.245
 5402POPC   D2A67948  36.756  33.165   6.699
 5402POPC   C3A67949  37.162  33.202   6.936
 5402POPC   C4A67950  37.284  33.113   7.358
 5402POPC   C1B67951  36.320  32.806   6.228
 5402POPC   C2B67952  36.351  32.719   6.685
 5402POPC   C3B67953  36.663  32.765   7.035
 5402POPC   C4B67954  36.744  33.170   7.232
 5403POPC   NC367955  31.619  33.317   5.707
 5403POPC   PO467956  31.346  33.963   5.511
 5403POPC   GL167957  31.377  33.725   5.873
 5403POPC   GL267958  31.142  33.463   5.900
 5403POPC   C1A67959  31.547  33.826   6.263
 5403POPC   D2A67960  31.393  34.069   6.597
 5403POPC   C3A67961  31.525  33.916   6.999
 5403POPC   C4A67962  31.580  34.102   7.423
 5403POPC   C1B67963  31.322  33.360   6.297
 5403POPC   C2B67964  31.252  33.571   6.653
 5403POPC   C3B67965  31.109  33.487   7.017
 5403POPC   C4B67966  31.359  33.418   7.340
 5404POPC   NC367967  13.452   8.719   5.545
 5404POPC   PO467968  13.191   9.299   5.318
 5404POPC   GL167969  13.316   9.156   5.796
 5404POPC   GL267970  13.661   9.100   5.828
 5404POPC   C1A67971  13.416   8.927   6.248
 5404POPC   D2A67972  13.312   8.650   6.631
 5404POPC   C3A67973  13.421   8.770   7.056
 5404POPC   C4A67974  13.794   8.612   7.212
 5404POPC   C1B67975  13.976   9.071   6.142
 5404POPC   C2B67976  13.952   8.860   6.550
 5404POPC   C3B67977  13.854   9.054   6.942
 5404POPC   C4B67978  13.699   9.122   7.380
 5405POPC   NC367979   1.850  17.768   5.316
 5405POPC   PO467980   2.327  17.297   5.465
 5405POPC   GL167981   2.110  17.617   5.764
 5405POPC   GL267982   1.793  17.846   5.824
 5405POPC   C1A67983   1.967  17.562   6.197
 5405POPC   D2A67984   1.763  17.423   6.576
 5405POPC   C3A67985   2.066  17.481   6.910
 5405POPC   C4A67986   2.297  17.737   7.193
 5405POPC   C1B67987   1.701  18.046   6.216
 5405POPC   C2B67988   1.481  17.965   6.595
 5405POPC   C3B67989   1.588  17.755   6.932
 5405POPC   C4B67990   1.766  17.715   7.279
 5406POPC   NC367991  27.275  37.692   5.318
 5406POPC   PO467992  27.980  37.476   5.490
 5406POPC   GL167993  27.793  37.534   5.877
 5406POPC   GL267994  27.540  37.782   5.824
 5406POPC   C1A67995  27.795  37.684   6.303
 5406POPC   D2A67996  27.478  37.737   6.634
 5406POPC   C3A67997  27.598  37.580   7.046
 5406POPC   C4A67998  27.669  37.759   7.436
 5406POPC   C1B67999  27.270  37.983   6.132
 5406POPC   C2B68000  27.061  38.065   6.508
 5406POPC   C3B68001  27.020  37.881   6.888
 5406POPC   C4B68002  27.192  37.840   7.279
 5407POPC   NC368003  13.147   5.910   5.318
 5407POPC   PO468004  12.543   5.587   5.433
 5407POPC   GL168005  12.732   5.911   5.724
 5407POPC   GL268006  13.097   5.899   5.840
 5407POPC   C1A68007  12.693   6.041   6.168
 5407POPC   D2A68008  12.608   5.867   6.587
 5407POPC   C3A68009  12.702   6.077   6.973
 5407POPC   C4A68010  12.958   6.105   7.356
 5407POPC   C1B68011  13.206   5.543   6.125
 5407POPC   C2B68012  13.137   5.430   6.564
 5407POPC   C3B68013  13.051   5.710   6.921
 5407POPC   C4B68014  13.186   5.653   7.342
 5408POPC   NC368015   3.065  41.771   5.356
 5408POPC   PO468016   2.718  41.188   5.274
 5408POPC   GL168017   2.609  41.436   5.689
 5408POPC   GL268018   2.946  41.504   5.776
 5408POPC   C1A68019   2.652  41.428   6.188
 5408POPC   D2A68020   2.461  41.304   6.574
 5408POPC   C3A68021   2.691  41.385   6.951
 5408POPC   C4A68022   2.735  41.785   7.198
 5408POPC   C1B68023   3.168  41.529   6.168
 5408POPC   C2B68024   3.171  41.812   6.509
 5408POPC   C3B68025   3.232  41.851   6.948
 5408POPC   C4B68026   3.131  41.495   7.204
 5409POPC   NC368027   2.624  35.464   5.540
 5409POPC   PO468028   2.895  34.994   5.236
 5409POPC   GL168029   2.992  35.137   5.699
 5409POPC   GL268030   3.162  35.457   5.686
 5409POPC   C1A68031   2.847  35.188   6.148
 5409POPC   D2A68032   2.613  35.487   6.436
 5409POPC   C3A68033   2.455  35.237   6.778
 5409POPC   C4A68034   2.670  35.083   7.162
 5409POPC   C1B68035   3.174  35.570   6.139
 5409POPC   C2B68036   3.114  35.377   6.557
 5409POPC   C3B68037   2.885  35.486   6.905
 5409POPC   C4B68038   3.052  35.687   7.228
 5410POPC   NC368039   2.311  43.119   5.381
 5410POPC   PO468040   1.717  43.391   5.249
 5410POPC   GL168041   1.802  43.431   5.744
 5410POPC   GL268042   2.146  43.321   5.805
 5410POPC   C1A68043   1.886  43.374   6.246
 5410POPC   D2A68044   2.029  43.096   6.599
 5410POPC   C3A68045   1.850  43.078   6.992
 5410POPC   C4A68046   1.922  42.847   7.401
 5410POPC   C1B68047   2.286  43.074   6.158
 5410POPC   C2B68048   2.447  43.389   6.472
 5410POPC   C3B68049   2.285  43.457   6.890
 5410POPC   C4B68050   2.199  43.270   7.313
 5411POPC   NC368051   3.979  42.755   5.391
 5411POPC   PO468052   4.541  43.157   5.572
 5411POPC   GL168053   4.309  43.094   5.938
 5411POPC   GL268054   3.984  42.985   5.846
 5411POPC   C1A68055   4.237  43.194   6.371
 5411POPC   D2A68056   4.070  43.166   6.771
 5411POPC   C3A68057   4.361  43.151   7.105
 5411POPC   C4A68058   4.308  43.284   7.546
 5411POPC   C1B68059   4.029  42.734   6.216
 5411POPC   C2B68060   3.865  42.702   6.647
 5411POPC   C3B68061   3.925  42.766   7.077
 5411POPC   C4B68062   4.170  42.783   7.448
 5412POPC   NC368063  25.088   2.304   5.234
 5412POPC   PO468064  25.664   2.083   5.440
 5412POPC   GL168065  25.453   2.313   5.787
 5412POPC   GL268066  25.064   2.305   5.760
 5412POPC   C1A68067  25.488   2.450   6.240
 5412POPC   D2A68068  25.257   2.229   6.570
 5412POPC   C3A68069  25.428   2.142   6.985
 5412POPC   C4A68070  25.519   1.800   7.302
 5412POPC   C1B68071  24.726   2.349   6.090
 5412POPC   C2B68072  24.762   2.416   6.566
 5412POPC   C3B68073  24.885   2.214   6.978
 5412POPC   C4B68074  24.854   2.053   7.447
 5413POPC   NC368075  34.972   2.813   5.294
 5413POPC   PO468076  35.680   2.365   5.465
 5413POPC   GL168077  35.538   2.504   5.900
 5413POPC   GL268078  35.165   2.559   6.006
 5413POPC   C1A68079  35.552   2.828   6.216
 5413POPC   D2A68080  35.335   2.917   6.595
 5413POPC   C3A68081  35.566   2.990   6.963
 5413POPC   C4A68082  35.405   3.029   7.348
 5413POPC   C1B68083  35.047   3.005   6.176
 5413POPC   C2B68084  34.960   3.256   6.591
 5413POPC   C3B68085  34.975   3.039   7.048
 5413POPC   C4B68086  34.910   2.990   7.548
 5414POPC   NC368087  11.926  16.051   5.152
 5414POPC   PO468088  11.268  16.123   5.310
 5414POPC   GL168089  11.112  15.984   5.729
 5414POPC   GL268090  11.176  16.287   5.862
 5414POPC   C1A68091  11.241  15.900   6.193
 5414POPC   D2A68092  11.216  15.655   6.617
 5414POPC   C3A68093  11.525  15.614   6.940
 5414POPC   C4A68094  11.617  15.927   7.258
 5414POPC   C1B68095  10.951  16.360   6.228
 5414POPC   C2B68096  11.117  16.216   6.580
 5414POPC   C3B68097  11.287  16.089   6.914
 5414POPC   C4B68098  11.117  15.984   7.274
 5415POPC   NC368099   2.236  15.956   5.452
 5415POPC   PO468100   1.666  15.539   5.477
 5415POPC   GL168101   1.838  15.806   5.809
 5415POPC   GL268102   2.144  15.691   5.907
 5415POPC   C1A68103   1.932  16.100   6.165
 5415POPC   D2A68104   2.291  16.159   6.491
 5415POPC   C3A68105   2.234  16.116   6.931
 5415POPC   C4A68106   1.866  16.164   7.185
 5415POPC   C1B68107   2.077  15.664   6.364
 5415POPC   C2B68108   1.867  15.879   6.650
 5415POPC   C3B68109   1.621  15.783   6.948
 5415POPC   C4B68110   1.926  15.669   7.259
 5416POPC   NC368111  43.161  18.217   5.218
 5416POPC   PO468112  42.595  18.324   5.400
 5416POPC   GL168113  42.860  18.253   5.754
 5416POPC   GL268114  43.223  18.209   5.737
 5416POPC   C1A68115  43.018  18.448   6.141
 5416POPC   D2A68116  42.919  18.275   6.527
 5416POPC   C3A68117  43.107  18.292   6.928
 5416POPC   C4A68118  42.847  18.149   7.279
 5416POPC   C1B68119  43.118  17.950   6.123
 5416POPC   C2B68120  43.278  17.920   6.552
 5416POPC   C3B68121  43.476  17.922   6.955
 5416POPC   C4B68122  43.399  18.163   7.325
 5417POPC   NC368123   3.602  43.664   5.214
 5417POPC   PO468124   3.579  42.996   5.350
 5417POPC   GL168125   3.477  43.106   5.762
 5417POPC   GL268126   3.205  42.903   5.800
 5417POPC   C1A68127   3.587  43.009   6.190
 5417POPC   D2A68128   3.612  43.257   6.535
 5417POPC   C3A68129   3.580  43.170   6.967
 5417POPC   C4A68130   3.889  43.256   7.279
 5417POPC   C1B68131   3.158  42.736   6.222
 5417POPC   C2B68132   3.364  42.751   6.619
 5417POPC   C3B68133   3.377  42.705   7.067
 5417POPC   C4B68134   3.088  42.915   7.311
 5418POPC   NC368135  28.096  22.969   5.480
 5418POPC   PO468136  28.645  22.637   5.422
 5418POPC   GL168137  28.473  22.682   5.806
 5418POPC   GL268138  28.339  23.026   5.935
 5418POPC   C1A68139  28.651  22.712   6.210
 5418POPC   D2A68140  28.435  22.756   6.585
 5418POPC   C3A68141  28.595  22.814   6.995
 5418POPC   C4A68142  28.456  23.178   7.254
 5418POPC   C1B68143  28.088  22.691   6.151
 5418POPC   C2B68144  28.027  22.458   6.553
 5418POPC   C3B68145  28.091  22.684   6.983
 5418POPC   C4B68146  28.264  22.737   7.424
 5419POPC   NC368147  20.772  34.727   5.321
 5419POPC   PO468148  20.160  34.473   5.349
 5419POPC   GL168149  20.417  34.671   5.693
 5419POPC   GL268150  20.702  34.423   5.745
 5419POPC   C1A68151  20.611  34.813   6.104
 5419POPC   D2A68152  20.823  34.630   6.455
 5419POPC   C3A68153  20.746  34.812   6.849
 5419POPC   C4A68154  20.632  34.935   7.218
 5419POPC   C1B68155  20.365  34.348   6.085
 5419POPC   C2B68156  20.357  34.403   6.541
 5419POPC   C3B68157  20.328  34.547   6.979
 5419POPC   C4B68158  20.233  34.275   7.311
 5420POPC   NC368159   0.292   5.855   5.105
 5420POPC   PO468160   0.534   5.631   5.656
 5420POPC   GL168161   0.338   6.003   5.744
 5420POPC   GL268162   0.552   6.323   5.767
 5420POPC   C1A68163   0.139   5.969   6.134
 5420POPC   D2A68164   0.077   5.852   6.541
 5420POPC   C3A68165   0.369   5.638   6.754
 5420POPC   C4A68166   0.338   5.848   7.120
 5420POPC   C1B68167   0.592   6.340   6.225
 5420POPC   C2B68168   0.555   6.126   6.634
 5420POPC   C3B68169   0.623   6.245   7.067
 5420POPC   C4B68170   0.724   5.962   7.473
 5421POPC   NC368171  20.488  44.273   5.337
 5421POPC   PO468172  20.236  44.917   5.375
 5421POPC   GL168173  20.448  44.646   5.705
 5421POPC   GL268174  20.322  44.310   5.811
 5421POPC   C1A68175  20.588  44.640   6.141
 5421POPC   D2A68176  20.624  44.926   6.475
 5421POPC   C3A68177  20.802  44.776   6.837
 5421POPC   C4A68178  20.647  44.860   7.235
 5421POPC   C1B68179  20.149  44.379   6.209
 5421POPC   C2B68180  20.201  44.589   6.578
 5421POPC   C3B68181  20.386  44.470   6.932
 5421POPC   C4B68182  20.213  44.382   7.310
 5422POPC   NC368183  37.760  38.496   5.346
 5422POPC   PO468184  37.167  38.118   5.470
 5422POPC   GL168185  37.539  38.334   5.773
 5422POPC   GL268186  37.943  38.297   5.765
 5422POPC   C1A68187  37.642  38.683   6.102
 5422POPC   D2A68188  37.568  38.548   6.539
 5422POPC   C3A68189  37.727  38.700   6.944
 5422POPC   C4A68190  37.788  38.617   7.383
 5422POPC   C1B68191  37.876  38.257   6.199
 5422POPC   C2B68192  37.999  38.227   6.603
 5422POPC   C3B68193  37.731  38.184   6.908
 5422POPC   C4B68194  37.849  38.118   7.267
 5423POPC   NC368195  13.947  33.679   5.425
 5423POPC   PO468196  13.315  33.976   5.421
 5423POPC   GL168197  13.592  33.909   5.767
 5423POPC   GL268198  13.550  33.588   5.737
 5423POPC   C1A68199  13.711  33.751   6.191
 5423POPC   D2A68200  13.767  33.952   6.594
 5423POPC   C3A68201  13.594  33.908   6.989
 5423POPC   C4A68202  13.634  33.941   7.420
 5423POPC   C1B68203  13.379  33.368   6.091
 5423POPC   C2B68204  13.413  33.418   6.542
 5423POPC   C3B68205  13.423  33.413   6.998
 5423POPC   C4B68206  13.849  33.514   7.196
 5424POPC   NC368207  29.602  16.059   5.338
 5424POPC   PO468208  28.983  15.739   5.475
 5424POPC   GL168209  29.289  15.959   5.755
 5424POPC   GL268210  29.405  15.602   5.805
 5424POPC   C1A68211  29.279  16.221   6.175
 5424POPC   D2A68212  29.143  16.066   6.602
 5424POPC   C3A68213  29.247  16.247   7.026
 5424POPC   C4A68214  29.494  16.133   7.405
 5424POPC   C1B68215  29.106  15.743   6.173
 5424POPC   C2B68216  28.847  15.629   6.522
 5424POPC   C3B68217  29.007  15.696   6.947
 5424POPC   C4B68218  28.860  15.990   7.256
 5425POPC   NC368219   8.574  40.908   5.326
 5425POPC   PO468220   7.921  40.768   5.267
 5425POPC   GL168221   8.199  40.689   5.618
 5425POPC   GL268222   8.239  41.018   5.747
 5425POPC   C1A68223   8.233  40.606   6.072
 5425POPC   D2A68224   8.146  40.827   6.464
 5425POPC   C3A68225   8.262  40.662   6.856
 5425POPC   C4A68226   8.201  40.667   7.264
 5425POPC   C1B68227   8.514  41.054   6.140
 5425POPC   C2B68228   8.445  41.203   6.606
 5425POPC   C3B68229   8.368  41.108   7.071
 5425POPC   C4B68230   8.394  41.033   7.579
 5426POPC   NC368231  38.818  19.994   5.399
 5426POPC   PO468232  39.437  19.723   5.537
 5426POPC   GL168233  39.093  19.795   5.761
 5426POPC   GL268234  39.172  20.138   5.795
 5426POPC   C1A68235  38.931  19.671   6.121
 5426POPC   D2A68236  39.178  19.691   6.445
 5426POPC   C3A68237  39.055  19.755   6.866
 5426POPC   C4A68238  39.286  19.503   7.161
 5426POPC   C1B68239  39.294  20.165   6.259
 5426POPC   C2B68240  39.466  20.025   6.679
 5426POPC   C3B68241  39.496  20.143   7.077
 5426POPC   C4B68242  39.160  20.005   7.298
 5427POPC   NC368243  40.479  33.000   5.218
 5427POPC   PO468244  40.872  32.513   5.265
 5427POPC   GL168245  40.641  32.700   5.725
 5427POPC   GL268246  40.516  33.057   5.743
 5427POPC   C1A68247  40.862  32.937   6.121
 5427POPC   D2A68248  41.147  33.090   6.438
 5427POPC   C3A68249  40.950  33.022   6.836
 5427POPC   C4A68250  41.085  33.146   7.215
 5427POPC   C1B68251  40.378  33.011   6.152
 5427POPC   C2B68252  40.415  33.108   6.570
 5427POPC   C3B68253  40.432  32.952   6.961
 5427POPC   C4B68254  40.606  33.057   7.348
 5428POPC   NC368255  19.061  44.964   5.452
 5428POPC   PO468256  19.257  44.283   5.549
 5428POPC   GL168257  19.225  44.515   5.900
 5428POPC   GL268258  18.910  44.653   5.870
 5428POPC   C1A68259  19.159  44.451   6.352
 5428POPC   D2A68260  19.275  44.294   6.749
 5428POPC   C3A68261  19.345  44.611   7.092
 5428POPC   C4A68262  19.205  44.858   7.498
 5428POPC   C1B68263  19.065  44.950   6.201
 5428POPC   C2B68264  19.187  44.966   6.647
 5428POPC   C3B68265  18.953  44.952   7.030
 5428POPC   C4B68266  18.863   0.196   7.401
 5429POPC   NC368267   8.745  10.878   5.468
 5429POPC   PO468268   8.988  10.119   5.499
 5429POPC   GL168269   8.839  10.364   5.825
 5429POPC   GL268270   9.086  10.642   5.805
 5429POPC   C1A68271   8.936  10.225   6.263
 5429POPC   D2A68272   9.249  10.276   6.611
 5429POPC   C3A68273   9.047  10.229   7.005
 5429POPC   C4A68274   8.689  10.367   7.237
 5429POPC   C1B68275   8.855  10.723   6.199
 5429POPC   C2B68276   8.833  10.584   6.645
 5429POPC   C3B68277   8.957  10.745   7.037
 5429POPC   C4B68278   9.192  10.978   7.333
 5430POPC   NC368279  22.370  21.091   5.551
 5430POPC   PO468280  22.076  21.704   5.448
 5430POPC   GL168281  22.147  21.518   5.814
 5430POPC   GL268282  22.427  21.717   5.855
 5430POPC   C1A68283  21.918  21.391   6.201
 5430POPC   D2A68284  22.008  21.490   6.629
 5430POPC   C3A68285  21.928  21.217   6.956
 5430POPC   C4A68286  21.811  21.369   7.360
 5430POPC   C1B68287  22.377  21.621   6.278
 5430POPC   C2B68288  22.506  21.448   6.667
 5430POPC   C3B68289  22.336  21.530   7.090
 5430POPC   C4B68290  22.435  21.504   7.542
 5431POPC   NC368291  37.365  29.859   5.149
 5431POPC   PO468292  37.897  30.228   5.474
 5431POPC   GL168293  37.725  29.946   5.816
 5431POPC   GL268294  37.772  29.625   5.910
 5431POPC   C1A68295  37.584  30.016   6.263
 5431POPC   D2A68296  37.882  30.159   6.621
 5431POPC   C3A68297  37.781  30.014   7.042
 5431POPC   C4A68298  37.353  30.034   7.196
 5431POPC   C1B68299  38.049  29.821   6.208
 5431POPC   C2B68300  38.225  29.744   6.600
 5431POPC   C3B68301  38.144  29.560   7.007
 5431POPC   C4B68302  37.839  29.598   7.350
 5432POPC   NC368303  36.498  43.104   5.214
 5432POPC   PO468304  37.186  43.097   5.337
 5432POPC   GL168305  37.139  43.175   5.781
 5432POPC   GL268306  37.186  42.863   5.906
 5432POPC   C1A68307  37.053  43.217   6.236
 5432POPC   D2A68308  37.038  43.073   6.660
 5432POPC   C3A68309  36.637  43.197   6.872
 5432POPC   C4A68310  36.641  43.369   7.295
 5432POPC   C1B68311  37.458  42.885   6.292
 5432POPC   C2B68312  37.491  42.736   6.714
 5432POPC   C3B68313  37.413  43.001   7.024
 5432POPC   C4B68314  37.013  43.065   7.177
 5433POPC   NC368315   2.096   7.780   5.508
 5433POPC   PO468316   1.717   7.257   5.307
 5433POPC   GL168317   1.900   7.199   5.718
 5433POPC   GL268318   2.044   7.480   5.926
 5433POPC   C1A68319   1.770   7.092   6.164
 5433POPC   D2A68320   1.657   7.073   6.631
 5433POPC   C3A68321   1.850   7.215   7.032
 5433POPC   C4A68322   2.151   7.354   7.365
 5433POPC   C1B68323   1.773   7.577   6.318
 5433POPC   C2B68324   1.940   7.647   6.754
 5433POPC   C3B68325   1.948   7.817   7.188
 5433POPC   C4B68326   2.157   7.809   7.617
 5434POPC   NC368327  23.828  33.354   5.446
 5434POPC   PO468328  23.456  32.875   5.719
 5434POPC   GL168329  23.870  32.871   5.876
 5434POPC   GL268330  24.111  33.145   5.814
 5434POPC   C1A68331  23.868  32.862   6.319
 5434POPC   D2A68332  23.634  32.703   6.663
 5434POPC   C3A68333  23.581  33.017   6.977
 5434POPC   C4A68334  23.709  32.978   7.402
 5434POPC   C1B68335  24.034  33.318   6.204
 5434POPC   C2B68336  23.950  33.299   6.667
 5434POPC   C3B68337  24.091  33.135   7.053
 5434POPC   C4B68338  24.133  33.284   7.460
 5435POPC   NC368339   9.921  32.463   5.418
 5435POPC   PO468340  10.454  32.722   5.306
 5435POPC   GL168341  10.502  32.722   5.789
 5435POPC   GL268342  10.162  32.597   5.899
 5435POPC   C1A68343  10.647  33.015   6.180
 5435POPC   D2A68344  10.532  33.295   6.543
 5435POPC   C3A68345  10.543  33.154   6.971
 5435POPC   C4A68346  10.498  33.144   7.419
 5435POPC   C1B68347  10.423  32.564   6.287
 5435POPC   C2B68348  10.452  32.672   6.731
 5435POPC   C3B68349  10.431  32.655   7.162
 5435POPC   C4B68350  10.190  32.534   7.545
 5436POPC   NC368351   9.353   0.337   5.626
 5436POPC   PO468352   9.928   0.361   5.359
 5436POPC   GL168353   9.835   0.342   5.818
 5436POPC   GL268354  10.100   0.460   5.908
 5436POPC   C1A68355   9.642   0.278   6.268
 5436POPC   D2A68356   9.510   0.222   6.704
 5436POPC   C3A68357   9.640   0.304   7.097
 5436POPC   C4A68358   9.490   0.599   7.367
 5436POPC   C1B68359  10.167   0.296   6.276
 5436POPC   C2B68360  10.018   0.124   6.620
 5436POPC   C3B68361  10.143   0.157   7.019
 5436POPC   C4B68362   9.980  44.966   7.361
 5437POPC   NC368363  24.173   4.173   5.167
 5437POPC   PO468364  23.553   4.507   5.318
 5437POPC   GL168365  23.668   4.302   5.686
 5437POPC   GL268366  23.956   4.130   5.637
 5437POPC   C1A68367  23.538   4.354   6.097
 5437POPC   D2A68368  23.774   4.378   6.447
 5437POPC   C3A68369  23.748   4.462   6.856
 5437POPC   C4A68370  23.619   4.261   7.189
 5437POPC   C1B68371  23.949   4.003   6.078
 5437POPC   C2B68372  24.070   3.973   6.511
 5437POPC   C3B68373  23.841   3.938   6.869
 5437POPC   C4B68374  23.783   3.778   7.265
 5438POPC   NC368375  22.102   9.438   5.286
 5438POPC   PO468376  22.374  10.042   5.323
 5438POPC   GL168377  22.161   9.840   5.684
 5438POPC   GL268378  22.280   9.496   5.785
 5438POPC   C1A68379  22.112   9.851   6.147
 5438POPC   D2A68380  22.271   9.598   6.499
 5438POPC   C3A68381  22.276   9.852   6.874
 5438POPC   C4A68382  22.064   9.790   7.255
 5438POPC   C1B68383  21.870   9.428   5.982
 5438POPC   C2B68384  21.728   9.475   6.418
 5438POPC   C3B68385  21.863   9.506   6.874
 5438POPC   C4B68386  21.733   9.406   7.323
 5439POPC   NC368387  30.311   5.887   5.437
 5439POPC   PO468388  31.051   5.802   5.457
 5439POPC   GL168389  30.761   6.006   5.788
 5439POPC   GL268390  30.426   5.852   5.924
 5439POPC   C1A68391  30.797   6.090   6.241
 5439POPC   D2A68392  30.958   6.194   6.650
 5439POPC   C3A68393  31.036   5.846   6.908
 5439POPC   C4A68394  30.953   5.728   7.330
 5439POPC   C1B68395  30.293   6.000   6.338
 5439POPC   C2B68396  30.542   5.900   6.705
 5439POPC   C3B68397  30.500   5.770   7.127
 5439POPC   C4B68398  30.530   5.904   7.582
 5440POPC   NC368399   4.002  35.115   5.319
 5440POPC   PO468400   4.489  35.534   5.569
 5440POPC   GL168401   4.157  35.421   5.849
 5440POPC   GL268402   4.157  35.088   5.855
 5440POPC   C1A68403   4.069  35.431   6.292
 5440POPC   D2A68404   4.270  35.586   6.666
 5440POPC   C3A68405   4.118  35.437   7.074
 5440POPC   C4A68406   3.895  35.067   7.230
 5440POPC   C1B68407   4.500  35.191   6.205
 5440POPC   C2B68408   4.410  35.090   6.665
 5440POPC   C3B68409   4.397  34.911   7.103
 5440POPC   C4B68410   4.638  34.711   7.458
 5441POPC   NC368411  15.248  13.325   5.572
 5441POPC   PO468412  15.886  13.603   5.434
 5441POPC   GL168413  15.836  13.599   5.868
 5441POPC   GL268414  15.699  13.260   5.845
 5441POPC   C1A68415  16.086  13.669   6.251
 5441POPC   D2A68416  15.969  13.561   6.657
 5441POPC   C3A68417  16.133  13.695   7.037
 5441POPC   C4A68418  15.846  13.950   7.245
 5441POPC   C1B68419  15.721  13.281   6.282
 5441POPC   C2B68420  15.547  13.254   6.657
 5441POPC   C3B68421  15.662  13.406   7.031
 5441POPC   C4B68422  15.474  13.212   7.336
 5442POPC   NC368423   4.958  30.440   5.526
 5442POPC   PO468424   5.099  31.110   5.406
 5442POPC   GL168425   5.255  30.891   5.749
 5442POPC   GL268426   5.396  30.551   5.750
 5442POPC   C1A68427   5.111  30.778   6.138
 5442POPC   D2A68428   5.296  30.691   6.521
 5442POPC   C3A68429   5.107  30.802   6.910
 5442POPC   C4A68430   4.902  30.494   7.128
 5442POPC   C1B68431   5.403  30.298   6.111
 5442POPC   C2B68432   5.521  30.216   6.519
 5442POPC   C3B68433   5.252  30.186   6.857
 5442POPC   C4B68434   5.370  30.213   7.248
 5443POPC   NC368435  32.496  26.404   5.522
 5443POPC   PO468436  32.663  27.059   5.428
 5443POPC   GL168437  32.483  26.995   5.811
 5443POPC   GL268438  32.179  26.819   5.692
 5443POPC   C1A68439  32.598  27.059   6.263
 5443POPC   D2A68440  32.574  26.858   6.692
 5443POPC   C3A68441  32.288  27.024   7.035
 5443POPC   C4A68442  32.327  26.963   7.481
 5443POPC   C1B68443  32.218  26.697   6.178
 5443POPC   C2B68444  32.108  26.642   6.668
 5443POPC   C3B68445  32.175  26.543   7.142
 5443POPC   C4B68446  31.993  26.589   7.570
 5444POPC   NC368447  31.412  27.706   5.367
 5444POPC   PO468448  31.835  27.282   5.626
 5444POPC   GL168449  31.585  27.485   5.930
 5444POPC   GL268450  31.453  27.793   5.872
 5444POPC   C1A68451  31.460  27.506   6.365
 5444POPC   D2A68452  31.434  27.600   6.806
 5444POPC   C3A68453  31.555  27.262   7.087
 5444POPC   C4A68454  31.347  27.086   7.470
 5444POPC   C1B68455  31.136  27.851   6.213
 5444POPC   C2B68456  30.975  27.826   6.636
 5444POPC   C3B68457  31.093  27.881   7.064
 5444POPC   C4B68458  31.434  27.670   7.344
 5445POPC   NC368459  33.553  44.248   5.512
 5445POPC   PO468460  33.599  44.936   5.348
 5445POPC   GL168461  33.773  44.755   5.716
 5445POPC   GL268462  34.031   0.036   5.793
 5445POPC   C1A68463  33.716  44.535   6.128
 5445POPC   D2A68464  33.706  44.688   6.559
 5445POPC   C3A68465  33.709  44.433   6.911
 5445POPC   C4A68466  33.467  44.523   7.264
 5445POPC   C1B68467  34.207  44.698   6.017
 5445POPC   C2B68468  34.213  44.676   6.433
 5445POPC   C3B68469  34.141  44.697   6.845
 5445POPC   C4B68470  34.164   0.010   7.120
 5446POPC   NC368471  43.505  35.602   5.472
 5446POPC   PO468472  44.039  35.158   5.590
 5446POPC   GL168473  43.844  35.457   5.807
 5446POPC   GL268474  44.115  35.667   5.846
 5446POPC   C1A68475  43.598  35.542   6.167
 5446POPC   D2A68476  43.649  35.362   6.572
 5446POPC   C3A68477  43.514  35.553   6.960
 5446POPC   C4A68478  43.777  35.612   7.324
 5446POPC   C1B68479  44.115  35.430   6.232
 5446POPC   C2B68480  44.162  35.187   6.582
 5446POPC   C3B68481  44.073  35.398   6.930
 5446POPC   C4B68482  44.228  35.398   7.322
 5447POPC   NC368483  39.738  13.722   5.367
 5447POPC   PO468484  40.220  13.232   5.537
 5447POPC   GL168485  40.000  13.539   5.802
 5447POPC   GL268486  39.614  13.560   5.835
 5447POPC   C1A68487  40.202  13.681   6.182
 5447POPC   D2A68488  40.058  13.813   6.568
 5447POPC   C3A68489  40.252  13.654   6.904
 5447POPC   C4A68490  40.103  13.575   7.275
 5447POPC   C1B68491  39.708  13.549   6.245
 5447POPC   C2B68492  39.611  13.412   6.622
 5447POPC   C3B68493  39.727  13.675   6.940
 5447POPC   C4B68494  39.574  13.785   7.310
 5448POPC   NC368495   6.278  33.187   5.494
 5448POPC   PO468496   6.883  33.002   5.385
 5448POPC   GL168497   6.725  33.044   5.789
 5448POPC   GL268498   6.546  32.735   5.791
 5448POPC   C1A68499   6.619  33.205   6.194
 5448POPC   D2A68500   6.735  33.091   6.630
 5448POPC   C3A68501   6.562  33.317   6.968
 5448POPC   C4A68502   6.705  33.286   7.347
 5448POPC   C1B68503   6.714  32.695   6.219
 5448POPC   C2B68504   6.492  32.660   6.620
 5448POPC   C3B68505   6.521  32.805   7.049
 5448POPC   C4B68506   6.448  32.894   7.529
 5449POPC   NC368507  20.111  39.126   5.373
 5449POPC   PO468508  19.532  39.440   5.410
 5449POPC   GL168509  19.657  39.271   5.802
 5449POPC   GL268510  20.020  39.345   5.842
 5449POPC   C1A68511  19.559  39.186   6.256
 5449POPC   D2A68512  19.804  39.036   6.590
 5449POPC   C3A68513  19.606  39.064   6.991
 5449POPC   C4A68514  19.722  39.123   7.456
 5449POPC   C1B68515  19.960  38.926   6.066
 5449POPC   C2B68516  20.191  38.698   6.389
 5449POPC   C3B68517  20.263  38.818   6.803
 5449POPC   C4B68518  20.000  38.780   7.171
 5450POPC   NC368519   1.791  13.360   5.415
 5450POPC   PO468520   2.431  13.610   5.323
 5450POPC   GL168521   2.184  13.553   5.724
 5450POPC   GL268522   2.187  13.188   5.749
 5450POPC   C1A68523   2.151  13.729   6.189
 5450POPC   D2A68524   1.846  13.768   6.576
 5450POPC   C3A68525   2.022  13.869   7.023
 5450POPC   C4A68526   2.454  13.814   7.223
 5450POPC   C1B68527   1.859  13.306   6.072
 5450POPC   C2B68528   1.768  13.215   6.527
 5450POPC   C3B68529   1.750  13.429   6.948
 5450POPC   C4B68530   1.573  13.387   7.383
 5451POPC   NC368531  24.776  13.772   5.328
 5451POPC   PO468532  24.242  13.596   5.554
 5451POPC   GL168533  24.546  13.760   5.850
 5451POPC   GL268534  24.264  13.858   6.062
 5451POPC   C1A68535  24.671  13.622   6.300
 5451POPC   D2A68536  24.846  13.387   6.663
 5451POPC   C3A68537  24.823  13.550   7.054
 5451POPC   C4A68538  24.434  13.448   7.263
 5451POPC   C1B68539  24.566  14.134   6.254
 5451POPC   C2B68540  24.630  14.306   6.676
 5451POPC   C3B68541  24.570  14.046   7.052
 5451POPC   C4B68542  24.332  14.026   7.450
 5452POPC   NC368543   6.343   9.350   5.561
 5452POPC   PO468544   6.574   9.968   5.638
 5452POPC   GL168545   6.888   9.809   5.861
 5452POPC   GL268546   6.704   9.521   5.883
 5452POPC   C1A68547   7.012   9.826   6.275
 5452POPC   D2A68548   6.761   9.709   6.601
 5452POPC   C3A68549   6.815   9.877   6.980
 5452POPC   C4A68550   6.529   9.808   7.270
 5452POPC   C1B68551   6.827   9.339   6.231
 5452POPC   C2B68552   6.816   9.187   6.625
 5452POPC   C3B68553   6.695   9.368   7.001
 5452POPC   C4B68554   6.873   9.426   7.407
 5453POPC   NC368555  42.170  27.561   5.425
 5453POPC   PO468556  42.834  27.303   5.352
 5453POPC   GL168557  42.573  27.453   5.686
 5453POPC   GL268558  42.703  27.753   5.828
 5453POPC   C1A68559  42.343  27.516   6.127
 5453POPC   D2A68560  42.056  27.633   6.470
 5453POPC   C3A68561  42.243  27.540   6.855
 5453POPC   C4A68562  42.244  27.691   7.272
 5453POPC   C1B68563  42.812  27.330   6.086
 5453POPC   C2B68564  42.704  27.292   6.520
 5453POPC   C3B68565  42.737  27.478   6.909
 5453POPC   C4B68566  42.640  27.338   7.310
 5454POPC   NC368567   2.776  31.802   5.438
 5454POPC   PO468568   2.813  31.071   5.387
 5454POPC   GL168569   2.782  31.411   5.785
 5454POPC   GL268570   2.609  31.753   5.904
 5454POPC   C1A68571   2.963  31.481   6.190
 5454POPC   D2A68572   2.835  31.321   6.591
 5454POPC   C3A68573   3.032  31.320   6.963
 5454POPC   C4A68574   2.929  31.054   7.322
 5454POPC   C1B68575   2.502  31.637   6.335
 5454POPC   C2B68576   2.612  31.741   6.747
 5454POPC   C3B68577   2.599  31.562   7.174
 5454POPC   C4B68578   2.631  31.766   7.593
 5455POPC   NC368579  31.626  17.625   5.501
 5455POPC   PO468580  31.048  17.829   5.245
 5455POPC   GL168581  31.159  17.469   5.684
 5455POPC   GL268582  31.403  17.220   5.707
 5455POPC   C1A68583  31.407  17.487   6.165
 5455POPC   D2A68584  31.639  17.376   6.579
 5455POPC   C3A68585  31.682  17.662   6.934
 5455POPC   C4A68586  31.480  17.827   7.295
 5455POPC   C1B68587  31.282  17.014   6.060
 5455POPC   C2B68588  31.326  16.960   6.501
 5455POPC   C3B68589  31.339  17.115   6.918
 5455POPC   C4B68590  31.616  17.259   7.246
 5456POPC   NC368591   2.931   3.920   5.122
 5456POPC   PO468592   2.435   4.332   5.317
 5456POPC   GL168593   2.581   4.195   5.727
 5456POPC   GL268594   2.907   4.014   5.628
 5456POPC   C1A68595   2.563   4.412   6.154
 5456POPC   D2A68596   2.411   4.318   6.573
 5456POPC   C3A68597   2.616   4.469   6.953
 5456POPC   C4A68598   2.583   4.675   7.375
 5456POPC   C1B68599   3.041   3.985   6.047
 5456POPC   C2B68600   2.989   4.226   6.428
 5456POPC   C3B68601   3.083   4.258   6.875
 5456POPC   C4B68602   3.066   4.599   7.212
 5457POPC   NC368603  28.871  16.194   5.538
 5457POPC   PO468604  28.257  15.888   5.427
 5457POPC   GL168605  28.356  16.079   5.800
 5457POPC   GL268606  28.659  15.869   5.869
 5457POPC   C1A68607  28.333  15.975   6.225
 5457POPC   D2A68608  28.256  15.760   6.564
 5457POPC   C3A68609  28.499  15.769   6.920
 5457POPC   C4A68610  28.330  15.831   7.317
 5457POPC   C1B68611  28.781  16.188   6.206
 5457POPC   C2B68612  28.707  16.377   6.624
 5457POPC   C3B68613  28.755  16.459   7.069
 5457POPC   C4B68614  28.548  16.340   7.485
 5458POPC   NC368615  29.986   6.483   5.123
 5458POPC   PO468616  29.836   7.082   5.249
 5458POPC   GL168617  29.769   6.608   5.559
 5458POPC   GL268618  29.554   6.440   5.777
 5458POPC   C1A68619  30.033   6.435   5.973
 5458POPC   D2A68620  30.263   6.673   6.336
 5458POPC   C3A68621  30.188   6.780   6.795
 5458POPC   C4A68622  29.816   6.936   7.040
 5458POPC   C1B68623  29.638   6.617   6.229
 5458POPC   C2B68624  29.767   6.463   6.642
 5458POPC   C3B68625  29.727   6.386   7.094
 5458POPC   C4B68626  29.409   6.298   7.400
 5459POPC   NC368627  20.199   1.178   5.584
 5459POPC   PO468628  20.807   1.303   5.387
 5459POPC   GL168629  20.721   1.096   5.757
 5459POPC   GL268630  20.569   1.409   5.878
 5459POPC   C1A68631  20.851   1.125   6.197
 5459POPC   D2A68632  20.676   1.206   6.633
 5459POPC   C3A68633  20.911   1.167   7.042
 5459POPC   C4A68634  20.889   1.164   7.512
 5459POPC   C1B68635  20.323   1.321   6.255
 5459POPC   C2B68636  20.147   0.993   6.561
 5459POPC   C3B68637  20.222   0.965   7.017
 5459POPC   C4B68638  20.442   1.244   7.300
 5460POPC   NC368639  10.242   5.308   5.413
 5460POPC   PO468640   9.644   4.997   5.431
 5460POPC   GL168641   9.935   5.053   5.785
 5460POPC   GL268642   9.894   5.415   5.798
 5460POPC   C1A68643   9.889   5.095   6.270
 5460POPC   D2A68644  10.107   4.955   6.678
 5460POPC   C3A68645   9.827   4.973   7.054
 5460POPC   C4A68646   9.507   5.277   7.152
 5460POPC   C1B68647  10.232   5.431   6.103
 5460POPC   C2B68648  10.226   5.456   6.571
 5460POPC   C3B68649   9.979   5.473   6.987
 5460POPC   C4B68650   9.925   5.318   7.457
 5461POPC   NC368651   7.807  37.442   5.277
 5461POPC   PO468652   7.264  37.830   5.554
 5461POPC   GL168653   7.222  37.671   5.911
 5461POPC   GL268654   7.554  37.785   5.978
 5461POPC   C1A68655   7.308  37.476   6.283
 5461POPC   D2A68656   7.167  37.544   6.650
 5461POPC   C3A68657   7.427  37.363   6.981
 5461POPC   C4A68658   7.781  37.565   7.196
 5461POPC   C1B68659   7.517  37.943   6.379
 5461POPC   C2B68660   7.582  37.822   6.774
 5461POPC   C3B68661   7.510  38.029   7.133
 5461POPC   C4B68662   7.794  38.341   7.298
 5462POPC   NC368663  43.885  36.515   5.322
 5462POPC   PO468664  43.810  35.929   5.341
 5462POPC   GL168665  43.698  35.966   5.796
 5462POPC   GL268666  43.948  36.157   5.798
 5462POPC   C1A68667  43.917  35.931   6.253
 5462POPC   D2A68668  43.909  35.813   6.695
 5462POPC   C3A68669  43.896  36.052   7.079
 5462POPC   C4A68670  43.612  36.075   7.441
 5462POPC   C1B68671  44.074  36.398   6.138
 5462POPC   C2B68672  43.892  36.428   6.538
 5462POPC   C3B68673  44.130  36.475   6.883
 5462POPC   C4B68674  44.366  36.279   7.206
 5463POPC   NC368675  42.677   5.857   5.351
 5463POPC   PO468676  42.059   5.850   5.372
 5463POPC   GL168677  42.325   5.754   5.729
 5463POPC   GL268678  42.481   6.065   5.799
 5463POPC   C1A68679  42.239   5.724   6.177
 5463POPC   D2A68680  41.945   5.556   6.480
 5463POPC   C3A68681  42.159   5.591   6.856
 5463POPC   C4A68682  42.199   5.612   7.271
 5463POPC   C1B68683  42.661   6.035   6.218
 5463POPC   C2B68684  42.493   5.966   6.635
 5463POPC   C3B68685  42.600   5.826   7.045
 5463POPC   C4B68686  42.672   5.931   7.464
 5464POPC   NC368687  18.544   6.356   5.421
 5464POPC   PO468688  18.214   6.880   5.224
 5464POPC   GL168689  18.401   6.823   5.704
 5464POPC   GL268690  18.351   6.446   5.877
 5464POPC   C1A68691  18.249   6.810   6.189
 5464POPC   D2A68692  18.476   6.492   6.464
 5464POPC   C3A68693  18.398   6.543   6.898
 5464POPC   C4A68694  18.050   6.797   7.110
 5464POPC   C1B68695  18.018   6.362   6.229
 5464POPC   C2B68696  17.926   6.538   6.622
 5464POPC   C3B68697  17.954   6.316   6.983
 5464POPC   C4B68698  17.805   6.342   7.341
 5465POPC   NC368699  37.170  34.217   5.404
 5465POPC   PO468700  36.741  34.697   5.343
 5465POPC   GL168701  36.809  34.420   5.727
 5465POPC   GL268702  37.148  34.319   5.893
 5465POPC   C1A68703  36.674  34.374   6.153
 5465POPC   D2A68704  36.457  34.607   6.469
 5465POPC   C3A68705  36.495  34.420   6.859
 5465POPC   C4A68706  36.735  34.587   7.198
 5465POPC   C1B68707  37.199  34.627   6.193
 5465POPC   C2B68708  37.296  34.756   6.610
 5465POPC   C3B68709  37.227  34.572   7.019
 5465POPC   C4B68710  37.165  34.269   7.357
 5466POPC   NC368711  40.230  14.678   5.396
 5466POPC   PO468712  39.909  14.155   5.311
 5466POPC   GL168713  39.926  14.366   5.732
 5466POPC   GL268714  39.715  14.062   5.812
 5466POPC   C1A68715  40.166  14.577   6.123
 5466POPC   D2A68716  40.498  14.577   6.506
 5466POPC   C3A68717  40.367  14.514   6.952
 5466POPC   C4A68718  40.009  14.611   7.191
 5466POPC   C1B68719  39.927  14.127   6.192
 5466POPC   C2B68720  40.034  14.325   6.584
 5466POPC   C3B68721  40.029  14.118   6.994
 5466POPC   C4B68722  40.401  14.037   7.208
 5467POPC   NC368723   0.350  28.523   5.554
 5467POPC   PO468724   0.895  28.092   5.412
 5467POPC   GL168725   0.642  28.174   5.782
 5467POPC   GL268726   0.288  28.071   5.814
 5467POPC   C1A68727   0.710  28.481   6.119
 5467POPC   D2A68728   0.801  28.728   6.489
 5467POPC   C3A68729   0.647  28.528   6.873
 5467POPC   C4A68730   0.445  28.607   7.263
 5467POPC   C1B68731   0.075  28.003   6.194
 5467POPC   C2B68732  44.946  28.124   6.620
 5467POPC   C3B68733   0.160  28.232   7.029
 5467POPC   C4B68734   0.223  28.222   7.499
 5468POPC   NC368735  29.409  34.104   5.439
 5468POPC   PO468736  28.924  33.703   5.118
 5468POPC   GL168737  28.991  33.819   5.636
 5468POPC   GL268738  29.332  33.899   5.883
 5468POPC   C1A68739  28.941  33.784   6.141
 5468POPC   D2A68740  29.289  33.924   6.479
 5468POPC   C3A68741  29.115  33.878   6.898
 5468POPC   C4A68742  28.800  33.559   7.054
 5468POPC   C1B68743  29.616  34.166   6.154
 5468POPC   C2B68744  29.587  34.373   6.559
 5468POPC   C3B68745  29.489  34.251   6.955
 5468POPC   C4B68746  29.476  34.018   7.321
 5469POPC   NC368747  24.671  32.370   5.368
 5469POPC   PO468748  24.416  31.808   5.467
 5469POPC   GL168749  24.417  32.166   5.772
 5469POPC   GL268750  24.160  32.442   5.788
 5469POPC   C1A68751  24.681  32.434   6.035
 5469POPC   D2A68752  24.739  32.629   6.457
 5469POPC   C3A68753  24.614  32.338   6.802
 5469POPC   C4A68754  24.770  32.120   7.189
 5469POPC   C1B68755  24.197  32.331   6.234
 5469POPC   C2B68756  24.144  32.557   6.610
 5469POPC   C3B68757  24.032  32.613   7.031
 5469POPC   C4B68758  24.328  32.370   7.245
 5470POPC   NC368759   0.701  20.541   5.415
 5470POPC   PO468760   0.326  21.055   5.516
 5470POPC   GL168761   0.276  20.720   5.798
 5470POPC   GL268762   0.593  20.612   5.914
 5470POPC   C1A68763   0.192  20.501   6.224
 5470POPC   D2A68764  44.954  20.636   6.573
 5470POPC   C3A68765   0.077  20.447   6.960
 5470POPC   C4A68766   0.347  20.380   7.295
 5470POPC   C1B68767   0.458  20.934   6.225
 5470POPC   C2B68768   0.436  20.794   6.651
 5470POPC   C3B68769   0.698  20.558   6.947
 5470POPC   C4B68770   0.719  20.751   7.317
 5471POPC   NC368771  33.945  38.630   5.196
 5471POPC   PO468772  33.605  38.017   5.508
 5471POPC   GL168773  33.666  38.341   5.788
 5471POPC   GL268774  33.867  38.635   5.742
 5471POPC   C1A68775  33.634  38.314   6.198
 5471POPC   D2A68776  33.959  38.459   6.452
 5471POPC   C3A68777  33.822  38.424   6.865
 5471POPC   C4A68778  33.922  38.119   7.161
 5471POPC   C1B68779  33.661  38.811   6.137
 5471POPC   C2B68780  33.523  38.718   6.551
 5471POPC   C3B68781  33.530  38.829   6.986
 5471POPC   C4B68782  33.576  38.487   7.318
 5472POPC   NC368783  42.669  26.780   5.437
 5472POPC   PO468784  42.121  27.153   5.630
 5472POPC   GL168785  42.448  26.946   5.854
 5472POPC   GL268786  42.531  26.569   5.866
 5472POPC   C1A68787  42.491  26.908   6.260
 5472POPC   D2A68788  42.230  27.121   6.527
 5472POPC   C3A68789  42.399  27.063   6.918
 5472POPC   C4A68790  42.169  27.165   7.264
 5472POPC   C1B68791  42.320  26.408   6.199
 5472POPC   C2B68792  42.477  26.340   6.595
 5472POPC   C3B68793  42.295  26.518   6.933
 5472POPC   C4B68794  42.420  26.714   7.293
 5473POPC   NC368795  36.067  44.120   5.268
 5473POPC   PO468796  36.287  43.498   5.379
 5473POPC   GL168797  36.164  43.834   5.704
 5473POPC   GL268798  36.057  44.195   5.764
 5473POPC   C1A68799  35.957  43.832   6.114
 5473POPC   D2A68800  36.163  43.884   6.511
 5473POPC   C3A68801  35.936  43.818   6.893
 5473POPC   C4A68802  36.033  43.901   7.310
 5473POPC   C1B68803  36.271  44.272   6.129
 5473POPC   C2B68804  36.254  44.384   6.544
 5473POPC   C3B68805  36.313  44.206   6.946
 5473POPC   C4B68806  36.452  44.312   7.359
 5474POPC   NC368807  33.433   0.380   5.351
 5474POPC   PO468808  33.742   0.893   5.603
 5474POPC   GL168809  33.798   0.505   5.837
 5474POPC   GL268810  33.551   0.222   5.818
 5474POPC   C1A68811  33.846   0.526   6.265
 5474POPC   D2A68812  33.642   0.725   6.577
 5474POPC   C3A68813  33.731   0.518   6.962
 5474POPC   C4A68814  33.843   0.351   7.341
 5474POPC   C1B68815  33.727   0.045   6.189
 5474POPC   C2B68816  33.599   0.187   6.594
 5474POPC   C3B68817  33.641  44.977   7.025
 5474POPC   C4B68818  33.694  44.906   7.507
 5475POPC   NC368819  19.635  38.114   5.262
 5475POPC   PO468820  19.813  38.749   5.408
 5475POPC   GL168821  19.879  38.473   5.792
 5475POPC   GL268822  20.229  38.514   5.923
 5475POPC   C1A68823  19.781  38.442   6.254
 5475POPC   D2A68824  19.830  38.544   6.704
 5475POPC   C3A68825  19.675  38.363   7.051
 5475POPC   C4A68826  19.519  38.651   7.275
 5475POPC   C1B68827  20.256  38.204   6.213
 5475POPC   C2B68828  20.137  38.132   6.618
 5475POPC   C3B68829  20.202  38.329   7.002
 5475POPC   C4B68830  20.063  38.188   7.399
 5476POPC   NC368831  16.895  23.045   5.524
 5476POPC   PO468832  16.508  22.563   5.226
 5476POPC   GL168833  16.609  22.642   5.716
 5476POPC   GL268834  16.934  22.744   5.932
 5476POPC   C1A68835  16.515  22.862   6.157
 5476POPC   D2A68836  16.783  22.962   6.541
 5476POPC   C3A68837  16.595  23.070   6.977
 5476POPC   C4A68838  16.547  23.250   7.395
 5476POPC   C1B68839  17.108  22.506   6.276
 5476POPC   C2B68840  17.022  22.465   6.693
 5476POPC   C3B68841  17.032  22.802   6.965
 5476POPC   C4B68842  17.040  23.127   7.284
 5477POPC   NC368843   3.954   2.028   5.507
 5477POPC   PO468844   4.633   2.063   5.350
 5477POPC   GL168845   4.393   1.934   5.723
 5477POPC   GL268846   4.292   2.284   5.780
 5477POPC   C1A68847   4.202   1.841   6.150
 5477POPC   D2A68848   4.361   1.634   6.534
 5477POPC   C3A68849   4.406   1.838   6.958
 5477POPC   C4A68850   4.368   2.260   7.112
 5477POPC   C1B68851   4.529   2.227   6.127
 5477POPC   C2B68852   4.580   2.186   6.567
 5477POPC   C3B68853   4.865   2.209   6.912
 5477POPC   C4B68854   4.811   2.360   7.321
 5478POPC   NC368855  41.141  43.579   5.358
 5478POPC   PO468856  40.653  43.991   5.333
 5478POPC   GL168857  40.666  43.987   5.771
 5478POPC   GL268858  40.602  43.633   5.802
 5478POPC   C1A68859  40.644  44.027   6.222
 5478POPC   D2A68860  40.860  44.020   6.623
 5478POPC   C3A68861  40.670  44.174   6.957
 5478POPC   C4A68862  40.662  44.113   7.380
 5478POPC   C1B68863  40.751  43.516   6.200
 5478POPC   C2B68864  40.930  43.508   6.619
 5478POPC   C3B68865  40.890  43.657   7.059
 5478POPC   C4B68866  40.891  43.697   7.518
 5479POPC   NC368867  29.671   1.573   5.119
 5479POPC   PO468868  30.133   1.232   5.367
 5479POPC   GL168869  29.846   1.337   5.650
 5479POPC   GL268870  30.126   1.374   5.863
 5479POPC   C1A68871  29.648   1.437   6.049
 5479POPC   D2A68872  29.567   1.226   6.435
 5479POPC   C3A68873  29.790   1.310   6.824
 5479POPC   C4A68874  29.721   1.108   7.233
 5479POPC   C1B68875  30.093   1.271   6.243
 5479POPC   C2B68876  30.261   1.074   6.542
 5479POPC   C3B68877  30.274   1.173   6.935
 5479POPC   C4B68878  30.193   1.244   7.340
 5480POPC   NC368879   8.795  14.726   5.334
 5480POPC   PO468880   8.688  15.349   5.602
 5480POPC   GL168881   8.956  15.031   5.793
 5480POPC   GL268882   8.892  14.677   5.846
 5480POPC   C1A68883   9.077  15.047   6.230
 5480POPC   D2A68884   8.885  15.202   6.607
 5480POPC   C3A68885   9.087  15.177   6.970
 5480POPC   C4A68886   9.237  15.260   7.381
 5480POPC   C1B68887   9.093  14.542   6.226
 5480POPC   C2B68888   8.829  14.650   6.570
 5480POPC   C3B68889   8.732  14.815   6.961
 5480POPC   C4B68890   9.002  14.800   7.296
 5481POPC   NC368891  26.427  39.032   5.461
 5481POPC   PO468892  25.676  39.039   5.378
 5481POPC   GL168893  25.982  39.192   5.771
 5481POPC   GL268894  26.308  39.359   5.815
 5481POPC   C1A68895  25.926  39.306   6.203
 5481POPC   D2A68896  25.783  39.448   6.598
 5481POPC   C3A68897  25.909  39.247   6.966
 5481POPC   C4A68898  26.053  39.364   7.353
 5481POPC   C1B68899  26.464  39.243   6.198
 5481POPC   C2B68900  26.295  39.153   6.586
 5481POPC   C3B68901  26.414  38.899   6.930
 5481POPC   C4B68902  26.230  38.889   7.318
 5482POPC   NC368903  39.174  31.854   5.634
 5482POPC   PO468904  39.346  31.251   5.343
 5482POPC   GL168905  39.200  31.327   5.746
 5482POPC   GL268906  39.489  31.525   5.845
 5482POPC   C1A68907  39.265  31.221   6.189
 5482POPC   D2A68908  39.484  31.278   6.559
 5482POPC   C3A68909  39.293  31.249   6.956
 5482POPC   C4A68910  39.218  31.578   7.222
 5482POPC   C1B68911  39.376  31.707   6.263
 5482POPC   C2B68912  39.221  31.724   6.681
 5482POPC   C3B68913  39.422  31.954   6.956
 5482POPC   C4B68914  39.362  32.151   7.296
 5483POPC   NC368915  11.343  22.400   5.421
 5483POPC   PO468916  11.193  21.766   5.189
 5483POPC   GL168917  11.183  21.943   5.629
 5483POPC   GL268918  11.501  22.039   5.785
 5483POPC   C1A68919  11.091  22.022   6.098
 5483POPC   D2A68920  11.075  21.745   6.509
 5483POPC   C3A68921  11.020  21.944   6.941
 5483POPC   C4A68922  11.209  22.347   7.128
 5483POPC   C1B68923  11.577  21.827   6.190
 5483POPC   C2B68924  11.770  21.823   6.602
 5483POPC   C3B68925  11.527  21.903   6.992
 5483POPC   C4B68926  11.275  21.646   7.249
 5484POPC   NC368927  14.242  25.621   5.339
 5484POPC   PO468928  14.679  26.155   5.446
 5484POPC   GL168929  14.511  25.887   5.758
 5484POPC   GL268930  14.162  25.969   5.757
 5484POPC   C1A68931  14.506  26.025   6.186
 5484POPC   D2A68932  14.730  26.092   6.567
 5484POPC   C3A68933  14.504  26.081   6.933
 5484POPC   C4A68934  14.406  26.388   7.282
 5484POPC   C1B68935  14.048  25.809   6.174
 5484POPC   C2B68936  14.066  26.076   6.548
 5484POPC   C3B68937  14.018  26.177   6.985
 5484POPC   C4B68938  14.178  25.932   7.364
 5485POPC   NC368939   6.454  38.678   5.510
 5485POPC   PO468940   6.635  38.061   5.291
 5485POPC   GL168941   6.541  38.169   5.739
 5485POPC   GL268942   6.799  38.371   5.917
 5485POPC   C1A68943   6.366  38.288   6.164
 5485POPC   D2A68944   6.636  38.332   6.520
 5485POPC   C3A68945   6.431  38.474   6.901
 5485POPC   C4A68946   6.592  38.440   7.284
 5485POPC   C1B68947   7.049  38.562   6.269
 5485POPC   C2B68948   7.041  38.680   6.719
 5485POPC   C3B68949   6.907  38.825   7.138
 5485POPC   C4B68950   6.969  38.607   7.555
 5486POPC   NC368951  44.023   6.980   5.408
 5486POPC   PO468952  43.753   6.321   5.490
 5486POPC   GL168953  43.939   6.600   5.800
 5486POPC   GL268954  43.700   6.869   5.775
 5486POPC   C1A68955  44.027   6.424   6.227
 5486POPC   D2A68956  44.233   6.454   6.619
 5486POPC   C3A68957  44.016   6.418   6.995
 5486POPC   C4A68958  44.044   6.602   7.384
 5486POPC   C1B68959  43.751   6.861   6.238
 5486POPC   C2B68960  43.738   6.735   6.671
 5486POPC   C3B68961  43.850   6.933   7.051
 5486POPC   C4B68962  43.721   6.977   7.491
 5487POPC   NC368963  13.175   3.523   5.288
 5487POPC   PO468964  12.559   3.276   5.159
 5487POPC   GL168965  12.779   3.322   5.610
 5487POPC   GL268966  13.025   3.593   5.755
 5487POPC   C1A68967  12.875   3.226   6.087
 5487POPC   D2A68968  12.673   3.272   6.506
 5487POPC   C3A68969  12.809   3.192   6.932
 5487POPC   C4A68970  13.058   3.479   7.142
 5487POPC   C1B68971  13.008   3.710   6.188
 5487POPC   C2B68972  13.028   3.605   6.629
 5487POPC   C3B68973  12.718   3.785   6.928
 5487POPC   C4B68974  12.750   3.981   7.331
 5488POPC   NC368975  16.318   8.136   5.532
 5488POPC   PO468976  15.732   8.375   5.627
 5488POPC   GL168977  15.994   8.198   5.953
 5488POPC   GL268978  16.278   8.437   5.953
 5488POPC   C1A68979  15.923   8.050   6.395
 5488POPC   D2A68980  15.792   7.800   6.772
 5488POPC   C3A68981  15.736   8.117   7.089
 5488POPC   C4A68982  15.963   8.504   7.225
 5488POPC   C1B68983  16.441   8.117   6.254
 5488POPC   C2B68984  16.548   8.111   6.703
 5488POPC   C3B68985  16.263   8.125   7.068
 5488POPC   C4B68986  16.061   7.936   7.453
 5489POPC   NC368987  16.084  20.466   5.410
 5489POPC   PO468988  15.755  21.026   5.479
 5489POPC   GL168989  16.050  20.784   5.781
 5489POPC   GL268990  15.799  20.548   5.852
 5489POPC   C1A68991  16.232  20.487   6.109
 5489POPC   D2A68992  16.319  20.256   6.495
 5489POPC   C3A68993  16.095  20.415   6.853
 5489POPC   C4A68994  16.016  20.593   7.256
 5489POPC   C1B68995  15.736  20.301   6.209
 5489POPC   C2B68996  15.626  20.392   6.620
 5489POPC   C3B68997  15.639  20.236   7.029
 5489POPC   C4B68998  15.453  20.432   7.365
 5490POPC   NC368999  34.224  39.807   5.016
 5490POPC   PO469000  34.750  39.889   5.476
 5490POPC   GL169001  34.675  40.022   5.876
 5490POPC   GL269002  34.396  39.789   5.832
 5490POPC   C1A69003  34.459  40.007   6.283
 5490POPC   D2A69004  34.262  39.869   6.675
 5490POPC   C3A69005  34.385  40.040   7.079
 5490POPC   C4A69006  34.793  40.005   7.248
 5490POPC   C1B69007  34.722  39.580   6.097
 5490POPC   C2B69008  34.632  39.572   6.511
 5490POPC   C3B69009  34.635  39.614   6.944
 5490POPC   C4B69010  34.832  39.479   7.305
 5491POPC   NC369011  34.405  19.816   5.517
 5491POPC   PO469012  34.964  19.470   5.484
 5491POPC   GL169013  34.884  19.682   5.900
 5491POPC   GL269014  34.528  19.751   5.988
 5491POPC   C1A69015  34.842  19.994   6.280
 5491POPC   D2A69016  34.472  20.050   6.571
 5491POPC   C3A69017  34.595  19.990   7.010
 5491POPC   C4A69018  34.836  20.072   7.383
 5491POPC   C1B69019  34.209  19.598   6.244
 5491POPC   C2B69020  34.055  19.711   6.617
 5491POPC   C3B69021  34.184  19.672   7.021
 5491POPC   C4B69022  34.378  19.376   7.309
 5492POPC   NC369023  18.650  38.209   5.406
 5492POPC   PO469024  18.997  37.603   5.369
 5492POPC   GL169025  18.825  37.683   5.729
 5492POPC   GL269026  18.995  37.366   5.818
 5492POPC   C1A69027  18.983  37.907   6.079
 5492POPC   D2A69028  19.317  37.812   6.369
 5492POPC   C3A69029  19.222  37.836   6.799
 5492POPC   C4A69030  18.863  37.920   7.079
 5492POPC   C1B69031  19.168  37.376   6.203
 5492POPC   C2B69032  19.075  37.261   6.622
 5492POPC   C3B69033  19.066  37.426   7.047
 5492POPC   C4B69034  19.254  37.335   7.454
 5493POPC   NC369035  39.049  23.371   5.464
 5493POPC   PO469036  38.808  22.750   5.384
 5493POPC   GL169037  39.174  22.880   5.704
 5493POPC   GL269038  39.437  23.197   5.738
 5493POPC   C1A69039  39.338  22.872   6.140
 5493POPC   D2A69040  39.232  22.760   6.569
 5493POPC   C3A69041  39.415  22.543   6.902
 5493POPC   C4A69042  39.409  22.729   7.289
 5493POPC   C1B69043  39.527  23.354   6.163
 5493POPC   C2B69044  39.602  23.109   6.564
 5493POPC   C3B69045  39.318  23.118   6.953
 5493POPC   C4B69046  39.448  23.247   7.383
 5494POPC   NC369047  29.659  43.407   5.374
 5494POPC   PO469048  29.875  42.872   5.573
 5494POPC   GL169049  29.593  43.018   5.929
 5494POPC   GL269050  29.528  43.340   5.877
 5494POPC   C1A69051  29.497  43.073   6.400
 5494POPC   D2A69052  29.760  43.204   6.789
 5494POPC   C3A69053  29.954  42.883   7.088
 5494POPC   C4A69054  30.041  42.576   7.426
 5494POPC   C1B69055  29.729  43.528   6.271
 5494POPC   C2B69056  29.809  43.719   6.727
 5494POPC   C3B69057  29.798  43.649   7.204
 5494POPC   C4B69058  29.874  43.626   7.665
 5495POPC   NC369059  19.415   1.554   5.640
 5495POPC   PO469060  19.050   1.096   5.296
 5495POPC   GL169061  18.988   1.267   5.745
 5495POPC   GL269062  18.773   1.563   5.769
 5495POPC   C1A69063  19.131   1.227   6.213
 5495POPC   D2A69064  19.261   1.046   6.638
 5495POPC   C3A69065  19.255   1.172   7.096
 5495POPC   C4A69066  18.977   1.100   7.464
 5495POPC   C1B69067  18.874   1.681   6.190
 5495POPC   C2B69068  18.977   1.544   6.616
 5495POPC   C3B69069  18.989   1.629   7.051
 5495POPC   C4B69070  18.702   1.532   7.344
 5496POPC   NC369071  40.270  15.505   5.479
 5496POPC   PO469072  39.841  14.956   5.454
 5496POPC   GL169073  39.986  15.082   5.870
 5496POPC   GL269074  39.889  15.426   5.865
 5496POPC   C1A69075  39.943  15.042   6.344
 5496POPC   D2A69076  40.021  14.831   6.726
 5496POPC   C3A69077  40.033  15.121   7.087
 5496POPC   C4A69078  39.835  15.094   7.495
 5496POPC   C1B69079  39.622  15.422   6.246
 5496POPC   C2B69080  39.646  15.370   6.718
 5496POPC   C3B69081  39.575  15.407   7.176
 5496POPC   C4B69082  39.782  15.613   7.551
 5497POPC   NC369083  40.536  37.589   5.393
 5497POPC   PO469084  40.834  36.990   5.408
 5497POPC   GL169085  40.701  36.976   5.809
 5497POPC   GL269086  40.481  37.232   5.765
 5497POPC   C1A69087  40.817  36.890   6.220
 5497POPC   D2A69088  40.658  36.753   6.624
 5497POPC   C3A69089  40.722  36.901   7.018
 5497POPC   C4A69090  40.704  36.661   7.387
 5497POPC   C1B69091  40.568  37.358   6.171
 5497POPC   C2B69092  40.776  37.275   6.561
 5497POPC   C3B69093  41.003  37.320   6.934
 5497POPC   C4B69094  40.771  37.312   7.319
 5498POPC   NC369095  33.827  30.489   5.601
 5498POPC   PO469096  33.367  30.913   5.284
 5498POPC   GL169097  33.592  30.967   5.697
 5498POPC   GL269098  33.387  30.822   5.953
 5498POPC   C1A69099  33.880  30.940   6.078
 5498POPC   D2A69100  33.999  31.067   6.512
 5498POPC   C3A69101  33.908  30.844   6.926
 5498POPC   C4A69102  33.917  30.494   7.237
 5498POPC   C1B69103  33.443  30.985   6.337
 5498POPC   C2B69104  33.291  30.761   6.690
 5498POPC   C3B69105  33.412  30.596   7.081
 5498POPC   C4B69106  33.546  30.751   7.469
 5499POPC   NC369107   9.717  41.641   5.247
 5499POPC   PO469108  10.230  41.229   5.414
 5499POPC   GL169109   9.932  41.550   5.701
 5499POPC   GL269110   9.611  41.409   5.849
 5499POPC   C1A69111   9.785  41.876   6.030
 5499POPC   D2A69112   9.639  41.909   6.504
 5499POPC   C3A69113   9.821  41.747   6.927
 5499POPC   C4A69114  10.150  41.868   7.237
 5499POPC   C1B69115   9.826  41.447   6.286
 5499POPC   C2B69116   9.902  41.288   6.696
 5499POPC   C3B69117   9.595  41.281   6.997
 5499POPC   C4B69118   9.232  41.310   7.165
 5500POPC   NC369119   1.325  22.875   5.448
 5500POPC   PO469120   0.756  23.057   5.175
 5500POPC   GL169121   0.960  23.153   5.658
 5500POPC   GL269122   1.113  22.894   5.907
 5500POPC   C1A69123   0.925  23.330   6.118
 5500POPC   D2A69124   1.118  23.389   6.540
 5500POPC   C3A69125   1.015  23.055   6.844
 5500POPC   C4A69126   0.888  23.038   7.267
 5500POPC   C1B69127   1.424  23.176   6.130
 5500POPC   C2B69128   1.634  23.359   6.484
 5500POPC   C3B69129   1.560  23.381   6.884
 5500POPC   C4B69130   1.448  23.065   7.177
 5501POPC   NC369131   9.158  21.242   5.510
 5501POPC   PO469132   8.576  21.627   5.314
 5501POPC   GL169133   8.730  21.417   5.717
 5501POPC   GL269134   9.027  21.577   5.866
 5501POPC   C1A69135   8.798  21.199   6.160
 5501POPC   D2A69136   8.971  21.365   6.584
 5501POPC   C3A69137   8.817  21.212   6.990
 5501POPC   C4A69138   9.054  21.287   7.362
 5501POPC   C1B69139   8.814  21.708   6.241
 5501POPC   C2B69140   8.672  21.769   6.666
 5501POPC   C3B69141   8.835  21.720   7.087
 5501POPC   C4B69142   8.789  21.953   7.493
 5502POPC   NC369143  18.871  17.245   5.326
 5502POPC   PO469144  19.222  17.816   5.468
 5502POPC   GL169145  19.045  17.630   5.846
 5502POPC   GL269146  18.979  17.264   5.836
 5502POPC   C1A69147  19.026  17.527   6.301
 5502POPC   D2A69148  19.126  17.333   6.697
 5502POPC   C3A69149  19.145  17.646   7.053
 5502POPC   C4A69150  18.897  17.859   7.361
 5502POPC   C1B69151  18.693  17.142   6.187
 5502POPC   C2B69152  18.613  17.339   6.587
 5502POPC   C3B69153  18.649  17.573   6.984
 5502POPC   C4B69154  18.572  17.468   7.425
 5503POPC   NC369155  27.427  23.265   5.098
 5503POPC   PO469156  27.705  22.720   5.421
 5503POPC   GL169157  27.572  22.786   5.813
 5503POPC   GL269158  27.229  22.744   5.731
 5503POPC   C1A69159  27.680  23.001   6.203
 5503POPC   D2A69160  27.966  22.988   6.556
 5503POPC   C3A69161  27.744  23.058   6.905
 5503POPC   C4A69162  27.587  23.140   7.278
 5503POPC   C1B69163  27.183  22.790   6.169
 5503POPC   C2B69164  27.258  23.057   6.516
 5503POPC   C3B69165  27.235  22.919   6.916
 5503POPC   C4B69166  27.081  23.155   7.193
 5504POPC   NC369167  11.338  38.925   5.479
 5504POPC   PO469168  11.193  38.204   5.397
 5504POPC   GL169169  11.351  38.488   5.755
 5504POPC   GL269170  11.081  38.641   5.952
 5504POPC   C1A69171  11.507  38.344   6.172
 5504POPC   D2A69172  11.356  37.993   6.456
 5504POPC   C3A69173  11.107  38.044   6.842
 5504POPC   C4A69174  11.334  38.237   7.172
 5504POPC   C1B69175  11.103  38.537   6.391
 5504POPC   C2B69176  11.434  38.479   6.715
 5504POPC   C3B69177  11.440  38.733   7.109
 5504POPC   C4B69178  10.969  38.802   7.186
 5505POPC   NC369179  12.154   2.337   5.483
 5505POPC   PO469180  11.896   1.659   5.422
 5505POPC   GL169181  11.921   1.926   5.774
 5505POPC   GL269182  12.261   2.025   5.887
 5505POPC   C1A69183  11.908   1.786   6.201
 5505POPC   D2A69184  12.099   1.843   6.580
 5505POPC   C3A69185  11.830   1.768   6.914
 5505POPC   C4A69186  11.984   1.960   7.279
 5505POPC   C1B69187  12.513   2.025   6.267
 5505POPC   C2B69188  12.570   2.277   6.646
 5505POPC   C3B69189  12.309   2.170   6.954
 5505POPC   C4B69190  12.364   1.721   7.024
 5506POPC   NC369191  24.090  36.450   5.244
 5506POPC   PO469192  24.723  36.110   5.320
 5506POPC   GL169193  24.516  35.948   5.758
 5506POPC   GL269194  24.198  36.167   5.888
 5506POPC   C1A69195  24.415  35.867   6.217
 5506POPC   D2A69196  24.381  36.107   6.576
 5506POPC   C3A69197  24.312  35.877   6.923
 5506POPC   C4A69198  24.510  35.997   7.279
 5506POPC   C1B69199  23.963  36.131   6.273
 5506POPC   C2B69200  23.933  36.402   6.611
 5506POPC   C3B69201  24.124  36.357   6.986
 5506POPC   C4B69202  24.003  36.108   7.288
 5507POPC   NC369203  30.096   8.539   5.612
 5507POPC   PO469204  29.787   9.169   5.579
 5507POPC   GL169205  29.967   8.951   5.896
 5507POPC   GL269206  29.661   8.713   5.847
 5507POPC   C1A69207  30.083   9.159   6.308
 5507POPC   D2A69208  30.063   9.307   6.730
 5507POPC   C3A69209  30.191   9.004   7.046
 5507POPC   C4A69210  30.308   9.023   7.515
 5507POPC   C1B69211  29.613   8.892   6.245
 5507POPC   C2B69212  29.765   8.874   6.639
 5507POPC   C3B69213  29.653   9.078   6.983
 5507POPC   C4B69214  29.797   8.928   7.355
 5508POPC   NC369215   9.866  30.936   5.390
 5508POPC   PO469216   9.386  30.554   5.452
 5508POPC   GL169217   9.644  30.656   5.787
 5508POPC   GL269218   9.939  30.517   5.674
 5508POPC   C1A69219   9.517  30.526   6.216
 5508POPC   D2A69220   9.490  30.285   6.595
 5508POPC   C3A69221   9.671  30.521   6.952
 5508POPC   C4A69222   9.707  30.776   7.322
 5508POPC   C1B69223  10.031  30.564   6.116
 5508POPC   C2B69224   9.990  30.391   6.517
 5508POPC   C3B69225  10.171  30.367   6.899
 5508POPC   C4B69226  10.057  30.405   7.294
 5509POPC   NC369227  23.285  20.486   5.318
 5509POPC   PO469228  22.656  20.906   5.230
 5509POPC   GL169229  22.814  20.765   5.680
 5509POPC   GL269230  23.032  20.469   5.791
 5509POPC   C1A69231  22.956  20.803   6.159
 5509POPC   D2A69232  23.086  20.645   6.593
 5509POPC   C3A69233  22.801  20.751   6.935
 5509POPC   C4A69234  22.995  20.852   7.397
 5509POPC   C1B69235  23.230  20.348   6.184
 5509POPC   C2B69236  23.178  20.137   6.564
 5509POPC   C3B69237  23.300  20.253   6.939
 5509POPC   C4B69238  23.013  20.390   7.185
 5510POPC   NC369239  44.562  32.574   5.246
 5510POPC   PO469240  44.577  33.153   5.658
 5510POPC   GL169241  44.778  33.065   5.999
 5510POPC   GL269242  44.608  33.314   6.189
 5510POPC   C1A69243  44.839  32.748   6.312
 5510POPC   D2A69244  44.639  32.767   6.701
 5510POPC   C3A69245  44.819  33.055   6.985
 5510POPC   C4A69246   0.119  32.850   7.201
 5510POPC   C1B69247  44.347  32.965   6.312
 5510POPC   C2B69248  44.116  32.894   6.689
 5510POPC   C3B69249  44.288  32.880   7.079
 5510POPC   C4B69250  44.443  33.247   7.259
 5511POPC   NC369251  25.486  40.451   5.405
 5511POPC   PO469252  25.842  41.001   5.370
 5511POPC   GL169253  25.425  40.968   5.682
 5511POPC   GL269254  25.233  40.710   5.901
 5511POPC   C1A69255  25.433  41.083   6.146
 5511POPC   D2A69256  25.274  40.801   6.488
 5511POPC   C3A69257  25.523  40.685   6.845
 5511POPC   C4A69258  25.459  40.780   7.276
 5511POPC   C1B69259  25.218  40.355   6.213
 5511POPC   C2B69260  25.204  40.301   6.664
 5511POPC   C3B69261  25.183  40.373   7.105
 5511POPC   C4B69262  25.213  40.405   7.561
 5512POPC   NC369263  40.398   8.190   5.441
 5512POPC   PO469264  39.821   7.922   5.243
 5512POPC   GL169265  39.922   7.854   5.723
 5512POPC   GL269266  40.280   7.868   5.839
 5512POPC   C1A69267  39.892   8.056   6.165
 5512POPC   D2A69268  40.092   8.004   6.593
 5512POPC   C3A69269  39.884   8.145   6.970
 5512POPC   C4A69270  39.546   8.047   7.246
 5512POPC   C1B69271  40.400   8.180   6.171
 5512POPC   C2B69272  40.536   8.311   6.585
 5512POPC   C3B69273  40.364   8.371   6.993
 5512POPC   C4B69274  40.277   8.089   7.323
 5513POPC   NC369275  35.225  34.847   5.326
 5513POPC   PO469276  35.542  34.336   5.702
 5513POPC   GL169277  35.501  34.741   5.785
 5513POPC   GL269278  35.148  34.699   5.856
 5513POPC   C1A69279  35.521  34.740   6.219
 5513POPC   D2A69280  35.170  34.769   6.524
 5513POPC   C3A69281  35.234  34.596   6.941
 5513POPC   C4A69282  35.529  34.641   7.294
 5513POPC   C1B69283  35.189  34.355   6.219
 5513POPC   C2B69284  35.012  34.251   6.607
 5513POPC   C3B69285  34.837  34.292   7.012
 5513POPC   C4B69286  35.004  34.422   7.451
 5514POPC   NC369287  18.664  43.137   5.344
 5514POPC   PO469288  18.643  42.493   5.467
 5514POPC   GL169289  18.710  42.841   5.755
 5514POPC   GL269290  19.054  43.042   5.682
 5514POPC   C1A69291  18.763  43.156   6.085
 5514POPC   D2A69292  19.006  43.145   6.461
 5514POPC   C3A69293  18.897  42.949   6.827
 5514POPC   C4A69294  18.801  43.262   7.070
 5514POPC   C1B69295  19.344  43.243   6.023
 5514POPC   C2B69296  19.445  43.397   6.465
 5514POPC   C3B69297  19.343  43.247   6.889
 5514POPC   C4B69298  19.492  43.506   7.221
 5515POPC   NC369299   3.045  11.388   5.278
 5515POPC   PO469300   2.385  11.290   5.248
 5515POPC   GL169301   2.517  11.396   5.677
 5515POPC   GL269302   2.370  11.680   5.817
 5515POPC   C1A69303   2.653  11.274   6.105
 5515POPC   D2A69304   2.588  11.389   6.534
 5515POPC   C3A69305   2.812  11.190   6.875
 5515POPC   C4A69306   2.778  11.024   7.279
 5515POPC   C1B69307   2.587  11.789   6.200
 5515POPC   C2B69308   2.480  11.900   6.608
 5515POPC   C3B69309   2.459  11.638   6.952
 5515POPC   C4B69310   2.736  11.552   7.236
 5516POPC   NC369311  35.847  36.266   5.777
 5516POPC   PO469312  35.514  36.297   5.235
 5516POPC   GL169313  35.364  36.336   5.783
 5516POPC   GL269314  35.485  36.030   6.021
 5516POPC   C1A69315  35.093  36.263   6.199
 5516POPC   D2A69316  35.290  35.959   6.500
 5516POPC   C3A69317  35.506  36.015   6.883
 5516POPC   C4A69318  35.310  35.920   7.280
 5516POPC   C1B69319  35.558  36.373   6.378
 5516POPC   C2B69320  35.287  36.477   6.750
 5516POPC   C3B69321  35.322  36.408   7.200
 5516POPC   C4B69322  35.726  36.215   7.309
 5517POPC   NC369323  13.596   9.249   5.099
 5517POPC   PO469324  13.734   9.916   5.428
 5517POPC   GL169325  13.629   9.933   5.828
 5517POPC   GL269326  13.592   9.608   5.869
 5517POPC   C1A69327  13.758   9.918   6.243
 5517POPC   D2A69328  13.533   9.957   6.600
 5517POPC   C3A69329  13.375   9.937   7.025
 5517POPC   C4A69330  13.579   9.922   7.418
 5517POPC   C1B69331  13.589   9.407   6.225
 5517POPC   C2B69332  13.617   9.428   6.630
 5517POPC   C3B69333  13.599   9.495   7.045
 5517POPC   C4B69334  14.015   9.485   7.176
 5518POPC   NC369335  35.582  14.522   5.391
 5518POPC   PO469336  35.122  14.083   5.394
 5518POPC   GL169337  35.254  14.256   5.749
 5518POPC   GL269338  35.577  14.173   5.764
 5518POPC   C1A69339  35.203  14.587   6.052
 5518POPC   D2A69340  35.375  14.699   6.442
 5518POPC   C3A69341  35.180  14.649   6.867
 5518POPC   C4A69342  35.334  14.555   7.298
 5518POPC   C1B69343  35.714  14.397   6.100
 5518POPC   C2B69344  35.681  14.300   6.515
 5518POPC   C3B69345  35.674  14.378   6.945
 5518POPC   C4B69346  35.789  14.214   7.339
 5519POPC   NC369347  35.254   6.202   5.594
 5519POPC   PO469348  35.021   5.619   5.476
 5519POPC   GL169349  35.203   5.711   5.857
 5519POPC   GL269350  35.548   5.817   5.893
 5519POPC   C1A69351  35.201   5.829   6.285
 5519POPC   D2A69352  35.079   6.157   6.571
 5519POPC   C3A69353  35.271   6.024   6.954
 5519POPC   C4A69354  35.212   5.654   7.141
 5519POPC   C1B69355  35.717   5.713   6.293
 5519POPC   C2B69356  35.599   5.625   6.720
 5519POPC   C3B69357  35.717   5.763   7.128
 5519POPC   C4B69358  35.529   5.836   7.524
 5520POPC   NC369359   4.009  36.530   5.397
 5520POPC   PO469360   4.281  37.047   5.485
 5520POPC   GL169361   4.174  36.794   5.811
 5520POPC   GL269362   4.504  36.649   5.908
 5520POPC   C1A69363   4.218  36.900   6.228
 5520POPC   D2A69364   4.303  36.691   6.598
 5520POPC   C3A69365   4.262  36.988   6.913
 5520POPC   C4A69366   4.187  37.215   7.271
 5520POPC   C1B69367   4.511  36.341   6.253
 5520POPC   C2B69368   4.580  36.271   6.691
 5520POPC   C3B69369   4.660  36.610   6.998
 5520POPC   C4B69370   4.362  36.716   7.329
 5521POPC   NC369371  31.934  30.609   5.279
 5521POPC   PO469372  32.508  31.032   5.519
 5521POPC   GL169373  32.352  30.766   5.834
 5521POPC   GL269374  32.019  30.659   5.795
 5521POPC   C1A69375  32.454  30.757   6.238
 5521POPC   D2A69376  32.259  30.858   6.607
 5521POPC   C3A69377  32.412  30.707   7.002
 5521POPC   C4A69378  32.332  30.757   7.427
 5521POPC   C1B69379  32.023  30.434   6.164
 5521POPC   C2B69380  31.945  30.225   6.516
 5521POPC   C3B69381  31.987  30.479   6.825
 5521POPC   C4B69382  31.973  30.444   7.203
 5522POPC   NC369383  15.203  11.017   5.372
 5522POPC   PO469384  15.675  11.399   5.646
 5522POPC   GL169385  15.243  11.414   5.799
 5522POPC   GL269386  15.202  11.094   5.874
 5522POPC   C1A69387  14.942  11.472   6.149
 5522POPC   D2A69388  14.832  11.454   6.580
 5522POPC   C3A69389  15.228  11.406   6.794
 5522POPC   C4A69390  15.416  11.514   7.179
 5522POPC   C1B69391  15.355  11.173   6.292
 5522POPC   C2B69392  15.506  10.894   6.610
 5522POPC   C3B69393  15.425  10.980   7.010
 5522POPC   C4B69394  15.281  11.081   7.404
 5523POPC   NC369395  34.485  27.979   5.179
 5523POPC   PO469396  34.626  28.545   5.282
 5523POPC   GL169397  34.660  28.285   5.684
 5523POPC   GL269398  34.349  28.205   5.886
 5523POPC   C1A69399  34.715  28.428   6.144
 5523POPC   D2A69400  34.573  28.698   6.498
 5523POPC   C3A69401  34.606  28.536   6.921
 5523POPC   C4A69402  34.660  28.117   7.120
 5523POPC   C1B69403  34.183  28.493   6.219
 5523POPC   C2B69404  34.175  28.329   6.642
 5523POPC   C3B69405  34.171  28.333   7.079
 5523POPC   C4B69406  34.211  28.195   7.478
 5524POPC   NC369407  35.839   6.510   5.397
 5524POPC   PO469408  36.557   6.379   5.436
 5524POPC   GL169409  36.254   6.529   5.789
 5524POPC   GL269410  35.989   6.789   5.832
 5524POPC   C1A69411  36.291   6.670   6.244
 5524POPC   D2A69412  36.126   6.583   6.676
 5524POPC   C3A69413  36.287   6.581   7.100
 5524POPC   C4A69414  36.545   6.780   7.320
 5524POPC   C1B69415  35.799   6.653   6.255
 5524POPC   C2B69416  35.633   6.673   6.669
 5524POPC   C3B69417  35.808   6.711   7.087
 5524POPC   C4B69418  35.940   6.616   7.520
 5525POPC   NC369419  25.549  25.461   5.381
 5525POPC   PO469420  25.147  25.025   5.233
 5525POPC   GL169421  25.202  25.033   5.703
 5525POPC   GL269422  25.251  25.387   5.816
 5525POPC   C1A69423  25.275  25.031   6.174
 5525POPC   D2A69424  25.544  25.087   6.531
 5525POPC   C3A69425  25.352  25.009   6.947
 5525POPC   C4A69426  24.997  25.207   7.144
 5525POPC   C1B69427  25.421  25.523   6.256
 5525POPC   C2B69428  25.331  25.511   6.701
 5525POPC   C3B69429  25.276  25.632   7.093
 5525POPC   C4B69430  25.174  25.854   7.460
 5526POPC   NC369431  33.163   1.013   5.527
 5526POPC   PO469432  32.978   0.289   5.373
 5526POPC   GL169433  33.121   0.513   5.729
 5526POPC   GL269434  32.828   0.592   5.801
 5526POPC   C1A69435  33.305   0.567   6.147
 5526POPC   D2A69436  33.138   0.600   6.580
 5526POPC   C3A69437  33.259   0.347   6.930
 5526POPC   C4A69438  33.352   0.479   7.336
 5526POPC   C1B69439  32.765   0.647   6.233
 5526POPC   C2B69440  32.759   0.976   6.544
 5526POPC   C3B69441  32.861   0.937   6.975
 5526POPC   C4B69442  32.865   0.656   7.338
 5527POPC   NC369443  27.354  11.183   5.357
 5527POPC   PO469444  27.363  11.845   5.483
 5527POPC   GL169445  27.543  11.499   5.787
 5527POPC   GL269446  27.572  11.102   5.815
 5527POPC   C1A69447  27.764  11.513   6.197
 5527POPC   D2A69448  27.997  11.293   6.533
 5527POPC   C3A69449  27.884  11.297   6.980
 5527POPC   C4A69450  27.588  11.438   7.289
 5527POPC   C1B69451  27.313  11.239   6.176
 5527POPC   C2B69452  27.464  11.295   6.608
 5527POPC   C3B69453  27.388  11.079   6.977
 5527POPC   C4B69454  27.399  10.939   7.387
 5528POPC   NC369455   8.995  32.617   5.434
 5528POPC   PO469456   8.800  31.942   5.417
 5528POPC   GL169457   8.909  32.180   5.763
 5528POPC   GL269458   9.259  32.191   5.703
 5528POPC   C1A69459   8.711  32.270   6.175
 5528POPC   D2A69460   8.764  32.474   6.585
 5528POPC   C3A69461   8.584  32.365   6.965
 5528POPC   C4A69462   8.802  32.160   7.299
 5528POPC   C1B69463   9.328  32.019   6.109
 5528POPC   C2B69464   9.176  32.032   6.530
 5528POPC   C3B69465   9.146  32.254   6.926
 5528POPC   C4B69466   9.330  32.204   7.341
 5529POPC   NC369467  20.036  20.031   5.049
 5529POPC   PO469468  19.684  19.604   5.443
 5529POPC   GL169469  19.788  19.892   5.746
 5529POPC   GL269470  20.120  19.836   5.830
 5529POPC   C1A69471  19.775  19.973   6.176
 5529POPC   D2A69472  19.576  19.741   6.485
 5529POPC   C3A69473  19.770  19.732   6.889
 5529POPC   C4A69474  19.657  19.976   7.261
 5529POPC   C1B69475  20.163  19.618   6.234
 5529POPC   C2B69476  20.241  19.506   6.662
 5529POPC   C3B69477  20.285  19.748   7.036
 5529POPC   C4B69478  20.031  19.663   7.371
 5530POPC   NC369479   6.078  33.813   5.499
 5530POPC   PO469480   5.459  34.104   5.465
 5530POPC   GL169481   5.645  33.915   5.789
 5530POPC   GL269482   5.851  34.164   5.834
 5530POPC   C1A69483   5.616  33.799   6.235
 5530POPC   D2A69484   5.927  33.535   6.450
 5530POPC   C3A69485   5.883  33.513   6.897
 5530POPC   C4A69486   5.803  33.691   7.313
 5530POPC   C1B69487   6.042  34.060   6.209
 5530POPC   C2B69488   6.164  33.946   6.623
 5530POPC   C3B69489   5.913  34.021   6.938
 5530POPC   C4B69490   5.801  34.192   7.307
 5531POPC   NC369491   4.058   0.976   5.446
 5531POPC   PO469492   4.514   1.406   5.701
 5531POPC   GL169493   4.338   1.072   5.907
 5531POPC   GL269494   3.952   0.978   5.933
 5531POPC   C1A69495   4.332   1.010   6.337
 5531POPC   D2A69496   4.218   1.194   6.735
 5531POPC   C3A69497   4.264   1.078   7.159
 5531POPC   C4A69498   4.510   1.425   7.308
 5531POPC   C1B69499   3.979   1.360   6.128
 5531POPC   C2B69500   3.859   1.471   6.484
 5531POPC   C3B69501   3.927   1.675   6.822
 5531POPC   C4B69502   3.985   1.505   7.182
 5532POPC   NC369503  26.902  37.014   5.582
 5532POPC   PO469504  26.816  37.663   5.403
 5532POPC   GL169505  27.036  37.590   5.782
 5532POPC   GL269506  27.313  37.320   5.753
 5532POPC   C1A69507  26.796  37.605   6.173
 5532POPC   D2A69508  26.609  37.785   6.554
 5532POPC   C3A69509  26.624  37.559   6.943
 5532POPC   C4A69510  26.644  37.876   7.255
 5532POPC   C1B69511  27.309  37.463   6.204
 5532POPC   C2B69512  27.043  37.449   6.587
 5532POPC   C3B69513  27.136  37.387   7.004
 5532POPC   C4B69514  26.925  37.412   7.375
 5533POPC   NC369515  13.769  21.085   5.062
 5533POPC   PO469516  13.374  20.571   5.418
 5533POPC   GL169517  13.409  20.500   5.861
 5533POPC   GL269518  13.617  20.782   5.864
 5533POPC   C1A69519  13.531  20.570   6.319
 5533POPC   D2A69520  13.910  20.634   6.604
 5533POPC   C3A69521  13.844  20.477   7.031
 5533POPC   C4A69522  13.474  20.491   7.326
 5533POPC   C1B69523  13.427  21.057   6.188
 5533POPC   C2B69524  13.537  21.001   6.616
 5533POPC   C3B69525  13.389  20.652   6.842
 5533POPC   C4B69526  13.196  20.961   7.068
 5534POPC   NC369527  11.539  15.747   5.537
 5534POPC   PO469528  11.120  15.165   5.555
 5534POPC   GL169529  11.193  15.468   5.823
 5534POPC   GL269530  11.526  15.336   5.844
 5534POPC   C1A69531  11.045  15.400   6.211
 5534POPC   D2A69532  10.810  15.300   6.542
 5534POPC   C3A69533  11.005  15.244   6.886
 5534POPC   C4A69534  11.059  15.501   7.195
 5534POPC   C1B69535  11.544  15.491   6.242
 5534POPC   C2B69536  11.444  15.182   6.567
 5534POPC   C3B69537  11.423  15.002   6.974
 5534POPC   C4B69538  11.535  15.264   7.330
 5535POPC   NC369539  16.773  32.803   5.450
 5535POPC   PO469540  16.403  33.308   5.166
 5535POPC   GL169541  16.553  33.233   5.672
 5535POPC   GL269542  16.494  32.896   5.888
 5535POPC   C1A69543  16.785  33.286   6.111
 5535POPC   D2A69544  16.738  33.402   6.576
 5535POPC   C3A69545  16.742  33.101   6.920
 5535POPC   C4A69546  16.548  33.125   7.324
 5535POPC   C1B69547  16.578  32.899   6.370
 5535POPC   C2B69548  16.938  32.743   6.594
 5535POPC   C3B69549  17.001  32.601   6.995
 5535POPC   C4B69550  16.962  32.852   7.341
 5536POPC   NC369551  37.063  32.251   5.030
 5536POPC   PO469552  36.953  32.090   5.620
 5536POPC   GL169553  36.751  32.369   5.910
 5536POPC   GL269554  37.020  32.255   6.100
 5536POPC   C1A69555  36.652  32.447   6.366
 5536POPC   D2A69556  36.827  32.164   6.670
 5536POPC   C3A69557  36.899  32.290   7.108
 5536POPC   C4A69558  36.577  32.400   7.431
 5536POPC   C1B69559  37.131  32.639   6.307
 5536POPC   C2B69560  37.076  32.751   6.726
 5536POPC   C3B69561  37.300  32.652   7.117
 5536POPC   C4B69562  37.271  32.352   7.486
 5537POPC   NC369563  19.708  31.472   5.207
 5537POPC   PO469564  20.360  31.599   5.385
 5537POPC   GL169565  19.990  31.451   5.685
 5537POPC   GL269566  19.600  31.472   5.705
 5537POPC   C1A69567  19.876  31.295   6.111
 5537POPC   D2A69568  19.712  31.469   6.520
 5537POPC   C3A69569  19.825  31.352   6.928
 5537POPC   C4A69570  19.950  31.256   7.351
 5537POPC   C1B69571  19.419  31.534   6.108
 5537POPC   C2B69572  19.263  31.224   6.408
 5537POPC   C3B69573  19.470  31.016   6.762
 5537POPC   C4B69574  19.458  31.127   7.202
 5538POPC   NC369575  32.475  18.212   5.243
 5538POPC   PO469576  31.889  18.001   5.368
 5538POPC   GL169577  32.180  18.268   5.670
 5538POPC   GL269578  32.265  18.002   5.886
 5538POPC   C1A69579  32.157  18.481   6.106
 5538POPC   D2A69580  32.426  18.566   6.479
 5538POPC   C3A69581  32.289  18.672   6.871
 5538POPC   C4A69582  32.152  18.467   7.206
 5538POPC   C1B69583  32.556  18.125   6.227
 5538POPC   C2B69584  32.700  18.168   6.670
 5538POPC   C3B69585  32.573  18.183   7.130
 5538POPC   C4B69586  32.532  17.837   7.449
 5539POPC   NC369587  17.801  41.650   5.497
 5539POPC   PO469588  17.516  41.078   5.463
 5539POPC   GL169589  17.543  41.378   5.839
 5539POPC   GL269590  17.706  41.633   6.002
 5539POPC   C1A69591  17.299  41.470   6.234
 5539POPC   D2A69592  17.442  41.739   6.566
 5539POPC   C3A69593  17.576  41.515   6.909
 5539POPC   C4A69594  17.337  41.427   7.224
 5539POPC   C1B69595  17.756  42.004   6.231
 5539POPC   C2B69596  17.851  42.114   6.668
 5539POPC   C3B69597  17.877  41.883   7.063
 5539POPC   C4B69598  17.808  41.933   7.564
 5540POPC   NC369599  43.589  22.589   5.451
 5540POPC   PO469600  43.952  23.130   5.190
 5540POPC   GL169601  43.815  23.062   5.673
 5540POPC   GL269602  43.906  22.751   5.814
 5540POPC   C1A69603  44.005  23.140   6.138
 5540POPC   D2A69604  43.782  23.192   6.523
 5540POPC   C3A69605  43.930  23.130   6.945
 5540POPC   C4A69606  43.983  23.205   7.375
 5540POPC   C1B69607  43.852  22.655   6.233
 5540POPC   C2B69608  43.907  22.716   6.639
 5540POPC   C3B69609  43.667  22.661   6.992
 5540POPC   C4B69610  43.967  22.693   7.285
 5541POPC   NC369611  13.925  22.155   5.058
 5541POPC   PO469612  14.259  21.727   5.433
 5541POPC   GL169613  14.293  22.079   5.726
 5541POPC   GL269614  14.644  22.168   5.776
 5541POPC   C1A69615  14.288  22.277   6.141
 5541POPC   D2A69616  14.533  22.211   6.524
 5541POPC   C3A69617  14.315  22.266   6.907
 5541POPC   C4A69618  14.368  22.114   7.313
 5541POPC   C1B69619  14.785  22.436   6.131
 5541POPC   C2B69620  14.970  22.483   6.561
 5541POPC   C3B69621  14.822  22.329   6.959
 5541POPC   C4B69622  14.860  22.156   7.387
 5542POPC   NC369623  27.132  35.582   5.352
 5542POPC   PO469624  26.703  35.074   5.488
 5542POPC   GL169625  26.802  35.399   5.776
 5542POPC   GL269626  27.140  35.475   5.854
 5542POPC   C1A69627  26.778  35.458   6.223
 5542POPC   D2A69628  26.952  35.576   6.614
 5542POPC   C3A69629  26.948  35.390   7.019
 5542POPC   C4A69630  26.702  35.473   7.364
 5542POPC   C1B69631  27.154  35.101   6.088
 5542POPC   C2B69632  27.271  35.157   6.516
 5542POPC   C3B69633  27.339  34.984   6.899
 5542POPC   C4B69634  27.115  34.895   7.256
 5543POPC   NC369635  19.945   4.497   5.128
 5543POPC   PO469636  19.571   4.257   5.643
 5543POPC   GL169637  19.936   4.143   5.833
 5543POPC   GL269638  20.133   4.462   5.824
 5543POPC   C1A69639  20.197   4.104   6.189
 5543POPC   D2A69640  20.275   4.031   6.630
 5543POPC   C3A69641  19.966   4.261   6.830
 5543POPC   C4A69642  19.875   4.302   7.235
 5543POPC   C1B69643  19.875   4.481   6.241
 5543POPC   C2B69644  19.521   4.476   6.512
 5543POPC   C3B69645  19.437   4.348   6.908
 5543POPC   C4B69646  19.398   4.092   7.236
 5544POPC   NC369647  27.309  14.633   5.539
 5544POPC   PO469648  27.856  14.258   5.419
 5544POPC   GL169649  27.551  14.290   5.830
 5544POPC   GL269650  27.370  14.594   6.047
 5544POPC   C1A69651  27.429  14.140   6.252
 5544POPC   D2A69652  27.710  14.134   6.619
 5544POPC   C3A69653  27.566  14.297   7.026
 5544POPC   C4A69654  27.764  14.564   7.331
 5544POPC   C1B69655  27.642  14.610   6.386
 5544POPC   C2B69656  27.543  14.729   6.779
 5544POPC   C3B69657  27.348  14.832   7.170
 5544POPC   C4B69658  27.335  14.769   7.642
 5545POPC   NC369659  33.092  31.984   5.107
 5545POPC   PO469660  32.811  32.442   5.525
 5545POPC   GL169661  32.924  32.366   5.909
 5545POPC   GL269662  33.285  32.461   6.003
 5545POPC   C1A69663  32.956  31.977   6.135
 5545POPC   D2A69664  32.770  31.915   6.545
 5545POPC   C3A69665  33.017  32.127   6.840
 5545POPC   C4A69666  33.240  32.131   7.259
 5545POPC   C1B69667  33.083  32.408   6.377
 5545POPC   C2B69668  33.089  32.722   6.644
 5545POPC   C3B69669  33.106  32.582   7.011
 5545POPC   C4B69670  32.782  32.340   7.241
 5546POPC   NC369671  19.210   0.600   5.379
 5546POPC   PO469672  18.657   0.221   5.375
 5546POPC   GL169673  18.844   0.394   5.748
 5546POPC   GL269674  18.831   0.761   5.696
 5546POPC   C1A69675  18.891   0.505   6.200
 5546POPC   D2A69676  19.162   0.524   6.570
 5546POPC   C3A69677  19.058   0.454   6.980
 5546POPC   C4A69678  19.210   0.634   7.384
 5546POPC   C1B69679  18.689   0.982   6.077
 5546POPC   C2B69680  18.731   1.080   6.524
 5546POPC   C3B69681  18.836   0.933   6.952
 5546POPC   C4B69682  18.703   0.653   7.293
 5547POPC   NC369683   8.028  13.731   5.489
 5547POPC   PO469684   8.675  13.828   5.619
 5547POPC   GL169685   8.521  13.713   5.961
 5547POPC   GL269686   8.359  13.441   5.818
 5547POPC   C1A69687   8.408  13.840   6.353
 5547POPC   D2A69688   8.235  13.810   6.736
 5547POPC   C3A69689   8.425  13.725   7.112
 5547POPC   C4A69690   8.280  13.450   7.443
 5547POPC   C1B69691   8.047  13.524   6.157
 5547POPC   C2B69692   7.959  13.383   6.599
 5547POPC   C3B69693   7.915  13.535   7.048
 5547POPC   C4B69694   7.656  13.364   7.383
 5548POPC   NC369695  34.948  13.042   4.962
 5548POPC   PO469696  35.265  12.716   5.453
 5548POPC   GL169697  35.270  12.918   5.813
 5548POPC   GL269698  35.249  12.606   5.990
 5548POPC   C1A69699  35.277  13.076   6.216
 5548POPC   D2A69700  34.989  13.192   6.499
 5548POPC   C3A69701  35.144  13.200   6.887
 5548POPC   C4A69702  35.262  13.019   7.260
 5548POPC   C1B69703  35.493  12.630   6.375
 5548POPC   C2B69704  35.489  12.745   6.805
 5548POPC   C3B69705  35.389  12.541   7.170
 5548POPC   C4B69706  35.578  12.743   7.553
 5549POPC   NC369707   3.145   9.701   5.148
 5549POPC   PO469708   2.765   9.378   5.483
 5549POPC   GL169709   3.059   9.494   5.810
 5549POPC   GL269710   2.855   9.774   5.929
 5549POPC   C1A69711   3.190   9.572   6.252
 5549POPC   D2A69712   2.969   9.666   6.626
 5549POPC   C3A69713   3.123   9.642   7.050
 5549POPC   C4A69714   2.771   9.793   7.313
 5549POPC   C1B69715   2.640   9.419   6.152
 5549POPC   C2B69716   2.533   9.303   6.568
 5549POPC   C3B69717   2.656   9.413   6.957
 5549POPC   C4B69718   2.395   9.425   7.272
 5550POPC   NC369719   1.375   9.355   5.612
 5550POPC   PO469720   1.207   9.984   5.415
 5550POPC   GL169721   1.355   9.843   5.803
 5550POPC   GL269722   1.034   9.654   5.885
 5550POPC   C1A69723   1.268   9.923   6.237
 5550POPC   D2A69724   1.013   9.818   6.594
 5550POPC   C3A69725   1.214   9.814   6.983
 5550POPC   C4A69726   1.399  10.110   7.278
 5550POPC   C1B69727   1.143   9.390   6.258
 5550POPC   C2B69728   1.144   9.339   6.694
 5550POPC   C3B69729   1.025   9.368   7.101
 5550POPC   C4B69730   0.977   9.650   7.456
 5551POPC   NC369731  42.792  32.447   5.432
 5551POPC   PO469732  43.251  31.923   5.450
 5551POPC   GL169733  43.201  32.238   5.765
 5551POPC   GL269734  42.863  32.117   5.821
 5551POPC   C1A69735  43.479  32.270   6.157
 5551POPC   D2A69736  43.514  31.995   6.536
 5551POPC   C3A69737  43.465  32.240   6.912
 5551POPC   C4A69738  43.270  32.221   7.310
 5551POPC   C1B69739  43.022  32.046   6.227
 5551POPC   C2B69740  43.020  32.176   6.628
 5551POPC   C3B69741  42.752  32.186   6.959
 5551POPC   C4B69742  42.803  32.001   7.310
 5552POPC   NC369743   0.193  29.375   5.374
 5552POPC   PO469744   0.716  28.831   5.518
 5552POPC   GL169745   0.399  29.019   5.792
 5552POPC   GL269746   0.408  29.386   5.868
 5552POPC   C1A69747   0.350  28.922   6.230
 5552POPC   D2A69748   0.409  29.154   6.609
 5552POPC   C3A69749   0.733  29.048   6.916
 5552POPC   C4A69750   0.496  29.100   7.273
 5552POPC   C1B69751   0.113  29.512   6.231
 5552POPC   C2B69752   0.027  29.507   6.687
 5552POPC   C3B69753   0.350  29.538   6.994
 5552POPC   C4B69754   0.301  29.534   7.410
 5553POPC   NC369755   6.307  11.007   5.506
 5553POPC   PO469756   6.722  11.468   5.388
 5553POPC   GL169757   6.763  11.358   5.811
 5553POPC   GL269758   6.918  11.040   5.757
 5553POPC   C1A69759   6.708  11.323   6.272
 5553POPC   D2A69760   6.589  11.259   6.705
 5553POPC   C3A69761   6.679  11.405   7.136
 5553POPC   C4A69762   6.411  11.523   7.472
 5553POPC   C1B69763   7.000  10.917   6.199
 5553POPC   C2B69764   7.072  11.122   6.580
 5553POPC   C3B69765   7.050  11.086   7.005
 5553POPC   C4B69766   7.168  11.302   7.349
 5554POPC   NC369767  19.828  42.936   5.408
 5554POPC   PO469768  19.671  43.533   5.444
 5554POPC   GL169769  19.880  43.396   5.821
 5554POPC   GL269770  20.022  43.052   5.849
 5554POPC   C1A69771  19.906  43.299   6.257
 5554POPC   D2A69772  20.083  43.117   6.600
 5554POPC   C3A69773  19.870  43.410   6.852
 5554POPC   C4A69774  19.982  43.310   7.238
 5554POPC   C1B69775  20.032  42.786   6.208
 5554POPC   C2B69776  19.867  42.648   6.624
 5554POPC   C3B69777  19.759  42.931   6.958
 5554POPC   C4B69778  19.566  43.015   7.347
 5555POPC   NC369779  10.648  32.319   5.378
 5555POPC   PO469780   9.954  32.001   5.472
 5555POPC   GL169781  10.297  32.118   5.755
 5555POPC   GL269782  10.647  32.230   5.868
 5555POPC   C1A69783  10.333  32.066   6.207
 5555POPC   D2A69784  10.526  32.168   6.600
 5555POPC   C3A69785  10.286  32.122   6.948
 5555POPC   C4A69786  10.400  32.149   7.315
 5555POPC   C1B69787  10.884  32.088   6.233
 5555POPC   C2B69788  11.030  32.237   6.601
 5555POPC   C3B69789  10.843  32.301   7.018
 5555POPC   C4B69790  10.820  31.888   7.192
 5556POPC   NC369791  11.521  12.354   5.431
 5556POPC   PO469792  11.034  11.822   5.607
 5556POPC   GL169793  11.336  12.030   5.863
 5556POPC   GL269794  11.118  12.282   5.876
 5556POPC   C1A69795  11.370  12.297   6.294
 5556POPC   D2A69796  11.553  12.502   6.650
 5556POPC   C3A69797  11.339  12.243   6.963
 5556POPC   C4A69798  11.300  12.138   7.419
 5556POPC   C1B69799  10.828  12.179   6.230
 5556POPC   C2B69800  10.808  12.010   6.665
 5556POPC   C3B69801  10.937  11.908   7.093
 5556POPC   C4B69802  10.909  11.811   7.539
 5557POPC   NC369803  10.208   0.722   5.277
 5557POPC   PO469804  10.770   0.341   5.450
 5557POPC   GL169805  10.639   0.522   5.846
 5557POPC   GL269806  10.450   0.797   5.813
 5557POPC   C1A69807  10.675   0.432   6.296
 5557POPC   D2A69808  10.537   0.163   6.636
 5557POPC   C3A69809  10.635   0.298   7.074
 5557POPC   C4A69810  10.503   0.409   7.529
 5557POPC   C1B69811  10.320   0.791   6.253
 5557POPC   C2B69812  10.333   0.627   6.679
 5557POPC   C3B69813  10.334   0.708   7.113
 5557POPC   C4B69814  10.279   0.901   7.529
 5558POPC   NC369815  16.901   1.715   5.583
 5558POPC   PO469816  16.568   2.264   5.894
 5558POPC   GL169817  16.869   2.071   6.060
 5558POPC   GL269818  16.665   1.775   6.031
 5558POPC   C1A69819  16.799   1.947   6.478
 5558POPC   D2A69820  16.439   1.958   6.701
 5558POPC   C3A69821  16.692   2.070   7.006
 5558POPC   C4A69822  16.630   2.209   7.347
 5558POPC   C1B69823  17.044   1.616   6.182
 5558POPC   C2B69824  17.082   1.503   6.561
 5558POPC   C3B69825  16.768   1.558   6.855
 5558POPC   C4B69826  16.929   1.644   7.223
 5559POPC   NC369827  11.368  21.392   4.985
 5559POPC   PO469828  11.532  21.532   5.595
 5559POPC   GL169829  11.445  21.313   5.940
 5559POPC   GL269830  11.196  21.547   5.997
 5559POPC   C1A69831  11.421  21.303   6.380
 5559POPC   D2A69832  11.406  21.469   6.762
 5559POPC   C3A69833  11.555  21.266   7.077
 5559POPC   C4A69834  11.540  21.317   7.516
 5559POPC   C1B69835  10.933  21.248   6.167
 5559POPC   C2B69836  10.912  21.132   6.588
 5559POPC   C3B69837  10.937  21.379   6.944
 5559POPC   C4B69838  11.082  21.162   7.285
 5560POPC   NC369839  26.953  10.451   5.421
 5560POPC   PO469840  26.307  10.729   5.482
 5560POPC   GL169841  26.688  10.672   5.784
 5560POPC   GL269842  26.842  10.331   5.899
 5560POPC   C1A69843  27.044  10.742   6.096
 5560POPC   D2A69844  27.173  10.871   6.520
 5560POPC   C3A69845  26.898  10.961   6.861
 5560POPC   C4A69846  26.852  10.737   7.266
 5560POPC   C1B69847  26.720  10.362   6.308
 5560POPC   C2B69848  26.857  10.485   6.715
 5560POPC   C3B69849  26.907  10.266   7.094
 5560POPC   C4B69850  26.658  10.235   7.453
 5561POPC   NC369851  11.175   8.291   5.331
 5561POPC   PO469852  11.566   7.705   5.228
 5561POPC   GL169853  11.365   7.981   5.665
 5561POPC   GL269854  11.443   8.308   5.788
 5561POPC   C1A69855  11.377   7.952   6.159
 5561POPC   D2A69856  11.356   8.078   6.558
 5561POPC   C3A69857  11.531   7.896   6.910
 5561POPC   C4A69858  11.323   7.935   7.260
 5561POPC   C1B69859  11.486   8.552   6.163
 5561POPC   C2B69860  11.339   8.588   6.569
 5561POPC   C3B69861  11.380   8.372   6.974
 5561POPC   C4B69862  11.329   8.409   7.424
 5562POPC   NC369863  14.900  14.968   5.143
 5562POPC   PO469864  15.332  14.477   5.320
 5562POPC   GL169865  15.061  14.266   5.624
 5562POPC   GL269866  15.331  14.255   5.837
 5562POPC   C1A69867  14.857  14.140   6.036
 5562POPC   D2A69868  14.966  13.907   6.440
 5562POPC   C3A69869  14.910  14.056   6.857
 5562POPC   C4A69870  15.034  14.074   7.269
 5562POPC   C1B69871  15.260  14.345   6.277
 5562POPC   C2B69872  15.290  14.345   6.706
 5562POPC   C3B69873  15.372  14.438   7.132
 5562POPC   C4B69874  15.484  14.670   7.505
 5563POPC   NC369875  41.505  19.729   5.386
 5563POPC   PO469876  41.908  20.143   5.321
 5563POPC   GL169877  41.782  19.934   5.758
 5563POPC   GL269878  41.394  19.891   5.849
 5563POPC   C1A69879  41.725  19.900   6.227
 5563POPC   D2A69880  41.475  20.022   6.594
 5563POPC   C3A69881  41.696  20.073   6.976
 5563POPC   C4A69882  41.889  19.944   7.346
 5563POPC   C1B69883  41.303  19.610   6.221
 5563POPC   C2B69884  41.164  19.614   6.661
 5563POPC   C3B69885  41.334  19.622   7.114
 5563POPC   C4B69886  41.265  19.524   7.608
 5564POPC   NC369887  14.472  27.552   5.500
 5564POPC   PO469888  13.851  27.542   5.373
 5564POPC   GL169889  14.059  27.473   5.791
 5564POPC   GL269890  14.209  27.793   5.896
 5564POPC   C1A69891  14.276  27.389   6.199
 5564POPC   D2A69892  14.374  27.592   6.592
 5564POPC   C3A69893  14.493  27.365   6.986
 5564POPC   C4A69894  14.270  27.344   7.395
 5564POPC   C1B69895  14.569  27.918   6.189
 5564POPC   C2B69896  14.757  27.993   6.611
 5564POPC   C3B69897  14.593  27.871   7.026
 5564POPC   C4B69898  14.659  27.659   7.439
 5565POPC   NC369899  28.737  29.236   5.252
 5565POPC   PO469900  29.294  29.077   5.574
 5565POPC   GL169901  28.957  29.155   5.830
 5565POPC   GL269902  28.626  29.025   5.714
 5565POPC   C1A69903  29.155  29.163   6.231
 5565POPC   D2A69904  29.119  28.922   6.571
 5565POPC   C3A69905  29.148  29.119   6.958
 5565POPC   C4A69906  29.216  29.199   7.388
 5565POPC   C1B69907  28.700  28.751   6.083
 5565POPC   C2B69908  28.636  28.700   6.522
 5565POPC   C3B69909  28.849  28.669   6.902
 5565POPC   C4B69910  28.872  28.825   7.276
 5566POPC   NC369911  20.512   7.747   5.448
 5566POPC   PO469912  20.734   6.994   5.331
 5566POPC   GL169913  20.791   7.206   5.726
 5566POPC   GL269914  20.433   7.223   5.759
 5566POPC   C1A69915  20.869   7.474   6.113
 5566POPC   D2A69916  20.890   7.649   6.558
 5566POPC   C3A69917  20.654   7.477   6.865
 5566POPC   C4A69918  20.500   7.447   7.272
 5566POPC   C1B69919  20.541   7.071   6.173
 5566POPC   C2B69920  20.798   7.072   6.571
 5566POPC   C3B69921  20.890   7.068   7.028
 5566POPC   C4B69922  20.812   7.111   7.488
 5567POPC   NC369923  30.311  31.127   5.541
 5567POPC   PO469924  30.030  30.580   5.273
 5567POPC   GL169925  29.952  30.536   5.725
 5567POPC   GL269926  30.190  30.775   5.892
 5567POPC   C1A69927  29.754  30.521   6.154
 5567POPC   D2A69928  29.873  30.343   6.570
 5567POPC   C3A69929  29.833  30.490   7.008
 5567POPC   C4A69930  30.130  30.429   7.348
 5567POPC   C1B69931  30.251  30.638   6.313
 5567POPC   C2B69932  30.234  30.680   6.762
 5567POPC   C3B69933  30.351  30.836   7.155
 5567POPC   C4B69934  30.247  30.887   7.578
 5568POPC   NC369935  37.735  32.871   5.397
 5568POPC   PO469936  37.235  33.035   5.784
 5568POPC   GL169937  37.655  33.143   5.852
 5568POPC   GL269938  37.955  32.940   5.842
 5568POPC   C1A69939  37.896  33.255   6.238
 5568POPC   D2A69940  37.978  33.056   6.658
 5568POPC   C3A69941  37.659  33.040   7.016
 5568POPC   C4A69942  37.781  33.143   7.495
 5568POPC   C1B69943  37.686  32.769   6.179
 5568POPC   C2B69944  37.629  32.678   6.591
 5568POPC   C3B69945  37.860  32.545   6.934
 5568POPC   C4B69946  37.778  32.653   7.361
 5569POPC   NC369947  35.530  13.876   5.303
 5569POPC   PO469948  35.159  13.405   5.138
 5569POPC   GL169949  35.408  13.419   5.578
 5569POPC   GL269950  35.333  13.733   5.768
 5569POPC   C1A69951  35.613  13.409   6.033
 5569POPC   D2A69952  35.460  13.492   6.479
 5569POPC   C3A69953  35.631  13.353   6.902
 5569POPC   C4A69954  35.385  13.522   7.266
 5569POPC   C1B69955  35.340  13.937   6.211
 5569POPC   C2B69956  35.371  13.950   6.703
 5569POPC   C3B69957  35.305  14.044   7.158
 5569POPC   C4B69958  35.042  13.861   7.493
 5570POPC   NC369959  28.210   0.674   5.449
 5570POPC   PO469960  28.486   0.108   5.502
 5570POPC   GL169961  28.373   0.373   5.866
 5570POPC   GL269962  28.137   0.659   5.947
 5570POPC   C1A69963  28.533   0.483   6.261
 5570POPC   D2A69964  28.388   0.375   6.653
 5570POPC   C3A69965  28.561   0.510   6.973
 5570POPC   C4A69966  28.852   0.392   7.241
 5570POPC   C1B69967  28.010   0.453   6.310
 5570POPC   C2B69968  27.890   0.419   6.744
 5570POPC   C3B69969  28.086   0.358   7.129
 5570POPC   C4B69970  28.136   0.096   7.507
 5571POPC   NC369971  38.267  39.975   5.444
 5571POPC   PO469972  38.847  39.881   5.105
 5571POPC   GL169973  38.660  39.959   5.729
 5571POPC   GL269974  38.254  39.918   5.941
 5571POPC   C1A69975  38.566  40.235   6.136
 5571POPC   D2A69976  38.334  40.095   6.526
 5571POPC   C3A69977  38.538  39.931   6.888
 5571POPC   C4A69978  38.443  39.757   7.300
 5571POPC   C1B69979  37.948  40.206   6.201
 5571POPC   C2B69980  37.882  40.355   6.649
 5571POPC   C3B69981  38.028  40.415   7.104
 5571POPC   C4B69982  38.061  40.416   7.603
 5572POPC   NC369983  39.467  36.595   5.669
 5572POPC   PO469984  39.135  36.140   5.472
 5572POPC   GL169985  39.042  35.987   5.857
 5572POPC   GL269986  38.688  35.879   5.739
 5572POPC   C1A69987  39.332  36.105   6.189
 5572POPC   D2A69988  39.497  36.198   6.608
 5572POPC   C3A69989  39.578  35.942   6.969
 5572POPC   C4A69990  39.405  36.223   7.273
 5572POPC   C1B69991  38.740  35.801   6.206
 5572POPC   C2B69992  38.974  36.005   6.539
 5572POPC   C3B69993  39.025  36.095   6.963
 5572POPC   C4B69994  38.942  35.784   7.291
 5573POPC   NC369995  31.913  38.254   5.410
 5573POPC   PO469996  31.231  38.070   5.419
 5573POPC   GL169997  31.457  38.405   5.641
 5573POPC   GL269998  31.202  38.366   5.890
 5573POPC   C1A69999  31.656  38.532   6.057
 5573POPC   D2A70000  31.506  38.782   6.439
 5573POPC   C3A70001  31.399  38.588   6.831
 5573POPC   C4A70002  31.443  38.671   7.260
 5573POPC   C1B70003  31.240  38.360   6.355
 5573POPC   C2B70004  31.421  38.088   6.670
 5573POPC   C3B70005  31.376  37.947   7.097
 5573POPC   C4B70006  31.464  38.194   7.454
 5574POPC   NC370007  40.043  19.303   5.446
 5574POPC   PO470008  39.506  18.987   5.520
 5574POPC   GL170009  39.842  19.012   5.870
 5574POPC   GL270010  40.184  19.175   5.902
 5574POPC   C1A70011  39.865  19.168   6.312
 5574POPC   D2A70012  39.632  19.218   6.701
 5574POPC   C3A70013  39.893  19.149   7.049
 5574POPC   C4A70014  39.976  19.038   7.491
 5574POPC   C1B70015  40.237  18.816   6.169
 5574POPC   C2B70016  40.350  18.919   6.583
 5574POPC   C3B70017  40.403  19.070   6.992
 5574POPC   C4B70018  40.275  18.729   7.185
 5575POPC   NC370019  17.847   1.983   5.400
 5575POPC   PO470020  17.171   2.041   5.334
 5575POPC   GL170021  17.314   1.985   5.775
 5575POPC   GL270022  17.617   2.190   5.827
 5575POPC   C1A70023  17.355   2.022   6.243
 5575POPC   D2A70024  17.186   2.233   6.617
 5575POPC   C3A70025  17.218   1.978   6.951
 5575POPC   C4A70026  17.523   2.144   7.214
 5575POPC   C1B70027  17.859   1.864   6.098
 5575POPC   C2B70028  17.960   1.596   6.485
 5575POPC   C3B70029  17.813   1.686   6.922
 5575POPC   C4B70030  17.928   1.864   7.335
 5576POPC   NC370031   6.791  40.115   5.314
 5576POPC   PO470032   7.153  39.500   5.525
 5576POPC   GL170033   6.749  39.746   5.694
 5576POPC   GL270034   6.794  40.109   5.812
 5576POPC   C1A70035   6.431  39.812   6.056
 5576POPC   D2A70036   6.406  39.671   6.516
 5576POPC   C3A70037   6.593  39.790   6.925
 5576POPC   C4A70038   6.520  39.657   7.356
 5576POPC   C1B70039   6.998  40.300   6.179
 5576POPC   C2B70040   7.022  40.389   6.620
 5576POPC   C3B70041   6.989  40.395   7.061
 5576POPC   C4B70042   7.014  40.388   7.506
 5577POPC   NC370043  26.839  24.658   5.559
 5577POPC   PO470044  26.909  25.254   5.167
 5577POPC   GL170045  26.914  25.141   5.651
 5577POPC   GL270046  26.796  25.412   5.804
 5577POPC   C1A70047  26.815  24.984   6.143
 5577POPC   D2A70048  26.809  25.166   6.595
 5577POPC   C3A70049  27.080  25.240   6.968
 5577POPC   C4A70050  26.875  25.272   7.395
 5577POPC   C1B70051  26.721  25.492   6.224
 5577POPC   C2B70052  26.860  25.679   6.590
 5577POPC   C3B70053  26.681  25.554   6.959
 5577POPC   C4B70054  26.462  25.546   7.291
 5578POPC   NC370055  34.974  31.422   5.371
 5578POPC   PO470056  34.266  31.367   5.324
 5578POPC   GL170057  34.539  31.289   5.709
 5578POPC   GL270058  34.780  31.551   5.828
 5578POPC   C1A70059  34.661  31.143   6.126
 5578POPC   D2A70060  34.491  31.245   6.520
 5578POPC   C3A70061  34.695  31.256   6.946
 5578POPC   C4A70062  34.623  31.387   7.392
 5578POPC   C1B70063  34.757  31.646   6.277
 5578POPC   C2B70064  34.634  31.717   6.713
 5578POPC   C3B70065  34.845  31.735   7.124
 5578POPC   C4B70066  35.082  31.776   7.558
 5579POPC   NC370067  41.206  30.558   5.153
 5579POPC   PO470068  41.848  30.510   5.304
 5579POPC   GL170069  41.649  30.517   5.735
 5579POPC   GL270070  41.310  30.658   5.711
 5579POPC   C1A70071  41.699  30.651   6.175
 5579POPC   D2A70072  41.900  30.906   6.536
 5579POPC   C3A70073  41.701  30.864   6.952
 5579POPC   C4A70074  41.481  30.539   7.164
 5579POPC   C1B70075  41.195  30.712   6.149
 5579POPC   C2B70076  41.361  30.727   6.570
 5579POPC   C3B70077  41.173  30.902   6.924
 5579POPC   C4B70078  41.068  30.776   7.334
 5580POPC   NC370079  20.645   3.628   5.423
 5580POPC   PO470080  20.184   4.161   5.346
 5580POPC   GL170081  20.335   3.827   5.776
 5580POPC   GL270082  20.424   3.420   5.830
 5580POPC   C1A70083  20.395   3.654   6.261
 5580POPC   D2A70084  20.679   3.701   6.604
 5580POPC   C3A70085  20.521   3.630   7.007
 5580POPC   C4A70086  20.216   3.707   7.300
 5580POPC   C1B70087  20.858   3.475   6.132
 5580POPC   C2B70088  21.089   3.404   6.584
 5580POPC   C3B70089  21.027   3.509   7.072
 5580POPC   C4B70090  20.984   3.220   7.483
 5581POPC   NC370091   9.177  43.246   5.220
 5581POPC   PO470092   9.140  42.652   5.533
 5581POPC   GL170093   9.102  43.049   5.733
 5581POPC   GL270094   8.756  43.140   5.666
 5581POPC   C1A70095   9.087  43.144   6.191
 5581POPC   D2A70096   9.268  43.424   6.524
 5581POPC   C3A70097   9.126  43.241   6.847
 5581POPC   C4A70098   8.845  43.221   7.147
 5581POPC   C1B70099   8.611  42.965   6.079
 5581POPC   C2B70100   8.580  43.130   6.530
 5581POPC   C3B70101   8.447  42.960   6.950
 5581POPC   C4B70102   8.523  42.919   7.417
 5582POPC   NC370103  39.696  16.232   5.493
 5582POPC   PO470104  40.336  15.925   5.310
 5582POPC   GL170105  40.131  15.979   5.721
 5582POPC   GL270106  40.158  16.347   5.761
 5582POPC   C1A70107  40.052  15.826   6.159
 5582POPC   D2A70108  40.271  15.597   6.505
 5582POPC   C3A70109  40.103  15.611   6.927
 5582POPC   C4A70110  39.811  15.869   7.116
 5582POPC   C1B70111  39.886  16.328   6.130
 5582POPC   C2B70112  39.933  16.160   6.558
 5582POPC   C3B70113  39.883  16.345   6.957
 5582POPC   C4B70114  39.753  16.355   7.377
 5583POPC   NC370115  29.568  36.270   5.311
 5583POPC   PO470116  28.937  35.950   5.404
 5583POPC   GL170117  29.129  35.967   5.801
 5583POPC   GL270118  29.275  36.285   5.809
 5583POPC   C1A70119  28.919  36.077   6.239
 5583POPC   D2A70120  29.102  36.288   6.621
 5583POPC   C3A70121  29.094  36.083   7.013
 5583POPC   C4A70122  28.998  36.087   7.436
 5583POPC   C1B70123  29.412  36.042   6.208
 5583POPC   C2B70124  29.589  36.021   6.593
 5583POPC   C3B70125  29.589  36.175   6.987
 5583POPC   C4B70126  29.491  35.995   7.374
 5584POPC   NC370127  42.593  33.149   5.627
 5584POPC   PO470128  43.170  32.806   5.472
 5584POPC   GL170129  42.998  32.926   5.859
 5584POPC   GL270130  42.745  32.698   5.884
 5584POPC   C1A70131  42.805  33.027   6.271
 5584POPC   D2A70132  42.826  32.954   6.719
 5584POPC   C3A70133  43.208  33.076   6.959
 5584POPC   C4A70134  43.109  33.164   7.384
 5584POPC   C1B70135  43.018  32.552   6.231
 5584POPC   C2B70136  43.228  32.634   6.649
 5584POPC   C3B70137  43.025  32.606   7.075
 5584POPC   C4B70138  43.115  32.650   7.547
 5585POPC   NC370139  21.817  38.907   5.377
 5585POPC   PO470140  22.153  39.491   5.374
 5585POPC   GL170141  22.092  39.305   5.796
 5585POPC   GL270142  22.302  39.034   5.826
 5585POPC   C1A70143  22.015  39.364   6.266
 5585POPC   D2A70144  22.108  39.614   6.651
 5585POPC   C3A70145  22.070  39.548   7.085
 5585POPC   C4A70146  21.963  39.246   7.366
 5585POPC   C1B70147  22.438  39.045   6.236
 5585POPC   C2B70148  22.223  39.042   6.632
 5585POPC   C3B70149  22.319  39.096   7.048
 5585POPC   C4B70150  22.376  38.941   7.474
 5586POPC   NC370151  12.238  29.975   5.575
 5586POPC   PO470152  11.780  29.544   5.304
 5586POPC   GL170153  11.836  29.661   5.768
 5586POPC   GL270154  11.814  30.032   5.877
 5586POPC   C1A70155  11.920  29.715   6.252
 5586POPC   D2A70156  11.788  30.088   6.507
 5586POPC   C3A70157  11.661  30.058   6.929
 5586POPC   C4A70158  11.854  29.902   7.265
 5586POPC   C1B70159  12.151  30.183   6.172
 5586POPC   C2B70160  12.379  29.981   6.508
 5586POPC   C3B70161  12.221  29.975   6.920
 5586POPC   C4B70162  12.188  30.321   7.219
 5587POPC   NC370163   8.198  21.839   5.450
 5587POPC   PO470164   8.081  22.462   5.554
 5587POPC   GL170165   8.214  22.150   5.880
 5587POPC   GL270166   8.483  21.878   5.886
 5587POPC   C1A70167   8.093  21.961   6.271
 5587POPC   D2A70168   8.222  22.004   6.696
 5587POPC   C3A70169   8.097  22.357   6.968
 5587POPC   C4A70170   7.938  22.211   7.361
 5587POPC   C1B70171   8.571  22.147   6.296
 5587POPC   C2B70172   8.644  22.289   6.731
 5587POPC   C3B70173   8.505  22.124   7.124
 5587POPC   C4B70174   8.410  22.345   7.538
 5588POPC   NC370175  15.732  31.754   5.405
 5588POPC   PO470176  16.205  31.434   5.422
 5588POPC   GL170177  15.926  31.490   5.820
 5588POPC   GL270178  15.673  31.788   5.895
 5588POPC   C1A70179  15.908  31.257   6.223
 5588POPC   D2A70180  15.921  31.440   6.646
 5588POPC   C3A70181  15.948  31.153   7.015
 5588POPC   C4A70182  16.321  31.099   7.222
 5588POPC   C1B70183  15.590  31.644   6.290
 5588POPC   C2B70184  15.403  31.587   6.677
 5588POPC   C3B70185  15.644  31.565   7.053
 5588POPC   C4B70186  16.131  31.587   7.185
 5589POPC   NC370187   7.898  18.989   5.406
 5589POPC   PO470188   8.511  19.187   5.173
 5589POPC   GL170189   8.357  19.030   5.640
 5589POPC   GL270190   8.224  19.329   5.747
 5589POPC   C1A70191   8.105  18.999   6.103
 5589POPC   D2A70192   8.248  18.867   6.539
 5589POPC   C3A70193   8.138  19.077   6.924
 5589POPC   C4A70194   8.511  19.059   7.161
 5589POPC   C1B70195   8.307  19.536   6.147
 5589POPC   C2B70196   8.168  19.499   6.572
 5589POPC   C3B70197   8.394  19.533   6.938
 5589POPC   C4B70198   8.286  19.477   7.340
 5590POPC   NC370199  35.895  38.557   5.470
 5590POPC   PO470200  36.377  38.057   5.436
 5590POPC   GL170201  36.345  38.356   5.774
 5590POPC   GL270202  36.598  38.122   5.890
 5590POPC   C1A70203  36.174  38.555   6.165
 5590POPC   D2A70204  36.013  38.450   6.587
 5590POPC   C3A70205  36.064  38.716   6.933
 5590POPC   C4A70206  35.650  38.806   7.079
 5590POPC   C1B70207  36.478  37.898   6.235
 5590POPC   C2B70208  36.352  38.012   6.647
 5590POPC   C3B70209  36.308  38.256   6.965
 5590POPC   C4B70210  36.307  38.228   7.356
 5591POPC   NC370211   6.940  26.775   5.445
 5591POPC   PO470212   6.246  26.684   5.419
 5591POPC   GL170213   6.500  26.657   5.794
 5591POPC   GL270214   6.721  26.882   5.879
 5591POPC   C1A70215   6.401  26.733   6.232
 5591POPC   D2A70216   6.637  26.734   6.580
 5591POPC   C3A70217   6.383  26.726   6.933
 5591POPC   C4A70218   6.448  26.508   7.273
 5591POPC   C1B70219   6.971  27.003   6.235
 5591POPC   C2B70220   7.107  26.967   6.637
 5591POPC   C3B70221   6.818  26.991   6.981
 5591POPC   C4B70222   6.529  27.009   7.345
 5592POPC   NC370223   1.294  39.044   5.402
 5592POPC   PO470224   0.849  39.452   5.580
 5592POPC   GL170225   1.114  39.203   5.870
 5592POPC   GL270226   1.397  38.926   5.867
 5592POPC   C1A70227   1.350  39.244   6.257
 5592POPC   D2A70228   1.196  39.124   6.623
 5592POPC   C3A70229   1.308  39.392   6.958
 5592POPC   C4A70230   1.201  39.320   7.367
 5592POPC   C1B70231   1.411  38.721   6.244
 5592POPC   C2B70232   1.537  38.751   6.664
 5592POPC   C3B70233   1.387  38.873   7.052
 5592POPC   C4B70234   1.509  38.928   7.499
 5593POPC   NC370235  35.175  44.405   5.339
 5593POPC   PO470236  35.437   0.138   5.408
 5593POPC   GL170237  35.489   0.072   5.819
 5593POPC   GL270238  35.210  44.836   5.795
 5593POPC   C1A70239  35.503  44.883   6.224
 5593POPC   D2A70240  35.577  44.564   6.511
 5593POPC   C3A70241  35.572  44.758   6.898
 5593POPC   C4A70242  35.485  44.591   7.294
 5593POPC   C1B70243  35.083  44.624   6.193
 5593POPC   C2B70244  35.097  44.745   6.605
 5593POPC   C3B70245  35.097  44.570   6.993
 5593POPC   C4B70246  34.977  44.742   7.393
 5594POPC   NC370247   4.980  11.441   5.105
 5594POPC   PO470248   5.134  10.808   5.185
 5594POPC   GL170249   5.171  11.171   5.544
 5594POPC   GL270250   4.980  11.438   5.647
 5594POPC   C1A70251   5.341  11.262   6.006
 5594POPC   D2A70252   5.251  11.000   6.431
 5594POPC   C3A70253   5.090  11.118   6.851
 5594POPC   C4A70254   5.260  11.369   7.162
 5594POPC   C1B70255   4.890  11.495   6.078
 5594POPC   C2B70256   4.789  11.481   6.536
 5594POPC   C3B70257   4.798  11.592   6.994
 5594POPC   C4B70258   4.813  11.433   7.427
 5595POPC   NC370259  10.211   8.101   5.143
 5595POPC   PO470260   9.849   8.440   5.553
 5595POPC   GL170261   9.986   8.118   5.821
 5595POPC   GL270262   9.660   8.185   5.987
 5595POPC   C1A70263  10.071   8.077   6.273
 5595POPC   D2A70264   9.776   8.147   6.586
 5595POPC   C3A70265   9.924   8.416   6.904
 5595POPC   C4A70266   9.773   8.323   7.273
 5595POPC   C1B70267   9.324   7.982   6.224
 5595POPC   C2B70268   9.253   8.168   6.617
 5595POPC   C3B70269   9.361   8.184   7.033
 5595POPC   C4B70270   9.238   8.326   7.455
 5596POPC   NC370271  10.012  29.137   5.488
 5596POPC   PO470272   9.366  28.998   5.291
 5596POPC   GL170273   9.566  29.234   5.718
 5596POPC   GL270274   9.849  29.524   5.801
 5596POPC   C1A70275   9.764  29.124   6.132
 5596POPC   D2A70276   9.603  28.966   6.532
 5596POPC   C3A70277   9.686  28.776   6.932
 5596POPC   C4A70278   9.746  29.056   7.298
 5596POPC   C1B70279  10.118  29.506   6.173
 5596POPC   C2B70280  10.182  29.132   6.456
 5596POPC   C3B70281  10.083  29.080   6.887
 5596POPC   C4B70282  10.152  29.383   7.219
 5597POPC   NC370283  28.822  31.668   5.502
 5597POPC   PO470284  29.399  31.199   5.398
 5597POPC   GL170285  29.221  31.428   5.716
 5597POPC   GL270286  28.993  31.163   5.739
 5597POPC   C1A70287  29.129  31.544   6.148
 5597POPC   D2A70288  29.007  31.747   6.553
 5597POPC   C3A70289  29.272  31.655   6.922
 5597POPC   C4A70290  29.099  31.593   7.331
 5597POPC   C1B70291  28.844  31.114   6.140
 5597POPC   C2B70292  28.864  31.236   6.593
 5597POPC   C3B70293  29.060  31.159   7.011
 5597POPC   C4B70294  29.123  31.098   7.480
 5598POPC   NC370295  27.869  19.422   5.427
 5598POPC   PO470296  27.318  19.794   5.459
 5598POPC   GL170297  27.421  19.825   5.845
 5598POPC   GL270298  27.758  19.692   5.852
 5598POPC   C1A70299  27.486  19.940   6.256
 5598POPC   D2A70300  27.327  20.103   6.635
 5598POPC   C3A70301  27.510  19.918   7.047
 5598POPC   C4A70302  27.733  20.030   7.450
 5598POPC   C1B70303  27.879  19.602   6.269
 5598POPC   C2B70304  27.685  19.621   6.649
 5598POPC   C3B70305  27.761  19.309   6.951
 5598POPC   C4B70306  27.649  19.492   7.314
 5599POPC   NC370307   2.670  28.436   5.330
 5599POPC   PO470308   3.118  28.058   5.654
 5599POPC   GL170309   2.796  28.301   5.841
 5599POPC   GL270310   2.728  28.677   5.781
 5599POPC   C1A70311   2.819  28.268   6.292
 5599POPC   D2A70312   2.930  28.180   6.692
 5599POPC   C3A70313   2.792  28.473   6.978
 5599POPC   C4A70314   2.494  28.333   7.271
 5599POPC   C1B70315   2.463  28.573   6.124
 5599POPC   C2B70316   2.419  28.509   6.582
 5599POPC   C3B70317   2.358  28.763   6.974
 5599POPC   C4B70318   2.469  28.808   7.431
 5600POPC   NC370319  13.069  29.690   5.105
 5600POPC   PO470320  12.642  30.118   5.357
 5600POPC   GL170321  12.821  29.994   5.747
 5600POPC   GL270322  13.154  29.847   5.791
 5600POPC   C1A70323  12.769  29.811   6.175
 5600POPC   D2A70324  13.045  29.698   6.524
 5600POPC   C3A70325  12.779  29.618   6.888
 5600POPC   C4A70326  12.607  29.843   7.239
 5600POPC   C1B70327  13.152  30.144   6.181
 5600POPC   C2B70328  12.912  30.202   6.560
 5600POPC   C3B70329  13.014  30.076   6.990
 5600POPC   C4B70330  13.183  30.267   7.369
 5601POPC   NC370331  13.154  27.014   5.237
 5601POPC   PO470332  12.634  26.569   5.331
 5601POPC   GL170333  12.705  26.823   5.694
 5601POPC   GL270334  12.677  26.530   5.872
 5601POPC   C1A70335  12.950  26.926   6.100
 5601POPC   D2A70336  13.022  26.832   6.562
 5601POPC   C3A70337  12.666  26.827   6.872
 5601POPC   C4A70338  12.697  27.090   7.231
 5601POPC   C1B70339  12.955  26.424   6.208
 5601POPC   C2B70340  12.787  26.374   6.606
 5601POPC   C3B70341  12.971  26.404   6.996
 5601POPC   C4B70342  12.837  26.607   7.345
 5602POPC   NC370343   0.909   5.948   5.718
 5602POPC   PO470344   1.500   5.726   5.587
 5602POPC   GL170345   1.487   6.016   5.980
 5602POPC   GL270346   1.295   5.748   6.110
 5602POPC   C1A70347   1.526   6.007   6.483
 5602POPC   D2A70348   1.257   5.682   6.690
 5602POPC   C3A70349   1.291   5.549   7.144
 5602POPC   C4A70350   1.229   5.797   7.515
 5602POPC   C1B70351   1.045   6.094   6.332
 5602POPC   C2B70352   1.050   6.300   6.727
 5602POPC   C3B70353   1.049   5.987   7.061
 5602POPC   C4B70354   0.781   5.608   7.087
 5603POPC   NC370355   2.888  43.491   5.548
 5603POPC   PO470356   2.698  42.907   5.529
 5603POPC   GL170357   2.725  43.006   5.941
 5603POPC   GL270358   2.657  43.352   5.976
 5603POPC   C1A70359   2.747  42.974   6.403
 5603POPC   D2A70360   2.918  42.901   6.813
 5603POPC   C3A70361   2.670  43.139   7.087
 5603POPC   C4A70362   2.622  43.023   7.509
 5603POPC   C1B70363   3.095  43.268   6.168
 5603POPC   C2B70364   3.111  43.319   6.601
 5603POPC   C3B70365   3.124  43.426   7.035
 5603POPC   C4B70366   2.940  43.409   7.441
 5604POPC   NC370367  25.844  10.809   5.480
 5604POPC   PO470368  25.966  11.383   5.150
 5604POPC   GL170369  25.941  11.335   5.621
 5604POPC   GL270370  26.183  11.114   5.789
 5604POPC   C1A70371  25.876  11.554   6.028
 5604POPC   D2A70372  25.770  11.463   6.459
 5604POPC   C3A70373  26.020  11.543   6.836
 5604POPC   C4A70374  25.865  11.470   7.251
 5604POPC   C1B70375  25.980  11.059   6.164
 5604POPC   C2B70376  26.150  11.112   6.550
 5604POPC   C3B70377  25.986  11.057   6.934
 5604POPC   C4B70378  26.090  11.034   7.335
 5605POPC   NC370379   2.257  41.219   5.361
 5605POPC   PO470380   1.821  41.684   5.392
 5605POPC   GL170381   2.077  41.560   5.719
 5605POPC   GL270382   1.833  41.352   5.839
 5605POPC   C1A70383   2.212  41.653   6.126
 5605POPC   D2A70384   2.010  41.587   6.512
 5605POPC   C3A70385   2.219  41.689   6.878
 5605POPC   C4A70386   2.304  41.506   7.259
 5605POPC   C1B70387   1.618  41.539   6.185
 5605POPC   C2B70388   1.505  41.429   6.572
 5605POPC   C3B70389   1.651  41.593   6.939
 5605POPC   C4B70390   1.591  41.469   7.365
 5606POPC   NC370391  11.577  29.201   5.563
 5606POPC   PO470392  10.880  29.319   5.582
 5606POPC   GL170393  11.130  29.095   5.821
 5606POPC   GL270394  11.293  28.782   5.692
 5606POPC   C1A70395  11.101  29.183   6.227
 5606POPC   D2A70396  11.323  29.205   6.563
 5606POPC   C3A70397  11.069  29.146   6.898
 5606POPC   C4A70398  11.179  29.259   7.274
 5606POPC   C1B70399  11.471  28.845   6.134
 5606POPC   C2B70400  11.602  28.787   6.581
 5606POPC   C3B70401  11.562  28.981   6.987
 5606POPC   C4B70402  11.517  28.637   7.275
 5607POPC   NC370403  12.368  16.551   5.558
 5607POPC   PO470404  12.365  15.948   5.175
 5607POPC   GL170405  12.172  16.123   5.673
 5607POPC   GL270406  11.918  16.368   5.768
 5607POPC   C1A70407  11.997  15.965   6.097
 5607POPC   D2A70408  12.204  15.933   6.488
 5607POPC   C3A70409  11.975  15.904   6.864
 5607POPC   C4A70410  12.107  15.936   7.289
 5607POPC   C1B70411  12.153  16.451   6.179
 5607POPC   C2B70412  12.340  16.414   6.605
 5607POPC   C3B70413  12.260  16.336   7.036
 5607POPC   C4B70414  12.402  16.441   7.453
 5608POPC   NC370415  38.916  21.632   5.503
 5608POPC   PO470416  38.318  21.354   5.489
 5608POPC   GL170417  38.492  21.330   5.877
 5608POPC   GL270418  38.538  21.665   5.875
 5608POPC   C1A70419  38.828  21.408   6.199
 5608POPC   D2A70420  38.743  21.615   6.597
 5608POPC   C3A70421  38.464  21.347   6.827
 5608POPC   C4A70422  38.427  21.309   7.247
 5608POPC   C1B70423  38.369  21.830   6.246
 5608POPC   C2B70424  38.233  21.782   6.659
 5608POPC   C3B70425  38.485  21.819   7.037
 5608POPC   C4B70426  38.507  21.761   7.500
 5609POPC   NC370427  32.532  12.748   5.335
 5609POPC   PO470428  31.993  13.163   5.479
 5609POPC   GL170429  32.141  12.912   5.833
 5609POPC   GL270430  32.472  12.890   5.817
 5609POPC   C1A70431  32.038  12.952   6.266
 5609POPC   D2A70432  32.045  12.669   6.611
 5609POPC   C3A70433  32.137  12.829   6.990
 5609POPC   C4A70434  31.912  12.888   7.382
 5609POPC   C1B70435  32.734  12.642   6.080
 5609POPC   C2B70436  32.602  12.663   6.524
 5609POPC   C3B70437  32.657  12.752   6.970
 5609POPC   C4B70438  32.583  12.512   7.356
 5610POPC   NC370439  42.698  26.116   5.533
 5610POPC   PO470440  43.309  25.916   5.265
 5610POPC   GL170441  43.209  25.975   5.733
 5610POPC   GL270442  42.909  25.981   5.954
 5610POPC   C1A70443  43.329  26.024   6.212
 5610POPC   D2A70444  43.263  25.850   6.627
 5610POPC   C3A70445  43.207  26.053   7.025
 5610POPC   C4A70446  43.276  25.851   7.379
 5610POPC   C1B70447  42.882  26.348   6.230
 5610POPC   C2B70448  42.993  26.337   6.673
 5610POPC   C3B70449  42.790  26.381   7.103
 5610POPC   C4B70450  42.621  26.331   7.556
 5611POPC   NC370451   1.615   2.338   5.254
 5611POPC   PO470452   1.916   1.732   5.298
 5611POPC   GL170453   2.006   1.943   5.686
 5611POPC   GL270454   2.297   1.758   5.692
 5611POPC   C1A70455   1.815   2.018   6.111
 5611POPC   D2A70456   1.684   1.870   6.531
 5611POPC   C3A70457   1.798   2.129   6.879
 5611POPC   C4A70458   1.947   2.088   7.282
 5611POPC   C1B70459   2.143   1.613   6.084
 5611POPC   C2B70460   2.099   1.512   6.498
 5611POPC   C3B70461   2.047   1.690   6.916
 5611POPC   C4B70462   2.358   1.774   7.246
 5612POPC   NC370463   0.119  37.763   5.438
 5612POPC   PO470464  44.628  37.292   5.475
 5612POPC   GL170465  44.661  37.466   5.861
 5612POPC   GL270466  44.508  37.791   5.950
 5612POPC   C1A70467  44.851  37.551   6.233
 5612POPC   D2A70468  44.679  37.761   6.570
 5612POPC   C3A70469  44.538  37.508   6.905
 5612POPC   C4A70470  44.766  37.583   7.207
 5612POPC   C1B70471  44.291  37.951   6.253
 5612POPC   C2B70472  44.385  38.192   6.603
 5612POPC   C3B70473  44.560  38.064   7.005
 5612POPC   C4B70474  44.309  37.818   7.281
 5613POPC   NC370475  41.257  16.491   5.473
 5613POPC   PO470476  41.639  17.032   5.379
 5613POPC   GL170477  41.594  16.856   5.753
 5613POPC   GL270478  41.789  16.558   5.691
 5613POPC   C1A70479  41.448  16.981   6.187
 5613POPC   D2A70480  41.634  16.747   6.540
 5613POPC   C3A70481  41.605  16.886   6.949
 5613POPC   C4A70482  41.220  16.880   7.177
 5613POPC   C1B70483  41.616  16.497   6.102
 5613POPC   C2B70484  41.383  16.285   6.444
 5613POPC   C3B70485  41.262  16.501   6.817
 5613POPC   C4B70486  41.491  16.438   7.197
 5614POPC   NC370487  17.234  17.724   5.319
 5614POPC   PO470488  17.750  17.386   5.603
 5614POPC   GL170489  17.393  17.531   5.892
 5614POPC   GL270490  17.227  17.889   5.820
 5614POPC   C1A70491  17.377  17.335   6.327
 5614POPC   D2A70492  17.695  17.391   6.676
 5614POPC   C3A70493  17.490  17.479   7.066
 5614POPC   C4A70494  17.637  17.716   7.411
 5614POPC   C1B70495  17.352  17.946   6.250
 5614POPC   C2B70496  17.351  17.786   6.661
 5614POPC   C3B70497  17.223  17.916   7.089
 5614POPC   C4B70498  17.099  17.661   7.467
 5615POPC   NC370499  44.485  11.557   5.591
 5615POPC   PO470500  44.752  10.879   5.509
 5615POPC   GL170501  44.723  11.106   5.859
 5615POPC   GL270502  44.948  11.408   5.785
 5615POPC   C1A70503  44.628  10.972   6.295
 5615POPC   D2A70504  44.384  11.163   6.628
 5615POPC   C3A70505  44.503  11.284   7.023
 5615POPC   C4A70506  44.315  11.653   7.179
 5615POPC   C1B70507   0.042  11.297   6.218
 5615POPC   C2B70508  44.894  11.320   6.643
 5615POPC   C3B70509  44.749  11.703   6.850
 5615POPC   C4B70510  44.805  11.737   7.291
 5616POPC   NC370511  31.999   2.364   5.495
 5616POPC   PO470512  32.420   1.824   5.412
 5616POPC   GL170513  32.418   2.013   5.815
 5616POPC   GL270514  32.688   2.269   5.867
 5616POPC   C1A70515  32.196   1.865   6.199
 5616POPC   D2A70516  31.986   1.954   6.619
 5616POPC   C3A70517  32.218   1.902   7.010
 5616POPC   C4A70518  32.262   1.594   7.286
 5616POPC   C1B70519  32.449   2.289   6.265
 5616POPC   C2B70520  32.272   2.366   6.736
 5616POPC   C3B70521  31.924   2.293   7.080
 5616POPC   C4B70522  31.995   2.096   7.517
 5617POPC   NC370523  27.178   9.583   5.629
 5617POPC   PO470524  26.632  10.048   5.550
 5617POPC   GL170525  26.745   9.783   5.879
 5617POPC   GL270526  26.511   9.556   6.052
 5617POPC   C1A70527  26.935   9.819   6.287
 5617POPC   D2A70528  27.121   9.586   6.646
 5617POPC   C3A70529  26.930   9.712   7.021
 5617POPC   C4A70530  26.532   9.812   7.216
 5617POPC   C1B70531  26.423   9.919   6.302
 5617POPC   C2B70532  26.630  10.020   6.693
 5617POPC   C3B70533  26.414  10.277   6.970
 5617POPC   C4B70534  26.159  10.156   7.289
 5618POPC   NC370535  28.216  42.307   5.415
 5618POPC   PO470536  28.471  42.862   5.246
 5618POPC   GL170537  28.415  42.648   5.746
 5618POPC   GL270538  28.389  42.237   5.886
 5618POPC   C1A70539  28.323  42.578   6.229
 5618POPC   D2A70540  28.213  42.244   6.581
 5618POPC   C3A70541  28.309  42.370   7.002
 5618POPC   C4A70542  28.260  42.558   7.414
 5618POPC   C1B70543  28.566  42.029   6.277
 5618POPC   C2B70544  28.668  41.999   6.754
 5618POPC   C3B70545  28.396  41.885   7.116
 5618POPC   C4B70546  28.236  42.059   7.488
 5619POPC   NC370547  17.805  30.677   5.462
 5619POPC   PO470548  17.225  30.351   5.495
 5619POPC   GL170549  17.420  30.532   5.787
 5619POPC   GL270550  17.492  30.879   5.827
 5619POPC   C1A70551  17.542  30.481   6.163
 5619POPC   D2A70552  17.751  30.635   6.490
 5619POPC   C3A70553  17.548  30.514   6.844
 5619POPC   C4A70554  17.404  30.514   7.263
 5619POPC   C1B70555  17.262  30.921   6.225
 5619POPC   C2B70556  17.457  31.034   6.617
 5619POPC   C3B70557  17.649  30.987   7.024
 5619POPC   C4B70558  17.266  31.174   7.150
 5620POPC   NC370559  35.686  10.761   5.256
 5620POPC   PO470560  35.336  10.187   5.376
 5620POPC   GL170561  35.338  10.457   5.753
 5620POPC   GL270562  35.459  10.783   5.732
 5620POPC   C1A70563  35.620  10.540   6.147
 5620POPC   D2A70564  35.790  10.459   6.577
 5620POPC   C3A70565  35.492  10.306   6.901
 5620POPC   C4A70566  35.447  10.400   7.336
 5620POPC   C1B70567  35.186  10.799   6.138
 5620POPC   C2B70568  35.296  10.677   6.584
 5620POPC   C3B70569  35.310  10.849   7.027
 5620POPC   C4B70570  35.021  11.079   7.331
 5621POPC   NC370571  43.412   3.636   5.303
 5621POPC   PO470572  42.772   3.648   5.202
 5621POPC   GL170573  42.792   3.513   5.669
 5621POPC   GL270574  43.141   3.557   5.756
 5621POPC   C1A70575  42.836   3.605   6.150
 5621POPC   D2A70576  43.120   3.559   6.535
 5621POPC   C3A70577  43.044   3.504   6.990
 5621POPC   C4A70578  43.037   3.546   7.451
 5621POPC   C1B70579  43.330   3.808   6.114
 5621POPC   C2B70580  43.451   3.959   6.513
 5621POPC   C3B70581  43.564   3.779   6.892
 5621POPC   C4B70582  43.501   3.517   7.224
 5622POPC   NC370583  37.263  24.641   5.382
 5622POPC   PO470584  36.927  24.117   5.490
 5622POPC   GL170585  36.859  24.343   5.852
 5622POPC   GL270586  36.895  24.699   5.792
 5622POPC   C1A70587  36.806  24.414   6.279
 5622POPC   D2A70588  36.952  24.609   6.642
 5622POPC   C3A70589  36.611  24.563   6.927
 5622POPC   C4A70590  36.630  24.183   7.169
 5622POPC   C1B70591  36.877  24.921   6.202
 5622POPC   C2B70592  36.647  25.008   6.590
 5622POPC   C3B70593  36.878  25.008   6.974
 5622POPC   C4B70594  37.050  24.668   7.167
 5623POPC   NC370595  30.589  10.777   5.472
 5623POPC   PO470596  31.016  10.253   5.400
 5623POPC   GL170597  30.791  10.413   5.767
 5623POPC   GL270598  31.079  10.593   5.859
 5623POPC   C1A70599  30.642  10.581   6.201
 5623POPC   D2A70600  30.741  10.588   6.660
 5623POPC   C3A70601  30.475  10.770   6.929
 5623POPC   C4A70602  30.442  10.645   7.326
 5623POPC   C1B70603  31.029  10.236   6.164
 5623POPC   C2B70604  31.135  10.273   6.575
 5623POPC   C3B70605  30.962  10.236   6.953
 5623POPC   C4B70606  30.931  10.495   7.274
 5624POPC   NC370607  18.929   3.149   5.514
 5624POPC   PO470608  19.172   3.756   5.439
 5624POPC   GL170609  18.869   3.638   5.789
 5624POPC   GL270610  18.713   3.326   5.935
 5624POPC   C1A70611  19.047   3.687   6.205
 5624POPC   D2A70612  19.325   3.534   6.518
 5624POPC   C3A70613  19.221   3.709   6.923
 5624POPC   C4A70614  19.342   3.582   7.332
 5624POPC   C1B70615  18.739   3.288   6.376
 5624POPC   C2B70616  19.047   3.089   6.632
 5624POPC   C3B70617  19.195   3.157   7.044
 5624POPC   C4B70618  18.880   3.346   7.291
 5625POPC   NC370619   2.861  28.982   5.383
 5625POPC   PO470620   2.938  29.636   5.623
 5625POPC   GL170621   2.700  29.291   5.772
 5625POPC   GL270622   3.016  29.139   5.833
 5625POPC   C1A70623   2.617  29.080   6.162
 5625POPC   D2A70624   2.830  29.178   6.534
 5625POPC   C3A70625   2.626  29.187   6.904
 5625POPC   C4A70626   2.525  29.344   7.300
 5625POPC   C1B70627   3.060  28.835   6.135
 5625POPC   C2B70628   3.011  28.687   6.542
 5625POPC   C3B70629   3.111  28.880   6.929
 5625POPC   C4B70630   2.911  28.991   7.293
 5626POPC   NC370631  13.078  36.987   5.359
 5626POPC   PO470632  12.447  37.011   5.519
 5626POPC   GL170633  12.794  36.874   5.783
 5626POPC   GL270634  13.077  37.123   5.829
 5626POPC   C1A70635  12.863  36.904   6.233
 5626POPC   D2A70636  12.574  37.183   6.444
 5626POPC   C3A70637  12.575  37.196   6.900
 5626POPC   C4A70638  12.587  36.840   7.169
 5626POPC   C1B70639  13.322  37.130   6.186
 5626POPC   C2B70640  13.278  37.187   6.610
 5626POPC   C3B70641  13.011  36.891   6.811
 5626POPC   C4B70642  13.126  36.657   7.178
 5627POPC   NC370643  44.252  34.102   5.205
 5627POPC   PO470644  43.736  33.627   5.414
 5627POPC   GL170645  43.870  33.870   5.755
 5627POPC   GL270646  44.219  33.865   5.693
 5627POPC   C1A70647  43.731  33.919   6.188
 5627POPC   D2A70648  43.801  33.731   6.581
 5627POPC   C3A70649  43.751  33.997   6.926
 5627POPC   C4A70650  43.830  34.147   7.316
 5627POPC   C1B70651  44.198  34.101   6.091
 5627POPC   C2B70652  44.142  34.174   6.547
 5627POPC   C3B70653  44.247  34.122   6.986
 5627POPC   C4B70654  44.375  33.770   7.227
 5628POPC   NC370655  18.453  28.463   5.257
 5628POPC   PO470656  19.150  28.302   5.395
 5628POPC   GL170657  19.106  28.367   5.837
 5628POPC   GL270658  18.806  28.503   5.960
 5628POPC   C1A70659  19.211  28.547   6.243
 5628POPC   D2A70660  19.459  28.561   6.580
 5628POPC   C3A70661  19.408  28.235   6.846
 5628POPC   C4A70662  19.390  28.392   7.229
 5628POPC   C1B70663  18.869  28.141   6.265
 5628POPC   C2B70664  18.935  27.949   6.664
 5628POPC   C3B70665  18.910  28.193   7.029
 5628POPC   C4B70666  18.899  28.528   7.304
 5629POPC   NC370667  29.702  41.505   5.282
 5629POPC   PO470668  30.175  41.770   5.582
 5629POPC   GL170669  29.903  41.408   5.804
 5629POPC   GL270670  29.604  41.173   5.749
 5629POPC   C1A70671  29.916  41.203   6.227
 5629POPC   D2A70672  30.039  41.329   6.675
 5629POPC   C3A70673  30.212  41.338   7.121
 5629POPC   C4A70674  30.339  41.716   7.388
 5629POPC   C1B70675  29.451  41.001   6.188
 5629POPC   C2B70676  29.551  41.159   6.652
 5629POPC   C3B70677  29.681  41.384   7.050
 5629POPC   C4B70678  29.851  41.541   7.481
 5630POPC   NC370679  28.534  28.584   5.403
 5630POPC   PO470680  28.227  29.190   5.407
 5630POPC   GL170681  28.169  29.248   5.824
 5630POPC   GL270682  27.857  29.270   5.915
 5630POPC   C1A70683  28.379  29.120   6.182
 5630POPC   D2A70684  28.698  29.217   6.429
 5630POPC   C3A70685  28.642  29.133   6.845
 5630POPC   C4A70686  28.313  29.026   7.106
 5630POPC   C1B70687  27.946  29.307   6.349
 5630POPC   C2B70688  28.283  29.493   6.584
 5630POPC   C3B70689  28.397  29.562   6.987
 5630POPC   C4B70690  28.210  29.469   7.330
 5631POPC   NC370691  38.784  24.189   5.422
 5631POPC   PO470692  39.412  23.707   5.457
 5631POPC   GL170693  39.237  23.863   5.808
 5631POPC   GL270694  39.094  23.576   5.923
 5631POPC   C1A70695  39.370  23.860   6.261
 5631POPC   D2A70696  39.325  23.533   6.613
 5631POPC   C3A70697  39.397  23.640   7.042
 5631POPC   C4A70698  39.276  23.987   7.257
 5631POPC   C1B70699  38.919  23.352   6.244
 5631POPC   C2B70700  38.915  23.157   6.646
 5631POPC   C3B70701  38.907  23.434   7.016
 5631POPC   C4B70702  39.041  23.563   7.437
 5632POPC   NC370703  14.443  15.724   5.373
 5632POPC   PO470704  14.835  16.212   5.178
 5632POPC   GL170705  14.630  16.148   5.672
 5632POPC   GL270706  14.812  16.425   5.833
 5632POPC   C1A70707  14.335  16.080   6.082
 5632POPC   D2A70708  14.262  16.261   6.542
 5632POPC   C3A70709  14.113  15.990   6.906
 5632POPC   C4A70710  14.183  15.691   7.262
 5632POPC   C1B70711  14.785  16.197   6.251
 5632POPC   C2B70712  14.626  15.911   6.533
 5632POPC   C3B70713  14.616  16.120   6.908
 5632POPC   C4B70714  14.572  16.006   7.287
 5633POPC   NC370715  15.940  33.262   5.143
 5633POPC   PO470716  15.581  33.110   5.664
 5633POPC   GL170717  16.020  33.171   5.793
 5633POPC   GL270718  15.987  32.872   6.014
 5633POPC   C1A70719  16.264  33.266   6.181
 5633POPC   D2A70720  16.030  33.172   6.552
 5633POPC   C3A70721  16.202  33.024   6.940
 5633POPC   C4A70722  16.101  32.916   7.388
 5633POPC   C1B70723  15.756  32.508   6.185
 5633POPC   C2B70724  15.623  32.468   6.591
 5633POPC   C3B70725  15.730  32.800   6.855
 5633POPC   C4B70726  15.519  32.847   7.225
 5634POPC   NC370727  42.017  40.194   5.420
 5634POPC   PO470728  42.641  39.912   5.559
 5634POPC   GL170729  42.251  39.888   5.786
 5634POPC   GL270730  42.145  39.547   5.875
 5634POPC   C1A70731  42.122  39.960   6.218
 5634POPC   D2A70732  42.459  40.039   6.564
 5634POPC   C3A70733  42.376  40.119   7.010
 5634POPC   C4A70734  42.142  40.371   7.327
 5634POPC   C1B70735  42.498  39.579   6.205
 5634POPC   C2B70736  42.761  39.618   6.604
 5634POPC   C3B70737  42.762  39.759   7.050
 5634POPC   C4B70738  42.667  39.516   7.414
 5635POPC   NC370739  39.280  17.969   5.459
 5635POPC   PO470740  39.440  17.314   5.361
 5635POPC   GL170741  39.337  17.468   5.738
 5635POPC   GL270742  39.574  17.724   5.794
 5635POPC   C1A70743  39.369  17.298   6.160
 5635POPC   D2A70744  39.068  17.274   6.495
 5635POPC   C3A70745  39.269  17.376   6.881
 5635POPC   C4A70746  39.141  17.544   7.253
 5635POPC   C1B70747  39.239  17.797   6.114
 5635POPC   C2B70748  39.254  17.776   6.557
 5635POPC   C3B70749  39.411  17.896   6.961
 5635POPC   C4B70750  39.583  17.762   7.352
 5636POPC   NC370751  17.115  13.516   5.248
 5636POPC   PO470752  17.722  13.915   5.232
 5636POPC   GL170753  17.424  13.767   5.604
 5636POPC   GL270754  17.467  13.407   5.667
 5636POPC   C1A70755  17.296  13.720   6.073
 5636POPC   D2A70756  17.204  13.677   6.553
 5636POPC   C3A70757  17.549  13.630   6.880
 5636POPC   C4A70758  17.859  13.704   7.208
 5636POPC   C1B70759  17.581  13.265   6.097
 5636POPC   C2B70760  17.462  13.149   6.524
 5636POPC   C3B70761  17.641  13.127   6.933
 5636POPC   C4B70762  17.528  13.317   7.330
 5637POPC   NC370763  31.951  33.037   5.368
 5637POPC   PO470764  31.257  33.069   5.536
 5637POPC   GL170765  31.323  32.979   5.948
 5637POPC   GL270766  31.693  33.010   6.101
 5637POPC   C1A70767  31.109  32.858   6.300
 5637POPC   D2A70768  31.031  33.072   6.678
 5637POPC   C3A70769  31.376  33.059   6.930
 5637POPC   C4A70770  31.477  32.876   7.324
 5637POPC   C1B70771  31.856  33.386   6.352
 5637POPC   C2B70772  31.765  33.489   6.789
 5637POPC   C3B70773  31.801  33.226   7.162
 5637POPC   C4B70774  31.717  33.216   7.632
 5638POPC   NC370775   1.390   7.573   5.244
 5638POPC   PO470776   0.917   7.175   5.576
 5638POPC   GL170777   1.176   7.349   5.892
 5638POPC   GL270778   1.500   7.504   5.840
 5638POPC   C1A70779   1.309   7.298   6.302
 5638POPC   D2A70780   1.366   7.537   6.670
 5638POPC   C3A70781   1.163   7.326   7.013
 5638POPC   C4A70782   1.318   6.970   7.169
 5638POPC   C1B70783   1.307   7.798   6.163
 5638POPC   C2B70784   1.059   7.940   6.548
 5638POPC   C3B70785   1.055   7.824   6.981
 5638POPC   C4B70786   1.393   7.871   7.279
 5639POPC   NC370787  14.454  43.369   5.312
 5639POPC   PO470788  14.157  42.744   5.446
 5639POPC   GL170789  14.340  43.010   5.766
 5639POPC   GL270790  14.595  42.822   5.925
 5639POPC   C1A70791  14.383  43.195   6.217
 5639POPC   D2A70792  14.379  43.482   6.612
 5639POPC   C3A70793  14.256  43.299   7.035
 5639POPC   C4A70794  14.286  43.253   7.504
 5639POPC   C1B70795  14.519  42.685   6.330
 5639POPC   C2B70796  14.560  42.993   6.650
 5639POPC   C3B70797  14.673  42.999   7.061
 5639POPC   C4B70798  14.337  42.798   7.276
 5640POPC   NC370799  38.505  43.498   5.337
 5640POPC   PO470800  38.078  42.888   5.310
 5640POPC   GL170801  38.248  43.075   5.739
 5640POPC   GL270802  38.569  43.264   5.774
 5640POPC   C1A70803  38.458  42.989   6.173
 5640POPC   D2A70804  38.675  42.883   6.542
 5640POPC   C3A70805  38.499  43.080   6.880
 5640POPC   C4A70806  38.311  43.125   7.276
 5640POPC   C1B70807  38.781  43.404   6.157
 5640POPC   C2B70808  38.734  43.491   6.612
 5640POPC   C3B70809  38.723  43.486   7.083
 5640POPC   C4B70810  38.610  43.412   7.552
 5641POPC   NC370811  13.679  34.345   5.463
 5641POPC   PO470812  13.298  34.817   5.489
 5641POPC   GL170813  13.472  34.689   5.845
 5641POPC   GL270814  13.334  34.355   5.845
 5641POPC   C1A70815  13.782  34.628   6.157
 5641POPC   D2A70816  13.849  34.480   6.579
 5641POPC   C3A70817  13.743  34.696   6.970
 5641POPC   C4A70818  13.564  35.081   7.126
 5641POPC   C1B70819  13.473  34.222   6.257
 5641POPC   C2B70820  13.378  34.295   6.714
 5641POPC   C3B70821  13.391  34.334   7.197
 5641POPC   C4B70822  13.372  34.297   7.699
 5642POPC   NC370823   2.913  22.500   5.368
 5642POPC   PO470824   2.476  22.997   5.363
 5642POPC   GL170825   2.725  22.878   5.715
 5642POPC   GL270826   2.652  23.189   5.837
 5642POPC   C1A70827   2.854  22.872   6.171
 5642POPC   D2A70828   2.952  23.041   6.583
 5642POPC   C3A70829   2.852  22.795   6.929
 5642POPC   C4A70830   2.946  22.483   7.223
 5642POPC   C1B70831   2.407  23.379   6.125
 5642POPC   C2B70832   2.548  23.419   6.535
 5642POPC   C3B70833   2.587  23.257   6.933
 5642POPC   C4B70834   2.472  23.311   7.340
 5643POPC   NC370835  23.621   9.595   5.452
 5643POPC   PO470836  23.834   8.936   5.448
 5643POPC   GL170837  23.688   8.959   5.883
 5643POPC   GL270838  23.893   8.676   5.922
 5643POPC   C1A70839  23.536   8.797   6.303
 5643POPC   D2A70840  23.696   8.927   6.713
 5643POPC   C3A70841  23.560   8.877   7.143
 5643POPC   C4A70842  23.635   9.196   7.464
 5643POPC   C1B70843  24.050   8.839   6.274
 5643POPC   C2B70844  24.194   8.989   6.637
 5643POPC   C3B70845  24.121   8.757   6.976
 5643POPC   C4B70846  24.042   8.893   7.342
 5644POPC   NC370847  42.639  43.413   5.311
 5644POPC   PO470848  42.126  42.994   5.146
 5644POPC   GL170849  42.207  43.210   5.549
 5644POPC   GL270850  42.525  43.110   5.729
 5644POPC   C1A70851  42.133  43.332   6.009
 5644POPC   D2A70852  42.315  43.282   6.463
 5644POPC   C3A70853  42.246  42.985   6.846
 5644POPC   C4A70854  42.442  42.675   7.132
 5644POPC   C1B70855  42.647  43.448   6.047
 5644POPC   C2B70856  42.744  43.573   6.499
 5644POPC   C3B70857  42.605  43.377   6.912
 5644POPC   C4B70858  42.555  43.223   7.358
 5645POPC   NC370859  30.737  17.489   5.404
 5645POPC   PO470860  30.338  18.096   5.441
 5645POPC   GL170861  30.422  17.809   5.766
 5645POPC   GL270862  30.775  17.805   5.817
 5645POPC   C1A70863  30.409  17.642   6.201
 5645POPC   D2A70864  30.333  17.690   6.657
 5645POPC   C3A70865  30.665  17.603   6.951
 5645POPC   C4A70866  30.713  17.778   7.373
 5645POPC   C1B70867  30.892  17.472   6.125
 5645POPC   C2B70868  31.050  17.404   6.554
 5645POPC   C3B70869  31.171  17.601   6.946
 5645POPC   C4B70870  31.124  17.367   7.335
 5646POPC   NC370871  11.151  31.887   5.343
 5646POPC   PO470872  11.397  32.418   5.441
 5646POPC   GL170873  11.166  32.247   5.792
 5646POPC   GL270874  11.048  31.899   5.815
 5646POPC   C1A70875  11.368  32.353   6.186
 5646POPC   D2A70876  11.464  32.513   6.580
 5646POPC   C3A70877  11.394  32.243   6.943
 5646POPC   C4A70878  11.602  32.384   7.285
 5646POPC   C1B70879  11.427  31.865   6.027
 5646POPC   C2B70880  11.467  31.934   6.445
 5646POPC   C3B70881  11.725  31.857   6.763
 5646POPC   C4B70882  11.635  31.858   7.178
 5647POPC   NC370883  25.533  37.888   5.451
 5647POPC   PO470884  24.986  37.460   5.429
 5647POPC   GL170885  25.272  37.552   5.753
 5647POPC   GL270886  25.128  37.880   5.782
 5647POPC   C1A70887  25.423  37.519   6.189
 5647POPC   D2A70888  25.183  37.470   6.597
 5647POPC   C3A70889  25.348  37.671   6.987
 5647POPC   C4A70890  25.636  37.701   7.343
 5647POPC   C1B70891  24.992  37.811   6.201
 5647POPC   C2B70892  25.160  37.980   6.596
 5647POPC   C3B70893  25.119  38.141   6.999
 5647POPC   C4B70894  25.264  38.059   7.393
 5648POPC   NC370895  38.364  38.108   5.115
 5648POPC   PO470896  38.244  38.737   5.256
 5648POPC   GL170897  38.502  38.660   5.667
 5648POPC   GL270898  38.480  38.333   5.785
 5648POPC   C1A70899  38.658  38.716   6.131
 5648POPC   D2A70900  38.535  38.611   6.603
 5648POPC   C3A70901  38.611  38.820   7.020
 5648POPC   C4A70902  38.642  38.564   7.389
 5648POPC   C1B70903  38.394  38.271   6.230
 5648POPC   C2B70904  38.496  38.045   6.603
 5648POPC   C3B70905  38.405  38.114   7.033
 5648POPC   C4B70906  38.193  38.490   7.105
 5649POPC   NC370907  22.475  32.513   5.175
 5649POPC   PO470908  22.006  32.183   5.497
 5649POPC   GL170909  22.133  32.215   5.894
 5649POPC   GL270910  22.470  32.148   5.882
 5649POPC   C1A70911  22.235  32.334   6.302
 5649POPC   D2A70912  22.404  32.189   6.645
 5649POPC   C3A70913  22.163  32.329   6.927
 5649POPC   C4A70914  22.199  32.176   7.280
 5649POPC   C1B70915  22.322  31.809   6.168
 5649POPC   C2B70916  22.433  31.690   6.570
 5649POPC   C3B70917  22.283  31.776   6.969
 5649POPC   C4B70918  22.383  31.732   7.415
 5650POPC   NC370919  41.116  11.841   5.054
 5650POPC   PO470920  41.682  11.857   5.399
 5650POPC   GL170921  41.686  12.066   5.791
 5650POPC   GL270922  41.362  12.214   5.674
 5650POPC   C1A70923  41.759  12.155   6.250
 5650POPC   D2A70924  41.916  11.936   6.622
 5650POPC   C3A70925  41.878  12.170   7.007
 5650POPC   C4A70926  41.726  12.150   7.443
 5650POPC   C1B70927  41.266  12.125   6.102
 5650POPC   C2B70928  41.308  12.140   6.538
 5650POPC   C3B70929  41.170  12.408   6.866
 5650POPC   C4B70930  41.282  12.203   7.223
 5651POPC   NC370931   8.699   3.289   5.313
 5651POPC   PO470932   9.199   3.685   5.365
 5651POPC   GL170933   8.917   3.650   5.721
 5651POPC   GL270934   8.961   3.319   5.777
 5651POPC   C1A70935   8.711   3.577   6.153
 5651POPC   D2A70936   8.673   3.614   6.624
 5651POPC   C3A70937   9.047   3.529   6.907
 5651POPC   C4A70938   8.978   3.340   7.328
 5651POPC   C1B70939   8.965   3.126   6.199
 5651POPC   C2B70940   8.701   3.097   6.550
 5651POPC   C3B70941   8.655   3.203   6.950
 5651POPC   C4B70942   8.492   3.181   7.331
 5652POPC   NC370943  40.996  36.581   5.538
 5652POPC   PO470944  40.663  35.988   5.449
 5652POPC   GL170945  40.798  36.129   5.852
 5652POPC   GL270946  40.580  36.450   5.850
 5652POPC   C1A70947  40.896  35.946   6.297
 5652POPC   D2A70948  40.602  36.016   6.688
 5652POPC   C3A70949  40.739  35.851   7.117
 5652POPC   C4A70950  41.114  35.720   7.381
 5652POPC   C1B70951  40.691  36.396   6.277
 5652POPC   C2B70952  41.011  36.371   6.605
 5652POPC   C3B70953  40.810  36.389   6.985
 5652POPC   C4B70954  40.408  36.283   7.153
 5653POPC   NC370955   5.353  17.833   5.436
 5653POPC   PO470956   6.025  17.587   5.423
 5653POPC   GL170957   5.949  17.542   5.860
 5653POPC   GL270958   5.946  17.875   5.967
 5653POPC   C1A70959   5.867  17.564   6.342
 5653POPC   D2A70960   5.618  17.804   6.613
 5653POPC   C3A70961   5.502  17.601   6.964
 5653POPC   C4A70962   5.735  17.695   7.309
 5653POPC   C1B70963   6.344  17.662   6.159
 5653POPC   C2B70964   6.353  17.488   6.576
 5653POPC   C3B70965   6.107  17.562   6.968
 5653POPC   C4B70966   6.258  17.639   7.396
 5654POPC   NC370967  30.240  15.064   5.451
 5654POPC   PO470968  29.761  15.514   5.389
 5654POPC   GL170969  29.962  15.400   5.768
 5654POPC   GL270970  30.220  15.563   5.991
 5654POPC   C1A70971  29.796  15.378   6.185
 5654POPC   D2A70972  29.983  15.197   6.555
 5654POPC   C3A70973  29.869  15.444   6.860
 5654POPC   C4A70974  29.782  15.332   7.235
 5654POPC   C1B70975  30.198  15.083   6.108
 5654POPC   C2B70976  30.126  14.730   6.334
 5654POPC   C3B70977  30.119  14.714   6.763
 5654POPC   C4B70978  30.199  15.088   7.040
 5655POPC   NC370979  28.721  36.837   5.527
 5655POPC   PO470980  29.316  36.690   5.260
 5655POPC   GL170981  29.210  36.880   5.727
 5655POPC   GL270982  28.888  36.897   5.980
 5655POPC   C1A70983  29.334  37.000   6.171
 5655POPC   D2A70984  29.283  36.778   6.590
 5655POPC   C3A70985  29.174  36.980   6.973
 5655POPC   C4A70986  29.176  37.144   7.372
 5655POPC   C1B70987  28.863  36.633   6.318
 5655POPC   C2B70988  28.755  36.703   6.750
 5655POPC   C3B70989  28.961  36.552   7.119
 5655POPC   C4B70990  28.948  36.560   7.567
 5656POPC   NC370991  25.184  26.267   5.249
 5656POPC   PO470992  25.801  25.826   5.243
 5656POPC   GL170993  25.483  25.934   5.584
 5656POPC   GL270994  25.621  25.724   5.841
 5656POPC   C1A70995  25.155  25.894   5.958
 5656POPC   D2A70996  25.085  25.884   6.448
 5656POPC   C3A70997  25.148  26.082   6.900
 5656POPC   C4A70998  24.935  26.265   7.298
 5656POPC   C1B70999  25.596  26.011   6.178
 5656POPC   C2B71000  25.572  25.982   6.607
 5656POPC   C3B71001  25.715  25.844   6.979
 5656POPC   C4B71002  25.661  25.868   7.389
 5657POPC   NC371003  10.397   9.286   5.000
 5657POPC   PO471004  10.623   9.057   5.604
 5657POPC   GL171005  10.620   8.958   5.997
 5657POPC   GL271006  10.672   8.648   5.952
 5657POPC   C1A71007  10.683   8.886   6.457
 5657POPC   D2A71008  10.737   9.203   6.808
 5657POPC   C3A71009  10.555   9.027   7.146
 5657POPC   C4A71010  10.281   8.987   7.496
 5657POPC   C1B71011  10.302   8.601   6.219
 5657POPC   C2B71012  10.362   8.419   6.583
 5657POPC   C3B71013  10.456   8.556   6.965
 5657POPC   C4B71014  10.232   8.514   7.333
 5658POPC   NC371015   0.977  35.309   5.395
 5658POPC   PO471016   0.452  35.708   5.129
 5658POPC   GL171017   0.520  35.654   5.654
 5658POPC   GL271018   0.332  35.868   5.806
 5658POPC   C1A71019   0.383  35.389   6.065
 5658POPC   D2A71020   0.119  35.268   6.435
 5658POPC   C3A71021   0.297  35.284   6.853
 5658POPC   C4A71022   0.610  35.466   7.138
 5658POPC   C1B71023   0.545  35.856   6.153
 5658POPC   C2B71024   0.424  35.679   6.521
 5658POPC   C3B71025   0.355  35.851   6.890
 5658POPC   C4B71026   0.453  35.931   7.273
 5659POPC   NC371027  12.141  14.057   5.251
 5659POPC   PO471028  11.997  14.722   5.376
 5659POPC   GL171029  11.955  14.452   5.764
 5659POPC   GL271030  11.915  14.732   5.907
 5659POPC   C1A71031  11.879  14.313   6.222
 5659POPC   D2A71032  12.037  14.319   6.667
 5659POPC   C3A71033  11.744  14.193   7.030
 5659POPC   C4A71034  11.713  14.268   7.505
 5659POPC   C1B71035  12.230  14.728   6.248
 5659POPC   C2B71036  12.219  14.840   6.692
 5659POPC   C3B71037  12.303  14.577   7.030
 5659POPC   C4B71038  12.509  14.687   7.360
 5660POPC   NC371039  14.309  18.697   5.217
 5660POPC   PO471040  14.668  19.296   5.447
 5660POPC   GL171041  14.542  19.221   5.868
 5660POPC   GL271042  14.641  19.550   6.018
 5660POPC   C1A71043  14.386  18.902   6.187
 5660POPC   D2A71044  14.258  18.681   6.578
 5660POPC   C3A71045  14.445  18.827   6.962
 5660POPC   C4A71046  14.510  18.982   7.364
 5660POPC   C1B71047  14.240  19.428   6.233
 5660POPC   C2B71048  14.243  19.198   6.611
 5660POPC   C3B71049  14.634  19.273   6.827
 5660POPC   C4B71050  14.643  19.501   7.211
 5661POPC   NC371051  22.759  16.154   5.388
 5661POPC   PO471052  23.276  15.713   5.342
 5661POPC   GL171053  22.997  15.813   5.713
 5661POPC   GL271054  23.102  16.143   5.788
 5661POPC   C1A71055  22.744  15.940   6.116
 5661POPC   D2A71056  22.672  15.918   6.589
 5661POPC   C3A71057  22.890  15.969   6.993
 5661POPC   C4A71058  22.905  15.666   7.294
 5661POPC   C1B71059  23.233  16.009   6.199
 5661POPC   C2B71060  23.201  15.834   6.599
 5661POPC   C3B71061  23.335  15.723   7.029
 5661POPC   C4B71062  23.316  16.025   7.364
 5662POPC   NC371063  15.366  32.532   5.139
 5662POPC   PO471064  14.757  32.597   5.423
 5662POPC   GL171065  14.940  32.382   5.816
 5662POPC   GL271066  15.227  32.146   5.836
 5662POPC   C1A71067  14.934  32.339   6.275
 5662POPC   D2A71068  15.124  32.626   6.546
 5662POPC   C3A71069  15.179  32.513   6.936
 5662POPC   C4A71070  15.475  32.295   7.088
 5662POPC   C1B71071  15.414  32.126   6.234
 5662POPC   C2B71072  15.271  32.097   6.639
 5662POPC   C3B71073  15.197  31.879   7.029
 5662POPC   C4B71074  15.321  31.948   7.465
 5663POPC   NC371075  40.421  20.799   5.446
 5663POPC   PO471076  40.932  20.281   5.487
 5663POPC   GL171077  40.812  20.615   5.791
 5663POPC   GL271078  40.477  20.507   5.874
 5663POPC   C1A71079  40.949  20.695   6.227
 5663POPC   D2A71080  40.783  20.637   6.662
 5663POPC   C3A71081  41.011  20.803   7.043
 5663POPC   C4A71082  40.867  20.791   7.492
 5663POPC   C1B71083  40.605  20.279   6.274
 5663POPC   C2B71084  40.951  20.128   6.577
 5663POPC   C3B71085  40.991  20.255   7.011
 5663POPC   C4B71086  40.630  20.467   7.159
 5664POPC   NC371087  35.452  27.762   5.316
 5664POPC   PO471088  34.925  27.402   5.369
 5664POPC   GL171089  35.348  27.426   5.691
 5664POPC   GL271090  35.583  27.749   5.803
 5664POPC   C1A71091  35.532  27.384   6.135
 5664POPC   D2A71092  35.378  27.580   6.518
 5664POPC   C3A71093  35.563  27.518   6.897
 5664POPC   C4A71094  35.297  27.562   7.235
 5664POPC   C1B71095  35.557  28.071   6.176
 5664POPC   C2B71096  35.596  28.071   6.645
 5664POPC   C3B71097  35.455  28.012   7.057
 5664POPC   C4B71098  35.636  28.220   7.393
 5665POPC   NC371099  36.934   6.096   5.423
 5665POPC   PO471100  36.708   5.497   5.322
 5665POPC   GL171101  36.852   5.673   5.719
 5665POPC   GL271102  36.649   6.004   5.817
 5665POPC   C1A71103  36.706   5.631   6.129
 5665POPC   D2A71104  36.563   5.888   6.472
 5665POPC   C3A71105  36.717   5.781   6.890
 5665POPC   C4A71106  36.706   5.545   7.268
 5665POPC   C1B71107  37.010   6.029   6.142
 5665POPC   C2B71108  37.017   6.080   6.584
 5665POPC   C3B71109  37.169   6.278   6.955
 5665POPC   C4B71110  37.214   6.069   7.361
 5666POPC   NC371111  26.813  18.783   5.418
 5666POPC   PO471112  26.457  19.410   5.415
 5666POPC   GL171113  26.750  19.245   5.751
 5666POPC   GL271114  26.976  19.502   5.857
 5666POPC   C1A71115  26.865  18.939   6.098
 5666POPC   D2A71116  26.833  18.979   6.569
 5666POPC   C3A71117  26.990  18.719   6.926
 5666POPC   C4A71118  26.653  18.652   7.183
 5666POPC   C1B71119  26.913  19.418   6.261
 5666POPC   C2B71120  27.128  19.464   6.603
 5666POPC   C3B71121  26.798  19.387   6.872
 5666POPC   C4B71122  26.824  19.129   7.148
 5667POPC   NC371123  23.915  23.137   5.365
 5667POPC   PO471124  23.398  22.629   5.491
 5667POPC   GL171125  23.582  22.941   5.757
 5667POPC   GL271126  23.923  22.993   5.870
 5667POPC   C1A71127  23.500  23.210   6.108
 5667POPC   D2A71128  23.691  23.388   6.469
 5667POPC   C3A71129  23.857  23.165   6.818
 5667POPC   C4A71130  23.573  23.002   7.126
 5667POPC   C1B71131  23.873  22.908   6.336
 5667POPC   C2B71132  23.728  22.649   6.714
 5667POPC   C3B71133  23.933  22.658   7.143
 5667POPC   C4B71134  24.045  22.802   7.589
 5668POPC   NC371135  27.875   6.014   5.299
 5668POPC   PO471136  27.682   5.331   5.341
 5668POPC   GL171137  27.767   5.634   5.648
 5668POPC   GL271138  27.489   5.885   5.667
 5668POPC   C1A71139  27.869   5.663   6.073
 5668POPC   D2A71140  27.644   5.589   6.466
 5668POPC   C3A71141  27.798   5.798   6.838
 5668POPC   C4A71142  27.664   5.791   7.248
 5668POPC   C1B71143  27.341   5.717   6.077
 5668POPC   C2B71144  27.139   5.713   6.522
 5668POPC   C3B71145  27.187   5.875   6.934
 5668POPC   C4B71146  27.182   5.679   7.314
 5669POPC   NC371147  13.901  43.942   5.529
 5669POPC   PO471148  13.441  43.689   5.213
 5669POPC   GL171149  13.412  43.859   5.694
 5669POPC   GL271150  13.329  44.225   5.714
 5669POPC   C1A71151  13.589  43.840   6.167
 5669POPC   D2A71152  13.651  43.968   6.649
 5669POPC   C3A71153  13.627  43.714   7.083
 5669POPC   C4A71154  13.368  43.641   7.486
 5669POPC   C1B71155  13.156  44.104   6.124
 5669POPC   C2B71156  13.161  44.211   6.598
 5669POPC   C3B71157  13.344  44.135   7.034
 5669POPC   C4B71158  13.813  44.202   7.121
 5670POPC   NC371159  13.569   1.302   5.454
 5670POPC   PO471160  13.271   0.657   5.590
 5670POPC   GL171161  13.541   0.970   5.852
 5670POPC   GL271162  13.463   1.348   5.924
 5670POPC   C1A71163  13.583   1.071   6.318
 5670POPC   D2A71164  13.419   0.831   6.652
 5670POPC   C3A71165  13.498   1.022   7.069
 5670POPC   C4A71166  13.808   1.223   7.294
 5670POPC   C1B71167  13.520   1.605   6.243
 5670POPC   C2B71168  13.309   1.550   6.602
 5670POPC   C3B71169  13.428   1.574   6.994
 5670POPC   C4B71170  13.315   1.423   7.351
 5671POPC   NC371171  17.639  23.189   5.364
 5671POPC   PO471172  17.250  22.640   5.562
 5671POPC   GL171173  17.356  23.048   5.765
 5671POPC   GL271174  17.715  23.125   5.852
 5671POPC   C1A71175  17.287  23.180   6.168
 5671POPC   D2A71176  17.320  22.920   6.534
 5671POPC   C3A71177  17.451  23.094   6.926
 5671POPC   C4A71178  17.448  22.795   7.252
 5671POPC   C1B71179  17.780  23.041   6.269
 5671POPC   C2B71180  17.891  22.979   6.686
 5671POPC   C3B71181  17.911  22.942   7.126
 5671POPC   C4B71182  17.663  23.263   7.377
 5672POPC   NC371183   7.189  11.467   5.394
 5672POPC   PO471184   7.652  11.094   5.152
 5672POPC   GL171185   7.441  11.117   5.662
 5672POPC   GL271186   7.674  11.167   5.950
 5672POPC   C1A71187   7.221  11.358   6.053
 5672POPC   D2A71188   7.406  11.501   6.439
 5672POPC   C3A71189   7.385  11.461   6.874
 5672POPC   C4A71190   7.623  11.672   7.214
 5672POPC   C1B71191   7.509  10.971   6.324
 5672POPC   C2B71192   7.522  10.981   6.792
 5672POPC   C3B71193   7.666  11.154   7.187
 5672POPC   C4B71194   7.584  11.187   7.622
 5673POPC   NC371195  40.222   1.118   5.108
 5673POPC   PO471196  39.618   1.235   5.423
 5673POPC   GL171197  39.821   1.351   5.843
 5673POPC   GL271198  40.175   1.241   5.917
 5673POPC   C1A71199  39.817   1.319   6.287
 5673POPC   D2A71200  39.724   1.103   6.645
 5673POPC   C3A71201  39.764   1.380   6.919
 5673POPC   C4A71202  39.693   1.204   7.274
 5673POPC   C1B71203  40.391   1.186   6.269
 5673POPC   C2B71204  40.217   1.245   6.658
 5673POPC   C3B71205  40.159   1.098   7.068
 5673POPC   C4B71206  40.128   1.250   7.507
 5674POPC   NC371207  17.315  20.997   5.344
 5674POPC   PO471208  17.377  20.359   5.414
 5674POPC   GL171209  17.193  20.582   5.745
 5674POPC   GL271210  17.510  20.746   5.820
 5674POPC   C1A71211  17.143  20.687   6.195
 5674POPC   D2A71212  17.358  20.633   6.598
 5674POPC   C3A71213  17.167  20.574   7.031
 5674POPC   C4A71214  17.339  20.807   7.412
 5674POPC   C1B71215  17.821  20.886   6.167
 5674POPC   C2B71216  17.900  20.759   6.575
 5674POPC   C3B71217  17.707  20.699   6.963
 5674POPC   C4B71218  17.811  21.025   7.193
 5675POPC   NC371219  23.988  11.034   5.041
 5675POPC   PO471220  23.887  11.600   5.474
 5675POPC   GL171221  23.866  11.547   5.942
 5675POPC   GL271222  23.527  11.657   6.011
 5675POPC   C1A71223  23.738  11.265   6.302
 5675POPC   D2A71224  23.583  10.941   6.614
 5675POPC   C3A71225  23.709  11.064   7.043
 5675POPC   C4A71226  23.916  11.356   7.351
 5675POPC   C1B71227  23.683  11.744   6.455
 5675POPC   C2B71228  23.795  11.560   6.862
 5675POPC   C3B71229  23.518  11.630   7.240
 5675POPC   C4B71230  23.486  11.654   7.717
 5676POPC   NC371231  44.371  25.771   5.625
 5676POPC   PO471232  43.963  26.129   5.190
 5676POPC   GL171233  43.826  25.844   5.612
 5676POPC   GL271234  43.695  26.072   5.850
 5676POPC   C1A71235  43.933  25.739   6.125
 5676POPC   D2A71236  43.777  25.752   6.561
 5676POPC   C3A71237  44.029  25.653   6.933
 5676POPC   C4A71238  44.105  25.927   7.304
 5676POPC   C1B71239  43.804  26.233   6.252
 5676POPC   C2B71240  43.592  26.261   6.621
 5676POPC   C3B71241  43.714  26.067   6.971
 5676POPC   C4B71242  43.641  26.199   7.350
 5677POPC   NC371243   9.442   1.348   5.424
 5677POPC   PO471244   8.725   1.337   5.327
 5677POPC   GL171245   8.979   1.265   5.671
 5677POPC   GL271246   8.703   1.310   5.860
 5677POPC   C1A71247   9.223   1.360   6.075
 5677POPC   D2A71248   9.455   1.125   6.439
 5677POPC   C3A71249   9.419   0.951   6.866
 5677POPC   C4A71250   9.401   1.097   7.280
 5677POPC   C1B71251   8.826   1.085   6.235
 5677POPC   C2B71252   8.963   0.999   6.646
 5677POPC   C3B71253   8.956   0.984   7.081
 5677POPC   C4B71254   8.759   1.009   7.460
 5678POPC   NC371255  12.453  26.156   5.395
 5678POPC   PO471256  12.170  25.592   5.350
 5678POPC   GL171257  12.246  25.830   5.781
 5678POPC   GL271258  12.178  26.196   5.828
 5678POPC   C1A71259  12.083  25.942   6.244
 5678POPC   D2A71260  11.873  26.046   6.643
 5678POPC   C3A71261  12.181  25.978   6.950
 5678POPC   C4A71262  12.332  25.878   7.363
 5678POPC   C1B71263  11.832  26.367   6.127
 5678POPC   C2B71264  11.795  26.576   6.535
 5678POPC   C3B71265  11.663  26.452   6.957
 5678POPC   C4B71266  11.971  26.358   7.239
 5679POPC   NC371267  29.938  39.653   5.484
 5679POPC   PO471268  29.849  40.315   5.484
 5679POPC   GL171269  29.851  40.055   5.826
 5679POPC   GL271270  30.230  39.957   5.824
 5679POPC   C1A71271  29.834  39.809   6.204
 5679POPC   D2A71272  30.019  39.897   6.593
 5679POPC   C3A71273  29.875  39.746   6.967
 5679POPC   C4A71274  29.758  40.036   7.276
 5679POPC   C1B71275  30.183  40.215   6.203
 5679POPC   C2B71276  30.097  40.405   6.601
 5679POPC   C3B71277  30.154  40.238   7.006
 5679POPC   C4B71278  30.367  40.372   7.374
 5680POPC   NC371279   9.841  27.435   5.418
 5680POPC   PO471280   9.704  28.071   5.453
 5680POPC   GL171281   9.839  27.799   5.789
 5680POPC   GL271282   9.614  27.479   5.871
 5680POPC   C1A71283   9.826  27.798   6.221
 5680POPC   D2A71284   9.975  27.796   6.610
 5680POPC   C3A71285   9.679  27.637   6.854
 5680POPC   C4A71286   9.804  27.665   7.204
 5680POPC   C1B71287   9.960  27.306   6.130
 5680POPC   C2B71288  10.076  27.267   6.588
 5680POPC   C3B71289   9.947  27.205   7.039
 5680POPC   C4B71290   9.832  27.254   7.491
 5681POPC   NC371291   5.496  31.321   5.586
 5681POPC   PO471292   4.901  31.683   5.458
 5681POPC   GL171293   4.921  31.492   5.879
 5681POPC   GL271294   5.272  31.480   6.012
 5681POPC   C1A71295   4.857  31.363   6.328
 5681POPC   D2A71296   4.563  31.214   6.662
 5681POPC   C3A71297   4.733  31.297   7.071
 5681POPC   C4A71298   5.132  31.272   7.122
 5681POPC   C1B71299   5.365  31.188   6.366
 5681POPC   C2B71300   5.544  31.100   6.797
 5681POPC   C3B71301   5.537  31.028   7.258
 5681POPC   C4B71302   5.308  31.126   7.686
 5682POPC   NC371303   0.219  13.013   5.494
 5682POPC   PO471304   0.570  13.563   5.408
 5682POPC   GL171305   0.462  13.442   5.839
 5682POPC   GL271306   0.073  13.400   5.844
 5682POPC   C1A71307   0.646  13.650   6.219
 5682POPC   D2A71308   0.891  13.678   6.620
 5682POPC   C3A71309   0.707  13.581   7.007
 5682POPC   C4A71310   0.450  13.808   7.264
 5682POPC   C1B71311   0.126  13.571   6.280
 5682POPC   C2B71312   0.234  13.806   6.693
 5682POPC   C3B71313  44.992  13.785   7.065
 5682POPC   C4B71314   0.008  13.409   7.303
 5683POPC   NC371315  38.218  20.926   5.614
 5683POPC   PO471316  38.522  20.381   5.381
 5683POPC   GL171317  38.579  20.563   5.785
 5683POPC   GL271318  38.727  20.884   5.807
 5683POPC   C1A71319  38.386  20.510   6.206
 5683POPC   D2A71320  38.586  20.543   6.619
 5683POPC   C3A71321  38.481  20.818   6.970
 5683POPC   C4A71322  38.409  20.565   7.320
 5683POPC   C1B71323  38.691  20.920   6.258
 5683POPC   C2B71324  38.864  21.057   6.673
 5683POPC   C3B71325  38.911  21.033   7.144
 5683POPC   C4B71326  38.650  20.973   7.534
 5684POPC   NC371327  25.659  13.883   5.490
 5684POPC   PO471328  25.170  13.557   5.207
 5684POPC   GL171329  25.330  13.510   5.627
 5684POPC   GL271330  25.188  13.822   5.724
 5684POPC   C1A71331  25.469  13.452   6.062
 5684POPC   D2A71332  25.235  13.545   6.404
 5684POPC   C3A71333  25.314  13.602   6.835
 5684POPC   C4A71334  25.301  13.376   7.185
 5684POPC   C1B71335  25.035  13.930   6.147
 5684POPC   C2B71336  24.970  13.939   6.620
 5684POPC   C3B71337  25.085  14.031   7.066
 5684POPC   C4B71338  25.499  13.926   7.250
 5685POPC   NC371339  24.567  37.242   5.431
 5685POPC   PO471340  24.228  37.908   5.333
 5685POPC   GL171341  24.566  37.739   5.651
 5685POPC   GL271342  24.642  38.038   5.862
 5685POPC   C1A71343  24.540  37.553   6.085
 5685POPC   D2A71344  24.229  37.581   6.445
 5685POPC   C3A71345  24.356  37.501   6.868
 5685POPC   C4A71346  24.310  37.713   7.222
 5685POPC   C1B71347  24.504  38.024   6.264
 5685POPC   C2B71348  24.674  37.795   6.604
 5685POPC   C3B71349  24.833  37.698   6.996
 5685POPC   C4B71350  24.776  37.906   7.397
 5686POPC   NC371351  17.852  28.065   5.464
 5686POPC   PO471352  17.216  28.431   5.412
 5686POPC   GL171353  17.461  28.325   5.770
 5686POPC   GL271354  17.405  27.989   5.740
 5686POPC   C1A71355  17.469  28.519   6.176
 5686POPC   D2A71356  17.282  28.583   6.599
 5686POPC   C3A71357  17.582  28.660   6.946
 5686POPC   C4A71358  17.589  28.670   7.401
 5686POPC   C1B71359  17.375  27.994   6.198
 5686POPC   C2B71360  17.560  28.132   6.591
 5686POPC   C3B71361  17.421  28.168   7.009
 5686POPC   C4B71362  17.602  28.171   7.410
 5687POPC   NC371363  34.748  11.097   5.342
 5687POPC   PO471364  34.130  11.466   5.335
 5687POPC   GL171365  34.409  11.335   5.699
 5687POPC   GL271366  34.401  10.995   5.759
 5687POPC   C1A71367  34.565  11.393   6.132
 5687POPC   D2A71368  34.707  11.220   6.523
 5687POPC   C3A71369  34.638  11.460   6.868
 5687POPC   C4A71370  34.501  11.507   7.286
 5687POPC   C1B71371  34.284  10.943   6.169
 5687POPC   C2B71372  34.222  10.790   6.570
 5687POPC   C3B71373  34.404  10.971   6.922
 5687POPC   C4B71374  34.225  11.063   7.305
 5688POPC   NC371375  33.560  16.835   5.282
 5688POPC   PO471376  34.215  17.066   5.408
 5688POPC   GL171377  33.864  16.972   5.685
 5688POPC   GL271378  33.883  16.647   5.756
 5688POPC   C1A71379  33.564  16.910   6.051
 5688POPC   D2A71380  33.694  16.903   6.499
 5688POPC   C3A71381  33.486  16.723   6.876
 5688POPC   C4A71382  33.368  16.986   7.231
 5688POPC   C1B71383  34.071  16.734   6.123
 5688POPC   C2B71384  34.168  16.691   6.547
 5688POPC   C3B71385  33.986  16.776   6.941
 5688POPC   C4B71386  34.105  16.728   7.351
 5689POPC   NC371387  27.062  36.552   5.118
 5689POPC   PO471388  26.516  36.729   5.496
 5689POPC   GL171389  26.929  36.553   5.763
 5689POPC   GL271390  26.728  36.424   6.027
 5689POPC   C1A71391  27.069  36.758   6.175
 5689POPC   D2A71392  26.729  36.843   6.463
 5689POPC   C3A71393  26.779  37.044   6.844
 5689POPC   C4A71394  27.054  36.911   7.154
 5689POPC   C1B71395  26.346  36.538   6.217
 5689POPC   C2B71396  26.197  36.799   6.545
 5689POPC   C3B71397  26.255  36.669   6.974
 5689POPC   C4B71398  26.618  36.678   7.184
 5690POPC   NC371399  38.750   7.628   5.562
 5690POPC   PO471400  39.363   7.358   5.497
 5690POPC   GL171401  39.183   7.221   5.886
 5690POPC   GL271402  38.864   7.327   5.970
 5690POPC   C1A71403  39.130   7.073   6.322
 5690POPC   D2A71404  39.082   7.225   6.756
 5690POPC   C3A71405  39.125   6.951   7.117
 5690POPC   C4A71406  39.210   7.061   7.547
 5690POPC   C1B71407  38.798   7.485   6.399
 5690POPC   C2B71408  39.131   7.718   6.560
 5690POPC   C3B71409  39.283   7.688   6.966
 5690POPC   C4B71410  39.020   7.447   7.226
 5691POPC   NC371411  12.480  32.910   5.011
 5691POPC   PO471412  12.048  33.034   5.447
 5691POPC   GL171413  12.001  32.813   5.797
 5691POPC   GL271414  12.053  33.115   5.977
 5691POPC   C1A71415  11.717  32.763   6.166
 5691POPC   D2A71416  11.919  32.916   6.522
 5691POPC   C3A71417  11.771  32.836   6.930
 5691POPC   C4A71418  12.051  32.684   7.190
 5691POPC   C1B71419  12.252  33.446   6.231
 5691POPC   C2B71420  12.346  33.385   6.677
 5691POPC   C3B71421  12.258  33.152   7.032
 5691POPC   C4B71422  11.901  33.243   7.248
 5692POPC   NC371423  21.749   1.611   4.976
 5692POPC   PO471424  21.755   0.987   5.372
 5692POPC   GL171425  22.110   1.082   5.642
 5692POPC   GL271426  21.846   1.094   5.876
 5692POPC   C1A71427  22.298   1.158   6.048
 5692POPC   D2A71428  22.050   1.164   6.429
 5692POPC   C3A71429  22.174   1.309   6.841
 5692POPC   C4A71430  22.327   1.163   7.258
 5692POPC   C1B71431  21.767   1.447   6.123
 5692POPC   C2B71432  21.741   1.565   6.559
 5692POPC   C3B71433  21.708   1.497   6.995
 5692POPC   C4B71434  22.019   1.565   7.288
 5693POPC   NC371435  36.156  12.021   5.506
 5693POPC   PO471436  35.511  12.020   5.753
 5693POPC   GL171437  35.888  11.989   5.938
 5693POPC   GL271438  36.023  12.306   5.915
 5693POPC   C1A71439  36.191  11.887   6.228
 5693POPC   D2A71440  36.148  11.709   6.627
 5693POPC   C3A71441  36.382  11.889   6.908
 5693POPC   C4A71442  36.226  12.169   7.153
 5693POPC   C1B71443  36.404  12.349   6.136
 5693POPC   C2B71444  36.414  12.277   6.566
 5693POPC   C3B71445  36.410  12.576   6.888
 5693POPC   C4B71446  36.609  12.540   7.239
 5694POPC   NC371447   1.010  37.562   5.178
 5694POPC   PO471448   1.349  38.173   5.368
 5694POPC   GL171449   1.246  37.915   5.737
 5694POPC   GL271450   1.093  37.578   5.720
 5694POPC   C1A71451   1.259  37.815   6.177
 5694POPC   D2A71452   1.182  37.576   6.593
 5694POPC   C3A71453   1.142  37.896   6.917
 5694POPC   C4A71454   1.100  38.054   7.332
 5694POPC   C1B71455   1.015  37.338   6.123
 5694POPC   C2B71456   0.887  37.127   6.539
 5694POPC   C3B71457   0.961  37.215   6.992
 5694POPC   C4B71458   1.356  37.462   7.153
 5695POPC   NC371459  13.123  41.227   5.112
 5695POPC   PO471460  12.724  40.691   5.400
 5695POPC   GL171461  12.716  40.892   5.804
 5695POPC   GL271462  12.387  40.790   5.850
 5695POPC   C1A71463  12.892  40.972   6.250
 5695POPC   D2A71464  12.826  40.768   6.659
 5695POPC   C3A71465  12.738  40.971   6.996
 5695POPC   C4A71466  13.000  41.045   7.308
 5695POPC   C1B71467  12.541  40.597   6.242
 5695POPC   C2B71468  12.368  40.505   6.666
 5695POPC   C3B71469  12.487  40.488   7.058
 5695POPC   C4B71470  12.873  40.524   7.218
 5696POPC   NC371471  20.816  17.323   5.364
 5696POPC   PO471472  20.804  17.870   5.720
 5696POPC   GL171473  20.720  17.444   5.863
 5696POPC   GL271474  20.988  17.174   5.815
 5696POPC   C1A71475  20.407  17.348   6.198
 5696POPC   D2A71476  20.323  17.539   6.632
 5696POPC   C3A71477  20.607  17.706   6.925
 5696POPC   C4A71478  20.481  17.581   7.341
 5696POPC   C1B71479  20.860  17.091   6.195
 5696POPC   C2B71480  20.790  17.376   6.542
 5696POPC   C3B71481  20.716  17.217   6.957
 5696POPC   C4B71482  20.898  17.291   7.355
 5697POPC   NC371483  16.064  19.762   5.289
 5697POPC   PO471484  15.666  20.229   5.478
 5697POPC   GL171485  15.950  19.984   5.734
 5697POPC   GL271486  15.931  19.580   5.753
 5697POPC   C1A71487  16.088  19.937   6.142
 5697POPC   D2A71488  15.865  19.916   6.543
 5697POPC   C3A71489  16.131  19.878   6.871
 5697POPC   C4A71490  16.232  20.079   7.237
 5697POPC   C1B71491  15.656  19.649   6.123
 5697POPC   C2B71492  15.506  19.520   6.538
 5697POPC   C3B71493  15.563  19.703   6.929
 5697POPC   C4B71494  15.797  19.790   7.274
 5698POPC   NC371495  15.412  26.381   4.986
 5698POPC   PO471496  15.359  26.887   5.446
 5698POPC   GL171497  15.354  27.010   5.874
 5698POPC   GL271498  15.032  26.836   5.892
 5698POPC   C1A71499  15.123  27.171   6.250
 5698POPC   D2A71500  15.006  26.951   6.642
 5698POPC   C3A71501  14.986  27.030   7.075
 5698POPC   C4A71502  15.338  26.927   7.371
 5698POPC   C1B71503  15.168  26.648   6.246
 5698POPC   C2B71504  15.126  26.441   6.600
 5698POPC   C3B71505  15.324  26.618   6.953
 5698POPC   C4B71506  15.244  26.419   7.315
 5699POPC   NC371507  42.131  25.797   5.290
 5699POPC   PO471508  42.365  26.421   5.402
 5699POPC   GL171509  42.243  26.121   5.777
 5699POPC   GL271510  42.011  25.815   5.797
 5699POPC   C1A71511  42.459  25.928   6.179
 5699POPC   D2A71512  42.763  25.901   6.505
 5699POPC   C3A71513  42.520  25.881   6.890
 5699POPC   C4A71514  42.297  26.111   7.226
 5699POPC   C1B71515  41.953  25.972   6.189
 5699POPC   C2B71516  42.008  26.148   6.581
 5699POPC   C3B71517  41.954  25.908   6.923
 5699POPC   C4B71518  42.106  25.543   7.057
 5700POPC   NC371519  27.912  35.428   5.430
 5700POPC   PO471520  27.440  34.983   5.262
 5700POPC   GL171521  27.567  35.150   5.724
 5700POPC   GL271522  27.950  35.128   5.830
 5700POPC   C1A71523  27.571  35.403   6.158
 5700POPC   D2A71524  27.610  35.698   6.509
 5700POPC   C3A71525  27.398  35.592   6.877
 5700POPC   C4A71526  27.427  35.356   7.230
 5700POPC   C1B71527  28.038  35.219   6.266
 5700POPC   C2B71528  27.776  35.223   6.639
 5700POPC   C3B71529  27.878  35.420   7.005
 5700POPC   C4B71530  28.079  35.433   7.382
 5701POPC   NC371531   0.910  26.189   5.349
 5701POPC   PO471532   1.354  25.770   5.582
 5701POPC   GL171533   1.187  26.122   5.780
 5701POPC   GL271534   0.922  25.893   5.827
 5701POPC   C1A71535   0.954  26.347   6.108
 5701POPC   D2A71536   0.838  26.220   6.519
 5701POPC   C3A71537   1.086  26.379   6.865
 5701POPC   C4A71538   1.384  26.262   7.202
 5701POPC   C1B71539   1.119  25.872   6.249
 5701POPC   C2B71540   1.289  25.936   6.672
 5701POPC   C3B71541   1.341  25.738   7.076
 5701POPC   C4B71542   1.373  25.792   7.515
 5702POPC   NC371543  12.951  22.401   5.592
 5702POPC   PO471544  13.109  22.845   5.183
 5702POPC   GL171545  12.932  22.903   5.655
 5702POPC   GL271546  13.108  23.154   5.868
 5702POPC   C1A71547  12.823  22.759   6.112
 5702POPC   D2A71548  13.007  22.862   6.514
 5702POPC   C3A71549  12.822  22.764   6.907
 5702POPC   C4A71550  12.618  22.748   7.306
 5702POPC   C1B71551  12.800  23.246   6.237
 5702POPC   C2B71552  12.631  23.215   6.661
 5702POPC   C3B71553  12.749  23.222   7.101
 5702POPC   C4B71554  13.069  23.011   7.348
 5703POPC   NC371555  36.613   4.188   5.477
 5703POPC   PO471556  37.142   4.019   5.070
 5703POPC   GL171557  37.129   4.161   5.631
 5703POPC   GL271558  36.842   4.323   5.907
 5703POPC   C1A71559  37.270   4.217   6.142
 5703POPC   D2A71560  37.004   4.364   6.569
 5703POPC   C3A71561  37.184   4.458   7.039
 5703POPC   C4A71562  37.282   4.450   7.515
 5703POPC   C1B71563  36.741   4.729   6.182
 5703POPC   C2B71564  36.748   4.892   6.605
 5703POPC   C3B71565  36.727   4.652   6.978
 5703POPC   C4B71566  36.846   4.676   7.441
 5704POPC   NC371567  28.059  14.690   5.503
 5704POPC   PO471568  28.532  14.206   5.345
 5704POPC   GL171569  28.304  14.202   5.727
 5704POPC   GL271570  28.618  14.035   5.827
 5704POPC   C1A71571  28.007  14.308   6.087
 5704POPC   D2A71572  28.144  14.544   6.424
 5704POPC   C3A71573  28.017  14.504   6.846
 5704POPC   C4A71574  28.239  14.411   7.209
 5704POPC   C1B71575  28.585  14.354   6.159
 5704POPC   C2B71576  28.691  14.301   6.583
 5704POPC   C3B71577  28.691  14.483   6.975
 5704POPC   C4B71578  28.724  14.217   7.333
 5705POPC   NC371579  36.607   8.961   5.519
 5705POPC   PO471580  35.989   8.974   5.230
 5705POPC   GL171581  36.110   8.965   5.689
 5705POPC   GL271582  36.313   8.680   5.824
 5705POPC   C1A71583  36.059   9.165   6.107
 5705POPC   D2A71584  36.084   9.027   6.535
 5705POPC   C3A71585  36.144   9.203   6.936
 5705POPC   C4A71586  36.354   8.957   7.284
 5705POPC   C1B71587  36.040   8.622   6.204
 5705POPC   C2B71588  35.847   8.587   6.637
 5705POPC   C3B71589  35.903   8.740   7.076
 5705POPC   C4B71590  35.937   8.660   7.552
 5706POPC   NC371591  18.233   0.399   5.303
 5706POPC   PO471592  17.802  44.906   5.575
 5706POPC   GL171593  18.104   0.234   5.815
 5706POPC   GL271594  18.341   0.562   5.756
 5706POPC   C1A71595  18.446   0.242   6.153
 5706POPC   D2A71596  18.701   0.150   6.546
 5706POPC   C3A71597  18.549   0.300   6.948
 5706POPC   C4A71598  18.350   0.263   7.351
 5706POPC   C1B71599  18.254   0.724   6.146
 5706POPC   C2B71600  18.463   0.637   6.533
 5706POPC   C3B71601  18.351   0.793   6.930
 5706POPC   C4B71602  17.993   0.782   7.177
 5707POPC   NC371603  30.184   6.875   5.518
 5707POPC   PO471604  30.546   7.483   5.359
 5707POPC   GL171605  30.479   7.593   5.787
 5707POPC   GL271606  30.858   7.634   5.833
 5707POPC   C1A71607  30.529   7.746   6.209
 5707POPC   D2A71608  30.839   7.575   6.487
 5707POPC   C3A71609  30.774   7.687   6.903
 5707POPC   C4A71610  30.619   7.469   7.233
 5707POPC   C1B71611  31.001   7.252   6.054
 5707POPC   C2B71612  31.012   7.091   6.466
 5707POPC   C3B71613  31.123   7.289   6.861
 5707POPC   C4B71614  30.998   7.097   7.273
 5708POPC   NC371615  34.891   3.986   5.020
 5708POPC   PO471616  34.474   4.393   5.396
 5708POPC   GL171617  34.453   4.403   5.856
 5708POPC   GL271618  34.106   4.318   5.887
 5708POPC   C1A71619  34.685   4.183   6.209
 5708POPC   D2A71620  34.599   4.312   6.615
 5708POPC   C3A71621  34.654   4.100   6.988
 5708POPC   C4A71622  34.902   4.254   7.365
 5708POPC   C1B71623  34.173   4.204   6.306
 5708POPC   C2B71624  34.123   4.465   6.687
 5708POPC   C3B71625  34.359   4.496   7.091
 5708POPC   C4B71626  34.405   4.178   7.451
 5709POPC   NC371627  36.947  19.123   5.393
 5709POPC   PO471628  36.941  19.768   5.481
 5709POPC   GL171629  36.920  19.447   5.831
 5709POPC   GL271630  37.188  19.165   5.913
 5709POPC   C1A71631  36.799  19.268   6.243
 5709POPC   D2A71632  36.637  18.966   6.548
 5709POPC   C3A71633  36.831  19.086   6.940
 5709POPC   C4A71634  37.206  18.968   7.181
 5709POPC   C1B71635  36.962  18.775   6.176
 5709POPC   C2B71636  36.809  18.476   6.525
 5709POPC   C3B71637  36.771  18.572   6.992
 5709POPC   C4B71638  36.564  18.857   7.303
 5710POPC   NC371639  22.708   1.654   5.299
 5710POPC   PO471640  23.057   2.194   5.485
 5710POPC   GL171641  22.820   1.913   5.735
 5710POPC   GL271642  23.063   1.718   5.863
 5710POPC   C1A71643  22.687   1.930   6.177
 5710POPC   D2A71644  22.866   2.105   6.568
 5710POPC   C3A71645  22.614   2.144   6.956
 5710POPC   C4A71646  22.750   2.026   7.373
 5710POPC   C1B71647  23.251   1.899   6.230
 5710POPC   C2B71648  23.287   1.733   6.661
 5710POPC   C3B71649  23.126   1.756   7.097
 5710POPC   C4B71650  23.011   1.629   7.510
 5711POPC   NC371651  33.954   4.454   5.371
 5711POPC   PO471652  33.439   3.958   5.216
 5711POPC   GL171653  33.579   4.192   5.654
 5711POPC   GL271654  33.649   4.559   5.792
 5711POPC   C1A71655  33.670   4.134   6.110
 5711POPC   D2A71656  33.742   4.131   6.560
 5711POPC   C3A71657  33.916   4.086   6.972
 5711POPC   C4A71658  33.572   3.921   7.146
 5711POPC   C1B71659  33.819   4.607   6.240
 5711POPC   C2B71660  33.607   4.615   6.657
 5711POPC   C3B71661  33.596   4.495   7.098
 5711POPC   C4B71662  33.936   4.451   7.393
 5712POPC   NC371663   6.073  40.434   5.307
 5712POPC   PO471664   5.765  40.990   5.416
 5712POPC   GL171665   5.582  40.855   5.819
 5712POPC   GL271666   5.831  40.587   5.798
 5712POPC   C1A71667   5.575  40.830   6.278
 5712POPC   D2A71668   5.520  40.606   6.672
 5712POPC   C3A71669   5.693  40.770   7.067
 5712POPC   C4A71670   5.779  40.596   7.504
 5712POPC   C1B71671   6.042  40.583   6.206
 5712POPC   C2B71672   6.025  40.479   6.654
 5712POPC   C3B71673   6.085  40.465   7.093
 5712POPC   C4B71674   6.248  40.780   7.363
 5713POPC   NC371675  25.867  42.110   5.336
 5713POPC   PO471676  25.226  42.169   5.279
 5713POPC   GL171677  25.219  42.264   5.733
 5713POPC   GL271678  25.457  42.523   5.824
 5713POPC   C1A71679  25.081  42.036   6.112
 5713POPC   D2A71680  25.211  42.013   6.529
 5713POPC   C3A71681  25.010  42.122   6.935
 5713POPC   C4A71682  25.182  42.340   7.308
 5713POPC   C1B71683  25.201  42.532   6.230
 5713POPC   C2B71684  25.302  42.482   6.690
 5713POPC   C3B71685  25.431  42.688   7.074
 5713POPC   C4B71686  25.468  42.696   7.563
 5714POPC   NC371687   5.558  34.559   5.388
 5714POPC   PO471688   6.166  34.741   5.400
 5714POPC   GL171689   5.882  34.666   5.744
 5714POPC   GL271690   5.653  34.918   5.800
 5714POPC   C1A71691   5.803  34.560   6.170
 5714POPC   D2A71692   5.985  34.435   6.551
 5714POPC   C3A71693   5.777  34.512   6.907
 5714POPC   C4A71694   5.887  34.699   7.280
 5714POPC   C1B71695   5.532  35.007   6.228
 5714POPC   C2B71696   5.478  34.802   6.602
 5714POPC   C3B71697   5.533  34.981   7.007
 5714POPC   C4B71698   5.704  35.178   7.356
 5715POPC   NC371699  25.461  13.206   5.227
 5715POPC   PO471700  25.171  12.667   5.265
 5715POPC   GL171701  25.258  12.895   5.622
 5715POPC   GL271702  25.381  12.580   5.808
 5715POPC   C1A71703  25.228  12.980   6.075
 5715POPC   D2A71704  25.232  12.719   6.465
 5715POPC   C3A71705  25.183  13.023   6.811
 5715POPC   C4A71706  25.075  12.917   7.204
 5715POPC   C1B71707  25.491  12.313   6.187
 5715POPC   C2B71708  25.596  12.375   6.635
 5715POPC   C3B71709  25.464  12.633   6.981
 5715POPC   C4B71710  25.358  12.552   7.427
 5716POPC   NC371711  17.201   9.425   5.493
 5716POPC   PO471712  17.557   8.874   5.403
 5716POPC   GL171713  17.439   8.999   5.826
 5716POPC   GL271714  17.133   8.904   5.928
 5716POPC   C1A71715  17.733   9.119   6.202
 5716POPC   D2A71716  17.922   8.889   6.567
 5716POPC   C3A71717  17.657   8.948   6.931
 5716POPC   C4A71718  17.392   8.701   7.163
 5716POPC   C1B71719  17.248   9.275   6.223
 5716POPC   C2B71720  17.312   9.320   6.689
 5716POPC   C3B71721  17.240   9.236   7.157
 5716POPC   C4B71722  17.166   9.393   7.599
 5717POPC   NC371723  15.419  43.968   5.373
 5717POPC   PO471724  14.754  43.777   5.365
 5717POPC   GL171725  15.093  43.819   5.767
 5717POPC   GL271726  15.356  44.105   5.854
 5717POPC   C1A71727  15.225  43.735   6.234
 5717POPC   D2A71728  15.344  43.597   6.671
 5717POPC   C3A71729  15.208  43.742   7.101
 5717POPC   C4A71730  15.193  43.639   7.569
 5717POPC   C1B71731  15.517  44.362   6.229
 5717POPC   C2B71732  15.614  44.423   6.685
 5717POPC   C3B71733  15.549  44.125   7.028
 5717POPC   C4B71734  15.498  44.026   7.481
 5718POPC   NC371735  36.852   2.505   5.494
 5718POPC   PO471736  37.027   3.122   5.401
 5718POPC   GL171737  36.856   2.956   5.796
 5718POPC   GL271738  37.170   2.808   5.895
 5718POPC   C1A71739  36.853   2.900   6.290
 5718POPC   D2A71740  36.963   3.006   6.751
 5718POPC   C3A71741  36.739   2.755   7.075
 5718POPC   C4A71742  36.350   2.544   7.219
 5718POPC   C1B71743  37.153   2.450   6.175
 5718POPC   C2B71744  37.171   2.349   6.607
 5718POPC   C3B71745  37.163   2.469   7.031
 5718POPC   C4B71746  36.983   2.261   7.360
 5719POPC   NC371747  38.829  14.038   5.443
 5719POPC   PO471748  38.419  13.450   5.425
 5719POPC   GL171749  38.461  13.791   5.738
 5719POPC   GL271750  38.775  13.732   5.871
 5719POPC   C1A71751  38.196  13.758   6.087
 5719POPC   D2A71752  38.181  13.429   6.424
 5719POPC   C3A71753  38.126  13.605   6.816
 5719POPC   C4A71754  38.319  13.650   7.192
 5719POPC   C1B71755  38.654  13.610   6.297
 5719POPC   C2B71756  38.647  13.676   6.758
 5719POPC   C3B71757  38.796  13.827   7.156
 5719POPC   C4B71758  38.774  13.727   7.612
 5720POPC   NC371759  41.724   6.103   5.176
 5720POPC   PO471760  41.286   5.648   5.487
 5720POPC   GL171761  41.443   5.935   5.823
 5720POPC   GL271762  41.372   5.661   6.010
 5720POPC   C1A71763  41.747   5.995   6.207
 5720POPC   D2A71764  41.975   6.053   6.632
 5720POPC   C3A71765  41.812   5.910   7.042
 5720POPC   C4A71766  41.706   5.460   7.238
 5720POPC   C1B71767  41.414   5.668   6.430
 5720POPC   C2B71768  41.435   5.637   6.843
 5720POPC   C3B71769  41.334   5.831   7.227
 5720POPC   C4B71770  41.244   6.214   7.441
 5721POPC   NC371771  22.462  11.441   5.588
 5721POPC   PO471772  21.998  11.186   5.149
 5721POPC   GL171773  21.987  11.195   5.681
 5721POPC   GL271774  21.891  10.852   5.827
 5721POPC   C1A71775  22.174  11.299   6.159
 5721POPC   D2A71776  22.010  11.419   6.594
 5721POPC   C3A71777  22.288  11.442   6.944
 5721POPC   C4A71778  22.175  11.417   7.359
 5721POPC   C1B71779  22.139  10.783   6.229
 5721POPC   C2B71780  22.355  11.022   6.584
 5721POPC   C3B71781  22.267  10.965   7.013
 5721POPC   C4B71782  22.460  10.717   7.280
 5722POPC   NC371783  27.584  15.438   5.488
 5722POPC   PO471784  27.679  14.819   5.741
 5722POPC   GL171785  27.797  15.206   5.913
 5722POPC   GL271786  27.577  15.430   5.997
 5722POPC   C1A71787  27.967  15.277   6.323
 5722POPC   D2A71788  27.984  14.981   6.643
 5722POPC   C3A71789  27.834  15.027   7.081
 5722POPC   C4A71790  27.922  15.011   7.528
 5722POPC   C1B71791  27.468  15.101   6.302
 5722POPC   C2B71792  27.479  15.217   6.692
 5722POPC   C3B71793  27.558  15.475   6.993
 5722POPC   C4B71794  27.464  15.597   7.354
 5723POPC   NC371795   8.473  17.433   5.429
 5723POPC   PO471796   7.983  17.926   5.457
 5723POPC   GL171797   8.184  17.682   5.785
 5723POPC   GL271798   8.027  17.343   5.750
 5723POPC   C1A71799   8.248  17.517   6.203
 5723POPC   D2A71800   8.427  17.451   6.607
 5723POPC   C3A71801   8.262  17.618   7.015
 5723POPC   C4A71802   8.449  17.324   7.313
 5723POPC   C1B71803   7.801  17.282   6.150
 5723POPC   C2B71804   8.033  17.118   6.473
 5723POPC   C3B71805   8.033  17.186   6.891
 5723POPC   C4B71806   7.984  17.030   7.283
 5724POPC   NC371807  36.452  39.368   5.299
 5724POPC   PO471808  35.823  38.999   5.241
 5724POPC   GL171809  35.970  39.054   5.680
 5724POPC   GL271810  36.307  39.203   5.768
 5724POPC   C1A71811  35.949  39.195   6.123
 5724POPC   D2A71812  35.864  39.412   6.485
 5724POPC   C3A71813  35.900  39.229   6.861
 5724POPC   C4A71814  36.073  39.530   7.092
 5724POPC   C1B71815  36.447  39.013   6.158
 5724POPC   C2B71816  36.278  39.042   6.555
 5724POPC   C3B71817  36.414  39.176   6.945
 5724POPC   C4B71818  36.600  39.049   7.291
 5725POPC   NC371819  28.018  21.491   5.288
 5725POPC   PO471820  28.494  20.983   5.349
 5725POPC   GL171821  28.494  21.181   5.770
 5725POPC   GL271822  28.355  21.534   5.776
 5725POPC   C1A71823  28.356  21.233   6.212
 5725POPC   D2A71824  28.142  21.385   6.601
 5725POPC   C3A71825  28.382  21.356   6.990
 5725POPC   C4A71826  28.395  21.153   7.394
 5725POPC   C1B71827  28.048  21.655   6.131
 5725POPC   C2B71828  27.939  21.876   6.541
 5725POPC   C3B71829  28.082  21.780   6.982
 5725POPC   C4B71830  28.288  21.663   7.399
 5726POPC   NC371831  37.407   1.988   5.559
 5726POPC   PO471832  36.676   2.049   5.487
 5726POPC   GL171833  36.950   2.102   5.804
 5726POPC   GL271834  37.004   1.772   5.803
 5726POPC   C1A71835  36.782   2.092   6.202
 5726POPC   D2A71836  36.825   1.957   6.589
 5726POPC   C3A71837  36.686   2.213   6.938
 5726POPC   C4A71838  36.508   2.058   7.343
 5726POPC   C1B71839  37.172   1.738   6.207
 5726POPC   C2B71840  37.320   1.842   6.610
 5726POPC   C3B71841  37.135   1.925   6.983
 5726POPC   C4B71842  37.154   1.609   7.247
 5727POPC   NC371843  14.503  36.355   5.425
 5727POPC   PO471844  14.478  35.729   5.668
 5727POPC   GL171845  14.316  36.052   5.892
 5727POPC   GL271846  14.294  36.395   5.903
 5727POPC   C1A71847  14.345  36.098   6.331
 5727POPC   D2A71848  14.166  36.208   6.690
 5727POPC   C3A71849  14.215  35.910   7.014
 5727POPC   C4A71850  14.609  35.844   7.192
 5727POPC   C1B71851  14.647  36.455   6.119
 5727POPC   C2B71852  14.691  36.420   6.567
 5727POPC   C3B71853  14.577  36.321   6.993
 5727POPC   C4B71854  14.194  36.391   7.181
 5728POPC   NC371855   6.985  20.312   5.622
 5728POPC   PO471856   6.472  20.639   5.262
 5728POPC   GL171857   6.417  20.698   5.734
 5728POPC   GL271858   6.757  20.763   5.798
 5728POPC   C1A71859   6.504  20.588   6.208
 5728POPC   D2A71860   6.578  20.785   6.617
 5728POPC   C3A71861   6.510  20.504   6.972
 5728POPC   C4A71862   6.634  20.549   7.407
 5728POPC   C1B71863   6.914  20.950   6.194
 5728POPC   C2B71864   7.085  20.792   6.590
 5728POPC   C3B71865   6.981  20.684   6.991
 5728POPC   C4B71866   6.996  20.897   7.347
 5729POPC   NC371867  13.399  40.262   5.107
 5729POPC   PO471868  13.620  39.731   5.248
 5729POPC   GL171869  13.575  39.876   5.727
 5729POPC   GL271870  13.467  40.215   5.817
 5729POPC   C1A71871  13.643  39.946   6.232
 5729POPC   D2A71872  13.841  40.025   6.684
 5729POPC   C3A71873  13.625  39.878   7.102
 5729POPC   C4A71874  13.740  39.863   7.565
 5729POPC   C1B71875  13.241  40.254   6.208
 5729POPC   C2B71876  13.343  40.119   6.641
 5729POPC   C3B71877  13.289  40.253   7.057
 5729POPC   C4B71878  13.283  40.091   7.482
 5730POPC   NC371879   1.698  10.933   5.470
 5730POPC   PO471880   2.127  10.354   5.291
 5730POPC   GL171881   2.017  10.384   5.763
 5730POPC   GL271882   1.795  10.113   5.918
 5730POPC   C1A71883   2.118  10.397   6.216
 5730POPC   D2A71884   2.112  10.218   6.631
 5730POPC   C3A71885   2.249  10.565   6.879
 5730POPC   C4A71886   2.355  10.756   7.260
 5730POPC   C1B71887   1.589  10.334   6.254
 5730POPC   C2B71888   1.683  10.582   6.598
 5730POPC   C3B71889   1.772  10.436   6.986
 5730POPC   C4B71890   1.828  10.519   7.394
 5731POPC   NC371891   7.353   0.879   5.087
 5731POPC   PO471892   7.642   0.343   5.415
 5731POPC   GL171893   7.588   0.370   5.844
 5731POPC   GL271894   7.453   0.665   5.945
 5731POPC   C1A71895   7.783   0.361   6.281
 5731POPC   D2A71896   7.614   0.490   6.708
 5731POPC   C3A71897   7.734   0.310   7.120
 5731POPC   C4A71898   7.478   0.473   7.474
 5731POPC   C1B71899   7.281   0.480   6.303
 5731POPC   C2B71900   7.052   0.508   6.648
 5731POPC   C3B71901   7.184   0.512   7.052
 5731POPC   C4B71902   6.978   0.569   7.428
 5732POPC   NC371903  42.029  10.556   5.381
 5732POPC   PO471904  42.545  10.124   5.464
 5732POPC   GL171905  42.438  10.478   5.757
 5732POPC   GL271906  42.215  10.789   5.813
 5732POPC   C1A71907  42.535  10.571   6.194
 5732POPC   D2A71908  42.358  10.488   6.593
 5732POPC   C3A71909  42.533  10.695   6.910
 5732POPC   C4A71910  42.397  10.827   7.307
 5732POPC   C1B71911  42.037  10.680   6.211
 5732POPC   C2B71912  41.896  10.759   6.608
 5732POPC   C3B71913  42.035  10.658   6.992
 5732POPC   C4B71914  41.929  10.598   7.420
 5733POPC   NC371915   1.655   6.177   5.481
 5733POPC   PO471916   2.234   5.783   5.470
 5733POPC   GL171917   1.983   5.911   5.828
 5733POPC   GL271918   1.827   5.633   5.956
 5733POPC   C1A71919   1.996   6.077   6.270
 5733POPC   D2A71920   1.972   6.152   6.744
 5733POPC   C3A71921   2.223   5.882   7.050
 5733POPC   C4A71922   2.222   5.861   7.500
 5733POPC   C1B71923   1.810   5.592   6.337
 5733POPC   C2B71924   1.983   5.636   6.676
 5733POPC   C3B71925   1.703   5.785   6.963
 5733POPC   C4B71926   1.717   5.816   7.390
 5734POPC   NC371927  31.328  35.848   5.427
 5734POPC   PO471928  31.671  36.422   5.333
 5734POPC   GL171929  31.627  36.177   5.728
 5734POPC   GL271930  31.659  35.815   5.805
 5734POPC   C1A71931  31.676  36.249   6.170
 5734POPC   D2A71932  31.364  36.409   6.472
 5734POPC   C3A71933  31.428  36.331   6.896
 5734POPC   C4A71934  31.344  36.527   7.269
 5734POPC   C1B71935  31.295  35.940   6.122
 5734POPC   C2B71936  31.347  35.870   6.574
 5734POPC   C3B71937  31.306  35.711   6.995
 5734POPC   C4B71938  31.353  36.012   7.322
 5735POPC   NC371939  28.583  15.476   5.458
 5735POPC   PO471940  27.927  15.157   5.370
 5735POPC   GL171941  28.260  15.167   5.728
 5735POPC   GL271942  28.211  15.531   5.815
 5735POPC   C1A71943  28.338  14.956   6.166
 5735POPC   D2A71944  28.537  14.805   6.590
 5735POPC   C3A71945  28.346  14.896   7.002
 5735POPC   C4A71946  28.349  15.191   7.340
 5735POPC   C1B71947  28.451  15.471   6.175
 5735POPC   C2B71948  28.426  15.293   6.586
 5735POPC   C3B71949  28.139  15.398   6.917
 5735POPC   C4B71950  27.949  15.491   7.323
 5736POPC   NC371951  34.035   6.388   5.012
 5736POPC   PO471952  33.671   6.720   5.411
 5736POPC   GL171953  33.727   6.748   5.846
 5736POPC   GL271954  33.830   6.412   5.925
 5736POPC   C1A71955  33.554   6.722   6.225
 5736POPC   D2A71956  33.285   6.431   6.400
 5736POPC   C3A71957  33.354   6.366   6.841
 5736POPC   C4A71958  33.462   6.329   7.264
 5736POPC   C1B71959  34.048   6.557   6.284
 5736POPC   C2B71960  33.829   6.607   6.658
 5736POPC   C3B71961  33.746   6.708   7.050
 5736POPC   C4B71962  34.022   6.597   7.348
 5737POPC   NC371963   1.088  42.159   5.046
 5737POPC   PO471964   1.386  42.525   5.443
 5737POPC   GL171965   1.281  42.316   5.805
 5737POPC   GL271966   1.462  42.611   5.959
 5737POPC   C1A71967   1.366  42.175   6.200
 5737POPC   D2A71968   1.374  42.412   6.583
 5737POPC   C3A71969   1.245  42.228   6.944
 5737POPC   C4A71970   1.433  41.959   7.226
 5737POPC   C1B71971   1.071  42.636   6.199
 5737POPC   C2B71972   0.887  42.563   6.600
 5737POPC   C3B71973   0.803  42.533   7.035
 5737POPC   C4B71974   1.158  42.507   7.347
 5738POPC   NC371975  39.258  43.710   5.400
 5738POPC   PO471976  39.396  44.214   5.729
 5738POPC   GL171977  39.129  43.940   5.885
 5738POPC   GL271978  39.321  43.638   5.901
 5738POPC   C1A71979  39.025  43.833   6.311
 5738POPC   D2A71980  39.246  43.676   6.672
 5738POPC   C3A71981  39.422  44.000   6.891
 5738POPC   C4A71982  39.497  44.115   7.293
 5738POPC   C1B71983  39.282  43.377   6.257
 5738POPC   C2B71984  39.137  43.150   6.595
 5738POPC   C3B71985  39.221  43.276   6.985
 5738POPC   C4B71986  39.180  43.672   7.224
 5739POPC   NC371987  32.559  13.478   5.461
 5739POPC   PO471988  31.941  13.856   5.415
 5739POPC   GL171989  32.157  13.707   5.804
 5739POPC   GL271990  32.287  13.395   5.865
 5739POPC   C1A71991  32.314  13.755   6.255
 5739POPC   D2A71992  32.601  13.607   6.620
 5739POPC   C3A71993  32.431  13.800   7.014
 5739POPC   C4A71994  32.026  13.772   7.216
 5739POPC   C1B71995  32.457  13.250   6.234
 5739POPC   C2B71996  32.394  13.111   6.630
 5739POPC   C3B71997  32.453  13.259   7.017
 5739POPC   C4B71998  32.400  13.019   7.378
 5740POPC   NC371999  29.584   4.276   5.432
 5740POPC   PO472000  30.307   4.269   5.416
 5740POPC   GL172001  30.165   4.417   5.790
 5740POPC   GL272002  29.888   4.628   5.723
 5740POPC   C1A72003  30.010   4.212   6.152
 5740POPC   D2A72004  30.163   4.073   6.541
 5740POPC   C3A72005  30.096   4.390   6.834
 5740POPC   C4A72006  30.226   4.330   7.233
 5740POPC   C1B72007  29.619   4.575   6.109
 5740POPC   C2B72008  29.616   4.330   6.517
 5740POPC   C3B72009  29.708   4.081   6.887
 5740POPC   C4B72010  29.591   4.042   7.308
 5741POPC   NC372011  16.266   5.640   5.348
 5741POPC   PO472012  15.867   6.133   5.281
 5741POPC   GL172013  15.984   5.946   5.720
 5741POPC   GL272014  15.935   6.281   5.892
 5741POPC   C1A72015  16.185   5.914   6.144
 5741POPC   D2A72016  16.036   6.065   6.563
 5741POPC   C3A72017  15.929   5.732   6.866
 5741POPC   C4A72018  16.119   5.650   7.250
 5741POPC   C1B72019  15.625   6.289   6.215
 5741POPC   C2B72020  15.656   6.434   6.611
 5741POPC   C3B72021  15.734   6.201   6.968
 5741POPC   C4B72022  16.141   6.155   7.098
 5742POPC   NC372023  30.962  20.863   5.372
 5742POPC   PO472024  31.523  20.567   5.168
 5742POPC   GL172025  31.526  20.599   5.653
 5742POPC   GL272026  31.266  20.801   5.773
 5742POPC   C1A72027  31.515  20.361   6.068
 5742POPC   D2A72028  31.336  20.267   6.489
 5742POPC   C3A72029  31.645  20.343   6.834
 5742POPC   C4A72030  31.549  20.437   7.259
 5742POPC   C1B72031  31.538  20.873   6.129
 5742POPC   C2B72032  31.483  20.778   6.567
 5742POPC   C3B72033  31.646  20.868   6.985
 5742POPC   C4B72034  31.370  20.922   7.340
 5743POPC   NC372035  37.914  17.012   5.474
 5743POPC   PO472036  37.539  16.427   5.361
 5743POPC   GL172037  37.708  16.536   5.806
 5743POPC   GL272038  37.843  16.818   5.915
 5743POPC   C1A72039  37.554  16.625   6.251
 5743POPC   D2A72040  37.548  16.871   6.592
 5743POPC   C3A72041  37.512  16.655   6.925
 5743POPC   C4A72042  37.325  16.588   7.331
 5743POPC   C1B72043  38.075  16.937   6.255
 5743POPC   C2B72044  38.037  16.780   6.641
 5743POPC   C3B72045  37.948  16.925   7.006
 5743POPC   C4B72046  37.668  16.953   7.312
 5744POPC   NC372047  25.163  29.593   5.536
 5744POPC   PO472048  25.470  29.093   5.183
 5744POPC   GL172049  25.234  29.040   5.619
 5744POPC   GL272050  25.458  29.254   5.777
 5744POPC   C1A72051  25.072  29.152   6.102
 5744POPC   D2A72052  25.170  29.311   6.550
 5744POPC   C3A72053  25.168  29.048   6.945
 5744POPC   C4A72054  25.393  28.688   7.139
 5744POPC   C1B72055  25.659  29.122   6.132
 5744POPC   C2B72056  25.644  29.086   6.554
 5744POPC   C3B72057  25.742  29.017   6.959
 5744POPC   C4B72058  25.525  29.154   7.332
 5745POPC   NC372059  13.851  26.352   5.513
 5745POPC   PO472060  13.818  25.652   5.532
 5745POPC   GL172061  13.566  25.732   5.900
 5745POPC   GL272062  13.673  26.076   5.935
 5745POPC   C1A72063  13.581  25.770   6.369
 5745POPC   D2A72064  13.596  25.993   6.747
 5745POPC   C3A72065  13.692  25.823   7.143
 5745POPC   C4A72066  13.697  25.983   7.567
 5745POPC   C1B72067  13.442  26.257   6.280
 5745POPC   C2B72068  13.369  26.459   6.674
 5745POPC   C3B72069  13.503  26.382   7.094
 5745POPC   C4B72070  13.274  26.315   7.461
 5746POPC   NC372071  16.215   4.940   5.504
 5746POPC   PO472072  15.805   5.541   5.460
 5746POPC   GL172073  15.879   5.199   5.784
 5746POPC   GL272074  15.669   4.897   5.679
 5746POPC   C1A72075  16.217   5.150   6.144
 5746POPC   D2A72076  16.257   5.436   6.518
 5746POPC   C3A72077  16.145   5.248   6.925
 5746POPC   C4A72078  15.743   5.256   7.186
 5746POPC   C1B72079  15.804   4.674   6.063
 5746POPC   C2B72080  16.006   4.770   6.475
 5746POPC   C3B72081  15.811   4.846   6.874
 5746POPC   C4B72082  15.845   4.672   7.279
 5747POPC   NC372083   6.274  17.203   5.529
 5747POPC   PO472084   6.680  17.769   5.527
 5747POPC   GL172085   6.800  17.552   5.893
 5747POPC   GL272086   6.803  17.188   5.797
 5747POPC   C1A72087   6.838  17.677   6.328
 5747POPC   D2A72088   6.678  17.886   6.710
 5747POPC   C3A72089   6.707  17.721   7.132
 5747POPC   C4A72090   6.925  17.372   7.316
 5747POPC   C1B72091   6.710  17.190   6.259
 5747POPC   C2B72092   6.821  17.329   6.711
 5747POPC   C3B72093   6.507  17.256   7.038
 5747POPC   C4B72094   6.466  17.180   7.472
 5748POPC   NC372095  24.964  30.542   5.383
 5748POPC   PO472096  25.588  30.575   5.631
 5748POPC   GL172097  25.294  30.751   5.886
 5748POPC   GL272098  25.018  30.540   5.896
 5748POPC   C1A72099  25.308  30.620   6.316
 5748POPC   D2A72100  25.416  30.586   6.741
 5748POPC   C3A72101  25.228  30.971   6.942
 5748POPC   C4A72102  24.909  31.071   7.260
 5748POPC   C1B72103  24.814  30.445   6.271
 5748POPC   C2B72104  24.690  30.406   6.662
 5748POPC   C3B72105  24.972  30.443   6.969
 5748POPC   C4B72106  24.962  30.124   7.241
 5749POPC   NC372107  26.654  13.044   5.421
 5749POPC   PO472108  26.965  12.558   5.506
 5749POPC   GL172109  26.765  12.787   5.845
 5749POPC   GL272110  26.900  13.145   5.863
 5749POPC   C1A72111  26.842  12.761   6.262
 5749POPC   D2A72112  26.930  12.921   6.639
 5749POPC   C3A72113  26.680  12.723   6.935
 5749POPC   C4A72114  26.815  12.692   7.353
 5749POPC   C1B72115  26.524  13.195   6.105
 5749POPC   C2B72116  26.450  13.172   6.525
 5749POPC   C3B72117  26.627  13.258   6.911
 5749POPC   C4B72118  26.467  13.077   7.235
 5750POPC   NC372119  28.997  20.703   5.051
 5750POPC   PO472120  29.260  21.250   5.374
 5750POPC   GL172121  29.240  21.411   5.773
 5750POPC   GL272122  28.912  21.579   5.774
 5750POPC   C1A72123  29.413  21.359   6.182
 5750POPC   D2A72124  29.236  21.371   6.585
 5750POPC   C3A72125  29.464  21.431   6.941
 5750POPC   C4A72126  29.363  21.276   7.316
 5750POPC   C1B72127  28.873  21.363   6.179
 5750POPC   C2B72128  28.726  21.361   6.618
 5750POPC   C3B72129  28.904  21.357   7.057
 5750POPC   C4B72130  28.765  21.486   7.474
 5751POPC   NC372131  10.783   6.659   5.359
 5751POPC   PO472132  10.107   6.469   5.362
 5751POPC   GL172133  10.370   6.576   5.723
 5751POPC   GL272134  10.522   6.297   5.820
 5751POPC   C1A72135  10.581   6.742   6.137
 5751POPC   D2A72136  10.812   6.753   6.542
 5751POPC   C3A72137  10.595   6.800   6.926
 5751POPC   C4A72138  10.456   6.944   7.336
 5751POPC   C1B72139  10.713   6.236   6.178
 5751POPC   C2B72140  10.525   6.324   6.528
 5751POPC   C3B72141  10.356   6.318   6.911
 5751POPC   C4B72142  10.485   6.434   7.304
 5752POPC   NC372143  21.875  19.319   5.460
 5752POPC   PO472144  22.361  18.855   5.449
 5752POPC   GL172145  22.211  19.157   5.788
 5752POPC   GL272146  22.485  19.222   5.974
 5752POPC   C1A72147  22.013  19.334   6.164
 5752POPC   D2A72148  21.910  19.074   6.517
 5752POPC   C3A72149  22.066  19.111   6.884
 5752POPC   C4A72150  22.168  19.397   7.175
 5752POPC   C1B72151  22.304  18.826   6.158
 5752POPC   C2B72152  22.242  18.651   6.548
 5752POPC   C3B72153  22.397  18.656   6.972
 5752POPC   C4B72154  22.285  18.926   7.317
 5753POPC   NC372155  20.894  10.310   5.534
 5753POPC   PO472156  21.511  10.537   5.413
 5753POPC   GL172157  21.458  10.554   5.814
 5753POPC   GL272158  21.299  10.235   5.850
 5753POPC   C1A72159  21.513  10.636   6.246
 5753POPC   D2A72160  21.519  10.395   6.615
 5753POPC   C3A72161  21.645  10.594   7.001
 5753POPC   C4A72162  21.937  10.748   7.319
 5753POPC   C1B72163  21.019  10.188   6.182
 5753POPC   C2B72164  21.039  10.036   6.577
 5753POPC   C3B72165  21.207  10.182   6.955
 5753POPC   C4B72166  21.353  10.333   7.342
 5754POPC   NC372167  38.993  34.549   5.459
 5754POPC   PO472168  39.465  34.960   5.448
 5754POPC   GL172169  39.243  34.763   5.839
 5754POPC   GL272170  39.263  34.365   5.860
 5754POPC   C1A72171  39.420  34.683   6.244
 5754POPC   D2A72172  39.172  34.646   6.600
 5754POPC   C3A72173  39.387  34.518   6.935
 5754POPC   C4A72174  39.242  34.589   7.330
 5754POPC   C1B72175  38.948  34.421   6.193
 5754POPC   C2B72176  38.877  34.203   6.608
 5754POPC   C3B72177  38.956  34.221   7.055
 5754POPC   C4B72178  39.353  34.098   7.222
 5755POPC   NC372179  43.640  30.437   5.437
 5755POPC   PO472180  44.057  31.006   5.343
 5755POPC   GL172181  43.951  30.788   5.736
 5755POPC   GL272182  43.596  30.870   5.726
 5755POPC   C1A72183  44.073  30.702   6.206
 5755POPC   D2A72184  44.211  30.814   6.666
 5755POPC   C3A72185  43.988  30.568   6.996
 5755POPC   C4A72186  43.565  30.447   7.126
 5755POPC   C1B72187  43.516  30.751   6.159
 5755POPC   C2B72188  43.570  30.700   6.616
 5755POPC   C3B72189  43.546  30.949   6.988
 5755POPC   C4B72190  43.809  31.049   7.305
 5756POPC   NC372191  30.962  35.120   5.647
 5756POPC   PO472192  30.618  35.501   5.191
 5756POPC   GL172193  30.588  35.475   5.706
 5756POPC   GL272194  30.445  35.227   5.800
 5756POPC   C1A72195  30.790  35.422   6.189
 5756POPC   D2A72196  30.834  35.111   6.565
 5756POPC   C3A72197  30.871  35.315   6.985
 5756POPC   C4A72198  30.859  35.684   7.255
 5756POPC   C1B72199  30.484  34.979   6.154
 5756POPC   C2B72200  30.335  34.998   6.560
 5756POPC   C3B72201  30.420  35.060   6.994
 5756POPC   C4B72202  30.184  35.032   7.367
 5757POPC   NC372203  33.999  26.405   5.133
 5757POPC   PO472204  34.372  25.964   5.527
 5757POPC   GL172205  34.549  26.119   5.868
 5757POPC   GL272206  34.557  25.801   5.990
 5757POPC   C1A72207  34.426  26.284   6.270
 5757POPC   D2A72208  34.565  26.245   6.682
 5757POPC   C3A72209  34.270  26.276   6.997
 5757POPC   C4A72210  34.486  26.374   7.347
 5757POPC   C1B72211  34.765  25.893   6.353
 5757POPC   C2B72212  34.760  25.729   6.751
 5757POPC   C3B72213  34.710  25.971   7.091
 5757POPC   C4B72214  35.019  26.240   7.242
 5758POPC   NC372215  37.883  11.139   5.327
 5758POPC   PO472216  37.510  11.590   5.429
 5758POPC   GL172217  37.691  11.367   5.820
 5758POPC   GL272218  37.550  11.012   5.809
 5758POPC   C1A72219  37.820  11.511   6.282
 5758POPC   D2A72220  37.861  11.553   6.765
 5758POPC   C3A72221  37.456  11.501   7.001
 5758POPC   C4A72222  37.371  11.346   7.435
 5758POPC   C1B72223  37.802  11.001   6.222
 5758POPC   C2B72224  37.733  11.083   6.683
 5758POPC   C3B72225  37.755  11.131   7.171
 5758POPC   C4B72226  37.951  11.007   7.615
 5759POPC   NC372227  33.996  13.117   5.261
 5759POPC   PO472228  34.003  12.460   5.227
 5759POPC   GL172229  33.836  12.702   5.617
 5759POPC   GL272230  33.809  13.090   5.737
 5759POPC   C1A72231  33.854  12.730   6.089
 5759POPC   D2A72232  33.615  12.765   6.467
 5759POPC   C3A72233  33.740  12.697   6.894
 5759POPC   C4A72234  33.545  12.826   7.274
 5759POPC   C1B72235  33.989  13.233   6.168
 5759POPC   C2B72236  33.989  13.140   6.631
 5759POPC   C3B72237  33.841  13.200   7.064
 5759POPC   C4B72238  33.967  13.172   7.500
 5760POPC   NC372239  42.223  13.174   5.494
 5760POPC   PO472240  41.842  12.638   5.392
 5760POPC   GL172241  42.193  12.741   5.736
 5760POPC   GL272242  42.575  12.698   5.784
 5760POPC   C1A72243  42.335  12.958   6.157
 5760POPC   D2A72244  42.419  12.847   6.610
 5760POPC   C3A72245  42.033  12.841   6.896
 5760POPC   C4A72246  41.943  12.989   7.291
 5760POPC   C1B72247  42.631  12.515   6.231
 5760POPC   C2B72248  42.823  12.485   6.670
 5760POPC   C3B72249  42.778  12.549   7.116
 5760POPC   C4B72250  42.464  12.897   7.183
 5761POPC   NC372251  19.632  10.081   5.518
 5761POPC   PO472252  19.703  10.785   5.383
 5761POPC   GL172253  19.801  10.531   5.714
 5761POPC   GL272254  19.438  10.543   5.767
 5761POPC   C1A72255  20.054  10.510   6.101
 5761POPC   D2A72256  20.188  10.612   6.529
 5761POPC   C3A72257  19.925  10.642   6.876
 5761POPC   C4A72258  19.788  10.532   7.268
 5761POPC   C1B72259  19.583  10.374   6.155
 5761POPC   C2B72260  19.594  10.531   6.512
 5761POPC   C3B72261  19.443  10.436   6.890
 5761POPC   C4B72262  19.302  10.387   7.295
 5762POPC   NC372263  40.482   9.820   5.481
 5762POPC   PO472264  41.130   9.795   5.555
 5762POPC   GL172265  40.810   9.729   5.857
 5762POPC   GL272266  40.614   9.436   5.797
 5762POPC   C1A72267  40.714   9.968   6.199
 5762POPC   D2A72268  40.951   9.914   6.530
 5762POPC   C3A72269  40.717   9.866   6.874
 5762POPC   C4A72270  40.777   9.527   7.144
 5762POPC   C1B72271  40.441   9.543   6.215
 5762POPC   C2B72272  40.264   9.852   6.522
 5762POPC   C3B72273  40.238  10.013   6.961
 5762POPC   C4B72274  40.447   9.896   7.374
 5763POPC   NC372275  34.651  29.888   5.406
 5763POPC   PO472276  34.259  30.324   5.716
 5763POPC   GL172277  34.534  30.053   5.905
 5763POPC   GL272278  34.451  29.723   5.844
 5763POPC   C1A72279  34.643  29.952   6.314
 5763POPC   D2A72280  34.771  29.952   6.736
 5763POPC   C3A72281  34.548  30.127   7.064
 5763POPC   C4A72282  34.653  30.475   7.379
 5763POPC   C1B72283  34.272  29.617   6.240
 5763POPC   C2B72284  34.272  29.798   6.650
 5763POPC   C3B72285  34.320  29.522   6.964
 5763POPC   C4B72286  34.480  29.668   7.318
 5764POPC   NC372287  41.932  28.403   5.678
 5764POPC   PO472288  41.317  28.277   5.396
 5764POPC   GL172289  41.440  28.315   5.842
 5764POPC   GL272290  41.523  28.682   5.852
 5764POPC   C1A72291  41.569  28.184   6.291
 5764POPC   D2A72292  41.824  28.466   6.588
 5764POPC   C3A72293  41.666  28.457   6.995
 5764POPC   C4A72294  41.454  28.089   7.051
 5764POPC   C1B72295  41.377  28.647   6.255
 5764POPC   C2B72296  41.289  28.549   6.658
 5764POPC   C3B72297  41.250  28.771   7.033
 5764POPC   C4B72298  41.356  28.599   7.428
 5765POPC   NC372299  28.745  12.087   5.518
 5765POPC   PO472300  29.406  12.070   5.380
 5765POPC   GL172301  29.245  11.958   5.798
 5765POPC   GL272302  28.922  11.767   5.877
 5765POPC   C1A72303  29.316  12.058   6.230
 5765POPC   D2A72304  29.358  11.854   6.607
 5765POPC   C3A72305  29.437  12.105   6.933
 5765POPC   C4A72306  29.032  12.246   7.062
 5765POPC   C1B72307  28.782  11.798   6.329
 5765POPC   C2B72308  28.848  11.782   6.802
 5765POPC   C3B72309  28.826  11.812   7.265
 5765POPC   C4B72310  28.683  11.846   7.736
 5766POPC   NC372311  28.207  13.171   5.506
 5766POPC   PO472312  28.613  12.533   5.450
 5766POPC   GL172313  28.422  12.758   5.783
 5766POPC   GL272314  28.623  13.020   5.735
 5766POPC   C1A72315  28.232  12.908   6.201
 5766POPC   D2A72316  28.416  13.076   6.595
 5766POPC   C3A72317  28.251  12.980   7.014
 5766POPC   C4A72318  28.235  13.074   7.452
 5766POPC   C1B72319  28.693  13.180   6.138
 5766POPC   C2B72320  28.866  13.333   6.533
 5766POPC   C3B72321  28.706  13.361   6.936
 5766POPC   C4B72322  28.708  13.114   7.275
 5767POPC   NC372323  31.107   1.206   5.815
 5767POPC   PO472324  31.776   1.271   5.523
 5767POPC   GL172325  31.592   1.310   5.918
 5767POPC   GL272326  31.588   0.981   5.954
 5767POPC   C1A72327  31.378   1.257   6.357
 5767POPC   D2A72328  31.147   0.938   6.592
 5767POPC   C3A72329  31.089   1.141   6.955
 5767POPC   C4A72330  31.438   1.380   7.107
 5767POPC   C1B72331  31.860   1.099   6.310
 5767POPC   C2B72332  31.686   1.100   6.721
 5767POPC   C3B72333  31.503   0.819   6.985
 5767POPC   C4B72334  31.720   0.777   7.369
 5768POPC   NC372335  22.700   9.731   5.205
 5768POPC   PO472336  23.364   9.809   5.128
 5768POPC   GL172337  23.101   9.649   5.543
 5768POPC   GL272338  23.304   9.577   5.884
 5768POPC   C1A72339  22.799   9.648   5.928
 5768POPC   D2A72340  22.876   9.509   6.397
 5768POPC   C3A72341  22.760   9.662   6.842
 5768POPC   C4A72342  22.556   9.537   7.265
 5768POPC   C1B72343  23.130   9.937   6.186
 5768POPC   C2B72344  22.961  10.191   6.543
 5768POPC   C3B72345  23.149  10.174   6.968
 5768POPC   C4B72346  23.072   9.834   7.246
 5769POPC   NC372347   5.552  19.535   5.632
 5769POPC   PO472348   5.170  19.986   5.215
 5769POPC   GL172349   5.148  19.975   5.725
 5769POPC   GL272350   5.428  19.894   5.963
 5769POPC   C1A72351   4.994  19.729   6.155
 5769POPC   D2A72352   5.165  19.765   6.616
 5769POPC   C3A72353   5.043  19.533   7.019
 5769POPC   C4A72354   5.220  19.444   7.479
 5769POPC   C1B72355   5.151  20.216   6.190
 5769POPC   C2B72356   5.096  20.295   6.626
 5769POPC   C3B72357   5.290  20.140   7.005
 5769POPC   C4B72358   5.441  20.092   7.424
 5770POPC   NC372359  11.775   4.554   5.258
 5770POPC   PO472360  11.123   4.318   5.267
 5770POPC   GL172361  11.172   4.353   5.699
 5770POPC   GL272362  11.519   4.368   5.702
 5770POPC   C1A72363  11.223   4.143   6.088
 5770POPC   D2A72364  11.261   3.950   6.504
 5770POPC   C3A72365  11.229   4.245   6.835
 5770POPC   C4A72366  11.116   4.035   7.227
 5770POPC   C1B72367  11.665   4.418   6.133
 5770POPC   C2B72368  11.587   4.601   6.571
 5770POPC   C3B72369  11.613   4.546   7.035
 5770POPC   C4B72370  11.212   4.563   7.245
 5771POPC   NC372371  30.695  13.832   5.536
 5771POPC   PO472372  30.387  13.302   5.587
 5771POPC   GL172373  30.534  13.494   5.924
 5771POPC   GL272374  30.859  13.638   5.981
 5771POPC   C1A72375  30.588  13.398   6.342
 5771POPC   D2A72376  30.756  13.314   6.718
 5771POPC   C3A72377  30.477  13.336   7.030
 5771POPC   C4A72378  30.705  13.252   7.374
 5771POPC   C1B72379  30.602  13.911   6.272
 5771POPC   C2B72380  30.734  13.867   6.706
 5771POPC   C3B72381  30.816  13.688   7.119
 5771POPC   C4B72382  30.462  13.766   7.432
 5772POPC   NC372383  14.932  41.865   4.932
 5772POPC   PO472384  15.227  41.643   5.428
 5772POPC   GL172385  15.091  41.624   5.836
 5772POPC   GL272386  14.803  41.403   5.793
 5772POPC   C1A72387  15.244  41.730   6.269
 5772POPC   D2A72388  15.217  41.981   6.653
 5772POPC   C3A72389  15.228  41.752   7.053
 5772POPC   C4A72390  15.202  41.349   7.221
 5772POPC   C1B72391  14.794  41.488   6.239
 5772POPC   C2B72392  15.012  41.464   6.658
 5772POPC   C3B72393  14.743  41.540   6.998
 5772POPC   C4B72394  14.727  41.385   7.406
 5773POPC   NC372395  14.571   2.255   5.309
 5773POPC   PO472396  14.244   1.691   5.470
 5773POPC   GL172397  14.304   1.900   5.873
 5773POPC   GL272398  14.557   2.161   5.876
 5773POPC   C1A72399  14.471   1.873   6.271
 5773POPC   D2A72400  14.647   2.102   6.576
 5773POPC   C3A72401  14.447   1.925   6.915
 5773POPC   C4A72402  14.259   1.771   7.257
 5773POPC   C1B72403  14.721   2.499   6.247
 5773POPC   C2B72404  14.841   2.566   6.692
 5773POPC   C3B72405  14.637   2.364   7.046
 5773POPC   C4B72406  14.425   2.230   7.447
 5774POPC   NC372407  13.447   0.842   5.219
 5774POPC   PO472408  13.842   0.233   5.385
 5774POPC   GL172409  13.773   0.502   5.757
 5774POPC   GL272410  13.725   0.183   5.911
 5774POPC   C1A72411  13.632   0.571   6.210
 5774POPC   D2A72412  13.844   0.451   6.611
 5774POPC   C3A72413  13.674   0.552   6.993
 5774POPC   C4A72414  13.638   0.683   7.445
 5774POPC   C1B72415  13.360   0.125   6.181
 5774POPC   C2B72416  13.365   0.290   6.578
 5774POPC   C3B72417  13.443   0.067   6.928
 5774POPC   C4B72418  13.652   0.174   7.303
 5775POPC   NC372419  14.421  29.372   5.344
 5775POPC   PO472420  13.914  28.865   5.340
 5775POPC   GL172421  14.161  29.072   5.683
 5775POPC   GL272422  14.134  29.430   5.744
 5775POPC   C1A72423  14.539  29.098   5.989
 5775POPC   D2A72424  14.735  28.953   6.397
 5775POPC   C3A72425  14.466  29.010   6.767
 5775POPC   C4A72426  14.484  29.033   7.193
 5775POPC   C1B72427  14.308  29.530   6.141
 5775POPC   C2B72428  14.560  29.442   6.508
 5775POPC   C3B72429  14.446  29.510   6.953
 5775POPC   C4B72430  14.121  29.696   7.208
 5776POPC   NC372431  28.089  41.329   5.581
 5776POPC   PO472432  28.405  41.899   5.508
 5776POPC   GL172433  28.572  41.686   5.863
 5776POPC   GL272434  28.241  41.651   5.945
 5776POPC   C1A72435  28.541  41.496   6.293
 5776POPC   D2A72436  28.333  41.628   6.639
 5776POPC   C3A72437  28.600  41.460   6.952
 5776POPC   C4A72438  28.475  41.454   7.373
 5776POPC   C1B72439  27.997  41.404   6.259
 5776POPC   C2B72440  28.077  41.181   6.647
 5776POPC   C3B72441  28.082  41.387   7.040
 5776POPC   C4B72442  28.024  41.252   7.489
 5777POPC   NC372443  25.493  31.809   5.469
 5777POPC   PO472444  25.223  31.241   5.635
 5777POPC   GL172445  25.254  31.606   5.864
 5777POPC   GL272446  25.637  31.582   5.896
 5777POPC   C1A72447  25.146  31.807   6.237
 5777POPC   D2A72448  25.063  31.853   6.665
 5777POPC   C3A72449  24.964  31.483   6.891
 5777POPC   C4A72450  24.878  31.627   7.253
 5777POPC   C1B72451  25.504  31.312   6.224
 5777POPC   C2B72452  25.369  31.450   6.581
 5777POPC   C3B72453  25.551  31.475   6.954
 5777POPC   C4B72454  25.328  31.365   7.292
 5778POPC   NC372455  13.481  19.217   5.427
 5778POPC   PO472456  13.863  18.708   5.362
 5778POPC   GL172457  13.842  19.031   5.758
 5778POPC   GL272458  13.495  19.143   5.920
 5778POPC   C1A72459  13.891  19.032   6.223
 5778POPC   D2A72460  13.701  19.055   6.615
 5778POPC   C3A72461  13.956  18.948   6.976
 5778POPC   C4A72462  14.001  19.015   7.436
 5778POPC   C1B72463  13.410  18.802   6.184
 5778POPC   C2B72464  13.294  18.692   6.578
 5778POPC   C3B72465  13.482  18.726   6.976
 5778POPC   C4B72466  13.540  19.061   7.238
 5779POPC   NC372467   5.803  21.782   5.540
 5779POPC   PO472468   5.740  22.440   5.540
 5779POPC   GL172469   5.571  22.303   5.916
 5779POPC   GL272470   5.789  22.032   5.991
 5779POPC   C1A72471   5.502  22.394   6.336
 5779POPC   D2A72472   5.795  22.255   6.624
 5779POPC   C3A72473   5.822  21.879   6.829
 5779POPC   C4A72474   5.819  22.109   7.212
 5779POPC   C1B72475   6.143  22.178   6.249
 5779POPC   C2B72476   6.305  22.360   6.640
 5779POPC   C3B72477   6.126  22.467   7.007
 5779POPC   C4B72478   6.147  22.405   7.454
 5780POPC   NC372479  11.153  37.715   5.410
 5780POPC   PO472480  11.496  37.207   5.459
 5780POPC   GL172481  11.196  37.262   5.802
 5780POPC   GL272482  11.202  37.625   5.907
 5780POPC   C1A72483  10.998  37.276   6.227
 5780POPC   D2A72484  11.098  37.564   6.596
 5780POPC   C3A72485  11.064  37.444   7.002
 5780POPC   C4A72486  11.149  37.748   7.309
 5780POPC   C1B72487  11.452  37.530   6.238
 5780POPC   C2B72488  11.637  37.536   6.603
 5780POPC   C3B72489  11.503  37.710   6.940
 5780POPC   C4B72490  11.582  37.522   7.335
 5781POPC   NC372491   7.145  33.380   5.376
 5781POPC   PO472492   7.493  32.816   5.441
 5781POPC   GL172493   7.242  32.916   5.786
 5781POPC   GL272494   7.459  33.162   5.874
 5781POPC   C1A72495   7.105  33.032   6.207
 5781POPC   D2A72496   7.252  33.020   6.632
 5781POPC   C3A72497   7.021  32.744   6.880
 5781POPC   C4A72498   6.919  32.813   7.332
 5781POPC   C1B72499   7.530  33.325   6.310
 5781POPC   C2B72500   7.757  33.408   6.710
 5781POPC   C3B72501   7.569  33.365   7.079
 5781POPC   C4B72502   7.371  32.979   7.161
 5782POPC   NC372503  30.790  18.165   5.410
 5782POPC   PO472504  31.298  17.940   5.719
 5782POPC   GL172505  30.952  18.277   5.898
 5782POPC   GL272506  30.583  18.358   5.809
 5782POPC   C1A72507  30.889  18.307   6.346
 5782POPC   D2A72508  30.886  17.927   6.598
 5782POPC   C3A72509  30.907  18.081   7.009
 5782POPC   C4A72510  31.114  18.165   7.391
 5782POPC   C1B72511  30.446  18.157   6.161
 5782POPC   C2B72512  30.446  18.194   6.610
 5782POPC   C3B72513  30.408  18.054   7.055
 5782POPC   C4B72514  30.520  18.240   7.466
 5783POPC   NC372515  27.653   6.662   5.501
 5783POPC   PO472516  28.048   7.108   5.601
 5783POPC   GL172517  27.903   6.848   5.943
 5783POPC   GL272518  27.639   6.597   5.994
 5783POPC   C1A72519  27.753   6.889   6.384
 5783POPC   D2A72520  27.503   6.705   6.720
 5783POPC   C3A72521  27.803   6.690   7.061
 5783POPC   C4A72522  27.729   6.500   7.425
 5783POPC   C1B72523  27.635   6.163   6.143
 5783POPC   C2B72524  27.477   6.094   6.563
 5783POPC   C3B72525  27.533   6.247   7.002
 5783POPC   C4B72526  27.356   6.155   7.431
 5784POPC   NC372527   2.530  26.738   5.484
 5784POPC   PO472528   3.090  27.104   5.701
 5784POPC   GL172529   2.857  26.831   5.863
 5784POPC   GL272530   3.066  26.579   5.809
 5784POPC   C1A72531   2.650  26.751   6.209
 5784POPC   D2A72532   2.491  26.916   6.586
 5784POPC   C3A72533   2.732  27.188   6.835
 5784POPC   C4A72534   2.676  27.070   7.273
 5784POPC   C1B72535   3.173  26.637   6.247
 5784POPC   C2B72536   2.904  26.524   6.591
 5784POPC   C3B72537   2.941  26.744   6.959
 5784POPC   C4B72538   3.098  26.778   7.364
 5785POPC   NC372539  39.059   3.337   5.389
 5785POPC   PO472540  39.553   3.691   5.675
 5785POPC   GL172541  39.386   3.309   5.894
 5785POPC   GL272542  39.050   3.136   5.851
 5785POPC   C1A72543  39.317   3.429   6.328
 5785POPC   D2A72544  39.218   3.727   6.654
 5785POPC   C3A72545  39.365   3.499   7.004
 5785POPC   C4A72546  39.298   3.499   7.449
 5785POPC   C1B72547  38.887   3.163   6.272
 5785POPC   C2B72548  38.864   3.288   6.714
 5785POPC   C3B72549  39.007   3.158   7.142
 5785POPC   C4B72550  39.000   3.126   7.601
 5786POPC   NC372551  37.986  27.587   5.307
 5786POPC   PO472552  37.337  27.692   5.565
 5786POPC   GL172553  37.733  27.707   5.784
 5786POPC   GL272554  37.936  27.405   5.822
 5786POPC   C1A72555  37.696  27.758   6.241
 5786POPC   D2A72556  37.632  27.493   6.597
 5786POPC   C3A72557  37.316  27.444   6.914
 5786POPC   C4A72558  37.335  27.648   7.292
 5786POPC   C1B72559  37.908  27.208   6.236
 5786POPC   C2B72560  38.025  27.195   6.687
 5786POPC   C3B72561  37.903  27.482   7.059
 5786POPC   C4B72562  37.909  27.446   7.536
 5787POPC   NC372563  21.072  24.796   5.284
 5787POPC   PO472564  20.580  24.307   5.324
 5787POPC   GL172565  20.483  24.281   5.760
 5787POPC   GL272566  20.465  24.607   5.883
 5787POPC   C1A72567  20.596  24.209   6.197
 5787POPC   D2A72568  20.396  24.519   6.473
 5787POPC   C3A72569  20.296  24.457   6.907
 5787POPC   C4A72570  20.578  24.173   7.088
 5787POPC   C1B72571  20.629  24.891   6.195
 5787POPC   C2B72572  20.553  24.985   6.629
 5787POPC   C3B72573  20.721  25.033   7.014
 5787POPC   C4B72574  20.652  24.701   7.235
 5788POPC   NC372575   9.196  16.505   5.519
 5788POPC   PO472576   8.808  17.095   5.413
 5788POPC   GL172577   8.973  16.957   5.792
 5788POPC   GL272578   9.013  16.605   5.963
 5788POPC   C1A72579   8.941  17.006   6.241
 5788POPC   D2A72580   8.996  16.633   6.481
 5788POPC   C3A72581   8.903  16.659   6.902
 5788POPC   C4A72582   8.926  16.924   7.224
 5788POPC   C1B72583   9.400  16.897   6.093
 5788POPC   C2B72584   9.377  17.085   6.524
 5788POPC   C3B72585   9.363  16.902   6.935
 5788POPC   C4B72586   9.380  17.019   7.397
 5789POPC   NC372587   1.529  41.322   5.412
 5789POPC   PO472588   1.219  41.911   5.401
 5789POPC   GL172589   1.348  41.761   5.795
 5789POPC   GL272590   1.284  41.409   5.840
 5789POPC   C1A72591   1.124  41.719   6.203
 5789POPC   D2A72592   1.238  41.864   6.593
 5789POPC   C3A72593   1.101  41.684   6.957
 5789POPC   C4A72594   1.120  41.623   7.435
 5789POPC   C1B72595   1.133  41.210   6.225
 5789POPC   C2B72596   0.995  41.282   6.634
 5789POPC   C3B72597   1.242  41.212   6.991
 5789POPC   C4B72598   1.099  41.121   7.376
 5790POPC   NC372599   3.772  20.130   5.304
 5790POPC   PO472600   3.246  19.734   5.107
 5790POPC   GL172601   3.372  19.750   5.560
 5790POPC   GL272602   3.282  20.088   5.679
 5790POPC   C1A72603   3.501  19.705   6.042
 5790POPC   D2A72604   3.357  19.528   6.481
 5790POPC   C3A72605   3.503  19.633   6.881
 5790POPC   C4A72606   3.813  19.628   7.184
 5790POPC   C1B72607   3.229  20.132   6.134
 5790POPC   C2B72608   3.460  20.050   6.530
 5790POPC   C3B72609   3.733  20.086   6.915
 5790POPC   C4B72610   3.448  20.024   7.253
 5791POPC   NC372611  44.788  36.820   5.458
 5791POPC   PO472612  44.286  36.353   5.484
 5791POPC   GL172613  44.532  36.576   5.847
 5791POPC   GL272614  44.915  36.515   5.834
 5791POPC   C1A72615  44.630  36.982   6.099
 5791POPC   D2A72616  44.686  37.175   6.517
 5791POPC   C3A72617  44.889  37.084   6.916
 5791POPC   C4A72618  44.593  37.112   7.252
 5791POPC   C1B72619   0.025  36.701   6.225
 5791POPC   C2B72620  44.824  36.631   6.603
 5791POPC   C3B72621  44.649  36.632   6.985
 5791POPC   C4B72622  44.881  36.694   7.332
 5792POPC   NC372623  34.338  36.070   5.347
 5792POPC   PO472624  34.967  36.328   5.490
 5792POPC   GL172625  34.643  36.239   5.742
 5792POPC   GL272626  34.513  35.907   5.793
 5792POPC   C1A72627  34.582  36.272   6.170
 5792POPC   D2A72628  34.719  36.416   6.557
 5792POPC   C3A72629  34.484  36.230   6.884
 5792POPC   C4A72630  34.517  36.356   7.304
 5792POPC   C1B72631  34.493  35.762   6.218
 5792POPC   C2B72632  34.791  35.889   6.529
 5792POPC   C3B72633  34.977  36.087   6.892
 5792POPC   C4B72634  34.748  35.882   7.172
 5793POPC   NC372635  16.266  12.411   5.432
 5793POPC   PO472636  15.902  11.886   5.374
 5793POPC   GL172637  15.987  11.983   5.794
 5793POPC   GL272638  16.028  12.332   5.867
 5793POPC   C1A72639  16.183  11.893   6.194
 5793POPC   D2A72640  16.277  12.094   6.597
 5793POPC   C3A72641  16.105  12.012   7.009
 5793POPC   C4A72642  16.230  12.268   7.371
 5793POPC   C1B72643  15.814  12.271   6.263
 5793POPC   C2B72644  15.787  12.319   6.718
 5793POPC   C3B72645  15.797  12.416   7.148
 5793POPC   C4B72646  15.751  12.259   7.599
 5794POPC   NC372647  18.303  21.608   5.486
 5794POPC   PO472648  18.120  21.002   5.597
 5794POPC   GL172649  18.228  21.274   5.888
 5794POPC   GL272650  18.562  21.428   5.905
 5794POPC   C1A72651  18.231  21.312   6.315
 5794POPC   D2A72652  18.026  21.242   6.718
 5794POPC   C3A72653  18.281  21.204   7.090
 5794POPC   C4A72654  18.063  21.435   7.384
 5794POPC   C1B72655  18.622  21.751   6.220
 5794POPC   C2B72656  18.290  21.764   6.532
 5794POPC   C3B72657  18.225  21.682   6.923
 5794POPC   C4B72658  18.519  21.711   7.226
 5795POPC   NC372659  10.785  17.244   5.340
 5795POPC   PO472660  11.463  17.393   5.400
 5795POPC   GL172661  11.447  17.577   5.798
 5795POPC   GL272662  11.169  17.849   5.821
 5795POPC   C1A72663  11.602  17.398   6.183
 5795POPC   D2A72664  11.638  17.542   6.605
 5795POPC   C3A72665  11.625  17.839   6.905
 5795POPC   C4A72666  11.563  17.602   7.237
 5795POPC   C1B72667  11.077  17.521   6.164
 5795POPC   C2B72668  11.216  17.239   6.503
 5795POPC   C3B72669  11.321  17.223   6.926
 5795POPC   C4B72670  11.069  17.500   7.120
 5796POPC   NC372671  40.929   8.623   5.371
 5796POPC   PO472672  40.794   7.952   5.406
 5796POPC   GL172673  40.786   8.035   5.828
 5796POPC   GL272674  40.723   8.402   5.799
 5796POPC   C1A72675  40.909   8.149   6.248
 5796POPC   D2A72676  40.993   7.980   6.641
 5796POPC   C3A72677  40.689   7.961   6.957
 5796POPC   C4A72678  40.948   7.887   7.283
 5796POPC   C1B72679  40.747   8.611   6.190
 5796POPC   C2B72680  40.914   8.659   6.609
 5796POPC   C3B72681  40.926   8.403   6.968
 5796POPC   C4B72682  40.720   8.368   7.372
 5797POPC   NC372683  22.537  39.099   5.375
 5797POPC   PO472684  23.149  39.523   5.454
 5797POPC   GL172685  22.894  39.260   5.699
 5797POPC   GL272686  22.584  39.472   5.723
 5797POPC   C1A72687  22.890  39.276   6.129
 5797POPC   D2A72688  23.013  39.619   6.392
 5797POPC   C3A72689  23.047  39.550   6.806
 5797POPC   C4A72690  23.109  39.276   7.150
 5797POPC   C1B72691  22.491  39.610   6.149
 5797POPC   C2B72692  22.570  39.439   6.555
 5797POPC   C3B72693  22.565  39.551   6.972
 5797POPC   C4B72694  22.645  39.343   7.366
 5798POPC   NC372695  35.424  30.416   5.447
 5798POPC   PO472696  34.967  30.967   5.427
 5798POPC   GL172697  35.104  30.660   5.759
 5798POPC   GL272698  34.964  30.321   5.761
 5798POPC   C1A72699  35.363  30.603   6.132
 5798POPC   D2A72700  35.280  30.835   6.501
 5798POPC   C3A72701  35.545  30.789   6.848
 5798POPC   C4A72702  35.347  30.665   7.212
 5798POPC   C1B72703  35.069  30.200   6.201
 5798POPC   C2B72704  35.029  30.385   6.625
 5798POPC   C3B72705  35.037  30.273   7.069
 5798POPC   C4B72706  35.294  30.214   7.440
 5799POPC   NC372707  36.422  30.013   5.442
 5799POPC   PO472708  35.687  30.065   5.602
 5799POPC   GL172709  35.927  29.923   5.892
 5799POPC   GL272710  36.250  30.061   5.922
 5799POPC   C1A72711  36.027  29.751   6.283
 5799POPC   D2A72712  36.286  29.780   6.654
 5799POPC   C3A72713  36.039  29.926   7.004
 5799POPC   C4A72714  36.095  29.706   7.393
 5799POPC   C1B72715  36.595  30.258   6.113
 5799POPC   C2B72716  36.725  30.279   6.535
 5799POPC   C3B72717  36.434  30.230   6.884
 5799POPC   C4B72718  36.306  30.181   7.364
 5800POPC   NC372719   1.154  15.466   5.420
 5800POPC   PO472720   1.444  14.789   5.482
 5800POPC   GL172721   1.334  15.172   5.773
 5800POPC   GL272722   1.605  15.347   5.948
 5800POPC   C1A72723   1.127  15.367   6.140
 5800POPC   D2A72724   1.158  15.174   6.540
 5800POPC   C3A72725   1.178  15.456   6.824
 5800POPC   C4A72726   0.972  15.343   7.186
 5800POPC   C1B72727   1.476  14.965   6.201
 5800POPC   C2B72728   1.522  14.784   6.618
 5800POPC   C3B72729   1.454  15.037   6.996
 5800POPC   C4B72730   1.483  15.402   7.249
 5801POPC   NC372731  35.550   9.806   5.515
 5801POPC   PO472732  34.934   9.825   5.737
 5801POPC   GL172733  35.315   9.859   5.966
 5801POPC   GL272734  35.598  10.074   5.962
 5801POPC   C1A72735  35.441   9.801   6.392
 5801POPC   D2A72736  35.285   9.450   6.646
 5801POPC   C3A72737  35.160   9.613   7.016
 5801POPC   C4A72738  35.427   9.885   7.252
 5801POPC   C1B72739  35.206  10.266   6.235
 5801POPC   C2B72740  34.978  10.244   6.640
 5801POPC   C3B72741  35.014  10.138   7.096
 5801POPC   C4B72742  35.110  10.121   7.574
 5802POPC   NC372743   4.395  39.781   4.838
 5802POPC   PO472744   4.232  40.249   5.364
 5802POPC   GL172745   4.227  40.053   5.761
 5802POPC   GL272746   4.119  40.356   5.899
 5802POPC   C1A72747   4.475  39.920   6.127
 5802POPC   D2A72748   4.750  39.987   6.479
 5802POPC   C3A72749   4.567  39.931   6.886
 5802POPC   C4A72750   4.349  39.780   7.250
 5802POPC   C1B72751   4.467  40.423   6.219
 5802POPC   C2B72752   4.411  40.378   6.670
 5802POPC   C3B72753   4.132  40.184   7.007
 5802POPC   C4B72754   4.126  40.315   7.446
 5803POPC   NC372755  33.676  23.111   5.410
 5803POPC   PO472756  33.836  22.413   5.339
 5803POPC   GL172757  33.818  22.654   5.735
 5803POPC   GL272758  33.670  22.967   5.891
 5803POPC   C1A72759  33.902  22.623   6.185
 5803POPC   D2A72760  33.878  22.897   6.568
 5803POPC   C3A72761  33.829  22.703   6.975
 5803POPC   C4A72762  34.059  22.511   7.290
 5803POPC   C1B72763  33.979  23.228   6.166
 5803POPC   C2B72764  34.217  23.319   6.591
 5803POPC   C3B72765  34.061  23.177   7.017
 5803POPC   C4B72766  33.590  23.165   7.156
 5804POPC   NC372767   3.113   9.072   5.495
 5804POPC   PO472768   2.512   8.753   5.489
 5804POPC   GL172769   2.667   8.960   5.827
 5804POPC   GL272770   2.951   8.741   5.874
 5804POPC   C1A72771   2.609   8.881   6.278
 5804POPC   D2A72772   2.800   8.712   6.666
 5804POPC   C3A72773   2.616   8.912   7.003
 5804POPC   C4A72774   2.558   8.967   7.408
 5804POPC   C1B72775   3.045   9.091   6.129
 5804POPC   C2B72776   3.007   9.153   6.528
 5804POPC   C3B72777   3.075   9.089   6.950
 5804POPC   C4B72778   2.998   9.245   7.332
 5805POPC   NC372779  17.830  20.726   5.386
 5805POPC   PO472780  18.366  20.375   5.371
 5805POPC   GL172781  18.317  20.575   5.796
 5805POPC   GL272782  17.976  20.518   5.844
 5805POPC   C1A72783  18.465  20.868   6.133
 5805POPC   D2A72784  18.407  20.911   6.576
 5805POPC   C3A72785  18.675  20.912   6.944
 5805POPC   C4A72786  18.509  20.836   7.397
 5805POPC   C1B72787  18.170  20.459   6.261
 5805POPC   C2B72788  18.317  20.404   6.676
 5805POPC   C3B72789  18.216  20.679   6.993
 5805POPC   C4B72790  18.045  20.590   7.350
 5806POPC   NC372791  12.118   0.314   5.382
 5806POPC   PO472792  12.606  44.912   5.531
 5806POPC   GL172793  12.359   0.171   5.827
 5806POPC   GL272794  12.051   0.465   5.860
 5806POPC   C1A72795  12.364   0.334   6.220
 5806POPC   D2A72796  12.166   0.456   6.581
 5806POPC   C3A72797  12.331   0.366   6.998
 5806POPC   C4A72798  12.065   0.133   7.322
 5806POPC   C1B72799  11.977   0.793   6.210
 5806POPC   C2B72800  11.786   0.858   6.645
 5806POPC   C3B72801  11.848   0.572   7.035
 5806POPC   C4B72802  11.839   0.584   7.500
 5807POPC   NC372803  20.258  32.760   5.549
 5807POPC   PO472804  20.683  33.231   5.411
 5807POPC   GL172805  20.567  33.091   5.808
 5807POPC   GL272806  20.227  33.286   5.794
 5807POPC   C1A72807  20.742  32.954   6.221
 5807POPC   D2A72808  20.595  32.696   6.596
 5807POPC   C3A72809  20.713  32.858   7.022
 5807POPC   C4A72810  20.498  32.941   7.418
 5807POPC   C1B72811  20.357  33.328   6.230
 5807POPC   C2B72812  20.544  33.223   6.643
 5807POPC   C3B72813  20.482  33.435   7.044
 5807POPC   C4B72814  20.545  33.460   7.502
 5808POPC   NC372815   0.472   4.394   5.313
 5808POPC   PO472816   0.972   4.736   5.573
 5808POPC   GL172817   0.585   4.612   5.773
 5808POPC   GL272818   0.366   4.298   5.797
 5808POPC   C1A72819   0.594   4.506   6.199
 5808POPC   D2A72820   0.645   4.108   6.407
 5808POPC   C3A72821   0.676   4.277   6.797
 5808POPC   C4A72822   0.796   4.452   7.188
 5808POPC   C1B72823   0.198   4.194   6.206
 5808POPC   C2B72824   0.168   4.098   6.661
 5808POPC   C3B72825   0.357   4.001   7.062
 5808POPC   C4B72826   0.816   3.929   7.148
 5809POPC   NC372827  38.712  40.730   5.163
 5809POPC   PO472828  39.367  40.696   5.361
 5809POPC   GL172829  39.269  40.769   5.826
 5809POPC   GL272830  39.287  41.113   5.983
 5809POPC   C1A72831  39.154  40.733   6.278
 5809POPC   D2A72832  39.031  40.690   6.705
 5809POPC   C3A72833  39.054  40.891   7.087
 5809POPC   C4A72834  39.138  40.618   7.390
 5809POPC   C1B72835  39.419  41.170   6.392
 5809POPC   C2B72836  39.422  41.200   6.837
 5809POPC   C3B72837  39.391  41.267   7.285
 5809POPC   C4B72838  39.265  41.028   7.682
 5810POPC   NC372839   1.808  25.830   5.441
 5810POPC   PO472840   1.717  26.448   5.142
 5810POPC   GL172841   1.760  26.302   5.616
 5810POPC   GL272842   2.138  26.172   5.683
 5810POPC   C1A72843   1.842  26.245   6.093
 5810POPC   D2A72844   1.888  25.957   6.478
 5810POPC   C3A72845   1.762  26.034   6.923
 5810POPC   C4A72846   1.831  25.993   7.375
 5810POPC   C1B72847   2.264  25.915   6.068
 5810POPC   C2B72848   2.394  25.835   6.502
 5810POPC   C3B72849   2.250  25.863   6.919
 5810POPC   C4B72850   2.309  26.192   7.211
 5811POPC   NC372851  28.371   1.401   5.367
 5811POPC   PO472852  28.663   0.791   5.538
 5811POPC   GL172853  28.347   1.080   5.774
 5811POPC   GL272854  28.327   1.434   5.857
 5811POPC   C1A72855  28.216   1.110   6.230
 5811POPC   D2A72856  28.227   0.851   6.611
 5811POPC   C3A72857  28.408   0.992   7.009
 5811POPC   C4A72858  28.406   1.299   7.383
 5811POPC   C1B72859  28.589   1.490   6.208
 5811POPC   C2B72860  28.528   1.309   6.629
 5811POPC   C3B72861  28.786   1.344   7.016
 5811POPC   C4B72862  28.860   1.529   7.431
 5812POPC   NC372863  13.996  41.699   5.241
 5812POPC   PO472864  13.460  41.994   5.493
 5812POPC   GL172865  13.808  41.800   5.717
 5812POPC   GL272866  13.795  41.430   5.792
 5812POPC   C1A72867  13.884  41.819   6.158
 5812POPC   D2A72868  13.902  41.914   6.603
 5812POPC   C3A72869  13.533  41.960   6.855
 5812POPC   C4A72870  13.436  41.833   7.270
 5812POPC   C1B72871  13.544  41.434   6.213
 5812POPC   C2B72872  13.508  41.520   6.626
 5812POPC   C3B72873  13.748  41.430   6.996
 5812POPC   C4B72874  13.598  41.182   7.343
 5813POPC   NC372875  20.395  18.762   5.264
 5813POPC   PO472876  20.672  19.368   5.508
 5813POPC   GL172877  20.633  19.216   5.889
 5813POPC   GL272878  20.765  18.879   5.803
 5813POPC   C1A72879  20.635  19.320   6.318
 5813POPC   D2A72880  20.830  19.067   6.601
 5813POPC   C3A72881  20.595  19.050   6.978
 5813POPC   C4A72882  20.432  19.323   7.276
 5813POPC   C1B72883  20.582  18.787   6.223
 5813POPC   C2B72884  20.585  18.567   6.642
 5813POPC   C3B72885  20.583  18.543   7.102
 5813POPC   C4B72886  20.735  18.773   7.441
 5814POPC   NC372887  30.427  12.314   5.308
 5814POPC   PO472888  30.990  11.881   5.456
 5814POPC   GL172889  30.721  12.128   5.741
 5814POPC   GL272890  30.375  11.992   5.877
 5814POPC   C1A72891  30.753  12.143   6.185
 5814POPC   D2A72892  30.666  11.981   6.596
 5814POPC   C3A72893  30.748  12.212   6.972
 5814POPC   C4A72894  30.720  11.867   7.236
 5814POPC   C1B72895  30.263  12.144   6.313
 5814POPC   C2B72896  30.393  12.433   6.671
 5814POPC   C3B72897  30.357  12.460   7.152
 5814POPC   C4B72898  30.292  12.505   7.599
 5815POPC   NC372899  34.403   7.716   5.498
 5815POPC   PO472900  34.378   6.995   5.438
 5815POPC   GL172901  34.577   7.230   5.783
 5815POPC   GL272902  34.304   7.385   5.932
 5815POPC   C1A72903  34.772   7.285   6.213
 5815POPC   D2A72904  34.740   7.121   6.657
 5815POPC   C3A72905  34.450   7.253   6.992
 5815POPC   C4A72906  34.044   7.107   7.124
 5815POPC   C1B72907  34.405   7.632   6.291
 5815POPC   C2B72908  34.646   7.629   6.676
 5815POPC   C3B72909  34.489   7.825   7.033
 5815POPC   C4B72910  34.538   7.827   7.471
 5816POPC   NC372911  40.643  19.908   5.461
 5816POPC   PO472912  41.149  19.443   5.406
 5816POPC   GL172913  40.925  19.637   5.809
 5816POPC   GL272914  40.509  19.602   5.857
 5816POPC   C1A72915  40.800  19.719   6.253
 5816POPC   D2A72916  40.564  19.781   6.618
 5816POPC   C3A72917  40.828  19.779   6.994
 5816POPC   C4A72918  40.892  19.799   7.446
 5816POPC   C1B72919  40.228  19.561   6.238
 5816POPC   C2B72920  40.194  19.411   6.675
 5816POPC   C3B72921  40.360  19.597   7.058
 5816POPC   C4B72922  40.465  20.007   7.290
 5817POPC   NC372923  12.697   7.431   5.241
 5817POPC   PO472924  13.091   6.962   5.417
 5817POPC   GL172925  12.987   7.269   5.737
 5817POPC   GL272926  12.965   7.620   5.652
 5817POPC   C1A72927  12.878   7.433   6.158
 5817POPC   D2A72928  12.661   7.164   6.449
 5817POPC   C3A72929  12.686   7.203   6.899
 5817POPC   C4A72930  12.587   7.586   7.115
 5817POPC   C1B72931  13.206   7.803   6.011
 5817POPC   C2B72932  13.303   7.665   6.451
 5817POPC   C3B72933  13.062   7.590   6.826
 5817POPC   C4B72934  13.059   7.398   7.204
 5818POPC   NC372935  14.498  16.484   5.338
 5818POPC   PO472936  14.133  17.120   5.267
 5818POPC   GL172937  14.194  17.074   5.703
 5818POPC   GL272938  14.483  16.861   5.778
 5818POPC   C1A72939  14.123  17.018   6.146
 5818POPC   D2A72940  14.006  16.686   6.420
 5818POPC   C3A72941  14.177  16.699   6.835
 5818POPC   C4A72942  14.108  16.899   7.259
 5818POPC   C1B72943  14.519  16.660   6.211
 5818POPC   C2B72944  14.712  16.654   6.633
 5818POPC   C3B72945  14.623  16.611   7.063
 5818POPC   C4B72946  14.264  16.390   7.238
 5819POPC   NC372947   2.757  44.007   5.266
 5819POPC   PO472948   3.213  44.154   5.764
 5819POPC   GL172949   2.847  43.945   5.776
 5819POPC   GL272950   2.991  43.725   5.982
 5819POPC   C1A72951   2.540  43.906   6.091
 5819POPC   D2A72952   2.465  44.044   6.526
 5819POPC   C3A72953   2.638  43.872   6.897
 5819POPC   C4A72954   2.670  44.167   7.266
 5819POPC   C1B72955   2.933  43.776   6.393
 5819POPC   C2B72956   3.005  44.119   6.633
 5819POPC   C3B72957   3.125  43.983   7.014
 5819POPC   C4B72958   3.355  44.188   7.257
 5820POPC   NC372959  18.620  15.752   5.442
 5820POPC   PO472960  19.133  16.145   5.344
 5820POPC   GL172961  18.993  16.102   5.793
 5820POPC   GL272962  19.053  15.761   5.784
 5820POPC   C1A72963  19.122  16.036   6.273
 5820POPC   D2A72964  19.441  15.976   6.641
 5820POPC   C3A72965  19.311  16.203   7.027
 5820POPC   C4A72966  18.908  16.196   7.235
 5820POPC   C1B72967  18.964  15.560   6.175
 5820POPC   C2B72968  19.135  15.537   6.569
 5820POPC   C3B72969  19.020  15.763   6.921
 5820POPC   C4B72970  18.784  15.512   7.189
 5821POPC   NC372971   8.193  41.830   5.389
 5821POPC   PO472972   8.011  42.441   5.408
 5821POPC   GL172973   8.175  42.299   5.757
 5821POPC   GL272974   7.957  42.044   5.788
 5821POPC   C1A72975   8.295  42.499   6.148
 5821POPC   D2A72976   8.484  42.618   6.531
 5821POPC   C3A72977   8.318  42.414   6.908
 5821POPC   C4A72978   8.248  42.495   7.334
 5821POPC   C1B72979   8.182  42.001   6.165
 5821POPC   C2B72980   8.047  42.130   6.566
 5821POPC   C3B72981   8.037  41.945   6.977
 5821POPC   C4B72982   8.243  41.989   7.359
 5822POPC   NC372983  40.660  13.387   5.565
 5822POPC   PO472984  41.083  13.835   5.592
 5822POPC   GL172985  41.029  13.496   5.906
 5822POPC   GL272986  40.687  13.601   6.022
 5822POPC   C1A72987  41.017  13.416   6.355
 5822POPC   D2A72988  40.624  13.554   6.542
 5822POPC   C3A72989  40.755  13.594   6.921
 5822POPC   C4A72990  40.627  13.603   7.310
 5822POPC   C1B72991  40.582  13.169   6.204
 5822POPC   C2B72992  40.551  13.034   6.641
 5822POPC   C3B72993  40.437  13.191   7.085
 5822POPC   C4B72994  40.259  13.216   7.586
 5823POPC   NC372995  41.445  40.214   5.476
 5823POPC   PO472996  41.915  39.719   5.409
 5823POPC   GL172997  41.743  39.936   5.803
 5823POPC   GL272998  41.798  40.262   5.877
 5823POPC   C1A72999  41.529  39.963   6.225
 5823POPC   D2A73000  41.245  39.842   6.586
 5823POPC   C3A73001  41.434  39.877   7.002
 5823POPC   C4A73002  41.319  39.804   7.436
 5823POPC   C1B73003  41.449  40.455   6.118
 5823POPC   C2B73004  41.670  40.489   6.516
 5823POPC   C3B73005  41.698  40.332   6.952
 5823POPC   C4B73006  41.373  40.315   7.267
 5824POPC   NC373007  26.132  37.089   5.401
 5824POPC   PO473008  25.560  36.651   5.410
 5824POPC   GL173009  25.751  36.691   5.834
 5824POPC   GL273010  26.110  36.792   5.843
 5824POPC   C1A73011  25.824  36.537   6.263
 5824POPC   D2A73012  25.832  36.472   6.715
 5824POPC   C3A73013  25.793  36.882   6.911
 5824POPC   C4A73014  25.942  37.030   7.272
 5824POPC   C1B73015  26.434  37.047   6.085
 5824POPC   C2B73016  26.464  37.277   6.475
 5824POPC   C3B73017  26.267  37.191   6.876
 5824POPC   C4B73018  26.469  37.156   7.257
 5825POPC   NC373019  13.711  11.125   5.396
 5825POPC   PO473020  14.246  11.526   5.481
 5825POPC   GL173021  13.891  11.345   5.807
 5825POPC   GL273022  13.511  11.153   5.843
 5825POPC   C1A73023  13.753  11.391   6.220
 5825POPC   D2A73024  14.019  11.482   6.519
 5825POPC   C3A73025  13.836  11.547   6.884
 5825POPC   C4A73026  13.879  11.221   7.157
 5825POPC   C1B73027  13.389  11.021   6.237
 5825POPC   C2B73028  13.480  11.178   6.631
 5825POPC   C3B73029  13.407  11.336   7.036
 5825POPC   C4B73030  13.425  11.137   7.432
 5826POPC   NC373031  28.979  30.072   5.259
 5826POPC   PO473032  29.588  30.085   5.478
 5826POPC   GL173033  29.240  29.981   5.761
 5826POPC   GL273034  29.089  29.645   5.624
 5826POPC   C1A73035  29.225  30.197   6.182
 5826POPC   D2A73036  28.967  30.312   6.545
 5826POPC   C3A73037  29.099  30.037   6.846
 5826POPC   C4A73038  29.336  30.116   7.172
 5826POPC   C1B73039  28.938  29.601   6.080
 5826POPC   C2B73040  29.040  29.566   6.545
 5826POPC   C3B73041  28.909  29.573   6.968
 5826POPC   C4B73042  29.100  29.689   7.326
 5827POPC   NC373043   5.069  39.346   5.183
 5827POPC   PO473044   5.029  38.761   5.389
 5827POPC   GL173045   5.221  38.985   5.761
 5827POPC   GL273046   5.138  39.353   5.793
 5827POPC   C1A73047   5.218  39.043   6.218
 5827POPC   D2A73048   5.028  39.173   6.626
 5827POPC   C3A73049   5.287  39.319   6.962
 5827POPC   C4A73050   5.509  39.237   7.355
 5827POPC   C1B73051   4.845  39.508   6.160
 5827POPC   C2B73052   4.646  39.499   6.590
 5827POPC   C3B73053   4.802  39.495   7.013
 5827POPC   C4B73054   4.964  39.199   7.334
 5828POPC   NC373055  39.750  35.105   5.114
 5828POPC   PO473056  40.115  34.544   5.290
 5828POPC   GL173057  40.044  34.554   5.769
 5828POPC   GL273058  39.727  34.659   5.816
 5828POPC   C1A73059  39.862  34.357   6.191
 5828POPC   D2A73060  39.803  34.527   6.618
 5828POPC   C3A73061  39.818  34.242   6.980
 5828POPC   C4A73062  39.742  34.313   7.442
 5828POPC   C1B73063  39.947  34.852   6.196
 5828POPC   C2B73064  40.279  34.590   6.408
 5828POPC   C3B73065  40.288  34.463   6.848
 5828POPC   C4B73066  40.009  34.668   7.150
 5829POPC   NC373067  33.528  34.472   5.313
 5829POPC   PO473068  34.013  34.911   5.403
 5829POPC   GL173069  33.780  34.815   5.769
 5829POPC   GL273070  33.680  34.452   5.800
 5829POPC   C1A73071  33.898  34.888   6.202
 5829POPC   D2A73072  34.061  34.643   6.565
 5829POPC   C3A73073  33.902  34.729   6.964
 5829POPC   C4A73074  33.851  35.081   7.169
 5829POPC   C1B73075  33.740  34.417   6.232
 5829POPC   C2B73076  33.560  34.511   6.648
 5829POPC   C3B73077  33.541  34.348   7.087
 5829POPC   C4B73078  33.597  34.280   7.537
 5830POPC   NC373079  23.314  35.935   5.607
 5830POPC   PO473080  22.690  36.193   5.416
 5830POPC   GL173081  22.775  36.123   5.836
 5830POPC   GL273082  23.102  36.338   5.855
 5830POPC   C1A73083  22.781  35.875   6.227
 5830POPC   D2A73084  23.112  35.943   6.555
 5830POPC   C3A73085  23.084  36.038   6.994
 5830POPC   C4A73086  22.774  35.846   7.191
 5830POPC   C1B73087  22.950  36.355   6.271
 5830POPC   C2B73088  22.775  36.600   6.576
 5830POPC   C3B73089  23.072  36.568   6.890
 5830POPC   C4B73090  23.084  36.604   7.312
 5831POPC   NC373091  27.542  17.175   5.462
 5831POPC   PO473092  27.221  17.816   5.425
 5831POPC   GL173093  27.370  17.781   5.824
 5831POPC   GL273094  27.564  17.514   5.836
 5831POPC   C1A73095  27.647  17.910   6.145
 5831POPC   D2A73096  27.761  17.742   6.533
 5831POPC   C3A73097  27.505  17.761   6.890
 5831POPC   C4A73098  27.371  17.357   7.114
 5831POPC   C1B73099  27.865  17.397   6.140
 5831POPC   C2B73100  27.768  17.205   6.527
 5831POPC   C3B73101  27.877  17.381   6.899
 5831POPC   C4B73102  27.977  17.231   7.264
 5832POPC   NC373103  33.219   9.113   5.383
 5832POPC   PO473104  32.653   8.854   5.528
 5832POPC   GL173105  33.000   8.885   5.812
 5832POPC   GL273106  33.044   9.222   5.866
 5832POPC   C1A73107  33.128   8.838   6.243
 5832POPC   D2A73108  32.987   9.004   6.644
 5832POPC   C3A73109  32.862   8.771   7.012
 5832POPC   C4A73110  33.114   8.690   7.387
 5832POPC   C1B73111  33.297   9.314   6.230
 5832POPC   C2B73112  33.447   9.223   6.669
 5832POPC   C3B73113  33.258   9.167   7.109
 5832POPC   C4B73114  33.320   9.127   7.592
 5833POPC   NC373115  21.690   0.548   5.490
 5833POPC   PO473116  21.079   0.342   5.416
 5833POPC   GL173117  21.317   0.405   5.813
 5833POPC   GL273118  21.676   0.195   5.853
 5833POPC   C1A73119  21.163   0.651   6.180
 5833POPC   D2A73120  21.074   0.878   6.574
 5833POPC   C3A73121  21.056   0.689   6.947
 5833POPC   C4A73122  21.171   0.747   7.351
 5833POPC   C1B73123  21.524   0.287   6.258
 5833POPC   C2B73124  21.471   0.568   6.587
 5833POPC   C3B73125  21.542   0.539   7.003
 5833POPC   C4B73126  21.455   0.195   7.264
 5834POPC   NC373127  11.568  44.487   5.501
 5834POPC   PO473128  10.960  44.236   5.547
 5834POPC   GL173129  11.156  44.521   5.826
 5834POPC   GL273130  11.334  44.866   5.777
 5834POPC   C1A73131  11.046  44.654   6.208
 5834POPC   D2A73132  11.305  44.528   6.508
 5834POPC   C3A73133  11.186  44.609   6.914
 5834POPC   C4A73134  10.957  44.619   7.304
 5834POPC   C1B73135  11.495  44.939   6.208
 5834POPC   C2B73136  11.616  44.887   6.660
 5834POPC   C3B73137  11.744  44.810   7.071
 5834POPC   C4B73138  11.474  44.617   7.340
 5835POPC   NC373139  28.768   2.838   5.191
 5835POPC   PO473140  29.140   2.343   5.454
 5835POPC   GL173141  29.130   2.712   5.739
 5835POPC   GL273142  28.854   2.978   5.802
 5835POPC   C1A73143  29.177   2.815   6.180
 5835POPC   D2A73144  29.355   2.823   6.591
 5835POPC   C3A73145  29.139   2.622   6.917
 5835POPC   C4A73146  29.260   2.685   7.317
 5835POPC   C1B73147  28.855   3.211   6.209
 5835POPC   C2B73148  28.970   3.138   6.677
 5835POPC   C3B73149  28.946   3.059   7.136
 5835POPC   C4B73150  28.670   3.261   7.437
 5836POPC   NC373151  23.697  22.253   5.438
 5836POPC   PO473152  24.146  21.755   5.773
 5836POPC   GL173153  23.860  22.106   5.899
 5836POPC   GL273154  23.956  22.475   5.831
 5836POPC   C1A73155  23.568  22.232   6.238
 5836POPC   D2A73156  23.463  21.993   6.620
 5836POPC   C3A73157  23.635  22.015   7.022
 5836POPC   C4A73158  23.488  22.158   7.392
 5836POPC   C1B73159  24.029  22.414   6.278
 5836POPC   C2B73160  23.956  22.161   6.641
 5836POPC   C3B73161  24.111  22.193   7.073
 5836POPC   C4B73162  23.943  22.310   7.519
 5837POPC   NC373163  13.114  42.290   5.325
 5837POPC   PO473164  12.458  42.218   5.179
 5837POPC   GL173165  12.688  42.310   5.607
 5837POPC   GL273166  12.938  42.083   5.753
 5837POPC   C1A73167  12.819  42.468   6.048
 5837POPC   D2A73168  12.795  42.457   6.498
 5837POPC   C3A73169  12.774  42.773   6.788
 5837POPC   C4A73170  12.881  42.573   7.182
 5837POPC   C1B73171  12.999  41.884   6.153
 5837POPC   C2B73172  13.076  41.855   6.620
 5837POPC   C3B73173  12.985  41.962   7.069
 5837POPC   C4B73174  12.942  41.865   7.505
 5838POPC   NC373175  31.050   2.988   5.695
 5838POPC   PO473176  30.594   3.469   5.479
 5838POPC   GL173177  30.760   3.452   5.850
 5838POPC   GL273178  31.127   3.492   5.827
 5838POPC   C1A73179  30.544   3.504   6.240
 5838POPC   D2A73180  30.759   3.614   6.604
 5838POPC   C3A73181  30.518   3.537   6.917
 5838POPC   C4A73182  30.567   3.704   7.296
 5838POPC   C1B73183  31.037   3.346   6.265
 5838POPC   C2B73184  30.933   3.139   6.659
 5838POPC   C3B73185  30.963   3.273   7.105
 5838POPC   C4B73186  31.078   3.461   7.518
 5839POPC   NC373187   8.740  15.757   5.427
 5839POPC   PO473188   8.771  16.343   5.537
 5839POPC   GL173189   8.987  16.092   5.838
 5839POPC   GL273190   9.046  15.722   5.846
 5839POPC   C1A73191   9.099  16.094   6.262
 5839POPC   D2A73192   9.270  16.014   6.651
 5839POPC   C3A73193   9.000  16.154   6.969
 5839POPC   C4A73194   8.969  16.096   7.416
 5839POPC   C1B73195   9.122  15.562   6.289
 5839POPC   C2B73196   9.341  15.516   6.700
 5839POPC   C3B73197   9.110  15.674   7.092
 5839POPC   C4B73198   8.641  15.748   7.206
 5840POPC   NC373199  21.571  32.126   5.356
 5840POPC   PO473200  20.901  32.369   5.331
 5840POPC   GL173201  21.056  32.227   5.756
 5840POPC   GL273202  21.417  32.273   5.818
 5840POPC   C1A73203  21.155  32.023   6.168
 5840POPC   D2A73204  21.437  31.890   6.518
 5840POPC   C3A73205  21.284  32.034   6.916
 5840POPC   C4A73206  21.448  32.047   7.331
 5840POPC   C1B73207  21.693  32.197   6.186
 5840POPC   C2B73208  21.734  32.387   6.615
 5840POPC   C3B73209  21.627  32.434   7.066
 5840POPC   C4B73210  21.809  32.363   7.519
 5841POPC   NC373211  28.809  10.813   5.217
 5841POPC   PO473212  29.175  10.341   5.526
 5841POPC   GL173213  29.128  10.564   5.869
 5841POPC   GL273214  28.904  10.807   5.748
 5841POPC   C1A73215  29.028  10.451   6.267
 5841POPC   D2A73216  29.155  10.669   6.603
 5841POPC   C3A73217  29.285  10.514   6.994
 5841POPC   C4A73218  29.503  10.730   7.283
 5841POPC   C1B73219  28.843  10.925   6.211
 5841POPC   C2B73220  28.760  10.987   6.677
 5841POPC   C3B73221  28.779  10.743   7.065
 5841POPC   C4B73222  28.854  10.690   7.497
 5842POPC   NC373223   8.402   8.023   5.340
 5842POPC   PO473224   7.986   8.481   5.424
 5842POPC   GL173225   8.168   8.225   5.759
 5842POPC   GL273226   8.005   7.926   5.762
 5842POPC   C1A73227   8.343   8.206   6.175
 5842POPC   D2A73228   8.128   8.236   6.582
 5842POPC   C3A73229   8.401   8.255   6.940
 5842POPC   C4A73230   8.339   8.290   7.394
 5842POPC   C1B73231   7.861   7.995   6.191
 5842POPC   C2B73232   7.974   7.765   6.576
 5842POPC   C3B73233   7.966   7.826   6.990
 5842POPC   C4B73234   7.555   7.844   7.139
 5843POPC   NC373235  41.947  44.098   5.543
 5843POPC   PO473236  42.238  43.599   5.120
 5843POPC   GL173237  42.323  43.723   5.621
 5843POPC   GL273238  42.615  43.970   5.707
 5843POPC   C1A73239  42.289  43.845   6.114
 5843POPC   D2A73240  42.284  43.774   6.592
 5843POPC   C3A73241  42.240  44.015   6.992
 5843POPC   C4A73242  42.209  43.608   7.217
 5843POPC   C1B73243  42.704  44.172   6.138
 5843POPC   C2B73244  42.656  44.111   6.594
 5843POPC   C3B73245  42.734  43.867   6.966
 5843POPC   C4B73246  42.626  43.854   7.400
 5844POPC   NC373247  12.535  40.326   5.608
 5844POPC   PO473248  13.125  40.134   5.451
 5844POPC   GL173249  12.961  40.052   5.818
 5844POPC   GL273250  13.115  39.763   5.908
 5844POPC   C1A73251  12.750  40.091   6.196
 5844POPC   D2A73252  12.859  40.282   6.565
 5844POPC   C3A73253  12.812  40.105   6.937
 5844POPC   C4A73254  12.700  40.037   7.343
 5844POPC   C1B73255  13.125  39.765   6.325
 5844POPC   C2B73256  13.050  39.713   6.717
 5844POPC   C3B73257  13.122  39.744   7.131
 5844POPC   C4B73258  13.018  39.658   7.527
 5845POPC   NC373259  10.759   4.540   5.036
 5845POPC   PO473260  10.139   4.144   5.263
 5845POPC   GL173261  10.440   4.324   5.576
 5845POPC   GL273262  10.298   4.582   5.799
 5845POPC   C1A73263  10.697   4.280   5.993
 5845POPC   D2A73264  10.871   4.277   6.431
 5845POPC   C3A73265  10.766   4.053   6.817
 5845POPC   C4A73266  10.735   4.359   7.168
 5845POPC   C1B73267  10.189   4.181   6.032
 5845POPC   C2B73268  10.371   4.069   6.443
 5845POPC   C3B73269  10.317   4.274   6.859
 5845POPC   C4B73270  10.349   3.994   7.182
 5846POPC   NC373271  13.935  17.597   5.377
 5846POPC   PO473272  13.353  17.206   5.392
 5846POPC   GL173273  13.550  17.470   5.717
 5846POPC   GL273274  13.378  17.790   5.741
 5846POPC   C1A73275  13.767  17.391   6.129
 5846POPC   D2A73276  13.829  17.291   6.598
 5846POPC   C3A73277  13.423  17.216   6.882
 5846POPC   C4A73278  13.416  17.306   7.351
 5846POPC   C1B73279  13.370  17.726   6.203
 5846POPC   C2B73280  13.346  17.687   6.674
 5846POPC   C3B73281  13.688  17.627   6.988
 5846POPC   C4B73282  13.821  17.793   7.365
 5847POPC   NC373283   8.463  37.085   5.440
 5847POPC   PO473284   7.791  37.038   5.498
 5847POPC   GL173285   8.075  37.069   5.844
 5847POPC   GL273286   8.369  36.860   5.899
 5847POPC   C1A73287   8.028  36.964   6.293
 5847POPC   D2A73288   8.247  37.036   6.679
 5847POPC   C3A73289   8.425  36.723   6.932
 5847POPC   C4A73290   8.206  36.784   7.308
 5847POPC   C1B73291   8.458  37.214   6.193
 5847POPC   C2B73292   8.613  37.361   6.628
 5847POPC   C3B73293   8.594  37.166   7.120
 5847POPC   C4B73294   8.531  37.025   7.611
 5848POPC   NC373295  39.102  35.668   5.459
 5848POPC   PO473296  39.777  35.481   5.387
 5848POPC   GL173297  39.481  35.404   5.728
 5848POPC   GL273298  39.580  35.139   5.934
 5848POPC   C1A73299  39.247  35.552   6.110
 5848POPC   D2A73300  39.415  35.700   6.497
 5848POPC   C3A73301  39.182  35.622   6.862
 5848POPC   C4A73302  39.322  35.437   7.248
 5848POPC   C1B73303  39.531  35.191   6.355
 5848POPC   C2B73304  39.160  35.183   6.601
 5848POPC   C3B73305  39.211  35.003   6.992
 5848POPC   C4B73306  39.598  34.955   7.181
 5849POPC   NC373307   2.546  38.745   5.337
 5849POPC   PO473308   2.916  38.203   5.493
 5849POPC   GL173309   2.685  38.442   5.776
 5849POPC   GL273310   2.767  38.816   5.791
 5849POPC   C1A73311   2.877  38.364   6.189
 5849POPC   D2A73312   2.934  38.051   6.519
 5849POPC   C3A73313   2.647  38.218   6.828
 5849POPC   C4A73314   2.571  38.296   7.271
 5849POPC   C1B73315   2.524  38.749   6.164
 5849POPC   C2B73316   2.727  38.702   6.576
 5849POPC   C3B73317   2.678  38.741   7.019
 5849POPC   C4B73318   2.328  38.967   7.172
 5850POPC   NC373319  27.701   9.099   5.367
 5850POPC   PO473320  27.099   9.229   5.347
 5850POPC   GL173321  27.340   9.055   5.772
 5850POPC   GL273322  27.672   8.828   5.788
 5850POPC   C1A73323  27.575   9.131   6.204
 5850POPC   D2A73324  27.679   9.299   6.623
 5850POPC   C3A73325  27.458   9.024   6.927
 5850POPC   C4A73326  27.361   8.969   7.371
 5850POPC   C1B73327  27.957   8.782   6.161
 5850POPC   C2B73328  27.806   8.805   6.591
 5850POPC   C3B73329  27.837   8.689   7.044
 5850POPC   C4B73330  28.191   8.717   7.280
 5851POPC   NC373331  15.435   8.689   5.428
 5851POPC   PO473332  14.766   9.010   5.490
 5851POPC   GL173333  14.903   9.124   5.888
 5851POPC   GL273334  15.245   9.027   5.823
 5851POPC   C1A73335  14.973   9.157   6.334
 5851POPC   D2A73336  14.870   9.289   6.748
 5851POPC   C3A73337  15.073   9.028   7.045
 5851POPC   C4A73338  15.239   9.159   7.414
 5851POPC   C1B73339  15.399   8.881   6.218
 5851POPC   C2B73340  15.250   8.785   6.624
 5851POPC   C3B73341  15.381   8.559   7.001
 5851POPC   C4B73342  15.577   8.816   7.313
 5852POPC   NC373343   9.987  38.488   5.435
 5852POPC   PO473344   9.397  38.986   5.359
 5852POPC   GL173345   9.572  38.735   5.756
 5852POPC   GL273346   9.628  38.359   5.817
 5852POPC   C1A73347   9.720  38.716   6.220
 5852POPC   D2A73348   9.788  38.907   6.648
 5852POPC   C3A73349   9.828  38.678   7.035
 5852POPC   C4A73350  10.076  38.287   7.099
 5852POPC   C1B73351   9.665  38.185   6.274
 5852POPC   C2B73352   9.606  38.226   6.754
 5852POPC   C3B73353   9.361  37.936   7.055
 5852POPC   C4B73354   9.479  37.837   7.489
 5853POPC   NC373355  11.767   5.308   5.511
 5853POPC   PO473356  12.190   4.804   5.386
 5853POPC   GL173357  12.115   5.003   5.770
 5853POPC   GL273358  11.808   4.816   5.749
 5853POPC   C1A73359  12.231   5.175   6.197
 5853POPC   D2A73360  12.369   5.002   6.631
 5853POPC   C3A73361  12.300   5.177   7.057
 5853POPC   C4A73362  12.147   5.422   7.408
 5853POPC   C1B73363  11.781   4.906   6.178
 5853POPC   C2B73364  11.862   5.088   6.551
 5853POPC   C3B73365  11.651   5.039   6.888
 5853POPC   C4B73366  11.851   4.984   7.242
 5854POPC   NC373367  15.636   3.435   5.566
 5854POPC   PO473368  16.248   3.664   5.390
 5854POPC   GL173369  16.090   3.525   5.810
 5854POPC   GL273370  15.817   3.723   5.931
 5854POPC   C1A73371  16.024   3.410   6.271
 5854POPC   D2A73372  15.898   3.598   6.663
 5854POPC   C3A73373  15.951   3.391   7.088
 5854POPC   C4A73374  16.052   3.402   7.549
 5854POPC   C1B73375  15.528   3.592   6.237
 5854POPC   C2B73376  15.426   3.400   6.598
 5854POPC   C3B73377  15.460   3.612   6.954
 5854POPC   C4B73378  15.467   3.379   7.299
 5855POPC   NC373379   6.449   0.307   5.228
 5855POPC   PO473380   7.010   0.717   5.336
 5855POPC   GL173381   6.943   0.626   5.788
 5855POPC   GL273382   7.075   0.306   5.899
 5855POPC   C1A73383   6.746   0.568   6.212
 5855POPC   D2A73384   6.533   0.456   6.594
 5855POPC   C3A73385   6.668   0.609   7.002
 5855POPC   C4A73386   6.422   0.451   7.321
 5855POPC   C1B73387   6.924   0.057   6.246
 5855POPC   C2B73388   6.857   0.035   6.656
 5855POPC   C3B73389   6.587   0.105   6.947
 5855POPC   C4B73390   6.835   0.123   7.268
 5856POPC   NC373391  31.656  44.935   5.538
 5856POPC   PO473392  31.649  44.334   5.537
 5856POPC   GL173393  31.574  44.635   5.954
 5856POPC   GL273394  31.678   0.014   6.058
 5856POPC   C1A73395  31.405  44.647   6.399
 5856POPC   D2A73396  31.520  44.860   6.803
 5856POPC   C3A73397  31.240  44.718   7.149
 5856POPC   C4A73398  31.264  44.368   7.477
 5856POPC   C1B73399  31.900  44.737   6.389
 5856POPC   C2B73400  31.740  44.401   6.705
 5856POPC   C3B73401  31.688  44.479   7.175
 5856POPC   C4B73402  32.036  44.605   7.492
 5857POPC   NC373403   0.529  32.736   5.441
 5857POPC   PO473404   0.496  33.389   5.343
 5857POPC   GL173405   0.374  33.212   5.804
 5857POPC   GL273406   0.227  32.842   5.848
 5857POPC   C1A73407   0.207  33.142   6.272
 5857POPC   D2A73408   0.235  32.946   6.698
 5857POPC   C3A73409   0.506  33.126   7.045
 5857POPC   C4A73410   0.290  33.371   7.328
 5857POPC   C1B73411   0.601  32.848   6.142
 5857POPC   C2B73412   0.730  32.939   6.552
 5857POPC   C3B73413   0.637  32.666   6.892
 5857POPC   C4B73414   0.805  32.757   7.287
 5858POPC   NC373415  38.628  25.725   5.605
 5858POPC   PO473416  38.456  25.185   5.410
 5858POPC   GL173417  38.361  25.234   5.819
 5858POPC   GL273418  38.565  24.927   5.858
 5858POPC   C1A73419  38.486  25.421   6.219
 5858POPC   D2A73420  38.596  25.310   6.665
 5858POPC   C3A73421  38.345  25.434   7.016
 5858POPC   C4A73422  38.498  25.625   7.423
 5858POPC   C1B73423  38.383  24.893   6.247
 5858POPC   C2B73424  38.368  24.862   6.674
 5858POPC   C3B73425  38.321  24.805   7.052
 5858POPC   C4B73426  38.436  25.042   7.348
 5859POPC   NC373427  20.624  11.660   5.622
 5859POPC   PO473428  20.417  11.036   5.339
 5859POPC   GL173429  20.439  11.205   5.786
 5859POPC   GL273430  20.765  11.267   5.915
 5859POPC   C1A73431  20.401  11.432   6.235
 5859POPC   D2A73432  20.619  11.518   6.640
 5859POPC   C3A73433  20.402  11.527   7.044
 5859POPC   C4A73434  20.529  11.648   7.469
 5859POPC   C1B73435  20.713  11.026   6.288
 5859POPC   C2B73436  20.806  11.028   6.705
 5859POPC   C3B73437  20.679  10.969   7.106
 5859POPC   C4B73438  20.941  10.973   7.418
 5860POPC   NC373439  12.319  13.648   5.618
 5860POPC   PO473440  11.764  13.757   5.263
 5860POPC   GL173441  11.803  13.602   5.694
 5860POPC   GL273442  11.906  13.945   5.806
 5860POPC   C1A73443  11.749  13.641   6.169
 5860POPC   D2A73444  11.746  13.902   6.568
 5860POPC   C3A73445  11.780  13.675   6.952
 5860POPC   C4A73446  12.166  13.502   7.070
 5860POPC   C1B73447  12.179  13.895   6.216
 5860POPC   C2B73448  12.260  13.838   6.648
 5860POPC   C3B73449  12.205  14.003   7.048
 5860POPC   C4B73450  11.974  13.848   7.428
 5861POPC   NC373451  44.144   3.532   5.602
 5861POPC   PO473452  43.674   3.268   5.220
 5861POPC   GL173453  43.644   3.585   5.734
 5861POPC   GL273454  43.676   3.943   5.751
 5861POPC   C1A73455  43.675   3.469   6.231
 5861POPC   D2A73456  43.583   3.315   6.636
 5861POPC   C3A73457  43.903   3.352   6.944
 5861POPC   C4A73458  43.836   3.141   7.336
 5861POPC   C1B73459  43.871   3.935   6.174
 5861POPC   C2B73460  44.004   3.747   6.590
 5861POPC   C3B73461  44.042   3.945   7.021
 5861POPC   C4B73462  43.757   3.944   7.381
 5862POPC   NC373463  32.845  30.767   5.345
 5862POPC   PO473464  33.372  30.471   5.607
 5862POPC   GL173465  32.970  30.493   5.816
 5862POPC   GL273466  32.868  30.850   5.856
 5862POPC   C1A73467  32.908  30.513   6.269
 5862POPC   D2A73468  32.781  30.730   6.654
 5862POPC   C3A73469  32.906  30.499   7.011
 5862POPC   C4A73470  33.012  30.634   7.459
 5862POPC   C1B73471  32.926  31.020   6.266
 5862POPC   C2B73472  33.120  31.271   6.599
 5862POPC   C3B73473  33.205  31.161   7.020
 5862POPC   C4B73474  32.834  30.976   7.141
 5863POPC   NC373475  13.473  15.959   5.434
 5863POPC   PO473476  14.134  16.151   5.403
 5863POPC   GL173477  13.911  15.937   5.805
 5863POPC   GL273478  13.640  15.627   5.786
 5863POPC   C1A73479  13.853  16.182   6.237
 5863POPC   D2A73480  13.707  16.312   6.663
 5863POPC   C3A73481  13.610  16.040   7.045
 5863POPC   C4A73482  13.874  16.058   7.393
 5863POPC   C1B73483  13.578  15.768   6.195
 5863POPC   C2B73484  13.716  15.796   6.593
 5863POPC   C3B73485  13.837  15.517   6.899
 5863POPC   C4B73486  13.710  15.564   7.306
 5864POPC   NC373487  28.948  16.960   5.540
 5864POPC   PO473488  29.335  16.416   5.468
 5864POPC   GL173489  29.340  16.698   5.805
 5864POPC   GL273490  29.015  16.556   5.894
 5864POPC   C1A73491  29.300  16.750   6.247
 5864POPC   D2A73492  29.195  16.584   6.613
 5864POPC   C3A73493  29.468  16.703   6.928
 5864POPC   C4A73494  29.260  16.722   7.282
 5864POPC   C1B73495  28.784  16.734   6.244
 5864POPC   C2B73496  28.754  16.941   6.638
 5864POPC   C3B73497  28.852  16.985   7.058
 5864POPC   C4B73498  28.788  16.807   7.438
 5865POPC   NC373499   3.234  39.348   5.555
 5865POPC   PO473500   2.631  39.203   5.407
 5865POPC   GL173501   2.727  39.344   5.817
 5865POPC   GL273502   3.011  39.568   5.934
 5865POPC   C1A73503   2.819  39.186   6.247
 5865POPC   D2A73504   3.019  39.146   6.660
 5865POPC   C3A73505   2.734  39.252   6.961
 5865POPC   C4A73506   2.638  39.462   7.310
 5865POPC   C1B73507   3.236  39.503   6.341
 5865POPC   C2B73508   3.046  39.673   6.722
 5865POPC   C3B73509   3.096  39.606   7.148
 5865POPC   C4B73510   3.396  39.370   7.363
 5866POPC   NC373511  19.729  11.243   5.465
 5866POPC   PO473512  20.143  11.732   5.583
 5866POPC   GL173513  19.984  11.396   5.896
 5866POPC   GL273514  19.907  11.012   5.873
 5866POPC   C1A73515  19.880  11.312   6.329
 5866POPC   D2A73516  19.643  11.536   6.613
 5866POPC   C3A73517  19.889  11.452   6.964
 5866POPC   C4A73518  19.724  11.591   7.336
 5866POPC   C1B73519  20.222  10.973   6.182
 5866POPC   C2B73520  20.291  11.109   6.641
 5866POPC   C3B73521  20.173  11.033   7.081
 5866POPC   C4B73522  19.767  11.045   7.275
 5867POPC   NC373523  24.299  30.745   5.558
 5867POPC   PO473524  24.767  30.891   5.157
 5867POPC   GL173525  24.778  30.942   5.689
 5867POPC   GL273526  24.534  30.757   5.984
 5867POPC   C1A73527  24.917  30.985   6.177
 5867POPC   D2A73528  24.563  30.873   6.491
 5867POPC   C3A73529  24.544  30.809   6.966
 5867POPC   C4A73530  24.684  30.596   7.351
 5867POPC   C1B73531  24.295  30.459   6.297
 5867POPC   C2B73532  24.192  30.395   6.755
 5867POPC   C3B73533  24.096  30.431   7.182
 5867POPC   C4B73534  24.216  30.570   7.591
 5868POPC   NC373535  10.278   8.658   5.580
 5868POPC   PO473536  10.649   8.089   5.341
 5868POPC   GL173537  10.571   8.197   5.719
 5868POPC   GL273538  10.925   8.247   5.772
 5868POPC   C1A73539  10.560   8.156   6.158
 5868POPC   D2A73540  10.520   7.863   6.500
 5868POPC   C3A73541  10.238   7.992   6.834
 5868POPC   C4A73542  10.139   7.928   7.251
 5868POPC   C1B73543  11.031   8.341   6.190
 5868POPC   C2B73544  10.876   8.245   6.589
 5868POPC   C3B73545  10.919   8.165   7.015
 5868POPC   C4B73546  10.579   8.148   7.255
 5869POPC   NC373547  35.197  32.277   5.394
 5869POPC   PO473548  35.882  32.238   5.494
 5869POPC   GL173549  35.557  32.393   5.811
 5869POPC   GL273550  35.227  32.209   5.890
 5869POPC   C1A73551  35.393  32.529   6.246
 5869POPC   D2A73552  35.238  32.620   6.656
 5869POPC   C3A73553  35.432  32.406   7.004
 5869POPC   C4A73554  35.629  32.563   7.356
 5869POPC   C1B73555  35.058  32.083   6.301
 5869POPC   C2B73556  35.161  31.768   6.625
 5869POPC   C3B73557  35.297  31.912   7.031
 5869POPC   C4B73558  35.017  32.193   7.274
 5870POPC   NC373559  32.887  17.270   5.360
 5870POPC   PO473560  33.140  16.677   5.135
 5870POPC   GL173561  33.187  16.772   5.637
 5870POPC   GL273562  33.133  17.105   5.789
 5870POPC   C1A73563  33.076  16.720   6.110
 5870POPC   D2A73564  33.147  16.910   6.522
 5870POPC   C3A73565  32.979  16.701   6.914
 5870POPC   C4A73566  33.129  16.502   7.259
 5870POPC   C1B73567  32.795  17.178   6.096
 5870POPC   C2B73568  32.785  17.314   6.532
 5870POPC   C3B73569  33.006  17.205   6.920
 5870POPC   C4B73570  32.835  16.989   7.332
 5871POPC   NC373571  29.787  26.499   5.455
 5871POPC   PO473572  29.940  27.134   5.352
 5871POPC   GL173573  29.784  26.931   5.789
 5871POPC   GL273574  29.621  26.622   5.922
 5871POPC   C1A73575  29.895  26.892   6.245
 5871POPC   D2A73576  30.029  26.777   6.673
 5871POPC   C3A73577  29.792  26.890   7.037
 5871POPC   C4A73578  29.504  26.638   7.236
 5871POPC   C1B73579  29.736  26.399   6.337
 5871POPC   C2B73580  29.723  26.366   6.814
 5871POPC   C3B73581  29.945  26.398   7.216
 5871POPC   C4B73582  29.794  26.480   7.652
 5872POPC   NC373583   3.709   7.567   5.482
 5872POPC   PO473584   3.201   7.125   5.500
 5872POPC   GL173585   3.309   7.455   5.774
 5872POPC   GL273586   3.004   7.541   5.826
 5872POPC   C1A73587   3.383   7.672   6.191
 5872POPC   D2A73588   3.225   7.830   6.623
 5872POPC   C3A73589   3.419   7.675   7.007
 5872POPC   C4A73590   3.850   7.606   7.185
 5872POPC   C1B73591   3.094   7.256   6.193
 5872POPC   C2B73592   3.263   7.290   6.606
 5872POPC   C3B73593   3.635   7.261   6.826
 5872POPC   C4B73594   3.699   7.100   7.209
 5873POPC   NC373595   3.246   0.620   5.550
 5873POPC   PO473596   3.907   0.503   5.403
 5873POPC   GL173597   3.677   0.457   5.836
 5873POPC   GL273598   3.298   0.361   5.967
 5873POPC   C1A73599   3.681   0.255   6.249
 5873POPC   D2A73600   3.506   0.482   6.571
 5873POPC   C3A73601   3.799   0.383   6.874
 5873POPC   C4A73602   3.954   0.658   7.137
 5873POPC   C1B73603   3.166   0.675   6.230
 5873POPC   C2B73604   3.106   0.808   6.649
 5873POPC   C3B73605   3.397   0.765   6.997
 5873POPC   C4B73606   3.404   0.659   7.421
 5874POPC   NC373607  34.961  37.580   5.462
 5874POPC   PO473608  35.602  37.424   5.438
 5874POPC   GL173609  35.565  37.666   5.809
 5874POPC   GL273610  35.230  37.779   5.836
 5874POPC   C1A73611  35.614  37.698   6.262
 5874POPC   D2A73612  35.658  37.462   6.651
 5874POPC   C3A73613  35.574  37.636   7.078
 5874POPC   C4A73614  35.278  37.461   7.430
 5874POPC   C1B73615  35.112  37.843   6.244
 5874POPC   C2B73616  35.297  37.852   6.659
 5874POPC   C3B73617  35.078  37.683   7.020
 5874POPC   C4B73618  34.901  37.832   7.385
 5875POPC   NC373619  44.886  21.119   5.374
 5875POPC   PO473620  44.527  21.640   5.653
 5875POPC   GL173621  44.793  21.538   5.970
 5875POPC   GL273622  44.946  21.244   5.856
 5875POPC   C1A73623  44.612  21.362   6.369
 5875POPC   D2A73624  44.345  21.331   6.762
 5875POPC   C3A73625  44.614  21.211   7.099
 5875POPC   C4A73626  44.998  21.472   7.120
 5875POPC   C1B73627   0.123  21.313   6.291
 5875POPC   C2B73628  44.981  21.142   6.690
 5875POPC   C3B73629   0.052  20.934   7.086
 5875POPC   C4B73630   0.001  21.044   7.547
 5876POPC   NC373631   6.794   8.593   5.636
 5876POPC   PO473632   6.539   7.948   5.484
 5876POPC   GL173633   6.658   8.141   5.847
 5876POPC   GL273634   6.352   8.359   5.812
 5876POPC   C1A73635   6.836   8.040   6.278
 5876POPC   D2A73636   6.572   8.047   6.678
 5876POPC   C3A73637   6.657   7.825   7.090
 5876POPC   C4A73638   6.406   7.601   7.415
 5876POPC   C1B73639   6.487   8.397   6.268
 5876POPC   C2B73640   6.843   8.461   6.607
 5876POPC   C3B73641   6.711   8.354   7.061
 5876POPC   C4B73642   6.908   8.527   7.444
 5877POPC   NC373643  17.396   9.490   4.947
 5877POPC   PO473644  17.569   9.806   5.489
 5877POPC   GL173645  17.486   9.941   5.854
 5877POPC   GL273646  17.835  10.014   5.901
 5877POPC   C1A73647  17.270   9.843   6.223
 5877POPC   D2A73648  17.242  10.058   6.595
 5877POPC   C3A73649  17.320   9.800   6.911
 5877POPC   C4A73650  17.382   9.768   7.306
 5877POPC   C1B73651  17.797   9.754   6.248
 5877POPC   C2B73652  17.721   9.608   6.648
 5877POPC   C3B73653  17.892   9.761   7.050
 5877POPC   C4B73654  17.856   9.883   7.477
 5878POPC   NC373655  35.525  17.605   5.669
 5878POPC   PO473656  35.682  18.206   5.403
 5878POPC   GL173657  35.431  18.181   5.788
 5878POPC   GL273658  35.140  17.960   5.721
 5878POPC   C1A73659  35.397  18.423   6.198
 5878POPC   D2A73660  35.582  18.479   6.622
 5878POPC   C3A73661  35.295  18.381   6.983
 5878POPC   C4A73662  35.368  18.417   7.438
 5878POPC   C1B73663  35.045  18.037   6.145
 5878POPC   C2B73664  35.171  18.104   6.560
 5878POPC   C3B73665  35.222  17.857   6.924
 5878POPC   C4B73666  35.542  17.985   7.199
 5879POPC   NC373667  25.974  11.796   5.386
 5879POPC   PO473668  25.722  12.441   5.455
 5879POPC   GL173669  25.960  12.450   5.858
 5879POPC   GL273670  26.156  12.098   5.871
 5879POPC   C1A73671  26.000  12.352   6.310
 5879POPC   D2A73672  25.972  11.956   6.542
 5879POPC   C3A73673  25.749  11.972   6.945
 5879POPC   C4A73674  25.785  12.321   7.210
 5879POPC   C1B73675  26.417  12.040   6.267
 5879POPC   C2B73676  26.462  12.314   6.639
 5879POPC   C3B73677  26.295  12.238   7.052
 5879POPC   C4B73678  26.168  11.861   7.216
 5880POPC   NC373679  29.279  27.177   4.933
 5880POPC   PO473680  29.414  26.780   5.430
 5880POPC   GL173681  29.245  26.946   5.790
 5880POPC   GL273682  29.079  26.652   5.821
 5880POPC   C1A73683  29.366  26.952   6.222
 5880POPC   D2A73684  29.510  26.777   6.589
 5880POPC   C3A73685  29.311  26.970   6.872
 5880POPC   C4A73686  29.336  27.129   7.242
 5880POPC   C1B73687  28.846  26.928   6.110
 5880POPC   C2B73688  28.941  27.061   6.531
 5880POPC   C3B73689  28.826  26.794   6.876
 5880POPC   C4B73690  29.013  26.741   7.262
 5881POPC   NC373691   1.593  12.531   5.459
 5881POPC   PO473692   1.108  13.024   5.362
 5881POPC   GL173693   1.190  12.975   5.801
 5881POPC   GL273694   1.549  13.010   5.757
 5881POPC   C1A73695   1.098  12.893   6.249
 5881POPC   D2A73696   1.019  13.117   6.643
 5881POPC   C3A73697   1.007  12.805   6.980
 5881POPC   C4A73698   0.988  12.882   7.445
 5881POPC   C1B73699   1.609  12.851   6.184
 5881POPC   C2B73700   1.455  12.803   6.621
 5881POPC   C3B73701   1.443  13.036   7.019
 5881POPC   C4B73702   1.535  12.836   7.413
 5882POPC   NC373703   1.799  30.138   5.300
 5882POPC   PO473704   1.370  29.575   5.462
 5882POPC   GL173705   1.728  29.683   5.782
 5882POPC   GL273706   1.887  30.033   5.792
 5882POPC   C1A73707   1.930  29.723   6.216
 5882POPC   D2A73708   1.825  29.666   6.647
 5882POPC   C3A73709   1.984  29.918   6.963
 5882POPC   C4A73710   2.330  29.827   7.228
 5882POPC   C1B73711   2.111  30.206   6.131
 5882POPC   C2B73712   1.958  30.320   6.537
 5882POPC   C3B73713   1.762  30.411   6.925
 5882POPC   C4B73714   1.850  30.268   7.320
 5883POPC   NC373715  21.726   6.798   5.664
 5883POPC   PO473716  21.677   6.334   5.185
 5883POPC   GL173717  21.306   6.506   5.568
 5883POPC   GL273718  21.149   6.830   5.650
 5883POPC   C1A73719  21.300   6.531   6.083
 5883POPC   D2A73720  21.483   6.359   6.480
 5883POPC   C3A73721  21.318   6.455   6.884
 5883POPC   C4A73722  21.543   6.491   7.275
 5883POPC   C1B73723  21.054   6.957   6.129
 5883POPC   C2B73724  21.309   6.862   6.548
 5883POPC   C3B73725  21.387   6.949   7.005
 5883POPC   C4B73726  21.284   7.215   7.337
 5884POPC   NC373727  43.504  11.131   5.416
 5884POPC   PO473728  44.059  11.596   5.432
 5884POPC   GL173729  44.103  11.184   5.704
 5884POPC   GL273730  43.771  11.030   5.836
 5884POPC   C1A73731  44.125  11.109   6.177
 5884POPC   D2A73732  43.917  11.369   6.502
 5884POPC   C3A73733  43.974  11.260   6.932
 5884POPC   C4A73734  43.830  11.462   7.287
 5884POPC   C1B73735  43.566  11.093   6.225
 5884POPC   C2B73736  43.632  10.954   6.624
 5884POPC   C3B73737  43.505  11.032   7.032
 5884POPC   C4B73738  43.696  10.969   7.419
 5885POPC   NC373739  29.401  35.639   5.432
 5885POPC   PO473740  28.965  35.116   5.374
 5885POPC   GL173741  29.188  35.247   5.751
 5885POPC   GL273742  28.926  35.491   5.802
 5885POPC   C1A73743  29.459  35.199   6.144
 5885POPC   D2A73744  29.437  35.351   6.578
 5885POPC   C3A73745  29.099  35.269   6.916
 5885POPC   C4A73746  29.332  35.151   7.284
 5885POPC   C1B73747  29.129  35.598   6.189
 5885POPC   C2B73748  29.150  35.764   6.603
 5885POPC   C3B73749  29.389  35.680   6.978
 5885POPC   C4B73750  29.160  35.609   7.376
 5886POPC   NC373751  41.441   0.009   5.481
 5886POPC   PO473752  41.876  44.520   5.264
 5886POPC   GL173753  41.559  44.543   5.677
 5886POPC   GL273754  41.548  44.236   5.830
 5886POPC   C1A73755  41.366  44.773   6.084
 5886POPC   D2A73756  41.537   0.071   6.428
 5886POPC   C3A73757  41.650  44.962   6.854
 5886POPC   C4A73758  41.493  44.686   7.169
 5886POPC   C1B73759  41.691  44.414   6.207
 5886POPC   C2B73760  41.593  44.504   6.636
 5886POPC   C3B73761  41.673  44.245   7.011
 5886POPC   C4B73762  41.639  44.266   7.464
 5887POPC   NC373763  27.118  21.511   5.406
 5887POPC   PO473764  26.452  21.647   5.461
 5887POPC   GL173765  26.556  21.386   5.803
 5887POPC   GL273766  26.902  21.267   5.794
 5887POPC   C1A73767  26.645  21.454   6.231
 5887POPC   D2A73768  26.708  21.278   6.618
 5887POPC   C3A73769  26.624  21.432   7.032
 5887POPC   C4A73770  26.840  21.330   7.412
 5887POPC   C1B73771  27.123  21.150   6.156
 5887POPC   C2B73772  27.218  21.180   6.587
 5887POPC   C3B73773  27.037  21.075   6.976
 5887POPC   C4B73774  27.233  21.011   7.362
 5888POPC   NC373775  39.788   7.470   5.372
 5888POPC   PO473776  40.318   7.073   5.422
 5888POPC   GL173777  40.116   7.355   5.756
 5888POPC   GL273778  39.745   7.257   5.845
 5888POPC   C1A73779  40.016   7.555   6.183
 5888POPC   D2A73780  40.097   7.425   6.613
 5888POPC   C3A73781  39.935   7.609   7.008
 5888POPC   C4A73782  39.917   7.756   7.435
 5888POPC   C1B73783  39.513   7.426   6.218
 5888POPC   C2B73784  39.582   7.435   6.657
 5888POPC   C3B73785  39.528   7.264   7.098
 5888POPC   C4B73786  39.770   7.277   7.476
 5889POPC   NC373787  13.421  27.668   5.355
 5889POPC   PO473788  13.411  27.023   5.614
 5889POPC   GL173789  13.508  27.405   5.842
 5889POPC   GL273790  13.628  27.765   5.804
 5889POPC   C1A73791  13.401  27.399   6.287
 5889POPC   D2A73792  13.389  27.570   6.685
 5889POPC   C3A73793  13.593  27.517   7.028
 5889POPC   C4A73794  13.422  27.780   7.361
 5889POPC   C1B73795  13.824  27.653   6.196
 5889POPC   C2B73796  13.871  27.789   6.588
 5889POPC   C3B73797  14.077  27.710   6.997
 5889POPC   C4B73798  13.897  27.675   7.421
 5890POPC   NC373799  23.214  34.189   5.507
 5890POPC   PO473800  22.856  33.794   5.043
 5890POPC   GL173801  22.875  33.774   5.552
 5890POPC   GL273802  23.209  33.724   5.792
 5890POPC   C1A73803  22.750  33.676   6.022
 5890POPC   D2A73804  22.641  33.774   6.473
 5890POPC   C3A73805  22.988  33.836   6.797
 5890POPC   C4A73806  22.962  33.816   7.253
 5890POPC   C1B73807  23.204  33.694   6.294
 5890POPC   C2B73808  23.070  33.361   6.626
 5890POPC   C3B73809  23.118  33.330   7.098
 5890POPC   C4B73810  23.146  33.328   7.583
 5891POPC   NC373811  28.838   0.372   5.642
 5891POPC   PO473812  29.383   0.572   5.410
 5891POPC   GL173813  29.348   0.478   5.841
 5891POPC   GL273814  29.576   0.734   5.886
 5891POPC   C1A73815  29.224   0.381   6.292
 5891POPC   D2A73816  29.042   0.390   6.730
 5891POPC   C3A73817  29.327   0.272   7.082
 5891POPC   C4A73818  29.195   0.141   7.507
 5891POPC   C1B73819  29.253   0.900   6.155
 5891POPC   C2B73820  29.279   0.823   6.586
 5891POPC   C3B73821  29.432   0.762   7.000
 5891POPC   C4B73822  29.630   0.593   7.362
 5892POPC   NC373823  39.486   4.963   5.367
 5892POPC   PO473824  39.596   5.617   5.610
 5892POPC   GL173825  39.430   5.256   5.887
 5892POPC   GL273826  39.231   4.954   5.808
 5892POPC   C1A73827  39.215   5.124   6.308
 5892POPC   D2A73828  39.053   5.230   6.732
 5892POPC   C3A73829  39.245   5.263   7.133
 5892POPC   C4A73830  39.676   5.244   7.267
 5892POPC   C1B73831  39.449   4.694   6.124
 5892POPC   C2B73832  39.386   4.667   6.575
 5892POPC   C3B73833  39.518   4.824   6.994
 5892POPC   C4B73834  39.383   4.771   7.442
 5893POPC   NC373835  30.092  11.442   5.218
 5893POPC   PO473836  29.546  11.156   5.213
 5893POPC   GL173837  29.794  11.275   5.636
 5893POPC   GL273838  30.126  11.468   5.747
 5893POPC   C1A73839  29.851  11.206   6.112
 5893POPC   D2A73840  30.121  11.165   6.502
 5893POPC   C3A73841  29.975  11.228   6.920
 5893POPC   C4A73842  29.608  11.252   7.198
 5893POPC   C1B73843  30.211  11.598   6.204
 5893POPC   C2B73844  30.217  11.686   6.669
 5893POPC   C3B73845  30.247  11.610   7.138
 5893POPC   C4B73846  30.026  11.351   7.461
 5894POPC   NC373847   0.934  30.895   5.434
 5894POPC   PO473848   0.270  30.843   5.196
 5894POPC   GL173849   0.401  30.720   5.648
 5894POPC   GL273850   0.214  30.435   5.835
 5894POPC   C1A73851   0.509  30.826   6.098
 5894POPC   D2A73852   0.509  30.532   6.479
 5894POPC   C3A73853   0.729  30.657   6.854
 5894POPC   C4A73854   0.826  30.391   7.190
 5894POPC   C1B73855   0.063  30.616   6.229
 5894POPC   C2B73856   0.212  30.937   6.555
 5894POPC   C3B73857   0.246  30.792   6.976
 5894POPC   C4B73858   0.002  30.456   7.188
 5895POPC   NC373859   4.745  19.919   5.409
 5895POPC   PO473860   4.075  19.781   5.331
 5895POPC   GL173861   4.294  19.812   5.726
 5895POPC   GL273862   4.372  20.152   5.768
 5895POPC   C1A73863   4.156  19.811   6.168
 5895POPC   D2A73864   3.893  19.768   6.534
 5895POPC   C3A73865   4.182  19.838   6.873
 5895POPC   C4A73866   4.474  19.613   7.101
 5895POPC   C1B73867   4.601  20.088   6.159
 5895POPC   C2B73868   4.646  19.844   6.541
 5895POPC   C3B73869   4.788  19.986   6.933
 5895POPC   C4B73870   4.474  20.146   7.178
 5896POPC   NC373871  36.319  13.851   5.464
 5896POPC   PO473872  36.073  13.202   5.489
 5896POPC   GL173873  36.086  13.521   5.804
 5896POPC   GL273874  35.851  13.742   5.681
 5896POPC   C1A73875  36.251  13.598   6.229
 5896POPC   D2A73876  36.124  13.387   6.604
 5896POPC   C3A73877  36.198  13.567   6.980
 5896POPC   C4A73878  36.211  13.411   7.374
 5896POPC   C1B73879  35.831  13.879   6.115
 5896POPC   C2B73880  35.877  13.831   6.571
 5896POPC   C3B73881  35.752  13.826   7.014
 5896POPC   C4B73882  35.825  13.714   7.439
 5897POPC   NC373883  41.920  35.249   5.385
 5897POPC   PO473884  42.588  35.042   5.487
 5897POPC   GL173885  42.299  35.010   5.794
 5897POPC   GL273886  42.225  35.342   5.787
 5897POPC   C1A73887  42.308  35.078   6.249
 5897POPC   D2A73888  42.504  35.028   6.653
 5897POPC   C3A73889  42.589  35.347   6.952
 5897POPC   C4A73890  42.498  35.208   7.365
 5897POPC   C1B73891  42.070  35.517   6.144
 5897POPC   C2B73892  42.243  35.480   6.568
 5897POPC   C3B73893  42.072  35.577   6.963
 5897POPC   C4B73894  42.202  35.619   7.406
 5898POPC   NC373895   2.458  42.529   5.594
 5898POPC   PO473896   2.953  42.220   5.345
 5898POPC   GL173897   2.838  42.171   5.780
 5898POPC   GL273898   2.868  42.510   5.878
 5898POPC   C1A73899   2.689  41.975   6.192
 5898POPC   D2A73900   2.669  41.854   6.655
 5898POPC   C3A73901   2.471  42.154   6.974
 5898POPC   C4A73902   2.567  42.199   7.434
 5898POPC   C1B73903   2.590  42.513   6.243
 5898POPC   C2B73904   2.517  42.603   6.707
 5898POPC   C3B73905   2.532  42.645   7.194
 5898POPC   C4B73906   2.334  42.592   7.669
 5899POPC   NC373907   1.668  31.538   5.368
 5899POPC   PO473908   2.352  31.564   5.459
 5899POPC   GL173909   2.026  31.585   5.750
 5899POPC   GL273910   2.232  31.420   5.962
 5899POPC   C1A73911   1.775  31.490   6.146
 5899POPC   D2A73912   1.737  31.319   6.581
 5899POPC   C3A73913   1.680  31.607   6.955
 5899POPC   C4A73914   1.663  31.458   7.406
 5899POPC   C1B73915   2.202  31.206   6.318
 5899POPC   C2B73916   2.236  31.328   6.709
 5899POPC   C3B73917   2.053  31.283   7.107
 5899POPC   C4B73918   2.159  31.575   7.469
 5900POPC   NC373919  43.621  21.646   5.234
 5900POPC   PO473920  42.995  21.657   5.257
 5900POPC   GL173921  42.976  21.333   5.631
 5900POPC   GL273922  43.225  21.511   5.805
 5900POPC   C1A73923  43.087  21.125   6.091
 5900POPC   D2A73924  43.200  21.431   6.429
 5900POPC   C3A73925  43.069  21.387   6.858
 5900POPC   C4A73926  43.329  21.187   7.194
 5900POPC   C1B73927  42.817  21.546   6.085
 5900POPC   C2B73928  42.792  21.740   6.516
 5900POPC   C3B73929  42.900  21.915   6.901
 5900POPC   C4B73930  42.640  21.866   7.239
 5901POPC   NC373931   3.945  41.892   5.130
 5901POPC   PO473932   3.384  41.440   5.286
 5901POPC   GL173933   3.482  41.580   5.719
 5901POPC   GL273934   3.292  41.889   5.804
 5901POPC   C1A73935   3.672  41.415   6.138
 5901POPC   D2A73936   3.478  41.259   6.530
 5901POPC   C3A73937   3.546  41.415   6.929
 5901POPC   C4A73938   3.572  41.638   7.335
 5901POPC   C1B73939   3.572  41.939   6.157
 5901POPC   C2B73940   3.680  41.762   6.533
 5901POPC   C3B73941   3.844  41.819   6.907
 5901POPC   C4B73942   3.948  41.946   7.282
 5902POPC   NC373943  28.523  27.300   5.374
 5902POPC   PO473944  28.294  27.971   5.286
 5902POPC   GL173945  28.351  27.686   5.672
 5902POPC   GL273946  28.133  27.380   5.726
 5902POPC   C1A73947  28.562  27.441   6.057
 5902POPC   D2A73948  28.714  27.525   6.505
 5902POPC   C3A73949  28.436  27.815   6.750
 5902POPC   C4A73950  28.141  28.029   7.085
 5902POPC   C1B73951  28.062  27.274   6.166
 5902POPC   C2B73952  28.145  27.438   6.589
 5902POPC   C3B73953  28.156  27.501   7.040
 5902POPC   C4B73954  28.216  27.355   7.492
 5903POPC   NC373955  13.003   1.723   5.378
 5903POPC   PO473956  12.627   2.315   5.409
 5903POPC   GL173957  12.800   2.271   5.864
 5903POPC   GL273958  13.116   2.053   5.846
 5903POPC   C1A73959  12.979   2.249   6.315
 5903POPC   D2A73960  13.311   2.064   6.587
 5903POPC   C3A73961  13.144   2.039   7.002
 5903POPC   C4A73962  12.752   2.185   7.209
 5903POPC   C1B73963  13.047   1.773   6.207
 5903POPC   C2B73964  12.846   1.787   6.620
 5903POPC   C3B73965  12.890   1.609   7.036
 5903POPC   C4B73966  12.923   1.730   7.449
 5904POPC   NC373967   1.712  16.805   5.384
 5904POPC   PO473968   1.224  16.325   5.359
 5904POPC   GL173969   1.227  16.716   5.673
 5904POPC   GL273970   1.167  16.541   5.990
 5904POPC   C1A73971   1.251  17.042   6.064
 5904POPC   D2A73972   1.425  16.918   6.493
 5904POPC   C3A73973   1.351  17.106   6.922
 5904POPC   C4A73974   1.163  17.036   7.328
 5904POPC   C1B73975   0.985  16.401   6.386
 5904POPC   C2B73976   1.090  16.599   6.758
 5904POPC   C3B73977   1.465  16.584   6.945
 5904POPC   C4B73978   1.380  16.275   7.222
 5905POPC   NC373979  12.361  21.090   5.147
 5905POPC   PO473980  11.908  20.615   5.468
 5905POPC   GL173981  12.041  20.641   5.886
 5905POPC   GL273982  11.695  20.772   5.949
 5905POPC   C1A73983  12.044  20.926   6.289
 5905POPC   D2A73984  12.076  20.807   6.705
 5905POPC   C3A73985  11.980  20.991   7.107
 5905POPC   C4A73986  12.215  20.756   7.381
 5905POPC   C1B73987  11.767  20.484   6.279
 5905POPC   C2B73988  11.865  20.330   6.646
 5905POPC   C3B73989  11.805  20.510   7.040
 5905POPC   C4B73990  11.813  20.472   7.483
 5906POPC   NC373991  39.545  27.593   5.478
 5906POPC   PO473992  40.052  27.945   5.293
 5906POPC   GL173993  39.975  27.748   5.720
 5906POPC   GL273994  39.863  27.390   5.811
 5906POPC   C1A73995  40.204  27.620   6.099
 5906POPC   D2A73996  39.978  27.487   6.454
 5906POPC   C3A73997  40.163  27.560   6.816
 5906POPC   C4A73998  40.052  27.557   7.221
 5906POPC   C1B73999  39.682  27.151   6.160
 5906POPC   C2B74000  39.544  27.190   6.552
 5906POPC   C3B74001  39.756  27.207   6.902
 5906POPC   C4B74002  39.616  27.276   7.255
 5907POPC   NC374003  11.946  24.471   5.421
 5907POPC   PO474004  12.402  24.021   5.166
 5907POPC   GL174005  12.354  24.162   5.666
 5907POPC   GL274006  12.393  24.535   5.723
 5907POPC   C1A74007  12.385  24.205   6.150
 5907POPC   D2A74008  12.417  24.532   6.531
 5907POPC   C3A74009  12.242  24.506   6.983
 5907POPC   C4A74010  11.860  24.347   7.238
 5907POPC   C1B74011  12.136  24.666   6.098
 5907POPC   C2B74012  11.959  24.769   6.541
 5907POPC   C3B74013  11.779  24.831   6.988
 5907POPC   C4B74014  11.679  24.784   7.456
 5908POPC   NC374015   8.206  11.719   5.503
 5908POPC   PO474016   7.962  12.356   5.294
 5908POPC   GL174017   8.185  12.279   5.728
 5908POPC   GL274018   8.515  12.403   5.916
 5908POPC   C1A74019   8.116  12.081   6.154
 5908POPC   D2A74020   8.316  11.783   6.484
 5908POPC   C3A74021   8.084  11.667   6.877
 5908POPC   C4A74022   8.017  12.018   7.171
 5908POPC   C1B74023   8.425  12.403   6.403
 5908POPC   C2B74024   8.560  12.165   6.769
 5908POPC   C3B74025   8.546  12.089   7.203
 5908POPC   C4B74026   8.619  12.373   7.589
 5909POPC   NC374027  33.297   7.601   5.140
 5909POPC   PO474028  32.851   7.293   5.415
 5909POPC   GL174029  33.180   7.368   5.764
 5909POPC   GL274030  33.365   7.676   5.751
 5909POPC   C1A74031  33.350   7.394   6.208
 5909POPC   D2A74032  33.126   7.442   6.554
 5909POPC   C3A74033  33.052   7.199   6.870
 5909POPC   C4A74034  32.857   7.127   7.214
 5909POPC   C1B74035  33.042   7.788   6.097
 5909POPC   C2B74036  33.021   7.939   6.529
 5909POPC   C3B74037  33.184   7.783   6.915
 5909POPC   C4B74038  33.125   7.530   7.260
 5910POPC   NC374039  10.930  16.358   5.062
 5910POPC   PO474040  10.537  15.976   5.519
 5910POPC   GL174041  10.418  15.772   5.838
 5910POPC   GL274042  10.673  15.987   6.007
 5910POPC   C1A74043  10.254  15.794   6.236
 5910POPC   D2A74044  10.322  15.970   6.613
 5910POPC   C3A74045  10.220  15.766   6.937
 5910POPC   C4A74046  10.188  15.562   7.308
 5910POPC   C1B74047  10.766  15.809   6.392
 5910POPC   C2B74048  10.792  15.843   6.836
 5910POPC   C3B74049  10.627  15.829   7.239
 5910POPC   C4B74050  10.809  15.760   7.616
 5911POPC   NC374051  36.136  27.276   5.751
 5911POPC   PO474052  36.201  26.730   5.396
 5911POPC   GL174053  36.218  26.586   5.814
 5911POPC   GL274054  36.520  26.745   5.903
 5911POPC   C1A74055  35.980  26.735   6.201
 5911POPC   D2A74056  35.921  26.913   6.644
 5911POPC   C3A74057  35.879  26.703   7.092
 5911POPC   C4A74058  35.786  26.498   7.553
 5911POPC   C1B74059  36.521  27.031   6.264
 5911POPC   C2B74060  36.363  27.203   6.651
 5911POPC   C3B74061  36.156  27.185   7.054
 5911POPC   C4B74062  36.388  27.128   7.432
 5912POPC   NC374063  22.568   7.968   4.957
 5912POPC   PO474064  22.396   8.402   5.455
 5912POPC   GL174065  22.238   8.112   5.750
 5912POPC   GL274066  21.891   8.106   5.733
 5912POPC   C1A74067  22.183   8.221   6.201
 5912POPC   D2A74068  22.123   8.155   6.628
 5912POPC   C3A74069  22.415   8.157   6.946
 5912POPC   C4A74070  22.064   8.198   7.195
 5912POPC   C1B74071  21.894   7.800   6.072
 5912POPC   C2B74072  21.956   7.648   6.509
 5912POPC   C3B74073  21.847   7.793   6.934
 5912POPC   C4B74074  21.789   7.736   7.405
 5913POPC   NC374075  26.252   5.827   5.365
 5913POPC   PO474076  25.705   5.491   5.013
 5913POPC   GL174077  25.695   5.509   5.559
 5913POPC   GL274078  25.828   5.841   5.692
 5913POPC   C1A74079  25.778   5.503   6.069
 5913POPC   D2A74080  26.031   5.582   6.482
 5913POPC   C3A74081  25.903   5.676   6.949
 5913POPC   C4A74082  26.016   5.581   7.413
 5913POPC   C1B74083  26.051   5.992   6.081
 5913POPC   C2B74084  26.226   6.060   6.515
 5913POPC   C3B74085  26.102   6.255   6.875
 5913POPC   C4B74086  26.073   6.315   7.289
 5914POPC   NC374087  32.367   5.364   5.706
 5914POPC   PO474088  31.980   4.737   5.494
 5914POPC   GL174089  32.130   4.891   5.852
 5914POPC   GL274090  32.470   4.854   5.933
 5914POPC   C1A74091  32.002   4.882   6.272
 5914POPC   D2A74092  32.109   5.204   6.562
 5914POPC   C3A74093  32.318   5.108   6.924
 5914POPC   C4A74094  32.193   5.041   7.363
 5914POPC   C1B74095  32.513   4.886   6.368
 5914POPC   C2B74096  32.624   4.685   6.743
 5914POPC   C3B74097  32.680   4.841   7.131
 5914POPC   C4B74098  32.634   5.275   7.300
 5915POPC   NC374099  17.261  25.666   5.119
 5915POPC   PO474100  17.225  25.077   5.467
 5915POPC   GL174101  17.552  25.248   5.738
 5915POPC   GL274102  17.744  25.540   5.611
 5915POPC   C1A74103  17.635  25.243   6.178
 5915POPC   D2A74104  17.836  25.114   6.578
 5915POPC   C3A74105  17.672  25.324   6.929
 5915POPC   C4A74106  17.677  25.095   7.297
 5915POPC   C1B74107  17.852  25.666   6.032
 5915POPC   C2B74108  17.719  25.649   6.479
 5915POPC   C3B74109  17.614  25.836   6.867
 5915POPC   C4B74110  17.445  25.702   7.238
 5916POPC   NC374111  23.251   4.132   5.429
 5916POPC   PO474112  22.609   3.867   5.408
 5916POPC   GL174113  22.607   4.174   5.783
 5916POPC   GL274114  22.601   4.568   5.705
 5916POPC   C1A74115  22.666   4.104   6.236
 5916POPC   D2A74116  22.930   3.959   6.585
 5916POPC   C3A74117  22.829   4.111   7.016
 5916POPC   C4A74118  22.813   4.104   7.478
 5916POPC   C1B74119  22.808   4.621   6.117
 5916POPC   C2B74120  23.113   4.399   6.388
 5916POPC   C3B74121  23.240   4.390   6.825
 5916POPC   C4B74122  23.161   4.411   7.277
 5917POPC   NC374123   0.290  12.017   5.444
 5917POPC   PO474124   0.955  12.118   5.326
 5917POPC   GL174125   0.758  11.997   5.768
 5917POPC   GL274126   0.470  12.216   5.864
 5917POPC   C1A74127   0.523  11.814   6.171
 5917POPC   D2A74128   0.162  11.751   6.500
 5917POPC   C3A74129   0.221  11.899   6.952
 5917POPC   C4A74130   0.648  11.956   7.122
 5917POPC   C1B74131   0.247  12.228   6.258
 5917POPC   C2B74132   0.442  12.192   6.617
 5917POPC   C3B74133   0.659  12.421   6.887
 5917POPC   C4B74134   0.826  12.425   7.289
 5918POPC   NC374135  15.484  11.795   5.527
 5918POPC   PO474136  14.962  12.223   5.433
 5918POPC   GL174137  15.188  12.125   5.798
 5918POPC   GL274138  15.531  12.252   5.787
 5918POPC   C1A74139  15.193  11.951   6.208
 5918POPC   D2A74140  14.918  11.972   6.573
 5918POPC   C3A74141  15.091  11.876   6.977
 5918POPC   C4A74142  15.561  11.942   6.963
 5918POPC   C1B74143  15.372  12.492   6.121
 5918POPC   C2B74144  15.291  12.365   6.528
 5918POPC   C3B74145  15.172  12.372   6.926
 5918POPC   C4B74146  15.339  12.239   7.303
 5919POPC   NC374147  35.189  12.252   5.525
 5919POPC   PO474148  34.853  11.602   5.532
 5919POPC   GL174149  35.099  11.740   5.923
 5919POPC   GL274150  35.119  12.112   6.045
 5919POPC   C1A74151  35.137  11.743   6.401
 5919POPC   D2A74152  34.912  11.905   6.762
 5919POPC   C3A74153  35.197  12.050   7.093
 5919POPC   C4A74154  35.481  11.724   7.300
 5919POPC   C1B74155  35.135  12.268   6.451
 5919POPC   C2B74156  35.485  12.220   6.701
 5919POPC   C3B74157  35.701  12.107   7.059
 5919POPC   C4B74158  35.573  12.199   7.492
 5920POPC   NC374159  42.556  21.593   5.442
 5920POPC   PO474160  42.235  22.183   5.274
 5920POPC   GL174161  42.177  22.154   5.802
 5920POPC   GL274162  42.434  22.350   5.950
 5920POPC   C1A74163  42.139  22.107   6.291
 5920POPC   D2A74164  42.278  21.894   6.718
 5920POPC   C3A74165  42.148  22.182   7.012
 5920POPC   C4A74166  42.102  22.621   7.181
 5920POPC   C1B74167  42.671  22.183   6.266
 5920POPC   C2B74168  42.619  22.259   6.656
 5920POPC   C3B74169  42.775  22.413   6.997
 5920POPC   C4B74170  42.537  22.363   7.266
 5921POPC   NC374171   0.067   1.041   5.505
 5921POPC   PO474172  44.720   1.487   5.142
 5921POPC   GL174173  44.809   1.467   5.650
 5921POPC   GL274174  44.686   1.142   5.823
 5921POPC   C1A74175  44.712   1.486   6.156
 5921POPC   D2A74176  44.923   1.188   6.439
 5921POPC   C3A74177  44.894   1.214   6.861
 5921POPC   C4A74178  44.602   1.463   7.080
 5921POPC   C1B74179  44.612   0.860   6.173
 5921POPC   C2B74180  44.733   0.706   6.567
 5921POPC   C3B74181  44.574   0.812   6.946
 5921POPC   C4B74182  44.578   0.606   7.316
 5922POPC   NC374183  14.576  20.572   5.355
 5922POPC   PO474184  13.924  20.845   5.455
 5922POPC   GL174185  14.178  20.647   5.803
 5922POPC   GL274186  14.532  20.782   5.820
 5922POPC   C1A74187  14.389  20.461   6.193
 5922POPC   D2A74188  14.607  20.660   6.518
 5922POPC   C3A74189  14.352  20.751   6.884
 5922POPC   C4A74190  14.332  20.479   7.233
 5922POPC   C1B74191  14.878  20.974   6.061
 5922POPC   C2B74192  15.031  20.958   6.477
 5922POPC   C3B74193  14.857  20.942   6.891
 5922POPC   C4B74194  14.623  20.984   7.256
 5923POPC   NC374195  20.265  38.537   5.435
 5923POPC   PO474196  20.764  38.747   5.100
 5923POPC   GL174197  20.754  38.579   5.702
 5923POPC   GL274198  20.680  38.278   5.791
 5923POPC   C1A74199  20.668  38.584   6.183
 5923POPC   D2A74200  20.558  38.414   6.607
 5923POPC   C3A74201  20.652  38.592   7.033
 5923POPC   C4A74202  20.388  38.586   7.424
 5923POPC   C1B74203  20.744  38.061   6.213
 5923POPC   C2B74204  20.577  37.888   6.582
 5923POPC   C3B74205  20.765  38.056   6.932
 5923POPC   C4B74206  20.662  38.167   7.330
 5924POPC   NC374207  40.576  23.600   5.243
 5924POPC   PO474208  41.186  23.544   5.518
 5924POPC   GL174209  40.897  23.678   5.866
 5924POPC   GL274210  40.519  23.639   5.797
 5924POPC   C1A74211  40.868  23.548   6.303
 5924POPC   D2A74212  41.010  23.687   6.702
 5924POPC   C3A74213  40.852  23.566   7.107
 5924POPC   C4A74214  40.871  23.813   7.463
 5924POPC   C1B74215  40.437  23.826   6.223
 5924POPC   C2B74216  40.502  23.806   6.694
 5924POPC   C3B74217  40.315  23.664   7.091
 5924POPC   C4B74218  40.398  23.687   7.584
 5925POPC   NC374219   0.839  11.264   5.374
 5925POPC   PO474220   1.396  11.153   5.192
 5925POPC   GL174221   1.217  11.111   5.693
 5925POPC   GL274222   1.023  11.434   5.810
 5925POPC   C1A74223   1.371  11.172   6.181
 5925POPC   D2A74224   1.619  11.271   6.580
 5925POPC   C3A74225   1.463  11.215   7.025
 5925POPC   C4A74226   1.510  10.961   7.446
 5925POPC   C1B74227   0.992  11.568   6.238
 5925POPC   C2B74228   1.183  11.561   6.635
 5925POPC   C3B74229   1.089  11.636   7.053
 5925POPC   C4B74230   0.885  11.630   7.441
 5926POPC   NC374231  41.308  41.694   5.233
 5926POPC   PO474232  41.847  41.369   5.335
 5926POPC   GL174233  41.587  41.449   5.660
 5926POPC   GL274234  41.581  41.808   5.661
 5926POPC   C1A74235  41.668  41.378   6.100
 5926POPC   D2A74236  41.828  41.548   6.500
 5926POPC   C3A74237  41.634  41.350   6.880
 5926POPC   C4A74238  41.703  41.345   7.336
 5926POPC   C1B74239  41.733  41.916   6.066
 5926POPC   C2B74240  41.618  42.054   6.474
 5926POPC   C3B74241  41.534  41.842   6.812
 5926POPC   C4B74242  41.531  41.842   7.228
 5927POPC   NC374243  43.559  33.089   5.432
 5927POPC   PO474244  44.166  32.838   5.383
 5927POPC   GL174245  44.075  33.023   5.841
 5927POPC   GL274246  43.864  33.342   5.838
 5927POPC   C1A74247  43.857  33.081   6.281
 5927POPC   D2A74248  43.681  33.229   6.699
 5927POPC   C3A74249  43.819  33.076   7.109
 5927POPC   C4A74250  43.954  32.821   7.475
 5927POPC   C1B74251  44.125  33.537   6.162
 5927POPC   C2B74252  44.230  33.421   6.599
 5927POPC   C3B74253  44.023  33.514   6.997
 5927POPC   C4B74254  43.716  33.632   7.314
 5928POPC   NC374255  34.110   8.672   5.498
 5928POPC   PO474256  33.388   8.665   5.459
 5928POPC   GL174257  33.534   8.990   5.809
 5928POPC   GL274258  33.924   9.009   5.842
 5928POPC   C1A74259  33.650   8.940   6.263
 5928POPC   D2A74260  33.568   8.609   6.528
 5928POPC   C3A74261  33.382   8.704   6.907
 5928POPC   C4A74262  33.632   8.858   7.259
 5928POPC   C1B74263  34.176   8.936   6.213
 5928POPC   C2B74264  34.113   8.738   6.639
 5928POPC   C3B74265  34.211   8.792   7.096
 5928POPC   C4B74266  34.231   9.205   7.321
 5929POPC   NC374267  43.252  40.957   5.442
 5929POPC   PO474268  42.657  40.784   5.330
 5929POPC   GL174269  42.791  40.885   5.762
 5929POPC   GL274270  43.079  40.642   5.802
 5929POPC   C1A74271  42.990  40.920   6.202
 5929POPC   D2A74272  43.110  40.654   6.543
 5929POPC   C3A74273  42.972  40.872   6.905
 5929POPC   C4A74274  43.028  40.682   7.290
 5929POPC   C1B74275  43.443  40.703   6.089
 5929POPC   C2B74276  43.623  40.714   6.505
 5929POPC   C3B74277  43.461  40.688   6.960
 5929POPC   C4B74278  43.484  40.497   7.384
 5930POPC   NC374279  19.976  43.860   5.524
 5930POPC   PO474280  20.630  43.778   5.309
 5930POPC   GL174281  20.575  43.862   5.738
 5930POPC   GL274282  20.854  43.715   5.937
 5930POPC   C1A74283  20.439  43.903   6.173
 5930POPC   D2A74284  20.725  43.753   6.512
 5930POPC   C3A74285  20.649  43.979   6.895
 5930POPC   C4A74286  20.446  43.947   7.284
 5930POPC   C1B74287  20.882  44.140   6.145
 5930POPC   C2B74288  20.817  44.360   6.529
 5930POPC   C3B74289  21.021  44.326   6.935
 5930POPC   C4B74290  20.746  44.359   7.269
 5931POPC   NC374291  16.573  21.335   5.330
 5931POPC   PO474292  17.206  21.399   5.525
 5931POPC   GL174293  16.887  21.255   5.779
 5931POPC   GL274294  16.597  21.469   5.836
 5931POPC   C1A74295  16.888  21.274   6.219
 5931POPC   D2A74296  17.026  21.064   6.548
 5931POPC   C3A74297  17.014  21.397   6.844
 5931POPC   C4A74298  16.721  21.300   7.154
 5931POPC   C1B74299  16.371  21.271   6.199
 5931POPC   C2B74300  16.501  21.272   6.621
 5931POPC   C3B74301  16.574  21.635   6.815
 5931POPC   C4B74302  16.467  21.755   7.190
 5932POPC   NC374303   2.560  40.778   5.470
 5932POPC   PO474304   1.910  40.866   5.393
 5932POPC   GL174305   2.117  40.724   5.768
 5932POPC   GL274306   2.296  41.032   5.833
 5932POPC   C1A74307   2.033  40.615   6.219
 5932POPC   D2A74308   1.841  40.595   6.638
 5932POPC   C3A74309   1.961  40.604   7.065
 5932POPC   C4A74310   1.819  40.587   7.505
 5932POPC   C1B74311   2.132  41.152   6.194
 5932POPC   C2B74312   1.977  41.078   6.575
 5932POPC   C3B74313   2.202  41.044   6.927
 5932POPC   C4B74314   2.063  41.063   7.307
 5933POPC   NC374315   7.693  18.388   5.607
 5933POPC   PO474316   7.250  18.034   5.224
 5933POPC   GL174317   7.164  18.162   5.688
 5933POPC   GL274318   7.200  18.503   5.826
 5933POPC   C1A74319   7.367  18.057   6.111
 5933POPC   D2A74320   7.641  18.149   6.519
 5933POPC   C3A74321   7.517  18.080   6.972
 5933POPC   C4A74322   7.766  18.303   7.312
 5933POPC   C1B74323   7.453  18.549   6.200
 5933POPC   C2B74324   7.432  18.658   6.606
 5933POPC   C3B74325   7.382  18.562   7.034
 5933POPC   C4B74326   7.057  18.709   7.266
 5934POPC   NC374327  15.164   0.854   5.468
 5934POPC   PO474328  15.458   0.165   5.486
 5934POPC   GL174329  15.216   0.419   5.798
 5934POPC   GL274330  15.364   0.741   5.910
 5934POPC   C1A74331  15.048   0.255   6.180
 5934POPC   D2A74332  15.147   0.081   6.575
 5934POPC   C3A74333  15.022   0.198   6.965
 5934POPC   C4A74334  15.049   0.350   7.369
 5934POPC   C1B74335  15.017   0.750   6.185
 5934POPC   C2B74336  14.983   0.587   6.604
 5934POPC   C3B74337  15.186   0.684   6.990
 5934POPC   C4B74338  14.975   0.898   7.283
 5935POPC   NC374339   4.955  26.186   5.370
 5935POPC   PO474340   5.495  25.852   5.352
 5935POPC   GL174341   5.334  26.044   5.725
 5935POPC   GL274342   5.025  25.858   5.749
 5935POPC   C1A74343   5.256  26.201   6.178
 5935POPC   D2A74344   5.048  26.388   6.559
 5935POPC   C3A74345   5.017  26.112   6.926
 5935POPC   C4A74346   4.666  26.108   7.229
 5935POPC   C1B74347   5.252  25.699   6.084
 5935POPC   C2B74348   5.169  25.740   6.518
 5935POPC   C3B74349   5.043  25.578   6.909
 5935POPC   C4B74350   5.006  25.749   7.294
 5936POPC   NC374351   1.504   3.643   5.095
 5936POPC   PO474352   1.120   3.751   5.599
 5936POPC   GL174353   1.063   3.664   5.930
 5936POPC   GL274354   1.006   3.319   5.830
 5936POPC   C1A74355   1.168   3.714   6.325
 5936POPC   D2A74356   1.381   3.535   6.611
 5936POPC   C3A74357   1.262   3.780   6.932
 5936POPC   C4A74358   1.238   3.662   7.350
 5936POPC   C1B74359   1.282   3.242   6.167
 5936POPC   C2B74360   1.028   3.160   6.515
 5936POPC   C3B74361   1.015   3.335   6.911
 5936POPC   C4B74362   0.943   3.185   7.283
 5937POPC   NC374363  25.998  19.532   5.406
 5937POPC   PO474364  25.719  18.883   5.441
 5937POPC   GL174365  25.975  19.074   5.731
 5937POPC   GL274366  26.328  18.956   5.661
 5937POPC   C1A74367  25.856  19.024   6.155
 5937POPC   D2A74368  25.692  18.798   6.511
 5937POPC   C3A74369  25.730  19.005   6.925
 5937POPC   C4A74370  25.985  19.129   7.267
 5937POPC   C1B74371  26.366  19.132   6.104
 5937POPC   C2B74372  26.201  19.029   6.534
 5937POPC   C3B74373  26.369  19.045   6.942
 5937POPC   C4B74374  26.408  19.384   7.255
 5938POPC   NC374375  40.976  15.014   5.614
 5938POPC   PO474376  41.493  15.368   5.444
 5938POPC   GL174377  41.576  15.135   5.794
 5938POPC   GL274378  41.305  15.224   5.974
 5938POPC   C1A74379  41.799  15.183   6.182
 5938POPC   D2A74380  42.010  15.195   6.570
 5938POPC   C3A74381  41.809  15.032   6.935
 5938POPC   C4A74382  41.750  15.183   7.336
 5938POPC   C1B74383  41.357  14.892   6.304
 5938POPC   C2B74384  41.320  14.867   6.776
 5938POPC   C3B74385  41.136  14.950   7.204
 5938POPC   C4B74386  41.268  15.245   7.550
 5939POPC   NC374387  38.594  19.020   5.418
 5939POPC   PO474388  38.100  19.484   5.516
 5939POPC   GL174389  38.339  19.242   5.840
 5939POPC   GL274390  38.472  18.881   5.885
 5939POPC   C1A74391  38.630  19.242   6.199
 5939POPC   D2A74392  38.650  18.987   6.573
 5939POPC   C3A74393  38.348  19.104   6.898
 5939POPC   C4A74394  38.456  19.179   7.307
 5939POPC   C1B74395  38.196  18.799   6.239
 5939POPC   C2B74396  38.229  18.657   6.667
 5939POPC   C3B74397  38.344  18.627   7.132
 5939POPC   C4B74398  38.152  18.803   7.491
 5940POPC   NC374399  44.206  33.363   5.464
 5940POPC   PO474400  44.644  33.807   5.188
 5940POPC   GL174401  44.692  34.040   5.561
 5940POPC   GL274402  44.709  33.675   5.708
 5940POPC   C1A74403  44.716  34.053   6.035
 5940POPC   D2A74404  44.535  33.805   6.370
 5940POPC   C3A74405  44.671  33.875   6.789
 5940POPC   C4A74406  44.745  34.096   7.167
 5940POPC   C1B74407   0.006  33.582   6.035
 5940POPC   C2B74408   0.036  33.594   6.476
 5940POPC   C3B74409   0.135  33.657   6.904
 5940POPC   C4B74410  44.838  33.577   7.214
 5941POPC   NC374411  14.826   3.955   5.340
 5941POPC   PO474412  14.417   3.426   5.404
 5941POPC   GL174413  14.369   3.529   5.803
 5941POPC   GL274414  14.395   3.881   5.829
 5941POPC   C1A74415  14.419   3.405   6.220
 5941POPC   D2A74416  14.281   3.664   6.560
 5941POPC   C3A74417  14.303   3.464   6.945
 5941POPC   C4A74418  14.230   3.732   7.287
 5941POPC   C1B74419  14.652   3.854   6.232
 5941POPC   C2B74420  14.688   3.986   6.663
 5941POPC   C3B74421  14.715   3.761   7.066
 5941POPC   C4B74422  14.714   3.847   7.525
 5942POPC   NC374423  44.046   9.423   5.412
 5942POPC   PO474424  44.225  10.003   5.475
 5942POPC   GL174425  43.975   9.787   5.772
 5942POPC   GL274426  43.633   9.681   5.654
 5942POPC   C1A74427  44.032   9.620   6.166
 5942POPC   D2A74428  44.179   9.497   6.562
 5942POPC   C3A74429  44.030   9.727   6.882
 5942POPC   C4A74430  44.220   9.748   7.243
 5942POPC   C1B74431  43.513   9.676   6.090
 5942POPC   C2B74432  43.661   9.669   6.521
 5942POPC   C3B74433  43.562   9.488   6.909
 5942POPC   C4B74434  43.590   9.631   7.318
 5943POPC   NC374435  36.032   7.466   5.091
 5943POPC   PO474436  36.169   6.837   5.345
 5943POPC   GL174437  36.100   7.261   5.588
 5943POPC   GL274438  36.418   7.401   5.704
 5943POPC   C1A74439  35.982   7.556   5.974
 5943POPC   D2A74440  36.210   7.593   6.358
 5943POPC   C3A74441  36.085   7.544   6.790
 5943POPC   C4A74442  36.354   7.506   7.194
 5943POPC   C1B74443  36.283   7.156   6.075
 5943POPC   C2B74444  36.072   7.088   6.479
 5943POPC   C3B74445  36.199   7.050   6.900
 5943POPC   C4B74446  36.131   7.049   7.309
 5944POPC   NC374447  37.632  18.748   5.398
 5944POPC   PO474448  37.420  18.151   5.189
 5944POPC   GL174449  37.673  18.269   5.604
 5944POPC   GL274450  37.476  18.438   5.821
 5944POPC   C1A74451  37.928  18.383   6.033
 5944POPC   D2A74452  37.821  18.242   6.472
 5944POPC   C3A74453  38.039  18.245   6.889
 5944POPC   C4A74454  37.962  18.313   7.340
 5944POPC   C1B74455  37.344  18.415   6.253
 5944POPC   C2B74456  37.308  18.400   6.694
 5944POPC   C3B74457  37.505  18.364   7.088
 5944POPC   C4B74458  37.468  18.328   7.529
 5945POPC   NC374459   0.966  19.089   5.710
 5945POPC   PO474460   1.546  19.021   5.462
 5945POPC   GL174461   1.380  18.848   5.876
 5945POPC   GL274462   1.106  18.585   5.803
 5945POPC   C1A74463   1.239  18.926   6.334
 5945POPC   D2A74464   1.469  18.993   6.734
 5945POPC   C3A74465   1.327  19.328   6.980
 5945POPC   C4A74466   1.059  19.359   7.310
 5945POPC   C1B74467   0.841  18.601   6.173
 5945POPC   C2B74468   0.833  18.688   6.603
 5945POPC   C3B74469   1.101  18.671   6.938
 5945POPC   C4B74470   1.031  18.850   7.315
 5946POPC   NC374471  43.240   8.358   5.258
 5946POPC   PO474472  43.303   7.732   5.394
 5946POPC   GL174473  43.320   7.901   5.822
 5946POPC   GL274474  43.352   8.242   5.763
 5946POPC   C1A74475  43.220   8.048   6.270
 5946POPC   D2A74476  43.283   8.206   6.709
 5946POPC   C3A74477  43.124   8.031   7.093
 5946POPC   C4A74478  42.859   8.344   7.306
 5946POPC   C1B74479  43.456   8.511   6.120
 5946POPC   C2B74480  43.598   8.594   6.537
 5946POPC   C3B74481  43.363   8.675   6.925
 5946POPC   C4B74482  43.361   8.455   7.269
 5947POPC   NC374483   2.987  32.692   5.666
 5947POPC   PO474484   2.542  32.198   5.609
 5947POPC   GL174485   2.758  32.302   5.961
 5947POPC   GL274486   2.577  32.146   6.252
 5947POPC   C1A74487   2.949  32.487   6.328
 5947POPC   D2A74488   3.216  32.452   6.699
 5947POPC   C3A74489   2.923  32.455   7.049
 5947POPC   C4A74490   2.512  32.607   7.184
 5947POPC   C1B74491   2.987  31.975   6.301
 5947POPC   C2B74492   3.154  31.747   6.647
 5947POPC   C3B74493   3.011  31.864   7.054
 5947POPC   C4B74494   2.582  32.075   7.174
 5948POPC   NC374495  43.524  39.118   5.443
 5948POPC   PO474496  42.838  39.073   5.411
 5948POPC   GL174497  42.894  39.225   5.815
 5948POPC   GL274498  43.225  39.367   5.790
 5948POPC   C1A74499  42.980  39.337   6.230
 5948POPC   D2A74500  43.175  39.118   6.570
 5948POPC   C3A74501  43.053  39.311   6.912
 5948POPC   C4A74502  42.916  39.095   7.244
 5948POPC   C1B74503  43.421  39.100   6.133
 5948POPC   C2B74504  43.675  39.107   6.519
 5948POPC   C3B74505  43.536  39.145   6.936
 5948POPC   C4B74506  43.403  39.034   7.341
 5949POPC   NC374507  29.099  22.675   5.450
 5949POPC   PO474508  29.360  23.335   5.461
 5949POPC   GL174509  29.189  23.078   5.771
 5949POPC   GL274510  28.831  23.053   5.735
 5949POPC   C1A74511  29.176  22.882   6.170
 5949POPC   D2A74512  29.371  22.903   6.599
 5949POPC   C3A74513  29.147  22.750   6.972
 5949POPC   C4A74514  29.272  22.778   7.412
 5949POPC   C1B74515  28.770  23.210   6.169
 5949POPC   C2B74516  28.870  23.050   6.607
 5949POPC   C3B74517  28.934  23.202   7.059
 5949POPC   C4B74518  28.902  23.200   7.523
 5950POPC   NC374519  32.862   1.966   5.489
 5950POPC   PO474520  33.230   2.473   5.482
 5950POPC   GL174521  33.225   2.231   5.855
 5950POPC   GL274522  33.095   1.873   5.933
 5950POPC   C1A74523  33.042   2.267   6.248
 5950POPC   D2A74524  33.049   2.004   6.593
 5950POPC   C3A74525  33.197   2.156   6.987
 5950POPC   C4A74526  33.248   1.854   7.264
 5950POPC   C1B74527  32.716   1.836   6.204
 5950POPC   C2B74528  32.557   1.960   6.624
 5950POPC   C3B74529  32.722   1.979   7.035
 5950POPC   C4B74530  32.764   1.614   7.273
 5951POPC   NC374531  10.794  20.586   5.132
 5951POPC   PO474532  10.231  20.811   5.474
 5951POPC   GL174533  10.399  20.534   5.800
 5951POPC   GL274534  10.710  20.340   5.727
 5951POPC   C1A74535  10.587  20.658   6.195
 5951POPC   D2A74536  10.610  20.573   6.637
 5951POPC   C3A74537  10.711  20.778   7.011
 5951POPC   C4A74538  10.609  20.492   7.394
 5951POPC   C1B74539  10.958  20.296   6.129
 5951POPC   C2B74540  10.919  20.159   6.578
 5951POPC   C3B74541  10.897  20.295   7.032
 5951POPC   C4B74542  11.069  20.633   7.331
 5952POPC   NC374543  29.092   0.951   5.424
 5952POPC   PO474544  29.208   1.507   5.103
 5952POPC   GL174545  29.144   1.470   5.599
 5952POPC   GL274546  28.828   1.264   5.752
 5952POPC   C1A74547  29.133   1.483   6.085
 5952POPC   D2A74548  29.020   1.270   6.480
 5952POPC   C3A74549  29.270   1.260   6.859
 5952POPC   C4A74550  29.208   1.140   7.272
 5952POPC   C1B74551  28.722   0.999   6.150
 5952POPC   C2B74552  28.752   0.827   6.575
 5952POPC   C3B74553  28.929   0.850   6.966
 5952POPC   C4B74554  28.754   0.894   7.359
 5953POPC   NC374555  34.076  37.996   5.670
 5953POPC   PO474556  33.924  37.447   5.255
 5953POPC   GL174557  33.767  37.564   5.712
 5953POPC   GL274558  34.089  37.490   5.831
 5953POPC   C1A74559  33.592  37.781   6.156
 5953POPC   D2A74560  33.614  38.010   6.606
 5953POPC   C3A74561  33.549  37.807   7.026
 5953POPC   C4A74562  33.692  37.410   7.261
 5953POPC   C1B74563  34.064  37.628   6.252
 5953POPC   C2B74564  34.270  37.514   6.608
 5953POPC   C3B74565  34.136  37.380   6.972
 5953POPC   C4B74566  34.297  37.351   7.311
 5954POPC   NC374567  41.890  11.230   5.581
 5954POPC   PO474568  41.322  11.456   5.238
 5954POPC   GL174569  41.382  11.298   5.667
 5954POPC   GL274570  41.575  11.564   5.796
 5954POPC   C1A74571  41.439  11.215   6.149
 5954POPC   D2A74572  41.488  11.054   6.591
 5954POPC   C3A74573  41.472  11.280   6.991
 5954POPC   C4A74574  41.105  11.495   7.057
 5954POPC   C1B74575  41.721  11.653   6.193
 5954POPC   C2B74576  41.474  11.613   6.560
 5954POPC   C3B74577  41.500  11.818   6.932
 5954POPC   C4B74578  41.834  11.674   7.184
 5955POPC   NC374579  14.612   5.600   5.560
 5955POPC   PO474580  14.237   4.973   5.409
 5955POPC   GL174581  14.398   5.189   5.760
 5955POPC   GL274582  14.125   5.461   5.763
 5955POPC   C1A74583  14.508   5.072   6.214
 5955POPC   D2A74584  14.369   4.692   6.484
 5955POPC   C3A74585  14.462   4.691   6.927
 5955POPC   C4A74586  14.637   5.059   7.085
 5955POPC   C1B74587  14.009   5.114   6.044
 5955POPC   C2B74588  13.952   5.052   6.485
 5955POPC   C3B74589  14.068   5.206   6.884
 5955POPC   C4B74590  14.137   4.959   7.215
 5956POPC   NC374591  35.857  40.931   5.700
 5956POPC   PO474592  36.336  40.767   5.265
 5956POPC   GL174593  36.289  40.655   5.739
 5956POPC   GL274594  35.998  40.430   5.805
 5956POPC   C1A74595  36.267  40.769   6.214
 5956POPC   D2A74596  36.155  40.735   6.673
 5956POPC   C3A74597  36.211  41.001   7.062
 5956POPC   C4A74598  36.384  40.881   7.477
 5956POPC   C1B74599  35.968  40.347   6.249
 5956POPC   C2B74600  35.780  40.374   6.638
 5956POPC   C3B74601  35.825  40.565   7.028
 5956POPC   C4B74602  36.232  40.503   7.172
 5957POPC   NC374603  17.373  31.691   5.293
 5957POPC   PO474604  17.603  31.089   5.370
 5957POPC   GL174605  17.379  31.376   5.706
 5957POPC   GL274606  17.477  31.768   5.795
 5957POPC   C1A74607  17.471  31.376   6.143
 5957POPC   D2A74608  17.717  31.493   6.472
 5957POPC   C3A74609  17.571  31.478   6.874
 5957POPC   C4A74610  17.661  31.477   7.298
 5957POPC   C1B74611  17.189  31.811   6.161
 5957POPC   C2B74612  17.180  31.551   6.538
 5957POPC   C3B74613  17.067  31.663   6.947
 5957POPC   C4B74614  17.156  31.616   7.367
 5958POPC   NC374615  42.057  24.441   5.277
 5958POPC   PO474616  42.628  24.666   5.524
 5958POPC   GL174617  42.389  24.419   5.800
 5958POPC   GL274618  42.011  24.383   5.775
 5958POPC   C1A74619  42.320  24.581   6.212
 5958POPC   D2A74620  42.586  24.652   6.579
 5958POPC   C3A74621  42.363  24.630   6.942
 5958POPC   C4A74622  42.492  24.522   7.343
 5958POPC   C1B74623  42.026  24.143   6.159
 5958POPC   C2B74624  42.107  24.293   6.591
 5958POPC   C3B74625  41.943  24.100   6.954
 5958POPC   C4B74626  42.059  24.229   7.346
 5959POPC   NC374627  25.399   3.232   5.432
 5959POPC   PO474628  24.937   2.753   5.236
 5959POPC   GL174629  25.175   2.790   5.618
 5959POPC   GL274630  25.528   2.795   5.666
 5959POPC   C1A74631  25.113   2.730   6.062
 5959POPC   D2A74632  25.091   2.855   6.513
 5959POPC   C3A74633  25.251   2.638   6.862
 5959POPC   C4A74634  25.529   2.611   7.188
 5959POPC   C1B74635  25.541   3.004   6.074
 5959POPC   C2B74636  25.636   2.906   6.520
 5959POPC   C3B74637  25.538   3.086   6.922
 5959POPC   C4B74638  25.643   3.062   7.378
 5960POPC   NC374639  24.583  16.315   5.515
 5960POPC   PO474640  24.147  15.835   5.442
 5960POPC   GL174641  24.205  16.089   5.811
 5960POPC   GL274642  24.552  15.982   5.917
 5960POPC   C1A74643  24.275  16.346   6.190
 5960POPC   D2A74644  24.428  16.178   6.592
 5960POPC   C3A74645  24.223  15.851   6.814
 5960POPC   C4A74646  24.162  15.889   7.245
 5960POPC   C1B74647  24.794  16.235   6.239
 5960POPC   C2B74648  24.916  16.303   6.698
 5960POPC   C3B74649  24.773  16.185   7.150
 5960POPC   C4B74650  24.832  16.222   7.626
 5961POPC   NC374651  37.134   5.226   5.455
 5961POPC   PO474652  36.714   4.642   5.531
 5961POPC   GL174653  36.764   5.036   5.766
 5961POPC   GL274654  36.489   5.270   5.714
 5961POPC   C1A74655  36.986   5.219   6.155
 5961POPC   D2A74656  37.026   5.540   6.519
 5961POPC   C3A74657  36.977   5.312   6.894
 5961POPC   C4A74658  37.143   5.020   7.205
 5961POPC   C1B74659  36.451   5.172   6.147
 5961POPC   C2B74660  36.547   5.363   6.524
 5961POPC   C3B74661  36.458   5.291   6.903
 5961POPC   C4B74662  36.630   5.066   7.216
 5962POPC   NC374663  27.107  41.175   5.475
 5962POPC   PO474664  26.376  41.449   5.387
 5962POPC   GL174665  26.664  41.423   5.768
 5962POPC   GL274666  26.811  41.750   5.880
 5962POPC   C1A74667  26.660  41.203   6.182
 5962POPC   D2A74668  26.604  41.151   6.639
 5962POPC   C3A74669  26.953  41.304   6.948
 5962POPC   C4A74670  27.155  41.675   7.131
 5962POPC   C1B74671  26.565  41.708   6.265
 5962POPC   C2B74672  26.746  41.694   6.678
 5962POPC   C3B74673  26.638  41.679   7.094
 5962POPC   C4B74674  26.472  41.883   7.423
 5963POPC   NC374675  14.688  21.565   5.317
 5963POPC   PO474676  15.351  21.553   5.289
 5963POPC   GL174677  15.405  21.403   5.721
 5963POPC   GL274678  15.070  21.364   5.774
 5963POPC   C1A74679  15.374  21.214   6.149
 5963POPC   D2A74680  15.484  21.462   6.514
 5963POPC   C3A74681  15.582  21.325   6.946
 5963POPC   C4A74682  15.514  21.541   7.358
 5963POPC   C1B74683  14.922  21.454   6.235
 5963POPC   C2B74684  15.008  21.427   6.716
 5963POPC   C3B74685  15.087  21.327   7.148
 5963POPC   C4B74686  14.982  21.174   7.567
 5964POPC   NC374687  24.473  29.776   5.382
 5964POPC   PO474688  24.607  30.382   5.624
 5964POPC   GL174689  24.711  30.097   5.919
 5964POPC   GL274690  24.777  29.778   5.818
 5964POPC   C1A74691  24.540  29.962   6.300
 5964POPC   D2A74692  24.278  29.905   6.642
 5964POPC   C3A74693  24.538  30.007   6.994
 5964POPC   C4A74694  24.466  30.150   7.438
 5964POPC   C1B74695  24.946  29.656   6.222
 5964POPC   C2B74696  24.763  29.622   6.649
 5964POPC   C3B74697  24.794  29.428   7.056
 5964POPC   C4B74698  24.697  29.696   7.422
 5965POPC   NC374699   1.453   8.922   5.271
 5965POPC   PO474700   0.943   9.221   5.617
 5965POPC   GL174701   1.138   8.977   5.884
 5965POPC   GL274702   1.456   8.874   5.800
 5965POPC   C1A74703   1.243   8.847   6.276
 5965POPC   D2A74704   1.000   8.866   6.603
 5965POPC   C3A74705   1.217   8.888   6.932
 5965POPC   C4A74706   1.104   8.720   7.277
 5965POPC   C1B74707   1.629   9.139   6.151
 5965POPC   C2B74708   1.620   9.154   6.572
 5965POPC   C3B74709   1.586   9.311   6.964
 5965POPC   C4B74710   1.428   9.121   7.326
 5966POPC   NC374711  44.559  12.694   5.393
 5966POPC   PO474712   0.184  12.665   5.195
 5966POPC   GL174713  44.924  12.440   5.616
 5966POPC   GL274714  44.787  12.798   5.820
 5966POPC   C1A74715  44.783  12.402   6.118
 5966POPC   D2A74716  44.746  12.686   6.504
 5966POPC   C3A74717  44.546  12.595   6.894
 5966POPC   C4A74718  44.685  12.617   7.322
 5966POPC   C1B74719  44.918  13.066   6.190
 5966POPC   C2B74720  44.930  13.183   6.611
 5966POPC   C3B74721  44.793  13.023   6.995
 5966POPC   C4B74722  44.598  13.122   7.412
 5967POPC   NC374723  15.461   1.804   5.374
 5967POPC   PO474724  15.006   2.241   5.148
 5967POPC   GL174725  15.059   2.106   5.638
 5967POPC   GL274726  15.404   2.062   5.818
 5967POPC   C1A74727  14.977   2.082   6.123
 5967POPC   D2A74728  15.193   2.057   6.530
 5967POPC   C3A74729  15.005   1.907   6.893
 5967POPC   C4A74730  14.826   1.949   7.293
 5967POPC   C1B74731  15.303   1.711   6.137
 5967POPC   C2B74732  15.249   1.526   6.530
 5967POPC   C3B74733  15.423   1.603   6.929
 5967POPC   C4B74734  15.377   1.897   7.277
 5968POPC   NC374735  16.365  27.768   5.557
 5968POPC   PO474736  15.726  27.757   5.477
 5968POPC   GL174737  15.941  27.537   5.812
 5968POPC   GL274738  16.173  27.734   6.027
 5968POPC   C1A74739  16.016  27.265   6.190
 5968POPC   D2A74740  15.868  27.186   6.624
 5968POPC   C3A74741  15.940  27.531   6.944
 5968POPC   C4A74742  16.293  27.832   7.143
 5968POPC   C1B74743  15.792  27.946   6.166
 5968POPC   C2B74744  15.451  27.935   6.454
 5968POPC   C3B74745  15.450  27.881   6.892
 5968POPC   C4B74746  15.784  27.973   7.211
 5969POPC   NC374747  25.323  18.818   5.221
 5969POPC   PO474748  24.797  19.215   5.244
 5969POPC   GL174749  25.112  19.073   5.611
 5969POPC   GL274750  25.425  19.292   5.619
 5969POPC   C1A74751  25.344  18.969   6.026
 5969POPC   D2A74752  25.215  19.009   6.469
 5969POPC   C3A74753  25.273  18.776   6.836
 5969POPC   C4A74754  25.170  19.026   7.158
 5969POPC   C1B74755  25.563  19.465   6.024
 5969POPC   C2B74756  25.633  19.368   6.476
 5969POPC   C3B74757  25.501  19.474   6.894
 5969POPC   C4B74758  25.548  19.381   7.308
 5970POPC   NC374759  39.039  26.492   5.472
 5970POPC   PO474760  39.310  27.189   5.356
 5970POPC   GL174761  39.350  27.243   5.804
 5970POPC   GL274762  39.137  26.950   5.890
 5970POPC   C1A74763  39.168  27.341   6.222
 5970POPC   D2A74764  38.904  27.107   6.492
 5970POPC   C3A74765  39.145  27.007   6.844
 5970POPC   C4A74766  39.104  27.015   7.290
 5970POPC   C1B74767  39.307  26.803   6.306
 5970POPC   C2B74768  39.217  26.521   6.659
 5970POPC   C3B74769  38.929  26.569   7.005
 5970POPC   C4B74770  38.945  26.482   7.443
 5971POPC   NC374771  22.675   2.449   5.454
 5971POPC   PO474772  23.108   3.004   5.492
 5971POPC   GL174773  22.791   2.823   5.763
 5971POPC   GL274774  22.564   3.107   5.763
 5971POPC   C1A74775  22.840   2.546   6.148
 5971POPC   D2A74776  23.157   2.541   6.479
 5971POPC   C3A74777  22.969   2.591   6.887
 5971POPC   C4A74778  23.091   2.404   7.273
 5971POPC   C1B74779  22.851   3.096   6.170
 5971POPC   C2B74780  23.065   3.043   6.581
 5971POPC   C3B74781  22.894   3.113   6.988
 5971POPC   C4B74782  22.909   2.867   7.358
 5972POPC   NC374783  41.018  42.584   5.584
 5972POPC   PO474784  40.429  42.254   5.471
 5972POPC   GL174785  40.689  42.296   5.835
 5972POPC   GL274786  40.985  42.129   5.851
 5972POPC   C1A74787  40.887  42.486   6.238
 5972POPC   D2A74788  40.862  42.725   6.617
 5972POPC   C3A74789  40.937  42.465   6.931
 5972POPC   C4A74790  40.639  42.195   7.139
 5972POPC   C1B74791  40.868  41.973   6.226
 5972POPC   C2B74792  41.100  42.085   6.586
 5972POPC   C3B74793  41.092  41.996   7.013
 5972POPC   C4B74794  41.082  41.974   7.457
 5973POPC   NC374795  34.433  25.525   5.327
 5973POPC   PO474796  35.013  25.730   5.283
 5973POPC   GL174797  34.806  25.458   5.680
 5973POPC   GL274798  34.649  25.102   5.704
 5973POPC   C1A74799  34.714  25.345   6.164
 5973POPC   D2A74800  34.702  25.219   6.638
 5973POPC   C3A74801  34.433  25.416   7.010
 5973POPC   C4A74802  34.339  25.378   7.489
 5973POPC   C1B74803  34.342  24.976   6.049
 5973POPC   C2B74804  34.299  24.815   6.461
 5973POPC   C3B74805  34.442  24.828   6.868
 5973POPC   C4B74806  34.601  24.988   7.260
 5974POPC   NC374807  20.846   2.581   5.604
 5974POPC   PO474808  21.457   2.713   5.293
 5974POPC   GL174809  21.452   2.645   5.758
 5974POPC   GL274810  21.159   2.549   5.986
 5974POPC   C1A74811  21.504   2.923   6.136
 5974POPC   D2A74812  21.633   3.012   6.551
 5974POPC   C3A74813  21.283   2.939   6.803
 5974POPC   C4A74814  21.297   2.947   7.205
 5974POPC   C1B74815  21.454   2.386   6.234
 5974POPC   C2B74816  21.619   2.452   6.614
 5974POPC   C3B74817  21.651   2.587   7.014
 5974POPC   C4B74818  21.522   2.428   7.407
 5975POPC   NC374819  18.800  44.192   5.579
 5975POPC   PO474820  18.811  43.577   5.336
 5975POPC   GL174821  19.026  43.710   5.766
 5975POPC   GL274822  19.028  44.045   5.991
 5975POPC   C1A74823  19.021  43.605   6.217
 5975POPC   D2A74824  18.949  43.905   6.543
 5975POPC   C3A74825  19.093  43.703   6.901
 5975POPC   C4A74826  19.012  43.642   7.326
 5975POPC   C1B74827  18.695  44.303   6.212
 5975POPC   C2B74828  18.658  44.377   6.651
 5975POPC   C3B74829  18.854  44.163   7.009
 5975POPC   C4B74830  18.921  44.119   7.443
 5976POPC   NC374831  15.367  29.696   5.324
 5976POPC   PO474832  15.033  30.233   5.134
 5976POPC   GL174833  15.297  30.188   5.571
 5976POPC   GL274834  15.193  29.879   5.751
 5976POPC   C1A74835  15.339  30.221   6.082
 5976POPC   D2A74836  15.206  30.001   6.487
 5976POPC   C3A74837  15.230  30.172   6.915
 5976POPC   C4A74838  15.217  29.980   7.325
 5976POPC   C1B74839  15.340  29.684   6.111
 5976POPC   C2B74840  15.553  29.622   6.520
 5976POPC   C3B74841  15.358  29.675   6.898
 5976POPC   C4B74842  15.472  29.485   7.221
 5977POPC   NC374843  30.897  15.815   5.381
 5977POPC   PO474844  30.380  16.236   5.521
 5977POPC   GL174845  30.530  15.950   5.846
 5977POPC   GL274846  30.788  15.692   5.861
 5977POPC   C1A74847  30.799  16.096   6.206
 5977POPC   D2A74848  30.822  16.251   6.649
 5977POPC   C3A74849  30.563  16.019   6.917
 5977POPC   C4A74850  30.327  16.113   7.251
 5977POPC   C1B74851  31.098  15.675   6.145
 5977POPC   C2B74852  31.087  15.551   6.568
 5977POPC   C3B74853  30.886  15.613   6.954
 5977POPC   C4B74854  30.994  15.943   7.206
 5978POPC   NC374855  14.595  34.740   5.393
 5978POPC   PO474856  14.120  34.194   5.436
 5978POPC   GL174857  14.412  34.339   5.767
 5978POPC   GL274858  14.314  34.697   5.835
 5978POPC   C1A74859  14.486  34.411   6.220
 5978POPC   D2A74860  14.373  34.643   6.579
 5978POPC   C3A74861  14.561  34.413   6.902
 5978POPC   C4A74862  14.527  34.394   7.300
 5978POPC   C1B74863  14.625  34.897   6.124
 5978POPC   C2B74864  14.765  34.979   6.575
 5978POPC   C3B74865  14.624  34.916   7.020
 5978POPC   C4B74866  14.626  34.864   7.483
 5979POPC   NC374867  37.192  14.137   5.443
 5979POPC   PO474868  36.761  14.639   5.473
 5979POPC   GL174869  36.974  14.425   5.840
 5979POPC   GL274870  37.290  14.207   5.922
 5979POPC   C1A74871  37.130  14.559   6.250
 5979POPC   D2A74872  37.065  14.521   6.696
 5979POPC   C3A74873  36.645  14.365   6.788
 5979POPC   C4A74874  36.473  14.389   7.204
 5979POPC   C1B74875  37.039  14.043   6.258
 5979POPC   C2B74876  37.066  13.995   6.715
 5979POPC   C3B74877  36.990  14.213   7.132
 5979POPC   C4B74878  36.779  14.085   7.523
 5980POPC   NC374879  13.493  10.393   5.443
 5980POPC   PO474880  14.057  10.771   5.392
 5980POPC   GL174881  13.833  10.745   5.777
 5980POPC   GL274882  13.863  10.399   5.787
 5980POPC   C1A74883  13.881  10.857   6.234
 5980POPC   D2A74884  13.951  10.966   6.696
 5980POPC   C3A74885  13.593  10.852   7.003
 5980POPC   C4A74886  13.301  10.656   7.279
 5980POPC   C1B74887  13.543  10.402   6.116
 5980POPC   C2B74888  13.514  10.589   6.512
 5980POPC   C3B74889  13.525  10.385   6.878
 5980POPC   C4B74890  13.759  10.364   7.223
 5981POPC   NC374891  42.110  30.186   5.084
 5981POPC   PO474892  42.240  29.745   5.603
 5981POPC   GL174893  42.339  29.841   5.981
 5981POPC   GL274894  42.386  30.172   5.943
 5981POPC   C1A74895  42.247  29.742   6.387
 5981POPC   D2A74896  42.072  29.976   6.694
 5981POPC   C3A74897  41.938  29.787   7.041
 5981POPC   C4A74898  42.069  29.797   7.444
 5981POPC   C1B74899  42.659  30.393   6.189
 5981POPC   C2B74900  42.770  30.283   6.575
 5981POPC   C3B74901  42.561  30.066   6.897
 5981POPC   C4B74902  42.423  30.159   7.305
 5982POPC   NC374903  41.759   3.769   5.440
 5982POPC   PO474904  41.180   3.288   5.377
 5982POPC   GL174905  41.429   3.389   5.742
 5982POPC   GL274906  41.376   3.755   5.775
 5982POPC   C1A74907  41.408   3.312   6.198
 5982POPC   D2A74908  41.457   3.530   6.597
 5982POPC   C3A74909  41.493   3.297   6.978
 5982POPC   C4A74910  41.644   3.612   7.230
 5982POPC   C1B74911  41.357   3.896   6.204
 5982POPC   C2B74912  41.481   4.132   6.579
 5982POPC   C3B74913  41.351   3.995   6.990
 5982POPC   C4B74914  41.158   3.628   7.143
 5983POPC   NC374915   4.746  40.329   5.391
 5983POPC   PO474916   5.052  39.757   5.478
 5983POPC   GL174917   5.102  40.091   5.776
 5983POPC   GL274918   5.355  40.366   5.774
 5983POPC   C1A74919   5.193  40.002   6.201
 5983POPC   D2A74920   5.260  39.665   6.498
 5983POPC   C3A74921   5.167  39.860   6.871
 5983POPC   C4A74922   4.950  40.124   7.154
 5983POPC   C1B74923   5.593  40.319   6.173
 5983POPC   C2B74924   5.592  40.092   6.562
 5983POPC   C3B74925   5.628  40.202   6.981
 5983POPC   C4B74926   5.391  40.321   7.322
 5984POPC   NC374927  12.319  44.544   5.458
 5984POPC   PO474928  11.707  44.931   5.393
 5984POPC   GL174929  11.886  44.939   5.821
 5984POPC   GL274930  12.064  44.632   5.896
 5984POPC   C1A74931  12.000  44.958   6.281
 5984POPC   D2A74932  12.005  44.585   6.568
 5984POPC   C3A74933  12.327  44.501   6.834
 5984POPC   C4A74934  12.254  44.671   7.220
 5984POPC   C1B74935  11.719  44.454   6.154
 5984POPC   C2B74936  11.664  44.185   6.504
 5984POPC   C3B74937  11.637  44.326   6.918
 5984POPC   C4B74938  11.897  44.297   7.265
 5985POPC   NC374939   8.283  12.703   5.343
 5985POPC   PO474940   7.859  13.304   5.453
 5985POPC   GL174941   8.042  13.044   5.799
 5985POPC   GL274942   8.379  12.895   5.800
 5985POPC   C1A74943   8.255  13.082   6.249
 5985POPC   D2A74944   8.470  13.359   6.528
 5985POPC   C3A74945   8.348  13.245   6.944
 5985POPC   C4A74946   7.997  13.026   7.126
 5985POPC   C1B74947   8.101  12.632   6.090
 5985POPC   C2B74948   8.007  12.698   6.545
 5985POPC   C3B74949   8.129  12.511   6.947
 5985POPC   C4B74950   8.529  12.571   7.119
 5986POPC   NC374951  24.744  33.928   5.398
 5986POPC   PO474952  24.320  34.417   5.227
 5986POPC   GL174953  24.362  34.209   5.652
 5986POPC   GL274954  24.233  33.878   5.665
 5986POPC   C1A74955  24.507  34.228   6.110
 5986POPC   D2A74956  24.353  34.099   6.522
 5986POPC   C3A74957  24.534  33.966   6.908
 5986POPC   C4A74958  24.250  33.768   7.220
 5986POPC   C1B74959  24.233  33.792   6.108
 5986POPC   C2B74960  24.375  33.573   6.483
 5986POPC   C3B74961  24.470  33.450   6.876
 5986POPC   C4B74962  24.794  33.625   7.188
 5987POPC   NC374963  39.489  21.120   5.433
 5987POPC   PO474964  40.096  21.464   5.399
 5987POPC   GL174965  39.940  21.477   5.843
 5987POPC   GL274966  39.710  21.203   5.896
 5987POPC   C1A74967  39.869  21.548   6.295
 5987POPC   D2A74968  39.948  21.351   6.700
 5987POPC   C3A74969  39.833  21.616   7.035
 5987POPC   C4A74970  40.136  21.795   7.301
 5987POPC   C1B74971  39.946  21.053   6.256
 5987POPC   C2B74972  39.886  20.851   6.610
 5987POPC   C3B74973  40.003  20.929   7.006
 5987POPC   C4B74974  39.956  21.197   7.302
 5988POPC   NC374975  34.891  10.221   5.502
 5988POPC   PO474976  34.474  10.693   5.360
 5988POPC   GL174977  34.472  10.439   5.762
 5988POPC   GL274978  34.177  10.218   5.840
 5988POPC   C1A74979  34.708  10.455   6.180
 5988POPC   D2A74980  34.773  10.723   6.552
 5988POPC   C3A74981  34.840  10.617   6.990
 5988POPC   C4A74982  34.618  10.729   7.360
 5988POPC   C1B74983  34.195  10.382   6.239
 5988POPC   C2B74984  34.446  10.319   6.613
 5988POPC   C3B74985  34.335  10.454   7.022
 5988POPC   C4B74986  34.258  10.263   7.421
 5989POPC   NC374987  29.794  23.176   5.432
 5989POPC   PO474988  29.919  22.574   5.431
 5989POPC   GL174989  29.652  22.750   5.754
 5989POPC   GL274990  29.958  22.908   5.852
 5989POPC   C1A74991  29.671  22.702   6.234
 5989POPC   D2A74992  29.863  22.734   6.669
 5989POPC   C3A74993  29.638  22.900   7.041
 5989POPC   C4A74994  29.763  22.964   7.424
 5989POPC   C1B74995  30.176  22.840   6.260
 5989POPC   C2B74996  30.292  23.011   6.669
 5989POPC   C3B74997  30.151  23.039   7.076
 5989POPC   C4B74998  30.208  23.322   7.438
 5990POPC   NC374999  44.382   4.502   5.562
 5990POPC   PO475000   0.031   4.281   5.386
 5990POPC   GL175001  44.830   4.304   5.866
 5990POPC   GL275002  44.477   4.238   5.981
 5990POPC   C1A75003  44.744   4.256   6.389
 5990POPC   D2A75004  44.381   4.114   6.633
 5990POPC   C3A75005  44.460   4.314   7.002
 5990POPC   C4A75006  44.884   4.500   7.054
 5990POPC   C1B75007  44.488   4.662   6.251
 5990POPC   C2B75008  44.343   4.770   6.714
 5990POPC   C3B75009  44.360   4.783   7.213
 5990POPC   C4B75010  44.224   4.810   7.674
 5991POPC   NC375011  24.489   2.632   5.414
 5991POPC   PO475012  24.921   3.289   5.566
 5991POPC   GL175013  24.727   2.934   5.811
 5991POPC   GL275014  24.388   2.860   5.841
 5991POPC   C1A75015  24.652   2.820   6.255
 5991POPC   D2A75016  24.607   3.023   6.626
 5991POPC   C3A75017  24.756   2.767   6.951
 5991POPC   C4A75018  24.919   2.564   7.332
 5991POPC   C1B75019  24.218   3.058   6.188
 5991POPC   C2B75020  24.082   3.076   6.598
 5991POPC   C3B75021  24.292   3.109   7.014
 5991POPC   C4B75022  24.411   2.792   7.326
 5992POPC   NC375023  40.776  30.090   5.145
 5992POPC   PO475024  40.877  30.718   5.419
 5992POPC   GL175025  40.806  30.581   5.830
 5992POPC   GL275026  40.782  30.931   5.914
 5992POPC   C1A75027  40.857  30.351   6.231
 5992POPC   D2A75028  40.881  30.556   6.658
 5992POPC   C3A75029  41.004  30.341   7.053
 5992POPC   C4A75030  40.838  30.337   7.489
 5992POPC   C1B75031  40.572  30.765   6.270
 5992POPC   C2B75032  40.409  30.848   6.672
 5992POPC   C3B75033  40.663  30.862   7.044
 5992POPC   C4B75034  40.591  30.793   7.489
 5993POPC   NC375035  16.411  18.168   5.350
 5993POPC   PO475036  16.907  18.555   5.382
 5993POPC   GL175037  16.826  18.214   5.728
 5993POPC   GL275038  16.554  17.964   5.834
 5993POPC   C1A75039  16.872  18.132   6.190
 5993POPC   D2A75040  16.622  18.289   6.536
 5993POPC   C3A75041  16.740  18.176   6.973
 5993POPC   C4A75042  16.901  18.160   7.389
 5993POPC   C1B75043  16.438  17.847   6.296
 5993POPC   C2B75044  16.360  17.882   6.750
 5993POPC   C3B75045  16.434  17.838   7.196
 5993POPC   C4B75046  16.610  17.794   7.599
 5994POPC   NC375047  20.700  31.864   5.607
 5994POPC   PO475048  20.846  31.169   5.480
 5994POPC   GL175049  20.818  31.429   5.847
 5994POPC   GL275050  20.490  31.446   5.856
 5994POPC   C1A75051  20.779  31.411   6.308
 5994POPC   D2A75052  20.937  31.764   6.566
 5994POPC   C3A75053  20.785  31.803   6.977
 5994POPC   C4A75054  20.776  31.380   7.155
 5994POPC   C1B75055  20.304  31.573   6.203
 5994POPC   C2B75056  20.226  31.359   6.577
 5994POPC   C3B75057  20.320  31.249   6.985
 5994POPC   C4B75058  20.347  31.629   7.237
 5995POPC   NC375059  31.350  30.020   5.307
 5995POPC   PO475060  31.807  29.547   5.590
 5995POPC   GL175061  31.490  29.797   5.801
 5995POPC   GL275062  31.175  29.651   5.753
 5995POPC   C1A75063  31.551  30.144   6.128
 5995POPC   D2A75064  31.414  30.081   6.565
 5995POPC   C3A75065  31.637  30.115   6.956
 5995POPC   C4A75066  31.705  29.746   7.214
 5995POPC   C1B75067  31.251  29.546   6.194
 5995POPC   C2B75068  31.067  29.702   6.587
 5995POPC   C3B75069  31.213  29.794   7.010
 5995POPC   C4B75070  31.276  29.559   7.395
 5996POPC   NC375071  23.060  32.747   5.511
 5996POPC   PO475072  22.754  32.156   5.390
 5996POPC   GL175073  22.972  32.144   5.835
 5996POPC   GL275074  23.195  32.449   5.924
 5996POPC   C1A75075  22.773  32.052   6.295
 5996POPC   D2A75076  22.916  32.079   6.734
 5996POPC   C3A75077  22.738  31.956   7.099
 5996POPC   C4A75078  22.891  31.777   7.470
 5996POPC   C1B75079  22.832  32.549   6.168
 5996POPC   C2B75080  22.751  32.551   6.598
 5996POPC   C3B75081  22.669  32.464   7.022
 5996POPC   C4B75082  23.013  32.389   7.295
 5997POPC   NC375083   7.817  34.008   4.985
 5997POPC   PO475084   7.355  33.803   5.347
 5997POPC   GL175085   7.363  33.659   5.779
 5997POPC   GL275086   7.720  33.601   5.887
 5997POPC   C1A75087   7.354  33.813   6.196
 5997POPC   D2A75088   7.394  33.737   6.621
 5997POPC   C3A75089   7.226  33.952   6.930
 5997POPC   C4A75090   7.399  33.790   7.276
 5997POPC   C1B75091   7.846  33.723   6.316
 5997POPC   C2B75092   7.824  33.964   6.722
 5997POPC   C3B75093   7.906  33.785   7.127
 5997POPC   C4B75094   7.883  33.597   7.546
 5998POPC   NC375095  10.902  27.473   5.389
 5998POPC   PO475096  10.236  27.675   5.460
 5998POPC   GL175097  10.364  27.784   5.863
 5998POPC   GL275098  10.650  27.538   5.864
 5998POPC   C1A75099  10.332  27.623   6.278
 5998POPC   D2A75100  10.588  27.434   6.579
 5998POPC   C3A75101  10.402  27.468   6.976
 5998POPC   C4A75102  10.256  27.547   7.396
 5998POPC   C1B75103  10.819  27.755   6.226
 5998POPC   C2B75104  11.015  27.739   6.640
 5998POPC   C3B75105  10.764  27.836   6.982
 5998POPC   C4B75106  10.673  27.810   7.416
 5999POPC   NC375107   6.813  22.019   5.464
 5999POPC   PO475108   6.562  22.668   5.444
 5999POPC   GL175109   6.447  22.531   5.884
 5999POPC   GL275110   6.482  22.161   5.849
 5999POPC   C1A75111   6.645  22.401   6.272
 5999POPC   D2A75112   6.910  22.089   6.459
 5999POPC   C3A75113   6.794  22.085   6.874
 5999POPC   C4A75114   6.641  22.354   7.194
 5999POPC   C1B75115   6.547  21.858   6.188
 5999POPC   C2B75116   6.380  21.820   6.613
 5999POPC   C3B75117   6.304  21.988   7.020
 5999POPC   C4B75118   6.415  21.979   7.448
 6000POPC   NC375119  11.653  41.413   5.397
 6000POPC   PO475120  11.026  41.139   5.536
 6000POPC   GL175121  11.225  41.393   5.891
 6000POPC   GL275122  11.608  41.426   5.891
 6000POPC   C1A75123  11.349  41.795   6.133
 6000POPC   D2A75124  11.666  41.896   6.454
 6000POPC   C3A75125  11.526  41.937   6.905
 6000POPC   C4A75126  11.512  41.739   7.328
 6000POPC   C1B75127  11.566  41.357   6.308
 6000POPC   C2B75128  11.293  41.517   6.618
 6000POPC   C3B75129  11.518  41.412   6.956
 6000POPC   C4B75130  11.661  41.068   7.177
 6001POPC   NC375131  42.450   2.585   5.468
 6001POPC   PO475132  42.025   3.099   5.338
 6001POPC   GL175133  42.294   3.021   5.714
 6001POPC   GL275134  42.224   2.672   5.918
 6001POPC   C1A75135  42.482   3.043   6.118
 6001POPC   D2A75136  42.303   2.802   6.444
 6001POPC   C3A75137  42.281   3.050   6.765
 6001POPC   C4A75138  42.331   3.104   7.204
 6001POPC   C1B75139  42.649   2.554   6.138
 6001POPC   C2B75140  42.783   2.639   6.572
 6001POPC   C3B75141  42.555   2.681   6.975
 6001POPC   C4B75142  42.352   2.342   7.221
 6002POPC   NC375143  40.928   1.332   5.110
 6002POPC   PO475144  40.494   1.036   5.507
 6002POPC   GL175145  40.792   1.007   5.797
 6002POPC   GL275146  40.974   1.312   5.839
 6002POPC   C1A75147  40.856   0.969   6.231
 6002POPC   D2A75148  40.752   1.178   6.646
 6002POPC   C3A75149  40.797   1.003   7.065
 6002POPC   C4A75150  40.524   0.925   7.395
 6002POPC   C1B75151  40.877   1.499   6.260
 6002POPC   C2B75152  41.010   1.634   6.684
 6002POPC   C3B75153  40.885   1.536   7.105
 6002POPC   C4B75154  41.096   1.337   7.462
 6003POPC   NC375155  32.955  10.872   5.275
 6003POPC   PO475156  32.776  10.170   5.516
 6003POPC   GL175157  32.960  10.263   5.884
 6003POPC   GL275158  33.131  10.567   5.714
 6003POPC   C1A75159  33.017  10.181   6.316
 6003POPC   D2A75160  33.194  10.441   6.622
 6003POPC   C3A75161  32.927  10.668   6.892
 6003POPC   C4A75162  33.023  10.392   7.195
 6003POPC   C1B75163  33.298  10.622   6.132
 6003POPC   C2B75164  33.283  10.926   6.479
 6003POPC   C3B75165  33.372  10.902   6.909
 6003POPC   C4B75166  33.446  10.771   7.294
 6004POPC   NC375167   8.889   5.810   5.128
 6004POPC   PO475168   8.308   5.515   5.202
 6004POPC   GL175169   8.674   5.620   5.553
 6004POPC   GL275170   8.779   5.997   5.626
 6004POPC   C1A75171   9.038   5.658   5.900
 6004POPC   D2A75172   9.069   5.901   6.319
 6004POPC   C3A75173   9.019   5.882   6.807
 6004POPC   C4A75174   9.245   6.031   7.202
 6004POPC   C1B75175   8.590   5.827   6.055
 6004POPC   C2B75176   8.649   5.603   6.491
 6004POPC   C3B75177   8.721   5.487   6.946
 6004POPC   C4B75178   9.071   5.546   7.209
 6005POPC   NC375179  13.864  12.603   5.338
 6005POPC   PO475180  13.441  13.072   5.340
 6005POPC   GL175181  13.575  12.832   5.698
 6005POPC   GL275182  13.793  13.075   5.793
 6005POPC   C1A75183  13.549  12.829   6.165
 6005POPC   D2A75184  13.804  12.851   6.546
 6005POPC   C3A75185  13.498  12.869   6.886
 6005POPC   C4A75186  13.287  12.746   7.254
 6005POPC   C1B75187  13.829  13.261   6.215
 6005POPC   C2B75188  13.703  13.331   6.674
 6005POPC   C3B75189  13.925  13.110   7.035
 6005POPC   C4B75190  13.899  13.069   7.503
 6006POPC   NC375191  24.098  34.654   5.559
 6006POPC   PO475192  23.382  34.688   5.442
 6006POPC   GL175193  23.640  34.585   5.844
 6006POPC   GL275194  23.834  34.244   5.769
 6006POPC   C1A75195  23.745  34.787   6.294
 6006POPC   D2A75196  23.744  34.851   6.780
 6006POPC   C3A75197  23.568  34.534   7.034
 6006POPC   C4A75198  23.502  34.470   7.481
 6006POPC   C1B75199  23.993  34.298   6.203
 6006POPC   C2B75200  24.003  34.428   6.661
 6006POPC   C3B75201  24.151  34.257   7.073
 6006POPC   C4B75202  24.143  34.243   7.608
 6007POPC   NC375203  27.043  31.206   5.422
 6007POPC   PO475204  27.498  31.774   5.441
 6007POPC   GL175205  27.508  31.476   5.795
 6007POPC   GL275206  27.823  31.330   5.856
 6007POPC   C1A75207  27.553  31.598   6.242
 6007POPC   D2A75208  27.621  31.466   6.673
 6007POPC   C3A75209  27.665  31.678   7.092
 6007POPC   C4A75210  27.362  31.583   7.425
 6007POPC   C1B75211  27.734  31.107   6.228
 6007POPC   C2B75212  27.712  30.963   6.667
 6007POPC   C3B75213  27.593  31.137   7.090
 6007POPC   C4B75214  27.861  31.102   7.485
 6008POPC   NC375215   6.975  37.482   5.395
 6008POPC   PO475216   6.322  37.502   5.475
 6008POPC   GL175217   6.626  37.637   5.753
 6008POPC   GL275218   6.813  37.337   5.842
 6008POPC   C1A75219   6.591  37.803   6.152
 6008POPC   D2A75220   6.690  37.716   6.599
 6008POPC   C3A75221   6.616  37.998   6.912
 6008POPC   C4A75222   6.279  38.059   7.174
 6008POPC   C1B75223   6.814  37.343   6.256
 6008POPC   C2B75224   6.723  37.209   6.643
 6008POPC   C3B75225   6.921  37.300   7.010
 6008POPC   C4B75226   7.070  37.726   7.118
 6009POPC   NC375227  10.169  19.440   5.575
 6009POPC   PO475228   9.814  20.027   5.514
 6009POPC   GL175229   9.809  19.956   5.926
 6009POPC   GL275230   9.948  19.654   5.967
 6009POPC   C1A75231   9.954  19.984   6.343
 6009POPC   D2A75232   9.869  20.220   6.679
 6009POPC   C3A75233   9.852  20.038   7.048
 6009POPC   C4A75234   9.865  20.085   7.461
 6009POPC   C1B75235   9.644  19.572   6.283
 6009POPC   C2B75236   9.659  19.725   6.693
 6009POPC   C3B75237   9.771  19.520   7.068
 6009POPC   C4B75238   9.457  19.281   7.262
 6010POPC   NC375239  39.835  40.694   5.540
 6010POPC   PO475240  40.308  41.196   5.325
 6010POPC   GL175241  40.329  40.834   5.702
 6010POPC   GL275242  40.089  40.953   5.927
 6010POPC   C1A75243  40.288  40.552   6.143
 6010POPC   D2A75244  40.278  40.775   6.528
 6010POPC   C3A75245  40.081  40.729   6.938
 6010POPC   C4A75246  40.328  40.533   7.271
 6010POPC   C1B75247  39.843  40.908   6.321
 6010POPC   C2B75248  39.587  40.695   6.665
 6010POPC   C3B75249  39.571  40.761   7.127
 6010POPC   C4B75250  39.844  41.048   7.351
 6011POPC   NC375251   9.259  17.284   5.403
 6011POPC   PO475252   8.766  17.793   5.472
 6011POPC   GL175253   8.935  17.500   5.786
 6011POPC   GL275254   8.640  17.345   5.922
 6011POPC   C1A75255   9.104  17.472   6.244
 6011POPC   D2A75256   8.941  17.294   6.661
 6011POPC   C3A75257   9.186  17.359   7.046
 6011POPC   C4A75258   8.994  17.378   7.451
 6011POPC   C1B75259   8.689  17.753   6.179
 6011POPC   C2B75260   8.829  17.792   6.602
 6011POPC   C3B75261   8.757  17.620   7.013
 6011POPC   C4B75262   8.634  17.796   7.400
 6012POPC   NC375263  31.196  22.365   5.137
 6012POPC   PO475264  31.775  22.020   5.178
 6012POPC   GL175265  31.706  22.010   5.660
 6012POPC   GL275266  31.405  21.801   5.766
 6012POPC   C1A75267  31.523  22.200   6.066
 6012POPC   D2A75268  31.614  22.124   6.516
 6012POPC   C3A75269  31.537  22.222   6.965
 6012POPC   C4A75270  31.651  22.284   7.413
 6012POPC   C1B75271  31.407  21.716   6.194
 6012POPC   C2B75272  31.273  21.750   6.593
 6012POPC   C3B75273  31.320  21.756   7.007
 6012POPC   C4B75274  31.172  22.044   7.300
 6013POPC   NC375275   5.624  11.637   5.483
 6013POPC   PO475276   6.017  12.175   5.331
 6013POPC   GL175277   5.978  12.016   5.759
 6013POPC   GL275278   6.100  11.720   5.672
 6013POPC   C1A75279   5.878  12.042   6.245
 6013POPC   D2A75280   5.691  11.978   6.689
 6013POPC   C3A75281   5.756  12.175   7.103
 6013POPC   C4A75282   5.628  12.462   7.441
 6013POPC   C1B75283   5.898  11.555   6.090
 6013POPC   C2B75284   5.869  11.502   6.563
 6013POPC   C3B75285   5.742  11.570   6.996
 6013POPC   C4B75286   6.024  11.766   7.252
 6014POPC   NC375287  12.029  11.471   5.397
 6014POPC   PO475288  12.721  11.655   5.592
 6014POPC   GL175289  12.376  11.388   5.780
 6014POPC   GL275290  12.483  11.191   6.063
 6014POPC   C1A75291  11.988  11.497   6.058
 6014POPC   D2A75292  11.712  11.535   6.420
 6014POPC   C3A75293  11.772  11.230   6.739
 6014POPC   C4A75294  11.738  11.304   7.176
 6014POPC   C1B75295  12.459  11.631   6.224
 6014POPC   C2B75296  12.157  11.834   6.491
 6014POPC   C3B75297  11.982  11.672   6.884
 6014POPC   C4B75298  12.147  11.631   7.298
 6015POPC   NC375299  16.079  11.442   5.396
 6015POPC   PO475300  16.455  10.881   5.356
 6015POPC   GL175301  16.048  11.023   5.685
 6015POPC   GL275302  16.127  11.324   5.893
 6015POPC   C1A75303  15.819  10.957   6.112
 6015POPC   D2A75304  15.973  11.107   6.528
 6015POPC   C3A75305  15.778  11.329   6.849
 6015POPC   C4A75306  15.804  11.217   7.267
 6015POPC   C1B75307  16.328  11.390   6.281
 6015POPC   C2B75308  16.258  11.529   6.701
 6015POPC   C3B75309  16.209  11.512   7.141
 6015POPC   C4B75310  16.301  11.791   7.444
 6016POPC   NC375311  13.879  39.399   5.399
 6016POPC   PO475312  13.302  39.151   5.499
 6016POPC   GL175313  13.493  39.368   5.787
 6016POPC   GL275314  13.766  39.136   5.828
 6016POPC   C1A75315  13.516  39.452   6.211
 6016POPC   D2A75316  13.545  39.610   6.640
 6016POPC   C3A75317  13.429  39.365   6.993
 6016POPC   C4A75318  13.485  39.449   7.414
 6016POPC   C1B75319  13.904  39.127   6.280
 6016POPC   C2B75320  13.798  39.112   6.736
 6016POPC   C3B75321  13.819  39.082   7.204
 6016POPC   C4B75322  13.927  38.941   7.638
 6017POPC   NC375323  23.382  30.872   5.418
 6017POPC   PO475324  23.901  30.511   5.488
 6017POPC   GL175325  23.845  30.835   5.758
 6017POPC   GL275326  23.535  30.835   5.895
 6017POPC   C1A75327  23.983  30.873   6.179
 6017POPC   D2A75328  23.827  30.689   6.539
 6017POPC   C3A75329  24.007  30.863   6.926
 6017POPC   C4A75330  23.844  30.872   7.350
 6017POPC   C1B75331  23.440  30.495   6.153
 6017POPC   C2B75332  23.371  30.397   6.580
 6017POPC   C3B75333  23.531  30.624   6.949
 6017POPC   C4B75334  23.553  30.444   7.347
 6018POPC   NC375335   2.116  11.686   5.342
 6018POPC   PO475336   1.529  11.494   5.647
 6018POPC   GL175337   1.941  11.384   5.788
 6018POPC   GL275338   2.080  11.038   5.805
 6018POPC   C1A75339   2.076  11.349   6.222
 6018POPC   D2A75340   2.085  11.575   6.586
 6018POPC   C3A75341   1.979  11.422   6.959
 6018POPC   C4A75342   2.296  11.271   7.271
 6018POPC   C1B75343   1.858  10.884   6.204
 6018POPC   C2B75344   2.022  10.974   6.654
 6018POPC   C3B75345   1.908  10.940   7.115
 6018POPC   C4B75346   2.026  10.928   7.606
 6019POPC   NC375347  14.954  30.655   5.302
 6019POPC   PO475348  15.605  30.634   5.436
 6019POPC   GL175349  15.297  30.680   5.796
 6019POPC   GL275350  14.957  30.516   5.791
 6019POPC   C1A75351  15.169  30.685   6.235
 6019POPC   D2A75352  15.124  30.840   6.654
 6019POPC   C3A75353  15.323  30.690   7.012
 6019POPC   C4A75354  15.247  30.817   7.439
 6019POPC   C1B75355  14.819  30.303   6.149
 6019POPC   C2B75356  14.896  30.393   6.559
 6019POPC   C3B75357  14.740  30.334   6.935
 6019POPC   C4B75358  14.949  30.421   7.271
 6020POPC   NC375359  32.539   0.446   5.405
 6020POPC   PO475360  31.930   0.286   5.415
 6020POPC   GL175361  32.147   0.193   5.799
 6020POPC   GL275362  32.330   0.491   5.873
 6020POPC   C1A75363  32.180   0.205   6.263
 6020POPC   D2A75364  32.385   0.479   6.584
 6020POPC   C3A75365  32.273   0.453   7.038
 6020POPC   C4A75366  32.141   0.087   7.261
 6020POPC   C1B75367  32.656   0.181   6.070
 6020POPC   C2B75368  32.810   0.185   6.507
 6020POPC   C3B75369  32.768   0.396   6.912
 6020POPC   C4B75370  32.665   0.181   7.312
 6021POPC   NC375371  23.013   1.032   5.399
 6021POPC   PO475372  22.443   1.227   5.276
 6021POPC   GL175373  22.696   1.350   5.711
 6021POPC   GL275374  23.024   1.210   5.856
 6021POPC   C1A75375  22.710   1.409   6.187
 6021POPC   D2A75376  22.548   1.110   6.499
 6021POPC   C3A75377  22.673   1.170   6.903
 6021POPC   C4A75378  22.837   1.224   7.292
 6021POPC   C1B75379  23.224   1.381   6.203
 6021POPC   C2B75380  23.048   1.259   6.576
 6021POPC   C3B75381  23.184   1.055   6.941
 6021POPC   C4B75382  23.331   1.302   7.268
 6022POPC   NC375383  18.449  24.747   5.398
 6022POPC   PO475384  17.877  24.445   5.635
 6022POPC   GL175385  18.214  24.625   5.871
 6022POPC   GL275386  18.529  24.435   5.895
 6022POPC   C1A75387  18.254  24.771   6.305
 6022POPC   D2A75388  18.328  24.764   6.765
 6022POPC   C3A75389  17.918  24.739   7.004
 6022POPC   C4A75390  17.896  24.639   7.459
 6022POPC   C1B75391  18.211  24.207   6.189
 6022POPC   C2B75392  18.086  24.288   6.649
 6022POPC   C3B75393  18.220  24.348   7.084
 6022POPC   C4B75394  18.503  24.191   7.337
 6023POPC   NC375395   0.249  19.667   5.590
 6023POPC   PO475396   0.447  20.187   5.296
 6023POPC   GL175397   0.280  20.171   5.765
 6023POPC   GL275398   0.530  19.947   5.936
 6023POPC   C1A75399   0.081  19.963   6.173
 6023POPC   D2A75400   0.103  19.686   6.570
 6023POPC   C3A75401   0.197  19.927   6.983
 6023POPC   C4A75402   0.617  19.970   7.199
 6023POPC   C1B75403   0.615  19.553   6.202
 6023POPC   C2B75404   0.689  19.144   6.434
 6023POPC   C3B75405   0.822  19.130   6.884
 6023POPC   C4B75406   0.609  19.467   7.114
 6024POPC   NC375407  30.675  39.442   5.240
 6024POPC   PO475408  30.664  38.823   5.505
 6024POPC   GL175409  30.638  39.193   5.783
 6024POPC   GL275410  30.434  39.471   5.694
 6024POPC   C1A75411  30.657  39.286   6.243
 6024POPC   D2A75412  30.587  39.159   6.687
 6024POPC   C3A75413  30.921  39.247   6.945
 6024POPC   C4A75414  31.006  39.223   7.381
 6024POPC   C1B75415  30.234  39.512   6.074
 6024POPC   C2B75416  30.180  39.432   6.505
 6024POPC   C3B75417  30.380  39.621   6.864
 6024POPC   C4B75418  30.604  39.532   7.223
 6025POPC   NC375419   4.415  22.769   5.619
 6025POPC   PO475420   4.052  23.386   5.568
 6025POPC   GL175421   4.078  23.051   5.915
 6025POPC   GL275422   3.936  22.687   5.855
 6025POPC   C1A75423   4.395  22.965   6.272
 6025POPC   D2A75424   4.590  22.804   6.676
 6025POPC   C3A75425   4.480  23.004   7.082
 6025POPC   C4A75426   4.486  23.022   7.561
 6025POPC   C1B75427   4.174  22.498   6.221
 6025POPC   C2B75428   4.077  22.381   6.642
 6025POPC   C3B75429   4.225  22.563   6.996
 6025POPC   C4B75430   4.079  22.804   7.356
 6026POPC   NC375431  30.356   4.850   5.507
 6026POPC   PO475432  30.107   5.522   5.633
 6026POPC   GL175433  30.062   5.128   5.827
 6026POPC   GL275434  29.727   5.100   5.850
 6026POPC   C1A75435  30.117   4.852   6.189
 6026POPC   D2A75436  30.321   5.032   6.570
 6026POPC   C3A75437  30.263   4.858   6.982
 6026POPC   C4A75438  29.886   4.720   7.190
 6026POPC   C1B75439  29.753   5.232   6.275
 6026POPC   C2B75440  29.679   5.404   6.696
 6026POPC   C3B75441  29.861   5.198   7.027
 6026POPC   C4B75442  30.074   5.161   7.410
 6027POPC   NC375443   4.952  42.966   5.485
 6027POPC   PO475444   5.459  43.418   5.365
 6027POPC   GL175445   5.294  43.250   5.795
 6027POPC   GL275446   5.317  42.866   5.821
 6027POPC   C1A75447   5.027  43.208   6.217
 6027POPC   D2A75448   4.707  43.189   6.580
 6027POPC   C3A75449   4.823  43.387   6.989
 6027POPC   C4A75450   5.216  43.387   7.222
 6027POPC   C1B75451   5.077  42.683   6.170
 6027POPC   C2B75452   4.902  42.715   6.572
 6027POPC   C3B75453   5.093  42.967   6.865
 6027POPC   C4B75454   5.119  42.903   7.277
 6028POPC   NC375455  31.861  29.032   5.254
 6028POPC   PO475456  32.488  29.240   5.428
 6028POPC   GL175457  32.152  29.205   5.757
 6028POPC   GL275458  32.001  28.864   5.729
 6028POPC   C1A75459  32.128  29.380   6.212
 6028POPC   D2A75460  32.186  29.249   6.668
 6028POPC   C3A75461  32.129  29.398   7.124
 6028POPC   C4A75462  32.057  29.567   7.554
 6028POPC   C1B75463  32.109  28.840   6.163
 6028POPC   C2B75464  32.031  28.742   6.592
 6028POPC   C3B75465  31.913  28.931   6.982
 6028POPC   C4B75466  32.096  28.927   7.409
 6029POPC   NC375467  14.411  24.331   5.615
 6029POPC   PO475468  13.950  23.876   5.597
 6029POPC   GL175469  14.162  24.084   5.983
 6029POPC   GL275470  14.550  24.068   6.024
 6029POPC   C1A75471  14.291  24.441   6.275
 6029POPC   D2A75472  14.171  24.526   6.699
 6029POPC   C3A75473  14.352  24.688   7.043
 6029POPC   C4A75474  14.198  24.369   7.279
 6029POPC   C1B75475  14.851  24.187   6.309
 6029POPC   C2B75476  14.709  24.478   6.605
 6029POPC   C3B75477  14.577  24.247   6.927
 6029POPC   C4B75478  14.580  24.059   7.298
 6030POPC   NC375479  17.665  19.294   5.520
 6030POPC   PO475480  17.703  18.631   5.574
 6030POPC   GL175481  17.641  18.888   5.936
 6030POPC   GL275482  17.348  19.155   5.920
 6030POPC   C1A75483  17.745  18.777   6.363
 6030POPC   D2A75484  17.487  18.663   6.702
 6030POPC   C3A75485  17.336  18.984   6.936
 6030POPC   C4A75486  17.597  18.901   7.273
 6030POPC   C1B75487  17.341  19.164   6.389
 6030POPC   C2B75488  17.675  19.267   6.687
 6030POPC   C3B75489  17.650  19.399   7.122
 6030POPC   C4B75490  17.325  19.369   7.492
 6031POPC   NC375491   9.027  14.022   5.410
 6031POPC   PO475492   9.255  14.672   5.475
 6031POPC   GL175493   9.264  14.291   5.771
 6031POPC   GL275494   8.932  14.170   5.890
 6031POPC   C1A75495   9.337  14.072   6.187
 6031POPC   D2A75496   9.098  14.151   6.583
 6031POPC   C3A75497   9.196  14.458   6.906
 6031POPC   C4A75498   9.163  14.336   7.345
 6031POPC   C1B75499   8.663  14.261   6.222
 6031POPC   C2B75500   8.598  14.197   6.669
 6031POPC   C3B75501   8.716  14.315   7.054
 6031POPC   C4B75502   8.689  14.251   7.486
 6032POPC   NC375503  39.274  33.543   5.374
 6032POPC   PO475504  38.931  34.108   5.500
 6032POPC   GL175505  39.084  33.841   5.812
 6032POPC   GL275506  39.355  33.589   5.872
 6032POPC   C1A75507  39.102  33.932   6.219
 6032POPC   D2A75508  39.399  34.078   6.522
 6032POPC   C3A75509  39.218  33.826   6.813
 6032POPC   C4A75510  39.231  33.605   7.191
 6032POPC   C1B75511  39.413  33.545   6.317
 6032POPC   C2B75512  39.399  33.357   6.711
 6032POPC   C3B75513  39.629  33.276   7.045
 6032POPC   C4B75514  39.579  33.337   7.454
 6033POPC   NC375515  29.052  12.727   5.427
 6033POPC   PO475516  29.310  13.171   5.118
 6033POPC   GL175517  29.085  13.205   5.655
 6033POPC   GL275518  29.084  12.861   5.902
 6033POPC   C1A75519  29.193  13.259   6.147
 6033POPC   D2A75520  29.251  12.944   6.490
 6033POPC   C3A75521  29.106  13.018   6.930
 6033POPC   C4A75522  29.022  12.719   7.293
 6033POPC   C1B75523  29.398  12.577   6.126
 6033POPC   C2B75524  29.510  12.480   6.554
 6033POPC   C3B75525  29.424  12.603   6.997
 6033POPC   C4B75526  29.409  12.384   7.394
 6034POPC   NC375527  35.643  24.707   5.463
 6034POPC   PO475528  35.154  24.270   5.441
 6034POPC   GL175529  35.380  24.399   5.806
 6034POPC   GL275530  35.588  24.105   5.822
 6034POPC   C1A75531  35.359  24.668   6.209
 6034POPC   D2A75532  35.634  24.822   6.573
 6034POPC   C3A75533  35.448  24.827   7.001
 6034POPC   C4A75534  35.276  24.776   7.443
 6034POPC   C1B75535  35.525  24.170   6.293
 6034POPC   C2B75536  35.327  24.387   6.672
 6034POPC   C3B75537  35.321  24.343   7.118
 6034POPC   C4B75538  35.587  24.015   7.289
 6035POPC   NC375539   5.546  35.309   5.463
 6035POPC   PO475540   5.960  35.717   5.185
 6035POPC   GL175541   6.000  35.531   5.616
 6035POPC   GL275542   6.068  35.177   5.616
 6035POPC   C1A75543   5.854  35.358   6.036
 6035POPC   D2A75544   6.009  35.495   6.439
 6035POPC   C3A75545   5.870  35.387   6.859
 6035POPC   C4A75546   6.073  35.608   7.251
 6035POPC   C1B75547   6.145  34.951   6.035
 6035POPC   C2B75548   5.979  34.971   6.447
 6035POPC   C3B75549   6.098  34.892   6.830
 6035POPC   C4B75550   6.158  35.116   7.170
 6036POPC   NC375551  42.500   6.543   5.628
 6036POPC   PO475552  41.992   6.848   5.374
 6036POPC   GL175553  42.175   6.942   5.798
 6036POPC   GL275554  42.489   6.894   5.977
 6036POPC   C1A75555  42.071   6.715   6.214
 6036POPC   D2A75556  42.213   6.514   6.625
 6036POPC   C3A75557  41.998   6.478   6.997
 6036POPC   C4A75558  42.131   6.627   7.398
 6036POPC   C1B75559  42.563   6.552   6.273
 6036POPC   C2B75560  42.738   6.436   6.689
 6036POPC   C3B75561  42.575   6.418   7.108
 6036POPC   C4B75562  42.547   6.414   7.559
 6037POPC   NC375563   1.988  20.000   5.342
 6037POPC   PO475564   2.013  20.634   5.515
 6037POPC   GL175565   2.122  20.546   5.891
 6037POPC   GL275566   1.955  20.216   5.889
 6037POPC   C1A75567   2.194  20.687   6.316
 6037POPC   D2A75568   2.228  20.942   6.692
 6037POPC   C3A75569   2.101  20.677   7.057
 6037POPC   C4A75570   1.961  20.562   7.481
 6037POPC   C1B75571   1.691  20.532   6.143
 6037POPC   C2B75572   1.695  20.754   6.523
 6037POPC   C3B75573   1.615  20.612   6.935
 6037POPC   C4B75574   1.725  20.246   7.149
 6038POPC   NC375575  11.859   1.204   5.424
 6038POPC   PO475576  12.291   0.741   5.443
 6038POPC   GL175577  12.208   1.010   5.772
 6038POPC   GL275578  12.524   1.196   5.722
 6038POPC   C1A75579  12.168   1.283   6.139
 6038POPC   D2A75580  11.959   1.341   6.524
 6038POPC   C3A75581  12.061   1.318   6.951
 6038POPC   C4A75582  11.879   1.035   7.222
 6038POPC   C1B75583  12.588   0.967   6.110
 6038POPC   C2B75584  12.393   0.954   6.496
 6038POPC   C3B75585  12.239   0.859   6.865
 6038POPC   C4B75586  12.364   0.901   7.236
 6039POPC   NC375587  22.836  44.133   5.113
 6039POPC   PO475588  22.919  44.757   5.437
 6039POPC   GL175589  22.845  44.641   5.855
 6039POPC   GL275590  22.579  44.813   5.956
 6039POPC   C1A75591  23.032  44.515   6.252
 6039POPC   D2A75592  23.135  44.697   6.648
 6039POPC   C3A75593  23.099  44.572   7.073
 6039POPC   C4A75594  23.158  44.889   7.438
 6039POPC   C1B75595  22.531  44.417   6.210
 6039POPC   C2B75596  22.685  44.406   6.620
 6039POPC   C3B75597  22.551  44.493   7.018
 6039POPC   C4B75598  22.686  44.748   7.326
 6040POPC   NC375599  37.732  43.228   5.356
 6040POPC   PO475600  37.857  42.687   5.766
 6040POPC   GL175601  37.646  43.113   5.838
 6040POPC   GL275602  37.884  43.410   5.831
 6040POPC   C1A75603  37.542  43.398   6.208
 6040POPC   D2A75604  37.688  43.242   6.629
 6040POPC   C3A75605  37.588  43.486   6.979
 6040POPC   C4A75606  37.353  43.450   7.326
 6040POPC   C1B75607  37.970  43.123   6.209
 6040POPC   C2B75608  38.092  42.884   6.570
 6040POPC   C3B75609  37.949  42.913   6.981
 6040POPC   C4B75610  37.785  43.142   7.343
 6041POPC   NC375611  26.176  29.480   5.357
 6041POPC   PO475612  25.868  29.997   5.028
 6041POPC   GL175613  26.088  29.907   5.587
 6041POPC   GL275614  26.324  30.179   5.647
 6041POPC   C1A75615  26.014  29.732   6.058
 6041POPC   D2A75616  26.066  29.555   6.520
 6041POPC   C3A75617  26.140  29.796   6.920
 6041POPC   C4A75618  25.909  29.962   7.292
 6041POPC   C1B75619  26.350  30.118   6.098
 6041POPC   C2B75620  26.393  30.061   6.551
 6041POPC   C3B75621  26.522  30.162   7.002
 6041POPC   C4B75622  26.414  29.927   7.371
 6042POPC   NC375623  19.303  19.332   5.388
 6042POPC   PO475624  18.710  19.569   5.666
 6042POPC   GL175625  18.940  19.220   5.785
 6042POPC   GL275626  18.747  18.918   5.738
 6042POPC   C1A75627  19.093  19.194   6.201
 6042POPC   D2A75628  19.177  19.433   6.585
 6042POPC   C3A75629  19.065  19.202   6.944
 6042POPC   C4A75630  19.086  19.276   7.378
 6042POPC   C1B75631  18.795  18.751   6.157
 6042POPC   C2B75632  18.945  18.838   6.571
 6042POPC   C3B75633  18.899  18.715   6.994
 6042POPC   C4B75634  18.493  18.623   7.121
 6043POPC   NC375635  41.980  33.871   5.598
 6043POPC   PO475636  41.413  33.759   5.274
 6043POPC   GL175637  41.322  33.877   5.731
 6043POPC   GL275638  41.633  33.919   5.961
 6043POPC   C1A75639  41.240  33.685   6.187
 6043POPC   D2A75640  41.488  33.616   6.578
 6043POPC   C3A75641  41.373  33.757   7.007
 6043POPC   C4A75642  41.279  33.594   7.415
 6043POPC   C1B75643  41.781  33.498   6.154
 6043POPC   C2B75644  41.952  33.368   6.580
 6043POPC   C3B75645  41.918  33.686   6.901
 6043POPC   C4B75646  41.793  33.613   7.314
 6044POPC   NC375647  26.645   9.184   5.351
 6044POPC   PO475648  26.688   8.520   5.476
 6044POPC   GL175649  26.655   8.891   5.778
 6044POPC   GL275650  26.836   9.230   5.818
 6044POPC   C1A75651  26.679   8.940   6.233
 6044POPC   D2A75652  26.723   8.633   6.574
 6044POPC   C3A75653  26.688   8.756   7.006
 6044POPC   C4A75654  26.990   8.629   7.309
 6044POPC   C1B75655  27.068   9.281   6.218
 6044POPC   C2B75656  27.028   9.071   6.639
 6044POPC   C3B75657  26.974   9.178   7.091
 6044POPC   C4B75658  27.115   9.424   7.431
 6045POPC   NC375659  13.999  23.446   5.444
 6045POPC   PO475660  14.623  23.915   5.524
 6045POPC   GL175661  14.383  23.660   5.778
 6045POPC   GL275662  14.409  23.361   5.769
 6045POPC   C1A75663  14.312  23.661   6.224
 6045POPC   D2A75664  14.374  23.994   6.535
 6045POPC   C3A75665  14.175  23.946   6.964
 6045POPC   C4A75666  14.093  23.883   7.388
 6045POPC   C1B75667  14.681  23.334   6.119
 6045POPC   C2B75668  14.788  23.568   6.490
 6045POPC   C3B75669  14.657  23.703   6.903
 6045POPC   C4B75670  14.462  23.573   7.282
 6046POPC   NC375671   3.480  26.407   5.411
 6046POPC   PO475672   3.740  25.726   5.338
 6046POPC   GL175673   3.539  25.947   5.696
 6046POPC   GL275674   3.199  26.031   5.669
 6046POPC   C1A75675   3.618  25.924   6.161
 6046POPC   D2A75676   3.851  26.065   6.552
 6046POPC   C3A75677   3.612  25.978   6.901
 6046POPC   C4A75678   3.578  25.886   7.332
 6046POPC   C1B75679   3.140  26.152   6.100
 6046POPC   C2B75680   3.327  26.190   6.504
 6046POPC   C3B75681   3.240  26.323   6.909
 6046POPC   C4B75682   3.367  26.341   7.297
 6047POPC   NC375683  39.512   4.132   5.477
 6047POPC   PO475684  39.045   4.653   5.416
 6047POPC   GL175685  39.168   4.418   5.773
 6047POPC   GL275686  38.802   4.359   5.880
 6047POPC   C1A75687  39.217   4.232   6.197
 6047POPC   D2A75688  38.986   4.334   6.559
 6047POPC   C3A75689  39.055   4.181   6.954
 6047POPC   C4A75690  39.292   3.963   7.237
 6047POPC   C1B75691  38.951   4.688   6.163
 6047POPC   C2B75692  38.823   4.813   6.579
 6047POPC   C3B75693  39.011   4.740   6.971
 6047POPC   C4B75694  38.966   4.500   7.334
 6048POPC   NC375695   3.975  30.568   5.658
 6048POPC   PO475696   4.534  30.424   5.304
 6048POPC   GL175697   4.504  30.733   5.678
 6048POPC   GL275698   4.436  30.479   5.931
 6048POPC   C1A75699   4.598  30.929   6.121
 6048POPC   D2A75700   4.752  30.722   6.513
 6048POPC   C3A75701   4.490  30.661   6.875
 6048POPC   C4A75702   4.389  30.925   7.225
 6048POPC   C1B75703   4.235  30.601   6.336
 6048POPC   C2B75704   3.999  30.474   6.692
 6048POPC   C3B75705   4.031  30.550   7.120
 6048POPC   C4B75706   4.031  30.629   7.560
 6049POPC   NC375707  27.438  25.147   4.996
 6049POPC   PO475708  27.977  25.311   5.424
 6049POPC   GL175709  27.688  25.337   5.711
 6049POPC   GL275710  27.448  25.149   5.643
 6049POPC   C1A75711  27.709  25.285   6.148
 6049POPC   D2A75712  27.665  25.417   6.596
 6049POPC   C3A75713  27.894  25.264   6.979
 6049POPC   C4A75714  28.003  25.286   7.438
 6049POPC   C1B75715  27.230  25.241   6.047
 6049POPC   C2B75716  27.301  25.063   6.484
 6049POPC   C3B75717  27.493  24.939   6.894
 6049POPC   C4B75718  27.497  25.200   7.291
 6050POPC   NC375719  38.261  12.962   5.410
 6050POPC   PO475720  38.941  12.808   5.531
 6050POPC   GL175721  38.572  12.920   5.857
 6050POPC   GL275722  38.215  12.761   5.873
 6050POPC   C1A75723  38.456  12.875   6.338
 6050POPC   D2A75724  38.681  12.618   6.693
 6050POPC   C3A75725  38.680  12.833   7.097
 6050POPC   C4A75726  38.698  13.290   7.207
 6050POPC   C1B75727  37.927  12.961   6.134
 6050POPC   C2B75728  37.936  12.889   6.546
 6050POPC   C3B75729  38.218  12.829   6.866
 6050POPC   C4B75730  38.199  13.159   7.166
 6051POPC   NC375731  10.634  13.822   5.374
 6051POPC   PO475732  10.231  13.272   5.323
 6051POPC   GL175733  10.342  13.504   5.696
 6051POPC   GL275734  10.718  13.587   5.805
 6051POPC   C1A75735  10.397  13.357   6.125
 6051POPC   D2A75736  10.639  13.490   6.498
 6051POPC   C3A75737  10.531  13.353   6.938
 6051POPC   C4A75738  10.439  13.710   7.232
 6051POPC   C1B75739  10.991  13.718   6.138
 6051POPC   C2B75740  10.994  13.914   6.529
 6051POPC   C3B75741  10.795  13.803   6.873
 6051POPC   C4B75742  10.928  13.578   7.239
 6052POPC   NC375743  12.823  29.484   5.599
 6052POPC   PO475744  13.154  28.933   5.398
 6052POPC   GL175745  12.958  28.989   5.788
 6052POPC   GL275746  12.605  29.010   5.763
 6052POPC   C1A75747  12.843  29.178   6.211
 6052POPC   D2A75748  13.048  29.013   6.583
 6052POPC   C3A75749  13.215  29.323   6.846
 6052POPC   C4A75750  13.022  29.278   7.206
 6052POPC   C1B75751  12.686  28.706   6.117
 6052POPC   C2B75752  12.656  28.623   6.560
 6052POPC   C3B75753  12.639  28.887   6.924
 6052POPC   C4B75754  12.518  29.241   7.151
 6053POPC   NC375755   2.694   3.137   5.514
 6053POPC   PO475756   2.921   2.518   5.425
 6053POPC   GL175757   2.694   2.688   5.793
 6053POPC   GL275758   2.346   2.893   5.802
 6053POPC   C1A75759   2.622   2.533   6.201
 6053POPC   D2A75760   2.684   2.231   6.535
 6053POPC   C3A75761   2.677   2.503   6.897
 6053POPC   C4A75762   2.768   2.680   7.260
 6053POPC   C1B75763   2.598   3.064   6.154
 6053POPC   C2B75764   2.693   2.909   6.555
 6053POPC   C3B75765   2.714   3.088   6.953
 6053POPC   C4B75766   2.469   3.112   7.315
 6054POPC   NC375767  21.090   1.658   5.484
 6054POPC   PO475768  21.740   1.936   5.325
 6054POPC   GL175769  21.526   1.857   5.701
 6054POPC   GL275770  21.263   2.131   5.675
 6054POPC   C1A75771  21.577   1.906   6.140
 6054POPC   D2A75772  21.359   1.893   6.522
 6054POPC   C3A75773  21.581   2.005   6.889
 6054POPC   C4A75774  21.491   1.883   7.299
 6054POPC   C1B75775  21.080   2.018   6.083
 6054POPC   C2B75776  20.956   2.205   6.468
 6054POPC   C3B75777  21.068   2.106   6.891
 6054POPC   C4B75778  21.151   2.480   7.080
 6055POPC   NC375779  41.775  44.150   5.001
 6055POPC   PO475780  41.602  43.750   5.537
 6055POPC   GL175781  41.486  43.742   5.903
 6055POPC   GL275782  41.122  43.745   5.834
 6055POPC   C1A75783  41.755  43.900   6.211
 6055POPC   D2A75784  41.898  44.094   6.568
 6055POPC   C3A75785  41.818  43.763   6.849
 6055POPC   C4A75786  41.715  43.785   7.260
 6055POPC   C1B75787  41.141  43.843   6.246
 6055POPC   C2B75788  41.372  44.055   6.521
 6055POPC   C3B75789  41.317  43.893   6.899
 6055POPC   C4B75790  41.238  43.996   7.293
 6056POPC   NC375791  16.201  35.862   5.285
 6056POPC   PO475792  15.881  36.291   5.608
 6056POPC   GL175793  15.912  35.868   5.716
 6056POPC   GL275794  16.275  35.756   5.799
 6056POPC   C1A75795  15.888  35.828   6.148
 6056POPC   D2A75796  15.965  35.682   6.563
 6056POPC   C3A75797  15.928  35.980   6.865
 6056POPC   C4A75798  15.851  36.094   7.287
 6056POPC   C1B75799  16.393  35.727   6.266
 6056POPC   C2B75800  16.442  35.914   6.702
 6056POPC   C3B75801  16.345  36.022   7.151
 6056POPC   C4B75802  16.243  36.431   7.403
 6057POPC   NC375803  31.823  39.968   5.352
 6057POPC   PO475804  32.367  39.815   5.028
 6057POPC   GL175805  32.283  39.785   5.551
 6057POPC   GL275806  32.519  39.590   5.792
 6057POPC   C1A75807  32.104  39.925   6.022
 6057POPC   D2A75808  31.929  39.894   6.525
 6057POPC   C3A75809  31.973  40.128   6.967
 6057POPC   C4A75810  32.016  40.454   7.327
 6057POPC   C1B75811  32.568  39.774   6.221
 6057POPC   C2B75812  32.480  39.954   6.649
 6057POPC   C3B75813  32.467  40.056   7.112
 6057POPC   C4B75814  32.694  39.881   7.461
 6058POPC   NC375815   9.230  30.117   5.497
 6058POPC   PO475816   8.775  29.628   5.469
 6058POPC   GL175817   8.973  29.688   5.819
 6058POPC   GL275818   8.876  30.014   5.866
 6058POPC   C1A75819   8.948  29.703   6.259
 6058POPC   D2A75820   9.148  29.871   6.588
 6058POPC   C3A75821   9.048  29.664   6.943
 6058POPC   C4A75822   9.203  29.769   7.327
 6058POPC   C1B75823   8.650  30.113   6.244
 6058POPC   C2B75824   8.645  29.969   6.664
 6058POPC   C3B75825   8.640  29.952   7.098
 6058POPC   C4B75826   8.816  30.100   7.460
 6059POPC   NC375827   2.913  19.974   5.312
 6059POPC   PO475828   2.296  19.680   5.417
 6059POPC   GL175829   2.574  19.881   5.708
 6059POPC   GL275830   2.883  19.717   5.742
 6059POPC   C1A75831   2.716  20.076   6.122
 6059POPC   D2A75832   2.915  20.155   6.542
 6059POPC   C3A75833   2.640  20.108   6.890
 6059POPC   C4A75834   2.634  19.858   7.227
 6059POPC   C1B75835   2.994  19.631   6.112
 6059POPC   C2B75836   2.858  19.609   6.502
 6059POPC   C3B75837   3.012  19.764   6.869
 6059POPC   C4B75838   3.092  19.586   7.237
 6060POPC   NC375839  29.699  33.240   5.404
 6060POPC   PO475840  29.706  32.658   5.601
 6060POPC   GL175841  29.957  32.941   5.843
 6060POPC   GL275842  29.963  33.315   5.849
 6060POPC   C1A75843  29.951  32.900   6.275
 6060POPC   D2A75844  29.830  33.018   6.671
 6060POPC   C3A75845  30.029  32.824   7.018
 6060POPC   C4A75846  29.851  32.837   7.396
 6060POPC   C1B75847  30.313  33.227   6.162
 6060POPC   C2B75848  30.341  33.115   6.619
 6060POPC   C3B75849  30.145  33.304   7.000
 6060POPC   C4B75850  29.718  33.257   7.117
 6061POPC   NC375851  33.567  19.285   5.393
 6061POPC   PO475852  34.260  19.397   5.390
 6061POPC   GL175853  33.945  19.354   5.782
 6061POPC   GL275854  33.631  19.078   5.845
 6061POPC   C1A75855  33.972  19.150   6.207
 6061POPC   D2A75856  33.812  19.265   6.613
 6061POPC   C3A75857  33.986  19.168   7.015
 6061POPC   C4A75858  33.923  18.760   7.198
 6061POPC   C1B75859  33.476  19.295   6.210
 6061POPC   C2B75860  33.325  19.385   6.631
 6061POPC   C3B75861  33.481  19.196   7.019
 6061POPC   C4B75862  33.612  19.116   7.427
 6062POPC   NC375863   1.713  36.879   5.426
 6062POPC   PO475864   2.382  36.702   5.478
 6062POPC   GL175865   2.059  36.742   5.823
 6062POPC   GL275866   1.721  36.601   5.865
 6062POPC   C1A75867   2.103  36.913   6.245
 6062POPC   D2A75868   2.413  36.836   6.567
 6062POPC   C3A75869   2.235  36.898   6.975
 6062POPC   C4A75870   1.846  37.168   7.051
 6062POPC   C1B75871   1.813  36.501   6.328
 6062POPC   C2B75872   1.837  36.689   6.756
 6062POPC   C3B75873   1.831  36.661   7.226
 6062POPC   C4B75874   1.677  36.703   7.675
 6063POPC   NC375875  11.721  30.025   5.307
 6063POPC   PO475876  11.087  30.237   5.504
 6063POPC   GL175877  11.333  29.968   5.737
 6063POPC   GL275878  11.295  29.617   5.702
 6063POPC   C1A75879  11.363  30.044   6.170
 6063POPC   D2A75880  11.017  30.093   6.478
 6063POPC   C3A75881  11.141  30.051   6.900
 6063POPC   C4A75882  10.931  30.070   7.284
 6063POPC   C1B75883  11.461  29.534   6.121
 6063POPC   C2B75884  11.451  29.697   6.533
 6063POPC   C3B75885  11.359  29.582   6.922
 6063POPC   C4B75886  11.328  29.756   7.296
 6064POPC   NC375887   3.688  39.365   5.226
 6064POPC   PO475888   3.483  39.696   5.729
 6064POPC   GL175889   3.615  39.269   5.849
 6064POPC   GL275890   3.912  39.321   5.863
 6064POPC   C1A75891   3.589  39.035   6.216
 6064POPC   D2A75892   3.474  38.888   6.624
 6064POPC   C3A75893   3.767  38.960   6.954
 6064POPC   C4A75894   3.690  38.954   7.388
 6064POPC   C1B75895   3.784  39.537   6.257
 6064POPC   C2B75896   3.802  39.317   6.594
 6064POPC   C3B75897   3.491  39.395   6.865
 6064POPC   C4B75898   3.609  39.758   7.109
 6065POPC   NC375899  38.598  39.040   5.312
 6065POPC   PO475900  38.377  39.549   5.620
 6065POPC   GL175901  38.299  39.120   5.822
 6065POPC   GL275902  38.011  38.882   5.686
 6065POPC   C1A75903  38.364  39.123   6.281
 6065POPC   D2A75904  38.601  39.504   6.471
 6065POPC   C3A75905  38.730  39.414   6.880
 6065POPC   C4A75906  38.424  39.307   7.112
 6065POPC   C1B75907  38.147  38.684   6.043
 6065POPC   C2B75908  38.061  38.707   6.453
 6065POPC   C3B75909  38.149  38.972   6.803
 6065POPC   C4B75910  38.103  38.974   7.247
 6066POPC   NC375911  26.210   9.829   5.670
 6066POPC   PO475912  25.942   9.537   5.123
 6066POPC   GL175913  25.832   9.445   5.665
 6066POPC   GL275914  25.647   9.668   5.895
 6066POPC   C1A75915  26.018   9.492   6.169
 6066POPC   D2A75916  26.269   9.470   6.540
 6066POPC   C3A75917  26.159   9.787   6.851
 6066POPC   C4A75918  25.988   9.668   7.249
 6066POPC   C1B75919  25.708   9.914   6.298
 6066POPC   C2B75920  25.786  10.149   6.715
 6066POPC   C3B75921  25.677  10.123   7.161
 6066POPC   C4B75922  25.759  10.123   7.617
 6067POPC   NC375923  15.568  35.107   5.456
 6067POPC   PO475924  16.269  35.389   5.419
 6067POPC   GL175925  15.915  35.356   5.767
 6067POPC   GL275926  15.831  35.010   5.888
 6067POPC   C1A75927  15.722  35.370   6.226
 6067POPC   D2A75928  15.569  35.355   6.662
 6067POPC   C3A75929  15.827  35.435   6.994
 6067POPC   C4A75930  15.500  35.339   7.291
 6067POPC   C1B75931  16.180  35.161   6.158
 6067POPC   C2B75932  16.248  35.254   6.578
 6067POPC   C3B75933  16.167  35.034   6.961
 6067POPC   C4B75934  15.953  35.101   7.343
 6068POPC   NC375935  19.304  21.389   5.284
 6068POPC   PO475936  18.673  21.325   5.393
 6068POPC   GL175937  18.940  21.142   5.723
 6068POPC   GL275938  19.172  21.416   5.795
 6068POPC   C1A75939  18.897  21.138   6.207
 6068POPC   D2A75940  18.684  21.364   6.567
 6068POPC   C3A75941  18.888  21.419   6.972
 6068POPC   C4A75942  18.885  21.170   7.331
 6068POPC   C1B75943  19.141  21.592   6.207
 6068POPC   C2B75944  19.280  21.410   6.587
 6068POPC   C3B75945  19.373  21.628   6.954
 6068POPC   C4B75946  19.299  21.446   7.332
 6069POPC   NC375947  32.238   1.393   5.518
 6069POPC   PO475948  32.734   0.877   5.355
 6069POPC   GL175949  32.494   1.003   5.781
 6069POPC   GL275950  32.105   0.966   5.846
 6069POPC   C1A75951  32.394   1.336   6.151
 6069POPC   D2A75952  32.327   1.527   6.568
 6069POPC   C3A75953  31.988   1.478   6.851
 6069POPC   C4A75954  31.943   1.193   7.185
 6069POPC   C1B75955  32.303   0.851   6.246
 6069POPC   C2B75956  32.244   1.028   6.654
 6069POPC   C3B75957  32.438   1.222   6.993
 6069POPC   C4B75958  32.438   0.952   7.335
 6070POPC   NC375959  25.795  24.193   5.495
 6070POPC   PO475960  26.285  23.647   5.519
 6070POPC   GL175961  25.993  23.823   5.824
 6070POPC   GL275962  25.852  23.499   5.875
 6070POPC   C1A75963  25.748  23.887   6.211
 6070POPC   D2A75964  25.568  23.886   6.649
 6070POPC   C3A75965  25.928  23.978   6.923
 6070POPC   C4A75966  26.156  24.116   7.273
 6070POPC   C1B75967  26.124  23.430   6.177
 6070POPC   C2B75968  25.956  23.543   6.558
 6070POPC   C3B75969  25.817  23.499   6.962
 6070POPC   C4B75970  26.152  23.576   7.241
 6071POPC   NC375971   7.399  12.234   5.340
 6071POPC   PO475972   7.702  11.557   5.563
 6071POPC   GL175973   7.427  11.840   5.726
 6071POPC   GL275974   7.674  12.125   5.762
 6071POPC   C1A75975   7.386  11.937   6.175
 6071POPC   D2A75976   7.236  12.033   6.613
 6071POPC   C3A75977   7.160  11.867   7.056
 6071POPC   C4A75978   7.307  12.053   7.426
 6071POPC   C1B75979   7.660  12.381   6.150
 6071POPC   C2B75980   7.718  12.277   6.586
 6071POPC   C3B75981   7.557  12.201   6.992
 6071POPC   C4B75982   7.698  12.381   7.356
 6072POPC   NC375983  34.671  23.068   5.499
 6072POPC   PO475984  34.108  22.863   5.330
 6072POPC   GL175985  34.219  23.005   5.765
 6072POPC   GL275986  34.473  22.770   5.867
 6072POPC   C1A75987  34.489  23.176   6.161
 6072POPC   D2A75988  34.683  22.969   6.547
 6072POPC   C3A75989  34.618  23.103   6.979
 6072POPC   C4A75990  34.402  22.882   7.299
 6072POPC   C1B75991  34.817  22.635   6.124
 6072POPC   C2B75992  34.935  22.493   6.519
 6072POPC   C3B75993  35.051  22.704   6.856
 6072POPC   C4B75994  34.889  22.720   7.230
 6073POPC   NC375995  30.234  19.729   5.739
 6073POPC   PO475996  29.590  19.775   5.501
 6073POPC   GL175997  29.748  19.749   5.891
 6073POPC   GL275998  29.809  19.382   5.865
 6073POPC   C1A75999  29.916  20.008   6.267
 6073POPC   D2A76000  29.924  20.119   6.710
 6073POPC   C3A76001  30.098  20.216   7.082
 6073POPC   C4A76002  29.913  20.058   7.454
 6073POPC   C1B76003  29.920  19.478   6.299
 6073POPC   C2B76004  30.130  19.652   6.660
 6073POPC   C3B76005  29.972  19.683   7.086
 6073POPC   C4B76006  29.723  19.381   7.324
 6074POPC   NC376007  39.805  17.271   5.654
 6074POPC   PO476008  39.856  16.677   5.381
 6074POPC   GL176009  39.871  16.778   5.794
 6074POPC   GL276010  40.164  16.842   5.977
 6074POPC   C1A76011  39.662  16.809   6.168
 6074POPC   D2A76012  39.878  16.679   6.530
 6074POPC   C3A76013  39.672  16.816   6.892
 6074POPC   C4A76014  39.838  16.879   7.275
 6074POPC   C1B76015  40.352  16.536   6.250
 6074POPC   C2B76016  40.340  16.456   6.689
 6074POPC   C3B76017  40.271  16.640   7.099
 6074POPC   C4B76018  40.158  16.610   7.563
 6075POPC   NC376019  20.331   8.730   5.481
 6075POPC   PO476020  20.944   8.795   5.408
 6075POPC   GL176021  20.890   8.928   5.807
 6075POPC   GL276022  20.530   8.929   5.929
 6075POPC   C1A76023  20.950   8.986   6.224
 6075POPC   D2A76024  20.680   8.873   6.512
 6075POPC   C3A76025  20.902   8.964   6.865
 6075POPC   C4A76026  20.904   8.791   7.254
 6075POPC   C1B76027  20.267   9.085   6.299
 6075POPC   C2B76028  20.211   8.971   6.754
 6075POPC   C3B76029  20.457   9.055   7.152
 6075POPC   C4B76030  20.287   9.293   7.570
 6076POPC   NC376031  38.883  32.970   5.566
 6076POPC   PO476032  39.523  33.170   5.550
 6076POPC   GL176033  39.489  32.893   5.885
 6076POPC   GL276034  39.161  32.855   5.953
 6076POPC   C1A76035  39.435  33.035   6.309
 6076POPC   D2A76036  39.096  32.964   6.544
 6076POPC   C3A76037  39.297  32.888   6.916
 6076POPC   C4A76038  39.534  32.847   7.289
 6076POPC   C1B76039  39.015  33.286   6.128
 6076POPC   C2B76040  38.927  33.490   6.523
 6076POPC   C3B76041  38.929  33.291   6.923
 6076POPC   C4B76042  39.108  33.120   7.327
 6077POPC   NC376043  19.511  15.316   5.311
 6077POPC   PO476044  19.988  14.829   5.469
 6077POPC   GL176045  19.939  15.165   5.807
 6077POPC   GL276046  20.080  15.532   5.845
 6077POPC   C1A76047  19.685  15.180   6.211
 6077POPC   D2A76048  19.464  15.121   6.617
 6077POPC   C3A76049  19.670  15.011   7.042
 6077POPC   C4A76050  19.771  14.828   7.471
 6077POPC   C1B76051  20.159  15.361   6.273
 6077POPC   C2B76052  20.022  15.205   6.689
 6077POPC   C3B76053  20.200  15.069   7.104
 6077POPC   C4B76054  20.057  15.233   7.489
 6078POPC   NC376055  35.965  18.231   5.024
 6078POPC   PO476056  36.224  18.685   5.393
 6078POPC   GL176057  36.268  18.516   5.785
 6078POPC   GL276058  36.114  18.204   5.691
 6078POPC   C1A76059  36.337  18.641   6.236
 6078POPC   D2A76060  36.094  18.626   6.628
 6078POPC   C3A76061  36.251  18.560   7.046
 6078POPC   C4A76062  36.200  18.602   7.535
 6078POPC   C1B76063  35.882  18.205   6.101
 6078POPC   C2B76064  35.727  18.004   6.490
 6078POPC   C3B76065  35.912  18.160   6.869
 6078POPC   C4B76066  36.034  18.168   7.296
 6079POPC   NC376067   7.710  31.900   5.365
 6079POPC   PO476068   7.059  32.075   5.436
 6079POPC   GL176069   7.295  32.106   5.806
 6079POPC   GL276070   7.436  32.424   5.778
 6079POPC   C1A76071   7.488  32.096   6.216
 6079POPC   D2A76072   7.753  32.035   6.553
 6079POPC   C3A76073   7.585  32.055   6.920
 6079POPC   C4A76074   7.775  32.151   7.266
 6079POPC   C1B76075   7.216  32.534   6.155
 6079POPC   C2B76076   7.420  32.500   6.584
 6079POPC   C3B76077   7.612  32.560   6.996
 6079POPC   C4B76078   7.665  32.633   7.445
 6080POPC   NC376079  34.852  24.624   5.439
 6080POPC   PO476080  34.218  24.220   5.312
 6080POPC   GL176081  34.566  24.242   5.672
 6080POPC   GL276082  34.591  24.579   5.867
 6080POPC   C1A76083  34.722  24.185   6.151
 6080POPC   D2A76084  34.711  24.418   6.577
 6080POPC   C3A76085  34.776  24.175   6.962
 6080POPC   C4A76086  34.593  23.996   7.335
 6080POPC   C1B76087  34.824  24.816   6.213
 6080POPC   C2B76088  35.042  24.823   6.633
 6080POPC   C3B76089  34.934  24.670   7.032
 6080POPC   C4B76090  34.887  24.433   7.418
 6081POPC   NC376091  32.639   5.926   5.159
 6081POPC   PO476092  32.059   5.681   5.420
 6081POPC   GL176093  31.902   5.932   5.788
 6081POPC   GL276094  32.188   5.842   6.030
 6081POPC   C1A76095  31.780   6.095   6.191
 6081POPC   D2A76096  32.043   6.216   6.546
 6081POPC   C3A76097  31.992   6.067   6.998
 6081POPC   C4A76098  31.771   6.240   7.347
 6081POPC   C1B76099  32.513   6.041   6.340
 6081POPC   C2B76100  32.538   6.281   6.752
 6081POPC   C3B76101  32.519   6.062   7.138
 6081POPC   C4B76102  32.325   5.652   7.169
 6082POPC   NC376103  18.091  25.771   5.308
 6082POPC   PO476104  18.124  25.098   5.345
 6082POPC   GL176105  18.078  25.124   5.785
 6082POPC   GL276106  18.450  25.089   5.807
 6082POPC   C1A76107  18.149  25.292   6.217
 6082POPC   D2A76108  18.186  25.480   6.656
 6082POPC   C3A76109  18.161  25.196   7.019
 6082POPC   C4A76110  18.137  25.203   7.474
 6082POPC   C1B76111  18.655  25.340   6.117
 6082POPC   C2B76112  18.553  25.166   6.496
 6082POPC   C3B76113  18.655  25.190   6.866
 6082POPC   C4B76114  18.607  25.225   7.276
 6083POPC   NC376115  13.797   5.265   5.323
 6083POPC   PO476116  13.595   4.679   5.225
 6083POPC   GL176117  13.660   4.935   5.695
 6083POPC   GL276118  13.599   5.330   5.792
 6083POPC   C1A76119  13.533   4.986   6.181
 6083POPC   D2A76120  13.416   4.989   6.633
 6083POPC   C3A76121  13.645   4.920   7.013
 6083POPC   C4A76122  13.663   4.992   7.492
 6083POPC   C1B76123  13.720   5.476   6.235
 6083POPC   C2B76124  13.636   5.446   6.678
 6083POPC   C3B76125  13.618   5.399   7.118
 6083POPC   C4B76126  13.988   5.407   7.390
 6084POPC   NC376127  18.352  33.273   5.294
 6084POPC   PO476128  17.962  32.764   5.484
 6084POPC   GL176129  18.128  33.079   5.751
 6084POPC   GL276130  18.473  33.193   5.784
 6084POPC   C1A76131  18.204  32.967   6.174
 6084POPC   D2A76132  17.972  32.809   6.506
 6084POPC   C3A76133  18.223  32.785   6.873
 6084POPC   C4A76134  18.152  32.832   7.299
 6084POPC   C1B76135  18.476  33.396   6.198
 6084POPC   C2B76136  18.455  33.223   6.646
 6084POPC   C3B76137  18.267  33.314   7.081
 6084POPC   C4B76138  18.467  33.282   7.522
 6085POPC   NC376139   9.868   1.644   5.090
 6085POPC   PO476140   9.656   0.984   5.220
 6085POPC   GL176141   9.879   1.199   5.628
 6085POPC   GL276142   9.972   0.961   5.879
 6085POPC   C1A76143   9.730   1.375   6.067
 6085POPC   D2A76144   9.635   1.603   6.480
 6085POPC   C3A76145   9.703   1.363   6.876
 6085POPC   C4A76146   9.823   1.356   7.325
 6085POPC   C1B76147   9.807   0.767   6.273
 6085POPC   C2B76148   9.818   0.651   6.722
 6085POPC   C3B76149   9.860   0.885   7.130
 6085POPC   C4B76150   9.782   0.934   7.607
 6086POPC   NC376151  34.840  43.252   5.391
 6086POPC   PO476152  35.536  43.163   5.306
 6086POPC   GL176153  35.433  43.150   5.753
 6086POPC   GL276154  35.273  43.460   5.840
 6086POPC   C1A76155  35.372  42.959   6.197
 6086POPC   D2A76156  35.242  43.102   6.630
 6086POPC   C3A76157  35.416  42.970   7.027
 6086POPC   C4A76158  35.153  43.026   7.398
 6086POPC   C1B76159  35.340  43.691   6.230
 6086POPC   C2B76160  35.481  43.575   6.644
 6086POPC   C3B76161  35.309  43.481   7.048
 6086POPC   C4B76162  35.498  43.396   7.435
 6087POPC   NC376163  41.956  15.068   5.421
 6087POPC   PO476164  42.204  15.626   5.306
 6087POPC   GL176165  42.338  15.314   5.673
 6087POPC   GL276166  42.589  14.984   5.691
 6087POPC   C1A76167  42.310  15.141   6.102
 6087POPC   D2A76168  42.516  15.323   6.466
 6087POPC   C3A76169  42.356  15.412   6.880
 6087POPC   C4A76170  42.264  15.119   7.213
 6087POPC   C1B76171  42.863  15.103   6.073
 6087POPC   C2B76172  42.898  14.966   6.499
 6087POPC   C3B76173  42.679  14.968   6.889
 6087POPC   C4B76174  42.772  15.035   7.309
 6088POPC   NC376175  39.393  28.466   5.533
 6088POPC   PO476176  38.753  28.557   5.319
 6088POPC   GL176177  38.933  28.538   5.731
 6088POPC   GL276178  39.025  28.177   5.744
 6088POPC   C1A76179  38.882  28.425   6.150
 6088POPC   D2A76180  38.922  28.320   6.568
 6088POPC   C3A76181  39.215  28.547   6.811
 6088POPC   C4A76182  39.281  28.496   7.227
 6088POPC   C1B76183  39.361  28.269   6.117
 6088POPC   C2B76184  39.444  28.185   6.510
 6088POPC   C3B76185  39.322  28.057   6.907
 6088POPC   C4B76186  39.686  28.238   7.128
 6089POPC   NC376187  17.964   9.549   5.391
 6089POPC   PO476188  18.239  10.147   5.364
 6089POPC   GL176189  18.344   9.954   5.804
 6089POPC   GL276190  18.569   9.659   5.814
 6089POPC   C1A76191  18.376   9.813   6.242
 6089POPC   D2A76192  18.174   9.830   6.603
 6089POPC   C3A76193  18.419   9.833   6.919
 6089POPC   C4A76194  18.348   9.958   7.299
 6089POPC   C1B76195  18.621   9.368   6.157
 6089POPC   C2B76196  18.648   9.505   6.578
 6089POPC   C3B76197  18.544   9.297   6.925
 6089POPC   C4B76198  18.359   9.450   7.265
 6090POPC   NC376199  42.755  11.695   5.503
 6090POPC   PO476200  43.066  12.230   5.492
 6090POPC   GL176201  43.204  12.227   5.891
 6090POPC   GL276202  43.123  11.859   5.900
 6090POPC   C1A76203  43.032  12.190   6.302
 6090POPC   D2A76204  42.927  11.978   6.700
 6090POPC   C3A76205  43.200  12.061   7.059
 6090POPC   C4A76206  43.446  11.882   7.449
 6090POPC   C1B76207  42.733  11.767   6.160
 6090POPC   C2B76208  42.618  11.563   6.563
 6090POPC   C3B76209  42.846  11.538   6.960
 6090POPC   C4B76210  42.981  11.694   7.355
 6091POPC   NC376211  44.766   8.883   5.405
 6091POPC   PO476212   0.177   8.585   5.710
 6091POPC   GL176213  44.824   8.780   5.917
 6091POPC   GL276214  44.453   8.753   5.883
 6091POPC   C1A76215  44.819   9.134   6.177
 6091POPC   D2A76216  44.620   9.211   6.548
 6091POPC   C3A76217  44.712   9.039   6.957
 6091POPC   C4A76218  44.464   9.217   7.302
 6091POPC   C1B76219  44.558   8.726   6.351
 6091POPC   C2B76220  44.964   8.761   6.539
 6091POPC   C3B76221   0.133   8.595   6.914
 6091POPC   C4B76222  44.930   8.697   7.287
 6092POPC   NC376223  10.916  43.842   5.314
 6092POPC   PO476224  11.527  43.597   5.221
 6092POPC   GL176225  11.424  43.834   5.629
 6092POPC   GL276226  11.106  43.848   5.851
 6092POPC   C1A76227  11.573  43.899   6.075
 6092POPC   D2A76228  11.695  43.673   6.469
 6092POPC   C3A76229  11.613  43.815   6.857
 6092POPC   C4A76230  11.609  43.864   7.271
 6092POPC   C1B76231  11.121  44.070   6.289
 6092POPC   C2B76232  11.194  44.097   6.764
 6092POPC   C3B76233  11.208  44.179   7.211
 6092POPC   C4B76234  11.004  44.191   7.632
 6093POPC   NC376235  14.563  33.878   5.490
 6093POPC   PO476236  14.181  33.383   5.678
 6093POPC   GL176237  14.385  33.641   5.915
 6093POPC   GL276238  14.132  33.893   5.857
 6093POPC   C1A76239  14.522  33.892   6.262
 6093POPC   D2A76240  14.720  33.887   6.697
 6093POPC   C3A76241  14.475  33.897   7.076
 6093POPC   C4A76242  14.405  33.575   7.409
 6093POPC   C1B76243  14.043  34.159   6.194
 6093POPC   C2B76244  14.236  34.146   6.615
 6093POPC   C3B76245  14.066  34.273   7.018
 6093POPC   C4B76246  14.124  34.091   7.404
 6094POPC   NC376247  24.755  35.529   5.220
 6094POPC   PO476248  24.218  35.063   5.385
 6094POPC   GL176249  24.361  35.114   5.823
 6094POPC   GL276250  24.458  35.459   5.937
 6094POPC   C1A76251  24.620  35.105   6.229
 6094POPC   D2A76252  24.556  35.404   6.545
 6094POPC   C3A76253  24.574  35.120   6.850
 6094POPC   C4A76254  24.634  34.941   7.214
 6094POPC   C1B76255  24.843  35.598   6.139
 6094POPC   C2B76256  25.006  35.674   6.529
 6094POPC   C3B76257  24.802  35.711   6.912
 6094POPC   C4B76258  24.548  35.483   7.206
 6095POPC   NC376259  43.371  14.521   5.509
 6095POPC   PO476260  42.730  14.116   5.591
 6095POPC   GL176261  42.931  14.321   5.929
 6095POPC   GL276262  43.056  14.648   5.899
 6095POPC   C1A76263  42.942  14.467   6.368
 6095POPC   D2A76264  42.968  14.249   6.718
 6095POPC   C3A76265  42.881  14.493   7.029
 6095POPC   C4A76266  42.806  14.238   7.358
 6095POPC   C1B76267  43.383  14.412   6.164
 6095POPC   C2B76268  43.453  14.493   6.598
 6095POPC   C3B76269  43.392  14.323   6.992
 6095POPC   C4B76270  43.261  14.475   7.373
 6096POPC   NC376271   8.250  26.392   5.248
 6096POPC   PO476272   8.078  25.815   5.626
 6096POPC   GL176273   8.059  25.960   6.021
 6096POPC   GL276274   8.375  25.784   6.055
 6096POPC   C1A76275   8.026  26.312   6.318
 6096POPC   D2A76276   8.252  26.381   6.701
 6096POPC   C3A76277   8.273  26.014   6.957
 6096POPC   C4A76278   8.131  26.022   7.393
 6096POPC   C1B76279   8.470  26.051   6.386
 6096POPC   C2B76280   8.739  26.216   6.713
 6096POPC   C3B76281   8.804  25.966   7.074
 6096POPC   C4B76282   8.515  25.680   7.312
 6097POPC   NC376283   6.434   2.157   5.395
 6097POPC   PO476284   6.378   1.479   5.476
 6097POPC   GL176285   6.645   1.646   5.776
 6097POPC   GL276286   6.797   2.002   5.758
 6097POPC   C1A76287   6.480   1.764   6.154
 6097POPC   D2A76288   6.345   2.129   6.433
 6097POPC   C3A76289   6.415   2.090   6.891
 6097POPC   C4A76290   6.573   1.982   7.277
 6097POPC   C1B76291   6.920   2.007   6.198
 6097POPC   C2B76292   6.758   1.813   6.570
 6097POPC   C3B76293   6.908   1.876   6.932
 6097POPC   C4B76294   6.955   2.257   7.081
 6098POPC   NC376295  20.638  40.954   5.414
 6098POPC   PO476296  20.891  40.417   5.111
 6098POPC   GL176297  20.863  40.567   5.662
 6098POPC   GL276298  20.832  40.950   5.867
 6098POPC   C1A76299  20.605  40.557   6.072
 6098POPC   D2A76300  20.483  40.758   6.459
 6098POPC   C3A76301  20.546  40.591   6.876
 6098POPC   C4A76302  20.484  40.813   7.256
 6098POPC   C1B76303  21.021  40.837   6.235
 6098POPC   C2B76304  21.148  40.868   6.661
 6098POPC   C3B76305  20.928  40.943   7.041
 6098POPC   C4B76306  20.916  41.037   7.492
 6099POPC   NC376307   6.160  37.935   5.405
 6099POPC   PO476308   5.751  37.373   5.253
 6099POPC   GL176309   5.847  37.493   5.692
 6099POPC   GL276310   5.634  37.338   5.921
 6099POPC   C1A76311   6.025  37.722   6.076
 6099POPC   D2A76312   6.216  37.895   6.483
 6099POPC   C3A76313   6.145  37.645   6.830
 6099POPC   C4A76314   5.845  37.818   7.120
 6099POPC   C1B76315   5.545  37.536   6.286
 6099POPC   C2B76316   5.652  37.739   6.653
 6099POPC   C3B76317   5.429  37.557   7.010
 6099POPC   C4B76318   5.500  37.348   7.378
 6100POPC   NC376319  41.739   5.591   5.584
 6100POPC   PO476320  41.994   4.943   5.537
 6100POPC   GL176321  41.732   5.129   5.879
 6100POPC   GL276322  41.376   5.201   5.780
 6100POPC   C1A76323  41.738   5.089   6.337
 6100POPC   D2A76324  41.704   5.190   6.768
 6100POPC   C3A76325  41.655   4.859   7.066
 6100POPC   C4A76326  41.558   4.974   7.483
 6100POPC   C1B76327  41.246   5.208   6.228
 6100POPC   C2B76328  41.158   5.200   6.665
 6100POPC   C3B76329  41.291   5.216   7.085
 6100POPC   C4B76330  41.244   5.370   7.497
 6101POPC   NC376331  24.419  18.963   5.336
 6101POPC   PO476332  24.363  19.583   5.500
 6101POPC   GL176333  24.569  19.197   5.752
 6101POPC   GL276334  24.362  18.843   5.813
 6101POPC   C1A76335  24.803  18.975   6.084
 6101POPC   D2A76336  24.726  19.190   6.492
 6101POPC   C3A76337  24.703  19.012   6.909
 6101POPC   C4A76338  24.666  19.210   7.301
 6101POPC   C1B76339  24.302  18.998   6.200
 6101POPC   C2B76340  24.289  18.917   6.599
 6101POPC   C3B76341  24.189  19.075   6.998
 6101POPC   C4B76342  24.228  18.952   7.421
 6102POPC   NC376343  17.296  18.411   5.583
 6102POPC   PO476344  17.673  17.929   5.292
 6102POPC   GL176345  17.710  18.048   5.757
 6102POPC   GL276346  17.607  18.332   5.976
 6102POPC   C1A76347  17.855  17.928   6.182
 6102POPC   D2A76348  17.705  18.246   6.486
 6102POPC   C3A76349  17.633  18.143   6.888
 6102POPC   C4A76350  17.563  18.376   7.221
 6102POPC   C1B76351  17.279  18.462   6.263
 6102POPC   C2B76352  17.141  18.283   6.658
 6102POPC   C3B76353  17.113  18.519   7.055
 6102POPC   C4B76354  17.206  18.561   7.525
 6103POPC   NC376355  19.813  25.597   5.338
 6103POPC   PO476356  19.865  24.995   5.470
 6103POPC   GL176357  19.705  25.240   5.833
 6103POPC   GL276358  19.546  24.947   5.956
 6103POPC   C1A76359  19.578  25.273   6.315
 6103POPC   D2A76360  19.510  24.934   6.572
 6103POPC   C3A76361  19.654  24.997   6.987
 6103POPC   C4A76362  19.665  25.382   7.265
 6103POPC   C1B76363  19.957  24.966   6.193
 6103POPC   C2B76364  20.025  25.115   6.627
 6103POPC   C3B76365  20.177  24.961   7.036
 6103POPC   C4B76366  20.365  25.114   7.433
 6104POPC   NC376367  39.462   8.148   5.090
 6104POPC   PO476368  38.841   8.176   5.256
 6104POPC   GL176369  39.044   8.113   5.710
 6104POPC   GL276370  39.186   7.757   5.822
 6104POPC   C1A76371  39.337   8.156   6.141
 6104POPC   D2A76372  39.551   7.989   6.557
 6104POPC   C3A76373  39.272   8.187   6.865
 6104POPC   C4A76374  39.193   8.463   7.261
 6104POPC   C1B76375  38.887   7.913   6.136
 6104POPC   C2B76376  38.680   8.012   6.490
 6104POPC   C3B76377  38.780   7.873   6.899
 6104POPC   C4B76378  39.009   7.979   7.263
 6105POPC   NC376379  33.939  20.234   5.469
 6105POPC   PO476380  33.650  19.719   5.474
 6105POPC   GL176381  33.698  19.950   5.834
 6105POPC   GL276382  34.031  19.892   5.873
 6105POPC   C1A76383  33.697  19.752   6.234
 6105POPC   D2A76384  33.530  19.849   6.607
 6105POPC   C3A76385  33.663  19.661   6.946
 6105POPC   C4A76386  33.719  19.945   7.222
 6105POPC   C1B76387  34.039  20.128   6.286
 6105POPC   C2B76388  33.951  20.195   6.748
 6105POPC   C3B76389  34.154  20.188   7.157
 6105POPC   C4B76390  34.299  19.868   7.492
 6106POPC   NC376391   5.242   8.122   5.070
 6106POPC   PO476392   5.006   7.621   5.448
 6106POPC   GL176393   4.993   7.593   5.860
 6106POPC   GL276394   5.319   7.481   5.919
 6106POPC   C1A76395   4.971   7.514   6.313
 6106POPC   D2A76396   5.135   7.616   6.719
 6106POPC   C3A76397   5.067   7.341   7.058
 6106POPC   C4A76398   5.089   7.366   7.494
 6106POPC   C1B76399   5.491   7.598   6.324
 6106POPC   C2B76400   5.600   7.395   6.744
 6106POPC   C3B76401   5.537   7.460   7.197
 6106POPC   C4B76402   5.580   7.315   7.639
 6107POPC   NC376403  14.568   1.262   5.430
 6107POPC   PO476404  13.890   0.933   5.337
 6107POPC   GL176405  14.084   1.003   5.775
 6107POPC   GL276406  14.244   0.722   5.902
 6107POPC   C1A76407  14.440   1.140   6.129
 6107POPC   D2A76408  14.775   1.073   6.489
 6107POPC   C3A76409  14.618   1.044   6.924
 6107POPC   C4A76410  14.286   1.277   7.116
 6107POPC   C1B76411  14.053   0.842   6.302
 6107POPC   C2B76412  13.952   0.940   6.747
 6107POPC   C3B76413  14.084   0.819   7.161
 6107POPC   C4B76414  14.085   0.918   7.640
 6108POPC   NC376415  26.890  33.722   5.371
 6108POPC   PO476416  26.490  33.149   5.609
 6108POPC   GL176417  26.575  33.551   5.840
 6108POPC   GL276418  26.615  33.888   5.806
 6108POPC   C1A76419  26.880  33.649   6.156
 6108POPC   D2A76420  26.972  33.448   6.508
 6108POPC   C3A76421  26.905  33.632   6.907
 6108POPC   C4A76422  26.603  33.599   7.232
 6108POPC   C1B76423  26.639  34.108   6.212
 6108POPC   C2B76424  26.908  34.083   6.618
 6108POPC   C3B76425  26.654  34.083   7.015
 6108POPC   C4B76426  26.551  34.052   7.466
 6109POPC   NC376427  44.282  43.754   5.538
 6109POPC   PO476428  44.748  44.092   5.198
 6109POPC   GL176429  44.695  44.074   5.620
 6109POPC   GL276430  44.392  44.264   5.670
 6109POPC   C1A76431  44.747  43.989   6.067
 6109POPC   D2A76432  44.895  43.780   6.457
 6109POPC   C3A76433  44.681  43.812   6.857
 6109POPC   C4A76434  44.506  43.815   7.243
 6109POPC   C1B76435  44.301  44.258   6.113
 6109POPC   C2B76436  44.472  44.105   6.512
 6109POPC   C3B76437  44.464  44.310   6.931
 6109POPC   C4B76438  44.451  44.294   7.384
 6110POPC   NC376439  12.922  11.154   5.642
 6110POPC   PO476440  13.495  11.586   5.537
 6110POPC   GL176441  13.175  11.544   5.903
 6110POPC   GL276442  12.992  11.834   6.024
 6110POPC   C1A76443  12.982  11.331   6.287
 6110POPC   D2A76444  12.991  11.375   6.759
 6110POPC   C3A76445  12.998  11.068   7.121
 6110POPC   C4A76446  12.765  11.015   7.481
 6110POPC   C1B76447  12.875  11.791   6.464
 6110POPC   C2B76448  12.548  11.645   6.757
 6110POPC   C3B76449  12.612  11.440   7.153
 6110POPC   C4B76450  12.583  11.483   7.595
 6111POPC   NC376451  31.772   6.832   5.497
 6111POPC   PO476452  31.540   6.267   5.526
 6111POPC   GL176453  31.519   6.532   5.853
 6111POPC   GL276454  31.858   6.495   5.876
 6111POPC   C1A76455  31.331   6.782   6.177
 6111POPC   D2A76456  31.203   6.623   6.567
 6111POPC   C3A76457  31.242   6.791   6.948
 6111POPC   C4A76458  31.272   6.622   7.350
 6111POPC   C1B76459  31.815   6.633   6.295
 6111POPC   C2B76460  31.689   6.592   6.715
 6111POPC   C3B76461  31.726   6.701   7.134
 6111POPC   C4B76462  31.746   6.722   7.559
 6112POPC   NC376463  41.427  40.996   5.311
 6112POPC   PO476464  41.724  40.457   5.184
 6112POPC   GL176465  41.704  40.699   5.646
 6112POPC   GL276466  41.445  40.957   5.800
 6112POPC   C1A76467  41.793  40.821   6.124
 6112POPC   D2A76468  41.809  41.012   6.533
 6112POPC   C3A76469  41.584  40.841   6.886
 6112POPC   C4A76470  41.712  40.724   7.293
 6112POPC   C1B76471  41.208  41.168   6.103
 6112POPC   C2B76472  41.294  41.108   6.519
 6112POPC   C3B76473  41.072  41.016   6.865
 6112POPC   C4B76474  41.270  41.028   7.248
 6113POPC   NC376475   9.616   3.885   5.334
 6113POPC   PO476476  10.148   3.378   5.424
 6113POPC   GL176477   9.864   3.612   5.751
 6113POPC   GL276478   9.482   3.651   5.790
 6113POPC   C1A76479   9.851   3.773   6.201
 6113POPC   D2A76480   9.972   3.560   6.587
 6113POPC   C3A76481   9.735   3.412   6.912
 6113POPC   C4A76482   9.958   3.626   7.219
 6113POPC   C1B76483   9.416   3.477   6.200
 6113POPC   C2B76484   9.455   3.707   6.593
 6113POPC   C3B76485   9.469   3.820   7.033
 6113POPC   C4B76486   9.449   3.537   7.385
 6114POPC   NC376487  39.964  21.887   5.524
 6114POPC   PO476488  39.726  22.485   5.486
 6114POPC   GL176489  39.924  22.356   5.901
 6114POPC   GL276490  40.273  22.412   5.883
 6114POPC   C1A76491  40.132  22.101   6.260
 6114POPC   D2A76492  40.082  21.880   6.664
 6114POPC   C3A76493  39.950  22.151   7.007
 6114POPC   C4A76494  39.711  22.110   7.406
 6114POPC   C1B76495  40.269  22.623   6.279
 6114POPC   C2B76496  40.284  22.405   6.676
 6114POPC   C3B76497  40.356  22.434   7.110
 6114POPC   C4B76498  40.202  22.251   7.492
 6115POPC   NC376499  20.300  27.559   5.309
 6115POPC   PO476500  19.674  27.732   5.318
 6115POPC   GL176501  19.781  27.749   5.725
 6115POPC   GL276502  20.126  27.835   5.730
 6115POPC   C1A76503  19.653  27.634   6.164
 6115POPC   D2A76504  19.885  27.364   6.434
 6115POPC   C3A76505  19.902  27.428   6.868
 6115POPC   C4A76506  19.578  27.454   7.142
 6115POPC   C1B76507  20.165  27.711   6.175
 6115POPC   C2B76508  20.263  27.767   6.627
 6115POPC   C3B76509  20.287  27.684   7.093
 6115POPC   C4B76510  20.168  27.975   7.401
 6116POPC   NC376511   3.767  17.840   5.518
 6116POPC   PO476512   3.325  17.351   5.484
 6116POPC   GL176513   3.507  17.467   5.921
 6116POPC   GL276514   3.853  17.498   5.893
 6116POPC   C1A76515   3.665  17.464   6.394
 6116POPC   D2A76516   3.719  17.207   6.783
 6116POPC   C3A76517   3.426  17.247   7.097
 6116POPC   C4A76518   3.076  17.557   7.095
 6116POPC   C1B76519   3.898  17.880   6.169
 6116POPC   C2B76520   3.735  17.976   6.591
 6116POPC   C3B76521   3.557  17.697   6.897
 6116POPC   C4B76522   3.737  17.608   7.314
 6117POPC   NC376523   0.267  25.424   5.345
 6117POPC   PO476524   0.783  24.981   5.354
 6117POPC   GL176525   0.667  25.220   5.735
 6117POPC   GL276526   0.888  24.986   5.884
 6117POPC   C1A76527   0.411  25.311   6.129
 6117POPC   D2A76528   0.464  25.211   6.588
 6117POPC   C3A76529   0.093  25.179   6.853
 6117POPC   C4A76530   0.100  25.541   7.108
 6117POPC   C1B76531   0.754  24.899   6.286
 6117POPC   C2B76532   0.953  25.031   6.668
 6117POPC   C3B76533   0.796  24.939   7.069
 6117POPC   C4B76534   0.407  25.092   7.247
 6118POPC   NC376535  12.614   6.747   5.442
 6118POPC   PO476536  13.226   6.371   5.314
 6118POPC   GL176537  12.989   6.426   5.710
 6118POPC   GL276538  13.203   6.687   5.843
 6118POPC   C1A76539  12.779   6.559   6.128
 6118POPC   D2A76540  12.688   6.691   6.562
 6118POPC   C3A76541  12.743   6.572   6.978
 6118POPC   C4A76542  12.541   6.391   7.372
 6118POPC   C1B76543  13.109   6.972   6.194
 6118POPC   C2B76544  13.124   7.125   6.625
 6118POPC   C3B76545  13.134   6.918   7.045
 6118POPC   C4B76546  13.051   6.599   7.370
 6119POPC   NC376547  21.850  22.493   5.466
 6119POPC   PO476548  21.296  22.099   5.523
 6119POPC   GL176549  21.534  22.155   5.876
 6119POPC   GL276550  21.551  22.514   5.938
 6119POPC   C1A76551  21.354  22.172   6.286
 6119POPC   D2A76552  21.084  22.094   6.587
 6119POPC   C3A76553  21.265  22.003   6.949
 6119POPC   C4A76554  21.369  22.221   7.270
 6119POPC   C1B76555  21.799  22.393   6.324
 6119POPC   C2B76556  21.688  22.289   6.744
 6119POPC   C3B76557  21.703  22.555   7.091
 6119POPC   C4B76558  21.739  22.506   7.528
 6120POPC   NC376559  38.027  34.706   5.506
 6120POPC   PO476560  37.625  34.239   5.437
 6120POPC   GL176561  37.678  34.451   5.835
 6120POPC   GL276562  37.470  34.743   5.762
 6120POPC   C1A76563  38.031  34.494   6.156
 6120POPC   D2A76564  38.090  34.641   6.590
 6120POPC   C3A76565  37.725  34.500   6.822
 6120POPC   C4A76566  37.657  34.351   7.241
 6120POPC   C1B76567  37.667  34.857   6.186
 6120POPC   C2B76568  37.726  35.045   6.599
 6120POPC   C3B76569  37.578  34.982   7.006
 6120POPC   C4B76570  37.512  34.819   7.395
 6121POPC   NC376571  20.866  28.469   5.395
 6121POPC   PO476572  20.381  28.001   5.303
 6121POPC   GL176573  20.559  28.134   5.751
 6121POPC   GL276574  20.908  28.271   5.875
 6121POPC   C1A76575  20.445  28.131   6.214
 6121POPC   D2A76576  20.266  28.351   6.565
 6121POPC   C3A76577  20.382  28.183   6.962
 6121POPC   C4A76578  20.845  28.120   7.069
 6121POPC   C1B76579  20.772  28.527   6.243
 6121POPC   C2B76580  20.716  28.572   6.694
 6121POPC   C3B76581  20.637  28.597   7.109
 6121POPC   C4B76582  20.909  28.650   7.441
 6122POPC   NC376583  21.583   3.194   5.320
 6122POPC   PO476584  21.079   3.637   5.249
 6122POPC   GL176585  21.210   3.610   5.735
 6122POPC   GL276586  21.443   3.872   5.885
 6122POPC   C1A76587  21.406   3.438   6.144
 6122POPC   D2A76588  21.564   3.634   6.526
 6122POPC   C3A76589  21.553   3.384   6.901
 6122POPC   C4A76590  21.448   3.413   7.335
 6122POPC   C1B76591  21.153   3.886   6.244
 6122POPC   C2B76592  21.145   3.907   6.676
 6122POPC   C3B76593  21.395   3.860   7.018
 6122POPC   C4B76594  21.195   4.070   7.326
 6123POPC   NC376595  27.182  25.534   5.427
 6123POPC   PO476596  26.748  26.124   5.362
 6123POPC   GL176597  26.699  25.904   5.705
 6123POPC   GL276598  27.005  25.891   5.755
 6123POPC   C1A76599  26.693  26.001   6.159
 6123POPC   D2A76600  26.788  26.236   6.541
 6123POPC   C3A76601  26.715  26.062   6.903
 6123POPC   C4A76602  26.597  26.023   7.289
 6123POPC   C1B76603  27.146  25.756   6.125
 6123POPC   C2B76604  27.235  26.002   6.457
 6123POPC   C3B76605  27.215  25.994   6.889
 6123POPC   C4B76606  27.089  25.747   7.250
 6124POPC   NC376607  34.368  43.828   5.485
 6124POPC   PO476608  35.001  43.693   5.437
 6124POPC   GL176609  34.762  43.602   5.789
 6124POPC   GL276610  34.663  43.968   5.863
 6124POPC   C1A76611  34.624  43.629   6.216
 6124POPC   D2A76612  34.689  43.955   6.499
 6124POPC   C3A76613  34.478  43.809   6.865
 6124POPC   C4A76614  34.520  43.828   7.302
 6124POPC   C1B76615  34.287  44.033   6.181
 6124POPC   C2B76616  34.218  44.203   6.628
 6124POPC   C3B76617  34.274  44.246   7.087
 6124POPC   C4B76618  34.278  44.198   7.561
 6125POPC   NC376619  33.692  32.769   5.371
 6125POPC   PO476620  33.846  33.392   5.554
 6125POPC   GL176621  33.817  33.051   5.845
 6125POPC   GL276622  33.498  32.923   5.840
 6125POPC   C1A76623  34.084  32.852   6.163
 6125POPC   D2A76624  34.355  32.827   6.550
 6125POPC   C3A76625  34.081  32.757   6.886
 6125POPC   C4A76626  33.888  33.025   7.149
 6125POPC   C1B76627  33.514  32.852   6.295
 6125POPC   C2B76628  33.568  32.955   6.741
 6125POPC   C3B76629  33.389  32.978   7.153
 6125POPC   C4B76630  33.306  32.647   7.458
 6126POPC   NC376631   9.795  39.339   5.392
 6126POPC   PO476632  10.105  38.874   5.669
 6126POPC   GL176633   9.864  39.187   5.874
 6126POPC   GL276634   9.494  39.244   5.794
 6126POPC   C1A76635   9.714  39.229   6.268
 6126POPC   D2A76636   9.760  39.441   6.625
 6126POPC   C3A76637   9.813  39.255   7.020
 6126POPC   C4A76638  10.102  39.063   7.257
 6126POPC   C1B76639   9.287  39.006   6.127
 6126POPC   C2B76640   9.311  39.136   6.574
 6126POPC   C3B76641   9.386  38.977   6.994
 6126POPC   C4B76642   9.455  39.180   7.403
 6127POPC   NC376643  34.073  24.656   5.181
 6127POPC   PO476644  33.482  24.451   5.385
 6127POPC   GL176645  33.738  24.518   5.772
 6127POPC   GL276646  34.098  24.549   5.698
 6127POPC   C1A76647  33.911  24.608   6.192
 6127POPC   D2A76648  33.789  24.699   6.632
 6127POPC   C3A76649  33.939  24.564   7.032
 6127POPC   C4A76650  33.825  24.168   7.243
 6127POPC   C1B76651  34.215  24.243   6.033
 6127POPC   C2B76652  34.209  24.285   6.499
 6127POPC   C3B76653  34.263  24.183   6.940
 6127POPC   C4B76654  34.431  24.483   7.234
 6128POPC   NC376655  24.009  42.137   5.414
 6128POPC   PO476656  23.739  42.731   5.385
 6128POPC   GL176657  23.630  42.480   5.767
 6128POPC   GL276658  23.772  42.194   5.854
 6128POPC   C1A76659  23.377  42.598   6.119
 6128POPC   D2A76660  23.270  42.395   6.491
 6128POPC   C3A76661  23.382  42.495   6.898
 6128POPC   C4A76662  23.573  42.344   7.242
 6128POPC   C1B76663  23.662  42.180   6.259
 6128POPC   C2B76664  23.575  41.995   6.657
 6128POPC   C3B76665  23.828  41.911   6.976
 6128POPC   C4B76666  23.802  41.938   7.397
 6129POPC   NC376667  18.800  35.537   5.526
 6129POPC   PO476668  18.874  34.923   5.428
 6129POPC   GL176669  19.080  35.112   5.810
 6129POPC   GL276670  19.287  35.441   5.788
 6129POPC   C1A76671  19.031  35.300   6.225
 6129POPC   D2A76672  19.125  35.199   6.653
 6129POPC   C3A76673  18.863  35.194   7.021
 6129POPC   C4A76674  19.096  35.003   7.397
 6129POPC   C1B76675  19.462  35.604   6.199
 6129POPC   C2B76676  19.359  35.778   6.618
 6129POPC   C3B76677  19.298  35.545   7.000
 6129POPC   C4B76678  19.041  35.528   7.361
 6130POPC   NC376679  12.663  18.690   5.534
 6130POPC   PO476680  12.736  17.993   5.367
 6130POPC   GL176681  12.975  18.130   5.744
 6130POPC   GL276682  13.096  18.483   5.756
 6130POPC   C1A76683  12.948  18.016   6.198
 6130POPC   D2A76684  13.126  18.184   6.590
 6130POPC   C3A76685  12.913  18.095   6.967
 6130POPC   C4A76686  12.776  18.348   7.325
 6130POPC   C1B76687  12.939  18.521   6.181
 6130POPC   C2B76688  12.795  18.629   6.597
 6130POPC   C3B76689  12.984  18.616   6.979
 6130POPC   C4B76690  13.154  18.729   7.413
 6131POPC   NC376691  37.757  17.828   5.196
 6131POPC   PO476692  37.484  17.212   5.452
 6131POPC   GL176693  37.671  17.508   5.768
 6131POPC   GL276694  37.933  17.319   5.913
 6131POPC   C1A76695  37.699  17.621   6.243
 6131POPC   D2A76696  37.835  17.300   6.565
 6131POPC   C3A76697  37.933  17.478   6.967
 6131POPC   C4A76698  37.738  17.885   7.116
 6131POPC   C1B76699  37.534  17.153   6.147
 6131POPC   C2B76700  37.307  17.306   6.523
 6131POPC   C3B76701  37.451  17.275   6.951
 6131POPC   C4B76702  37.196  17.237   7.305
 6132POPC   NC376703  20.504   1.702   4.963
 6132POPC   PO476704  20.770   2.160   5.423
 6132POPC   GL176705  20.544   2.081   5.784
 6132POPC   GL276706  20.683   2.312   5.999
 6132POPC   C1A76707  20.585   1.838   6.187
 6132POPC   D2A76708  20.856   1.712   6.534
 6132POPC   C3A76709  20.675   1.625   6.947
 6132POPC   C4A76710  20.309   1.722   7.209
 6132POPC   C1B76711  20.740   2.641   6.274
 6132POPC   C2B76712  20.831   2.675   6.687
 6132POPC   C3B76713  20.664   2.408   6.966
 6132POPC   C4B76714  20.651   2.074   7.192
 6133POPC   NC376715  28.767   6.065   5.672
 6133POPC   PO476716  28.257   5.789   5.426
 6133POPC   GL176717  28.452   5.687   5.843
 6133POPC   GL276718  28.380   6.021   6.001
 6133POPC   C1A76719  28.715   5.727   6.260
 6133POPC   D2A76720  28.759   5.769   6.726
 6133POPC   C3A76721  28.356   5.674   6.939
 6133POPC   C4A76722  28.172   5.857   7.294
 6133POPC   C1B76723  28.667   6.306   6.271
 6133POPC   C2B76724  28.821   6.316   6.705
 6133POPC   C3B76725  28.573   6.133   7.055
 6133POPC   C4B76726  28.588   6.120   7.506
 6134POPC   NC376727  40.314  18.465   5.396
 6134POPC   PO476728  39.735  18.078   5.439
 6134POPC   GL176729  39.996  18.184   5.749
 6134POPC   GL276730  39.887  18.511   5.825
 6134POPC   C1A76731  40.051  18.169   6.187
 6134POPC   D2A76732  40.207  18.420   6.510
 6134POPC   C3A76733  40.095  18.311   6.924
 6134POPC   C4A76734  39.772  18.177   7.175
 6134POPC   C1B76735  39.774  18.630   6.274
 6134POPC   C2B76736  39.880  18.764   6.710
 6134POPC   C3B76737  39.768  18.678   7.156
 6134POPC   C4B76738  39.681  18.638   7.609
 6135POPC   NC376739  32.679   9.919   5.143
 6135POPC   PO476740  32.004   9.912   5.389
 6135POPC   GL176741  32.205   9.659   5.734
 6135POPC   GL276742  32.507   9.842   5.837
 6135POPC   C1A76743  32.272   9.592   6.209
 6135POPC   D2A76744  32.048   9.830   6.553
 6135POPC   C3A76745  32.154   9.851   7.009
 6135POPC   C4A76746  32.125   9.436   7.205
 6135POPC   C1B76747  32.522  10.018   6.280
 6135POPC   C2B76748  32.565   9.774   6.698
 6135POPC   C3B76749  32.593   9.613   7.152
 6135POPC   C4B76750  32.489   9.822   7.535
 6136POPC   NC376751   1.749   1.359   5.102
 6136POPC   PO476752   2.180   0.929   5.437
 6136POPC   GL176753   2.056   1.179   5.787
 6136POPC   GL276754   1.820   1.430   5.731
 6136POPC   C1A76755   1.922   1.100   6.199
 6136POPC   D2A76756   2.113   0.904   6.539
 6136POPC   C3A76757   2.055   1.156   6.855
 6136POPC   C4A76758   2.182   1.293   7.211
 6136POPC   C1B76759   1.599   1.511   6.147
 6136POPC   C2B76760   1.612   1.375   6.588
 6136POPC   C3B76761   1.632   1.419   7.004
 6136POPC   C4B76762   1.673   1.109   7.272
 6137POPC   NC376763  31.258  11.430   5.430
 6137POPC   PO476764  31.916  11.526   5.331
 6137POPC   GL176765  31.654  11.267   5.712
 6137POPC   GL276766  31.329  11.042   5.761
 6137POPC   C1A76767  31.398  11.417   6.101
 6137POPC   D2A76768  31.492  11.520   6.521
 6137POPC   C3A76769  31.431  11.256   6.848
 6137POPC   C4A76770  31.377  11.300   7.256
 6137POPC   C1B76771  31.065  11.016   6.174
 6137POPC   C2B76772  31.144  10.884   6.628
 6137POPC   C3B76773  30.936  10.977   7.044
 6137POPC   C4B76774  31.045  10.925   7.513
 6138POPC   NC376775  23.839  38.081   5.537
 6138POPC   PO476776  23.564  37.546   5.209
 6138POPC   GL176777  23.900  37.575   5.606
 6138POPC   GL276778  24.121  37.854   5.870
 6138POPC   C1A76779  23.925  37.440   6.051
 6138POPC   D2A76780  23.717  37.656   6.406
 6138POPC   C3A76781  23.819  37.824   6.793
 6138POPC   C4A76782  23.743  37.732   7.203
 6138POPC   C1B76783  24.000  38.073   6.275
 6138POPC   C2B76784  24.227  38.088   6.688
 6138POPC   C3B76785  24.112  38.168   7.144
 6138POPC   C4B76786  24.008  37.966   7.558
 6139POPC   NC376787  28.144   5.347   5.402
 6139POPC   PO476788  28.601   4.870   5.260
 6139POPC   GL176789  28.502   5.092   5.713
 6139POPC   GL276790  28.202   5.228   5.900
 6139POPC   C1A76791  28.697   5.231   6.131
 6139POPC   D2A76792  28.513   5.313   6.570
 6139POPC   C3A76793  28.700   5.291   7.010
 6139POPC   C4A76794  28.388   5.377   7.377
 6139POPC   C1B76795  28.344   4.870   6.183
 6139POPC   C2B76796  28.256   4.812   6.610
 6139POPC   C3B76797  28.236   5.081   6.973
 6139POPC   C4B76798  27.942   5.386   7.111
 6140POPC   NC376799  17.702  34.000   5.211
 6140POPC   PO476800  17.091  33.932   5.243
 6140POPC   GL176801  17.358  33.853   5.665
 6140POPC   GL276802  17.604  33.615   5.725
 6140POPC   C1A76803  17.573  33.957   6.124
 6140POPC   D2A76804  17.733  33.795   6.538
 6140POPC   C3A76805  17.571  33.857   6.976
 6140POPC   C4A76806  17.518  33.603   7.397
 6140POPC   C1B76807  17.348  33.499   6.104
 6140POPC   C2B76808  17.461  33.364   6.531
 6140POPC   C3B76809  17.344  33.401   6.955
 6140POPC   C4B76810  17.024  33.389   7.272
 6141POPC   NC376811  42.913  20.914   5.289
 6141POPC   PO476812  43.448  20.702   5.336
 6141POPC   GL176813  43.119  20.644   5.707
 6141POPC   GL276814  42.813  20.854   5.776
 6141POPC   C1A76815  43.112  20.568   6.175
 6141POPC   D2A76816  43.286  20.385   6.594
 6141POPC   C3A76817  43.251  20.479   7.079
 6141POPC   C4A76818  43.458  20.627   7.468
 6141POPC   C1B76819  42.658  20.824   6.166
 6141POPC   C2B76820  42.778  20.703   6.550
 6141POPC   C3B76821  43.027  20.865   6.840
 6141POPC   C4B76822  42.927  20.865   7.258
 6142POPC   NC376823  14.068  25.136   5.486
 6142POPC   PO476824  14.685  25.407   5.373
 6142POPC   GL176825  14.488  25.248   5.758
 6142POPC   GL276826  14.210  25.462   5.838
 6142POPC   C1A76827  14.277  25.053   6.161
 6142POPC   D2A76828  14.181  25.195   6.605
 6142POPC   C3A76829  14.547  25.159   6.872
 6142POPC   C4A76830  14.678  24.994   7.285
 6142POPC   C1B76831  14.489  25.520   6.187
 6142POPC   C2B76832  14.390  25.681   6.572
 6142POPC   C3B76833  14.200  25.631   6.948
 6142POPC   C4B76834  14.557  25.579   7.201
 6143POPC   NC376835  19.854  32.321   5.417
 6143POPC   PO476836  19.445  31.831   5.327
 6143POPC   GL176837  19.686  31.970   5.746
 6143POPC   GL276838  19.654  32.351   5.874
 6143POPC   C1A76839  19.849  31.814   6.154
 6143POPC   D2A76840  20.075  31.847   6.569
 6143POPC   C3A76841  19.847  31.850   6.969
 6143POPC   C4A76842  19.922  31.814   7.407
 6143POPC   C1B76843  19.925  32.301   6.260
 6143POPC   C2B76844  19.938  32.303   6.715
 6143POPC   C3B76845  19.968  32.309   7.151
 6143POPC   C4B76846  19.588  32.416   7.331
 6144POPC   NC376847  17.270   5.655   5.040
 6144POPC   PO476848  17.478   6.212   5.328
 6144POPC   GL176849  17.425   6.025   5.814
 6144POPC   GL276850  17.403   5.666   5.867
 6144POPC   C1A76851  17.478   5.916   6.316
 6144POPC   D2A76852  17.273   5.649   6.678
 6144POPC   C3A76853  17.453   5.675   7.102
 6144POPC   C4A76854  17.866   5.829   7.100
 6144POPC   C1B76855  17.720   5.485   6.181
 6144POPC   C2B76856  17.803   5.602   6.627
 6144POPC   C3B76857  17.829   5.329   6.988
 6144POPC   C4B76858  17.781   5.406   7.444
 6145POPC   NC376859   8.855  27.769   5.398
 6145POPC   PO476860   9.016  27.157   5.429
 6145POPC   GL176861   8.861  27.391   5.816
 6145POPC   GL276862   8.767  27.737   5.904
 6145POPC   C1A76863   8.933  27.387   6.277
 6145POPC   D2A76864   9.224  27.583   6.617
 6145POPC   C3A76865   9.160  27.654   7.091
 6145POPC   C4A76866   8.945  27.515   7.509
 6145POPC   C1B76867   8.850  27.879   6.369
 6145POPC   C2B76868   8.733  27.708   6.775
 6145POPC   C3B76869   8.646  27.780   7.211
 6145POPC   C4B76870   8.626  27.891   7.655
 6146POPC   NC376871  14.645  11.809   5.402
 6146POPC   PO476872  14.202  12.286   5.436
 6146POPC   GL176873  14.511  12.167   5.756
 6146POPC   GL276874  14.431  12.416   5.972
 6146POPC   C1A76875  14.652  11.904   6.102
 6146POPC   D2A76876  14.435  11.787   6.488
 6146POPC   C3A76877  14.490  12.052   6.830
 6146POPC   C4A76878  14.580  11.802   7.160
 6146POPC   C1B76879  14.160  12.076   6.152
 6146POPC   C2B76880  13.939  11.986   6.557
 6146POPC   C3B76881  14.002  12.019   6.994
 6146POPC   C4B76882  14.251  12.340   7.177
 6147POPC   NC376883  26.330  13.672   5.060
 6147POPC   PO476884  25.820  13.391   5.499
 6147POPC   GL176885  25.958  13.459   5.897
 6147POPC   GL276886  25.851  13.786   5.976
 6147POPC   C1A76887  25.965  13.341   6.317
 6147POPC   D2A76888  25.721  13.655   6.519
 6147POPC   C3A76889  25.831  13.709   6.943
 6147POPC   C4A76890  26.119  13.430   7.137
 6147POPC   C1B76891  26.232  13.763   6.257
 6147POPC   C2B76892  26.322  13.673   6.706
 6147POPC   C3B76893  26.263  13.941   7.091
 6147POPC   C4B76894  26.058  13.849   7.478
 6148POPC   NC376895  15.545   6.418   5.125
 6148POPC   PO476896  14.932   6.741   5.315
 6148POPC   GL176897  15.148   6.716   5.721
 6148POPC   GL276898  14.825   6.684   5.844
 6148POPC   C1A76899  15.359   6.728   6.160
 6148POPC   D2A76900  15.494   6.939   6.559
 6148POPC   C3A76901  15.503   6.766   6.966
 6148POPC   C4A76902  15.359   6.839   7.356
 6148POPC   C1B76903  14.682   6.840   6.236
 6148POPC   C2B76904  14.634   6.623   6.613
 6148POPC   C3B76905  14.869   6.629   7.022
 6148POPC   C4B76906  14.824   6.310   7.329
 6149POPC   NC376907   0.775  22.067   5.630
 6149POPC   PO476908   0.172  22.349   5.477
 6149POPC   GL176909   0.270  22.191   5.857
 6149POPC   GL276910   0.503  22.456   5.888
 6149POPC   C1A76911   0.158  22.227   6.302
 6149POPC   D2A76912   0.042  22.129   6.738
 6149POPC   C3A76913   0.248  22.224   7.082
 6149POPC   C4A76914   0.257  21.862   7.338
 6149POPC   C1B76915   0.659  22.314   6.263
 6149POPC   C2B76916   0.548  22.150   6.647
 6149POPC   C3B76917   0.732  22.058   7.033
 6149POPC   C4B76918   0.697  22.064   7.440
 6150POPC   NC376919  38.110  29.622   5.518
 6150POPC   PO476920  38.543  30.015   5.277
 6150POPC   GL176921  38.602  29.967   5.753
 6150POPC   GL276922  38.864  29.762   5.833
 6150POPC   C1A76923  38.445  30.137   6.169
 6150POPC   D2A76924  38.423  30.291   6.595
 6150POPC   C3A76925  38.310  30.076   6.971
 6150POPC   C4A76926  38.228  30.300   7.315
 6150POPC   C1B76927  38.530  29.639   6.164
 6150POPC   C2B76928  38.713  29.827   6.493
 6150POPC   C3B76929  38.802  29.695   6.841
 6150POPC   C4B76930  38.631  29.726   7.168
 6151POPC   NC376931  31.780   9.513   5.308
 6151POPC   PO476932  31.142   9.406   5.425
 6151POPC   GL176933  31.323   9.676   5.758
 6151POPC   GL276934  31.688   9.717   5.758
 6151POPC   C1A76935  31.442   9.928   6.141
 6151POPC   D2A76936  31.577  10.036   6.557
 6151POPC   C3A76937  31.312   9.871   6.882
 6151POPC   C4A76938  31.277  10.027   7.277
 6151POPC   C1B76939  31.775   9.512   6.158
 6151POPC   C2B76940  31.595   9.543   6.556
 6151POPC   C3B76941  31.724   9.601   6.949
 6151POPC   C4B76942  31.579   9.630   7.360
 6152POPC   NC376943  26.965  12.096   5.483
 6152POPC   PO476944  26.416  11.723   5.483
 6152POPC   GL176945  26.644  11.883   5.832
 6152POPC   GL276946  26.663  12.266   5.872
 6152POPC   C1A76947  26.842  11.734   6.196
 6152POPC   D2A76948  26.803  11.918   6.606
 6152POPC   C3A76949  26.611  11.786   6.967
 6152POPC   C4A76950  26.855  11.761   7.344
 6152POPC   C1B76951  26.976  12.247   6.217
 6152POPC   C2B76952  27.006  12.388   6.662
 6152POPC   C3B76953  26.810  12.239   7.051
 6152POPC   C4B76954  26.636  12.227   7.465
 6153POPC   NC376955   6.047  39.471   5.190
 6153POPC   PO476956   5.472  39.219   5.367
 6153POPC   GL176957   5.797  39.253   5.702
 6153POPC   GL276958   6.007  39.568   5.750
 6153POPC   C1A76959   5.733  39.194   6.152
 6153POPC   D2A76960   5.556  39.231   6.555
 6153POPC   C3A76961   5.789  39.161   6.933
 6153POPC   C4A76962   6.135  38.895   6.987
 6153POPC   C1B76963   6.196  39.379   6.149
 6153POPC   C2B76964   6.170  39.228   6.579
 6153POPC   C3B76965   6.169  39.496   6.950
 6153POPC   C4B76966   6.029  39.440   7.341
 6154POPC   NC376967   7.458  36.709   5.491
 6154POPC   PO476968   7.365  37.386   5.184
 6154POPC   GL176969   7.327  37.223   5.653
 6154POPC   GL276970   7.599  37.287   5.896
 6154POPC   C1A76971   7.179  37.025   6.062
 6154POPC   D2A76972   7.189  37.035   6.541
 6154POPC   C3A76973   7.289  36.829   6.937
 6154POPC   C4A76974   7.188  37.021   7.329
 6154POPC   C1B76975   7.833  37.460   6.278
 6154POPC   C2B76976   7.869  37.381   6.711
 6154POPC   C3B76977   7.860  37.072   7.038
 6154POPC   C4B76978   7.667  37.083   7.436
 6155POPC   NC376979  17.430   0.077   4.967
 6155POPC   PO476980  17.288  44.544   5.426
 6155POPC   GL176981  17.456  44.611   5.843
 6155POPC   GL276982  17.278  44.312   5.900
 6155POPC   C1A76983  17.693  44.716   6.232
 6155POPC   D2A76984  17.568  44.915   6.626
 6155POPC   C3A76985  17.730  44.790   7.043
 6155POPC   C4A76986  18.006  44.873   7.404
 6155POPC   C1B76987  17.222  44.499   6.288
 6155POPC   C2B76988  17.093  44.262   6.628
 6155POPC   C3B76989  17.023  44.483   6.958
 6155POPC   C4B76990  17.244  44.716   7.237
 6156POPC   NC376991  29.520  27.259   5.496
 6156POPC   PO476992  30.069  27.800   5.438
 6156POPC   GL176993  30.265  27.662   5.805
 6156POPC   GL276994  30.014  27.394   5.808
 6156POPC   C1A76995  30.154  27.639   6.251
 6156POPC   D2A76996  29.879  27.746   6.578
 6156POPC   C3A76997  30.054  27.759   6.984
 6156POPC   C4A76998  29.795  27.804   7.332
 6156POPC   C1B76999  29.704  27.362   6.165
 6156POPC   C2B77000  29.746  27.232   6.604
 6156POPC   C3B77001  29.653  27.417   6.982
 6156POPC   C4B77002  29.905  27.311   7.330
 6157POPC   NC377003  30.362  41.361   5.555
 6157POPC   PO477004  30.696  40.841   5.537
 6157POPC   GL177005  30.604  40.698   5.935
 6157POPC   GL277006  30.620  40.314   5.962
 6157POPC   C1A77007  30.678  40.965   6.304
 6157POPC   D2A77008  30.880  40.867   6.691
 6157POPC   C3A77009  30.649  41.000   7.038
 6157POPC   C4A77010  30.357  40.875   7.330
 6157POPC   C1B77011  30.587  40.482   6.407
 6157POPC   C2B77012  30.558  40.510   6.862
 6157POPC   C3B77013  30.857  40.508   7.155
 6157POPC   C4B77014  30.818  40.621   7.536
 6158POPC   NC377015  20.862  41.804   5.278
 6158POPC   PO477016  20.457  41.323   5.194
 6158POPC   GL177017  20.620  41.422   5.635
 6158POPC   GL277018  20.746  41.752   5.783
 6158POPC   C1A77019  20.591  41.356   6.095
 6158POPC   D2A77020  20.760  41.197   6.493
 6158POPC   C3A77021  20.472  41.132   6.836
 6158POPC   C4A77022  20.584  41.318   7.215
 6158POPC   C1B77023  20.663  41.974   6.186
 6158POPC   C2B77024  20.597  42.119   6.603
 6158POPC   C3B77025  20.747  42.093   6.979
 6158POPC   C4B77026  20.769  41.782   7.242
 6159POPC   NC377027  31.831  32.302   5.626
 6159POPC   PO477028  31.313  32.111   5.257
 6159POPC   GL177029  31.318  32.224   5.736
 6159POPC   GL277030  31.528  31.976   5.889
 6159POPC   C1A77031  31.490  32.539   6.104
 6159POPC   D2A77032  31.539  32.699   6.554
 6159POPC   C3A77033  31.402  32.522   6.970
 6159POPC   C4A77034  31.192  32.199   7.199
 6159POPC   C1B77035  31.305  32.124   6.275
 6159POPC   C2B77036  31.451  32.115   6.674
 6159POPC   C3B77037  31.673  32.064   7.075
 6159POPC   C4B77038  31.817  31.941   7.462
 6160POPC   NC377039  27.853  40.984   5.153
 6160POPC   PO477040  27.373  40.626   5.437
 6160POPC   GL177041  27.552  40.912   5.731
 6160POPC   GL277042  27.681  40.656   5.920
 6160POPC   C1A77043  27.492  41.077   6.165
 6160POPC   D2A77044  27.588  41.118   6.599
 6160POPC   C3A77045  27.407  40.916   6.957
 6160POPC   C4A77046  27.493  40.879   7.433
 6160POPC   C1B77047  27.896  40.764   6.299
 6160POPC   C2B77048  27.859  40.694   6.735
 6160POPC   C3B77049  27.898  40.913   7.103
 6160POPC   C4B77050  27.991  40.760   7.504
 6161POPC   NC377051  17.924   7.138   5.490
 6161POPC   PO477052  17.278   7.225   5.151
 6161POPC   GL177053  17.273   7.472   5.602
 6161POPC   GL277054  17.609   7.600   5.741
 6161POPC   C1A77055  17.176   7.542   6.074
 6161POPC   D2A77056  17.266   7.289   6.444
 6161POPC   C3A77057  17.206   7.378   6.877
 6161POPC   C4A77058  17.260   7.635   7.231
 6161POPC   C1B77059  17.618   7.241   6.070
 6161POPC   C2B77060  17.733   7.017   6.468
 6161POPC   C3B77061  17.703   7.153   6.908
 6161POPC   C4B77062  17.754   7.554   7.111
 6162POPC   NC377063  35.444  22.940   5.256
 6162POPC   PO477064  34.806  22.628   5.445
 6162POPC   GL177065  35.223  22.612   5.695
 6162POPC   GL277066  35.564  22.837   5.755
 6162POPC   C1A77067  35.329  22.644   6.150
 6162POPC   D2A77068  35.176  22.965   6.391
 6162POPC   C3A77069  35.372  23.083   6.746
 6162POPC   C4A77070  35.183  23.124   7.154
 6162POPC   C1B77071  35.645  23.118   6.181
 6162POPC   C2B77072  35.869  23.230   6.615
 6162POPC   C3B77073  35.734  23.168   7.077
 6162POPC   C4B77074  35.540  22.749   7.167
 6163POPC   NC377075  43.683  28.287   5.356
 6163POPC   PO477076  44.266  28.617   5.456
 6163POPC   GL177077  43.990  28.578   5.830
 6163POPC   GL277078  43.786  28.275   5.863
 6163POPC   C1A77079  43.969  28.490   6.302
 6163POPC   D2A77080  43.688  28.166   6.507
 6163POPC   C3A77081  43.858  28.070   6.909
 6163POPC   C4A77082  44.188  28.309   7.098
 6163POPC   C1B77083  43.518  28.584   6.071
 6163POPC   C2B77084  43.477  28.640   6.503
 6163POPC   C3B77085  43.786  28.581   6.815
 6163POPC   C4B77086  43.698  28.513   7.236
 6164POPC   NC377087   7.045  34.035   5.619
 6164POPC   PO477088   6.487  33.609   5.502
 6164POPC   GL177089   6.760  33.663   5.820
 6164POPC   GL277090   6.585  33.993   5.868
 6164POPC   C1A77091   6.854  33.768   6.245
 6164POPC   D2A77092   7.022  33.457   6.482
 6164POPC   C3A77093   7.062  33.447   6.947
 6164POPC   C4A77094   6.898  33.739   7.272
 6164POPC   C1B77095   6.357  33.674   6.143
 6164POPC   C2B77096   6.489  33.562   6.530
 6164POPC   C3B77097   6.640  33.814   6.833
 6164POPC   C4B77098   6.338  33.779   7.151
 6165POPC   NC377099  17.013   7.926   5.532
 6165POPC   PO477100  16.642   8.481   5.497
 6165POPC   GL177101  16.759   8.248   5.851
 6165POPC   GL277102  17.110   8.345   5.846
 6165POPC   C1A77103  16.947   8.001   6.208
 6165POPC   D2A77104  17.075   8.118   6.637
 6165POPC   C3A77105  16.890   7.879   7.002
 6165POPC   C4A77106  16.567   7.828   7.348
 6165POPC   C1B77107  16.996   8.505   6.242
 6165POPC   C2B77108  16.616   8.587   6.484
 6165POPC   C3B77109  16.477   8.578   6.918
 6165POPC   C4B77110  16.730   8.311   7.202
 6166POPC   NC377111  24.468  28.777   5.348
 6166POPC   PO477112  24.741  29.403   5.465
 6166POPC   GL177113  24.692  29.069   5.755
 6166POPC   GL277114  24.356  29.089   5.750
 6166POPC   C1A77115  24.554  28.944   6.194
 6166POPC   D2A77116  24.714  29.089   6.592
 6166POPC   C3A77117  24.492  28.990   6.955
 6166POPC   C4A77118  24.704  28.801   7.291
 6166POPC   C1B77119  24.490  29.425   6.086
 6166POPC   C2B77120  24.320  29.403   6.514
 6166POPC   C3B77121  24.309  29.497   6.958
 6166POPC   C4B77122  24.328  29.284   7.366
 6167POPC   NC377123   3.484  35.970   5.322
 6167POPC   PO477124   2.847  36.101   5.455
 6167POPC   GL177125   2.862  36.113   5.894
 6167POPC   GL277126   2.773  35.763   5.927
 6167POPC   C1A77127   3.048  36.056   6.321
 6167POPC   D2A77128   3.094  35.957   6.784
 6167POPC   C3A77129   2.843  36.171   7.122
 6167POPC   C4A77130   2.651  36.264   7.549
 6167POPC   C1B77131   2.371  35.857   6.107
 6167POPC   C2B77132   2.183  35.931   6.498
 6167POPC   C3B77133   2.471  35.886   6.833
 6167POPC   C4B77134   2.550  35.756   7.234
 6168POPC   NC377135  31.651  34.299   5.520
 6168POPC   PO477136  31.182  34.770   5.418
 6168POPC   GL177137  31.294  34.579   5.785
 6168POPC   GL277138  31.602  34.762   5.780
 6168POPC   C1A77139  31.309  34.366   6.177
 6168POPC   D2A77140  31.242  34.620   6.538
 6168POPC   C3A77141  31.386  34.474   6.911
 6168POPC   C4A77142  31.239  34.455   7.277
 6168POPC   C1B77143  31.777  34.578   6.154
 6168POPC   C2B77144  31.767  34.454   6.558
 6168POPC   C3B77145  31.867  34.608   6.951
 6168POPC   C4B77146  31.924  34.474   7.347
 6169POPC   NC377147  17.709  22.465   5.493
 6169POPC   PO477148  17.357  22.039   5.155
 6169POPC   GL177149  17.415  22.048   5.649
 6169POPC   GL277150  17.693  22.169   5.892
 6169POPC   C1A77151  17.373  21.835   6.074
 6169POPC   D2A77152  17.224  22.017   6.468
 6169POPC   C3A77153  17.404  22.103   6.857
 6169POPC   C4A77154  17.220  22.364   7.167
 6169POPC   C1B77155  17.628  22.423   6.313
 6169POPC   C2B77156  17.620  22.562   6.771
 6169POPC   C3B77157  17.831  22.441   7.158
 6169POPC   C4B77158  17.642  22.201   7.473
 6170POPC   NC377159  17.757  42.723   5.417
 6170POPC   PO477160  18.197  43.253   5.225
 6170POPC   GL177161  18.266  43.191   5.673
 6170POPC   GL277162  17.935  43.096   5.726
 6170POPC   C1A77163  18.307  43.383   6.100
 6170POPC   D2A77164  18.565  43.415   6.491
 6170POPC   C3A77165  18.365  43.254   6.828
 6170POPC   C4A77166  18.265  43.347   7.211
 6170POPC   C1B77167  17.819  42.894   6.110
 6170POPC   C2B77168  17.971  42.889   6.548
 6170POPC   C3B77169  17.951  42.984   6.990
 6170POPC   C4B77170  17.827  42.794   7.362
 6171POPC   NC377171  42.449   3.332   5.250
 6171POPC   PO477172  42.223   3.972   5.477
 6171POPC   GL177173  42.259   3.577   5.685
 6171POPC   GL277174  41.947   3.409   5.745
 6171POPC   C1A77175  42.313   3.532   6.126
 6171POPC   D2A77176  42.536   3.390   6.491
 6171POPC   C3A77177  42.515   3.507   6.907
 6171POPC   C4A77178  42.670   3.816   7.160
 6171POPC   C1B77179  41.806   3.621   6.117
 6171POPC   C2B77180  41.983   3.494   6.520
 6171POPC   C3B77181  41.992   3.424   6.926
 6171POPC   C4B77182  42.162   3.596   7.271
 6172POPC   NC377183  32.421  31.958   5.479
 6172POPC   PO477184  32.124  32.636   5.516
 6172POPC   GL177185  32.348  32.399   5.784
 6172POPC   GL277186  32.095  32.486   6.031
 6172POPC   C1A77187  32.453  32.119   6.143
 6172POPC   D2A77188  32.262  31.953   6.518
 6172POPC   C3A77189  32.443  32.079   6.910
 6172POPC   C4A77190  32.300  31.990   7.312
 6172POPC   C1B77191  31.849  32.202   6.296
 6172POPC   C2B77192  31.921  32.316   6.708
 6172POPC   C3B77193  32.137  32.467   7.058
 6172POPC   C4B77194  32.050  32.426   7.481
 6173POPC   NC377195  11.149  28.291   5.309
 6173POPC   PO477196  11.686  27.955   5.439
 6173POPC   GL177197  11.477  28.297   5.763
 6173POPC   GL277198  11.105  28.293   5.826
 6173POPC   C1A77199  11.390  28.348   6.262
 6173POPC   D2A77200  11.468  28.076   6.673
 6173POPC   C3A77201  11.291  28.156   7.096
 6173POPC   C4A77202  11.014  28.164   7.472
 6173POPC   C1B77203  10.993  28.664   6.081
 6173POPC   C2B77204  11.081  28.741   6.490
 6173POPC   C3B77205  11.185  28.638   6.883
 6173POPC   C4B77206  10.979  28.776   7.252
 6174POPC   NC377207  17.075  34.298   5.531
 6174POPC   PO477208  16.807  34.886   5.342
 6174POPC   GL177209  16.781  34.672   5.773
 6174POPC   GL277210  16.409  34.572   5.894
 6174POPC   C1A77211  16.748  34.798   6.217
 6174POPC   D2A77212  16.910  35.012   6.606
 6174POPC   C3A77213  16.673  35.035   6.968
 6174POPC   C4A77214  16.788  34.759   7.282
 6174POPC   C1B77215  16.276  34.242   6.214
 6174POPC   C2B77216  16.123  34.345   6.665
 6174POPC   C3B77217  16.434  34.524   6.960
 6174POPC   C4B77218  16.848  34.304   7.032
 6175POPC   NC377219   3.147  36.481   5.486
 6175POPC   PO477220   3.794  36.175   5.589
 6175POPC   GL177221   3.447  36.220   5.804
 6175POPC   GL277222   3.343  35.923   5.826
 6175POPC   C1A77223   3.431  36.377   6.199
 6175POPC   D2A77224   3.274  36.657   6.479
 6175POPC   C3A77225   3.242  36.460   6.862
 6175POPC   C4A77226   3.534  36.564   7.160
 6175POPC   C1B77227   3.688  35.937   6.168
 6175POPC   C2B77228   3.552  36.011   6.552
 6175POPC   C3B77229   3.663  36.097   6.944
 6175POPC   C4B77230   3.382  36.081   7.241
 6176POPC   NC377231  25.052  11.420   5.453
 6176POPC   PO477232  24.357  11.181   5.322
 6176POPC   GL177233  24.414  11.405   5.741
 6176POPC   GL277234  24.726  11.504   5.825
 6176POPC   C1A77235  24.333  11.357   6.198
 6176POPC   D2A77236  24.526  11.248   6.607
 6176POPC   C3A77237  24.253  11.282   6.959
 6176POPC   C4A77238  24.428  11.336   7.331
 6176POPC   C1B77239  24.848  11.398   6.230
 6176POPC   C2B77240  24.831  11.669   6.614
 6176POPC   C3B77241  24.691  11.662   7.026
 6176POPC   C4B77242  24.930  11.698   7.379
 6177POPC   NC377243  34.292  23.747   5.315
 6177POPC   PO477244  34.889  23.475   5.469
 6177POPC   GL177245  34.619  23.711   5.735
 6177POPC   GL277246  34.293  23.535   5.811
 6177POPC   C1A77247  34.685  23.665   6.159
 6177POPC   D2A77248  34.932  23.423   6.426
 6177POPC   C3A77249  34.835  23.545   6.807
 6177POPC   C4A77250  34.844  23.538   7.215
 6177POPC   C1B77251  34.188  23.749   6.213
 6177POPC   C2B77252  34.442  23.827   6.587
 6177POPC   C3B77253  34.362  23.671   6.990
 6177POPC   C4B77254  34.145  23.803   7.369
 6178POPC   NC377255  38.274  42.570   5.627
 6178POPC   PO477256  38.542  42.025   5.456
 6178POPC   GL177257  38.451  42.098   5.840
 6178POPC   GL277258  38.100  42.024   5.803
 6178POPC   C1A77259  38.627  42.307   6.209
 6178POPC   D2A77260  38.543  42.234   6.626
 6178POPC   C3A77261  38.400  42.561   6.844
 6178POPC   C4A77262  38.564  42.699   7.218
 6178POPC   C1B77263  38.160  42.086   6.263
 6178POPC   C2B77264  38.231  41.829   6.629
 6178POPC   C3B77265  38.256  42.007   7.032
 6178POPC   C4B77266  38.188  42.374   7.256
 6179POPC   NC377267   8.603  19.591   5.388
 6179POPC   PO477268   7.886  19.510   5.413
 6179POPC   GL177269   8.066  19.813   5.771
 6179POPC   GL277270   8.387  20.028   5.738
 6179POPC   C1A77271   7.946  19.956   6.192
 6179POPC   D2A77272   7.753  20.030   6.602
 6179POPC   C3A77273   8.000  19.865   6.978
 6179POPC   C4A77274   8.040  19.877   7.457
 6179POPC   C1B77275   8.415  20.164   6.180
 6179POPC   C2B77276   8.324  20.019   6.603
 6179POPC   C3B77277   8.375  20.215   7.020
 6179POPC   C4B77278   8.533  20.169   7.454
 6180POPC   NC377279  14.723  44.289   5.239
 6180POPC   PO477280  14.514  44.949   5.413
 6180POPC   GL177281  14.602  44.855   5.829
 6180POPC   GL277282  14.453  44.552   5.846
 6180POPC   C1A77283  14.343  44.903   6.198
 6180POPC   D2A77284  14.295  44.674   6.588
 6180POPC   C3A77285  14.629  44.836   6.842
 6180POPC   C4A77286  14.807  44.820   7.236
 6180POPC   C1B77287  14.694  44.566   6.268
 6180POPC   C2B77288  14.704  44.347   6.646
 6180POPC   C3B77289  14.491  44.353   7.031
 6180POPC   C4B77290  14.681  44.361   7.411
 6181POPC   NC377291  14.456  11.039   5.407
 6181POPC   PO477292  14.967  11.464   5.366
 6181POPC   GL177293  14.690  11.393   5.725
 6181POPC   GL277294  14.700  11.063   5.859
 6181POPC   C1A77295  14.426  11.405   6.129
 6181POPC   D2A77296  14.422  11.143   6.502
 6181POPC   C3A77297  14.337  11.351   6.915
 6181POPC   C4A77298  14.343  11.161   7.336
 6181POPC   C1B77299  14.888  10.937   6.253
 6181POPC   C2B77300  14.960  10.970   6.708
 6181POPC   C3B77301  14.820  11.245   7.084
 6181POPC   C4B77302  14.803  11.135   7.550
 6182POPC   NC377303   7.670  16.946   5.073
 6182POPC   PO477304   7.481  16.401   5.438
 6182POPC   GL177305   7.552  16.753   5.778
 6182POPC   GL277306   7.228  16.908   5.920
 6182POPC   C1A77307   7.613  16.804   6.258
 6182POPC   D2A77308   7.692  16.829   6.708
 6182POPC   C3A77309   7.354  16.744   6.965
 6182POPC   C4A77310   7.351  16.476   7.317
 6182POPC   C1B77311   7.209  17.097   6.353
 6182POPC   C2B77312   7.500  17.297   6.644
 6182POPC   C3B77313   7.525  17.199   7.106
 6182POPC   C4B77314   7.237  16.997   7.421
 6183POPC   NC377315   9.407  40.906   5.416
 6183POPC   PO477316   8.853  40.496   5.384
 6183POPC   GL177317   8.740  40.702   5.762
 6183POPC   GL277318   8.934  41.018   5.733
 6183POPC   C1A77319   8.749  40.560   6.173
 6183POPC   D2A77320   8.658  40.736   6.552
 6183POPC   C3A77321   8.738  40.495   6.927
 6183POPC   C4A77322   8.711  40.752   7.287
 6183POPC   C1B77323   9.187  40.815   6.082
 6183POPC   C2B77324   9.156  40.654   6.512
 6183POPC   C3B77325   9.055  40.897   6.890
 6183POPC   C4B77326   9.228  40.808   7.296
 6184POPC   NC377327   1.699  18.518   5.339
 6184POPC   PO477328   2.241  18.918   5.505
 6184POPC   GL177329   1.896  18.911   5.824
 6184POPC   GL277330   2.085  19.165   5.959
 6184POPC   C1A77331   1.788  18.917   6.292
 6184POPC   D2A77332   2.220  18.853   6.461
 6184POPC   C3A77333   2.380  18.942   6.883
 6184POPC   C4A77334   2.205  19.018   7.270
 6184POPC   C1B77335   2.012  19.407   6.312
 6184POPC   C2B77336   1.937  19.224   6.712
 6184POPC   C3B77337   1.805  19.262   7.126
 6184POPC   C4B77338   1.972  19.345   7.577
 6185POPC   NC377339  31.409   1.559   5.438
 6185POPC   PO477340  31.463   2.223   5.377
 6185POPC   GL177341  31.446   1.957   5.779
 6185POPC   GL277342  31.773   1.780   5.843
 6185POPC   C1A77343  31.341   1.864   6.229
 6185POPC   D2A77344  31.511   2.155   6.558
 6185POPC   C3A77345  31.404   2.317   6.972
 6185POPC   C4A77346  31.508   2.205   7.418
 6185POPC   C1B77347  31.777   1.599   6.288
 6185POPC   C2B77348  31.537   1.639   6.658
 6185POPC   C3B77349  31.616   1.863   7.003
 6185POPC   C4B77350  31.785   1.697   7.312
 6186POPC   NC377351  12.505  36.559   5.375
 6186POPC   PO477352  11.858  36.705   5.277
 6186POPC   GL177353  12.067  36.673   5.692
 6186POPC   GL277354  12.115  36.297   5.700
 6186POPC   C1A77355  12.069  36.930   6.122
 6186POPC   D2A77356  11.862  37.040   6.554
 6186POPC   C3A77357  12.118  36.948   6.914
 6186POPC   C4A77358  12.171  37.084   7.358
 6186POPC   C1B77359  11.939  36.422   6.118
 6186POPC   C2B77360  12.084  36.579   6.518
 6186POPC   C3B77361  12.255  36.425   6.903
 6186POPC   C4B77362  12.092  36.580   7.272
 6187POPC   NC377363  39.257  22.419   5.400
 6187POPC   PO477364  39.343  21.746   5.329
 6187POPC   GL177365  39.427  21.876   5.771
 6187POPC   GL277366  39.403  22.252   5.843
 6187POPC   C1A77367  39.643  21.983   6.183
 6187POPC   D2A77368  39.673  22.191   6.583
 6187POPC   C3A77369  39.477  21.992   6.921
 6187POPC   C4A77370  39.368  21.758   7.258
 6187POPC   C1B77371  39.305  22.366   6.260
 6187POPC   C2B77372  39.110  22.221   6.647
 6187POPC   C3B77373  38.967  22.056   7.029
 6187POPC   C4B77374  39.220  22.261   7.297
 6188POPC   NC377375  27.269  20.840   5.165
 6188POPC   PO477376  27.578  21.384   5.370
 6188POPC   GL177377  27.553  21.251   5.806
 6188POPC   GL277378  27.923  21.173   5.847
 6188POPC   C1A77379  27.548  21.436   6.244
 6188POPC   D2A77380  27.502  21.634   6.644
 6188POPC   C3A77381  27.478  21.418   7.017
 6188POPC   C4A77382  27.894  21.328   7.165
 6188POPC   C1B77383  27.753  20.980   6.227
 6188POPC   C2B77384  27.719  21.099   6.658
 6188POPC   C3B77385  27.599  20.896   7.020
 6188POPC   C4B77386  27.738  20.921   7.450
 6189POPC   NC377387  43.963  27.343   5.533
 6189POPC   PO477388  44.068  28.034   5.448
 6189POPC   GL177389  43.997  27.812   5.832
 6189POPC   GL277390  44.284  27.659   5.795
 6189POPC   C1A77391  44.054  27.821   6.302
 6189POPC   D2A77392  43.927  27.526   6.664
 6189POPC   C3A77393  43.865  27.425   7.133
 6189POPC   C4A77394  43.549  27.393   7.506
 6189POPC   C1B77395  44.377  27.441   6.168
 6189POPC   C2B77396  44.320  27.213   6.548
 6189POPC   C3B77397  44.352  27.393   6.953
 6189POPC   C4B77398  44.297  27.284   7.393
 6190POPC   NC377399  24.331  39.054   5.308
 6190POPC   PO477400  24.358  39.718   5.455
 6190POPC   GL177401  24.395  39.359   5.751
 6190POPC   GL277402  24.738  39.414   5.853
 6190POPC   C1A77403  24.502  39.027   6.084
 6190POPC   D2A77404  24.402  39.083   6.536
 6190POPC   C3A77405  24.411  39.304   6.923
 6190POPC   C4A77406  24.506  39.076   7.264
 6190POPC   C1B77407  24.878  39.358   6.293
 6190POPC   C2B77408  24.817  39.506   6.721
 6190POPC   C3B77409  24.978  39.404   7.177
 6190POPC   C4B77410  24.807  39.251   7.618
 6191POPC   NC377411   3.286   2.334   5.664
 6191POPC   PO477412   3.598   1.741   5.480
 6191POPC   GL177413   3.576   1.927   5.879
 6191POPC   GL277414   3.231   1.846   5.877
 6191POPC   C1A77415   3.717   1.970   6.328
 6191POPC   D2A77416   3.669   2.163   6.762
 6191POPC   C3A77417   3.891   2.064   7.153
 6191POPC   C4A77418   3.793   2.076   7.602
 6191POPC   C1B77419   3.086   1.952   6.311
 6191POPC   C2B77420   3.153   2.107   6.746
 6191POPC   C3B77421   3.368   1.984   7.144
 6191POPC   C4B77422   3.263   2.085   7.594
 6192POPC   NC377423  18.530  37.313   5.372
 6192POPC   PO477424  18.260  37.933   5.316
 6192POPC   GL177425  18.273  37.614   5.697
 6192POPC   GL277426  18.482  37.320   5.870
 6192POPC   C1A77427  18.140  37.581   6.131
 6192POPC   D2A77428  18.271  37.569   6.555
 6192POPC   C3A77429  18.020  37.500   6.928
 6192POPC   C4A77430  17.975  37.760   7.274
 6192POPC   C1B77431  18.670  37.524   6.213
 6192POPC   C2B77432  18.770  37.666   6.626
 6192POPC   C3B77433  18.542  37.533   6.994
 6192POPC   C4B77434  18.459  37.681   7.396
 6193POPC   NC377435  32.179  11.106   5.356
 6193POPC   PO477436  32.535  11.667   5.588
 6193POPC   GL177437  32.245  11.401   5.774
 6193POPC   GL277438  31.995  11.610   5.837
 6193POPC   C1A77439  32.312  11.103   6.111
 6193POPC   D2A77440  32.482  11.178   6.532
 6193POPC   C3A77441  32.328  11.412   6.887
 6193POPC   C4A77442  32.330  11.070   7.184
 6193POPC   C1B77443  31.897  11.374   6.202
 6193POPC   C2B77444  31.916  11.250   6.623
 6193POPC   C3B77445  31.864  11.011   6.989
 6193POPC   C4B77446  31.893  11.407   7.187
 6194POPC   NC377447  31.942  20.667   5.323
 6194POPC   PO477448  32.562  20.828   5.236
 6194POPC   GL177449  32.345  20.749   5.646
 6194POPC   GL277450  32.403  20.388   5.595
 6194POPC   C1A77451  32.221  20.516   6.054
 6194POPC   D2A77452  31.947  20.597   6.426
 6194POPC   C3A77453  32.125  20.697   6.839
 6194POPC   C4A77454  32.017  20.604   7.276
 6194POPC   C1B77455  32.638  20.225   5.953
 6194POPC   C2B77456  32.648  20.286   6.412
 6194POPC   C3B77457  32.652  20.179   6.850
 6194POPC   C4B77458  32.445  20.402   7.149
 6195POPC   NC377459  41.306  18.417   5.312
 6195POPC   PO477460  41.697  17.994   5.111
 6195POPC   GL177461  41.574  17.988   5.585
 6195POPC   GL277462  41.582  18.335   5.724
 6195POPC   C1A77463  41.546  17.948   6.069
 6195POPC   D2A77464  41.799  18.005   6.473
 6195POPC   C3A77465  41.573  18.140   6.854
 6195POPC   C4A77466  41.754  18.203   7.220
 6195POPC   C1B77467  41.784  18.442   6.102
 6195POPC   C2B77468  41.637  18.509   6.512
 6195POPC   C3B77469  41.742  18.630   6.920
 6195POPC   C4B77470  41.441  18.710   7.224
 6196POPC   NC377471  38.591   4.520   5.411
 6196POPC   PO477472  37.987   4.125   5.357
 6196POPC   GL177473  38.288   4.171   5.730
 6196POPC   GL277474  38.284   4.534   5.827
 6196POPC   C1A77475  38.343   4.116   6.208
 6196POPC   D2A77476  38.164   3.991   6.632
 6196POPC   C3A77477  38.219   4.141   7.037
 6196POPC   C4A77478  38.608   4.061   7.244
 6196POPC   C1B77479  38.467   4.613   6.231
 6196POPC   C2B77480  38.483   4.422   6.641
 6196POPC   C3B77481  38.530   4.542   7.060
 6196POPC   C4B77482  38.309   4.480   7.477
 6197POPC   NC377483  28.710  22.212   5.255
 6197POPC   PO477484  28.167  21.923   5.249
 6197POPC   GL177485  28.325  22.185   5.622
 6197POPC   GL277486  28.623  22.013   5.741
 6197POPC   C1A77487  28.363  22.266   6.097
 6197POPC   D2A77488  28.599  22.267   6.480
 6197POPC   C3A77489  28.390  22.266   6.855
 6197POPC   C4A77490  28.515  22.349   7.245
 6197POPC   C1B77491  28.607  21.812   6.170
 6197POPC   C2B77492  28.447  21.797   6.603
 6197POPC   C3B77493  28.604  21.828   7.035
 6197POPC   C4B77494  28.739  21.972   7.467
 6198POPC   NC377495   7.804  29.071   5.454
 6198POPC   PO477496   8.450  28.815   5.351
 6198POPC   GL177497   8.217  28.925   5.749
 6198POPC   GL277498   8.154  29.293   5.766
 6198POPC   C1A77499   8.035  28.958   6.176
 6198POPC   D2A77500   8.277  28.934   6.578
 6198POPC   C3A77501   8.116  29.082   6.989
 6198POPC   C4A77502   8.107  28.974   7.423
 6198POPC   C1B77503   7.958  29.442   6.150
 6198POPC   C2B77504   7.896  29.306   6.588
 6198POPC   C3B77505   7.854  29.515   7.010
 6198POPC   C4B77506   8.034  29.468   7.440
 6199POPC   NC377507  23.672   1.174   5.163
 6199POPC   PO477508  23.135   1.487   5.412
 6199POPC   GL177509  23.489   1.234   5.639
 6199POPC   GL277510  23.884   1.280   5.626
 6199POPC   C1A77511  23.663   1.148   6.082
 6199POPC   D2A77512  23.556   1.203   6.556
 6199POPC   C3A77513  23.707   1.107   6.979
 6199POPC   C4A77514  23.692   0.761   7.287
 6199POPC   C1B77515  24.097   1.427   6.032
 6199POPC   C2B77516  24.091   1.296   6.503
 6199POPC   C3B77517  24.144   1.360   6.988
 6199POPC   C4B77518  24.024   1.441   7.435
 6200POPC   NC377519  44.154   0.806   5.288
 6200POPC   PO477520  43.700   0.215   5.458
 6200POPC   GL177521  43.892   0.326   5.825
 6200POPC   GL277522  44.142   0.531   5.719
 6200POPC   C1A77523  43.921   0.211   6.243
 6200POPC   D2A77524  43.835   0.468   6.598
 6200POPC   C3A77525  43.869   0.243   7.003
 6200POPC   C4A77526  43.930   0.134   7.442
 6200POPC   C1B77527  44.047   0.720   6.138
 6200POPC   C2B77528  44.216   0.832   6.549
 6200POPC   C3B77529  44.055   0.746   6.963
 6200POPC   C4B77530  44.070   0.617   7.368
 6201POPC   NC377531  25.273   5.661   5.246
 6201POPC   PO477532  25.340   6.220   5.568
 6201POPC   GL177533  25.315   5.859   5.825
 6201POPC   GL277534  25.061   5.637   5.731
 6201POPC   C1A77535  25.398   5.764   6.263
 6201POPC   D2A77536  25.505   5.551   6.643
 6201POPC   C3A77537  25.394   5.734   7.060
 6201POPC   C4A77538  25.680   5.997   7.352
 6201POPC   C1B77539  24.909   5.765   6.158
 6201POPC   C2B77540  24.967   5.590   6.584
 6201POPC   C3B77541  24.922   5.434   7.004
 6201POPC   C4B77542  24.931   5.534   7.437
 6202POPC   NC377543  28.999  13.494   4.988
 6202POPC   PO477544  29.409  13.880   5.422
 6202POPC   GL177545  29.036  13.747   5.669
 6202POPC   GL277546  29.309  13.672   5.894
 6202POPC   C1A77547  28.869  13.694   6.129
 6202POPC   D2A77548  29.224  13.701   6.444
 6202POPC   C3A77549  29.170  13.594   6.884
 6202POPC   C4A77550  28.891  13.752   7.220
 6202POPC   C1B77551  29.641  13.465   6.165
 6202POPC   C2B77552  29.589  13.299   6.607
 6202POPC   C3B77553  29.543  13.248   7.071
 6202POPC   C4B77554  29.162  13.347   7.345
 6203POPC   NC377555  22.401  20.545   5.079
 6203POPC   PO477556  22.082  20.721   5.634
 6203POPC   GL177557  22.155  20.546   5.997
 6203POPC   GL277558  22.510  20.508   5.985
 6203POPC   C1A77559  22.209  20.332   6.367
 6203POPC   D2A77560  22.098  20.402   6.755
 6203POPC   C3A77561  22.222  20.723   6.990
 6203POPC   C4A77562  21.991  20.454   7.276
 6203POPC   C1B77563  22.729  20.364   6.323
 6203POPC   C2B77564  22.683  20.241   6.734
 6203POPC   C3B77565  22.494  20.273   7.118
 6203POPC   C4B77566  22.535  20.653   7.376
 6204POPC   NC377567   4.840  27.731   5.503
 6204POPC   PO477568   5.471  27.480   5.482
 6204POPC   GL177569   5.222  27.637   5.833
 6204POPC   GL277570   5.307  27.972   5.741
 6204POPC   C1A77571   4.858  27.652   6.139
 6204POPC   D2A77572   4.735  27.429   6.496
 6204POPC   C3A77573   4.833  27.600   6.861
 6204POPC   C4A77574   5.104  27.488   7.189
 6204POPC   C1B77575   5.148  28.091   6.143
 6204POPC   C2B77576   5.011  27.959   6.528
 6204POPC   C3B77577   5.262  27.854   6.875
 6204POPC   C4B77578   5.209  28.007   7.267
 6205POPC   NC377579  13.125  30.435   5.607
 6205POPC   PO477580  13.489  30.873   5.283
 6205POPC   GL177581  13.727  30.949   5.660
 6205POPC   GL277582  13.464  30.975   5.921
 6205POPC   C1A77583  13.926  30.739   6.011
 6205POPC   D2A77584  13.881  30.581   6.462
 6205POPC   C3A77585  13.846  30.850   6.846
 6205POPC   C4A77586  13.967  30.689   7.272
 6205POPC   C1B77587  13.450  30.619   6.154
 6205POPC   C2B77588  13.332  30.497   6.545
 6205POPC   C3B77589  13.500  30.449   6.926
 6205POPC   C4B77590  13.481  30.680   7.280
 6206POPC   NC377591  37.379  25.205   5.409
 6206POPC   PO477592  37.862  25.649   5.392
 6206POPC   GL177593  37.767  25.358   5.719
 6206POPC   GL277594  37.439  25.562   5.773
 6206POPC   C1A77595  37.941  25.153   6.123
 6206POPC   D2A77596  38.107  25.273   6.528
 6206POPC   C3A77597  37.946  25.124   6.897
 6206POPC   C4A77598  37.904  25.017   7.323
 6206POPC   C1B77599  37.597  25.520   6.177
 6206POPC   C2B77600  37.599  25.346   6.569
 6206POPC   C3B77601  37.577  25.457   6.970
 6206POPC   C4B77602  37.893  25.533   7.242
 6207POPC   NC377603   8.605  37.814   5.378
 6207POPC   PO477604   9.133  37.345   5.467
 6207POPC   GL177605   8.873  37.521   5.758
 6207POPC   GL277606   8.961  37.841   5.771
 6207POPC   C1A77607   8.892  37.556   6.213
 6207POPC   D2A77608   9.093  37.685   6.598
 6207POPC   C3A77609   8.895  37.585   6.971
 6207POPC   C4A77610   9.092  37.511   7.295
 6207POPC   C1B77611   8.775  38.069   6.121
 6207POPC   C2B77612   8.666  37.979   6.538
 6207POPC   C3B77613   8.872  38.095   6.911
 6207POPC   C4B77614   8.643  37.945   7.248
 6208POPC   NC377615  23.284  42.500   5.406
 6208POPC   PO477616  22.737  42.055   5.465
 6208POPC   GL177617  22.858  42.245   5.847
 6208POPC   GL277618  23.192  42.211   5.848
 6208POPC   C1A77619  22.798  42.301   6.304
 6208POPC   D2A77620  22.850  42.555   6.703
 6208POPC   C3A77621  22.919  42.279   7.070
 6208POPC   C4A77622  22.838  42.037   7.452
 6208POPC   C1B77623  23.172  41.957   6.223
 6208POPC   C2B77624  23.080  41.937   6.685
 6208POPC   C3B77625  23.296  41.943   7.104
 6208POPC   C4B77626  23.330  42.000   7.558
 6209POPC   NC377627  13.625  22.930   5.239
 6209POPC   PO477628  13.969  22.377   5.458
 6209POPC   GL177629  13.639  22.689   5.695
 6209POPC   GL277630  13.614  23.040   5.748
 6209POPC   C1A77631  13.354  22.728   6.083
 6209POPC   D2A77632  13.513  22.796   6.521
 6209POPC   C3A77633  13.330  22.796   6.938
 6209POPC   C4A77634  13.513  22.565   7.288
 6209POPC   C1B77635  13.568  23.195   6.152
 6209POPC   C2B77636  13.803  23.214   6.537
 6209POPC   C3B77637  13.792  23.036   6.926
 6209POPC   C4B77638  13.585  23.076   7.310
 6210POPC   NC377639  33.644   3.480   5.314
 6210POPC   PO477640  34.027   4.010   5.503
 6210POPC   GL177641  33.964   3.801   5.878
 6210POPC   GL277642  33.830   3.467   5.830
 6210POPC   C1A77643  33.862   3.677   6.311
 6210POPC   D2A77644  33.936   3.345   6.618
 6210POPC   C3A77645  33.846   3.508   6.997
 6210POPC   C4A77646  33.930   3.421   7.410
 6210POPC   C1B77647  33.693   3.187   6.195
 6210POPC   C2B77648  33.440   3.153   6.567
 6210POPC   C3B77649  33.528   3.085   7.010
 6210POPC   C4B77650  33.376   3.443   7.218
 6211POPC   NC377651  44.395   1.296   5.395
 6211POPC   PO477652  43.794   1.090   5.217
 6211POPC   GL177653  43.880   1.175   5.646
 6211POPC   GL277654  44.185   1.038   5.769
 6211POPC   C1A77655  43.755   1.284   6.076
 6211POPC   D2A77656  43.751   1.019   6.441
 6211POPC   C3A77657  43.641   1.152   6.855
 6211POPC   C4A77658  43.810   1.085   7.265
 6211POPC   C1B77659  44.254   1.220   6.173
 6211POPC   C2B77660  44.426   1.309   6.578
 6211POPC   C3B77661  44.187   1.230   6.941
 6211POPC   C4B77662  44.327   1.062   7.329
 6212POPC   NC377663  25.454  22.605   5.393
 6212POPC   PO477664  25.082  23.229   5.561
 6212POPC   GL177665  25.242  23.128   5.958
 6212POPC   GL277666  25.481  22.883   5.849
 6212POPC   C1A77667  25.298  22.978   6.410
 6212POPC   D2A77668  25.427  22.684   6.753
 6212POPC   C3A77669  25.137  22.654   7.029
 6212POPC   C4A77670  25.152  22.846   7.391
 6212POPC   C1B77671  25.744  23.070   6.191
 6212POPC   C2B77672  25.739  23.085   6.658
 6212POPC   C3B77673  25.453  23.138   7.043
 6212POPC   C4B77674  25.581  23.204   7.493
 6213POPC   NC377675  20.723  23.875   5.115
 6213POPC   PO477676  20.254  23.459   5.301
 6213POPC   GL177677  20.311  23.570   5.770
 6213POPC   GL277678  20.615  23.789   5.816
 6213POPC   C1A77679  20.247  23.779   6.204
 6213POPC   D2A77680  20.459  23.923   6.606
 6213POPC   C3A77681  20.469  23.694   6.961
 6213POPC   C4A77682  20.182  23.629   7.257
 6213POPC   C1B77683  20.767  23.704   6.238
 6213POPC   C2B77684  20.936  23.524   6.635
 6213POPC   C3B77685  20.895  23.441   7.079
 6213POPC   C4B77686  20.785  23.338   7.479
 6214POPC   NC377687  43.696  23.475   4.999
 6214POPC   PO477688  43.981  23.819   5.489
 6214POPC   GL177689  43.839  23.709   5.878
 6214POPC   GL277690  43.615  23.996   5.962
 6214POPC   C1A77691  43.789  23.651   6.311
 6214POPC   D2A77692  43.992  23.639   6.716
 6214POPC   C3A77693  43.785  23.622   7.100
 6214POPC   C4A77694  43.669  23.942   7.416
 6214POPC   C1B77695  44.020  24.095   6.212
 6214POPC   C2B77696  44.311  24.011   6.568
 6214POPC   C3B77697  44.314  23.987   7.041
 6214POPC   C4B77698  44.075  24.265   7.349
 6215POPC   NC377699  14.164   7.135   5.169
 6215POPC   PO477700  14.778   7.382   5.309
 6215POPC   GL177701  14.535   7.500   5.718
 6215POPC   GL277702  14.212   7.319   5.694
 6215POPC   C1A77703  14.516   7.730   6.152
 6215POPC   D2A77704  14.348   7.806   6.595
 6215POPC   C3A77705  14.503   7.521   6.923
 6215POPC   C4A77706  14.350   7.305   7.285
 6215POPC   C1B77707  14.357   7.227   6.129
 6215POPC   C2B77708  14.286   7.164   6.588
 6215POPC   C3B77709  14.522   6.994   6.934
 6215POPC   C4B77710  14.536   6.832   7.350
 6216POPC   NC377711  27.431  24.092   5.372
 6216POPC   PO477712  27.790  23.414   5.405
 6216POPC   GL177713  27.636  23.701   5.729
 6216POPC   GL277714  27.742  24.035   5.801
 6216POPC   C1A77715  27.664  23.715   6.193
 6216POPC   D2A77716  27.634  23.413   6.536
 6216POPC   C3A77717  27.386  23.446   6.903
 6216POPC   C4A77718  27.470  23.634   7.301
 6216POPC   C1B77719  27.438  24.190   6.113
 6216POPC   C2B77720  27.367  24.012   6.555
 6216POPC   C3B77721  27.698  23.852   6.851
 6216POPC   C4B77722  28.076  24.035   7.084
 6217POPC   NC377723  20.944  24.135   5.583
 6217POPC   PO477724  21.458  24.608   5.428
 6217POPC   GL177725  21.312  24.491   5.833
 6217POPC   GL277726  20.968  24.512   5.928
 6217POPC   C1A77727  21.452  24.458   6.268
 6217POPC   D2A77728  21.320  24.362   6.697
 6217POPC   C3A77729  21.476  24.624   7.023
 6217POPC   C4A77730  21.478  24.482   7.450
 6217POPC   C1B77731  20.938  24.536   6.380
 6217POPC   C2B77732  20.807  24.508   6.789
 6217POPC   C3B77733  21.042  24.398   7.161
 6217POPC   C4B77734  21.070  24.218   7.568
 6218POPC   NC377735  31.344   3.638   5.362
 6218POPC   PO477736  31.989   3.573   5.391
 6218POPC   GL177737  31.677   3.603   5.761
 6218POPC   GL277738  31.437   3.902   5.780
 6218POPC   C1A77739  31.530   3.436   6.172
 6218POPC   D2A77740  31.420   3.060   6.459
 6218POPC   C3A77741  31.438   3.187   6.883
 6218POPC   C4A77742  31.424   3.530   7.152
 6218POPC   C1B77743  31.410   3.947   6.216
 6218POPC   C2B77744  31.293   3.812   6.633
 6218POPC   C3B77745  31.464   4.028   7.000
 6218POPC   C4B77746  31.298   4.242   7.368
 6219POPC   NC377747  20.413   9.724   5.409
 6219POPC   PO477748  21.079   9.897   5.446
 6219POPC   GL177749  20.846   9.833   5.803
 6219POPC   GL277750  20.930   9.459   5.824
 6219POPC   C1A77751  20.557   9.950   6.150
 6219POPC   D2A77752  20.479   9.822   6.564
 6219POPC   C3A77753  20.647  10.032   6.928
 6219POPC   C4A77754  20.453   9.976   7.303
 6219POPC   C1B77755  20.672   9.434   6.221
 6219POPC   C2B77756  20.581   9.342   6.682
 6219POPC   C3B77757  20.601   9.529   7.106
 6219POPC   C4B77758  20.758   9.499   7.542
 6220POPC   NC377759   2.570  37.184   5.465
 6220POPC   PO477760   3.297  37.020   5.485
 6220POPC   GL177761   2.992  37.177   5.766
 6220POPC   GL277762   2.809  36.842   5.766
 6220POPC   C1A77763   2.755  37.154   6.167
 6220POPC   D2A77764   2.896  36.987   6.553
 6220POPC   C3A77765   2.710  37.191   6.881
 6220POPC   C4A77766   2.784  37.067   7.274
 6220POPC   C1B77767   2.857  36.587   6.156
 6220POPC   C2B77768   2.786  36.441   6.585
 6220POPC   C3B77769   2.699  36.651   6.961
 6220POPC   C4B77770   2.469  36.684   7.350
 6221POPC   NC377771  12.628   2.814   5.328
 6221POPC   PO477772  13.231   3.102   5.530
 6221POPC   GL177773  12.903   2.820   5.773
 6221POPC   GL277774  12.496   2.703   5.797
 6221POPC   C1A77775  13.044   2.724   6.184
 6221POPC   D2A77776  13.260   2.589   6.564
 6221POPC   C3A77777  13.031   2.531   6.919
 6221POPC   C4A77778  12.993   2.800   7.250
 6221POPC   C1B77779  12.550   2.848   6.218
 6221POPC   C2B77780  12.686   2.776   6.637
 6221POPC   C3B77781  12.533   2.669   7.068
 6221POPC   C4B77782  12.496   2.964   7.433
 6222POPC   NC377783  35.365  21.141   5.545
 6222POPC   PO477784  35.121  21.700   5.434
 6222POPC   GL177785  35.330  21.594   5.817
 6222POPC   GL277786  35.614  21.380   5.929
 6222POPC   C1A77787  35.397  21.785   6.209
 6222POPC   D2A77788  35.557  21.804   6.628
 6222POPC   C3A77789  35.568  21.434   6.862
 6222POPC   C4A77790  35.509  21.572   7.262
 6222POPC   C1B77791  35.316  21.131   6.191
 6222POPC   C2B77792  35.335  20.945   6.622
 6222POPC   C3B77793  35.295  20.927   7.058
 6222POPC   C4B77794  35.503  21.081   7.389
 6223POPC   NC377795   0.007  10.418   5.442
 6223POPC   PO477796   0.594  10.774   5.437
 6223POPC   GL177797   0.465  10.414   5.691
 6223POPC   GL277798   0.266  10.620   5.866
 6223POPC   C1A77799   0.463  10.160   6.105
 6223POPC   D2A77800   0.622  10.135   6.548
 6223POPC   C3A77801   0.460  10.399   6.895
 6223POPC   C4A77802   0.321  10.344   7.328
 6223POPC   C1B77803   0.332  10.872   6.224
 6223POPC   C2B77804   0.354  11.008   6.675
 6223POPC   C3B77805   0.232  10.856   7.086
 6223POPC   C4B77806   0.272  10.887   7.535
 6224POPC   NC377807  28.175  26.372   5.515
 6224POPC   PO477808  28.013  27.017   5.389
 6224POPC   GL177809  28.332  26.870   5.654
 6224POPC   GL277810  28.610  26.618   5.625
 6224POPC   C1A77811  28.333  26.816   6.083
 6224POPC   D2A77812  28.453  27.069   6.433
 6224POPC   C3A77813  28.514  27.183   6.865
 6224POPC   C4A77814  28.240  26.999   7.153
 6224POPC   C1B77815  28.675  26.425   6.057
 6224POPC   C2B77816  28.546  26.559   6.474
 6224POPC   C3B77817  28.321  26.603   6.856
 6224POPC   C4B77818  28.529  26.578   7.241
 6225POPC   NC377819  29.489  42.628   5.582
 6225POPC   PO477820  29.137  43.164   5.278
 6225POPC   GL177821  29.103  43.063   5.744
 6225POPC   GL277822  29.004  43.385   5.867
 6225POPC   C1A77823  28.980  43.010   6.213
 6225POPC   D2A77824  28.982  43.186   6.659
 6225POPC   C3A77825  29.025  42.943   7.043
 6225POPC   C4A77826  29.424  42.730   7.192
 6225POPC   C1B77827  29.207  43.468   6.241
 6225POPC   C2B77828  29.361  43.521   6.636
 6225POPC   C3B77829  29.354  43.356   7.047
 6225POPC   C4B77830  28.997  43.461   7.224
 6226POPC   NC377831  37.409  27.240   5.653
 6226POPC   PO477832  36.790  27.039   5.423
 6226POPC   GL177833  36.977  26.971   5.803
 6226POPC   GL277834  37.033  26.612   5.811
 6226POPC   C1A77835  37.011  26.884   6.240
 6226POPC   D2A77836  36.871  26.753   6.622
 6226POPC   C3A77837  37.028  26.879   7.016
 6226POPC   C4A77838  36.765  26.739   7.392
 6226POPC   C1B77839  37.037  26.363   6.207
 6226POPC   C2B77840  37.231  26.347   6.621
 6226POPC   C3B77841  37.022  26.361   7.018
 6226POPC   C4B77842  37.098  26.351   7.473
 6227POPC   NC377843  34.012  28.374   5.563
 6227POPC   PO477844  33.548  28.078   5.209
 6227POPC   GL177845  33.645  28.065   5.731
 6227POPC   GL277846  33.658  28.347   5.942
 6227POPC   C1A77847  33.941  28.045   6.197
 6227POPC   D2A77848  33.906  27.857   6.635
 6227POPC   C3A77849  33.751  28.072   6.995
 6227POPC   C4A77850  33.706  28.061   7.448
 6227POPC   C1B77851  33.654  28.642   6.245
 6227POPC   C2B77852  33.825  28.711   6.631
 6227POPC   C3B77853  33.723  28.583   7.036
 6227POPC   C4B77854  33.876  28.605   7.460
 6228POPC   NC377855  33.157  13.528   5.334
 6228POPC   PO477856  32.697  13.823   5.740
 6228POPC   GL177857  33.106  13.631   5.852
 6228POPC   GL277858  33.325  13.324   5.772
 6228POPC   C1A77859  33.100  13.511   6.284
 6228POPC   D2A77860  33.164  13.630   6.703
 6228POPC   C3A77861  32.917  13.604   7.070
 6228POPC   C4A77862  33.268  13.741   7.280
 6228POPC   C1B77863  33.481  13.182   6.174
 6228POPC   C2B77864  33.375  13.171   6.612
 6228POPC   C3B77865  33.331  13.268   7.037
 6228POPC   C4B77866  33.452  13.293   7.439
 6229POPC   NC377867  31.009   7.393   5.350
 6229POPC   PO477868  31.299   6.839   5.494
 6229POPC   GL177869  31.466   7.130   5.811
 6229POPC   GL277870  31.358   7.491   5.782
 6229POPC   C1A77871  31.704   7.168   6.205
 6229POPC   D2A77872  31.515   7.060   6.584
 6229POPC   C3A77873  31.615   7.168   6.984
 6229POPC   C4A77874  31.480   7.099   7.382
 6229POPC   C1B77875  31.357   7.549   6.261
 6229POPC   C2B77876  31.632   7.593   6.633
 6229POPC   C3B77877  31.481   7.645   7.051
 6229POPC   C4B77878  31.118   7.590   7.281
 6230POPC   NC377879   2.444   2.175   5.409
 6230POPC   PO477880   2.799   1.660   5.539
 6230POPC   GL177881   2.733   1.796   5.947
 6230POPC   GL277882   2.769   2.154   5.868
 6230POPC   C1A77883   2.580   1.714   6.356
 6230POPC   D2A77884   2.528   1.621   6.784
 6230POPC   C3A77885   2.830   1.817   7.017
 6230POPC   C4A77886   2.921   2.192   7.217
 6230POPC   C1B77887   2.345   2.109   6.084
 6230POPC   C2B77888   2.179   2.032   6.497
 6230POPC   C3B77889   2.325   2.131   6.902
 6230POPC   C4B77890   2.420   2.293   7.315
 6231POPC   NC377891  26.253  10.278   5.399
 6231POPC   PO477892  25.679  10.435   5.286
 6231POPC   GL177893  25.999  10.483   5.810
 6231POPC   GL277894  26.324  10.310   5.895
 6231POPC   C1A77895  26.005  10.378   6.283
 6231POPC   D2A77896  25.851  10.660   6.622
 6231POPC   C3A77897  25.950  10.558   7.056
 6231POPC   C4A77898  25.835  10.613   7.507
 6231POPC   C1B77899  26.364  10.709   6.157
 6231POPC   C2B77900  26.385  10.662   6.592
 6231POPC   C3B77901  26.422  10.797   6.994
 6231POPC   C4B77902  26.355  10.619   7.372
 6232POPC   NC377903  23.550   8.587   5.541
 6232POPC   PO477904  23.860   7.936   5.474
 6232POPC   GL177905  23.550   7.935   5.789
 6232POPC   GL277906  23.617   8.234   5.888
 6232POPC   C1A77907  23.471   7.881   6.213
 6232POPC   D2A77908  23.355   8.114   6.558
 6232POPC   C3A77909  23.396   7.904   6.939
 6232POPC   C4A77910  23.460   7.996   7.364
 6232POPC   C1B77911  23.779   8.317   6.266
 6232POPC   C2B77912  24.055   8.410   6.555
 6232POPC   C3B77913  23.751   8.400   6.851
 6232POPC   C4B77914  23.790   8.431   7.248
 6233POPC   NC377915  40.973  33.866   5.280
 6233POPC   PO477916  40.478  33.423   5.394
 6233POPC   GL177917  40.701  33.648   5.719
 6233POPC   GL277918  40.382  33.632   5.878
 6233POPC   C1A77919  40.785  33.918   6.112
 6233POPC   D2A77920  40.637  34.047   6.555
 6233POPC   C3A77921  40.855  33.889   6.929
 6233POPC   C4A77922  40.984  34.013   7.348
 6233POPC   C1B77923  40.653  33.432   6.193
 6233POPC   C2B77924  40.833  33.488   6.580
 6233POPC   C3B77925  40.656  33.419   6.972
 6233POPC   C4B77926  40.778  33.537   7.346
 6234POPC   NC377927  35.499  39.288   5.453
 6234POPC   PO477928  35.488  38.681   5.646
 6234POPC   GL177929  35.496  39.016   5.918
 6234POPC   GL277930  35.251  39.272   5.900
 6234POPC   C1A77931  35.479  39.065   6.361
 6234POPC   D2A77932  35.417  39.326   6.720
 6234POPC   C3A77933  35.246  39.141   7.056
 6234POPC   C4A77934  34.888  39.012   7.139
 6234POPC   C1B77935  35.423  39.568   6.226
 6234POPC   C2B77936  35.487  39.816   6.610
 6234POPC   C3B77937  35.647  39.780   7.058
 6234POPC   C4B77938  35.844  39.701   7.503
 6235POPC   NC377939   2.075  25.003   5.398
 6235POPC   PO477940   2.269  25.679   5.447
 6235POPC   GL177941   2.108  25.453   5.825
 6235POPC   GL277942   1.890  25.145   5.859
 6235POPC   C1A77943   2.067  25.464   6.285
 6235POPC   D2A77944   2.338  25.340   6.620
 6235POPC   C3A77945   2.212  25.357   7.035
 6235POPC   C4A77946   1.826  25.534   7.162
 6235POPC   C1B77947   1.809  25.014   6.312
 6235POPC   C2B77948   1.823  25.169   6.745
 6235POPC   C3B77949   1.843  24.993   7.170
 6235POPC   C4B77950   1.763  24.896   7.618
 6236POPC   NC377951  37.522  22.169   5.266
 6236POPC   PO477952  38.005  22.270   5.737
 6236POPC   GL177953  37.560  22.283   5.762
 6236POPC   GL277954  37.630  21.933   5.825
 6236POPC   C1A77955  37.354  22.283   6.146
 6236POPC   D2A77956  37.660  22.285   6.486
 6236POPC   C3A77957  37.547  22.367   6.904
 6236POPC   C4A77958  37.785  22.460   7.255
 6236POPC   C1B77959  37.786  21.804   6.274
 6236POPC   C2B77960  37.726  21.858   6.749
 6236POPC   C3B77961  37.689  21.938   7.213
 6236POPC   C4B77962  37.457  21.803   7.607
 6237W        W77963  27.192  10.767  14.592
 6238W        W77964  21.146  22.511   3.751
 6239W        W77965  23.455  28.683   4.907
 6240W        W77966   9.865  16.009  12.187
 6241W        W77967  26.669  13.748   3.767
 6242W        W77968  37.340  16.576  10.766
 6243W        W77969  34.881   2.398  12.934
 6244W        W77970  28.883  26.649   2.339
 6245W        W77971   5.318  21.639  10.570
 6246W        W77972   3.763  40.441   1.217
 6247W        W77973  14.381   7.400   1.923
 6248W        W77974  38.103  28.672  10.632
 6249W        W77975  32.936  25.463   4.525
 6250W        W77976   6.410   7.449   2.785
 6251W        W77977  18.730   8.288  10.659
 6252W        W77978  20.130  37.762   0.532
 6253W        W77979   5.309  15.182  13.828
 6254W        W77980  22.227   4.252   0.316
 6255W        W77981  11.136  30.957   1.747
 6256W        W77982  19.216  36.821  12.305
 6257W        W77983  11.724  40.279   2.734
 6258W        W77984  13.627  36.656  12.576
 6259W        W77985  18.630   4.951   0.067
 6260W        W77986  31.655   8.775  11.220
 6261W        W77987  19.576  44.439  12.021
 6262W        W77988  18.359  38.014  13.760
 6263W        W77989  11.105  34.677  13.357
 6264W        W77990  16.346  10.336   0.579
 6265W        W77991  12.056   3.575  12.468
 6266W        W77992  23.367   3.478  13.867
 6267W        W77993   4.763  42.429  11.198
 6268W        W77994   5.113   5.107  14.339
 6269W        W77995  29.451  27.867   1.879
 6270W        W77996   9.667  36.918   1.833
 6271W        W77997  42.802  27.061  14.346
 6272W        W77998  10.819  41.794   3.291
 6273W        W77999   0.244  31.088  10.598
 6274W        W78000  22.850  14.216  12.445
 6275W        W78001  19.429  26.880   3.777
 6276W        W78002   0.832  27.109  10.810
 6277W        W78003   5.468  37.463   3.876
 6278W        W78004   7.247  15.639  14.920
 6279W        W78005   4.210   4.778   1.951
 6280W        W78006  19.579  14.318  11.629
 6281W        W78007  14.414  37.290  14.034
 6282W        W78008  42.869  40.641  14.394
 6283W        W78009  39.844  15.813  11.864
 6284W        W78010  37.009  39.984   2.297
 6285W        W78011   3.852  29.288  14.358
 6286W        W78012  41.207  36.789  11.576
 6287W        W78013  12.085  29.510  14.775
 6288W        W78014  36.363  33.985   2.246
 6289W        W78015   2.666  20.247  14.896
 6290W        W78016  37.976  33.037   1.831
 6291W        W78017  22.992  13.345  14.496
 6292W        W78018  42.054  23.661  11.050
 6293W        W78019   2.718   8.487  13.348
 6294W        W78020   5.215  24.463  14.103
 6295W        W78021  21.602  11.196  13.877
 6296W        W78022   5.190  16.670   1.350
 6297W        W78023  35.643   9.160  11.762
 6298W        W78024   4.476  42.674  13.837
 6299W        W78025  15.357  40.423  12.382
 6300W        W78026  21.760   7.727  12.210
 6301W        W78027  14.696  26.427  14.903
 6302W        W78028   7.497  10.887  13.844
 6303W        W78029   8.797  26.795   5.088
 6304W        W78030  41.845  41.824   2.132
 6305W        W78031  14.636  31.633   4.703
 6306W        W78032  38.922  21.310  13.784
 6307W        W78033  37.017  38.708  12.039
 6308W        W78034  33.379   3.243  11.583
 6309W        W78035   0.672  34.117   1.255
 6310W        W78036  15.740   1.426  11.744
 6311W        W78037  40.086  32.113   4.595
 6312W        W78038   1.519  28.380  14.489
 6313W        W78039  37.459  44.347   1.844
 6314W        W78040  15.716  18.458  11.937
 6315W        W78041  44.725   8.520  13.434
 6316W        W78042  42.179  44.209  14.494
 6317W        W78043  37.481  10.653   1.075
 6318W        W78044  12.217  22.356  12.463
 6319W        W78045   6.532  32.641   1.928
 6320W        W78046  32.961  35.588  10.668
 6321W        W78047  38.890  32.378   2.555
 6322W        W78048  21.260  15.165   0.376
 6323W        W78049  21.699  30.851   2.406
 6324W        W78050  26.913  35.574  14.953
 6325W        W78051  13.214   3.999  11.153
 6326W        W78052  31.074  26.427   4.689
 6327W        W78053  11.371  30.006   4.909
 6328W        W78054   4.552   5.955   1.293
 6329W        W78055   6.970  11.612  13.898
 6330W        W78056  10.914  15.798   2.682
 6331W        W78057   0.385  16.421  13.050
 6332W        W78058  36.539  24.023   1.415
 6333W        W78059  19.853  11.369  11.598
 6334W        W78060   1.545  24.649   0.730
 6335W        W78061  29.986  24.262  12.454
 6336W        W78062  18.221  27.952  13.945
 6337W        W78063   8.292  35.564  13.553
 6338W        W78064  44.486  25.561   0.042
 6339W        W78065   5.321  29.471   4.778
 6340W        W78066  21.173  28.900  10.680
 6341W        W78067  10.090  40.988  11.270
 6342W        W78068  43.734  40.342   1.297
 6343W        W78069  26.274  38.958  11.253
 6344W        W78070  35.394  10.192  13.137
 6345W        W78071  34.069  43.336  14.976
 6346W        W78072  28.539  40.522   2.421
 6347W        W78073   2.752  24.507   0.932
 6348W        W78074   9.773  37.633  12.949
 6349W        W78075  42.538  24.974  10.690
 6350W        W78076   7.694  10.091  11.988
 6351W        W78077  35.032  23.208  11.527
 6352W        W78078  16.636  24.697   0.976
 6353W        W78079   0.100  25.764  12.374
 6354W        W78080   6.708  23.790  12.088
 6355W        W78081  21.710  41.345  13.982
 6356W        W78082  42.410   0.445  12.144
 6357W        W78083  15.211   5.353  14.520
 6358W        W78084  34.487  27.069  11.891
 6359W        W78085  24.567   4.503   4.420
 6360W        W78086  36.838  19.027   4.904
 6361W        W78087  23.655  28.464  13.886
 6362W        W78088  24.909   9.547  10.886
 6363W        W78089   4.263  13.612  14.022
 6364W        W78090  40.006  39.094  12.574
 6365W        W78091  42.030   6.754   2.369
 6366W        W78092   0.871   5.944   0.643
 6367W        W78093   4.208   8.824   2.235
 6368W        W78094  44.889   2.014  13.377
 6369W        W78095  39.470   4.193   3.867
 6370W        W78096  40.892  42.677  13.852
 6371W        W78097   9.576  44.122  14.500
 6372W        W78098  15.804  38.964   4.565
 6373W        W78099  15.904  30.535   2.369
 6374W        W78100  19.731  17.873  13.004
 6375W        W78101  34.980  21.404   0.043
 6376W        W78102  19.671  20.423  14.626
 6377W        W78103   7.264   5.423   4.103
 6378W        W78104   2.948   5.036  10.776
 6379W        W78105  35.595   3.298  12.444
 6380W        W78106  37.590  37.616  10.592
 6381W        W78107   9.717  20.046   3.228
 6382W        W78108  28.717   4.908  10.883
 6383W        W78109  15.660   1.470  11.259
 6384W        W78110   1.761  40.392  10.620
 6385W        W78111  29.573  34.119   2.749
 6386W        W78112  10.640  11.181   0.363
 6387W        W78113   0.056   8.938   0.771
 6388W        W78114  13.549  20.041  11.902
 6389W        W78115  22.957   9.218   1.888
 6390W        W78116  37.361  43.724  12.468
 6391W        W78117  39.432  20.639   4.126
 6392W        W78118  14.638  19.645  12.797
 6393W        W78119  13.404  30.984  13.759
 6394W        W78120  19.405  37.648   5.055
 6395W        W78121   1.756  31.011  14.397
 6396W        W78122   6.852  12.486  10.670
 6397W        W78123   1.399  24.988   1.620
 6398W        W78124  15.519  41.390   0.801
 6399W        W78125  19.093  30.159  11.170
 6400W        W78126  11.150  40.327  12.315
 6401W        W78127  33.648  32.536  12.520
 6402W        W78128   0.439  44.354  12.856
 6403W        W78129   1.023  11.325  10.328
 6404W        W78130  13.158  17.370   2.347
 6405W        W78131  25.579  35.747   2.725
 6406W        W78132  15.993  14.501   2.193
 6407W        W78133  27.499  44.694  13.336
 6408W        W78134   6.357  29.363  13.455
 6409W        W78135  29.195  19.731   1.448
 6410W        W78136  17.208  44.028   0.338
 6411W        W78137  13.511  39.390  14.771
 6412W        W78138  18.125  15.099  11.164
 6413W        W78139  42.866  29.584  12.155
 6414W        W78140  22.128   6.621   5.045
 6415W        W78141   3.202   3.869   2.605
 6416W        W78142   9.728   7.727  12.930
 6417W        W78143   5.228   1.743   2.698
 6418W        W78144  40.373  26.549  12.012
 6419W        W78145  15.680   2.341  11.153
 6420W        W78146  33.596   3.976  13.976
 6421W        W78147  17.204  16.215  14.039
 6422W        W78148  28.621  22.713   1.892
 6423W        W78149  41.482   2.499  14.304
 6424W        W78150  22.666   3.424   3.994
 6425W        W78151  18.394  15.164   2.335
 6426W        W78152  32.360  44.703  11.888
 6427W        W78153  15.586  31.867   2.657
 6428W        W78154   5.998   5.858   2.185
 6429W        W78155  10.181  29.303   3.737
 6430W        W78156   3.892  23.429  10.826
 6431W        W78157   2.951  43.054  14.975
 6432W        W78158  35.517   4.172  10.679
 6433W        W78159  44.003  21.735   3.860
 6434W        W78160  23.002  22.755   4.060
 6435W        W78161  27.489  17.732  12.582
 6436W        W78162  27.173  35.334  10.879
 6437W        W78163  43.878  31.775   1.841
 6438W        W78164  12.829  41.702  12.507
 6439W        W78165   1.598  36.142   2.802
 6440W        W78166   8.440  12.543   2.662
 6441W        W78167  38.097  40.919   0.378
 6442W        W78168   5.892  31.379  12.389
 6443W        W78169  33.880  15.717   2.259
 6444W        W78170  13.303  38.390  12.014
 6445W        W78171  22.661  15.286  10.218
 6446W        W78172  34.143  16.496   1.136
 6447W        W78173  17.758   0.769   4.162
 6448W        W78174   6.430  32.116  11.186
 6449W        W78175   2.416  38.905  12.355
 6450W        W78176   0.825   9.401  14.933
 6451W        W78177   9.752  44.942  11.660
 6452W        W78178  22.346  42.844   0.890
 6453W        W78179  33.586  38.755   1.149
 6454W        W78180   6.116  29.417  14.283
 6455W        W78181  40.952  22.792  11.562
 6456W        W78182   3.647  38.112   0.865
 6457W        W78183  30.251   5.303   1.153
 6458W        W78184   7.745  44.231   1.247
 6459W        W78185  13.832  18.237  12.944
 6460W        W78186   6.776  24.981   0.560
 6461W        W78187  27.189  23.258   2.589
 6462W        W78188  12.402  18.058   2.800
 6463W        W78189  26.767   7.594  14.241
 6464W        W78190  44.970  36.854   4.595
 6465W        W78191  15.075  11.278   0.432
 6466W        W78192  34.373   7.854  11.664
 6467W        W78193  21.474  13.275  13.435
 6468W        W78194  39.306  31.434  14.359
 6469W        W78195   6.200   5.019  12.599
 6470W        W78196  10.601  19.685  12.911
 6471W        W78197  32.141  34.567   0.346
 6472W        W78198  25.944  41.072   0.292
 6473W        W78199  40.405  30.463   4.587
 6474W        W78200  30.560  43.825   5.024
 6475W        W78201  34.504  11.971   0.264
 6476W        W78202  40.997  40.158  10.790
 6477W        W78203  19.003  43.729  13.758
 6478W        W78204  30.931  18.690   0.747
 6479W        W78205   3.236  39.198   5.038
 6480W        W78206  33.949  26.433   0.590
 6481W        W78207  12.062  12.163   3.616
 6482W        W78208  13.110  13.283  10.808
 6483W        W78209  31.559  10.673  11.701
 6484W        W78210  15.182  12.365  11.249
 6485W        W78211  23.028  10.953   4.782
 6486W        W78212  44.445  19.814  13.541
 6487W        W78213  29.860  16.589  10.773
 6488W        W78214  20.736  23.858  12.965
 6489W        W78215  20.760  14.894  12.315
 6490W        W78216   1.015  18.399   4.596
 6491W        W78217  13.328   3.636   1.820
 6492W        W78218  22.173  28.407   5.413
 6493W        W78219  13.617  35.458  13.799
 6494W        W78220  18.299  15.878   1.106
 6495W        W78221  44.883   7.143  14.242
 6496W        W78222  41.869  24.087   3.894
 6497W        W78223  33.437  13.882   4.477
 6498W        W78224  29.161  27.542   1.611
 6499W        W78225  31.473   3.842  12.937
 6500W        W78226  19.831  21.009  14.319
 6501W        W78227  42.944   2.750   4.139
 6502W        W78228  22.579  18.221   0.981
 6503W        W78229  11.112  38.258  11.547
 6504W        W78230  21.539   9.121  12.659
 6505W        W78231   0.932  14.624   0.925
 6506W        W78232   9.458  38.543   4.882
 6507W        W78233  29.983  24.588   2.117
 6508W        W78234   6.846  16.098   4.163
 6509W        W78235   1.552  44.750   4.380
 6510W        W78236  31.132  21.649   2.167
 6511W        W78237   3.850  32.531  10.440
 6512W        W78238  27.981  26.625   0.866
 6513W        W78239   6.501  33.510   0.389
 6514W        W78240  44.353   7.977  11.562
 6515W        W78241  41.715  30.980  12.423
 6516W        W78242   5.869  30.642  13.845
 6517W        W78243  12.687  19.444  14.370
 6518W        W78244  16.363   4.560  10.459
 6519W        W78245  27.714  42.430   2.120
 6520W        W78246  28.275  25.527   0.463
 6521W        W78247  30.517  11.797   3.676
 6522W        W78248  36.307  26.259   1.187
 6523W        W78249  24.929  34.979   1.743
 6524W        W78250  17.000  32.979   2.867
 6525W        W78251  43.265   7.248  13.948
 6526W        W78252  24.613  40.689   1.877
 6527W        W78253  27.545   8.774  13.718
 6528W        W78254  42.332  14.133   3.829
 6529W        W78255   4.901  40.081  14.426
 6530W        W78256  30.699   9.768  12.385
 6531W        W78257  18.715  24.820  13.760
 6532W        W78258  15.730  12.246   2.751
 6533W        W78259  17.116  37.899  12.406
 6534W        W78260  10.093   6.694   1.756
 6535W        W78261  33.100  21.039   3.884
 6536W        W78262  17.619  30.415  12.826
 6537W        W78263  23.037  28.635   2.282
 6538W        W78264  12.965  12.429  11.733
 6539W        W78265   5.336  17.790  10.625
 6540W        W78266  15.809  34.894   3.262
 6541W        W78267   6.472   2.792   4.138
 6542W        W78268  31.937  10.785  11.381
 6543W        W78269  20.647  26.073   3.665
 6544W        W78270  28.123  10.912   2.364
 6545W        W78271  41.841   5.227  12.197
 6546W        W78272  11.340  23.096   1.346
 6547W        W78273  18.487  30.214   0.188
 6548W        W78274   9.708  18.382  12.443
 6549W        W78275   3.932  15.729  12.429
 6550W        W78276  32.227  19.998  11.609
 6551W        W78277  15.653  20.014   3.591
 6552W        W78278  43.776  21.267   4.720
 6553W        W78279  11.560  18.534   4.660
 6554W        W78280  29.933  22.488  11.906
 6555W        W78281  10.147  41.054  13.387
 6556W        W78282  11.816  39.436  11.636
 6557W        W78283  29.705   3.512  11.555
 6558W        W78284  15.348  30.785  11.261
 6559W        W78285  21.901   9.223  14.913
 6560W        W78286   9.807  19.861   3.700
 6561W        W78287  21.212   2.671   3.038
 6562W        W78288  40.315  32.428   4.158
 6563W        W78289  16.239  28.544  10.392
 6564W        W78290  19.661   9.876   2.608
 6565W        W78291  17.715  42.715   3.152
 6566W        W78292   6.877   9.707   3.812
 6567W        W78293  36.460   9.120  10.713
 6568W        W78294  28.566  11.440  12.454
 6569W        W78295  16.874   6.934  14.419
 6570W        W78296  40.581  28.390   4.547
 6571W        W78297  19.312   8.603  14.522
 6572W        W78298  32.910  24.166   5.064
 6573W        W78299  32.083  28.402  13.332
 6574W        W78300   9.241   4.984   1.469
 6575W        W78301   3.410  33.881   3.742
 6576W        W78302  37.317  10.748   4.852
 6577W        W78303   9.130   3.155   2.237
 6578W        W78304  17.101  17.039   1.791
 6579W        W78305  20.961  25.840  11.132
 6580W        W78306   7.144  15.306  14.416
 6581W        W78307  24.220   8.129   4.530
 6582W        W78308  21.340  33.022   4.803
 6583W        W78309  26.941  39.008   0.938
 6584W        W78310  24.991  17.172   1.878
 6585W        W78311  20.086   6.787  12.909
 6586W        W78312  11.940  44.348  13.074
 6587W        W78313   7.852  28.221   3.600
 6588W        W78314  21.091  13.632   0.296
 6589W        W78315  43.750  39.457  13.376
 6590W        W78316  21.048  11.507   0.516
 6591W        W78317  34.160  40.262   4.251
 6592W        W78318  21.718  35.840  13.417
 6593W        W78319   2.419  44.315  10.698
 6594W        W78320  24.209  16.655  14.857
 6595W        W78321  16.726  17.550  13.984
 6596W        W78322  17.632  30.122   4.399
 6597W        W78323  42.737  38.456  13.832
 6598W        W78324  41.725  14.554   4.188
 6599W        W78325  13.656  31.612  10.772
 6600W        W78326  36.089  16.828  11.353
 6601W        W78327  25.206  32.391  10.952
 6602W        W78328  35.176  22.638  12.666
 6603W        W78329   5.848   7.917   1.444
 6604W        W78330  41.173  30.483  11.048
 6605W        W78331  18.427  12.853  13.465
 6606W        W78332  38.848   7.175  13.958
 6607W        W78333   2.298  27.133   3.582
 6608W        W78334  15.273   4.498  10.999
 6609W        W78335  17.528  14.807   4.060
 6610W        W78336  31.032  43.376   1.526
 6611W        W78337  10.836  23.255   2.289
 6612W        W78338  10.074  12.672   1.265
 6613W        W78339  24.043  38.754   0.408
 6614W        W78340   4.850  39.266  10.584
 6615W        W78341  28.295  36.361  14.438
 6616W        W78342  35.104   7.199  11.581
 6617W        W78343  27.128  31.003   2.154
 6618W        W78344  23.314  38.747   0.902
 6619W        W78345  25.218  40.399   3.117
 6620W        W78346  37.568  17.100  10.789
 6621W        W78347   4.411  35.166  13.046
 6622W        W78348  36.403  41.168   1.938
 6623W        W78349  24.553  44.853   9.908
 6624W        W78350   4.335  11.865  14.937
 6625W        W78351   0.452  17.174   3.214
 6626W        W78352  24.161  16.571   4.554
 6627W        W78353  17.234   3.489   0.678
 6628W        W78354  22.002  29.401  14.192
 6629W        W78355   8.796  42.357   2.627
 6630W        W78356   6.170  25.541  12.030
 6631W        W78357  21.754   2.004  14.316
 6632W        W78358   0.363  21.747   0.977
 6633W        W78359  10.805  39.873   3.677
 6634W        W78360   2.953  40.031   1.341
 6635W        W78361  43.270  41.858   0.055
 6636W        W78362  22.213  22.970  10.504
 6637W        W78363   6.893  13.842  13.803
 6638W        W78364  28.438  10.718   0.313
 6639W        W78365  25.722  11.591  12.344
 6640W        W78366  33.540  24.547  12.953
 6641W        W78367  36.158  25.995   3.729
 6642W        W78368  19.440  13.889  14.948
 6643W        W78369  22.249  20.302  13.840
 6644W        W78370  41.514  18.054  12.030
 6645W        W78371  11.575   0.344   3.031
 6646W        W78372  32.081  12.794  14.717
 6647W        W78373  39.369   6.716   1.417
 6648W        W78374  24.892  37.191  13.453
 6649W        W78375  21.492  15.523  12.663
 6650W        W78376  16.589  24.943   2.797
 6651W        W78377   6.672  22.643  14.997
 6652W        W78378   0.406  11.900  11.271
 6653W        W78379  31.425  25.936   1.725
 6654W        W78380  14.194  18.223   3.988
 6655W        W78381  42.520  36.082  13.014
 6656W        W78382  38.952  30.115  13.377
 6657W        W78383  22.587  22.716   3.291
 6658W        W78384  35.054  19.565  14.529
 6659W        W78385  15.287  16.848   0.370
 6660W        W78386  28.483  42.020   0.137
 6661W        W78387  28.502   5.744   3.954
 6662W        W78388  39.352  30.625  10.610
 6663W        W78389  22.514  43.997  12.071
 6664W        W78390  26.601  11.774   2.588
 6665W        W78391   8.910   3.760  14.296
 6666W        W78392   3.155  24.071  11.603
 6667W        W78393  16.372  40.998  14.563
 6668W        W78394  15.228  44.701  11.090
 6669W        W78395  36.858  21.725   1.261
 6670W        W78396  30.488  22.992  14.450
 6671W        W78397  29.075  23.201   0.381
 6672W        W78398  26.741  39.405  11.778
 6673W        W78399   3.811  38.180  11.154
 6674W        W78400   0.409   0.232  11.965
 6675W        W78401  28.470   3.256  14.494
 6676W        W78402  34.420  32.098   4.153
 6677W        W78403  23.203  30.403  11.083
 6678W        W78404  35.823  19.208  14.434
 6679W        W78405  17.789   3.006  11.932
 6680W        W78406  42.235  18.270   1.440
 6681W        W78407  23.159   4.897   1.335
 6682W        W78408  12.284  43.833  14.786
 6683W        W78409  19.228   3.270  13.312
 6684W        W78410   5.798  41.704   0.430
 6685W        W78411  42.806  16.527  14.060
 6686W        W78412  20.263  36.823  14.287
 6687W        W78413  30.676  43.817  13.435
 6688W        W78414  26.573  29.655   2.239
 6689W        W78415  25.056  27.062   0.150
 6690W        W78416   8.446  34.963  12.845
 6691W        W78417   8.252  22.056  12.422
 6692W        W78418  44.749   3.243   1.662
 6693W        W78419   7.898  19.419  14.406
 6694W        W78420  26.392   9.328   0.998
 6695W        W78421  41.956  18.816   4.914
 6696W        W78422  24.178  18.080  11.480
 6697W        W78423  40.853  36.880   0.741
 6698W        W78424   1.708  29.156   4.120
 6699W        W78425  27.054  14.929  11.246
 6700W        W78426   6.728  12.256   4.582
 6701W        W78427  24.242  28.926   1.848
 6702W        W78428  19.119  14.863  13.527
 6703W        W78429   9.234  36.024   1.529
 6704W        W78430  42.288   4.821   0.983
 6705W        W78431  21.758  16.537  11.259
 6706W        W78432  35.357  35.983  11.581
 6707W        W78433  11.788  37.458  12.064
 6708W        W78434  31.144  11.476  10.658
 6709W        W78435  40.703   3.788  14.373
 6710W        W78436  20.102   7.901  11.209
 6711W        W78437  13.328  10.301  13.879
 6712W        W78438  11.510  16.154  14.000
 6713W        W78439  17.825  44.490  12.876
 6714W        W78440  19.782  43.999   1.200
 6715W        W78441  25.589  24.929   2.770
 6716W        W78442  29.165  12.124   4.162
 6717W        W78443  33.014  27.450  11.067
 6718W        W78444  27.503  39.148  13.896
 6719W        W78445  41.954  36.767   2.206
 6720W        W78446  31.400   7.252  13.370
 6721W        W78447  32.956  34.618   4.685
 6722W        W78448  42.216   6.441   3.874
 6723W        W78449  24.634  20.976   4.222
 6724W        W78450   7.734  11.647  11.898
 6725W        W78451  22.466   6.445   1.029
 6726W        W78452  36.140  25.014   0.982
 6727W        W78453  26.194  41.834  12.565
 6728W        W78454   9.142   8.794  10.494
 6729W        W78455  33.149  14.869   1.810
 6730W        W78456   8.171  35.495   2.740
 6731W        W78457  11.219  37.941  13.420
 6732W        W78458  20.147  39.530  12.101
 6733W        W78459  43.727  10.714  13.235
 6734W        W78460  43.936  37.424  14.529
 6735W        W78461  35.576  10.686  13.061
 6736W        W78462  36.731  24.555   1.751
 6737W        W78463  25.468  15.387  11.693
 6738W        W78464   9.379  10.838   1.720
 6739W        W78465  26.121  27.634  11.908
 6740W        W78466  32.042   7.809  13.809
 6741W        W78467   1.921   5.677  12.136
 6742W        W78468   1.012   2.527  12.868
 6743W        W78469  33.537  39.221  10.270
 6744W        W78470   4.951  39.389  13.916
 6745W        W78471  20.546  25.593   9.859
 6746W        W78472  27.210  21.906  14.357
 6747W        W78473  27.302  10.906   2.048
 6748W        W78474  33.573   7.367  12.867
 6749W        W78475  38.880  22.669   9.957
 6750W        W78476   5.897  24.792  11.592
 6751W        W78477  17.071  38.412   5.452
 6752W        W78478  22.741   1.286   1.664
 6753W        W78479  37.544  20.117   0.001
 6754W        W78480  16.978   3.948   2.205
 6755W        W78481   6.103  30.017   1.708
 6756W        W78482   7.754  23.311   0.267
 6757W        W78483  28.491  21.511   4.626
 6758W        W78484  14.687  34.668   2.849
 6759W        W78485  14.395  36.701   2.025
 6760W        W78486  34.552  36.634  12.906
 6761W        W78487   3.724  23.060   1.325
 6762W        W78488   2.156  22.475  13.705
 6763W        W78489   3.738  36.577   1.517
 6764W        W78490  18.232  10.723  13.290
 6765W        W78491   4.914  32.763   0.418
 6766W        W78492  28.032  22.184  14.759
 6767W        W78493  35.923  21.196  14.883
 6768W        W78494  41.246  40.008  13.485
 6769W        W78495  32.664   5.419   2.126
 6770W        W78496  29.656   7.747   0.493
 6771W        W78497  32.598  37.313  11.096
 6772W        W78498   0.746  25.049   0.545
 6773W        W78499  18.170   2.292   4.252
 6774W        W78500   9.272   1.884  12.510
 6775W        W78501  35.119  44.540   4.590
 6776W        W78502   5.668  32.711   3.679
 6777W        W78503  20.484  40.820  11.952
 6778W        W78504  39.052  16.657  13.471
 6779W        W78505  20.217  18.671  10.490
 6780W        W78506  21.691  14.857   3.791
 6781W        W78507   9.814  32.596   3.891
 6782W        W78508   8.298  28.569   1.421
 6783W        W78509  27.933  28.266   3.506
 6784W        W78510  10.034  39.727  10.840
 6785W        W78511   4.673  21.922  13.212
 6786W        W78512  25.593   9.688   2.574
 6787W        W78513  11.185  20.696   4.553
 6788W        W78514  33.309   6.848  14.943
 6789W        W78515   2.458  42.502   1.525
 6790W        W78516  22.695  16.754  12.341
 6791W        W78517  24.993  14.426  12.688
 6792W        W78518  41.423  41.986   3.465
 6793W        W78519  19.786  27.460   0.730
 6794W        W78520  36.887  15.391   2.372
 6795W        W78521  19.177  27.866   0.386
 6796W        W78522   7.736  28.007   3.151
 6797W        W78523  26.946  18.598  14.004
 6798W        W78524  27.909   9.896  13.823
 6799W        W78525   9.757  33.758  10.641
 6800W        W78526  18.246  34.385   1.398
 6801W        W78527   3.674   7.286  10.805
 6802W        W78528  12.714  20.225  11.579
 6803W        W78529  11.086   2.947  11.022
 6804W        W78530  39.133  31.113   1.338
 6805W        W78531   8.540  44.539   3.904
 6806W        W78532  26.867  12.021  14.958
 6807W        W78533  39.017  26.163  11.347
 6808W        W78534  14.709  13.343   2.721
 6809W        W78535  20.326   7.252  12.968
 6810W        W78536  36.989  15.195   4.548
 6811W        W78537  23.084  36.974  10.787
 6812W        W78538  43.521  23.044  10.423
 6813W        W78539  20.240  27.099  11.741
 6814W        W78540  10.564  16.200   0.837
 6815W        W78541  27.468  36.451   0.173
 6816W        W78542  10.659  43.527   2.772
 6817W        W78543   2.031  20.418   0.786
 6818W        W78544  13.108  29.004  10.414
 6819W        W78545  22.419  40.981  11.958
 6820W        W78546  30.628   0.495   1.390
 6821W        W78547  19.625  23.186  14.997
 6822W        W78548   2.908  41.368   0.000
 6823W        W78549  19.865  32.169  11.809
 6824W        W78550  42.286  17.018   4.531
 6825W        W78551  22.190  28.724  11.439
 6826W        W78552  30.322  11.798   2.639
 6827W        W78553  11.410  43.929   0.240
 6828W        W78554  14.199  39.228   1.982
 6829W        W78555  43.742  19.260   2.879
 6830W        W78556  41.920   3.480  12.356
 6831W        W78557   8.659  26.519  14.236
 6832W        W78558  14.082  20.194   1.195
 6833W        W78559   6.166   8.046  14.773
 6834W        W78560  39.098  24.908   1.299
 6835W        W78561  35.103  39.432  10.754
 6836W        W78562  13.705   5.718  14.529
 6837W        W78563  33.451  33.758   4.406
 6838W        W78564  15.773  41.538  10.395
 6839W        W78565  21.582  37.378  10.423
 6840W        W78566  21.645  18.175   5.065
 6841W        W78567   0.966  31.439   1.278
 6842W        W78568   6.370   7.840   3.183
 6843W        W78569  24.267  40.411   0.123
 6844W        W78570  32.929  14.490  14.999
 6845W        W78571  25.583  19.256   2.111
 6846W        W78572  42.905  38.136   1.454
 6847W        W78573   6.191  19.355  13.425
 6848W        W78574  10.003   9.020   4.794
 6849W        W78575  42.874  39.959  14.467
 6850W        W78576   2.952   5.362   4.117
 6851W        W78577   4.393  38.432   3.376
 6852W        W78578   3.777  24.494   2.787
 6853W        W78579  41.506   2.354   4.672
 6854W        W78580   2.453  40.000  13.392
 6855W        W78581   8.140  15.714   0.807
 6856W        W78582  32.463  42.527  14.226
 6857W        W78583   9.050  39.504   0.367
 6858W        W78584  17.265  14.136   2.586
 6859W        W78585  33.503   1.199   2.336
 6860W        W78586   0.410  11.999  13.563
 6861W        W78587  38.309  15.565   4.116
 6862W        W78588  26.430  22.313   2.213
 6863W        W78589  20.626  12.816   1.769
 6864W        W78590   7.343  32.050   3.663
 6865W        W78591  38.043  27.515   3.350
 6866W        W78592  18.608  20.301   2.799
 6867W        W78593  34.084  41.840   4.184
 6868W        W78594   3.727   6.728  12.569
 6869W        W78595   2.934  24.605  11.956
 6870W        W78596  30.576   9.126   3.708
 6871W        W78597  26.140  39.039  10.750
 6872W        W78598  24.595  31.633  12.000
 6873W        W78599  40.675  37.799   2.753
 6874W        W78600  44.052  28.962  11.434
 6875W        W78601   6.326  28.433  14.129
 6876W        W78602   3.681  23.357  14.797
 6877W        W78603  11.327   5.891   4.128
 6878W        W78604   6.166   9.726  11.972
 6879W        W78605  11.858   0.800   0.138
 6880W        W78606  19.689  41.266   3.827
 6881W        W78607  13.120  24.004   5.147
 6882W        W78608   3.016   6.717  13.782
 6883W        W78609  31.771   1.816  11.217
 6884W        W78610  44.862  18.857  11.644
 6885W        W78611   5.661  18.716   3.784
 6886W        W78612  26.647  38.400  13.949
 6887W        W78613   9.793  25.872   0.397
 6888W        W78614  35.011  32.899  14.765
 6889W        W78615  14.243  28.437   4.280
 6890W        W78616  26.425  41.465   4.879
 6891W        W78617  16.159  21.960  12.823
 6892W        W78618  28.696   9.788  14.297
 6893W        W78619   2.320   4.940  13.840
 6894W        W78620  10.192   6.118   3.737
 6895W        W78621  16.040  29.131  12.105
 6896W        W78622   3.249  23.607  14.955
 6897W        W78623   1.844  19.548  10.506
 6898W        W78624  21.344  41.742   4.242
 6899W        W78625  20.043  28.454   3.235
 6900W        W78626   5.454  39.713   0.811
 6901W        W78627   3.274   9.210  11.157
 6902W        W78628  36.589  13.784   4.253
 6903W        W78629  27.156   0.793  10.194
 6904W        W78630  10.192  24.031  11.415
 6905W        W78631  21.011  28.498   3.282
 6906W        W78632   7.899  23.587  10.767
 6907W        W78633  15.156  26.765   1.972
 6908W        W78634  16.077  38.769  12.406
 6909W        W78635  16.908   6.798   1.910
 6910W        W78636  14.270  44.251  10.013
 6911W        W78637  11.306  15.571   1.839
 6912W        W78638  22.834  24.032   2.061
 6913W        W78639  39.881  44.153  11.920
 6914W        W78640  14.783  39.316   2.451
 6915W        W78641   5.492   2.791  11.836
 6916W        W78642   8.873  34.347  10.727
 6917W        W78643  22.774  25.923   0.834
 6918W        W78644  28.915  40.962  14.972
 6919W        W78645  24.605  24.472  11.529
 6920W        W78646   1.859  21.235  11.091
 6921W        W78647   7.741   6.929  13.899
 6922W        W78648  18.163  36.472  10.961
 6923W        W78649  23.680  22.411   1.399
 6924W        W78650  36.674   5.114   3.134
 6925W        W78651  42.332  31.522  14.475
 6926W        W78652  37.013  29.880   1.865
 6927W        W78653  21.313  43.302   0.821
 6928W        W78654   9.941  23.742   2.755
 6929W        W78655   9.195  39.727  11.971
 6930W        W78656  39.883   4.121  12.502
 6931W        W78657  16.337   5.674   1.749
 6932W        W78658  40.312   4.890  11.194
 6933W        W78659  31.446  23.720   0.182
 6934W        W78660   7.289  35.154  13.427
 6935W        W78661  42.994  21.706  14.783
 6936W        W78662  22.693  10.435   2.211
 6937W        W78663  26.105  41.950  11.653
 6938W        W78664  41.301   9.749  10.979
 6939W        W78665  26.102   3.270   0.791
 6940W        W78666   9.696  37.115  12.838
 6941W        W78667  11.212  29.945   2.868
 6942W        W78668  40.351   6.441   3.751
 6943W        W78669  30.548  41.469   4.073
 6944W        W78670  31.927   6.771   4.998
 6945W        W78671  32.577   9.640   2.085
 6946W        W78672  13.212  22.040   4.650
 6947W        W78673   4.355   9.172  10.498
 6948W        W78674  36.443   7.425  14.505
 6949W        W78675   0.249  15.937  12.906
 6950W        W78676  34.550  19.327  11.476
 6951W        W78677  29.338   9.724   2.227
 6952W        W78678   5.685  21.022   3.770
 6953W        W78679  14.397  30.937  13.888
 6954W        W78680   7.705   1.867  11.473
 6955W        W78681  22.515   4.835  11.580
 6956W        W78682   7.445   7.162  14.893
 6957W        W78683  18.433  40.518  11.273
 6958W        W78684  16.560  36.886   4.716
 6959W        W78685  22.199  31.482   3.833
 6960W        W78686  35.832  36.038   4.165
 6961W        W78687  43.239  31.837  13.204
 6962W        W78688   6.995   5.653   2.414
 6963W        W78689  13.285  33.223  13.359
 6964W        W78690  29.640  37.930  11.684
 6965W        W78691  23.765  23.569   3.431
 6966W        W78692   2.944  33.444   0.852
 6967W        W78693  26.720  12.200  13.952
 6968W        W78694   4.752  13.531   2.886
 6969W        W78695  36.008  42.504   2.950
 6970W        W78696   9.134  18.758  11.083
 6971W        W78697  10.352  44.252  12.911
 6972W        W78698  18.066  42.273  12.205
 6973W        W78699  33.884  31.196   3.615
 6974W        W78700  34.531  28.317   2.856
 6975W        W78701  42.232   2.532   4.092
 6976W        W78702  37.272  16.373  13.413
 6977W        W78703  23.685  13.583  11.945
 6978W        W78704  25.751  13.140   1.318
 6979W        W78705   7.787  28.036  10.345
 6980W        W78706   6.907  33.367  14.460
 6981W        W78707  23.194  23.451  14.482
 6982W        W78708   7.575  44.844   2.089
 6983W        W78709  28.691  10.826  10.779
 6984W        W78710  39.872  34.983   4.355
 6985W        W78711  17.698  14.340   2.341
 6986W        W78712  18.806  34.878   4.925
 6987W        W78713  17.830  39.380   1.419
 6988W        W78714  19.936  21.119  12.435
 6989W        W78715  44.220  35.935   3.384
 6990W        W78716  20.931   4.429  11.030
 6991W        W78717  11.072  36.134  11.899
 6992W        W78718  22.662  35.248  13.486
 6993W        W78719  36.047   8.862   0.347
 6994W        W78720  40.718  28.940   1.788
 6995W        W78721  14.489  32.640  11.148
 6996W        W78722  31.734  37.019   1.315
 6997W        W78723  25.064  19.810  10.910
 6998W        W78724  13.284  29.102  11.324
 6999W        W78725  28.021  10.438  11.487
 7000W        W78726  29.127  40.771   2.266
 7001W        W78727  28.779  20.222   0.768
 7002W        W78728  42.847  22.942   2.728
 7003W        W78729  38.933  44.385   4.134
 7004W        W78730   2.297   2.858   4.295
 7005W        W78731  23.673  24.244  14.365
 7006W        W78732   5.889   9.451   2.665
 7007W        W78733  41.692  27.168  12.033
 7008W        W78734  27.910  10.420   4.617
 7009W        W78735  11.428   4.327   2.896
 7010W        W78736  39.135  41.123   2.802
 7011W        W78737  43.753  27.057  12.592
 7012W        W78738  28.825  29.697   0.030
 7013W        W78739  28.458  41.217   4.204
 7014W        W78740   9.368  20.745   0.728
 7015W        W78741  42.861  42.863  10.735
 7016W        W78742  10.713  41.572   3.755
 7017W        W78743  20.724   1.645  12.512
 7018W        W78744  19.037  21.652   4.290
 7019W        W78745  24.835   1.444  11.569
 7020W        W78746  29.064  43.347  14.884
 7021W        W78747  24.706   7.163  14.311
 7022W        W78748   8.677  32.994  11.145
 7023W        W78749   1.263   6.369   4.361
 7024W        W78750  36.493  37.635  11.043
 7025W        W78751  41.488  34.206   0.353
 7026W        W78752   1.212  15.004  12.500
 7027W        W78753  44.499   9.878  13.849
 7028W        W78754  42.333  35.167  13.075
 7029W        W78755   6.363  33.127   2.103
 7030W        W78756  29.170  19.252  12.044
 7031W        W78757  18.523  37.795   2.754
 7032W        W78758  24.115  25.639   3.654
 7033W        W78759  23.116  35.529   0.246
 7034W        W78760  34.840   6.847   2.369
 7035W        W78761  13.120  19.622   2.178
 7036W        W78762   3.387  30.728  13.444
 7037W        W78763  42.780  32.894  12.573
 7038W        W78764   0.898  22.202  13.978
 7039W        W78765  15.129  40.851   0.205
 7040W        W78766  42.849  36.925   1.690
 7041W        W78767  38.095   0.493   3.612
 7042W        W78768  36.233  28.183  14.442
 7043W        W78769   4.989   4.418   0.955
 7044W        W78770  22.195   2.779  10.746
 7045W        W78771  42.914   5.499  14.064
 7046W        W78772   9.322  30.182   1.446
 7047W        W78773  26.121  23.618  13.790
 7048W        W78774  38.073  36.183  11.661
 7049W        W78775  21.577  28.322   4.125
 7050W        W78776  43.224  39.981  10.732
 7051W        W78777  11.370  10.813   2.407
 7052W        W78778  16.642  33.846   0.388
 7053W        W78779  41.832  30.985  11.494
 7054W        W78780  43.991  44.541   4.088
 7055W        W78781  24.454  16.775   2.143
 7056W        W78782  27.922  28.660   2.204
 7057W        W78783  22.358  40.091   2.182
 7058W        W78784  29.180   3.949   0.727
 7059W        W78785   0.456   4.828  11.551
 7060W        W78786  38.307  25.702  14.806
 7061W        W78787  35.304  11.876   1.282
 7062W        W78788  43.896   1.137  13.268
 7063W        W78789   9.135  27.190  12.009
 7064W        W78790  13.700  21.312   1.909
 7065W        W78791  17.231   0.357   2.744
 7066W        W78792  37.551  23.777  12.873
 7067W        W78793  21.524  21.728   1.858
 7068W        W78794  25.156   4.616   4.135
 7069W        W78795  13.070  44.049   4.091
 7070W        W78796  44.570   3.471   2.872
 7071W        W78797  34.190  22.461  12.384
 7072W        W78798  44.926  10.258  14.999
 7073W        W78799  42.829  12.749  13.507
 7074W        W78800  30.040  24.680   1.617
 7075W        W78801   6.038  39.850  10.505
 7076W        W78802  20.518  10.750   2.191
 7077W        W78803  44.963  20.793   3.183
 7078W        W78804  19.021   4.300  12.368
 7079W        W78805  19.548  31.959  13.480
 7080W        W78806  30.995  29.862   1.316
 7081W        W78807  21.991  11.854  12.529
 7082W        W78808  35.390   2.693  11.540
 7083W        W78809  13.245  21.618  10.425
 7084W        W78810  29.611  17.283   0.936
 7085W        W78811   2.952  38.043   3.849
 7086W        W78812  22.757  13.405  12.943
 7087W        W78813  15.583   0.698   0.787
 7088W        W78814  38.477  20.674  14.406
 7089W        W78815  40.358   0.063   4.097
 7090W        W78816  36.045  26.692  14.044
 7091W        W78817  25.063  15.426   3.711
 7092W        W78818  23.700  20.246   2.723
 7093W        W78819  35.585  17.451  11.979
 7094W        W78820  32.633  10.241   2.429
 7095W        W78821   2.415  23.391   3.804
 7096W        W78822  41.957  11.953   3.720
 7097W        W78823  34.294  26.146  11.041
 7098W        W78824  12.254  40.755   3.303
 7099W        W78825  24.929   0.721  10.000
 7100W        W78826  28.415  23.095   1.020
 7101W        W78827   2.836  39.676  13.449
 7102W        W78828  29.134   9.626   2.941
 7103W        W78829  13.841  15.360   2.243
 7104W        W78830  38.800  33.091   0.221
 7105W        W78831  31.537   1.301   2.369
 7106W        W78832  18.509  38.485  11.627
 7107W        W78833  18.765  11.805  13.000
 7108W        W78834  21.560  30.164   0.581
 7109W        W78835  14.460   9.152   4.111
 7110W        W78836   2.986   6.348  12.450
 7111W        W78837   7.497  10.343   1.041
 7112W        W78838  31.469   6.812  13.860
 7113W        W78839  12.233   4.667   3.404
 7114W        W78840   1.815  19.593   4.140
 7115W        W78841  30.049  14.291   3.823
 7116W        W78842  20.679  15.146  14.909
 7117W        W78843  24.027  40.808   4.153
 7118W        W78844  40.588  35.321  13.503
 7119W        W78845  11.807  35.138  12.306
 7120W        W78846  14.132  29.385   2.707
 7121W        W78847   3.496   0.492   0.755
 7122W        W78848   4.908   0.371   1.185
 7123W        W78849   3.986  17.071  11.552
 7124W        W78850   9.344  21.723  13.960
 7125W        W78851  41.990  38.023  14.979
 7126W        W78852  31.693  29.942   3.714
 7127W        W78853  42.404  33.628  10.711
 7128W        W78854  38.423  42.547  11.500
 7129W        W78855  12.889  32.613  12.929
 7130W        W78856  39.582  24.186  11.931
 7131W        W78857  44.874  26.574   1.407
 7132W        W78858  22.072  32.432   0.009
 7133W        W78859  44.536   6.767   2.375
 7134W        W78860   7.675  34.808  11.918
 7135W        W78861  43.122  11.318  10.570
 7136W        W78862  44.749  20.202  13.299
 7137W        W78863  11.069  12.319   3.829
 7138W        W78864  12.117   4.607   4.849
 7139W        W78865  43.278  32.808  12.767
 7140W        W78866   6.086  28.064  12.516
 7141W        W78867   3.712  35.613  13.543
 7142W        W78868   1.507  31.968   1.459
 7143W        W78869  21.576  33.000   3.558
 7144W        W78870  34.722  30.429   1.194
 7145W        W78871  42.221  44.346  13.580
 7146W        W78872   9.934  13.805   3.699
 7147W        W78873  11.806   0.514  10.638
 7148W        W78874  43.958  37.057   3.862
 7149W        W78875   9.638  37.411  11.354
 7150W        W78876  33.968  16.082   4.979
 7151W        W78877   0.194  36.609  12.980
 7152W        W78878  23.550  25.946  11.523
 7153W        W78879  18.819   6.765  14.925
 7154W        W78880   1.599  39.130  12.931
 7155W        W78881   8.863   4.709   0.699
 7156W        W78882  11.174  24.278  12.128
 7157W        W78883   4.944  43.955   2.127
 7158W        W78884  24.569   0.408   5.020
 7159W        W78885  20.169  10.224   2.329
 7160W        W78886  42.530  34.989   0.851
 7161W        W78887  41.016  41.032  13.192
 7162W        W78888  22.525   6.214   2.643
 7163W        W78889   7.678  14.712  10.593
 7164W        W78890  22.955  24.605  13.967
 7165W        W78891  44.911  38.418  12.497
 7166W        W78892  11.712  23.693   2.171
 7167W        W78893  31.030  34.633  12.062
 7168W        W78894  10.229   2.338   2.243
 7169W        W78895   1.397  26.720   3.748
 7170W        W78896  10.384  36.237   5.253
 7171W        W78897  29.097  41.486  13.526
 7172W        W78898  40.320  36.489  13.858
 7173W        W78899   6.287  16.750  10.105
 7174W        W78900  31.119   4.199  12.915
 7175W        W78901  27.168   4.560  10.541
 7176W        W78902  27.593  25.586   1.224
 7177W        W78903  24.071  12.304   1.283
 7178W        W78904   6.344  41.547  14.603
 7179W        W78905  21.226   4.740   1.224
 7180W        W78906  38.864   7.845  14.736
 7181W        W78907  43.237  11.770  14.392
 7182W        W78908  33.016  26.228  11.628
 7183W        W78909  12.652   1.379   4.172
 7184W        W78910   7.867  27.389   2.357
 7185W        W78911  14.848  13.670  12.042
 7186W        W78912  42.378  36.251  12.063
 7187W        W78913  38.252  24.973   3.742
 7188W        W78914  26.658  12.098  12.978
 7189W        W78915  36.021  17.975  10.620
 7190W        W78916  44.427   6.228  11.193
 7191W        W78917   8.756  43.577  13.879
 7192W        W78918  20.202  19.210  12.119
 7193W        W78919  28.646  28.543  10.491
 7194W        W78920  27.045  21.560  13.436
 7195W        W78921  13.149  34.716  13.388
 7196W        W78922  10.380  29.444  10.835
 7197W        W78923  37.461  42.226   3.246
 7198W        W78924  20.600  38.053  11.482
 7199W        W78925  20.750  28.246  12.525
 7200W        W78926  37.032  38.271   1.004
 7201W        W78927  41.607  35.656   3.802
 7202W        W78928  30.503  39.772   4.521
 7203W        W78929  28.390  31.630   4.680
 7204W        W78930   2.657  12.474   1.425
 7205W        W78931   1.241  42.526   2.814
 7206W        W78932  28.451  20.518   3.759
 7207W        W78933  22.967  11.072  12.871
 7208W        W78934  23.784  44.402   2.418
 7209W        W78935   9.032  17.417   0.801
 7210W        W78936  40.836   0.526  14.753
 7211W        W78937  31.284  31.546  12.084
 7212W        W78938  23.856  15.762  10.328
 7213W        W78939  20.116   8.248   3.274
 7214W        W78940  34.257   8.140  14.755
 7215W        W78941  10.251  36.443  14.253
 7216W        W78942  27.471  16.643  11.181
 7217W        W78943  41.479  40.223   4.686
 7218W        W78944  37.223  14.212   3.706
 7219W        W78945  29.406  37.439  13.854
 7220W        W78946  35.222  43.280   3.372
 7221W        W78947   4.852  37.427  10.510
 7222W        W78948  20.989  13.501   4.579
 7223W        W78949   4.106   8.324   0.537
 7224W        W78950  10.788  16.321   2.778
 7225W        W78951   5.403  11.701   3.709
 7226W        W78952   8.457  44.820   2.364
 7227W        W78953   8.559  16.882  13.780
 7228W        W78954  41.785  25.447   9.819
 7229W        W78955   1.721  41.432  13.768
 7230W        W78956  33.731  14.278  11.300
 7231W        W78957  43.508  22.841   1.712
 7232W        W78958  30.412  19.976  13.959
 7233W        W78959  28.957   5.916   4.142
 7234W        W78960  14.244   9.297   0.934
 7235W        W78961  15.603  28.694  14.038
 7236W        W78962  16.731   2.540  12.620
 7237W        W78963  22.524  16.324  14.503
 7238W        W78964  14.901  41.564  14.454
 7239W        W78965  43.866   1.100   4.089
 7240W        W78966   4.162  10.253  12.474
 7241W        W78967  43.358  35.050   3.044
 7242W        W78968   9.782  20.667   4.773
 7243W        W78969  36.227  27.029   4.557
 7244W        W78970   8.316  31.181   2.374
 7245W        W78971  36.802  10.993   3.137
 7246W        W78972  11.304   2.737   3.322
 7247W        W78973  26.752  21.316   1.058
 7248W        W78974   4.620  38.295   4.764
 7249W        W78975  14.022   1.491   1.198
 7250W        W78976   2.471  35.961  14.728
 7251W        W78977   0.412  25.512   3.287
 7252W        W78978  35.667  23.004  14.500
 7253W        W78979  15.514  36.302   1.757
 7254W        W78980  23.645   8.694   4.144
 7255W        W78981  31.533  14.613  11.141
 7256W        W78982  24.461  25.052   0.739
 7257W        W78983  43.211  27.749   2.820
 7258W        W78984   3.841  28.331  14.771
 7259W        W78985  13.773   6.929   2.456
 7260W        W78986  35.948  14.288  10.679
 7261W        W78987  21.088  22.277   0.607
 7262W        W78988   3.002  38.394   1.919
 7263W        W78989  43.327  20.188   4.513
 7264W        W78990  10.388  18.347   3.371
 7265W        W78991  23.109  20.190   0.275
 7266W        W78992   8.662  28.904   4.579
 7267W        W78993  27.516  13.050  14.352
 7268W        W78994  42.268  34.987   2.829
 7269W        W78995  28.995  25.215   0.767
 7270W        W78996   8.903  39.688  10.038
 7271W        W78997  27.065  12.955  11.189
 7272W        W78998   5.305   1.536   4.067
 7273W        W78999  13.913   2.434   3.618
 7274W        W79000  23.957  15.643  14.334
 7275W        W79001  38.081  20.294  14.052
 7276W        W79002  39.497  11.259   0.682
 7277W        W79003   7.919  27.674   2.791
 7278W        W79004  40.509  41.018   3.392
 7279W        W79005  34.621   3.510   2.344
 7280W        W79006  35.509   5.868   0.756
 7281W        W79007   1.522  18.483  13.920
 7282W        W79008  25.565  14.575   3.701
 7283W        W79009  43.338  19.914   2.377
 7284W        W79010  26.451   0.424  10.649
 7285W        W79011  20.035  17.183   1.740
 7286W        W79012  44.413   9.988  11.052
 7287W        W79013  24.700   1.813   4.110
 7288W        W79014  37.964  26.982  11.899
 7289W        W79015   6.930  38.460   4.637
 7290W        W79016  38.904  13.617   1.364
 7291W        W79017   3.635  12.816   3.301
 7292W        W79018  16.353  23.914  12.514
 7293W        W79019  11.383  43.794   2.357
 7294W        W79020   4.342  11.049  14.496
 7295W        W79021  37.630  15.664  13.019
 7296W        W79022  21.781   9.835   2.229
 7297W        W79023  43.943  40.316  13.841
 7298W        W79024  27.114  12.871  12.638
 7299W        W79025   4.931  10.103  11.057
 7300W        W79026  15.123  18.778   0.250
 7301W        W79027  37.277   6.599  14.794
 7302W        W79028  35.947  15.844  11.558
 7303W        W79029  23.550   4.358  13.408
 7304W        W79030  43.845   6.951   3.645
 7305W        W79031   1.062   8.960   0.051
 7306W        W79032  23.610  39.396   4.749
 7307W        W79033  42.383  43.573  10.991
 7308W        W79034  24.973   9.079  11.556
 7309W        W79035  31.898  11.334  14.795
 7310W        W79036   6.253  34.363   0.162
 7311W        W79037  20.598  18.310  11.105
 7312W        W79038  30.427  14.101  12.051
 7313W        W79039   2.387  34.676   0.887
 7314W        W79040  23.516  23.464   0.509
 7315W        W79041  15.156  16.098  12.837
 7316W        W79042  42.395  10.307   2.924
 7317W        W79043  28.130   7.878  14.448
 7318W        W79044  27.997   2.745  12.819
 7319W        W79045  43.962  21.214  14.037
 7320W        W79046  13.258  43.572   2.252
 7321W        W79047  19.340  14.959   0.897
 7322W        W79048  18.794   1.302  13.001
 7323W        W79049   2.892  15.986  10.429
 7324W        W79050   7.197  24.530  13.863
 7325W        W79051  39.360   3.357   2.869
 7326W        W79052  40.531   7.400   5.059
 7327W        W79053  22.993  20.238  12.062
 7328W        W79054  37.569   9.169  11.459
 7329W        W79055   6.291  29.658   3.311
 7330W        W79056  23.704  34.752  12.813
 7331W        W79057  13.703  36.988   4.099
 7332W        W79058  26.985  17.237   0.169
 7333W        W79059  14.336  25.107   2.163
 7334W        W79060  13.244  36.217  12.140
 7335W        W79061  27.773  39.141   2.751
 7336W        W79062  22.566  33.060  12.109
 7337W        W79063  44.490  14.660  13.925
 7338W        W79064  36.862  27.785  13.959
 7339W        W79065  29.712  41.062   3.883
 7340W        W79066  15.358  32.511   3.094
 7341W        W79067  14.687  39.068  12.529
 7342W        W79068  36.593  33.871   1.278
 7343W        W79069   1.031  12.286   3.244
 7344W        W79070  31.838  29.001  12.485
 7345W        W79071  29.351  13.260  12.538
 7346W        W79072   3.694  31.714  11.064
 7347W        W79073   8.694  43.418   0.991
 7348W        W79074  12.867   8.467   4.125
 7349W        W79075  22.650   3.461   0.723
 7350W        W79076  37.935  11.641   0.769
 7351W        W79077  42.462  26.011  12.477
 7352W        W79078   6.522  30.636  10.788
 7353W        W79079   6.909  17.673  10.827
 7354W        W79080  32.761   2.802   3.277
 7355W        W79081   3.196  43.503  12.035
 7356W        W79082  11.182  44.824  10.609
 7357W        W79083  37.011  40.046  11.528
 7358W        W79084   2.258  21.363   1.761
 7359W        W79085  19.293  24.133  13.975
 7360W        W79086  15.070  39.021  13.284
 7361W        W79087  32.625  32.612  12.391
 7362W        W79088   0.706   4.382  11.483
 7363W        W79089  31.388  11.373   1.797
 7364W        W79090  44.832  28.847   2.249
 7365W        W79091  31.130  19.981   2.669
 7366W        W79092   5.847   1.529  14.419
 7367W        W79093   8.379  19.412   0.034
 7368W        W79094  15.049  33.071   4.260
 7369W        W79095   3.417  19.877  11.977
 7370W        W79096  18.570   2.634  12.686
 7371W        W79097   6.442  23.105  14.883
 7372W        W79098  18.695  26.600  13.866
 7373W        W79099  32.695  19.995   0.320
 7374W        W79100  18.022  34.248  12.603
 7375W        W79101   6.082   6.088   1.272
 7376W        W79102  24.590  19.567   2.375
 7377W        W79103  14.089  44.987  13.768
 7378W        W79104  35.555  37.052  12.069
 7379W        W79105  25.534  44.808  11.471
 7380W        W79106  24.110  24.439   2.332
 7381W        W79107  14.636  41.498   3.257
 7382W        W79108   8.159  29.066  13.824
 7383W        W79109   4.303  13.611   0.530
 7384W        W79110   7.758  17.171  11.204
 7385W        W79111   7.162  41.853  14.911
 7386W        W79112  19.997  42.455  13.819
 7387W        W79113  26.594  40.486   3.199
 7388W        W79114  42.014  25.556  10.875
 7389W        W79115  23.017  11.243   3.320
 7390W        W79116  13.243  20.611  12.432
 7391W        W79117  39.871   8.874   3.249
 7392W        W79118  35.555  18.784  10.795
 7393W        W79119  11.393  30.018  14.544
 7394W        W79120  32.886  44.444  11.407
 7395W        W79121   9.441  13.057  13.005
 7396W        W79122  36.899   1.648   2.389
 7397W        W79123  41.768  10.464  14.939
 7398W        W79124  35.520  28.689  12.950
 7399W        W79125  26.149  40.813  14.903
 7400W        W79126  18.362  13.668   2.301
 7401W        W79127   6.523   5.436  12.517
 7402W        W79128   4.864  42.123   1.911
 7403W        W79129  31.513   6.385  10.695
 7404W        W79130  17.646   9.734   4.382
 7405W        W79131  24.319  16.939  12.054
 7406W        W79132  33.857  32.637   3.105
 7407W        W79133  26.206  38.468  11.185
 7408W        W79134   8.624   4.745  11.033
 7409W        W79135  10.835  18.021   2.411
 7410W        W79136  34.301  21.560  11.827
 7411W        W79137  12.346   2.481  11.186
 7412W        W79138  20.842   5.516   2.835
 7413W        W79139  24.055  16.995   3.713
 7414W        W79140  30.176   0.372  10.320
 7415W        W79141  35.489  27.276   1.424
 7416W        W79142   3.824  43.935   2.795
 7417W        W79143  12.174   9.272  11.672
 7418W        W79144   1.374  29.927   1.612
 7419W        W79145   1.403  39.525  10.698
 7420W        W79146  21.913   1.446   0.179
 7421W        W79147  35.893  13.097  13.035
 7422W        W79148  19.746  17.195   3.253
 7423W        W79149   5.640  20.668   0.692
 7424W        W79150  33.921   8.882  14.381
 7425W        W79151  20.467   3.308  14.046
 7426W        W79152  14.012  37.469  12.219
 7427W        W79153  11.619   7.933  11.873
 7428W        W79154  19.035   9.866  10.641
 7429W        W79155  26.047  23.000   4.035
 7430W        W79156  26.445   3.492  13.485
 7431W        W79157  29.659   8.755   4.132
 7432W        W79158  42.506   3.989  14.488
 7433W        W79159  44.771  24.534   4.180
 7434W        W79160  36.748   4.203  12.453
 7435W        W79161  22.570   2.276   1.732
 7436W        W79162  29.373  40.008   4.044
 7437W        W79163  12.071  27.212   2.250
 7438W        W79164   4.138  43.997   0.900
 7439W        W79165  28.004  13.969   1.257
 7440W        W79166  43.117  26.968  11.166
 7441W        W79167   8.174  20.726  13.420
 7442W        W79168  29.868   4.392   2.664
 7443W        W79169  34.346   6.938   0.143
 7444W        W79170  24.005  13.872  10.747
 7445W        W79171  24.725  27.089   1.193
 7446W        W79172  22.777  36.931   0.305
 7447W        W79173  43.805  10.362   1.393
 7448W        W79174  15.685   5.599  10.422
 7449W        W79175  41.639  13.122  13.881
 7450W        W79176  22.976  38.001  13.478
 7451W        W79177  11.813  10.422   2.618
 7452W        W79178  35.097  37.052   1.044
 7453W        W79179  42.526  44.062  12.937
 7454W        W79180  27.630  44.372   2.435
 7455W        W79181  37.550   0.316   3.243
 7456W        W79182  36.591   5.264  10.445
 7457W        W79183  44.268  26.078  14.803
 7458W        W79184  14.608   5.327  12.459
 7459W        W79185  29.424  17.970  12.336
 7460W        W79186  23.069  15.005  13.733
 7461W        W79187  34.839  44.290   3.263
 7462W        W79188  14.106  24.558   4.338
 7463W        W79189  28.111  11.833   3.391
 7464W        W79190  14.633  17.402  11.784
 7465W        W79191  28.273  24.574   2.364
 7466W        W79192   5.135   5.836   4.531
 7467W        W79193  20.242   3.370   4.224
 7468W        W79194  26.685  33.521  14.683
 7469W        W79195  13.821  13.749   3.691
 7470W        W79196  44.434  38.029  12.645
 7471W        W79197   2.987   9.918   0.415
 7472W        W79198  32.091   8.266   4.290
 7473W        W79199  30.595  38.432   0.205
 7474W        W79200  28.708   6.712   1.439
 7475W        W79201  41.002  15.631  10.925
 7476W        W79202  26.545   6.153   0.283
 7477W        W79203  39.354  25.031   0.624
 7478W        W79204  35.995   5.955   4.151
 7479W        W79205   7.795  15.772   4.148
 7480W        W79206  38.191  40.479   4.066
 7481W        W79207   9.368   4.967   4.991
 7482W        W79208  38.434  19.528  11.097
 7483W        W79209  25.383  41.249   1.700
 7484W        W79210  28.222  34.745   4.274
 7485W        W79211   1.750  31.982  10.058
 7486W        W79212  12.549  41.865   1.079
 7487W        W79213   7.517  32.994   3.767
 7488W        W79214  26.497   2.911  14.066
 7489W        W79215  35.061  24.234  11.576
 7490W        W79216  44.844  38.337   3.766
 7491W        W79217  39.841  42.722   0.796
 7492W        W79218  23.593  11.717   0.220
 7493W        W79219  16.795   4.746  14.010
 7494W        W79220  32.398  32.608   1.816
 7495W        W79221  41.600  32.176   0.487
 7496W        W79222  17.085  13.860  11.525
 7497W        W79223  19.713  25.750   0.321
 7498W        W79224  10.386  22.299  10.879
 7499W        W79225   6.674  43.296  10.674
 7500W        W79226   5.039   2.642  11.068
 7501W        W79227   6.927   7.216   3.670
 7502W        W79228  42.045  33.520  11.660
 7503W        W79229  13.798  26.471   2.487
 7504W        W79230  24.907  23.306   0.705
 7505W        W79231   9.915  42.610  10.221
 7506W        W79232   3.636  43.539  13.326
 7507W        W79233  43.276  44.560   3.129
 7508W        W79234  14.222   8.345   1.949
 7509W        W79235   8.650   8.425   4.276
 7510W        W79236  16.204  34.920   0.439
 7511W        W79237   3.772   9.892   1.198
 7512W        W79238  11.566  18.095   2.730
 7513W        W79239  38.422   1.016  12.060
 7514W        W79240   6.205  44.389  13.303
 7515W        W79241  17.215  14.392  12.513
 7516W        W79242  30.950   6.431   4.069
 7517W        W79243  36.901  44.004  13.862
 7518W        W79244   2.164   0.872  13.971
 7519W        W79245  27.547  20.713   4.355
 7520W        W79246  43.121  21.755   1.209
 7521W        W79247  42.870  25.665  11.865
 7522W        W79248  43.299   8.315  13.776
 7523W        W79249  43.184  18.570   2.906
 7524W        W79250  44.841   8.167   3.176
 7525W        W79251  24.185  41.170   4.518
 7526W        W79252  11.620  23.799  14.802
 7527W        W79253  30.428  29.858  10.845
 7528W        W79254  38.726  25.652   4.152
 7529W        W79255  20.833  44.458  13.974
 7530W        W79256  41.324   3.677   3.558
 7531W        W79257  44.985  15.694  11.545
 7532W        W79258  43.769  34.599   4.943
 7533W        W79259  12.897  31.992   1.362
 7534W        W79260  13.277  34.605   0.240
 7535W        W79261  31.662   8.875   0.819
 7536W        W79262   5.192  15.110  13.326
 7537W        W79263   0.780  37.850   1.042
 7538W        W79264   7.540  25.148   3.237
 7539W        W79265   8.194  21.762   1.239
 7540W        W79266  25.448  23.319   0.806
 7541W        W79267  38.428   7.021   3.418
 7542W        W79268   7.741  36.418  11.521
 7543W        W79269  32.437   4.181  11.367
 7544W        W79270  13.899  26.668   0.845
 7545W        W79271  19.401  23.891  11.755
 7546W        W79272   7.975  25.001  10.235
 7547W        W79273  13.488   9.636  14.872
 7548W        W79274  24.014  34.151  12.101
 7549W        W79275  40.405  35.956   4.981
 7550W        W79276   5.711   2.272   0.205
 7551W        W79277  43.008  38.369  14.264
 7552W        W79278  26.551  28.393  13.510
 7553W        W79279  28.433   6.692   4.276
 7554W        W79280   0.850  11.628   4.546
 7555W        W79281   5.386  41.977  10.801
 7556W        W79282  26.085  24.686  12.467
 7557W        W79283  18.976   5.906  11.379
 7558W        W79284  26.190  33.890   2.831
 7559W        W79285  20.020  10.919   1.447
 7560W        W79286  14.444  13.673  11.271
 7561W        W79287  35.807  14.982   0.913
 7562W        W79288  17.725   7.303  12.463
 7563W        W79289  18.558  30.391   1.076
 7564W        W79290   7.153  36.550  14.214
 7565W        W79291   7.204  22.575  14.876
 7566W        W79292   7.509  11.031  14.534
 7567W        W79293  28.207  15.251   1.791
 7568W        W79294  13.443  34.885   4.975
 7569W        W79295  25.636   1.236  10.033
 7570W        W79296  29.546  38.641   0.762
 7571W        W79297  29.002  43.228  13.960
 7572W        W79298   9.290  42.996  14.303
 7573W        W79299  32.775  41.339  12.567
 7574W        W79300  40.603  12.184  12.967
 7575W        W79301   2.233   0.685  11.989
 7576W        W79302  40.739  43.148  12.139
 7577W        W79303  41.095  36.896  13.733
 7578W        W79304  14.567  19.127   4.972
 7579W        W79305  23.595  28.547   0.476
 7580W        W79306   3.903  27.007  12.883
 7581W        W79307  34.569   8.706   2.713
 7582W        W79308  42.471  17.953  10.392
 7583W        W79309  28.539  27.738  13.353
 7584W        W79310  18.279  38.555   0.259
 7585W        W79311  28.665  36.846  12.764
 7586W        W79312  23.775  20.056  13.377
 7587W        W79313  12.914  23.511   2.615
 7588W        W79314  43.125  43.021  10.190
 7589W        W79315  20.852  38.042  12.365
 7590W        W79316  36.541  42.298   1.292
 7591W        W79317  20.130  17.306   2.220
 7592W        W79318  34.837  24.105  14.321
 7593W        W79319  13.737   9.658  14.417
 7594W        W79320  42.523  32.900  11.118
 7595W        W79321  44.949  44.230   1.868
 7596W        W79322  21.263   3.213  10.841
 7597W        W79323  23.477  14.652  12.825
 7598W        W79324   9.252  20.286   2.451
 7599W        W79325   1.005  43.217   0.367
 7600W        W79326   3.957  37.908  14.561
 7601W        W79327   9.115  34.043   0.360
 7602W        W79328  42.788   9.439  11.079
 7603W        W79329   6.287  44.356   1.876
 7604W        W79330  30.508  36.664  13.559
 7605W        W79331  21.400  42.536   1.401
 7606W        W79332  34.658  31.524   3.303
 7607W        W79333  13.725  39.811  14.517
 7608W        W79334  11.142  21.807  11.049
 7609W        W79335  40.712   8.534  10.605
 7610W        W79336  10.103  19.127   2.373
 7611W        W79337   5.372  18.133  13.077
 7612W        W79338   0.298   2.261   2.668
 7613W        W79339  19.995   8.530   0.287
 7614W        W79340  12.877  24.546   0.472
 7615W        W79341   9.151  17.761   3.270
 7616W        W79342  39.008  39.848   0.450
 7617W        W79343  18.599  14.887  11.675
 7618W        W79344   7.175   8.714  12.693
 7619W        W79345  14.524   8.076   2.857
 7620W        W79346  42.063  14.949   0.078
 7621W        W79347  19.042   6.622  13.705
 7622W        W79348  33.340  10.633   0.549
 7623W        W79349   8.820  13.219  14.471
 7624W        W79350   7.961  24.734  14.731
 7625W        W79351   4.237  34.489   3.080
 7626W        W79352  28.449  19.783   3.254
 7627W        W79353  37.963  44.386   1.981
 7628W        W79354   4.989  13.698  10.573
 7629W        W79355  39.787  10.844  14.313
 7630W        W79356  28.725  19.178   2.560
 7631W        W79357  33.288   2.989  14.320
 7632W        W79358  34.140  12.148   3.232
 7633W        W79359   1.400  44.455  14.733
 7634W        W79360  39.310  26.151  14.861
 7635W        W79361  31.262  43.213  10.680
 7636W        W79362  39.568  13.643  14.987
 7637W        W79363  22.381  19.846   0.880
 7638W        W79364   5.640  30.021   1.910
 7639W        W79365  13.528   0.192   1.629
 7640W        W79366   5.230   7.796  12.787
 7641W        W79367  41.384  23.697   1.948
 7642W        W79368  24.419   7.310   2.715
 7643W        W79369  20.672   2.614   0.878
 7644W        W79370   7.382  22.014   1.224
 7645W        W79371  39.675  35.803   2.647
 7646W        W79372  23.256  44.563  14.303
 7647W        W79373  14.653   7.272   3.313
 7648W        W79374   7.361   2.232   3.553
 7649W        W79375  37.956   1.383  14.399
 7650W        W79376  29.430  30.984   1.312
 7651W        W79377  27.021   7.502   0.956
 7652W        W79378  38.653   3.881   3.125
 7653W        W79379   9.890  17.158  12.839
 7654W        W79380  39.602  43.289  12.778
 7655W        W79381  11.914   6.895   1.531
 7656W        W79382  39.424  44.414  14.917
 7657W        W79383  16.194  38.579   3.360
 7658W        W79384  38.606  22.058  14.381
 7659W        W79385  32.317  18.223   9.683
 7660W        W79386  26.725  17.871  11.227
 7661W        W79387   7.905  28.209   2.713
 7662W        W79388  13.029  14.794   0.811
 7663W        W79389   0.431   1.883  14.740
 7664W        W79390  29.892  25.692  11.502
 7665W        W79391  11.661  36.094   2.196
 7666W        W79392  31.737  41.861  10.669
 7667W        W79393  25.135  34.831   4.317
 7668W        W79394  23.670   0.379  13.084
 7669W        W79395   4.753  33.927   4.477
 7670W        W79396  25.410   4.810  11.627
 7671W        W79397  34.596   4.457   1.263
 7672W        W79398  22.062  23.937   4.045
 7673W        W79399  32.776   0.184  10.907
 7674W        W79400  34.343  37.647   3.364
 7675W        W79401  26.074   0.009   2.798
 7676W        W79402  36.076  19.413   0.439
 7677W        W79403  42.212  16.083  12.132
 7678W        W79404  13.677   6.367  12.535
 7679W        W79405  38.082  17.028   4.133
 7680W        W79406  34.505  26.071   1.946
 7681W        W79407   3.843   5.272   4.458
 7682W        W79408  32.531  43.417   2.892
 7683W        W79409  39.404  11.182  11.660
 7684W        W79410  19.772   7.733  14.992
 7685W        W79411  41.919  28.805   1.667
 7686W        W79412  21.841  43.544  11.493
 7687W        W79413  39.426  26.001  11.067
 7688W        W79414  40.797  14.651   0.471
 7689W        W79415  10.203  24.950  13.464
 7690W        W79416  33.740   8.735  12.024
 7691W        W79417  36.814  24.049   1.855
 7692W        W79418  14.625  33.550   0.741
 7693W        W79419   4.493  21.241   2.265
 7694W        W79420   3.548  11.769   1.799
 7695W        W79421  16.750  41.726  13.500
 7696W        W79422  33.610  18.979  13.037
 7697W        W79423  33.238  37.493   4.628
 7698W        W79424  12.228  28.005   1.801
 7699W        W79425   8.237  25.705   1.439
 7700W        W79426  44.752  19.752  11.686
 7701W        W79427   0.931  25.573   1.846
 7702W        W79428  24.516  44.252   4.132
 7703W        W79429  18.260  33.600   2.456
 7704W        W79430  10.077  24.090   4.588
 7705W        W79431   1.496  21.700  14.755
 7706W        W79432  13.089  41.773  10.743
 7707W        W79433  37.274   5.425  12.969
 7708W        W79434  13.800  26.054  13.054
 7709W        W79435  24.156  24.230   1.838
 7710W        W79436  38.444   1.349   4.644
 7711W        W79437   1.204  41.009  10.946
 7712W        W79438   3.313  14.784   3.168
 7713W        W79439  11.256   5.274   2.657
 7714W        W79440  13.215   7.684   3.217
 7715W        W79441  25.520  32.346  12.537
 7716W        W79442  13.095  41.253  10.796
 7717W        W79443  11.134  10.587  11.739
 7718W        W79444   0.363  32.868  11.668
 7719W        W79445  13.741  21.729  11.191
 7720W        W79446   2.704  24.713  12.407
 7721W        W79447  29.850  21.228  11.048
 7722W        W79448   7.641   1.233  11.150
 7723W        W79449  36.026  31.300   1.435
 7724W        W79450  38.155  19.643   4.677
 7725W        W79451   5.976   1.304  12.612
 7726W        W79452  37.402   5.722  10.748
 7727W        W79453  33.347  42.416   5.288
 7728W        W79454  36.091  22.536   2.682
 7729W        W79455  43.904  35.798   2.784
 7730W        W79456  37.975  14.829   2.751
 7731W        W79457  27.397  33.606   2.391
 7732W        W79458   5.454  20.413  12.161
 7733W        W79459  27.553   6.992  10.527
 7734W        W79460  27.721  28.067  13.054
 7735W        W79461  41.736  31.556   0.416
 7736W        W79462  19.081  10.346   4.743
 7737W        W79463  17.810  42.018   1.762
 7738W        W79464   0.691  28.578  10.324
 7739W        W79465  43.360  37.910   1.320
 7740W        W79466  17.290  39.779   1.864
 7741W        W79467  41.442  26.427   2.387
 7742W        W79468  31.894   1.241  14.527
 7743W        W79469  17.761  39.476   3.596
 7744W        W79470   9.506  35.824  12.898
 7745W        W79471  14.649  30.427  13.913
 7746W        W79472   0.981  17.439  13.288
 7747W        W79473   4.937  14.810  14.349
 7748W        W79474  19.473  12.744  11.154
 7749W        W79475  39.307  14.286  13.401
 7750W        W79476  42.789  15.535   2.194
 7751W        W79477  33.631   9.305   1.026
 7752W        W79478  39.019  16.482   1.199
 7753W        W79479  26.568  16.849   2.609
 7754W        W79480  41.550  14.524  14.784
 7755W        W79481  29.489  33.012   1.864
 7756W        W79482  29.452  22.495  11.598
 7757W        W79483  41.459   4.569   2.344
 7758W        W79484  19.796  16.045  11.090
 7759W        W79485  10.783  23.379  12.440
 7760W        W79486  29.454  15.751  11.494
 7761W        W79487   7.257  10.681   4.007
 7762W        W79488  29.372  10.050  11.958
 7763W        W79489  16.689   7.851  11.198
 7764W        W79490  12.625  29.092  10.589
 7765W        W79491  28.260  40.449  12.060
 7766W        W79492  29.917  31.443   3.206
 7767W        W79493  16.037  15.625   3.631
 7768W        W79494   6.812  13.886   4.535
 7769W        W79495  30.076  23.135   4.971
 7770W        W79496  18.651  11.705   3.595
 7771W        W79497  25.489  32.236  14.991
 7772W        W79498  19.134  37.440  13.315
 7773W        W79499   9.188  11.614  13.046
 7774W        W79500  28.927  33.861  11.563
 7775W        W79501   4.955  21.505   2.717
 7776W        W79502   1.221  39.447  12.528
 7777W        W79503  23.016   0.412  14.562
 7778W        W79504  29.695   1.173   1.368
 7779W        W79505  30.641  14.159   3.101
 7780W        W79506  18.516  40.338   3.331
 7781W        W79507  36.958   0.494   1.209
 7782W        W79508  15.227   1.980  14.946
 7783W        W79509   6.256  18.370   4.227
 7784W        W79510   3.424  33.513   5.101
 7785W        W79511  10.351  40.452  13.660
 7786W        W79512  14.153  31.453  10.683
 7787W        W79513  11.638   8.775   4.956
 7788W        W79514   6.852  21.419   3.297
 7789W        W79515  29.961  28.892  14.755
 7790W        W79516  23.806  26.981  13.954
 7791W        W79517  43.821  14.186   4.630
 7792W        W79518  41.290   2.543   2.604
 7793W        W79519  17.557  40.483  11.981
 7794W        W79520  35.159  16.600   0.330
 7795W        W79521   7.277   1.238   2.266
 7796W        W79522  39.839  37.071  12.540
 7797W        W79523  44.489  26.558  14.896
 7798W        W79524  37.341  37.744  11.021
 7799W        W79525   5.908  11.563  11.524
 7800W        W79526  10.858   4.378   1.305
 7801W        W79527   7.937   2.972  10.628
 7802W        W79528  15.197  36.994   3.780
 7803W        W79529   1.430  28.157   3.198
 7804W        W79530  13.138  38.893   1.754
 7805W        W79531  15.828   9.184   4.590
 7806W        W79532  29.219  37.259  13.387
 7807W        W79533  42.817  23.528  10.619
 7808W        W79534  42.232  35.092  13.914
 7809W        W79535  32.510  19.179   2.869
 7810W        W79536  34.112  38.786  12.576
 7811W        W79537  16.807  24.666  11.059
 7812W        W79538  16.416  29.526   4.890
 7813W        W79539  36.041  40.393   1.590
 7814W        W79540  33.990  24.563  14.411
 7815W        W79541  40.765  18.154   4.179
 7816W        W79542  20.386   2.871   4.949
 7817W        W79543  35.923  17.178   0.277
 7818W        W79544  40.412  43.357   0.255
 7819W        W79545  23.530  11.739   0.739
 7820W        W79546  39.546   1.329   3.827
 7821W        W79547  38.881  39.375   4.687
 7822W        W79548  36.873   2.863   0.448
 7823W        W79549  15.814   9.479  14.483
 7824W        W79550  16.684  39.114   0.660
 7825W        W79551  27.477  14.200  12.341
 7826W        W79552  35.595  16.500  11.117
 7827W        W79553  31.027   1.146  14.306
 7828W        W79554  30.188  28.860  13.074
 7829W        W79555  21.621   2.190  14.816
 7830W        W79556  34.155  41.496   1.907
 7831W        W79557   6.361  20.621  14.591
 7832W        W79558  41.781  12.210   0.321
 7833W        W79559  11.830  24.445  14.464
 7834W        W79560  20.636  13.414  12.375
 7835W        W79561   3.769  37.282   2.520
 7836W        W79562  21.010  32.277  12.764
 7837W        W79563   6.743  18.281   4.378
 7838W        W79564  31.235   9.795  12.396
 7839W        W79565   5.748  38.956  11.571
 7840W        W79566  13.421  34.167   4.483
 7841W        W79567  16.625   2.002  12.050
 7842W        W79568  21.964  34.184   1.839
 7843W        W79569  31.911  31.178   0.736
 7844W        W79570   4.544  19.063   2.340
 7845W        W79571  16.172  42.354  14.988
 7846W        W79572  22.200  30.323   3.036
 7847W        W79573  20.116  24.397  14.971
 7848W        W79574  10.754  44.902   4.577
 7849W        W79575  35.427   9.616   0.465
 7850W        W79576  15.665  15.556   0.428
 7851W        W79577  30.444  44.517  14.006
 7852W        W79578  34.803  13.297  13.868
 7853W        W79579  35.598   6.310  12.145
 7854W        W79580  12.826  40.260  10.482
 7855W        W79581   0.220  44.006  11.175
 7856W        W79582  16.078  38.285  13.349
 7857W        W79583  35.505  36.809   4.477
 7858W        W79584  12.691  11.958  14.000
 7859W        W79585  34.492   3.043   0.507
 7860W        W79586  43.460  12.566  13.917
 7861W        W79587  44.430  27.191  13.788
 7862W        W79588   7.939  23.824   1.517
 7863W        W79589  14.674  23.802  13.757
 7864W        W79590  32.570   3.974  14.840
 7865W        W79591  44.843   3.877   0.820
 7866W        W79592  25.944  24.016   4.248
 7867W        W79593  41.248  33.467  13.870
 7868W        W79594  28.551  11.233   2.207
 7869W        W79595   2.950  20.741   1.488
 7870W        W79596   7.195  23.173   4.927
 7871W        W79597  38.483  41.596  13.306
 7872W        W79598  11.263  24.543   2.215
 7873W        W79599  32.039  15.779   0.787
 7874W        W79600  38.408  26.989   3.821
 7875W        W79601  28.100   9.571  13.476
 7876W        W79602   6.477  18.804   1.220
 7877W        W79603  40.977   4.885  12.425
 7878W        W79604  16.004  25.788  11.629
 7879W        W79605   0.433   4.907  10.650
 7880W        W79606  18.608   1.201   3.172
 7881W        W79607   7.370  36.931  12.807
 7882W        W79608  41.418  12.094  14.414
 7883W        W79609  35.485  25.230  13.034
 7884W        W79610  23.208   5.234  11.979
 7885W        W79611   3.842  13.292   2.338
 7886W        W79612  14.262  34.417   2.735
 7887W        W79613   8.677  13.180  11.010
 7888W        W79614   2.909  40.898   0.291
 7889W        W79615  44.020  18.882  14.308
 7890W        W79616  31.381  24.579   5.055
 7891W        W79617   8.668  10.751  10.741
 7892W        W79618  20.980   3.159   3.104
 7893W        W79619  31.843   4.976   1.681
 7894W        W79620  20.699  32.969  13.259
 7895W        W79621  36.329  20.193   3.737
 7896W        W79622  13.642   7.638   1.845
 7897W        W79623  22.234  10.564   0.974
 7898W        W79624  10.670  18.097  11.129
 7899W        W79625  25.606   3.244  12.680
 7900W        W79626  21.132  21.700   5.263
 7901W        W79627  43.341   5.462   2.305
 7902W        W79628   1.935  22.144   2.435
 7903W        W79629  39.800  25.275   2.354
 7904W        W79630  42.005  35.587  13.959
 7905W        W79631  12.659  22.291   0.939
 7906W        W79632  30.370  30.420  14.540
 7907W        W79633  43.935  31.652  11.559
 7908W        W79634  17.525  28.377   4.090
 7909W        W79635  12.576   8.865  12.970
 7910W        W79636   5.492  32.431  14.690
 7911W        W79637  44.370  28.008  14.911
 7912W        W79638  40.149  20.445   0.836
 7913W        W79639  13.715  22.794   4.757
 7914W        W79640  22.851  18.641   1.324
 7915W        W79641  21.173  21.563  12.038
 7916W        W79642  20.607  41.931   1.238
 7917W        W79643  37.427   4.988   3.624
 7918W        W79644  36.277  44.831  14.198
 7919W        W79645  23.487  12.239   2.890
 7920W        W79646  24.644  28.539   4.001
 7921W        W79647  42.843  26.181  13.899
 7922W        W79648   2.222  19.804   0.389
 7923W        W79649   2.416  13.114   0.439
 7924W        W79650  33.635  16.659   1.244
 7925W        W79651  23.987  14.395  10.730
 7926W        W79652  18.089  29.298  10.624
 7927W        W79653  37.320  35.458  14.439
 7928W        W79654  35.111  16.718   3.343
 7929W        W79655  24.081  12.863   1.344
 7930W        W79656  13.314  40.105  14.320
 7931W        W79657  33.182  24.035   4.639
 7932W        W79658   1.281  29.515   4.613
 7933W        W79659  25.866  37.264   0.632
 7934W        W79660  34.054  24.587   1.905
 7935W        W79661  18.378  38.421  14.774
 7936W        W79662  44.780   5.717  13.450
 7937W        W79663  44.619   5.621   0.301
 7938W        W79664  20.702  16.663  14.009
 7939W        W79665  25.924  24.414  12.897
 7940W        W79666   4.729   1.635   1.889
 7941W        W79667  15.181  33.033  10.806
 7942W        W79668  16.199  29.002   1.223
 7943W        W79669   4.986  31.464   3.090
 7944W        W79670   5.624  34.388   4.178
 7945W        W79671  12.318  25.596  11.635
 7946W        W79672  18.284  15.889  14.477
 7947W        W79673  10.152  30.788   1.656
 7948W        W79674  13.445  16.686  12.838
 7949W        W79675   7.179   4.320  11.852
 7950W        W79676  17.904  26.627  12.656
 7951W        W79677  22.994  11.607  14.492
 7952W        W79678  18.696  44.956   2.573
 7953W        W79679  32.466  22.222   2.623
 7954W        W79680  10.149   5.723   2.217
 7955W        W79681  23.189  15.541  12.856
 7956W        W79682   1.342  29.919  11.576
 7957W        W79683   4.273   2.986  14.586
 7958W        W79684  27.054  34.350  11.767
 7959W        W79685  18.132  21.243  11.535
 7960W        W79686  12.471  37.737   3.711
 7961W        W79687  18.222  17.063   2.294
 7962W        W79688  43.712   2.700  10.649
 7963W        W79689  31.854   7.672  14.298
 7964W        W79690  25.131   8.805   0.552
 7965W        W79691   9.407  19.312  10.440
 7966W        W79692  19.612  35.924   2.751
 7967W        W79693  43.331  21.817  13.487
 7968W        W79694  36.076  34.595   3.352
 7969W        W79695  37.247   3.216   1.418
 7970W        W79696  30.119  14.206  14.712
 7971W        W79697  24.242  31.735   3.232
 7972W        W79698  16.176   2.323  11.930
 7973W        W79699  12.436  39.370  14.740
 7974W        W79700   4.138   4.337   0.274
 7975W        W79701  42.233  17.227   1.926
 7976W        W79702  44.871  34.586  13.309
 7977W        W79703  15.799  13.531  11.108
 7978W        W79704  17.738  10.726  13.109
 7979W        W79705   3.968  41.861  13.944
 7980W        W79706  41.905  19.116  13.873
 7981W        W79707  44.766   1.497   1.784
 7982W        W79708  42.614  18.296   3.372
 7983W        W79709  22.648   0.825  13.813
 7984W        W79710  44.258  21.863   1.823
 7985W        W79711  40.778  16.625  14.221
 7986W        W79712  38.548  11.282   1.172
 7987W        W79713   2.394  20.612   3.428
 7988W        W79714  11.515  18.713  12.789
 7989W        W79715   4.885  11.746   3.671
 7990W        W79716   1.919  17.445  14.814
 7991W        W79717  30.319  21.277  10.839
 7992W        W79718  32.817  40.476   1.487
 7993W        W79719  12.125   4.045   1.614
 7994W        W79720  25.651   5.553   0.743
 7995W        W79721   4.916  42.266   0.374
 7996W        W79722   6.683   4.874  13.564
 7997W        W79723  15.152  33.622   1.793
 7998W        W79724  44.021  38.991   5.131
 7999W        W79725  36.561  31.565   0.786
 8000W        W79726   2.340  30.179  11.994
 8001W        W79727   8.290  27.233   3.154
 8002W        W79728   9.647   9.143  14.307
 8003W        W79729  43.715  14.380  11.187
 8004W        W79730  36.092  14.919   3.690
 8005W        W79731  24.050  43.455  12.582
 8006W        W79732  10.874  35.931   0.761
 8007W        W79733  26.452  12.835  14.821
 8008W        W79734  18.071  16.354  12.436
 8009W        W79735  44.613  12.785  11.111
 8010W        W79736   6.513  25.509   1.286
 8011W        W79737  19.079   5.306  13.759
 8012W        W79738  38.761  36.461   9.419
 8013W        W79739   0.702  28.082  14.409
 8014W        W79740  40.371  38.734  12.924
 8015W        W79741   9.167  13.973  10.681
 8016W        W79742   0.392  42.389   0.306
 8017W        W79743  15.980   0.357   4.166
 8018W        W79744  22.333  18.353   2.447
 8019W        W79745   5.991  19.691  13.914
 8020W        W79746  20.555  36.978   4.875
 8021W        W79747  41.938  12.129   4.553
 8022W        W79748   8.029  23.179  11.191
 8023W        W79749  37.278  25.986  14.883
 8024W        W79750  11.324  39.391   1.971
 8025W        W79751  23.184  37.463   2.710
 8026W        W79752  38.067  35.176   4.650
 8027W        W79753  29.538  18.686   2.801
 8028W        W79754   8.341  31.147   4.119
 8029W        W79755  38.318  41.643   4.357
 8030W        W79756  14.840  34.432  13.073
 8031W        W79757   8.139  19.956  13.793
 8032W        W79758   9.392   6.531  12.076
 8033W        W79759  23.131  41.324   2.327
 8034W        W79760  21.753  10.121   0.930
 8035W        W79761  34.410  27.497   2.420
 8036W        W79762   4.385  30.924   0.454
 8037W        W79763  11.264  43.579  13.922
 8038W        W79764  43.968   9.649  10.531
 8039W        W79765  39.077  16.504   3.184
 8040W        W79766  28.972  11.768  12.567
 8041W        W79767  44.830  35.905  13.937
 8042W        W79768   8.595  38.798  12.450
 8043W        W79769   7.705  26.396   1.187
 8044W        W79770  32.942  14.412   1.857
 8045W        W79771  41.763  35.336   4.547
 8046W        W79772   7.200  34.141   0.524
 8047W        W79773  21.555   6.485   1.994
 8048W        W79774  12.144  17.277  13.112
 8049W        W79775  13.217  31.417  12.481
 8050W        W79776  24.436  39.950   0.360
 8051W        W79777  34.222  25.476   3.708
 8052W        W79778   5.171  42.691  12.237
 8053W        W79779  31.609   8.873   2.360
 8054W        W79780  24.287  42.910  13.508
 8055W        W79781  19.989  37.524  14.738
 8056W        W79782  42.194   8.074  11.452
 8057W        W79783  37.479  13.285  11.038
 8058W        W79784  30.547  15.304  13.512
 8059W        W79785  26.138  36.355  10.716
 8060W        W79786  37.455  24.044  13.461
 8061W        W79787  26.935  31.434   0.822
 8062W        W79788  34.370   7.463   3.811
 8063W        W79789  13.592  15.764  12.349
 8064W        W79790  19.679  18.534  14.680
 8065W        W79791   1.319  38.651  13.280
 8066W        W79792  13.152  43.723  10.584
 8067W        W79793  34.950  37.305  11.759
 8068W        W79794   5.136  31.885  11.990
 8069W        W79795  42.484  35.552   2.179
 8070W        W79796  31.985  19.020   1.634
 8071W        W79797  17.220   6.277   0.700
 8072W        W79798  41.188  15.201  13.489
 8073W        W79799  32.013  34.875  10.429
 8074W        W79800  34.170   3.799   1.685
 8075W        W79801   9.360  34.906   0.426
 8076W        W79802  44.804  38.655   4.990
 8077W        W79803   7.569   5.117  11.563
 8078W        W79804  26.377  31.509   3.370
 8079W        W79805   2.331  19.633  14.128
 8080W        W79806  12.343   2.666   1.639
 8081W        W79807  35.793  35.970   0.590
 8082W        W79808   2.691  22.795   3.172
 8083W        W79809  24.012  16.192   0.632
 8084W        W79810  21.847   7.255   4.717
 8085W        W79811  13.192  10.339   3.908
 8086W        W79812  20.913  18.262   1.911
 8087W        W79813  35.766  25.149   0.233
 8088W        W79814   7.340  31.569  12.566
 8089W        W79815  33.589  42.421   4.296
 8090W        W79816  43.846  39.985  12.667
 8091W        W79817  26.719  41.399  10.267
 8092W        W79818   7.784   9.893   4.348
 8093W        W79819  23.549  11.427   1.727
 8094W        W79820  44.161   8.459  11.660
 8095W        W79821   2.470  35.933   1.107
 8096W        W79822  14.959  10.282   0.524
 8097W        W79823  37.649  31.776  13.237
 8098W        W79824  15.592   3.632  10.733
 8099W        W79825   8.821  18.069   4.706
 8100W        W79826  27.196  26.941   4.676
 8101W        W79827  20.686   4.790  11.470
 8102W        W79828  22.255  29.075   3.126
 8103W        W79829   8.588  29.534  12.943
 8104W        W79830  29.806  18.857   4.416
 8105W        W79831   5.235   1.327  11.969
 8106W        W79832   7.746  34.938   1.335
 8107W        W79833  16.309  21.763   1.333
 8108W        W79834  14.578   0.186  13.868
 8109W        W79835   5.674  19.863  13.546
 8110W        W79836  33.840   8.232   2.705
 8111W        W79837  23.981  23.632   3.877
 8112W        W79838  36.777  19.508   0.134
 8113W        W79839  17.852  15.234  13.834
 8114W        W79840  38.374  16.977   1.890
 8115W        W79841   9.706   3.723   3.967
 8116W        W79842  32.483  16.442   2.608
 8117W        W79843  36.127  39.395   1.017
 8118W        W79844  15.365   2.322  12.483
 8119W        W79845  40.394  27.125  12.449
 8120W        W79846  17.596  25.222  11.120
 8121W        W79847  29.979  32.587  11.914
 8122W        W79848  26.194  17.754  11.216
 8123W        W79849  43.892  43.894  13.576
 8124W        W79850  29.491  27.522  10.773
 8125W        W79851  23.772  44.294  12.580
 8126W        W79852  11.807  10.341  14.812
 8127W        W79853  21.295   3.234  11.388
 8128W        W79854  44.815  32.451   4.816
 8129W        W79855   8.920  11.182  10.664
 8130W        W79856  27.755  36.934  12.637
 8131W        W79857  18.843  11.435  13.369
 8132W        W79858  39.849  44.913   1.423
 8133W        W79859   5.751   1.896   4.617
 8134W        W79860  19.841  24.117   3.801
 8135W        W79861   9.640  38.898  11.031
 8136W        W79862  43.916   3.949   0.379
 8137W        W79863  16.284  15.508   2.230
 8138W        W79864  44.730  24.800   2.890
 8139W        W79865   6.835  41.134  11.062
 8140W        W79866  37.230  34.628  11.566
 8141W        W79867  30.159  40.256   1.450
 8142W        W79868  20.666  42.511  13.931
 8143W        W79869  26.070  24.515  13.792
 8144W        W79870  12.412  37.392  11.462
 8145W        W79871  40.307   4.287   0.400
 8146W        W79872   6.638  38.241  13.382
 8147W        W79873  20.097  13.338   0.344
 8148W        W79874  39.371  11.636   4.275
 8149W        W79875  33.613  13.240  14.593
 8150W        W79876   0.644  39.355  14.777
 8151W        W79877  41.893  28.959  14.845
 8152W        W79878  27.179  44.838  12.796
 8153W        W79879   3.599  29.258  13.148
 8154W        W79880  10.618  42.461  10.429
 8155W        W79881  31.671  17.637  10.767
 8156W        W79882   0.035  14.248  12.548
 8157W        W79883  23.099  44.842   1.678
 8158W        W79884  28.919   9.789   2.497
 8159W        W79885  29.592  29.790   0.568
 8160W        W79886   8.430  21.176  13.392
 8161W        W79887  31.721  20.151  14.209
 8162W        W79888  28.638  24.199   3.698
 8163W        W79889  26.847  34.431   0.429
 8164W        W79890  34.795  12.552   2.370
 8165W        W79891  31.807  17.726   4.454
 8166W        W79892  26.490   9.801  13.273
 8167W        W79893  38.346  11.580  14.014
 8168W        W79894  26.533  29.840   3.725
 8169W        W79895  21.699   6.789   3.963
 8170W        W79896  12.901  43.853  13.957
 8171W        W79897  24.212  21.443  11.151
 8172W        W79898  31.073   6.019  12.183
 8173W        W79899   6.474   9.114   0.950
 8174W        W79900   7.375  15.784  14.447
 8175W        W79901  24.633  33.552   1.858
 8176W        W79902  17.807  25.580  11.593
 8177W        W79903  24.583  32.124  10.316
 8178W        W79904  16.003   2.297   2.708
 8179W        W79905  31.637  36.407  14.375
 8180W        W79906   6.683  28.864   3.243
 8181W        W79907  20.617  28.576   1.912
 8182W        W79908  15.625  39.916  13.074
 8183W        W79909  35.862  26.968   0.760
 8184W        W79910  39.118  16.086  13.940
 8185W        W79911  24.961   6.778  12.503
 8186W        W79912  38.972  30.706   3.332
 8187W        W79913  26.475  34.914  11.476
 8188W        W79914   5.215   9.263  13.313
 8189W        W79915  39.318  16.224   0.181
 8190W        W79916  21.666   2.174   4.618
 8191W        W79917  20.223  30.018  12.594
 8192W        W79918  42.563   9.805  14.266
 8193W        W79919  27.552   4.901  10.683
 8194W        W79920   0.406  20.308   2.224
 8195W        W79921   3.203  15.226  10.988
 8196W        W79922  24.463  24.170  11.140
 8197W        W79923  20.196  35.803  12.348
 8198W        W79924  32.571  14.125   2.378
 8199W        W79925  18.182   7.705   4.370
 8200W        W79926   0.457  36.504   3.910
 8201W        W79927   3.801  15.876  13.512
 8202W        W79928  16.649  33.104   3.509
 8203W        W79929  14.316  32.164  12.935
 8204W        W79930  38.505  41.633  11.481
 8205W        W79931  30.149  11.452   3.452
 8206W        W79932   1.917  41.556  12.011
 8207W        W79933  38.565  19.387   2.158
 8208W        W79934  30.436  17.838  12.570
 8209W        W79935  16.364  33.361   1.320
 8210W        W79936  31.484  20.095   1.351
 8211W        W79937  38.793  33.024   4.088
 8212W        W79938  25.497  42.296   0.754
 8213W        W79939  39.585  34.542   2.483
 8214W        W79940  41.869  43.931  14.824
 8215W        W79941  19.261  23.713  11.257
 8216W        W79942   6.842  44.532   4.227
 8217W        W79943  13.876  25.996   1.863
 8218W        W79944  23.451   8.693  14.314
 8219W        W79945   5.701  30.598  11.943
 8220W        W79946  18.282   2.681   2.423
 8221W        W79947   6.580  24.355  13.024
 8222W        W79948  17.037  29.348   0.279
 8223W        W79949  32.859   8.301  13.848
 8224W        W79950  20.667  44.770   1.008
 8225W        W79951  19.705  27.584   1.642
 8226W        W79952  29.952  42.115  12.551
 8227W        W79953  39.801  19.779   2.768
 8228W        W79954   6.889  30.678   2.854
 8229W        W79955  16.559   0.474  12.492
 8230W        W79956  39.274  15.140  11.739
 8231W        W79957  43.909  21.238  10.636
 8232W        W79958  13.130  42.309  10.767
 8233W        W79959   8.482  26.115  11.536
 8234W        W79960  44.355  36.124  11.597
 8235W        W79961   0.057  10.908  12.483
 8236W        W79962   6.928   9.799  11.248
 8237W        W79963  11.853   6.873  11.025
 8238W        W79964  37.908  34.786  10.568
 8239W        W79965  28.078  37.772   3.691
 8240W        W79966  38.053   8.909   4.536
 8241W        W79967  14.265  34.618  14.505
 8242W        W79968  23.431  14.230   1.205
 8243W        W79969  44.392  29.890   1.824
 8244W        W79970  18.507  12.659   0.904
 8245W        W79971   1.551   1.514  13.942
 8246W        W79972  39.339   4.065   1.818
 8247W        W79973  42.919   1.817   1.699
 8248W        W79974  35.163  21.483   0.520
 8249W        W79975  40.379  15.391   4.111
 8250W        W79976  16.611  19.802   2.775
 8251W        W79977  18.359   5.829  14.532
 8252W        W79978  37.789   3.868  11.552
 8253W        W79979  31.035   4.272  11.563
 8254W        W79980  43.863  21.565   4.322
 8255W        W79981  33.424  17.233   3.681
 8256W        W79982  12.217  22.407   0.186
 8257W        W79983  33.600  38.523  10.678
 8258W        W79984   3.485   5.895   0.927
 8259W        W79985  24.545   5.256   0.258
 8260W        W79986  11.689   7.624  14.545
 8261W        W79987   1.205  36.697  13.049
 8262W        W79988  38.373  26.521   1.772
 8263W        W79989  36.782  41.906   2.180
 8264W        W79990  37.992  32.213  14.023
 8265W        W79991  16.394  14.872  11.362
 8266W        W79992  42.014  16.162   3.441
 8267W        W79993  31.662  34.504   4.123
 8268W        W79994   5.348  18.652  11.693
 8269W        W79995  12.606   5.127   3.917
 8270W        W79996  36.884  34.467  14.334
 8271W        W79997  18.672   8.939   4.561
 8272W        W79998  19.989  31.079   4.494
 8273W        W79999   7.299   9.700  12.006
 8274W        W80000   5.780   0.674  14.671
 8275W        W80001  36.497  19.939   4.156
 8276W        W80002   8.317   9.199   4.433
 8277W        W80003  17.577   3.457   3.719
 8278W        W80004  36.314   8.219  14.811
 8279W        W80005   4.078  18.901  13.395
 8280W        W80006  35.458   8.948  10.566
 8281W        W80007  35.844  38.485   4.415
 8282W        W80008  16.276   6.882   2.694
 8283W        W80009   4.050  21.959  14.907
 8284W        W80010  20.576  34.175  11.983
 8285W        W80011   1.698  27.723   3.145
 8286W        W80012   7.685  35.075  10.476
 8287W        W80013  36.578  15.732  13.087
 8288W        W80014  30.024  19.214  12.946
 8289W        W80015  34.353  10.719  11.915
 8290W        W80016  36.110  36.356   0.006
 8291W        W80017  21.632   1.470  10.464
 8292W        W80018  21.105  11.466   4.925
 8293W        W80019  26.719  13.831   0.839
 8294W        W80020  36.419  19.675  12.030
 8295W        W80021  33.227  12.609  13.090
 8296W        W80022  16.342  13.297   2.160
 8297W        W80023  12.132   5.876  14.981
 8298W        W80024  20.052  15.810  13.396
 8299W        W80025  31.643  44.467  11.027
 8300W        W80026  24.485  26.415  13.748
 8301W        W80027   3.401  15.738   2.589
 8302W        W80028  40.882  36.573  14.576
 8303W        W80029  41.162  20.230   3.063
 8304W        W80030  43.310  40.050   1.236
 8305W        W80031  41.307  32.082   3.344
 8306W        W80032  38.820  33.203  13.456
 8307W        W80033  44.336  19.439  11.138
 8308W        W80034  28.398  36.926   1.365
 8309W        W80035  34.802  42.110   4.705
 8310W        W80036  29.683  42.557  11.396
 8311W        W80037  35.274  36.055   0.458
 8312W        W80038  21.601  40.878  11.498
 8313W        W80039  35.945  28.248  13.082
 8314W        W80040  44.478  38.541   2.708
 8315W        W80041  26.944   6.019   2.631
 8316W        W80042  10.362  39.411  11.107
 8317W        W80043   0.637  30.311  14.495
 8318W        W80044  16.769  31.104   3.404
 8319W        W80045  13.041  40.952  14.483
 8320W        W80046   7.757  30.009  12.503
 8321W        W80047   0.033  10.738  14.206
 8322W        W80048  20.664  31.725   3.689
 8323W        W80049  22.230  28.188   0.144
 8324W        W80050  24.977   0.880   1.094
 8325W        W80051  12.249  42.047   3.325
 8326W        W80052   8.449   5.068   2.832
 8327W        W80053   9.646   3.335  11.941
 8328W        W80054  23.694  36.441   2.925
 8329W        W80055  15.734  32.870  11.888
 8330W        W80056  41.972  30.540   2.603
 8331W        W80057  28.024   5.362  12.424
 8332W        W80058   5.037   4.320  11.166
 8333W        W80059  19.738  20.396   0.162
 8334W        W80060  27.158  15.179   3.737
 8335W        W80061  25.329  19.680   3.151
 8336W        W80062  12.209  15.054  11.618
 8337W        W80063  29.629   5.551  14.889
 8338W        W80064  31.080   0.944  13.346
 8339W        W80065   0.822   0.280   4.736
 8340W        W80066  32.267   0.936   4.397
 8341W        W80067  27.811  32.413  11.063
 8342W        W80068  41.556  42.661  13.016
 8343W        W80069  21.125  27.507   3.228
 8344W        W80070  18.021  25.477  13.405
 8345W        W80071  30.983  35.512  10.631
 8346W        W80072   9.679  31.999   2.590
 8347W        W80073  21.067  31.706   4.111
 8348W        W80074  11.101  18.673  14.055
 8349W        W80075  35.560   7.188   4.152
 8350W        W80076  24.580  24.198   1.450
 8351W        W80077  18.006  29.345   3.926
 8352W        W80078  44.860  28.183  10.587
 8353W        W80079   8.936  42.254   2.140
 8354W        W80080  20.284  11.203   0.890
 8355W        W80081  11.275  40.456   1.421
 8356W        W80082  30.038  36.296  12.001
 8357W        W80083  21.262   4.495   4.546
 8358W        W80084  10.778   2.780  14.845
 8359W        W80085  28.684  31.903   0.951
 8360W        W80086  27.579  28.570   2.881
 8361W        W80087  17.864   1.512   3.586
 8362W        W80088   3.762   7.292   1.505
 8363W        W80089  40.104   5.488  11.785
 8364W        W80090   5.315   5.432   1.013
 8365W        W80091  42.280  17.780  12.091
 8366W        W80092  16.816  11.760   1.716
 8367W        W80093  38.130   9.380   2.651
 8368W        W80094  27.935  22.113   2.250
 8369W        W80095  34.913  20.871   4.841
 8370W        W80096  25.624  39.986  13.600
 8371W        W80097  37.322  22.987   1.682
 8372W        W80098  26.181  38.964   4.029
 8373W        W80099  11.392  27.446  13.302
 8374W        W80100  43.435   2.330  13.537
 8375W        W80101  13.855   4.720  11.716
 8376W        W80102   3.203  40.086   3.043
 8377W        W80103   3.620  32.729  12.871
 8378W        W80104   7.485  40.386   1.212
 8379W        W80105  19.758  14.675   2.660
 8380W        W80106  32.480  25.267   3.749
 8381W        W80107   2.627  16.165  14.816
 8382W        W80108  28.710  25.246  14.342
 8383W        W80109  39.805  41.527   4.769
 8384W        W80110  16.565  10.674  11.019
 8385W        W80111  39.016  15.294  11.057
 8386W        W80112  14.081  22.969  11.687
 8387W        W80113  24.677  18.750  11.367
 8388W        W80114  25.761  31.089  11.954
 8389W        W80115   7.600  32.368  13.607
 8390W        W80116  22.255   2.500  13.022
 8391W        W80117  38.955  20.723  12.067
 8392W        W80118  17.219  39.439  10.753
 8393W        W80119  40.281  16.285  13.545
 8394W        W80120  20.362   4.905   2.286
 8395W        W80121  37.977  21.737   0.961
 8396W        W80122  24.539  31.011   1.423
 8397W        W80123  42.487  20.752  11.579
 8398W        W80124  34.505  29.398  14.407
 8399W        W80125  12.964  39.611  13.014
 8400W        W80126  17.744  10.167  13.279
 8401W        W80127  37.589  39.758  12.315
 8402W        W80128  38.916  19.973  14.883
 8403W        W80129  41.791  37.125  10.735
 8404W        W80130  38.159  37.567  12.633
 8405W        W80131  11.707  38.363   4.061
 8406W        W80132  39.902  14.455   1.450
 8407W        W80133  18.006  19.080   3.338
 8408W        W80134   7.920  10.917  11.451
 8409W        W80135  43.022   5.436  11.756
 8410W        W80136   3.711  37.649  11.989
 8411W        W80137  11.671  19.101   0.705
 8412W        W80138  33.591  28.250  11.092
 8413W        W80139   4.958  13.435  14.936
 8414W        W80140  24.073   3.202  11.054
 8415W        W80141   3.062   1.561   1.727
 8416W        W80142  18.563  29.544  10.640
 8417W        W80143  42.790  33.410  12.491
 8418W        W80144   0.519  38.938  12.507
 8419W        W80145  20.761   1.482  10.449
 8420W        W80146  15.140  13.136  14.011
 8421W        W80147  15.603   9.308  14.040
 8422W        W80148  11.683  16.154   4.216
 8423W        W80149   5.498  14.198   0.487
 8424W        W80150   7.939  13.856   1.237
 8425W        W80151  24.794  26.629   9.368
 8426W        W80152   6.634  10.170   3.737
 8427W        W80153   9.514   1.450   2.830
 8428W        W80154  17.335   9.829   1.873
 8429W        W80155  12.142  39.348  13.865
 8430W        W80156  19.151  44.752  12.019
 8431W        W80157  28.913  11.683   1.291
 8432W        W80158  44.887  41.412  13.992
 8433W        W80159   4.523  29.170   2.733
 8434W        W80160  19.775   1.295  12.863
 8435W        W80161  17.127  27.764  12.881
 8436W        W80162  34.259  13.304  13.940
 8437W        W80163   7.891  44.458   2.172
 8438W        W80164  25.229  30.409  14.954
 8439W        W80165  25.720   0.952  12.040
 8440W        W80166  42.425   0.481  13.920
 8441W        W80167   8.602  13.657  10.759
 8442W        W80168  36.865  38.502  11.578
 8443W        W80169  23.634   2.930  11.035
 8444W        W80170  15.900  26.011  14.941
 8445W        W80171  25.772  44.416   0.446
 8446W        W80172  27.266   2.028   4.096
 8447W        W80173  44.823  34.978   1.519
 8448W        W80174  21.660  35.958   1.809
 8449W        W80175   0.269  28.976  13.914
 8450W        W80176   8.124  39.362   0.845
 8451W        W80177   7.943  26.646   0.789
 8452W        W80178  33.588  14.153   2.389
 8453W        W80179  15.684  41.009  11.662
 8454W        W80180   2.501   2.812   1.347
 8455W        W80181   6.262  26.022  10.729
 8456W        W80182  30.190  30.434   2.888
 8457W        W80183  23.255  31.640  14.319
 8458W        W80184  19.593  26.530  14.576
 8459W        W80185  18.113  35.532   3.430
 8460W        W80186  15.834   9.756   2.846
 8461W        W80187  39.623  18.740  12.608
 8462W        W80188   6.896  32.601   3.245
 8463W        W80189  26.575  38.650   0.862
 8464W        W80190  20.977  13.434   3.744
 8465W        W80191   3.147   3.432   4.348
 8466W        W80192   5.311   7.165  12.541
 8467W        W80193  28.146   4.250   3.346
 8468W        W80194  18.136  25.945  10.678
 8469W        W80195  43.994  26.962   4.167
 8470W        W80196  29.264   2.979   0.793
 8471W        W80197  24.278  27.192  11.697
 8472W        W80198  35.005   9.666  14.756
 8473W        W80199  40.856  21.741  12.500
 8474W        W80200  13.246  13.894  13.437
 8475W        W80201   1.362   9.075   0.541
 8476W        W80202   2.479  24.758   2.323
 8477W        W80203  15.667  30.058   3.118
 8478W        W80204   4.202   8.915   3.395
 8479W        W80205  14.232  16.860  14.143
 8480W        W80206  36.310  33.557  13.415
 8481W        W80207   9.112   5.747  14.865
 8482W        W80208  44.261   5.367  10.682
 8483W        W80209  42.878   6.332  11.279
 8484W        W80210  17.112   1.487   3.561
 8485W        W80211  17.768   0.387   0.058
 8486W        W80212  24.506   6.226  11.158
 8487W        W80213  33.584  40.118  11.574
 8488W        W80214  12.770  29.918   1.763
 8489W        W80215  44.248  10.792   1.387
 8490W        W80216  44.622  28.164   3.925
 8491W        W80217  31.611  34.924  11.697
 8492W        W80218   9.153  15.539   3.343
 8493W        W80219  15.685   2.775   0.867
 8494W        W80220  42.179  28.110  14.078
 8495W        W80221   3.697  37.415  11.517
 8496W        W80222  44.606  44.986  12.733
 8497W        W80223   6.882  14.214   3.200
 8498W        W80224   4.841  40.517   4.892
 8499W        W80225  24.488  40.829  12.638
 8500W        W80226  44.374  24.527   2.192
 8501W        W80227   7.608   9.415  12.488
 8502W        W80228   5.125   8.268  13.052
 8503W        W80229  11.858  35.506   0.047
 8504W        W80230  35.298  37.841   3.208
 8505W        W80231  24.675  34.492  11.562
 8506W        W80232  18.810  19.721   3.257
 8507W        W80233  44.435  22.443   0.487
 8508W        W80234   8.270  33.346   2.781
 8509W        W80235  25.692  19.653   1.745
 8510W        W80236   5.433   4.910   0.472
 8511W        W80237   0.946  34.355   1.641
 8512W        W80238  24.074   7.308  14.299
 8513W        W80239  20.654  14.295   4.614
 8514W        W80240   0.332  20.220  10.579
 8515W        W80241  24.627  15.828   1.755
 8516W        W80242  31.869  32.491   2.696
 8517W        W80243  17.567   2.978   1.005
 8518W        W80244   3.339   5.767   3.881
 8519W        W80245  33.157  35.613   2.721
 8520W        W80246   3.235   7.828   1.732
 8521W        W80247  16.786  12.108   2.434
 8522W        W80248  17.363   5.303  10.713
 8523W        W80249   6.920  17.814   3.516
 8524W        W80250  34.062  21.081  11.804
 8525W        W80251  31.975   8.298  12.479
 8526W        W80252  33.122   0.332  13.300
 8527W        W80253   9.600   5.945  12.889
 8528W        W80254   3.115  31.647   3.550
 8529W        W80255  39.486  34.494   0.569
 8530W        W80256   8.586   6.179   1.516
 8531W        W80257  42.579  31.155  13.326
 8532W        W80258  34.424  41.631   2.655
 8533W        W80259   4.005  27.814  10.592
 8534W        W80260   2.932  16.786   0.088
 8535W        W80261  40.918   3.230   4.245
 8536W        W80262  20.592  33.739  12.850
 8537W        W80263  42.028  42.280  11.956
 8538W        W80264   1.795  28.170  12.577
 8539W        W80265  40.316  16.318   4.421
 8540W        W80266  13.888  29.323  14.726
 8541W        W80267  10.604  34.056  11.017
 8542W        W80268   1.981  23.227  14.168
 8543W        W80269   8.514   5.022  14.888
 8544W        W80270   6.566  41.509   4.210
 8545W        W80271  34.463  17.201   2.155
 8546W        W80272  39.404  13.560   1.882
 8547W        W80273  19.975  10.847   4.016
 8548W        W80274  23.154  12.349  10.665
 8549W        W80275  35.662  14.794   2.774
 8550W        W80276   0.904  35.025   4.095
 8551W        W80277  17.123  29.410  13.509
 8552W        W80278   1.060  26.816   3.299
 8553W        W80279   6.585   3.905   1.770
 8554W        W80280  13.369  33.143  11.162
 8555W        W80281  29.790  29.495   1.740
 8556W        W80282   9.401   3.311  14.052
 8557W        W80283  31.521  14.186  14.817
 8558W        W80284  28.152  28.465  12.795
 8559W        W80285   2.023  31.102  13.396
 8560W        W80286  37.368  41.767   0.583
 8561W        W80287  22.138  25.878   2.339
 8562W        W80288  12.135  37.651  10.564
 8563W        W80289   5.375  14.384  14.498
 8564W        W80290  23.446  22.661   3.662
 8565W        W80291  35.964  31.429   0.527
 8566W        W80292  20.298   8.630  12.853
 8567W        W80293  17.061  43.966  10.635
 8568W        W80294  21.204  37.482   0.988
 8569W        W80295  38.963   4.961   3.744
 8570W        W80296  22.295  27.544  11.046
 8571W        W80297  39.220  38.479   1.680
 8572W        W80298   4.023   0.499  10.375
 8573W        W80299  44.069   9.925  12.017
 8574W        W80300  30.509   4.970  14.089
 8575W        W80301   0.214  13.070  14.987
 8576W        W80302  28.483  15.601  11.661
 8577W        W80303  40.399   5.869  11.037
 8578W        W80304  42.433  34.893  12.225
 8579W        W80305  13.248   8.326   2.359
 8580W        W80306  22.268  17.198   3.243
 8581W        W80307  42.299  21.669   2.567
 8582W        W80308  10.387  17.583  14.885
 8583W        W80309  44.812   8.903  14.438
 8584W        W80310  40.091   7.852  13.830
 8585W        W80311  31.792  43.689   0.791
 8586W        W80312  21.113  36.012   1.791
 8587W        W80313  40.719  44.332  12.523
 8588W        W80314  25.553  18.079  14.782
 8589W        W80315  16.731   4.886  12.098
 8590W        W80316  35.058  37.379   3.143
 8591W        W80317  24.952  18.205  13.001
 8592W        W80318  17.589  22.031  10.633
 8593W        W80319   5.784  14.114  11.446
 8594W        W80320  11.618  22.157   3.168
 8595W        W80321   8.302  33.242   2.264
 8596W        W80322  41.986   1.439   1.252
 8597W        W80323   3.481  10.841   0.773
 8598W        W80324  34.989  30.388   4.682
 8599W        W80325  12.299   0.506  14.927
 8600W        W80326   5.748   3.194   2.845
 8601W        W80327   3.378  22.312  11.221
 8602W        W80328   6.848   5.891   1.984
 8603W        W80329  14.022   9.643  14.939
 8604W        W80330  22.800  14.923   4.968
 8605W        W80331  35.065  40.921   3.550
 8606W        W80332  20.683   4.675  10.422
 8607W        W80333  29.218   7.935  12.419
 8608W        W80334  19.245   2.932   4.248
 8609W        W80335  32.301  36.343  11.181
 8610W        W80336  10.405   4.404  13.970
 8611W        W80337  13.708   5.410  13.552
 8612W        W80338   7.899  21.211  13.496
 8613W        W80339  41.308  35.366  12.871
 8614W        W80340   4.685  10.155   4.107
 8615W        W80341  40.031   6.678   0.249
 8616W        W80342   0.217  35.987  14.812
 8617W        W80343  13.749  39.743   2.364
 8618W        W80344  36.155  17.501   4.083
 8619W        W80345  19.612  44.809  13.543
 8620W        W80346  31.597  18.669   1.676
 8621W        W80347  10.602  17.413   3.226
 8622W        W80348  43.317  28.823  13.964
 8623W        W80349  21.556  32.045   3.897
 8624W        W80350   8.115  36.517   0.848
 8625W        W80351  29.466  25.669   2.853
 8626W        W80352  11.335  27.846   4.539
 8627W        W80353  26.821   9.989  14.594
 8628W        W80354  21.522  22.172   3.618
 8629W        W80355  26.012   1.287  14.416
 8630W        W80356  17.606  44.450  13.365
 8631W        W80357   7.810  27.064   2.868
 8632W        W80358  12.785  27.476   4.672
 8633W        W80359  19.533  42.202   2.377
 8634W        W80360   8.330   3.020   5.004
 8635W        W80361   8.419  15.258   2.187
 8636W        W80362  11.443  15.902   2.391
 8637W        W80363  44.249   7.177   3.872
 8638W        W80364  12.814  13.147   0.810
 8639W        W80365  34.504  28.548  11.278
 8640W        W80366  22.367  33.963  11.661
 8641W        W80367  43.924  21.181   3.693
 8642W        W80368  42.759  11.909   0.241
 8643W        W80369  31.225  26.870  10.675
 8644W        W80370  22.572  19.684  14.519
 8645W        W80371  21.024  25.990  13.930
 8646W        W80372  23.705  12.357   4.156
 8647W        W80373  14.718  34.432   0.222
 8648W        W80374  19.281  10.833  10.683
 8649W        W80375  32.547  36.541   1.167
 8650W        W80376  37.659  29.843   4.131
 8651W        W80377   2.700   4.394   4.700
 8652W        W80378  41.826  28.463   4.143
 8653W        W80379  15.155  19.493  13.648
 8654W        W80380  16.222  21.051  12.386
 8655W        W80381  36.572  20.165  12.892
 8656W        W80382  44.173  32.080   3.207
 8657W        W80383  20.630  37.014   2.635
 8658W        W80384  16.607  17.741   1.366
 8659W        W80385  34.295  30.227  10.796
 8660W        W80386  14.954  30.200   0.401
 8661W        W80387  23.748  32.952  12.458
 8662W        W80388  23.782   8.162   1.704
 8663W        W80389  44.299  31.178   0.410
 8664W        W80390   4.328  19.110   0.760
 8665W        W80391  37.629  37.533  13.337
 8666W        W80392  34.332  39.846   4.516
 8667W        W80393  16.100   1.972  13.964
 8668W        W80394  38.465   3.414   4.761
 8669W        W80395  25.089  27.403  13.351
 8670W        W80396  13.241  25.570   1.457
 8671W        W80397   3.960  12.765  14.530
 8672W        W80398   3.776   6.193   1.957
 8673W        W80399  42.252  31.989  14.263
 8674W        W80400   5.788  31.840   3.409
 8675W        W80401  42.916  11.123   0.872
 8676W        W80402  36.084  13.636   4.201
 8677W        W80403  17.023  13.347   0.490
 8678W        W80404  16.132  27.031   0.704
 8679W        W80405  35.723  13.229  11.210
 8680W        W80406  14.073  41.934   4.641
 8681W        W80407  31.467   2.779   2.797
 8682W        W80408  43.013  34.493  10.716
 8683W        W80409  11.888  27.584  10.160
 8684W        W80410  37.967  23.043  14.669
 8685W        W80411  23.286  11.626  11.153
 8686W        W80412   2.428  36.611   4.192
 8687W        W80413  25.622  20.602  12.436
 8688W        W80414  21.512  36.097  12.025
 8689W        W80415  40.995  36.190  11.971
 8690W        W80416  37.362  24.405   0.914
 8691W        W80417   5.004  11.745   0.328
 8692W        W80418  26.141  44.373  14.589
 8693W        W80419  34.127  33.162  13.015
 8694W        W80420  15.485   6.858   3.301
 8695W        W80421  39.455  43.796  12.749
 8696W        W80422  44.513  29.605  12.032
 8697W        W80423  22.079   4.268  12.177
 8698W        W80424   1.045   1.814   0.457
 8699W        W80425  37.824  30.044   1.948
 8700W        W80426   9.792   5.790  11.589
 8701W        W80427  38.081  27.583   4.759
 8702W        W80428  32.954  31.871   1.847
 8703W        W80429  14.260   2.696   3.266
 8704W        W80430   9.788  32.513  12.800
 8705W        W80431  44.223  23.584   5.094
 8706W        W80432  30.166   7.017   1.369
 8707W        W80433  14.568  39.373   0.434
 8708W        W80434  28.953  21.987  13.723
 8709W        W80435  14.136  33.900  11.622
 8710W        W80436   7.806  30.831  14.981
 8711W        W80437  30.147  29.723   4.191
 8712W        W80438  38.523  30.419   4.979
 8713W        W80439  29.082   6.639   4.843
 8714W        W80440  38.283   4.057  13.871
 8715W        W80441  29.866  30.298  14.490
 8716W        W80442  16.303   7.668  14.951
 8717W        W80443  25.220  21.198   3.643
 8718W        W80444  19.189  16.656  14.054
 8719W        W80445  37.964  37.015   3.304
 8720W        W80446  17.798  40.003  14.255
 8721W        W80447  25.451  26.658   3.165
 8722W        W80448  27.258  24.562   4.342
 8723W        W80449  40.523   7.738  14.103
 8724W        W80450  25.517  29.211  11.581
 8725W        W80451  17.215  36.312  14.912
 8726W        W80452  17.845  22.145  11.067
 8727W        W80453  39.489  36.795   3.153
 8728W        W80454   5.179  32.961   4.349
 8729W        W80455  39.027  43.343  14.792
 8730W        W80456  37.336  39.875  13.332
 8731W        W80457  30.109  27.501   1.416
 8732W        W80458  25.253   9.246  10.602
 8733W        W80459  28.907  37.017   1.295
 8734W        W80460   3.409  11.792   4.536
 8735W        W80461   4.420  14.262   3.551
 8736W        W80462   4.981  18.816   4.275
 8737W        W80463   9.880  24.467  10.833
 8738W        W80464  23.731  21.264  12.495
 8739W        W80465  37.073  20.591   1.264
 8740W        W80466  35.055  43.947   1.375
 8741W        W80467  23.803  12.536   5.009
 8742W        W80468  42.806   4.278  10.618
 8743W        W80469  13.100  33.602  11.039
 8744W        W80470  13.206  43.733  14.993
 8745W        W80471   5.675   2.468   2.312
 8746W        W80472  42.060  12.558   2.236
 8747W        W80473  27.986   8.577  11.550
 8748W        W80474  22.566  33.445   3.577
 8749W        W80475  29.169   8.178  12.991
 8750W        W80476  43.989   7.100  12.611
 8751W        W80477  15.743  27.429  13.544
 8752W        W80478   2.043  29.647  10.226
 8753W        W80479  29.774   6.367   0.941
 8754W        W80480  31.559   0.185  13.388
 8755W        W80481  36.986  39.406  13.459
 8756W        W80482  18.329   4.177   0.504
 8757W        W80483   2.197  13.063  11.586
 8758W        W80484  20.774  28.342   2.851
 8759W        W80485  42.447  20.044   3.372
 8760W        W80486   1.163  44.213   1.472
 8761W        W80487  27.030  39.118   1.809
 8762W        W80488  13.717   6.840   4.213
 8763W        W80489  40.621   1.234  11.144
 8764W        W80490  30.551  44.202   0.456
 8765W        W80491  35.094   6.115   1.870
 8766W        W80492   9.885  35.435  13.015
 8767W        W80493  19.697  27.605  11.502
 8768W        W80494  19.984  21.722  13.395
 8769W        W80495  38.035  17.116   0.697
 8770W        W80496  23.056  14.230  14.471
 8771W        W80497   8.694  21.166   2.661
 8772W        W80498  10.311  37.040   3.156
 8773W        W80499  42.574  20.694   4.071
 8774W        W80500  32.298  23.529   4.751
 8775W        W80501  35.068  34.119  10.708
 8776W        W80502  20.760   0.941   2.666
 8777W        W80503  39.469  24.694  11.546
 8778W        W80504  11.698  34.851  10.152
 8779W        W80505  36.403  34.579   2.674
 8780W        W80506  33.074   0.401   3.957
 8781W        W80507  34.040  25.846  13.791
 8782W        W80508   5.466  41.460   3.642
 8783W        W80509  43.289  33.396   3.659
 8784W        W80510  28.679  13.709   3.802
 8785W        W80511   6.428  17.116  13.577
 8786W        W80512   5.293   3.997   3.978
 8787W        W80513  27.131   5.774   4.589
 8788W        W80514   3.243  16.608   4.144
 8789W        W80515  11.621  19.574   4.058
 8790W        W80516  28.065   5.654   3.677
 8791W        W80517  12.318   3.262   4.672
 8792W        W80518   7.830   4.814   1.678
 8793W        W80519  31.196  38.378   4.215
 8794W        W80520  27.129  40.841  14.279
 8795W        W80521   4.977  31.413  12.952
 8796W        W80522  29.561  12.355  14.381
 8797W        W80523  17.013  36.431  14.428
 8798W        W80524  31.023   3.150  10.564
 8799W        W80525  15.868  20.187   5.033
 8800W        W80526  19.228  35.087  11.623
 8801W        W80527  12.241  17.103   1.945
 8802W        W80528  39.349  26.957  14.250
 8803W        W80529  43.459  33.128  13.712
 8804W        W80530  22.450  21.446  13.557
 8805W        W80531  36.966  42.092  12.588
 8806W        W80532  22.657  27.564   3.660
 8807W        W80533  42.741  18.182   4.913
 8808W        W80534  18.323   2.055  10.257
 8809W        W80535  34.983  10.405  10.717
 8810W        W80536  24.485  28.978  10.707
 8811W        W80537  35.570  33.824   1.600
 8812W        W80538   6.898  13.371  12.090
 8813W        W80539  27.686  30.697   4.809
 8814W        W80540  38.047  35.113  12.645
 8815W        W80541  10.386   3.315   2.711
 8816W        W80542  17.066  39.101  12.764
 8817W        W80543  10.873   9.784   3.281
 8818W        W80544  10.721  28.176  12.990
 8819W        W80545  10.449  10.650   2.928
 8820W        W80546   4.764  41.984   4.684
 8821W        W80547   0.328  30.467  14.911
 8822W        W80548  38.594  22.145   4.304
 8823W        W80549   6.311  15.326   1.004
 8824W        W80550  24.071  22.022   1.290
 8825W        W80551  38.129  41.917   2.309
 8826W        W80552  12.675  22.560   3.159
 8827W        W80553  19.241  11.398  10.804
 8828W        W80554   4.897  31.146  12.413
 8829W        W80555  15.581  15.308  13.501
 8830W        W80556  40.959  10.777  14.425
 8831W        W80557  28.905  13.801  14.235
 8832W        W80558  12.405  26.767  12.017
 8833W        W80559  38.815   4.883   3.243
 8834W        W80560  22.674  21.469   2.417
 8835W        W80561  11.263  44.557  13.840
 8836W        W80562   2.496  28.504  14.980
 8837W        W80563  18.678  36.823  13.049
 8838W        W80564  44.143  21.212  13.009
 8839W        W80565   3.356  34.626  13.307
 8840W        W80566  42.630  26.401   1.001
 8841W        W80567  35.821  27.581   0.455
 8842W        W80568   9.871  38.872  12.028
 8843W        W80569   2.298   9.107   3.805
 8844W        W80570  13.071  22.545  12.539
 8845W        W80571  32.533   9.462  13.797
 8846W        W80572  40.243  33.377   3.146
 8847W        W80573  32.040  16.308   2.876
 8848W        W80574   2.882  42.370  14.303
 8849W        W80575  20.557  35.424   3.576
 8850W        W80576   3.968  20.903  10.817
 8851W        W80577  31.156  30.793  11.595
 8852W        W80578  34.635   0.433   4.628
 8853W        W80579   7.669   7.716   3.412
 8854W        W80580  36.011  32.948   1.164
 8855W        W80581  43.330   8.496  11.159
 8856W        W80582  25.442  32.385   1.754
 8857W        W80583  34.473  36.776   1.003
 8858W        W80584  37.050  27.948   4.123
 8859W        W80585  25.567  20.305   3.840
 8860W        W80586   7.127   7.020  13.326
 8861W        W80587  38.812  29.099   3.185
 8862W        W80588  26.440   3.839   3.608
 8863W        W80589  26.406   8.319  10.748
 8864W        W80590  38.503  38.030  11.490
 8865W        W80591  42.443  23.338  12.826
 8866W        W80592  23.030  17.823  13.443
 8867W        W80593   4.281  34.928   1.084
 8868W        W80594   0.776  16.201  12.104
 8869W        W80595   8.735  37.677   1.308
 8870W        W80596  16.078   3.611  11.072
 8871W        W80597   6.917  37.308  12.367
 8872W        W80598  31.485  24.934  13.374
 8873W        W80599  32.098   0.697  13.211
 8874W        W80600  19.519  23.992  10.516
 8875W        W80601  37.972   4.695   4.535
 8876W        W80602  13.280   3.261  14.842
 8877W        W80603  32.140  26.646  14.970
 8878W        W80604   4.238   2.552   1.204
 8879W        W80605  38.847  41.615   5.295
 8880W        W80606  26.423  19.091   1.205
 8881W        W80607  35.673  14.189   4.893
 8882W        W80608   9.416  22.949   2.343
 8883W        W80609  25.586  21.719   2.188
 8884W        W80610  10.516  41.498  14.763
 8885W        W80611  43.620  22.066   2.347
 8886W        W80612   1.300  44.826  14.351
 8887W        W80613  32.280   4.782  10.715
 8888W        W80614  15.843   8.565   5.102
 8889W        W80615  29.401  20.559  13.404
 8890W        W80616  20.559   4.912  11.973
 8891W        W80617  18.255   5.028   2.331
 8892W        W80618  41.029  22.326   2.669
 8893W        W80619  40.744  37.746   4.917
 8894W        W80620   4.237   5.277  14.176
 8895W        W80621   2.356  38.840   3.711
 8896W        W80622  29.924  20.563  12.547
 8897W        W80623  14.626  31.404  11.898
 8898W        W80624   2.794  22.327  14.277
 8899W        W80625  15.021  39.111  14.774
 8900W        W80626  44.771  23.066   2.899
 8901W        W80627  24.807  44.544  13.887
 8902W        W80628  19.064  20.480  11.486
 8903W        W80629  36.992  33.455  13.543
 8904W        W80630  44.258  24.100   5.095
 8905W        W80631  30.325  39.009   3.337
 8906W        W80632  44.303  42.927  11.542
 8907W        W80633   0.802  20.570  13.147
 8908W        W80634   5.692   7.003  10.371
 8909W        W80635  23.271  23.926   0.246
 8910W        W80636  31.251  17.588  10.479
 8911W        W80637  20.198  23.665   2.253
 8912W        W80638   9.692  33.158   1.335
 8913W        W80639  28.908  34.962  13.995
 8914W        W80640   5.965  17.070   5.149
 8915W        W80641  12.349   0.006   3.551
 8916W        W80642   1.006  11.553   0.293
 8917W        W80643  26.744  21.776  13.855
 8918W        W80644  16.135   8.771   3.280
 8919W        W80645  10.300  26.862   0.254
 8920W        W80646  36.169  39.214  14.029
 8921W        W80647  36.421  31.557   2.766
 8922W        W80648   1.761  13.723   1.702
 8923W        W80649   0.243  29.495  11.572
 8924W        W80650  40.709  34.118  14.951
 8925W        W80651  30.961  18.348  12.554
 8926W        W80652   6.015  34.162   3.835
 8927W        W80653  36.318   3.398   4.985
 8928W        W80654   5.844   3.104   5.083
 8929W        W80655  11.656  29.862  13.169
 8930W        W80656  20.054  41.946   0.757
 8931W        W80657  32.590  14.332  10.590
 8932W        W80658  31.859  30.670   0.731
 8933W        W80659  38.307   6.658  11.591
 8934W        W80660  14.085  20.962   1.199
 8935W        W80661  15.904  28.440  12.737
 8936W        W80662   6.733  23.283  14.509
 8937W        W80663  30.549   4.308   1.667
 8938W        W80664   4.668  29.408   4.163
 8939W        W80665  26.875  12.211  11.612
 8940W        W80666   3.016   6.209   0.908
 8941W        W80667  39.518  35.170   1.857
 8942W        W80668   9.941  32.263  11.561
 8943W        W80669  26.205  15.704   3.088
 8944W        W80670  29.362   8.149  11.971
 8945W        W80671  25.193  17.522   0.333
 8946W        W80672   7.778  29.940   2.162
 8947W        W80673  19.097  40.731  13.544
 8948W        W80674  26.654  11.331   0.765
 8949W        W80675   4.949  42.039  14.429
 8950W        W80676  42.371  23.695  14.669
 8951W        W80677  21.777  11.270   1.433
 8952W        W80678  14.451  31.626  14.475
 8953W        W80679  10.196  29.913   0.020
 8954W        W80680  15.343  20.715  13.319
 8955W        W80681  16.401  18.193   2.751
 8956W        W80682  33.963  10.684  14.555
 8957W        W80683  38.835  34.301   0.846
 8958W        W80684  38.327  17.716  13.501
 8959W        W80685   9.687  16.542  14.295
 8960W        W80686  14.277   3.190  12.759
 8961W        W80687   6.390  41.890  14.206
 8962W        W80688   4.959  18.804  11.385
 8963W        W80689   9.167  12.302  13.584
 8964W        W80690  20.787  31.537  13.796
 8965W        W80691  21.282  17.026   4.322
 8966W        W80692  32.161  16.131   4.574
 8967W        W80693  11.854  39.100   1.472
 8968W        W80694  34.237   2.208  14.735
 8969W        W80695  18.011  24.833  13.138
 8970W        W80696  26.189  44.891  12.779
 8971W        W80697  33.628  16.596  13.020
 8972W        W80698  12.146  25.273  12.997
 8973W        W80699   1.455   9.158  10.491
 8974W        W80700  18.793  25.193  11.599
 8975W        W80701  25.058  16.624   3.261
 8976W        W80702  42.297  32.806  11.995
 8977W        W80703  17.169  40.047   3.280
 8978W        W80704  36.472   5.846   1.772
 8979W        W80705   6.755  27.388  12.072
 8980W        W80706  37.415  43.796   2.651
 8981W        W80707  27.531  44.322   0.235
 8982W        W80708  19.627   4.282  14.081
 8983W        W80709  38.085  42.801   0.304
 8984W        W80710  29.198  19.292  14.012
 8985W        W80711  30.011  16.670   3.641
 8986W        W80712  14.675  22.147   0.307
 8987W        W80713  19.633  37.247  14.490
 8988W        W80714  19.596  35.395   4.559
 8989W        W80715   4.890  37.268  13.046
 8990W        W80716   0.581   1.822   2.736
 8991W        W80717  18.512   1.890  11.127
 8992W        W80718   7.577  14.238  14.866
 8993W        W80719  31.235  28.580   4.555
 8994W        W80720  28.391  31.940  11.624
 8995W        W80721  38.507  37.447  13.361
 8996W        W80722   8.135  29.413  11.449
 8997W        W80723  29.103  44.217  11.220
 8998W        W80724  44.288  18.368   5.145
 8999W        W80725  18.536  42.161   2.836
 9000W        W80726  17.296  10.341   3.179
 9001W        W80727  23.433  41.781  13.817
 9002W        W80728  31.082  17.754   1.170
 9003W        W80729  20.713   5.951   1.216
 9004W        W80730  36.811  14.586   1.768
 9005W        W80731  11.465   8.217  13.466
 9006W        W80732  26.070  43.762  11.567
 9007W        W80733  10.585  31.377  14.015
 9008W        W80734  30.081  44.540   0.424
 9009W        W80735  42.350  13.726  11.521
 9010W        W80736  37.926   8.510  12.591
 9011W        W80737  32.145  38.805   3.225
 9012W        W80738  25.133  12.389  14.312
 9013W        W80739  33.037  37.873  11.461
 9014W        W80740  14.009  38.974   9.967
 9015W        W80741   9.328  34.264   1.883
 9016W        W80742  27.203   2.201   3.610
 9017W        W80743  42.410  34.590   1.977
 9018W        W80744  43.307  21.290   2.833
 9019W        W80745  19.194  10.327   3.273
 9020W        W80746  31.010  25.442   3.727
 9021W        W80747  37.576  27.018   3.627
 9022W        W80748  26.614  23.939  13.297
 9023W        W80749  35.592  18.521  14.461
 9024W        W80750  34.009  25.675  14.298
 9025W        W80751  39.052  34.481  12.593
 9026W        W80752  30.327  42.906   2.299
 9027W        W80753   5.803  36.003  10.455
 9028W        W80754  23.034  24.970  11.207
 9029W        W80755  29.686  32.831  13.047
 9030W        W80756   7.339  32.321   3.200
 9031W        W80757  39.713  20.377  13.475
 9032W        W80758  13.041  20.348  14.334
 9033W        W80759  14.171  25.009  12.803
 9034W        W80760  15.596  36.830  12.404
 9035W        W80761  27.003  19.636   0.505
 9036W        W80762  14.814   8.313   4.181
 9037W        W80763  18.724  23.828   9.818
 9038W        W80764   1.278   1.052  13.891
 9039W        W80765  10.308  42.250   2.279
 9040W        W80766   2.723  27.580   4.157
 9041W        W80767   7.076  14.237   4.041
 9042W        W80768  25.462  35.385  12.176
 9043W        W80769  44.451   5.463   1.653
 9044W        W80770  39.769   6.904  14.810
 9045W        W80771  44.855  32.127   1.835
 9046W        W80772  40.395  39.752   3.223
 9047W        W80773  43.194  19.634   3.723
 9048W        W80774   6.853  14.856   4.646
 9049W        W80775   1.649  21.491   2.221
 9050W        W80776  20.794  23.092   3.323
 9051W        W80777   3.165  20.508  12.562
 9052W        W80778  15.452  32.111  10.018
 9053W        W80779  39.876  15.373   2.348
 9054W        W80780  25.653  36.995   1.057
 9055W        W80781  16.945  33.130  10.692
 9056W        W80782   2.750   3.191  14.995
 9057W        W80783  22.261  10.304   4.497
 9058W        W80784  12.702   0.951   3.245
 9059W        W80785  20.814  41.748   2.340
 9060W        W80786  33.879  34.811  12.298
 9061W        W80787  31.284  28.027  13.159
 9062W        W80788  26.597  36.893  13.539
 9063W        W80789   3.773   0.777   1.332
 9064W        W80790  25.257   6.499  11.747
 9065W        W80791  23.807   9.440  14.480
 9066W        W80792  31.348  17.827   4.717
 9067W        W80793  24.711  17.114   1.444
 9068W        W80794  12.589   5.836  11.708
 9069W        W80795  21.793   0.720   1.814
 9070W        W80796  16.831  35.565  13.320
 9071W        W80797  40.515  21.741   3.317
 9072W        W80798  10.703  27.713  12.604
 9073W        W80799  20.139   9.165  13.150
 9074W        W80800  18.056   1.797  13.556
 9075W        W80801  33.996  43.239   0.846
 9076W        W80802  17.656  30.004   2.849
 9077W        W80803   5.796  43.794   3.780
 9078W        W80804  32.211  32.421   4.702
 9079W        W80805  42.949   3.935   0.876
 9080W        W80806  39.004  28.777  13.020
 9081W        W80807  19.976  16.988  14.379
 9082W        W80808  26.146  40.634  13.547
 9083W        W80809   4.375   6.972   2.847
 9084W        W80810   6.022  28.914  11.611
 9085W        W80811  43.076  37.008  12.057
 9086W        W80812  37.380  16.821  11.232
 9087W        W80813  35.206  35.682  10.624
 9088W        W80814  27.596  39.437   0.468
 9089W        W80815  16.282  41.625   4.098
 9090W        W80816   6.756  22.765  12.891
 9091W        W80817   4.967  28.261  13.343
 9092W        W80818  20.809  31.432  10.360
 9093W        W80819  12.850  42.832  11.256
 9094W        W80820  23.105  27.579  10.577
 9095W        W80821  42.029  44.400  13.066
 9096W        W80822  41.425  43.312  11.602
 9097W        W80823  38.841  26.143   1.759
 9098W        W80824  35.168  24.134   3.772
 9099W        W80825  23.486  18.237  10.720
 9100W        W80826  25.458  28.062  11.573
 9101W        W80827  13.634  38.095   0.452
 9102W        W80828  24.060  12.899  12.691
 9103W        W80829  31.925  37.503  12.780
 9104W        W80830  18.292   0.435   0.247
 9105W        W80831   0.782  34.640  10.866
 9106W        W80832  29.982   4.254  13.210
 9107W        W80833  41.141   6.500   0.035
 9108W        W80834  41.285   3.007   1.821
 9109W        W80835   9.214  22.120  11.652
 9110W        W80836  19.690  39.755   3.686
 9111W        W80837  27.250  41.289   3.327
 9112W        W80838  13.964  12.375   2.292
 9113W        W80839   0.995  26.460   0.089
 9114W        W80840  42.121  18.292  11.240
 9115W        W80841  11.323   8.168   4.795
 9116W        W80842   7.807   7.629  14.438
 9117W        W80843   7.312  43.910   2.494
 9118W        W80844   9.311  13.913   4.198
 9119W        W80845   9.349  15.076   2.208
 9120W        W80846  27.962  15.464  12.441
 9121W        W80847  27.138   6.457  11.190
 9122W        W80848   4.384  22.957  12.139
 9123W        W80849  12.167  41.864  13.353
 9124W        W80850  13.890   6.351  11.256
 9125W        W80851  41.903  41.283  10.601
 9126W        W80852  33.153   2.240   1.402
 9127W        W80853   5.284  34.117   4.460
 9128W        W80854  43.046  22.113  13.815
 9129W        W80855  19.745  17.413   5.042
 9130W        W80856  13.639  32.326   0.301
 9131W        W80857  14.130  18.017   3.065
 9132W        W80858   6.514  40.307  12.646
 9133W        W80859  41.803  15.356   4.458
 9134W        W80860   8.870  37.887   1.769
 9135W        W80861   2.735  35.537   0.376
 9136W        W80862  13.559  29.538   4.901
 9137W        W80863   3.412   8.854  13.013
 9138W        W80864  37.144   6.380  14.338
 9139W        W80865  25.765   0.491  13.440
 9140W        W80866  38.210  24.536  13.407
 9141W        W80867   7.625   3.095  13.452
 9142W        W80868  18.013  12.273  11.862
 9143W        W80869   2.351  29.660  12.035
 9144W        W80870  40.483  40.931  13.952
 9145W        W80871  17.466  30.684  10.509
 9146W        W80872   6.947  39.052   4.261
 9147W        W80873  38.943   6.400  11.066
 9148W        W80874  37.315  19.778   1.907
 9149W        W80875  10.277  41.521  12.583
 9150W        W80876  40.858  39.019  14.350
 9151W        W80877  42.074  24.553   4.117
 9152W        W80878  31.599  40.527  14.961
 9153W        W80879  31.077  26.090   2.099
 9154W        W80880   3.381  17.236   1.327
 9155W        W80881  43.450   2.362   1.453
 9156W        W80882  23.705  18.705   1.889
 9157W        W80883  24.700  41.054   4.544
 9158W        W80884  11.679   6.300   2.916
 9159W        W80885  34.584  12.527  13.596
 9160W        W80886  41.231   4.013  11.939
 9161W        W80887  22.672  30.096   2.945
 9162W        W80888  13.191  33.959   1.773
 9163W        W80889  15.436  29.417   1.661
 9164W        W80890  16.529  27.155   2.599
 9165W        W80891  44.523  39.966   2.884
 9166W        W80892   3.464  17.327  14.077
 9167W        W80893  18.479  12.940  11.306
 9168W        W80894  37.596   4.736  11.668
 9169W        W80895  24.258  24.463   3.175
 9170W        W80896   3.811  41.570   0.714
 9171W        W80897  24.542   9.579  14.404
 9172W        W80898  22.549  33.391  11.661
 9173W        W80899  16.196  21.878   3.736
 9174W        W80900   4.911   5.642  12.989
 9175W        W80901   4.463   4.903   2.389
 9176W        W80902   7.328   4.323   9.613
 9177W        W80903  38.889  27.886  10.103
 9178W        W80904  28.078  29.586  14.067
 9179W        W80905  18.039  14.235  13.982
 9180W        W80906  32.558  36.096  13.334
 9181W        W80907  24.585   6.681   1.305
 9182W        W80908   0.245  16.251  12.200
 9183W        W80909  19.142   5.218   0.188
 9184W        W80910  15.730   0.886   3.578
 9185W        W80911  24.991  18.791   2.275
 9186W        W80912  24.960  13.783  10.895
 9187W        W80913  25.659  25.396   4.893
 9188W        W80914  37.006  30.227  12.185
 9189W        W80915  31.357  42.930   2.265
 9190W        W80916  42.018   2.354   1.538
 9191W        W80917  42.366  40.494  11.997
 9192W        W80918  20.050  22.031   1.161
 9193W        W80919  41.269  19.726   3.942
 9194W        W80920  20.720  30.070   3.254
 9195W        W80921   4.718  29.738   3.759
 9196W        W80922   9.688  26.374   0.387
 9197W        W80923  43.215   0.781  14.183
 9198W        W80924  11.065  12.276   4.867
 9199W        W80925  26.667   0.860  11.410
 9200W        W80926  40.942  19.291   0.683
 9201W        W80927  24.973  19.488   3.546
 9202W        W80928  39.506   7.728   1.502
 9203W        W80929  36.967  24.253  11.594
 9204W        W80930  17.316  32.546   2.888
 9205W        W80931  44.321  43.326   4.483
 9206W        W80932  36.691  41.808  13.944
 9207W        W80933  11.072  24.263  11.249
 9208W        W80934  41.725   4.327  13.644
 9209W        W80935  10.561  40.610  10.650
 9210W        W80936  14.890   4.589  14.192
 9211W        W80937  36.349  22.566  10.795
 9212W        W80938  44.429   1.164  14.474
 9213W        W80939  44.705  32.530   2.423
 9214W        W80940  32.488  34.630   2.123
 9215W        W80941  26.414  43.340  11.618
 9216W        W80942  30.414  25.011   3.216
 9217W        W80943   6.411  21.232  14.844
 9218W        W80944  39.872  40.018   4.491
 9219W        W80945  32.305   7.196  12.132
 9220W        W80946   4.060  40.007   4.531
 9221W        W80947  43.288   7.173   2.458
 9222W        W80948  17.074  36.861   4.073
 9223W        W80949  43.795  31.476   3.697
 9224W        W80950  41.813  42.154   0.301
 9225W        W80951  13.266  20.868  11.126
 9226W        W80952  19.687  24.457  13.890
 9227W        W80953   2.731   5.603   3.735
 9228W        W80954  26.161  33.540  12.616
 9229W        W80955   5.983   9.169  13.828
 9230W        W80956  39.083  23.271  13.251
 9231W        W80957  11.468  42.885  10.728
 9232W        W80958  17.218  10.738  14.850
 9233W        W80959  38.499  18.267  11.824
 9234W        W80960  43.516   3.953  13.469
 9235W        W80961  19.229   9.969  14.367
 9236W        W80962  29.726  26.573   1.318
 9237W        W80963  36.260   1.001   3.638
 9238W        W80964   6.861  22.411  14.511
 9239W        W80965  22.743  18.661  14.462
 9240W        W80966  42.003  38.824  12.470
 9241W        W80967  16.585   2.901   2.163
 9242W        W80968  24.020  18.452   0.223
 9243W        W80969  11.743  27.297   2.789
 9244W        W80970   8.774  13.259   4.576
 9245W        W80971  33.598   4.295  14.430
 9246W        W80972  35.900  31.781  13.446
 9247W        W80973   1.745   3.148  11.913
 9248W        W80974   3.433  20.483   3.111
 9249W        W80975  26.596  44.158   4.551
 9250W        W80976  24.672   5.640   2.325
 9251W        W80977  30.507  40.255  14.194
 9252W        W80978  18.137  10.767   0.376
 9253W        W80979  31.135   4.963  10.198
 9254W        W80980  38.566  32.111  12.125
 9255W        W80981  28.672   6.818  11.999
 9256W        W80982  28.559  13.100   3.152
 9257W        W80983   1.175   6.404  13.985
 9258W        W80984  16.110   7.951  13.127
 9259W        W80985   9.274  26.657   0.379
 9260W        W80986   6.990  32.174  11.088
 9261W        W80987  42.976  13.110  14.472
 9262W        W80988  38.956  36.230  10.236
 9263W        W80989   2.715   5.841   1.147
 9264W        W80990   2.427  21.821  12.900
 9265W        W80991   1.979  20.207  13.515
 9266W        W80992  43.709  40.735  14.917
 9267W        W80993  37.560  31.014  12.196
 9268W        W80994  16.900  39.974   3.720
 9269W        W80995  21.217   8.257   4.671
 9270W        W80996  23.410  20.098   0.746
 9271W        W80997  11.671  42.230   0.853
 9272W        W80998  43.385  28.028   3.789
 9273W        W80999  33.071   4.256  13.086
 9274W        W81000  44.284  17.579  11.561
 9275W        W81001  21.121  34.967  14.793
 9276W        W81002   9.910  39.413  12.056
 9277W        W81003  10.975  18.843  10.788
 9278W        W81004   0.021  18.274   2.210
 9279W        W81005  18.599  37.072  14.944
 9280W        W81006  10.851  23.975  13.317
 9281W        W81007   4.308   5.695  11.632
 9282W        W81008  41.862  15.141  11.146
 9283W        W81009  17.335  25.707   1.382
 9284W        W81010  23.049  28.254  14.564
 9285W        W81011  19.976  42.854  14.397
 9286W        W81012  35.648  11.104   2.915
 9287W        W81013   1.711  26.330   3.267
 9288W        W81014  26.393  39.775  13.358
 9289W        W81015  25.406  44.391   3.364
 9290W        W81016   1.862  21.832  14.384
 9291W        W81017  23.624  18.001   4.246
 9292W        W81018  25.304   9.201   1.358
 9293W        W81019   2.459  18.492  13.549
 9294W        W81020  43.787  10.580  12.724
 9295W        W81021  10.921   5.317  10.530
 9296W        W81022  41.259   7.435  10.994
 9297W        W81023  18.220  34.082  14.843
 9298W        W81024   0.989  36.452  14.873
 9299W        W81025   4.799  25.780  14.954
 9300W        W81026  19.025  41.896   0.747
 9301W        W81027  13.242  28.939  12.617
 9302W        W81028   1.828   6.670  12.767
 9303W        W81029  15.778  13.809   4.509
 9304W        W81030  29.929  24.199   5.034
 9305W        W81031  14.153  15.755   1.858
 9306W        W81032  26.936  18.710  12.088
 9307W        W81033  14.835  21.283  14.912
 9308W        W81034   4.041  37.470   1.371
 9309W        W81035  23.423   1.324   3.207
 9310W        W81036  38.325  22.702  14.070
 9311W        W81037  14.314  24.985  10.385
 9312W        W81038   3.483  43.896   4.317
 9313W        W81039  17.065  11.910  11.979
 9314W        W81040  29.691  13.693  14.923
 9315W        W81041  39.612  36.511   3.643
 9316W        W81042  40.710   5.829  13.377
 9317W        W81043  24.911  44.403  12.778
 9318W        W81044  33.918  26.013  11.648
 9319W        W81045  10.848   2.431   0.395
 9320W        W81046  11.289   9.530  12.618
 9321W        W81047  13.132  13.242   1.725
 9322W        W81048   9.304  25.769   4.713
 9323W        W81049  17.754  40.462   3.827
 9324W        W81050  19.664  39.116   0.377
 9325W        W81051  33.689  34.999   4.812
 9326W        W81052  38.603  17.561   0.572
 9327W        W81053  29.693   0.991  14.518
 9328W        W81054   4.478   6.061   5.051
 9329W        W81055   6.779  19.369   1.875
 9330W        W81056  11.418   3.903   3.188
 9331W        W81057  20.436  42.936  11.215
 9332W        W81058  31.524  37.655  10.556
 9333W        W81059  18.050   8.681  13.340
 9334W        W81060  13.308  26.689   1.849
 9335W        W81061  23.992  35.854  11.657
 9336W        W81062   1.288   1.021   3.182
 9337W        W81063  38.410  10.632   3.532
 9338W        W81064  41.690  40.966   1.826
 9339W        W81065  18.601  10.041   0.254
 9340W        W81066   6.866  23.058   2.196
 9341W        W81067  12.341  15.865  11.134
 9342W        W81068  40.318  28.951   3.278
 9343W        W81069  40.202  17.564  13.419
 9344W        W81070  30.910  39.439  13.032
 9345W        W81071  11.307  37.567  12.141
 9346W        W81072  23.980  23.619  10.663
 9347W        W81073  40.597  19.729  12.400
 9348W        W81074   9.789  16.577   1.922
 9349W        W81075   5.010  17.190  11.571
 9350W        W81076  17.103  17.566   2.687
 9351W        W81077  43.882  39.515   4.581
 9352W        W81078  10.401  10.934   2.007
 9353W        W81079  44.197  43.466  12.875
 9354W        W81080  18.984   8.658   1.382
 9355W        W81081   3.234   5.708   4.382
 9356W        W81082  41.811  44.710   0.266
 9357W        W81083  42.895  28.929  12.822
 9358W        W81084  13.402  27.680   2.052
 9359W        W81085  13.947  32.602  11.029
 9360W        W81086  22.384   8.083  12.929
 9361W        W81087  30.677   5.179   4.658
 9362W        W81088  26.313  41.829  13.076
 9363W        W81089  43.149  18.344   0.447
 9364W        W81090   6.073  38.824  14.140
 9365W        W81091  29.124  38.538  12.507
 9366W        W81092  14.792  12.055   4.212
 9367W        W81093  30.335  39.930  13.303
 9368W        W81094  15.968  21.623   0.493
 9369W        W81095  43.421  21.668   4.097
 9370W        W81096   8.485  35.968  11.530
 9371W        W81097  17.802  17.238  10.946
 9372W        W81098  26.105  32.129  13.593
 9373W        W81099  12.791  22.685   1.402
 9374W        W81100   1.904  24.212   1.436
 9375W        W81101  38.808  18.113   4.644
 9376W        W81102  13.750  41.762   2.353
 9377W        W81103  14.209  24.059  13.933
 9378W        W81104  25.660  10.934  13.024
 9379W        W81105  34.114  21.573  14.542
 9380W        W81106  39.527  36.801  11.935
 9381W        W81107   8.181  20.766  14.607
 9382W        W81108  15.517  39.565   0.795
 9383W        W81109  14.128  27.311   1.374
 9384W        W81110   6.851  41.267  11.731
 9385W        W81111  13.743  38.982   0.055
 9386W        W81112  11.235  26.760   3.216
 9387W        W81113  19.158  33.874   0.332
 9388W        W81114  26.663  37.836   1.346
 9389W        W81115   0.814   2.754  12.461
 9390W        W81116  17.065  31.092   3.846
 9391W        W81117  13.665  12.887   0.407
 9392W        W81118  18.721  31.874   1.789
 9393W        W81119  32.616   1.959  12.148
 9394W        W81120  44.432   0.520   0.544
 9395W        W81121  33.446  36.608   4.132
 9396W        W81122  15.128  24.213   2.842
 9397W        W81123  25.780  30.031  13.886
 9398W        W81124   2.961  18.079  11.929
 9399W        W81125  40.264   9.167  14.917
 9400W        W81126   9.756  24.547   4.590
 9401W        W81127  37.394  33.684  10.880
 9402W        W81128  13.641  21.116  11.935
 9403W        W81129  18.696  23.788   1.384
 9404W        W81130  17.580  16.079   4.079
 9405W        W81131  28.042  37.327   1.356
 9406W        W81132  32.037  22.509  14.388
 9407W        W81133   3.269  20.877   0.408
 9408W        W81134  44.423  27.940   2.976
 9409W        W81135  14.681  12.214  12.558
 9410W        W81136  42.318  14.860  11.403
 9411W        W81137   4.952  31.890  13.405
 9412W        W81138  35.404  26.122   4.150
 9413W        W81139  13.657  17.573  11.612
 9414W        W81140  10.234  20.629  12.783
 9415W        W81141  24.104   5.695  13.853
 9416W        W81142   4.387  14.652   4.249
 9417W        W81143  26.922  15.086   3.293
 9418W        W81144  19.072  20.564  14.802
 9419W        W81145  27.873  14.527   4.178
 9420W        W81146  10.139  42.297  11.901
 9421W        W81147  32.123   8.110   2.800
 9422W        W81148  26.730   5.697   3.234
 9423W        W81149  28.749  29.562   1.724
 9424W        W81150  36.025  30.453   4.483
 9425W        W81151  17.590   3.859   0.506
 9426W        W81152  19.672  36.139   0.481
 9427W        W81153  40.324  40.307   1.901
 9428W        W81154   2.459  23.718  12.390
 9429W        W81155   8.154   3.978  13.103
 9430W        W81156  17.942  28.537  14.369
 9431W        W81157  34.295  34.560   1.943
 9432W        W81158  24.087   2.318   0.791
 9433W        W81159   8.272  28.426  11.190
 9434W        W81160   3.966   1.872  10.783
 9435W        W81161  41.445   3.416  14.602
 9436W        W81162  37.473   1.064  11.087
 9437W        W81163   7.787  28.018  11.920
 9438W        W81164  15.581  18.082  12.453
 9439W        W81165  19.441   0.988  14.210
 9440W        W81166  13.385   7.400  14.774
 9441W        W81167  42.445  21.155  10.653
 9442W        W81168  28.380  29.148  11.955
 9443W        W81169  12.452  22.165  12.028
 9444W        W81170   7.812  16.768  11.586
 9445W        W81171  33.455   2.950  11.992
 9446W        W81172  40.882   3.950  11.094
 9447W        W81173  17.631   3.969   4.621
 9448W        W81174  34.367  12.944  14.494
 9449W        W81175  16.644  16.076  11.835
 9450W        W81176   1.650  18.648   4.281
 9451W        W81177  40.510  43.979  10.481
 9452W        W81178  16.942  22.988  14.281
 9453W        W81179   3.361  19.957   2.238
 9454W        W81180  35.036  35.598  13.331
 9455W        W81181  28.609  25.188  11.628
 9456W        W81182  20.031  21.496   1.873
 9457W        W81183  19.851  32.108   1.389
 9458W        W81184  37.762  36.806   1.221
 9459W        W81185   5.607  14.271   2.204
 9460W        W81186  39.909  11.661   2.826
 9461W        W81187  14.149   0.942  13.392
 9462W        W81188  44.909  31.169   1.786
 9463W        W81189  25.429  18.206   2.797
 9464W        W81190   8.429  27.696   2.898
 9465W        W81191   1.430  18.776  14.921
 9466W        W81192  25.737  25.504  12.479
 9467W        W81193  12.005  27.594  12.542
 9468W        W81194  25.725  44.404  12.001
 9469W        W81195  25.240  29.169  10.736
 9470W        W81196   8.158   1.374   1.859
 9471W        W81197  11.108  22.694   0.496
 9472W        W81198  44.273  39.276   3.818
 9473W        W81199  34.898   7.954   3.261
 9474W        W81200  11.677  42.972  12.047
 9475W        W81201  21.730  41.810   3.895
 9476W        W81202  29.575  36.621  11.601
 9477W        W81203  25.516  24.631  10.558
 9478W        W81204   6.484   2.429  14.109
 9479W        W81205  15.592   1.952   2.763
 9480W        W81206  40.555   5.346  13.561
 9481W        W81207  32.343   0.691  11.661
 9482W        W81208  35.311  22.596  10.728
 9483W        W81209  39.484  26.150  13.070
 9484W        W81210  35.197   4.746  13.808
 9485W        W81211  23.616  39.557   0.927
 9486W        W81212  31.715  13.397  13.064
 9487W        W81213   7.884   5.912   3.665
 9488W        W81214   9.106  22.648   0.543
 9489W        W81215  25.899   7.268   2.750
 9490W        W81216  25.697  13.707  12.571
 9491W        W81217  20.483  43.757   3.401
 9492W        W81218  19.291  34.982  13.427
 9493W        W81219   1.395  22.888   2.282
 9494W        W81220   7.866  29.485   4.700
 9495W        W81221  18.646  23.636   4.612
 9496W        W81222   8.660  14.089  13.882
 9497W        W81223  18.081   8.402  14.981
 9498W        W81224  23.126   5.187  14.286
 9499W        W81225  23.949  34.116   1.884
 9500W        W81226  25.609  30.765   2.677
 9501W        W81227  36.157  32.048   1.951
 9502W        W81228  30.388  29.919  14.056
 9503W        W81229  20.244  35.945  13.467
 9504W        W81230  11.539  21.721   2.358
 9505W        W81231   2.712   2.258   4.277
 9506W        W81232  12.887  24.805   3.624
 9507W        W81233  37.281  27.155   4.552
 9508W        W81234  12.592  27.049  14.920
 9509W        W81235  22.279  19.764  12.999
 9510W        W81236  44.850   4.765   4.518
 9511W        W81237  37.894   9.835   4.638
 9512W        W81238  11.995  42.787   4.618
 9513W        W81239  43.979  27.470   4.089
 9514W        W81240  37.049  13.184   0.352
 9515W        W81241   7.362  30.620   1.266
 9516W        W81242  19.347  39.449   2.467
 9517W        W81243  36.206   9.903   3.278
 9518W        W81244   6.182  18.190  11.021
 9519W        W81245  11.157  18.200   1.011
 9520W        W81246  32.465  27.539   3.178
 9521W        W81247  23.067   9.728   4.460
 9522W        W81248  37.550  41.239  11.501
 9523W        W81249  41.970  32.187  10.968
 9524W        W81250   7.225  28.747   3.355
 9525W        W81251  17.748  42.949  11.133
 9526W        W81252  25.401  31.773   0.798
 9527W        W81253   3.668  42.238   1.998
 9528W        W81254   1.353  26.105  12.826
 9529W        W81255  22.296  14.791   1.107
 9530W        W81256  21.532   2.103   2.331
 9531W        W81257   1.862   5.319  14.883
 9532W        W81258  36.362   9.139  14.984
 9533W        W81259  12.149  36.344  11.483
 9534W        W81260   8.337   2.247   2.395
 9535W        W81261  33.869  21.321   1.855
 9536W        W81262   0.783   6.193  14.284
 9537W        W81263  31.902  11.181   0.330
 9538W        W81264  26.085  22.551  14.892
 9539W        W81265  29.794  39.787  14.641
 9540W        W81266  15.592  30.875   4.119
 9541W        W81267  29.562  38.008   3.724
 9542W        W81268   7.401  14.995   9.541
 9543W        W81269  28.981  42.334   4.469
 9544W        W81270  24.963  15.802   2.819
 9545W        W81271  31.248  37.772   2.883
 9546W        W81272  42.051  43.761   3.622
 9547W        W81273  38.140  37.788  13.097
 9548W        W81274  24.217  18.062  13.970
 9549W        W81275   4.255  29.368   2.288
 9550W        W81276  18.762  29.929   0.862
 9551W        W81277  33.390  22.244   0.467
 9552W        W81278   3.127  21.847  11.180
 9553W        W81279  11.346  32.694   0.374
 9554W        W81280  31.692  31.545   4.034
 9555W        W81281  18.767  31.916   0.063
 9556W        W81282  35.169   7.739  14.382
 9557W        W81283  12.094  26.047  11.501
 9558W        W81284   5.596   4.148   0.981
 9559W        W81285  37.619  23.220  14.292
 9560W        W81286  18.278  21.564   1.118
 9561W        W81287  39.535  27.341   1.259
 9562W        W81288   6.749  32.154  12.974
 9563W        W81289  35.456  44.475   1.073
 9564W        W81290   7.316   6.857  14.507
 9565W        W81291  27.535  28.997  14.893
 9566W        W81292   5.811  33.078  12.035
 9567W        W81293  39.351  39.156  12.137
 9568W        W81294  39.268  34.963  12.755
 9569W        W81295  21.337  33.923   0.988
 9570W        W81296  16.048  36.925   9.769
 9571W        W81297  40.821   3.263  13.535
 9572W        W81298  44.393  15.326  12.178
 9573W        W81299  18.089  21.696  12.822
 9574W        W81300   0.239  22.775   1.933
 9575W        W81301  19.181  35.831  11.097
 9576W        W81302  24.556  30.088  10.365
 9577W        W81303  16.245  21.607   4.150
 9578W        W81304   7.399   6.975  12.473
 9579W        W81305  17.116  43.828   1.813
 9580W        W81306  25.450   2.267   1.400
 9581W        W81307  33.152   6.391  11.930
 9582W        W81308  18.385   4.950   1.342
 9583W        W81309  34.920   9.755   2.633
 9584W        W81310   5.400   5.666   3.277
 9585W        W81311  37.718   9.156  14.524
 9586W        W81312  31.046  26.662  13.811
 9587W        W81313  33.845  15.807   4.211
 9588W        W81314  19.022  37.455   3.839
 9589W        W81315  24.154  43.403  13.594
 9590W        W81316  40.762  20.293   2.729
 9591W        W81317  18.059  33.579  11.924
 9592W        W81318  10.741  19.296  10.608
 9593W        W81319  28.609  21.040   3.730
 9594W        W81320  25.928   4.445  12.058
 9595W        W81321  21.189  43.105  13.536
 9596W        W81322  26.067  37.074   3.222
 9597W        W81323  16.920   0.073  11.106
 9598W        W81324  11.424   4.330  11.043
 9599W        W81325   6.296   0.383   0.302
 9600W        W81326  26.757  39.123  11.335
 9601W        W81327  13.006   8.004  14.187
 9602W        W81328  12.591  38.345  12.470
 9603W        W81329  30.689  40.771  12.203
 9604W        W81330  25.507  26.355   2.751
 9605W        W81331  11.091  38.548   3.762
 9606W        W81332  39.361  39.293   0.795
 9607W        W81333  37.385  20.289   1.789
 9608W        W81334  40.784  42.978   9.811
 9609W        W81335  44.855  19.692   3.280
 9610W        W81336  23.691  20.654  12.145
 9611W        W81337  24.247  16.274  11.192
 9612W        W81338  17.749   4.530  11.963
 9613W        W81339  36.018   4.725   0.790
 9614W        W81340   6.375  32.123  13.357
 9615W        W81341   8.428  33.923   3.669
 9616W        W81342   9.647  36.911   3.751
 9617W        W81343   9.674  24.426   1.366
 9618W        W81344   9.503   5.311   3.256
 9619W        W81345   5.139   4.803  12.810
 9620W        W81346  18.681  37.355  13.058
 9621W        W81347  26.260  19.342  14.328
 9622W        W81348  25.279   5.752   0.447
 9623W        W81349  33.525   3.742   3.772
 9624W        W81350   2.046  11.233   3.127
 9625W        W81351   6.310  22.799   2.266
 9626W        W81352  23.556  30.413  11.475
 9627W        W81353  11.169  39.943  12.988
 9628W        W81354  27.125  10.717   3.637
 9629W        W81355  37.914  15.663   4.685
 9630W        W81356   3.896   8.720  13.139
 9631W        W81357  18.148  13.019  14.919
 9632W        W81358  33.557  15.568  11.219
 9633W        W81359  16.683  43.747   2.119
 9634W        W81360  16.082  32.103   1.653
 9635W        W81361  22.420   9.762  10.739
 9636W        W81362  19.221  19.742  12.487
 9637W        W81363  23.618  28.118   2.082
 9638W        W81364  38.165  31.090   3.932
 9639W        W81365  20.477  17.814  11.020
 9640W        W81366   9.246   7.399  12.896
 9641W        W81367  41.455  30.334   0.694
 9642W        W81368  21.224  16.458  12.787
 9643W        W81369  29.239  15.281   1.742
 9644W        W81370  44.331   9.191  12.933
 9645W        W81371  41.590  30.176   5.026
 9646W        W81372   8.388  32.484  10.536
 9647W        W81373   5.216  16.563  12.051
 9648W        W81374  16.424  19.185  11.635
 9649W        W81375  37.592  18.010  12.126
 9650W        W81376  30.489   1.037  11.995
 9651W        W81377  12.681  33.919  13.299
 9652W        W81378  33.855   4.477   3.301
 9653W        W81379  14.700  39.334   1.397
 9654W        W81380  25.494   4.304  12.930
 9655W        W81381  25.926  43.177  14.550
 9656W        W81382  36.469  28.508   3.663
 9657W        W81383  31.483  29.664   2.275
 9658W        W81384   9.755  19.524   4.585
 9659W        W81385  20.627  18.436   3.130
 9660W        W81386  43.244   2.890   4.555
 9661W        W81387   4.392  33.478   0.890
 9662W        W81388  27.118  21.288   2.873
 9663W        W81389   0.325  13.343   4.966
 9664W        W81390   7.776  37.488   3.122
 9665W        W81391   5.838   6.673  13.838
 9666W        W81392  39.404  20.561  13.842
 9667W        W81393  15.874  14.594  13.887
 9668W        W81394  18.735  23.264   1.354
 9669W        W81395   5.163   9.445   4.462
 9670W        W81396  39.341   1.930   4.200
 9671W        W81397  22.276  22.309   3.140
 9672W        W81398  12.036   1.715   4.932
 9673W        W81399  28.350   1.766   3.121
 9674W        W81400  32.958   1.369  11.473
 9675W        W81401   6.247  10.852   0.547
 9676W        W81402  10.893  42.526   1.384
 9677W        W81403  11.313  34.835   4.531
 9678W        W81404  23.089  32.752  14.883
 9679W        W81405  20.366   3.787   2.746
 9680W        W81406  17.271  37.372   5.297
 9681W        W81407  17.109  23.958  13.286
 9682W        W81408   6.453  43.431   3.994
 9683W        W81409  44.909  10.248  14.454
 9684W        W81410  37.616  18.498  10.983
 9685W        W81411  19.760  41.287   1.394
 9686W        W81412  36.647   7.589  10.397
 9687W        W81413  39.812  40.953   2.331
 9688W        W81414  24.555   3.271  10.266
 9689W        W81415  12.437  36.322  14.859
 9690W        W81416  29.094   8.767   2.785
 9691W        W81417  28.453  43.605   4.822
 9692W        W81418  44.408  18.018  11.277
 9693W        W81419  33.614  41.972  12.598
 9694W        W81420  21.014   7.255   1.907
 9695W        W81421  42.902  20.040   3.636
 9696W        W81422  39.253  14.075   0.347
 9697W        W81423  42.000  31.635  12.592
 9698W        W81424   7.424  40.902   4.232
 9699W        W81425   6.925  10.260  14.529
 9700W        W81426  27.629  19.755   1.337
 9701W        W81427  11.858  23.823   2.667
 9702W        W81428  24.573  39.370  10.720
 9703W        W81429   9.401  22.051  13.549
 9704W        W81430  30.658  22.354   3.686
 9705W        W81431   5.869  36.027  14.271
 9706W        W81432  33.904  24.491   1.217
 9707W        W81433  11.218   4.722  14.615
 9708W        W81434  32.013  14.286  11.232
 9709W        W81435  34.337  29.022  13.896
 9710W        W81436   1.398   3.887   0.507
 9711W        W81437  34.451  36.145   4.318
 9712W        W81438  23.585   0.394   4.143
 9713W        W81439  37.152  31.379  14.848
 9714W        W81440  37.398   3.377   3.496
 9715W        W81441   1.240  10.775   3.181
 9716W        W81442   1.579   4.308  13.096
 9717W        W81443  39.398  11.650   4.817
 9718W        W81444  36.613  32.501   3.485
 9719W        W81445   7.914  31.191   3.757
 9720W        W81446  21.349  35.556   1.881
 9721W        W81447  28.928   9.747  13.847
 9722W        W81448  21.753  43.737   0.034
 9723W        W81449  19.145  36.784  12.806
 9724W        W81450  18.848   0.516  11.955
 9725W        W81451  17.841  15.482  12.959
 9726W        W81452  31.415  13.805   3.280
 9727W        W81453  10.536  43.028   4.260
 9728W        W81454  39.577  22.194  12.405
 9729W        W81455  32.742   7.500   2.849
 9730W        W81456  42.481   1.711  14.993
 9731W        W81457  11.738  43.193   0.786
 9732W        W81458   4.125  14.266  14.903
 9733W        W81459  11.678  44.388  14.098
 9734W        W81460  34.636   8.212  11.945
 9735W        W81461  11.093   3.363  10.689
 9736W        W81462  26.041  18.107   0.781
 9737W        W81463   0.681  41.068   0.867
 9738W        W81464  13.168  30.063   4.758
 9739W        W81465  30.697  18.835   3.310
 9740W        W81466  30.617  24.262  10.177
 9741W        W81467  17.435  35.565  11.449
 9742W        W81468  37.421  20.711   2.161
 9743W        W81469   0.242   7.312  12.884
 9744W        W81470   6.927  31.681   1.833
 9745W        W81471  11.513  21.758   1.482
 9746W        W81472  42.855  27.624   4.943
 9747W        W81473  18.713  10.513   1.723
 9748W        W81474  33.554   5.919   4.083
 9749W        W81475   9.239  43.256   0.654
 9750W        W81476  26.429  10.888  12.295
 9751W        W81477   6.763  15.089   3.785
 9752W        W81478  20.007  44.478  13.533
 9753W        W81479  29.147  24.537  11.010
 9754W        W81480  21.331  23.994   3.711
 9755W        W81481   9.334   5.703  11.388
 9756W        W81482  27.726  43.368   4.146
 9757W        W81483  18.130   0.962   0.293
 9758W        W81484  19.042  42.361   3.285
 9759W        W81485   5.894  27.941  11.516
 9760W        W81486  44.765  24.518  11.199
 9761W        W81487  35.102   8.907  12.291
 9762W        W81488  10.660  23.537  14.033
 9763W        W81489  35.101  44.617  11.603
 9764W        W81490  16.312  15.700  11.585
 9765W        W81491  29.176  15.724   2.355
 9766W        W81492  21.566  13.523   0.060
 9767W        W81493  41.451   8.668   3.526
 9768W        W81494  29.127   9.101   0.320
 9769W        W81495  41.967  24.207  12.863
 9770W        W81496  39.820   2.344   0.267
 9771W        W81497   9.906  35.152  11.562
 9772W        W81498  27.503  25.286   0.810
 9773W        W81499  37.915  32.260  12.483
 9774W        W81500   3.728  18.801  14.874
 9775W        W81501   0.956  39.549   4.495
 9776W        W81502  43.305   2.175   2.310
 9777W        W81503   5.907   2.709   0.430
 9778W        W81504  44.336   7.580  13.546
 9779W        W81505  37.384  19.122   2.725
 9780W        W81506  19.617  32.139   0.314
 9781W        W81507  15.683  18.331  11.029
 9782W        W81508   3.005  15.801   4.351
 9783W        W81509  41.486  29.585   1.842
 9784W        W81510  16.774   9.805  10.612
 9785W        W81511  38.915  40.492  10.994
 9786W        W81512  23.702  25.783   5.331
 9787W        W81513  12.720  41.298  13.852
 9788W        W81514  14.387  14.567  14.760
 9789W        W81515   9.999  22.648  10.669
 9790W        W81516  36.126   2.887  12.970
 9791W        W81517  35.419  40.082   1.140
 9792W        W81518  29.549  44.240   4.124
 9793W        W81519  31.040  39.066  14.748
 9794W        W81520  16.664  41.984   4.242
 9795W        W81521  40.549  18.794   4.431
 9796W        W81522  16.131  23.063   0.383
 9797W        W81523   3.169  32.967  12.899
 9798W        W81524  31.483  14.849  13.037
 9799W        W81525  19.832  28.573  10.782
 9800W        W81526  27.940  18.617  14.398
 9801W        W81527   8.898  29.422  10.717
 9802W        W81528  25.518  16.923  10.231
 9803W        W81529  43.093  23.678   1.208
 9804W        W81530  36.034  34.185   4.394
 9805W        W81531  18.558   5.439   3.242
 9806W        W81532  24.211   1.518  11.517
 9807W        W81533  19.653  36.840   3.694
 9808W        W81534  25.465  20.209  10.710
 9809W        W81535  41.054   4.344  12.970
 9810W        W81536  20.270  16.573  11.594
 9811W        W81537   3.028  35.996  11.934
 9812W        W81538  41.667   8.028  11.526
 9813W        W81539  10.647  19.130   1.951
 9814W        W81540  34.918  27.165   1.019
 9815W        W81541   0.994  40.847  12.587
 9816W        W81542  43.053  44.476  11.584
 9817W        W81543  39.079   3.011   4.251
 9818W        W81544   8.255   7.110   1.232
 9819W        W81545  41.589  30.880  10.677
 9820W        W81546  22.690   4.879   3.751
 9821W        W81547  36.096  29.546  12.502
 9822W        W81548  34.719   8.417   3.855
 9823W        W81549  30.091  32.126  11.559
 9824W        W81550  19.091   1.167   3.701
 9825W        W81551   8.596  23.598   1.383
 9826W        W81552  37.105  41.559  12.839
 9827W        W81553  13.623  10.710   3.116
 9828W        W81554  22.748  16.274   3.445
 9829W        W81555  25.046  14.834   2.742
 9830W        W81556  21.210  31.170  10.620
 9831W        W81557   3.005  33.424  14.010
 9832W        W81558  28.641  44.511   4.375
 9833W        W81559  27.993   1.945   2.686
 9834W        W81560  39.288  12.491  11.078
 9835W        W81561  30.104  37.319  11.933
 9836W        W81562  34.891   1.438  11.847
 9837W        W81563   5.880  44.395  14.250
 9838W        W81564  33.456  30.231   4.654
 9839W        W81565   8.603  25.251  11.620
 9840W        W81566   6.664  36.441  13.784
 9841W        W81567  29.530  14.539  13.921
 9842W        W81568  39.388  13.739   1.380
 9843W        W81569   6.324   4.963   2.563
 9844W        W81570  33.554  13.649  12.875
 9845W        W81571  24.527  34.817   2.107
 9846W        W81572  25.973   1.180   1.132
 9847W        W81573   5.991  23.489   3.255
 9848W        W81574  34.466  12.870   0.472
 9849W        W81575  35.929  13.124   0.354
 9850W        W81576  23.269   2.390   4.512
 9851W        W81577  22.733  16.206   2.944
 9852W        W81578  22.934  36.165   1.262
 9853W        W81579  33.369  35.616   2.169
 9854W        W81580  14.218  41.074   2.174
 9855W        W81581   1.218  44.947  11.077
 9856W        W81582  26.668   2.513   1.864
 9857W        W81583  23.706   2.853  14.996
 9858W        W81584  10.772  12.639  12.566
 9859W        W81585  25.627  34.984  11.656
 9860W        W81586   3.987  17.694  14.191
 9861W        W81587  44.736  42.463   1.546
 9862W        W81588  14.389  16.556  13.748
 9863W        W81589  11.198  12.170   2.190
 9864W        W81590  13.798  23.087  10.430
 9865W        W81591   2.819  30.973  14.453
 9866W        W81592  42.278  36.593   0.641
 9867W        W81593  36.496   8.153  13.347
 9868W        W81594  30.958  21.830  11.991
 9869W        W81595  19.516  18.769  11.072
 9870W        W81596  34.426  17.574  14.816
 9871W        W81597  41.221  36.589   0.004
 9872W        W81598  42.020  18.631   1.799
 9873W        W81599  25.966  30.848  11.110
 9874W        W81600  43.085  43.693   3.237
 9875W        W81601   5.000  26.024  11.652
 9876W        W81602  25.647  24.993   4.562
 9877W        W81603  17.749   6.168  10.422
 9878W        W81604  27.862  19.710   1.830
 9879W        W81605  20.120  20.280  12.565
 9880W        W81606   1.895  37.102   2.844
 9881W        W81607   9.668   6.114  11.970
 9882W        W81608   4.213  25.081  12.874
 9883W        W81609   5.192  38.510  13.907
 9884W        W81610   5.310  31.052   0.032
 9885W        W81611  35.729   6.666  13.132
 9886W        W81612  32.434   0.595  12.603
 9887W        W81613  17.383  24.519   4.207
 9888W        W81614   3.289   0.773   1.551
 9889W        W81615   7.828  16.623   4.610
 9890W        W81616  43.819   2.241   0.695
 9891W        W81617  30.609   2.920   2.154
 9892W        W81618  19.695  16.237   3.677
 9893W        W81619   1.731  34.502  11.019
 9894W        W81620  18.806  14.753  11.244
 9895W        W81621   3.739  19.176   4.801
 9896W        W81622  28.032  21.516   2.180
 9897W        W81623  10.911  20.659  10.567
 9898W        W81624  15.832   1.817  10.461
 9899W        W81625  35.470   9.669  12.481
 9900W        W81626  43.470  26.962   1.978
 9901W        W81627  11.711  16.502  11.992
 9902W        W81628  31.382  28.694  10.730
 9903W        W81629   5.666  32.023  14.979
 9904W        W81630   4.153   7.614   1.733
 9905W        W81631  22.792  11.211   2.658
 9906W        W81632  20.295  36.821   3.290
 9907W        W81633  15.742  32.672   3.804
 9908W        W81634   8.379  24.089   1.424
 9909W        W81635  13.397  12.329  12.916
 9910W        W81636  37.822  41.977   4.631
 9911W        W81637  35.389  17.700  12.897
 9912W        W81638  33.032   2.655   2.219
 9913W        W81639  44.759   3.264   4.255
 9914W        W81640  24.708   9.507   2.640
 9915W        W81641   7.926   5.737   4.539
 9916W        W81642   5.258  25.603  11.477
 9917W        W81643  14.829   2.412  12.509
 9918W        W81644  10.155  16.762  14.366
 9919W        W81645  29.458  40.145   3.204
 9920W        W81646  36.487  24.236   0.950
 9921W        W81647  25.971  41.300  14.807
 9922W        W81648  24.259   7.375  13.793
 9923W        W81649  24.677  31.871   3.019
 9924W        W81650  22.273  29.891  12.663
 9925W        W81651  28.137  38.828  13.437
 9926W        W81652  35.037  35.638   4.907
 9927W        W81653  18.737  40.829   0.840
 9928W        W81654   4.145  20.826  13.314
 9929W        W81655   6.982  35.949  11.468
 9930W        W81656  22.900  42.066  11.127
 9931W        W81657  11.215   5.678  10.993
 9932W        W81658   4.584  21.706   1.796
 9933W        W81659  44.702  14.326   4.501
 9934W        W81660  34.641  44.099   0.464
 9935W        W81661  11.037  41.434  14.806
 9936W        W81662  17.506  42.917  10.681
 9937W        W81663  33.977  25.372   1.480
 9938W        W81664  43.992  13.778   2.324
 9939W        W81665  28.384  19.765   1.828
 9940W        W81666  10.957  13.680   4.776
 9941W        W81667  33.506  20.967   1.710
 9942W        W81668   0.244  24.206  14.739
 9943W        W81669  12.802   4.162   3.777
 9944W        W81670  12.876   9.965  11.413
 9945W        W81671  22.314  24.366   4.291
 9946W        W81672   8.447  40.942   0.382
 9947W        W81673   1.584  26.641   2.324
 9948W        W81674  42.828  36.996  10.773
 9949W        W81675  17.939  30.881  10.611
 9950W        W81676  32.283  19.606   4.505
 9951W        W81677  40.971   0.554  12.823
 9952W        W81678  10.146  29.472  12.295
 9953W        W81679  11.462  40.699  10.942
 9954W        W81680  24.260  22.424   0.020
 9955W        W81681  27.342  21.219   3.386
 9956W        W81682  26.986   0.899   1.403
 9957W        W81683  13.799  42.057  12.540
 9958W        W81684  43.858   6.866   3.117
 9959W        W81685  30.526  20.322   3.265
 9960W        W81686  24.931  25.726   2.753
 9961W        W81687   8.469   6.885   5.073
 9962W        W81688   5.890  15.649  14.252
 9963W        W81689  27.492  27.020   1.288
 9964W        W81690   5.619  28.623   1.792
 9965W        W81691  23.704  13.270  14.863
 9966W        W81692  43.845  26.723  13.952
 9967W        W81693  41.390   5.058   2.441
 9968W        W81694   4.985  18.278   0.937
 9969W        W81695  15.716  42.295  13.185
 9970W        W81696  23.148  36.569  14.501
 9971W        W81697  22.118  43.008   0.437
 9972W        W81698  27.773  27.862   2.319
 9973W        W81699  12.944  16.132  14.350
 9974W        W81700  40.613  30.429   0.930
 9975W        W81701  13.003  12.548   2.216
 9976W        W81702  41.646  10.176   1.840
 9977W        W81703  24.108  41.878  10.534
 9978W        W81704  29.650  18.373   4.210
 9979W        W81705  10.340   7.817  11.491
 9980W        W81706  15.593  19.370   0.809
 9981W        W81707  14.869   3.495  11.523
 9982W        W81708  37.510   2.792   1.301
 9983W        W81709   9.382  40.903   0.308
 9984W        W81710   0.055   8.714  11.729
 9985W        W81711   6.913  37.235   4.103
 9986W        W81712  38.632  13.432  11.367
 9987W        W81713  32.616   2.284  13.492
 9988W        W81714  10.371   1.422   0.967
 9989W        W81715  11.099   9.190  12.963
 9990W        W81716  31.502  42.133   5.674
 9991W        W81717   0.541  19.220  12.456
 9992W        W81718   4.834  36.338  12.700
 9993W        W81719  15.820   0.063   3.660
 9994W        W81720   4.011  29.062   2.678
 9995W        W81721  15.190   3.258   3.245
 9996W        W81722  21.085  18.034   2.871
 9997W        W81723   5.935   8.421   1.325
 9998W        W81724  37.967  32.521  11.576
 9999W        W81725  15.606   3.337  12.427
10000W        W81726  10.681  35.537  11.427
10001W        W81727   7.731  21.634  11.986
10002W        W81728  34.296  31.122   3.244
10003W        W81729  22.253   7.559  14.026
10004W        W81730   4.185  31.442   1.758
10005W        W81731   8.809  19.232   2.669
10006W        W81732  34.752  16.034   2.300
10007W        W81733  13.310  17.622   4.184
10008W        W81734  34.442  31.671  12.407
10009W        W81735  16.592  29.958  11.186
10010W        W81736  37.469  42.180   5.106
10011W        W81737  40.067  12.810   0.830
10012W        W81738  12.201  34.115  10.347
10013W        W81739  35.021   9.086   1.680
10014W        W81740   3.210  21.183  11.891
10015W        W81741  21.659   6.765   2.880
10016W        W81742  21.410  31.537  12.987
10017W        W81743  14.847  20.252   4.273
10018W        W81744  30.492   8.418  13.480
10019W        W81745   2.411   0.353  10.722
10020W        W81746  13.149   7.921   3.671
10021W        W81747  26.905  17.166   4.168
10022W        W81748  36.510  23.482  11.512
10023W        W81749  15.794  29.646  12.796
10024W        W81750   3.613  29.051   3.622
10025W        W81751  41.386  33.907  12.838
10026W        W81752   1.138   0.941   1.770
10027W        W81753  15.573  11.191  11.661
10028W        W81754  24.577  38.245   3.749
10029W        W81755  34.883  17.849  14.112
10030W        W81756   1.218  15.747  11.218
10031W        W81757  17.157   9.151   2.212
10032W        W81758  21.015   0.232  11.488
10033W        W81759  25.266  20.132  14.374
10034W        W81760  39.556  19.569  12.855
10035W        W81761  31.879  35.382   4.982
10036W        W81762   2.254  40.302  10.745
10037W        W81763  27.186   5.175   0.814
10038W        W81764   6.957  15.929   1.311
10039W        W81765  14.283   5.855  10.422
10040W        W81766   9.694  40.275   0.889
10041W        W81767  37.406  24.765   1.290
10042W        W81768   4.184  24.735  12.448
10043W        W81769  15.678  27.048   0.975
10044W        W81770  20.563  39.824   2.693
10045W        W81771   6.951  36.009  12.844
10046W        W81772  13.695  26.185   4.243
10047W        W81773  29.701   3.921   0.778
10048W        W81774  33.854  10.720  12.017
10049W        W81775   8.859  40.715  13.541
10050W        W81776  31.040  44.741   3.587
10051W        W81777  22.599   1.749   1.491
10052W        W81778  20.159  13.599  13.143
10053W        W81779  40.351  14.334   4.170
10054W        W81780  19.837  17.836  12.499
10055W        W81781   1.079   2.790   1.378
10056W        W81782  22.748  38.672  10.976
10057W        W81783   4.707  15.336   2.253
10058W        W81784  44.487  15.225  12.663
10059W        W81785  34.959  35.050   4.118
10060W        W81786  19.801  21.824   3.703
10061W        W81787   7.632   2.827  11.457
10062W        W81788  15.260  25.035   3.830
10063W        W81789  38.529  20.454   3.119
10064W        W81790  13.721  10.750   4.557
10065W        W81791  32.682  34.553   1.206
10066W        W81792   5.712  18.767   0.690
10067W        W81793  11.755  37.000   0.840
10068W        W81794   1.389  20.924  12.526
10069W        W81795  32.050  42.976  10.407
10070W        W81796   5.290   4.412   0.540
10071W        W81797   0.421  33.914  11.022
10072W        W81798   1.297   4.980  12.893
10073W        W81799  12.821  17.158  14.954
10074W        W81800  36.452  39.540   3.838
10075W        W81801   2.182   4.837   0.727
10076W        W81802   6.576   3.785   0.852
10077W        W81803   5.159  43.909  12.852
10078W        W81804   0.325  43.250   4.229
10079W        W81805  32.461  38.392  13.187
10080W        W81806  15.241  11.653  14.298
10081W        W81807  17.394   4.266   1.198
10082W        W81808  30.281   4.828   4.676
10083W        W81809  26.515  29.363  14.776
10084W        W81810   3.940  28.122   0.830
10085W        W81811   9.740  36.924  14.798
10086W        W81812  13.075  20.117  10.646
10087W        W81813  30.710  44.424  11.040
10088W        W81814  24.673  36.533   3.453
10089W        W81815  44.912  10.163   1.964
10090W        W81816  19.102  15.959   2.228
10091W        W81817  19.252   4.354   1.899
10092W        W81818  39.017  33.612   0.263
10093W        W81819  15.289  20.011   4.374
10094W        W81820  11.593  44.280   2.371
10095W        W81821  28.630  24.920  12.514
10096W        W81822  41.270  44.650  11.431
10097W        W81823   8.175  24.748   3.716
10098W        W81824   0.358  20.457  13.964
10099W        W81825  26.640   9.101  10.496
10100W        W81826  10.226   1.784   1.351
10101W        W81827   8.618  13.404   4.102
10102W        W81828  29.076  16.256  11.387
10103W        W81829  44.265   1.977  12.052
10104W        W81830  25.337  43.184   3.781
10105W        W81831  16.280  12.189   0.988
10106W        W81832  17.686  41.756   0.427
10107W        W81833   9.297   6.519   2.786
10108W        W81834  39.331  40.602   0.489
10109W        W81835  21.602  10.652  12.443
10110W        W81836  14.053  32.905   4.077
10111W        W81837   1.340   4.781   3.532
10112W        W81838  22.198  30.944   1.805
10113W        W81839  41.814  41.536  11.544
10114W        W81840  36.469  12.686   4.872
10115W        W81841  30.342  19.676   4.858
10116W        W81842  20.159  24.285  14.068
10117W        W81843   4.911  32.994  14.292
10118W        W81844  18.587   1.914  13.483
10119W        W81845   8.774  34.415   1.588
10120W        W81846  31.679  28.205  13.615
10121W        W81847  35.858  19.671  13.319
10122W        W81848  22.298   9.977  12.953
10123W        W81849  22.695  31.891  14.598
10124W        W81850  16.255  30.633  11.991
10125W        W81851  22.437  33.972   1.828
10126W        W81852  32.393  23.921   0.862
10127W        W81853  23.246   8.798   3.831
10128W        W81854  36.999  21.051   2.886
10129W        W81855   3.074  25.500   4.195
10130W        W81856  22.450   7.463   0.276
10131W        W81857  28.201  30.304  11.322
10132W        W81858  38.050  42.778   1.195
10133W        W81859  36.905  26.721   2.413
10134W        W81860  40.637  39.630   3.771
10135W        W81861  25.194   7.747  14.983
10136W        W81862   1.617  26.843   3.292
10137W        W81863  16.386  43.738  14.509
10138W        W81864  38.830  41.943  14.490
10139W        W81865  12.697  11.784  13.095
10140W        W81866  35.080  22.883   2.325
10141W        W81867  12.533  23.050  12.672
10142W        W81868  26.119  28.123  13.454
10143W        W81869  21.836  29.419  13.348
10144W        W81870  44.897   1.242   4.683
10145W        W81871  21.429  13.666  13.779
10146W        W81872  35.077  27.589   1.750
10147W        W81873  37.495  13.407  12.528
10148W        W81874  43.947   5.853  11.520
10149W        W81875  19.700  40.142  13.059
10150W        W81876  44.375  22.555  11.655
10151W        W81877  15.048  40.001  10.505
10152W        W81878   5.978  37.377  13.925
10153W        W81879  36.638   2.306   5.034
10154W        W81880   3.412  33.899  12.603
10155W        W81881  30.483   7.786   3.690
10156W        W81882   1.897  39.020  14.319
10157W        W81883  39.888  38.365   0.250
10158W        W81884  25.533  36.010   2.269
10159W        W81885  28.095  27.047   4.898
10160W        W81886  29.012  42.013   0.387
10161W        W81887  33.181  14.609   2.777
10162W        W81888  14.486   7.829  13.333
10163W        W81889  29.693  34.904  13.037
10164W        W81890  16.875  43.573  14.383
10165W        W81891  25.667  31.354  14.853
10166W        W81892  44.132  24.262   1.719
10167W        W81893  27.572  42.206  12.065
10168W        W81894  42.076  43.950   4.127
10169W        W81895  16.229  15.871  12.071
10170W        W81896   8.159  31.040   1.901
10171W        W81897   2.278  43.924   1.796
10172W        W81898   7.951   3.405   5.008
10173W        W81899   1.013   8.646  12.899
10174W        W81900  23.096  12.605  12.879
10175W        W81901  38.372  42.206  12.342
10176W        W81902   8.792  19.562   4.592
10177W        W81903  13.247  16.868  14.819
10178W        W81904  43.502  10.395   0.931
10179W        W81905  30.117   4.912   3.335
10180W        W81906  12.563  30.178   2.997
10181W        W81907   2.889  42.930   2.760
10182W        W81908  11.282  42.066   4.889
10183W        W81909  37.145  26.911  14.492
10184W        W81910  28.940   5.638  12.140
10185W        W81911  27.470  40.129  14.756
10186W        W81912  27.666  34.526  14.437
10187W        W81913  12.296  21.836   3.775
10188W        W81914  36.000  44.772   2.790
10189W        W81915  19.250   1.991  13.590
10190W        W81916  33.646   5.397   0.909
10191W        W81917  19.452  41.948  11.931
10192W        W81918   1.846  44.782   2.648
10193W        W81919  20.525  36.968   2.134
10194W        W81920  28.635  10.427  10.389
10195W        W81921  43.568  21.988  13.075
10196W        W81922   7.681  44.794  12.454
10197W        W81923  43.172   7.938  14.761
10198W        W81924  42.548   1.287  10.966
10199W        W81925  10.128  17.119  13.894
10200W        W81926  10.117  27.019   2.691
10201W        W81927  33.334   9.086   9.885
10202W        W81928  32.899  27.214  12.499
10203W        W81929  12.265  10.625  13.812
10204W        W81930  28.860  15.339   3.112
10205W        W81931   8.436  44.023  10.701
10206W        W81932  26.533  16.559   0.402
10207W        W81933  38.585  16.128   4.125
10208W        W81934  42.438  30.745   2.690
10209W        W81935  43.077  38.884  12.987
10210W        W81936  21.541   6.960  10.537
10211W        W81937  41.667   6.035   4.611
10212W        W81938  10.415  38.020   1.900
10213W        W81939   9.864  21.577  13.789
10214W        W81940  10.590  31.600   2.264
10215W        W81941  10.916  10.358  11.165
10216W        W81942  31.764  13.722   0.017
10217W        W81943  18.850  20.112   0.869
10218W        W81944   3.018  26.604   4.611
10219W        W81945  10.684   9.084   2.703
10220W        W81946  13.925  29.625   1.440
10221W        W81947  10.419  13.644   2.769
10222W        W81948   6.667  37.782   2.054
10223W        W81949  33.823  26.407  10.947
10224W        W81950  16.151  29.877  13.109
10225W        W81951  33.621  18.119  10.190
10226W        W81952  36.555  30.861   2.323
10227W        W81953  15.274  12.858   3.220
10228W        W81954  33.324  12.773  14.449
10229W        W81955  29.407  44.919   3.599
10230W        W81956  29.003  11.702   3.234
10231W        W81957  23.311  27.486  11.108
10232W        W81958   6.895  41.026   2.388
10233W        W81959  35.729  43.881   0.004
10234W        W81960  38.551  23.562   3.633
10235W        W81961  40.367  37.122  15.000
10236W        W81962  38.351  42.202   3.257
10237W        W81963  12.394  23.701  12.831
10238W        W81964  27.837  17.727   2.564
10239W        W81965  34.015   6.102  14.939
10240W        W81966  37.405   8.119   0.476
10241W        W81967   7.280   6.643  14.998
10242W        W81968  41.522  39.298   0.773
10243W        W81969  21.703  28.723  12.863
10244W        W81970  15.548  33.985   0.276
10245W        W81971  16.351  12.387  14.816
10246W        W81972  29.711  15.742   2.277
10247W        W81973  10.781  44.092   4.165
10248W        W81974  38.629   6.936  13.430
10249W        W81975  21.028  24.016  10.701
10250W        W81976  35.841   0.706   0.412
10251W        W81977   5.713  27.596  13.205
10252W        W81978  40.118  38.343   1.898
10253W        W81979  39.004  18.645  10.442
10254W        W81980  12.407  14.215   0.196
10255W        W81981   8.070  30.940  12.174
10256W        W81982  20.129  30.263  10.176
10257W        W81983  21.065  34.375   2.763
10258W        W81984  33.043  38.894  11.625
10259W        W81985  24.404   5.384   4.569
10260W        W81986  40.572   5.211   0.429
10261W        W81987  27.020  43.817  12.553
10262W        W81988  36.770  11.801  14.931
10263W        W81989  18.536  35.655   4.680
10264W        W81990  16.695  33.147  11.986
10265W        W81991   2.858  31.030   1.949
10266W        W81992   0.888   8.831  14.559
10267W        W81993   3.675  39.526   0.403
10268W        W81994  36.093  40.562  11.554
10269W        W81995  13.212  15.823   0.088
10270W        W81996  25.193  12.826  11.149
10271W        W81997   2.287  38.600   4.899
10272W        W81998  21.424  10.757   4.071
10273W        W81999   6.365  21.184  12.505
10274W        W82000   8.863   8.224   3.861
10275W        W82001  44.025   7.905   0.937
10276W        W82002   2.221  14.983  10.737
10277W        W82003  14.370  38.446   5.527
10278W        W82004  33.511  39.759  14.896
10279W        W82005   5.453  40.526   3.584
10280W        W82006  25.649  16.088  14.227
10281W        W82007  18.789  17.570  12.282
10282W        W82008  44.520  12.993   1.852
10283W        W82009  13.568  10.316  12.294
10284W        W82010  23.959  19.778  14.515
10285W        W82011  13.773  26.515   1.979
10286W        W82012   7.853   6.119   2.228
10287W        W82013   3.804  22.707  13.041
10288W        W82014  10.278  40.416  10.219
10289W        W82015  10.945  22.965   3.211
10290W        W82016  13.945  25.299   0.472
10291W        W82017  15.240  16.700  11.428
10292W        W82018  14.817  31.745  13.674
10293W        W82019  16.624  27.868  12.714
10294W        W82020  12.838  36.929   2.201
10295W        W82021   8.954  11.650   1.952
10296W        W82022  43.352  37.368   4.100
10297W        W82023  21.692   1.452  13.483
10298W        W82024  33.418  26.720   4.635
10299W        W82025  28.625  10.869   1.786
10300W        W82026   3.183  33.968  11.617
10301W        W82027   9.231  16.335   2.715
10302W        W82028  44.991  23.657  11.658
10303W        W82029  39.004  24.931  13.347
10304W        W82030  38.036  30.871   2.198
10305W        W82031  25.092  41.241  14.321
10306W        W82032  31.750  17.036   3.771
10307W        W82033  42.699   3.596  12.952
10308W        W82034  11.289  14.085   0.068
10309W        W82035  43.332  19.176  13.723
10310W        W82036  13.394  36.795   5.005
10311W        W82037  14.694  44.831  12.400
10312W        W82038   3.384  41.957   4.088
10313W        W82039   8.078  27.626   4.232
10314W        W82040  18.873   5.036   1.475
10315W        W82041  38.844   7.845   3.325
10316W        W82042   2.668  21.064  12.087
10317W        W82043  43.150  13.837  11.520
10318W        W82044  40.481   9.866  12.352
10319W        W82045  23.702  27.799   1.188
10320W        W82046  26.271  10.691   2.271
10321W        W82047  25.291  30.724  11.459
10322W        W82048  13.276  14.074   3.754
10323W        W82049  41.432  15.257   2.376
10324W        W82050  39.135  44.965  11.098
10325W        W82051   3.854  40.488  14.102
10326W        W82052   1.855   9.363  11.353
10327W        W82053  29.464   6.915  11.650
10328W        W82054  15.237  30.912   2.817
10329W        W82055  39.848  15.568   1.310
10330W        W82056  25.421  43.512  12.026
10331W        W82057  25.486  38.700   0.480
10332W        W82058  12.677   4.808  12.965
10333W        W82059  18.247  32.116   0.922
10334W        W82060   6.992  23.264   2.650
10335W        W82061   0.734  38.861  14.648
10336W        W82062  26.947  21.548   2.196
10337W        W82063  22.690  33.648  14.789
10338W        W82064  22.469  14.330  13.815
10339W        W82065  43.321   3.922   2.314
10340W        W82066  42.372  43.240  14.736
10341W        W82067  36.066  31.874  12.939
10342W        W82068  38.797  33.097   2.184
10343W        W82069   7.049  37.772  12.591
10344W        W82070  31.594  25.790  13.146
10345W        W82071  15.054  28.364  11.707
10346W        W82072  29.711  15.636  10.756
10347W        W82073  29.253  24.784   0.609
10348W        W82074  25.666  39.937   3.142
10349W        W82075  23.050  15.027  12.750
10350W        W82076  14.118  34.346  12.542
10351W        W82077  29.098  39.971   1.307
10352W        W82078  19.681  35.541   1.608
10353W        W82079  13.814  41.222  14.388
10354W        W82080  41.671  30.523  11.071
10355W        W82081   3.779   6.927   2.430
10356W        W82082  43.257  17.527   3.254
10357W        W82083  31.134  39.938  14.770
10358W        W82084  10.810  38.230   4.571
10359W        W82085   5.274   1.954   0.224
10360W        W82086  25.165  36.513  11.658
10361W        W82087   6.162   3.986  13.494
10362W        W82088  36.324  21.428  12.534
10363W        W82089  12.747   9.594  11.078
10364W        W82090  40.322  21.648   2.744
10365W        W82091  11.873   2.176   2.226
10366W        W82092  36.576  22.144   2.384
10367W        W82093   6.005  30.530   2.677
10368W        W82094  22.103   2.300   0.470
10369W        W82095  16.712  36.400   1.828
10370W        W82096   7.711   9.850   2.627
10371W        W82097  26.983  41.823   1.712
10372W        W82098  36.152   0.607  10.811
10373W        W82099   2.284   3.930   2.915
10374W        W82100   0.887  41.865   0.478
10375W        W82101  35.656   5.396  12.027
10376W        W82102   0.995  34.941   0.686
10377W        W82103  33.340  32.600   1.869
10378W        W82104   7.000  40.581  12.405
10379W        W82105  30.721   3.248  12.954
10380W        W82106   7.391  37.315   1.929
10381W        W82107  22.491  32.729   4.109
10382W        W82108   3.349  33.114  14.234
10383W        W82109  34.238  32.599   4.496
10384W        W82110  44.974  15.868  12.453
10385W        W82111  10.833  31.506   1.789
10386W        W82112  29.222  41.765  11.593
10387W        W82113  27.677  40.975  12.505
10388W        W82114  10.167  28.969  12.470
10389W        W82115  37.479   4.268  11.504
10390W        W82116  34.350  44.409   1.259
10391W        W82117  35.146  30.245  11.181
10392W        W82118  18.066  22.621  12.895
10393W        W82119  30.004  24.195   1.775
10394W        W82120  41.629  35.105   0.827
10395W        W82121  29.041  27.490  12.522
10396W        W82122  24.630  37.072   0.384
10397W        W82123  39.434  11.353   3.682
10398W        W82124  31.790  44.950  11.118
10399W        W82125   4.884  20.186  12.970
10400W        W82126  27.985  30.605  10.080
10401W        W82127   1.830  38.272  14.022
10402W        W82128  41.970  24.577   2.796
10403W        W82129  30.598   7.637  11.693
10404W        W82130   6.438  12.797  10.604
10405W        W82131  33.970  14.818  12.962
10406W        W82132   6.847  12.100   0.325
10407W        W82133   7.598   8.520   2.236
10408W        W82134  35.162  36.861  14.714
10409W        W82135   0.441  35.316   2.100
10410W        W82136  14.435  16.287  11.202
10411W        W82137   3.763   0.411  14.345
10412W        W82138  30.442  12.711   4.114
10413W        W82139   5.946  39.462  13.288
10414W        W82140  36.423  29.299   1.947
10415W        W82141   0.957  14.862  11.530
10416W        W82142  14.143  27.416  14.414
10417W        W82143  39.030   6.653  14.336
10418W        W82144  13.906  16.286  11.142
10419W        W82145  34.272  43.894  11.101
10420W        W82146   6.152  29.036  12.119
10421W        W82147  14.783  35.804  14.849
10422W        W82148  44.452  38.416  11.192
10423W        W82149  10.385  34.128  12.643
10424W        W82150  32.100  31.658  11.455
10425W        W82151  11.109   3.212  12.503
10426W        W82152  11.048  34.865  10.157
10427W        W82153  17.348   3.382   2.181
10428W        W82154   1.478   4.807   1.441
10429W        W82155  21.786  36.465   2.959
10430W        W82156  16.685  22.517  14.255
10431W        W82157  41.075  38.982   4.438
10432W        W82158   5.406  15.821  12.456
10433W        W82159  28.893  15.768   3.377
10434W        W82160  20.064  26.660  14.329
10435W        W82161  38.290  10.325  11.043
10436W        W82162  28.885   3.408  10.496
10437W        W82163   6.688   9.852   1.247
10438W        W82164  42.914  33.652   2.808
10439W        W82165  20.874   3.762   2.646
10440W        W82166   9.715  17.732   3.155
10441W        W82167  43.343  13.417  11.219
10442W        W82168   8.923  22.252  14.688
10443W        W82169  30.922  36.036  13.927
10444W        W82170   9.304  40.842   3.727
10445W        W82171  14.854  42.972  11.547
10446W        W82172  10.082   5.699  12.012
10447W        W82173   7.324  35.848  11.031
10448W        W82174  10.161  19.902   2.098
10449W        W82175  18.572  41.662   2.883
10450W        W82176   3.182  34.592  12.056
10451W        W82177   7.162  39.435   1.221
10452W        W82178  38.082  33.963  13.804
10453W        W82179   4.032  30.182   4.166
10454W        W82180  32.665  15.947   4.579
10455W        W82181  42.232   0.413   1.250
10456W        W82182  41.480  40.351   1.180
10457W        W82183  30.108   5.952  14.367
10458W        W82184  17.086   6.689   4.244
10459W        W82185  22.546  12.557   0.503
10460W        W82186  18.144  36.431   4.231
10461W        W82187  26.461  30.931  13.955
10462W        W82188  20.986  26.655  11.225
10463W        W82189  35.199  24.354   0.472
10464W        W82190  40.946  36.179  13.019
10465W        W82191   8.768  12.125   2.071
10466W        W82192  34.984  20.947  14.835
10467W        W82193  32.639  31.937  10.781
10468W        W82194  39.349  14.932   0.878
10469W        W82195  34.967  37.228   2.657
10470W        W82196  32.394  22.553  12.543
10471W        W82197  27.975  23.468   1.046
10472W        W82198  34.015  37.409  14.868
10473W        W82199  35.437  30.611   4.486
10474W        W82200  12.970   6.853   3.724
10475W        W82201  38.570  42.985  11.896
10476W        W82202   2.361  30.053   1.785
10477W        W82203   8.652  19.171   3.246
10478W        W82204   7.497  18.413  13.405
10479W        W82205  41.210   4.603   0.349
10480W        W82206   4.851   6.265  14.904
10481W        W82207  31.938   7.208  14.501
10482W        W82208  17.052  20.082   1.941
10483W        W82209  41.402   3.377  13.075
10484W        W82210  25.219  37.331   3.145
10485W        W82211  36.963  31.538   1.262
10486W        W82212  26.316   5.374   4.434
10487W        W82213   4.088   4.649   5.016
10488W        W82214  30.711   7.082  13.946
10489W        W82215  26.449  26.443  14.521
10490W        W82216  20.671  37.989  13.624
10491W        W82217  44.164  38.865  11.112
10492W        W82218  24.303  35.014   0.915
10493W        W82219  10.210  27.434   3.211
10494W        W82220   8.100   7.305  10.327
10495W        W82221  37.044   2.600  10.685
10496W        W82222  12.849  36.488  13.819
10497W        W82223   5.053   1.863  13.029
10498W        W82224  20.345   8.598   1.602
10499W        W82225  37.607  18.307   3.754
10500W        W82226   7.881  37.776  12.870
10501W        W82227   0.045  20.179  11.788
10502W        W82228  23.173  22.632   0.883
10503W        W82229   7.476   5.000   2.908
10504W        W82230   7.388  27.802   4.472
10505W        W82231  29.217  42.229   3.613
10506W        W82232  32.093   2.451   2.461
10507W        W82233  25.237   2.443   3.159
10508W        W82234   6.811  33.328  12.057
10509W        W82235  30.549  15.057  14.818
10510W        W82236  18.961   1.037  13.426
10511W        W82237  25.965  12.090   1.405
10512W        W82238  12.631  15.273   4.839
10513W        W82239  36.764  28.461   0.908
10514W        W82240  26.779  26.152   3.196
10515W        W82241  24.538   4.252   2.956
10516W        W82242  17.809  34.677   1.306
10517W        W82243  28.060  37.831   3.170
10518W        W82244   5.856  10.315   2.078
10519W        W82245   6.953  37.861  10.607
10520W        W82246  30.608   2.936  13.410
10521W        W82247  41.294   6.932   2.963
10522W        W82248  21.316  17.118   5.295
10523W        W82249   2.847   1.842  11.029
10524W        W82250  43.411  19.664  13.883
10525W        W82251  35.062   6.828   2.834
10526W        W82252  43.393   6.763   0.350
10527W        W82253  15.229  16.253   0.712
10528W        W82254  20.568  13.668   2.084
10529W        W82255   6.915  25.835   1.321
10530W        W82256   3.358   5.356  10.586
10531W        W82257  14.013   4.198  11.066
10532W        W82258  10.095  35.157   0.051
10533W        W82259  12.907  19.169   2.380
10534W        W82260  17.734  14.394   0.426
10535W        W82261  32.430  31.851  12.863
10536W        W82262  23.391   4.328   2.711
10537W        W82263  15.669   5.133  14.271
10538W        W82264  14.870  13.925   1.825
10539W        W82265  21.601  12.653  14.990
10540W        W82266  12.333   0.918   0.957
10541W        W82267   4.822  22.457  10.616
10542W        W82268  10.433  27.212  12.935
10543W        W82269   7.296  12.923  11.160
10544W        W82270  27.595  25.325  11.561
10545W        W82271   7.786  43.462   3.830
10546W        W82272  21.784  25.432  11.929
10547W        W82273  42.296  38.527  11.587
10548W        W82274  26.845  23.610   2.433
10549W        W82275  29.777  29.316   0.443
10550W        W82276   6.960  36.846  10.669
10551W        W82277   2.002  12.756  12.478
10552W        W82278   1.940  24.548   4.898
10553W        W82279  14.734   9.879   1.319
10554W        W82280   3.395  16.791  13.867
10555W        W82281  26.743  25.532  14.471
10556W        W82282  24.775  27.085   3.433
10557W        W82283   5.899  35.553  12.148
10558W        W82284  13.760   9.931   0.285
10559W        W82285  12.090  41.928   1.319
10560W        W82286   0.737   5.339  13.369
10561W        W82287  43.747  17.297   4.833
10562W        W82288   3.269  20.661  14.415
10563W        W82289  44.557  23.003  12.518
10564W        W82290  19.711  30.969  13.257
10565W        W82291  35.396  22.961  11.982
10566W        W82292   9.830  41.600   1.396
10567W        W82293  34.066  39.316  13.370
10568W        W82294  27.392  43.266  13.039
10569W        W82295  30.410  33.448  14.872
10570W        W82296  41.268  16.621   0.692
10571W        W82297   6.189   8.342  14.259
10572W        W82298   8.714  36.280  13.504
10573W        W82299  13.203  18.343   3.376
10574W        W82300   5.884  44.226  10.831
10575W        W82301   6.371   3.103  12.210
10576W        W82302  25.124   7.815   1.293
10577W        W82303  22.437   5.821   1.766
10578W        W82304  12.291   5.850   4.135
10579W        W82305   5.162   6.959  12.099
10580W        W82306  16.871  14.424  12.902
10581W        W82307   8.121  40.876  10.642
10582W        W82308  14.827  43.363   2.039
10583W        W82309  36.610  11.408   0.666
10584W        W82310  42.107  24.651  11.148
10585W        W82311  23.050  31.609   3.807
10586W        W82312  27.188   0.342   0.025
10587W        W82313  30.859   3.412   2.419
10588W        W82314  32.833  41.312  14.402
10589W        W82315   4.320  10.238   0.698
10590W        W82316   6.246  32.328  10.741
10591W        W82317  27.372   1.789   3.351
10592W        W82318   7.436  28.362   0.884
10593W        W82319  31.064  16.177  12.991
10594W        W82320   6.219  21.753   3.560
10595W        W82321  13.055  35.578   1.622
10596W        W82322   3.404  42.798  14.878
10597W        W82323  28.003  40.056   1.041
10598W        W82324  28.319  12.069  14.715
10599W        W82325  13.395  23.961  10.518
10600W        W82326  41.347  11.420   2.785
10601W        W82327  14.211  17.732   0.309
10602W        W82328   8.460  18.218   0.356
10603W        W82329   6.792  44.011   3.213
10604W        W82330  14.348  16.363  14.236
10605W        W82331  17.254   1.503  11.600
10606W        W82332  19.243  27.314   3.595
10607W        W82333  40.680  29.536   4.018
10608W        W82334   4.164  36.417   1.877
10609W        W82335  20.978  33.199  11.140
10610W        W82336   7.496  18.084   0.018
10611W        W82337  33.622  36.202  10.191
10612W        W82338  41.954  27.651   4.747
10613W        W82339  30.478  41.472  12.947
10614W        W82340  33.924  28.950   1.459
10615W        W82341  13.101  32.847   3.722
10616W        W82342  17.826  26.598   1.792
10617W        W82343   7.597  44.912  14.768
10618W        W82344  36.633   4.036   3.171
10619W        W82345  27.450  43.116  12.310
10620W        W82346  33.151   0.254  14.783
10621W        W82347   8.795  22.389  12.845
10622W        W82348  44.801  25.177  12.898
10623W        W82349   4.224  13.053  12.054
10624W        W82350   5.045   9.378   3.045
10625W        W82351  28.458  24.118   2.162
10626W        W82352  30.053  34.153  13.641
10627W        W82353   9.262   5.169  12.685
10628W        W82354  17.687  11.366   4.526
10629W        W82355  38.836  39.116   3.278
10630W        W82356  21.252  18.248  11.525
10631W        W82357  34.381  12.357   1.401
10632W        W82358  13.241  34.182   4.007
10633W        W82359   0.686  17.729   4.004
10634W        W82360  16.025  36.991   0.686
10635W        W82361   2.446  22.604  13.302
10636W        W82362  37.667  44.391   1.010
10637W        W82363  20.067  22.234  12.470
10638W        W82364  41.347  16.628  13.334
10639W        W82365   6.226   0.128  10.318
10640W        W82366  26.183  29.392   4.141
10641W        W82367   1.679  38.578  11.850
10642W        W82368  38.472   1.853   2.845
10643W        W82369   7.212  24.268   4.975
10644W        W82370  41.412  24.036  12.119
10645W        W82371  39.404  13.745  10.620
10646W        W82372  26.235  31.609  12.727
10647W        W82373  42.882  36.879   2.198
10648W        W82374   7.194  19.712  10.606
10649W        W82375   8.807  12.225   4.635
10650W        W82376  25.786  32.644  14.843
10651W        W82377  19.744  37.089   1.395
10652W        W82378  30.539  29.043   1.175
10653W        W82379  19.812  36.338  13.429
10654W        W82380  38.375  18.048  13.090
10655W        W82381  16.920  12.546  11.150
10656W        W82382  34.553  24.278  10.716
10657W        W82383   5.725  40.075   1.617
10658W        W82384   2.456   5.770  12.953
10659W        W82385  37.986   2.846   3.121
10660W        W82386  22.066   5.711  14.244
10661W        W82387  27.138   2.831  14.471
10662W        W82388  41.983  16.026   2.945
10663W        W82389  10.285  35.392  11.119
10664W        W82390   8.808  32.735  10.711
10665W        W82391  23.306  10.582  11.109
10666W        W82392   2.530   4.276  12.126
10667W        W82393  24.531   6.888   1.789
10668W        W82394  19.603  12.544   3.558
10669W        W82395  16.355  38.076  12.931
10670W        W82396   7.891   3.776   2.890
10671W        W82397   2.694  32.240  12.545
10672W        W82398   7.470  41.839   2.257
10673W        W82399  29.805   5.862  11.277
10674W        W82400  32.007   5.646   0.071
10675W        W82401  12.125   9.265   2.626
10676W        W82402  16.730   0.286   3.257
10677W        W82403   2.346  35.616   2.300
10678W        W82404  39.890  27.087   2.042
10679W        W82405   0.935  23.238  14.014
10680W        W82406  38.081  23.616   0.398
10681W        W82407   4.393  36.100   5.052
10682W        W82408  17.694  10.757  12.110
10683W        W82409  26.027  38.917   2.234
10684W        W82410   2.254  40.532   0.098
10685W        W82411  18.618  32.023  12.246
10686W        W82412  11.199  17.595   4.125
10687W        W82413   6.732  17.680   4.013
10688W        W82414  26.374  22.092   0.826
10689W        W82415  10.831  39.948  14.456
10690W        W82416  40.046   7.143   5.005
10691W        W82417   9.251   0.980   1.294
10692W        W82418  33.203  30.707   1.237
10693W        W82419  18.535  20.264  13.468
10694W        W82420   1.747  11.815  14.916
10695W        W82421  11.189   7.651  11.806
10696W        W82422  15.258   3.405   1.347
10697W        W82423  26.999  30.709  12.755
10698W        W82424  41.337   3.896  10.885
10699W        W82425   3.898   9.605   1.830
10700W        W82426  28.466  15.214   0.895
10701W        W82427  23.922  27.231  13.474
10702W        W82428  34.128  23.638   0.805
10703W        W82429   5.336  23.860   0.977
10704W        W82430  27.447  23.209   2.147
10705W        W82431  19.116  37.777   1.698
10706W        W82432  30.575  40.528   1.594
10707W        W82433  24.637  17.792  12.813
10708W        W82434   3.239  43.454  14.131
10709W        W82435  17.091  24.474  13.323
10710W        W82436  39.883  20.322  14.513
10711W        W82437  18.060   3.657   4.560
10712W        W82438   3.057  10.835  13.962
10713W        W82439  11.621   1.800   4.628
10714W        W82440  35.810  10.872   3.869
10715W        W82441  33.531  31.168  12.356
10716W        W82442  32.712  30.027  11.526
10717W        W82443  12.789   4.655   0.901
10718W        W82444  40.574   6.802  14.432
10719W        W82445  25.253  20.235  13.431
10720W        W82446  26.236  17.749   2.799
10721W        W82447  36.911  17.675   2.072
10722W        W82448  37.635   1.264  13.331
10723W        W82449  27.568  21.735   3.555
10724W        W82450  23.639  11.199   0.086
10725W        W82451  30.902   9.318   4.336
10726W        W82452  17.031  15.706  12.858
10727W        W82453  35.280  28.501  12.559
10728W        W82454  24.729   4.647   3.272
10729W        W82455  23.179  38.562   2.247
10730W        W82456  24.124  28.696   0.293
10731W        W82457  41.518  26.417  10.571
10732W        W82458  28.175  41.564  13.981
10733W        W82459  32.400  27.453   1.325
10734W        W82460   4.442  15.182   4.298
10735W        W82461  33.371  40.976   1.045
10736W        W82462   6.193  31.201   4.694
10737W        W82463   6.487  39.499  14.781
10738W        W82464  44.692  17.268   4.514
10739W        W82465  13.196  18.352  13.498
10740W        W82466  15.120  34.353  10.939
10741W        W82467  11.420  18.930   1.423
10742W        W82468  23.519  25.115   4.198
10743W        W82469   0.432  41.358  13.241
10744W        W82470   9.785   8.665   4.138
10745W        W82471  18.849  27.209   4.088
10746W        W82472  30.825  25.627   2.256
10747W        W82473  17.874  21.124   4.040
10748W        W82474   7.869  10.386  11.582
10749W        W82475  44.112   4.200  13.486
10750W        W82476  33.958  12.084  14.758
10751W        W82477  14.702   9.840   0.374
10752W        W82478  37.470  31.545  12.054
10753W        W82479  23.152  35.585   2.054
10754W        W82480  25.897  25.281  13.315
10755W        W82481  35.609  30.022   1.559
10756W        W82482  30.722  24.051   3.643
10757W        W82483  34.206  27.939   3.009
10758W        W82484   5.216   9.407  11.521
10759W        W82485   8.440   2.687  13.472
10760W        W82486  35.758   1.425  11.918
10761W        W82487   9.913  23.758  11.933
10762W        W82488  27.071  14.250  10.745
10763W        W82489   6.174   6.332  14.137
10764W        W82490  25.602  21.848  10.727
10765W        W82491  28.772   5.219  14.855
10766W        W82492  30.942   9.625   3.395
10767W        W82493  26.777  14.821  12.567
10768W        W82494  18.374  21.230   4.124
10769W        W82495  30.877  19.828   4.073
10770W        W82496   3.182  35.631   1.196
10771W        W82497   2.724  13.333   3.160
10772W        W82498  43.283  39.389  13.074
10773W        W82499   0.400  28.066  13.851
10774W        W82500  32.592  35.356   0.438
10775W        W82501  34.869   8.411  10.932
10776W        W82502  42.212   0.017   2.600
10777W        W82503   5.331  44.223  12.457
10778W        W82504   8.971   8.716  11.543
10779W        W82505   1.924  31.586  12.402
10780W        W82506  12.407  30.961  13.995
10781W        W82507  33.445  29.230   4.643
10782W        W82508  30.880  26.707   5.091
10783W        W82509  22.997  23.464  12.085
10784W        W82510  27.447  29.097  13.966
10785W        W82511  17.323   4.392  12.875
10786W        W82512  42.014  33.278  12.130
10787W        W82513   2.328  15.761   4.590
10788W        W82514  33.725  28.193  13.086
10789W        W82515  29.957   1.064   1.870
10790W        W82516  14.280   4.319  14.796
10791W        W82517  35.383   9.329  14.878
10792W        W82518   1.446  27.079   1.298
10793W        W82519  20.260  41.378   3.077
10794W        W82520  35.906  44.234   2.812
10795W        W82521  37.149  22.097   1.499
10796W        W82522  33.968  14.746  14.385
10797W        W82523  29.829  33.476  11.547
10798W        W82524   1.408  26.002   1.281
10799W        W82525   4.401  44.808   1.371
10800W        W82526  13.366  43.303   3.703
10801W        W82527  17.772  19.544  11.536
10802W        W82528   2.767  30.100   0.377
10803W        W82529  33.882   1.909   3.254
10804W        W82530  16.245  34.586  14.008
10805W        W82531   3.689   3.827   2.377
10806W        W82532  22.960   9.842  13.641
10807W        W82533   7.136   1.334   0.845
10808W        W82534  34.167  28.093   1.387
10809W        W82535  24.757  35.096   2.833
10810W        W82536  34.166  25.607  12.477
10811W        W82537  11.847   4.838  10.162
10812W        W82538  21.262  18.099   4.680
10813W        W82539  17.164  28.649  11.772
10814W        W82540  13.296  18.275   3.911
10815W        W82541  25.690  12.160   4.569
10816W        W82542   8.728  29.999  13.816
10817W        W82543  10.962  15.802   2.156
10818W        W82544   2.956   4.900   3.258
10819W        W82545  11.988  24.944   0.151
10820W        W82546  14.627  23.534  10.673
10821W        W82547   8.276  20.880  12.959
10822W        W82548  36.221  40.479   3.621
10823W        W82549  14.824  14.326   2.189
10824W        W82550   0.440  30.434   0.921
10825W        W82551  37.855  30.089   0.856
10826W        W82552  30.203  27.086   4.582
10827W        W82553   2.316  13.498   2.394
10828W        W82554  10.878   8.703  13.054
10829W        W82555  16.558  28.531  13.482
10830W        W82556  38.114  11.293  11.842
10831W        W82557  30.005  34.685   3.334
10832W        W82558  35.107  36.118   1.884
10833W        W82559  29.967  36.795  11.931
10834W        W82560  26.978   1.986   1.346
10835W        W82561  11.077  17.858  14.348
10836W        W82562  22.828  31.251  13.385
10837W        W82563  15.118  26.313   0.250
10838W        W82564  13.610  25.626  14.756
10839W        W82565  31.891  37.029  12.959
10840W        W82566  14.093  20.977  14.639
10841W        W82567   0.303  39.991   4.064
10842W        W82568  12.979  22.990  10.928
10843W        W82569  27.517  15.005  12.883
10844W        W82570  10.391  30.323   1.738
10845W        W82571  39.886  43.555   1.965
10846W        W82572   3.496   2.911  12.974
10847W        W82573  39.057   8.749   4.533
10848W        W82574  40.997  26.143  13.785
10849W        W82575  16.609  31.207  13.844
10850W        W82576  33.751   9.708  14.333
10851W        W82577  32.241  24.640  10.215
10852W        W82578  44.343   0.991  13.980
10853W        W82579  38.837  30.650  10.754
10854W        W82580   0.253  34.634   3.063
10855W        W82581  28.888   1.223  11.085
10856W        W82582   4.654  10.242   1.210
10857W        W82583  18.654   6.274  14.467
10858W        W82584  42.700  22.576   0.289
10859W        W82585  14.184  28.235   2.334
10860W        W82586  18.516  23.670  13.360
10861W        W82587  43.462  33.729   2.363
10862W        W82588   6.661   2.133  11.877
10863W        W82589   0.873   1.836  11.232
10864W        W82590   9.190   0.648   2.301
10865W        W82591  28.509  41.235  14.822
10866W        W82592  32.475  37.099   4.851
10867W        W82593  11.348  32.826   3.805
10868W        W82594  38.560  13.662  14.831
10869W        W82595  33.334  42.945   0.346
10870W        W82596  30.733  18.969  13.970
10871W        W82597  39.559  18.113  14.772
10872W        W82598  10.340   6.715   2.223
10873W        W82599  23.643  42.508   4.041
10874W        W82600  17.712  13.801  12.998
10875W        W82601  23.103  25.200  10.163
10876W        W82602  12.746  40.099   3.553
10877W        W82603  33.434  26.898  10.723
10878W        W82604  15.578  43.798   4.883
10879W        W82605  22.079  36.103  13.874
10880W        W82606  20.477  14.869  11.567
10881W        W82607  21.123  17.174  13.963
10882W        W82608  29.615  42.852  10.937
10883W        W82609  18.306  38.133   4.011
10884W        W82610  17.583  14.766  10.687
10885W        W82611  29.929  13.259   2.423
10886W        W82612   1.867  25.521  12.339
10887W        W82613  21.133  21.038  12.011
10888W        W82614  25.083  22.429   3.129
10889W        W82615   9.166   2.859   4.568
10890W        W82616  32.995  11.824   4.779
10891W        W82617   8.363  44.227  12.341
10892W        W82618  28.530  29.189  13.304
10893W        W82619  29.525  29.663  12.393
10894W        W82620  41.891  37.972   1.460
10895W        W82621  13.935   4.332  12.992
10896W        W82622  22.208  12.685   0.914
10897W        W82623  32.412  10.301  13.473
10898W        W82624  19.261  37.602   2.274
10899W        W82625  22.104  30.874   2.718
10900W        W82626  34.035  36.322  11.982
10901W        W82627  12.619  21.586   0.392
10902W        W82628  41.966   4.293   3.326
10903W        W82629  18.549   1.409   0.621
10904W        W82630  41.381  40.796  14.987
10905W        W82631   9.891  14.215   3.143
10906W        W82632  20.323  18.214   0.320
10907W        W82633   6.676  18.708  12.372
10908W        W82634  24.203   5.621   1.614
10909W        W82635   9.728  38.547  14.511
10910W        W82636  17.869  26.392   1.258
10911W        W82637  23.082  24.300  14.919
10912W        W82638   1.771   9.688  14.177
10913W        W82639  14.198  42.261  11.718
10914W        W82640  24.394  32.662   2.713
10915W        W82641   0.185  41.722  11.660
10916W        W82642  41.368  34.053   1.302
10917W        W82643  43.907  16.360  10.547
10918W        W82644   7.910  28.385   4.096
10919W        W82645   7.350  28.370   3.721
10920W        W82646   7.763  20.770  14.016
10921W        W82647  24.930  19.246  14.793
10922W        W82648  22.378  43.793   1.636
10923W        W82649  38.711  26.476  13.364
10924W        W82650  27.930   4.257  13.398
10925W        W82651  32.066  12.355  14.447
10926W        W82652  24.755  13.261  13.064
10927W        W82653   1.922   7.584   2.239
10928W        W82654  14.700  20.241   2.713
10929W        W82655  11.197   5.213   0.331
10930W        W82656   0.325  23.292  13.623
10931W        W82657  24.020  26.135   4.756
10932W        W82658  44.490   0.462  10.406
10933W        W82659  25.682  32.012   3.257
10934W        W82660  11.436  17.517   3.686
10935W        W82661   0.518  15.617  11.614
10936W        W82662  38.812   0.453  14.272
10937W        W82663  24.573  12.296  11.232
10938W        W82664  36.550  14.630  14.863
10939W        W82665  36.963  25.772   0.276
10940W        W82666  19.574  16.784   0.824
10941W        W82667   7.724  31.184   2.934
10942W        W82668   8.212   9.328  13.140
10943W        W82669  25.030   1.245   3.797
10944W        W82670  44.047  21.257  10.080
10945W        W82671  40.380  35.460  12.144
10946W        W82672  18.683  23.942   4.112
10947W        W82673  30.346  16.833   3.223
10948W        W82674  24.862   8.238   2.800
10949W        W82675  40.528  22.507   4.941
10950W        W82676  37.882  26.459   2.843
10951W        W82677  18.736  12.887   3.177
10952W        W82678  38.611  42.832   1.380
10953W        W82679  25.474  25.091  10.816
10954W        W82680  10.856   3.389  11.149
10955W        W82681  20.078   6.270   4.133
10956W        W82682   3.138  16.105  13.530
10957W        W82683  25.056   3.815   1.429
10958W        W82684  41.126  38.591   1.785
10959W        W82685  24.306  13.936   5.198
10960W        W82686  20.595   5.440  14.879
10961W        W82687  37.080   7.275  10.453
10962W        W82688  18.759  28.853  11.568
10963W        W82689  10.029   0.449  11.166
10964W        W82690  35.789  28.442  14.244
10965W        W82691  33.921  32.860   4.131
10966W        W82692   8.874  15.352  11.603
10967W        W82693  28.765   9.312   3.279
10968W        W82694  34.403   5.827   2.465
10969W        W82695  12.267  30.263   0.964
10970W        W82696  33.233  11.385  11.709
10971W        W82697  30.944  32.179   2.742
10972W        W82698   4.679  28.687   2.961
10973W        W82699  44.277  30.849  14.952
10974W        W82700  19.176   9.133   1.236
10975W        W82701  18.167   5.352  11.934
10976W        W82702  24.545  12.618  10.599
10977W        W82703  25.156  27.430   0.513
10978W        W82704  17.322  38.331   4.119
10979W        W82705  21.084  32.676   3.954
10980W        W82706  40.742   8.270   0.495
10981W        W82707  33.296  15.752  14.977
10982W        W82708  32.914   8.237  10.941
10983W        W82709   4.211  11.166   0.389
10984W        W82710  24.602   8.319   3.696
10985W        W82711   6.658  15.305   0.228
10986W        W82712  18.585  34.217   3.153
10987W        W82713  26.474  42.536  11.212
10988W        W82714   0.274  24.692   2.872
10989W        W82715   9.716  42.821  13.013
10990W        W82716  32.170  44.427  13.532
10991W        W82717  22.955  16.576  14.375
10992W        W82718  30.511  26.561   3.302
10993W        W82719  12.184  43.441   2.453
10994W        W82720  12.737   3.315  12.722
10995W        W82721  10.644  16.250  14.918
10996W        W82722  20.569  39.909  13.568
10997W        W82723   1.351  41.942   4.225
10998W        W82724   9.164   2.429   3.734
10999W        W82725  20.970  39.845   2.352
11000W        W82726  20.056   5.380  14.772
11001W        W82727  26.968   3.350  11.386
11002W        W82728  42.397   6.155  12.536
11003W        W82729  42.434  11.301   0.890
11004W        W82730  35.448  38.442   3.752
11005W        W82731  18.074  26.966  11.608
11006W        W82732  22.936  15.721  10.782
11007W        W82733  42.913  43.505   0.398
11008W        W82734   8.902   9.195   2.755
11009W        W82735   4.889  31.052   1.361
11010W        W82736  22.571  13.179   3.185
11011W        W82737  27.345  36.981  12.920
11012W        W82738  28.790  37.488   4.202
11013W        W82739  30.197  23.707  13.911
11014W        W82740  43.428  14.853   0.300
11015W        W82741  35.539  29.530   1.745
11016W        W82742   4.340  23.132   0.804
11017W        W82743  12.528  39.653  13.800
11018W        W82744  40.160  23.470  12.915
11019W        W82745  20.620  18.508   4.560
11020W        W82746  39.812  40.571   3.104
11021W        W82747  24.393   9.913   2.631
11022W        W82748   6.660  39.387   3.198
11023W        W82749   2.623   5.700   0.641
11024W        W82750  11.316   0.962  12.927
11025W        W82751  43.523  35.425   3.873
11026W        W82752  24.870  36.390  14.912
11027W        W82753  14.086  35.847  12.382
11028W        W82754   4.470  42.084  10.940
11029W        W82755  20.196   8.062   2.401
11030W        W82756  22.612   0.708  14.717
11031W        W82757  26.983  33.663   1.761
11032W        W82758  19.177  20.254  13.961
11033W        W82759  31.373  35.963  12.612
11034W        W82760  41.207  27.571  13.197
11035W        W82761  40.214   0.721  11.622
11036W        W82762   2.790  39.340   2.405
11037W        W82763  17.215  40.781  11.186
11038W        W82764  21.316  20.637   4.236
11039W        W82765   9.424  19.645   3.446
11040W        W82766  33.582  38.016   3.590
11041W        W82767  18.830  38.340   2.748
11042W        W82768  16.300  28.707  10.880
11043W        W82769   7.739   4.826  11.161
11044W        W82770  21.778  43.979  14.581
11045W        W82771  27.131  14.841   2.305
11046W        W82772  12.066   6.483   1.825
11047W        W82773  25.722   6.484  14.911
11048W        W82774   7.350  34.987  11.505
11049W        W82775  41.381  29.982   1.526
11050W        W82776  10.640  42.783  14.001
11051W        W82777   4.195  41.530   2.394
11052W        W82778  34.896  36.472   4.256
11053W        W82779  43.486   2.808  12.174
11054W        W82780   1.342  20.190   2.250
11055W        W82781   0.612   4.451  14.318
11056W        W82782   5.383  31.157   2.846
11057W        W82783  37.545   1.310   1.776
11058W        W82784  37.025  13.196   3.707
11059W        W82785  38.944  35.119  10.403
11060W        W82786  23.020  16.349  13.074
11061W        W82787  22.486  15.403   9.753
11062W        W82788  23.528   3.865  11.687
11063W        W82789  39.285  44.947   3.521
11064W        W82790  25.464   1.548  13.914
11065W        W82791  24.289  26.492  12.902
11066W        W82792   7.771  30.626   0.974
11067W        W82793  27.384  34.592  14.890
11068W        W82794  22.103  28.697  10.531
11069W        W82795  10.383   4.320   3.735
11070W        W82796   4.048  29.035  13.527
11071W        W82797  27.235  34.814   1.141
11072W        W82798  10.200  44.334   4.172
11073W        W82799  41.839   6.276   3.263
11074W        W82800  14.571  44.958  10.508
11075W        W82801  34.577  10.285   5.060
11076W        W82802  17.580   1.293   1.370
11077W        W82803  38.144  41.111   4.342
11078W        W82804  23.522  28.497  11.394
11079W        W82805  12.408  10.675   4.210
11080W        W82806  22.130   4.247  11.101
11081W        W82807  43.712  19.242  12.940
11082W        W82808  38.839  15.138   2.572
11083W        W82809  37.309  40.667   4.137
11084W        W82810  18.491  15.694   2.674
11085W        W82811  36.928  28.638   0.427
11086W        W82812   4.368   2.801  12.654
11087W        W82813  13.892   7.497   4.715
11088W        W82814  14.411  36.857   4.575
11089W        W82815  36.000  12.164  11.019
11090W        W82816  31.517   4.745   4.216
11091W        W82817  11.695  40.932   4.470
11092W        W82818  15.703  23.238  10.900
11093W        W82819   3.771  16.605   2.362
11094W        W82820  21.247  35.650  12.004
11095W        W82821  10.264  43.892  14.866
11096W        W82822  26.956   8.437   1.341
11097W        W82823  14.597   8.860   3.690
11098W        W82824  38.463   4.938   3.678
11099W        W82825  16.709  24.570   1.473
11100W        W82826  34.519   3.320  14.615
11101W        W82827  41.604  24.601  11.192
11102W        W82828  13.590  13.481   4.914
11103W        W82829  12.170  13.093  13.589
11104W        W82830  33.078  38.559   2.271
11105W        W82831  40.400  22.988  12.976
11106W        W82832   2.041   5.135  11.878
11107W        W82833  34.897  23.620  13.321
11108W        W82834  31.346   3.495  12.601
11109W        W82835  33.064   3.382  14.598
11110W        W82836   1.253  44.938   2.738
11111W        W82837  13.790   0.027  10.968
11112W        W82838  12.722  13.771   1.387
11113W        W82839  17.503  41.459   1.768
11114W        W82840  26.530   2.236   1.426
11115W        W82841  18.566  33.730  11.965
11116W        W82842   1.111  24.616  13.150
11117W        W82843  14.918   3.040   2.842
11118W        W82844   0.253  31.780   0.778
11119W        W82845  22.455  12.729   2.405
11120W        W82846  10.224   5.678   0.326
11121W        W82847  36.101  30.107  12.855
11122W        W82848   1.423  15.716   4.668
11123W        W82849  43.086  12.044  14.807
11124W        W82850   4.958   4.519  14.114
11125W        W82851   4.377  44.491   2.368
11126W        W82852  37.676  28.093  13.321
11127W        W82853  12.783  36.081   1.653
11128W        W82854  18.717  23.032  14.593
11129W        W82855  16.826   7.229   1.213
11130W        W82856  21.115  19.722  13.417
11131W        W82857   6.905  43.296  12.891
11132W        W82858  32.879   0.902  12.513
11133W        W82859   9.112  33.605  11.983
11134W        W82860   7.690  20.136   4.547
11135W        W82861   5.246  30.595  11.037
11136W        W82862  40.635  29.642  11.594
11137W        W82863  30.983  23.173  10.742
11138W        W82864  44.958  30.110  13.538
11139W        W82865  27.135  33.999  10.411
11140W        W82866  31.624  33.538   1.378
11141W        W82867  13.267  19.732  13.502
11142W        W82868   7.715  18.540  12.916
11143W        W82869  33.607  26.076   4.795
11144W        W82870  19.505   9.534   0.419
11145W        W82871   2.302  17.640   3.075
11146W        W82872   6.467  13.727   3.683
11147W        W82873  24.791  39.913  12.391
11148W        W82874  14.672   5.492   4.500
11149W        W82875  25.042   4.004  11.537
11150W        W82876   8.925  11.789   2.483
11151W        W82877  21.649  15.138  13.891
11152W        W82878  28.060  32.694  14.963
11153W        W82879  14.109  31.001   3.232
11154W        W82880  38.921  16.764   2.729
11155W        W82881   2.696  18.811   1.734
11156W        W82882  39.933   6.463   4.128
11157W        W82883   8.863  39.356  13.517
11158W        W82884  24.108  22.875  14.733
11159W        W82885  31.656  43.382  13.504
11160W        W82886  10.540  23.096  11.050
11161W        W82887  43.108  40.497  12.398
11162W        W82888  31.690  33.853  13.503
11163W        W82889  40.416  25.503   2.186
11164W        W82890   4.030  15.429  12.013
11165W        W82891  18.126  29.346  13.382
11166W        W82892  39.662  11.801   3.833
11167W        W82893  35.523   8.104  13.524
11168W        W82894  20.006  27.443  14.887
11169W        W82895   1.240  41.345   3.492
11170W        W82896   7.326  36.020   0.748
11171W        W82897  24.647  41.277  12.019
11172W        W82898   8.037  13.246  14.820
11173W        W82899  19.446   6.745   0.491
11174W        W82900   6.571   3.664   0.354
11175W        W82901  36.840  34.917   4.329
11176W        W82902  10.590  40.771  12.488
11177W        W82903   3.456   4.750   1.334
11178W        W82904  39.959  10.697   4.635
11179W        W82905   6.346  39.635  13.575
11180W        W82906   7.808   7.456   2.697
11181W        W82907  25.908  24.930  14.469
11182W        W82908  19.054   3.753   2.133
11183W        W82909  28.907  35.456   0.307
11184W        W82910  40.962  36.694   4.460
11185W        W82911  30.447  39.476  11.197
11186W        W82912  26.490  16.512  14.350
11187W        W82913   7.647   0.696  11.105
11188W        W82914  11.012  19.506  13.839
11189W        W82915  20.115  21.451  12.100
11190W        W82916   7.360  16.706  14.691
11191W        W82917  23.233  17.819  12.536
11192W        W82918  32.708   3.697   4.769
11193W        W82919   7.004  24.131  14.823
11194W        W82920   2.286  28.426  11.933
11195W        W82921  39.038   1.057   0.952
11196W        W82922  41.829  11.617   3.173
11197W        W82923   2.058   9.381   4.166
11198W        W82924  37.415  27.150  12.138
11199W        W82925   6.902  11.526  12.834
11200W        W82926  32.670  41.313   4.056
11201W        W82927  43.560  11.723   0.679
11202W        W82928   5.411  13.210   0.846
11203W        W82929  10.285  33.985   3.877
11204W        W82930   4.826  27.971   5.040
11205W        W82931  13.594  24.780  11.993
11206W        W82932  10.763  23.075  13.745
11207W        W82933  28.602  14.248  10.471
11208W        W82934  31.821  33.862   2.258
11209W        W82935   1.191  44.216  13.559
11210W        W82936  36.901  31.682  10.782
11211W        W82937  33.548  35.276   2.750
11212W        W82938  16.315  30.521   1.448
11213W        W82939   1.594  33.434   4.499
11214W        W82940  18.569  37.424   4.077
11215W        W82941  21.478  15.805   3.783
11216W        W82942  30.624  22.509  13.372
11217W        W82943  17.112   7.931   2.820
11218W        W82944  22.951  27.026  13.647
11219W        W82945   5.603  38.401   0.407
11220W        W82946  25.085  43.601   2.938
11221W        W82947  35.128   3.368  11.469
11222W        W82948  23.104  14.238  11.175
11223W        W82949  19.233  36.457   2.812
11224W        W82950  44.999  33.621  10.302
11225W        W82951  22.956   1.442  12.879
11226W        W82952  24.310  26.717   9.568
11227W        W82953  19.309  26.630  12.896
11228W        W82954  14.119   1.032  12.485
11229W        W82955   2.697  44.431   2.295
11230W        W82956  32.699   2.844   0.260
11231W        W82957  14.246  14.122  13.836
11232W        W82958  28.004  26.521  12.318
11233W        W82959   5.131  39.919   3.272
11234W        W82960   5.495  14.749  13.544
11235W        W82961  15.075  42.763  14.765
11236W        W82962  17.000  16.271   2.173
11237W        W82963  27.599  25.013  13.808
11238W        W82964  23.077  25.569  12.885
11239W        W82965  35.982  16.923   3.245
11240W        W82966  21.738  30.725  14.797
11241W        W82967  20.952  19.964   1.348
11242W        W82968  26.138  34.698  13.452
11243W        W82969  10.756  25.660   1.874
11244W        W82970  43.217   6.231   1.430
11245W        W82971  35.118  15.269  11.188
11246W        W82972  30.942  29.875  12.423
11247W        W82973  42.868  43.864  10.294
11248W        W82974  10.753  24.952  11.052
11249W        W82975  32.539   1.155  11.715
11250W        W82976   7.847  15.812  11.662
11251W        W82977  15.589  44.526  13.454
11252W        W82978  25.127  32.910  11.086
11253W        W82979  22.617  29.934  14.466
11254W        W82980  23.309   6.738   0.745
11255W        W82981  44.178  26.010   4.626
11256W        W82982  41.900  31.006   3.500
11257W        W82983   9.645   3.955  13.417
11258W        W82984  39.134  29.856  13.804
11259W        W82985  36.913  24.453   0.665
11260W        W82986  25.123  40.019  13.759
11261W        W82987  33.458  34.260   2.560
11262W        W82988  13.097  30.868   0.278
11263W        W82989  15.668   6.977   5.341
11264W        W82990  12.771  24.967   2.362
11265W        W82991   4.834   1.719   0.473
11266W        W82992  38.856  33.592  11.389
11267W        W82993  42.026  34.362   4.705
11268W        W82994   6.964  24.509   4.579
11269W        W82995  14.412  28.106  12.552
11270W        W82996  25.239  13.770  14.361
11271W        W82997   9.130  35.938   3.194
11272W        W82998  23.146  22.807   2.327
11273W        W82999   7.181  21.211   5.053
11274W        W83000  16.989  34.401   0.195
11275W        W83001   1.751  10.915   1.758
11276W        W83002  23.031   6.147  14.324
11277W        W83003  28.086  26.142  10.222
11278W        W83004  16.042  28.066   0.766
11279W        W83005  17.210  24.098  14.386
11280W        W83006  44.711   2.884  11.382
11281W        W83007  21.026  39.287   3.209
11282W        W83008  40.855  11.171   2.766
11283W        W83009  20.084  27.695   3.895
11284W        W83010  28.395  11.546  13.432
11285W        W83011   0.846  10.397  14.912
11286W        W83012   3.307  36.972   4.749
11287W        W83013  10.097  43.632   1.312
11288W        W83014  38.946  30.606   0.407
11289W        W83015  14.018  18.190   1.169
11290W        W83016   8.382   9.207   2.830
11291W        W83017  41.257  30.176  11.829
11292W        W83018  12.173   0.213  14.481
11293W        W83019   4.208  43.484  14.987
11294W        W83020  15.586  42.437  11.467
11295W        W83021   7.496   0.257  12.480
11296W        W83022   7.368  31.114   0.971
11297W        W83023   9.718   9.231   1.708
11298W        W83024  30.171  16.022   0.618
11299W        W83025  22.132   0.751   4.129
11300W        W83026  36.676  18.562  12.476
11301W        W83027  15.854  35.517  12.487
11302W        W83028  25.681  26.751  14.421
11303W        W83029  43.257   3.463  14.359
11304W        W83030  37.317  40.942  12.140
11305W        W83031  10.339  19.111  14.020
11306W        W83032  42.386  13.409   0.978
11307W        W83033  19.880   5.699   2.769
11308W        W83034  35.455  19.420  14.819
11309W        W83035  33.995  38.648   2.309
11310W        W83036  31.841  10.273  11.915
11311W        W83037  15.825  11.841   3.553
11312W        W83038   7.642  13.563  12.467
11313W        W83039   5.275   6.013  11.757
11314W        W83040  22.202  38.958  14.994
11315W        W83041  37.024   0.386   4.363
11316W        W83042   9.154   0.491   4.179
11317W        W83043  37.964  44.514   3.170
11318W        W83044   9.282  10.206  10.577
11319W        W83045   8.017  15.063   0.324
11320W        W83046  41.711   6.332   9.839
11321W        W83047  39.464  26.716  13.795
11322W        W83048  14.249  29.462  13.817
11323W        W83049  11.773  18.296  10.318
11324W        W83050   2.326  32.138  11.875
11325W        W83051  18.299   2.252   0.961
11326W        W83052  33.167  26.097  14.292
11327W        W83053  38.054  40.699  14.369
11328W        W83054  35.616  11.094  13.430
11329W        W83055   8.344   2.229  10.747
11330W        W83056  25.398  10.164   0.673
11331W        W83057  35.645   8.284   0.846
11332W        W83058  38.450  41.697  12.577
11333W        W83059  24.112  29.948  13.019
11334W        W83060  17.765  31.985  13.791
11335W        W83061   9.073   4.316  12.566
11336W        W83062  39.465  11.669   1.473
11337W        W83063  25.528  15.303   1.695
11338W        W83064  24.135  39.548   4.866
11339W        W83065  23.737  26.686  13.296
11340W        W83066  30.925  40.065   0.304
11341W        W83067  27.248   9.458   3.164
11342W        W83068   5.764  28.707  14.842
11343W        W83069   1.601  41.134  14.916
11344W        W83070  25.707  40.470   3.268
11345W        W83071  18.217   1.422  11.053
11346W        W83072  39.548   8.171   4.567
11347W        W83073  28.562  30.612   2.640
11348W        W83074  43.829  35.340   0.917
11349W        W83075  30.789  43.357   1.980
11350W        W83076   9.785   0.568   1.867
11351W        W83077  37.406  19.838  11.413
11352W        W83078   4.397   6.300   4.599
11353W        W83079   8.695  19.827   4.163
11354W        W83080  28.934  18.082   1.288
11355W        W83081   0.891  27.994  12.940
11356W        W83082   8.962  30.455  13.976
11357W        W83083  38.763  34.670   1.227
11358W        W83084   8.368  11.577   4.672
11359W        W83085  27.089  35.595  13.763
11360W        W83086  39.982   1.725   1.367
11361W        W83087  31.171  18.675   1.272
11362W        W83088  28.896   7.574   0.010
11363W        W83089  29.382   1.450   0.290
11364W        W83090  37.377  11.738   4.082
11365W        W83091  33.581  20.895   4.015
11366W        W83092  43.640  31.964   3.310
11367W        W83093  25.007  19.310   2.263
11368W        W83094  21.628  21.306  14.482
11369W        W83095  12.920  18.566   0.658
11370W        W83096   0.523  30.909   3.070
11371W        W83097  24.259  17.243  11.146
11372W        W83098  41.224  42.722  13.441
11373W        W83099   0.009  44.737   2.031
11374W        W83100  34.592  25.170   2.026
11375W        W83101  13.860  38.780   3.826
11376W        W83102  35.321  19.605   2.425
11377W        W83103  32.511   8.397   5.227
11378W        W83104  13.271  33.862  14.504
11379W        W83105  38.041   6.176  12.440
11380W        W83106  35.974  39.341  13.567
11381W        W83107  31.548  44.295  13.780
11382W        W83108  38.373  17.160   1.297
11383W        W83109   3.257   6.805  14.954
11384W        W83110  16.695  40.687   4.891
11385W        W83111  41.710  37.338   4.084
11386W        W83112  39.480  10.254   2.198
11387W        W83113  16.406  12.585  12.479
11388W        W83114   2.505  21.017   1.263
11389W        W83115  20.023   5.875  11.589
11390W        W83116  17.265  43.933  14.488
11391W        W83117   9.836  10.865  14.892
11392W        W83118  38.703   3.374  12.494
11393W        W83119  42.448  34.137   0.449
11394W        W83120  43.537  17.619  14.320
11395W        W83121   0.773  11.394  11.633
11396W        W83122  17.473  14.601  14.589
11397W        W83123  15.801  25.110  12.561
11398W        W83124  40.049  23.587  11.392
11399W        W83125   8.776  29.119  12.065
11400W        W83126  23.661  37.585   2.464
11401W        W83127  30.144  34.552  13.292
11402W        W83128  15.543  34.482  12.471
11403W        W83129  37.450  35.915  11.601
11404W        W83130   3.354  36.039  10.491
11405W        W83131  34.883  31.822  13.556
11406W        W83132   3.748  16.192  14.919
11407W        W83133  31.160  11.618  14.927
11408W        W83134   5.400  18.757   4.595
11409W        W83135  25.552  41.456   2.142
11410W        W83136  15.824  44.019   3.705
11411W        W83137  43.266   0.301  11.185
11412W        W83138  44.253  26.559  13.174
11413W        W83139  19.139  14.151  11.308
11414W        W83140   4.810  32.174  13.868
11415W        W83141   6.233  34.166   3.337
11416W        W83142  14.134   1.334  12.022
11417W        W83143  24.732  16.059  14.431
11418W        W83144  15.055  22.512   0.879
11419W        W83145  32.104  36.275   1.935
11420W        W83146  34.634  33.730   2.162
11421W        W83147   8.706  10.436   5.155
11422W        W83148  36.675  16.941   0.424
11423W        W83149  20.271  35.840   4.174
11424W        W83150  13.741  23.945   2.671
11425W        W83151   9.093  31.184  13.439
11426W        W83152  27.832  42.562  11.123
11427W        W83153  21.079   9.826   4.376
11428W        W83154  13.958  13.232   1.364
11429W        W83155  20.173  20.564  10.849
11430W        W83156  33.299  44.445   0.566
11431W        W83157  20.203  26.339  12.311
11432W        W83158  12.071  15.211   1.481
11433W        W83159  12.457  11.192   4.207
11434W        W83160   6.473  26.170  11.742
11435W        W83161  14.563   5.843  12.569
11436W        W83162  35.599  18.279   2.891
11437W        W83163  20.785  17.972  10.644
11438W        W83164  23.496  19.517   3.294
11439W        W83165   4.847   2.974   1.390
11440W        W83166   9.327  32.291   0.316
11441W        W83167  33.860  26.461   4.581
11442W        W83168  17.078  19.752   0.290
11443W        W83169  39.950  29.166  14.855
11444W        W83170   7.870   2.886  12.450
11445W        W83171   1.360  14.335   1.687
11446W        W83172  34.922  20.957   0.901
11447W        W83173  29.990  16.700  13.841
11448W        W83174   2.453  15.732   1.132
11449W        W83175  33.757  20.534   3.169
11450W        W83176  35.620  13.704   1.547
11451W        W83177  43.892   7.516   3.731
11452W        W83178  24.076  26.566   2.348
11453W        W83179   4.250  26.906   3.828
11454W        W83180   4.141  19.133  14.884
11455W        W83181  19.649  37.791  11.406
11456W        W83182   6.754  24.012   1.711
11457W        W83183   4.012  41.855   0.285
11458W        W83184  22.726  36.328   1.801
11459W        W83185  39.646  11.153  12.109
11460W        W83186  36.319  21.659  13.743
11461W        W83187  38.001  18.005   0.972
11462W        W83188  16.763   1.524  12.346
11463W        W83189  33.439  38.092  13.732
11464W        W83190  43.121  13.905  10.490
11465W        W83191  14.115  18.521   2.860
11466W        W83192  26.981  39.962  14.893
11467W        W83193  30.816  32.439  14.792
11468W        W83194   2.384  21.007   4.086
11469W        W83195  12.317  35.738  11.843
11470W        W83196  42.870  29.935   4.134
11471W        W83197  29.199  41.214  11.641
11472W        W83198  32.667  29.822   0.234
11473W        W83199  11.762  31.913   0.475
11474W        W83200  41.351  26.866  11.387
11475W        W83201  39.425   1.911  12.584
11476W        W83202   4.293  15.661  11.077
11477W        W83203  31.553   8.577  11.696
11478W        W83204  15.858   7.434   3.707
11479W        W83205  26.186   5.413  12.750
11480W        W83206  37.325  38.395   1.860
11481W        W83207  11.718  19.975   3.081
11482W        W83208  39.293  36.161   0.397
11483W        W83209  28.906   1.178   0.437
11484W        W83210   5.278  16.112   4.866
11485W        W83211   3.984  20.617   3.078
11486W        W83212  39.022   3.313  12.892
11487W        W83213  35.035  16.627  10.690
11488W        W83214  25.541  31.649  11.945
11489W        W83215  20.428  23.519  12.043
11490W        W83216  32.168  23.007  14.335
11491W        W83217  17.800  39.337  13.786
11492W        W83218  32.860  32.424  13.523
11493W        W83219   0.589  37.555  12.899
11494W        W83220   1.165  13.094   3.680
11495W        W83221  11.942   7.156   3.247
11496W        W83222  15.051   9.479  11.895
11497W        W83223  12.737  10.371   1.800
11498W        W83224  36.592  21.864  14.411
11499W        W83225  20.184  32.321  12.942
11500W        W83226   7.207  12.675  14.747
11501W        W83227   9.260  38.164  13.471
11502W        W83228  20.444  37.477   4.939
11503W        W83229  25.763  26.075   0.051
11504W        W83230  32.140  12.714   2.907
11505W        W83231  11.660   8.436  11.943
11506W        W83232  25.592  29.434  12.452
11507W        W83233  21.049   4.004  10.746
11508W        W83234  24.506   9.169  10.711
11509W        W83235   6.372  29.239   4.126
11510W        W83236   5.981  14.848  10.938
11511W        W83237   2.007   5.118   3.229
11512W        W83238  42.172  25.579   4.605
11513W        W83239  35.528  19.666   3.722
11514W        W83240   7.073   8.413   2.207
11515W        W83241  14.748  32.047  11.268
11516W        W83242  19.243  22.112  14.343
11517W        W83243  36.978  12.623   0.150
11518W        W83244   7.689   1.094  14.024
11519W        W83245  32.071  30.970  12.545
11520W        W83246   3.926  11.138  12.005
11521W        W83247  43.969  12.370  10.396
11522W        W83248  37.522  28.456  10.601
11523W        W83249  24.250   7.251   3.235
11524W        W83250  31.391  24.076  10.596
11525W        W83251   0.036   5.214  12.103
11526W        W83252  28.962   8.368   4.199
11527W        W83253  24.175  18.553   2.662
11528W        W83254  11.768   2.406  10.423
11529W        W83255  44.532  13.739  10.235
11530W        W83256  29.995  32.400  11.086
11531W        W83257  19.533  19.042  11.535
11532W        W83258  16.048  42.183   1.011
11533W        W83259  20.304  39.616  10.722
11534W        W83260   3.604   0.851  14.919
11535W        W83261  20.518  23.661   1.224
11536W        W83262   6.474   8.153  10.604
11537W        W83263  14.704  14.177  14.946
11538W        W83264   5.389   6.815  14.290
11539W        W83265  27.492   0.887  10.592
11540W        W83266  23.454  23.259  11.701
11541W        W83267  21.962  27.707  14.767
11542W        W83268   6.146  16.238   3.589
11543W        W83269   7.254  21.772   3.177
11544W        W83270  26.298   6.362  10.676
11545W        W83271   2.319  23.827   2.452
11546W        W83272  12.701  23.261   1.134
11547W        W83273  22.180  16.038   4.282
11548W        W83274  11.991   8.131  13.476
11549W        W83275  11.633   2.181  13.947
11550W        W83276  31.392  13.330  14.931
11551W        W83277   5.785  43.409   2.796
11552W        W83278  14.618  31.165   2.619
11553W        W83279  12.520  42.294  14.260
11554W        W83280  35.110  41.014   2.660
11555W        W83281  30.576  26.738  12.956
11556W        W83282  43.263  37.535   0.137
11557W        W83283  10.190  36.267  10.881
11558W        W83284  11.686  42.044  14.127
11559W        W83285  32.541  44.263   3.268
11560W        W83286  33.283  28.536  10.119
11561W        W83287  33.071  32.060   4.139
11562W        W83288  32.945   2.801   0.748
11563W        W83289  22.687  35.596  12.916
11564W        W83290  25.123  22.032   4.530
11565W        W83291  22.201   8.268  10.716
11566W        W83292  33.588  18.058   2.124
11567W        W83293  39.037   2.764  10.849
11568W        W83294  27.846  42.936   4.621
11569W        W83295   0.467  12.203   0.028
11570W        W83296  26.532  28.063  13.940
11571W        W83297  26.394   9.899  11.522
11572W        W83298  11.183  18.603   0.097
11573W        W83299  21.067  32.525  14.488
11574W        W83300  42.133   1.939   4.971
11575W        W83301   4.658  35.507   2.233
11576W        W83302  14.608  40.316   3.196
11577W        W83303  44.024  23.002   3.182
11578W        W83304  31.125   0.233   0.332
11579W        W83305  18.828   8.896  13.304
11580W        W83306  38.406   6.312   4.815
11581W        W83307  16.255  20.527   4.910
11582W        W83308  34.505  23.004  14.765
11583W        W83309   8.321  21.293  10.929
11584W        W83310  27.203  18.131   0.388
11585W        W83311  28.481  40.402   1.023
11586W        W83312   1.462  21.935   2.375
11587W        W83313  18.742  43.773   2.239
11588W        W83314  24.119  28.152   0.363
11589W        W83315   6.339   3.303   3.428
11590W        W83316  43.753  42.726  10.675
11591W        W83317   8.763  30.687   4.591
11592W        W83318  41.445  14.433   0.914
11593W        W83319  18.076   4.341   2.870
11594W        W83320  39.938  43.398   4.919
11595W        W83321  11.902   8.101   4.244
11596W        W83322  41.841  42.305   2.350
11597W        W83323  20.073   2.959  12.015
11598W        W83324   4.745   3.177   1.868
11599W        W83325  28.295  14.090  11.416
11600W        W83326  28.950  25.621   1.893
11601W        W83327   3.921  38.122  12.889
11602W        W83328  26.101  34.081  12.609
11603W        W83329  39.317  42.767   3.855
11604W        W83330  43.828  37.296  11.184
11605W        W83331  25.644   9.694   4.049
11606W        W83332  33.474  28.606   1.316
11607W        W83333  36.270  22.673   4.095
11608W        W83334  40.901   3.742   4.364
11609W        W83335  20.805  11.674  11.095
11610W        W83336  43.984  35.989  13.043
11611W        W83337   2.341  25.751  10.646
11612W        W83338  21.807  39.585   0.689
11613W        W83339  33.095  32.885   3.602
11614W        W83340  39.767  15.644  14.431
11615W        W83341   2.698   5.291   0.311
11616W        W83342  40.440   6.481   4.603
11617W        W83343  43.585  29.516   2.330
11618W        W83344  39.032  17.838   0.761
11619W        W83345  21.958   2.805  13.892
11620W        W83346  33.714  35.105  14.919
11621W        W83347   8.115  40.517  11.775
11622W        W83348  18.366  19.461   3.219
11623W        W83349   4.256  17.170   2.774
11624W        W83350   3.614  29.513  13.941
11625W        W83351   7.849  34.383  11.640
11626W        W83352   2.324  34.108   1.392
11627W        W83353  20.118  28.247   4.727
11628W        W83354   9.023   8.921  12.982
11629W        W83355  40.077  22.774  14.451
11630W        W83356   4.188  33.266  11.133
11631W        W83357  23.758  27.632   0.200
11632W        W83358  36.887  15.598  14.440
11633W        W83359   8.423  23.372  13.929
11634W        W83360  23.650  11.751   3.076
11635W        W83361  30.249  17.162   3.670
11636W        W83362   4.350  38.955  10.989
11637W        W83363   5.699  16.902  12.912
11638W        W83364  24.105  18.204   4.341
11639W        W83365  15.699  27.402   1.733
11640W        W83366  10.372  17.329   4.328
11641W        W83367   0.217  10.629   2.085
11642W        W83368  29.418  20.693   0.456
11643W        W83369  10.644   2.193  13.558
11644W        W83370  13.215  27.240  13.393
11645W        W83371  39.709  17.226  14.082
11646W        W83372   1.846  22.712  14.058
11647W        W83373  15.621  12.450  14.566
11648W        W83374   9.214   4.002   3.134
11649W        W83375   4.604  20.759  14.956
11650W        W83376  31.978  30.606   2.146
11651W        W83377  14.740  26.513   9.925
11652W        W83378   2.462  24.582   0.508
11653W        W83379  28.753  28.137   2.227
11654W        W83380  25.879  32.957  12.989
11655W        W83381   8.323  10.691  11.639
11656W        W83382   8.747  24.522   2.401
11657W        W83383  21.591  37.364  14.764
11658W        W83384  19.226  31.692   2.754
11659W        W83385  12.109  11.417   1.480
11660W        W83386  18.545  28.480   3.293
11661W        W83387   2.705  25.740  14.926
11662W        W83388  11.419  16.781  14.712
11663W        W83389  36.075  23.994  10.773
11664W        W83390  42.583   7.767   3.967
11665W        W83391   4.260   5.136   0.792
11666W        W83392   5.082   2.565  14.759
11667W        W83393   1.835  40.600   3.080
11668W        W83394  25.132  21.172  11.500
11669W        W83395  37.790   4.018  13.828
11670W        W83396   7.244  20.041  13.840
11671W        W83397  12.838  29.136   3.832
11672W        W83398  14.883  18.802  11.677
11673W        W83399  41.824  19.515   4.579
11674W        W83400  19.015  12.691   1.737
11675W        W83401  13.666  26.543   3.869
11676W        W83402  33.915  41.087  14.440
11677W        W83403  19.337  36.336  11.085
11678W        W83404  44.953  21.704   2.253
11679W        W83405   0.765  22.971   1.923
11680W        W83406   9.936  15.139   5.073
11681W        W83407  40.630  28.567   1.389
11682W        W83408  33.091  16.575   0.485
11683W        W83409  40.548  42.863   0.386
11684W        W83410  43.404  13.805  11.974
11685W        W83411  24.230  38.093   4.508
11686W        W83412   6.777  37.411   1.684
11687W        W83413  35.843   2.268   0.330
11688W        W83414  40.323  34.058  12.343
11689W        W83415  13.228  32.676  13.325
11690W        W83416  21.697  33.708  11.134
11691W        W83417  24.044  36.691   3.250
11692W        W83418  12.833  30.625   3.142
11693W        W83419  41.631   3.328  10.734
11694W        W83420  20.586  32.707  12.807
11695W        W83421  38.389  42.946  13.458
11696W        W83422  10.655   5.517  13.380
11697W        W83423   3.436  21.513  14.195
11698W        W83424   4.711  33.660  11.993
11699W        W83425   6.619   2.475   1.299
11700W        W83426  41.013  16.568  11.314
11701W        W83427  24.210  33.056   1.345
11702W        W83428  23.138  43.869   0.001
11703W        W83429  40.445   1.032  13.368
11704W        W83430  20.598   9.990   1.658
11705W        W83431  17.750  10.194   0.968
11706W        W83432   9.059  12.868   1.270
11707W        W83433   3.029  24.608   0.458
11708W        W83434  34.325   2.322   0.696
11709W        W83435  19.459  28.364  14.757
11710W        W83436  19.609   4.758  14.275
11711W        W83437  15.207   9.007   3.803
11712W        W83438  13.285  35.230  13.385
11713W        W83439  25.186  20.723  10.595
11714W        W83440  44.229  34.641   1.123
11715W        W83441   9.369  37.797  11.579
11716W        W83442  21.508   0.952  14.387
11717W        W83443  27.635  41.680   1.133
11718W        W83444  15.052  10.617   0.937
11719W        W83445  27.490  32.055  14.964
11720W        W83446   4.664  12.150   0.293
11721W        W83447  20.577  18.319   0.940
11722W        W83448  33.211  39.030   1.355
11723W        W83449  24.699  41.505   0.421
11724W        W83450   1.979  28.848  11.058
11725W        W83451   1.903   2.860   0.176
11726W        W83452  41.074  29.607   3.106
11727W        W83453  25.724  44.267  14.909
11728W        W83454  40.353   3.838  11.663
11729W        W83455   6.676  13.305   5.077
11730W        W83456  36.413   3.025   0.287
11731W        W83457  29.246   0.877   2.260
11732W        W83458  21.107  26.240   0.942
11733W        W83459  44.953  33.431   1.484
11734W        W83460  34.826  35.394  12.908
11735W        W83461  20.930  20.201  13.326
11736W        W83462   5.634  15.125   2.742
11737W        W83463  14.597   9.797  11.209
11738W        W83464  27.227  11.324  13.976
11739W        W83465  10.227  24.791   2.890
11740W        W83466  44.815   6.567  12.140
11741W        W83467   6.635  27.738  11.242
11742W        W83468   3.406  34.113  12.062
11743W        W83469   4.816  42.080  11.593
11744W        W83470  43.734  44.028  11.750
11745W        W83471  34.556   3.431   1.420
11746W        W83472  41.062  25.535  11.188
11747W        W83473  36.902   1.002   1.262
11748W        W83474   4.361  41.446   2.867
11749W        W83475   6.671  16.143   9.823
11750W        W83476  26.904  31.392  11.631
11751W        W83477  11.616  27.383  14.239
11752W        W83478   9.235  26.718  10.470
11753W        W83479  44.860  14.102   0.283
11754W        W83480  37.374  34.636   2.846
11755W        W83481  40.166  39.839  10.979
11756W        W83482  25.738  22.989   1.702
11757W        W83483   7.272  12.566   1.273
11758W        W83484  25.666  41.061   1.296
11759W        W83485  12.197  14.220  14.733
11760W        W83486  29.042   8.863  14.273
11761W        W83487  10.482  26.138   1.232
11762W        W83488  28.449  14.238  12.978
11763W        W83489  31.946  29.437   2.269
11764W        W83490   3.176  38.553   1.383
11765W        W83491  17.209  15.348  10.988
11766W        W83492  25.812   7.552  11.642
11767W        W83493  31.565  27.719  10.736
11768W        W83494   6.310  33.196  11.972
11769W        W83495  24.134  37.439  12.028
11770W        W83496  32.380   3.707   0.234
11771W        W83497  22.719  39.577  11.148
11772W        W83498  42.971  28.997  14.306
11773W        W83499  39.779  33.540   4.427
11774W        W83500  41.537  38.993   2.587
11775W        W83501  14.066  31.836   2.727
11776W        W83502  24.792   9.781  12.168
11777W        W83503   8.845  21.643   2.398
11778W        W83504   6.810  22.687   4.463
11779W        W83505  30.047   3.523  10.825
11780W        W83506  35.665  12.263   4.227
11781W        W83507   5.680   4.020  14.287
11782W        W83508  10.367  32.029   1.043
11783W        W83509  43.308  43.523  11.488
11784W        W83510  31.985  16.771  13.037
11785W        W83511  38.050  44.327  11.032
11786W        W83512  42.935   5.231   2.987
11787W        W83513  21.104   2.171  14.739
11788W        W83514   7.608   2.369  12.133
11789W        W83515   7.272  15.030   2.797
11790W        W83516  20.093  19.652  10.311
11791W        W83517  31.925  11.974   3.558
11792W        W83518  10.128  12.613   3.564
11793W        W83519   7.378  43.256   3.583
11794W        W83520  27.456  36.522   4.336
11795W        W83521  12.350  37.786  12.658
11796W        W83522   3.947   3.363   4.582
11797W        W83523  42.546  21.335   3.657
11798W        W83524   2.167   7.721   3.083
11799W        W83525  36.798  38.284  13.999
11800W        W83526   9.997  29.439  14.688
11801W        W83527  19.160   7.301  11.866
11802W        W83528  22.177   7.399   2.467
11803W        W83529  36.444  17.892   0.390
11804W        W83530   3.726  39.305   4.253
11805W        W83531   7.686  14.492   4.499
11806W        W83532  11.770  11.587   1.849
11807W        W83533  11.934  38.431  14.914
11808W        W83534  34.129  24.723   2.402
11809W        W83535  36.598  22.793  12.084
11810W        W83536  20.293  26.091  10.605
11811W        W83537   8.291   3.994  14.832
11812W        W83538   8.426  33.380  13.992
11813W        W83539   1.353  43.926   2.484
11814W        W83540   4.538  12.941  10.468
11815W        W83541  21.669  32.544  12.154
11816W        W83542  36.069   8.138  12.034
11817W        W83543  38.577  18.439  12.822
11818W        W83544   6.144  27.162  12.545
11819W        W83545   9.626  32.486  13.298
11820W        W83546  36.624  11.681   4.638
11821W        W83547  24.728  21.964  12.596
11822W        W83548  20.685  12.591   3.705
11823W        W83549   2.965  24.634   3.307
11824W        W83550  32.875  26.548  10.186
11825W        W83551  19.520   9.442   2.270
11826W        W83552  12.646   0.261  14.211
11827W        W83553  38.417  24.179  13.099
11828W        W83554   6.375  42.458   3.377
11829W        W83555  41.573  20.715  14.854
11830W        W83556   4.755  28.509   5.126
11831W        W83557  32.972  27.951   4.638
11832W        W83558  27.610  25.235   3.155
11833W        W83559  12.823  20.647   0.047
11834W        W83560  31.091  10.546   1.694
11835W        W83561  36.429  39.246   2.265
11836W        W83562  25.524  18.626  10.798
11837W        W83563  16.150  15.791  14.259
11838W        W83564  43.208  10.665  11.097
11839W        W83565   9.785  31.903  13.475
11840W        W83566  18.798  31.207  13.884
11841W        W83567  38.664  15.482  12.990
11842W        W83568   6.857   4.929   0.384
11843W        W83569  12.552  41.830  12.956
11844W        W83570  16.324  22.955   3.271
11845W        W83571   3.428  31.444  12.989
11846W        W83572  10.973  35.479  13.986
11847W        W83573  23.623  32.816   3.148
11848W        W83574   6.471  30.327   2.864
11849W        W83575  12.608  32.864   1.405
11850W        W83576  28.942  10.726  12.109
11851W        W83577  26.655  32.645  14.228
11852W        W83578  26.461  27.787   3.016
11853W        W83579  44.467   6.371   2.809
11854W        W83580   1.218  31.012  10.663
11855W        W83581  39.929  13.162  13.356
11856W        W83582  32.155  35.061   4.666
11857W        W83583  18.385   9.117  14.526
11858W        W83584  15.003   7.118   0.835
11859W        W83585   7.779  17.439  13.876
11860W        W83586   2.361   8.890  11.225
11861W        W83587  10.235   6.928   0.902
11862W        W83588   3.092   7.269   4.359
11863W        W83589  17.668  29.486   2.131
11864W        W83590  31.871   9.197  12.610
11865W        W83591  36.681  43.866  11.149
11866W        W83592  23.597  36.479  13.131
11867W        W83593  14.298   4.664   1.689
11868W        W83594  44.974  14.876  14.059
11869W        W83595  15.302  36.429   3.805
11870W        W83596  25.672  35.993  14.837
11871W        W83597  35.374  13.622  10.773
11872W        W83598  15.000  33.174   0.538
11873W        W83599  13.346  14.714   2.798
11874W        W83600  36.103  11.329   0.892
11875W        W83601  37.679  16.881  13.594
11876W        W83602  21.741  34.307  13.366
11877W        W83603  26.767  43.263   0.496
11878W        W83604  29.591   2.595  12.634
11879W        W83605  14.278  30.398  11.501
11880W        W83606  35.357   2.333   0.506
11881W        W83607  27.516  44.592   4.695
11882W        W83608   9.601  25.238   1.868
11883W        W83609  26.017  24.053  14.942
11884W        W83610  14.063  41.882  13.999
11885W        W83611   2.993  20.216  11.612
11886W        W83612  21.750  16.490  13.503
11887W        W83613  31.965  37.712   4.173
11888W        W83614  15.988  36.565  14.443
11889W        W83615   9.290   1.411  10.711
11890W        W83616  31.235  21.185   1.288
11891W        W83617  34.618  22.052   4.238
11892W        W83618  21.083  21.798  11.571
11893W        W83619  15.216   6.371   1.388
11894W        W83620   9.129   5.658   2.447
11895W        W83621  29.109  28.389  10.747
11896W        W83622  12.059  30.834   1.194
11897W        W83623  18.384  11.647   4.592
11898W        W83624  18.065  34.606   2.327
11899W        W83625  37.867  22.070   3.666
11900W        W83626  21.725   2.979  10.831
11901W        W83627  23.030  28.992  10.868
11902W        W83628   4.882  34.845   0.336
11903W        W83629  19.493  24.583  14.362
11904W        W83630  20.212  36.406   2.964
11905W        W83631  23.702  36.627  11.522
11906W        W83632  13.406   3.627  14.481
11907W        W83633  17.582   4.868   1.901
11908W        W83634  12.456   4.330  13.901
11909W        W83635  38.916  32.345   1.769
11910W        W83636  30.009  23.699   1.905
11911W        W83637  37.404  31.762   1.782
11912W        W83638  20.066  23.741  14.379
11913W        W83639  35.809  38.002  10.977
11914W        W83640  31.366  11.894  14.502
11915W        W83641   1.600   2.263  13.706
11916W        W83642  40.271  12.601  14.459
11917W        W83643  39.174  37.439   2.358
11918W        W83644   4.195  36.992   2.695
11919W        W83645   4.847   3.416   2.830
11920W        W83646   7.848  15.402   3.776
11921W        W83647  22.480   5.077   0.734
11922W        W83648  21.354  21.268   2.044
11923W        W83649  31.096  43.982   4.187
11924W        W83650  34.437  18.336  11.714
11925W        W83651  33.209  28.225  13.811
11926W        W83652   7.787  44.025   4.647
11927W        W83653  43.066   0.778  13.452
11928W        W83654  14.042  33.083  12.869
11929W        W83655  38.740  14.492   0.317
11930W        W83656  31.193  41.623  10.063
11931W        W83657  17.991  44.009   3.329
11932W        W83658  15.064  14.730   0.875
11933W        W83659   6.437   4.667   0.230
11934W        W83660  32.098  21.741   0.361
11935W        W83661  12.110  35.078   2.363
11936W        W83662  43.295  19.149   1.679
11937W        W83663  42.782   6.017   1.174
11938W        W83664  37.026  24.346  12.919
11939W        W83665   6.721  18.194  13.064
11940W        W83666  32.107  25.552  11.116
11941W        W83667  12.668  40.490   3.199
11942W        W83668  15.293  31.900  13.758
11943W        W83669  17.719   0.261   4.090
11944W        W83670   7.338   1.383  10.719
11945W        W83671  31.638  38.684  11.499
11946W        W83672  39.607  22.744  10.430
11947W        W83673  19.762  19.672  11.611
11948W        W83674  27.609   6.950   3.230
11949W        W83675   3.706  43.314  11.150
11950W        W83676  26.053  38.127   4.257
11951W        W83677  33.705  28.755  10.923
11952W        W83678   0.384  39.975  11.830
11953W        W83679  26.399   0.627  13.275
11954W        W83680  12.877  25.039  13.832
11955W        W83681  19.697   2.484   0.244
11956W        W83682  15.581  18.330  10.055
11957W        W83683  19.125  20.715   2.397
11958W        W83684  21.899  30.706  13.469
11959W        W83685  34.876  27.661   1.263
11960W        W83686  13.266  35.936   2.436
11961W        W83687  39.512  12.263   4.043
11962W        W83688  41.926  19.743   1.206
11963W        W83689  42.656   7.999  14.388
11964W        W83690  17.610  22.509   4.671
11965W        W83691  36.148  19.517  12.458
11966W        W83692  35.228  11.639   2.152
11967W        W83693  20.759  22.250   4.938
11968W        W83694  32.113  27.541   0.067
11969W        W83695  31.941  40.016   1.256
11970W        W83696   6.929   6.729   3.812
11971W        W83697  11.237  12.531   3.356
11972W        W83698  20.901  24.386   2.438
11973W        W83699  30.182  30.958   4.649
11974W        W83700  18.741  39.273  10.963
11975W        W83701  23.909  30.157  12.563
11976W        W83702  35.303  30.980  10.750
11977W        W83703  31.962  14.365   0.742
11978W        W83704  12.669  28.082  13.363
11979W        W83705  24.240  18.319   3.135
11980W        W83706  22.284  24.168   3.629
11981W        W83707  34.175   0.901   3.381
11982W        W83708  28.079  17.923   1.153
11983W        W83709   4.483   3.400   1.464
11984W        W83710  43.989  14.008   5.129
11985W        W83711   0.877  30.820   3.571
11986W        W83712  41.040  15.552  13.851
11987W        W83713  13.754  31.424   0.194
11988W        W83714  36.406  29.688  12.887
11989W        W83715   1.400   5.954  11.534
11990W        W83716  16.714  12.413  13.002
11991W        W83717  15.039  36.150  12.521
11992W        W83718  13.856  32.202  11.411
11993W        W83719  16.544  29.592  12.858
11994W        W83720  28.475   5.933   0.380
11995W        W83721  27.412  23.531  13.931
11996W        W83722   7.844   0.377   1.274
11997W        W83723  30.115  15.572  14.894
11998W        W83724   6.735   5.320  11.855
11999W        W83725  12.390  18.114  11.576
12000W        W83726  13.665   0.530  11.168
12001W        W83727  22.839  43.273   2.829
12002W        W83728  23.612   4.343  11.432
12003W        W83729  33.210  35.508  14.295
12004W        W83730   5.358  23.005  11.234
12005W        W83731  27.466  35.641   4.529
12006W        W83732  19.575  15.918  11.543
12007W        W83733  20.595  18.580   3.626
12008W        W83734  20.568  18.105  13.895
12009W        W83735  27.648  33.864   1.112
12010W        W83736  11.528  33.879   5.438
12011W        W83737  13.413   3.149   0.746
12012W        W83738   7.287  39.733  12.739
12013W        W83739  36.815  37.999  13.566
12014W        W83740  29.444  40.480   2.573
12015W        W83741  29.665  38.909  14.256
12016W        W83742  29.833  28.461   3.259
12017W        W83743  22.056  12.882   2.117
12018W        W83744  29.006  15.816   2.869
12019W        W83745   9.891   3.433  14.320
12020W        W83746   7.933  15.398   1.155
12021W        W83747  10.013  15.230  14.845
12022W        W83748  39.791   2.636  11.170
12023W        W83749  15.672   2.607   4.501
12024W        W83750  27.376  41.427  11.628
12025W        W83751  18.673  28.145   0.449
12026W        W83752  39.989   5.054  12.507
12027W        W83753  31.006  38.438   2.121
12028W        W83754  35.853  16.725   1.827
12029W        W83755  35.054  30.128  10.373
12030W        W83756  22.551  43.310   1.399
12031W        W83757  43.916  15.767  14.314
12032W        W83758  24.278  39.835  12.514
12033W        W83759  34.241  25.615   1.851
12034W        W83760  26.489  13.874  14.805
12035W        W83761  31.872  10.368   3.081
12036W        W83762  20.639   2.536  13.017
12037W        W83763  23.919  43.882   3.649
12038W        W83764   4.440  28.925   1.840
12039W        W83765  30.941   0.284   3.576
12040W        W83766  11.663  42.010   1.618
12041W        W83767  23.071  25.545   9.766
12042W        W83768  36.647   2.103  14.547
12043W        W83769  21.552  10.295  11.956
12044W        W83770  13.894  19.686   2.762
12045W        W83771  21.448  42.239  12.058
12046W        W83772  21.730   2.476  10.622
12047W        W83773  35.614  29.546   4.204
12048W        W83774  42.326  35.006   3.673
12049W        W83775  10.104  13.298  14.913
12050W        W83776  25.736  44.737  12.973
12051W        W83777  18.609  27.929  10.675
12052W        W83778   5.120  43.413   1.776
12053W        W83779  40.339  37.927   1.654
12054W        W83780  36.901  31.592  11.300
12055W        W83781   4.203   1.377   1.824
12056W        W83782  33.704  25.076  13.599
12057W        W83783  32.603  17.448   1.319
12058W        W83784  21.445  40.800   0.338
12059W        W83785  41.129   1.985   1.467
12060W        W83786  12.456  16.132  14.107
12061W        W83787   3.695  18.734  12.105
12062W        W83788  28.631  38.604  12.250
12063W        W83789  43.582  14.940   3.832
12064W        W83790  25.459  34.021  11.954
12065W        W83791  33.912  23.223   0.467
12066W        W83792  35.040  14.577   0.953
12067W        W83793  29.846  44.059   2.299
12068W        W83794  34.839  23.659  11.862
12069W        W83795  36.911  21.337  11.122
12070W        W83796  37.898   7.890   0.274
12071W        W83797  23.169  23.210   1.345
12072W        W83798   6.358   5.790  10.857
12073W        W83799  44.780  30.461  12.435
12074W        W83800   9.632  16.591  11.947
12075W        W83801  31.036  26.635   0.026
12076W        W83802  14.678  17.748  12.192
12077W        W83803  15.759   4.754   1.015
12078W        W83804  10.214  17.781  14.443
12079W        W83805   3.221  26.198   1.812
12080W        W83806  42.298  14.906  10.393
12081W        W83807  44.505  11.274   3.295
12082W        W83808  43.496  43.799   4.652
12083W        W83809  41.572  34.555   1.528
12084W        W83810  36.364  41.512  11.213
12085W        W83811   7.128  10.319  13.147
12086W        W83812   1.154  17.105  14.515
12087W        W83813  12.166  16.567   2.238
12088W        W83814  21.853  19.008   3.744
12089W        W83815  31.519  13.340   4.134
12090W        W83816   3.818  26.078   1.685
12091W        W83817  26.214  40.510  11.515
12092W        W83818  20.602  11.307   2.202
12093W        W83819  31.608  25.910   0.823
12094W        W83820  10.525  39.603  11.622
12095W        W83821  23.526  12.040  10.043
12096W        W83822   5.056  33.636  14.448
12097W        W83823  10.690   8.109  13.967
12098W        W83824  41.506  19.532  12.464
12099W        W83825  16.566   5.388   3.271
12100W        W83826   3.748  21.613   4.746
12101W        W83827  43.393  23.552   3.174
12102W        W83828   4.622  20.384   4.155
12103W        W83829  40.335  26.011   4.738
12104W        W83830  22.602  20.427  11.697
12105W        W83831   6.676  40.815   2.802
12106W        W83832   2.081  40.309   2.713
12107W        W83833   9.044  11.874   3.404
12108W        W83834   3.092  42.214   2.699
12109W        W83835  41.234  43.991  14.200
12110W        W83836  39.635  27.854   3.469
12111W        W83837   8.549   7.909  11.177
12112W        W83838  24.421  29.933  14.522
12113W        W83839   2.080  13.395  13.883
12114W        W83840  41.256  30.271   0.229
12115W        W83841  37.875  27.533   4.246
12116W        W83842  40.340  17.091   0.925
12117W        W83843  42.866  23.283   0.875
12118W        W83844   8.430  16.740   0.709
12119W        W83845  36.919  36.679   2.844
12120W        W83846  26.913  20.249   2.298
12121W        W83847  24.244   5.170  12.073
12122W        W83848  15.445   7.372   0.972
12123W        W83849  31.667  14.343   4.185
12124W        W83850   3.893   8.868   1.319
12125W        W83851  42.628   3.388   2.865
12126W        W83852   3.636  37.748   0.472
12127W        W83853  34.066   1.869   0.543
12128W        W83854  28.149  33.601   3.565
12129W        W83855   0.753  18.382  14.420
12130W        W83856  40.415  18.859  13.900
12131W        W83857  17.167   4.904  10.448
12132W        W83858  32.113  38.960  11.556
12133W        W83859  28.949  28.801   4.644
12134W        W83860  35.043  34.023   2.345
12135W        W83861   5.406  13.393   3.562
12136W        W83862  21.760   5.358   3.341
12137W        W83863  12.328   4.495   1.424
12138W        W83864  16.365  39.051   2.643
12139W        W83865  40.327  11.771  14.001
12140W        W83866  39.547  40.527   3.899
12141W        W83867  32.971  21.957  11.672
12142W        W83868  19.223  43.776  14.866
12143W        W83869  37.087  39.066   0.564
12144W        W83870  42.753  31.190   1.328
12145W        W83871   3.044  43.891  11.544
12146W        W83872  27.606   8.224  11.643
12147W        W83873  39.780  26.535   3.536
12148W        W83874  35.168  28.656   4.338
12149W        W83875  14.799   1.084   2.667
12150W        W83876  32.861  13.017   0.031
12151W        W83877   0.765  36.779   3.304
12152W        W83878  42.761  16.714  11.665
12153W        W83879   5.400  39.395   2.714
12154W        W83880  21.709  28.213  12.495
12155W        W83881   0.291  13.373  10.930
12156W        W83882  32.864  29.566   2.304
12157W        W83883   2.964  12.652  14.314
12158W        W83884   8.927   3.940  11.653
12159W        W83885  34.530   5.307   2.376
12160W        W83886  20.687  10.571  14.869
12161W        W83887  32.071   1.202  13.170
12162W        W83888  16.499  43.385   0.571
12163W        W83889  29.833  11.780   2.767
12164W        W83890   5.824  12.921   1.005
12165W        W83891  29.643  42.855   2.804
12166W        W83892   0.265  32.906   1.504
12167W        W83893  33.023   2.670  12.038
12168W        W83894  38.002  18.248  11.207
12169W        W83895  39.507  31.470  11.627
12170W        W83896  20.581  29.045   4.548
12171W        W83897  40.874  43.714  14.497
12172W        W83898  13.404  21.471   1.515
12173W        W83899   8.867  24.817  14.818
12174W        W83900  25.099  14.293  12.171
12175W        W83901  10.647  32.337  13.599
12176W        W83902   2.763  11.680   2.247
12177W        W83903   3.719  26.429  10.741
12178W        W83904  40.530  19.351  14.055
12179W        W83905  38.943  41.547   4.294
12180W        W83906   4.541  14.416   1.168
12181W        W83907  38.889  26.849  13.043
12182W        W83908  23.475   8.311  12.846
12183W        W83909  20.747  40.294   2.276
12184W        W83910  32.601  28.231  10.201
12185W        W83911  37.067  22.923  13.007
12186W        W83912  24.959   8.644   2.398
12187W        W83913  39.214  33.366   2.353
12188W        W83914  43.789  13.310   2.230
12189W        W83915  26.797  22.808   4.135
12190W        W83916  10.688  22.565   4.198
12191W        W83917  37.313   5.219   4.121
12192W        W83918   3.759  36.474  13.430
12193W        W83919   7.926   6.747  10.968
12194W        W83920  30.032   5.923   4.748
12195W        W83921  24.185  31.881  13.101
12196W        W83922  21.938  38.905   1.821
12197W        W83923  43.594  44.952  12.456
12198W        W83924  36.544   7.281   0.034
12199W        W83925  41.536  33.699   0.353
12200W        W83926  31.815   7.683   0.274
12201W        W83927   0.416  16.504  14.424
12202W        W83928  21.540  15.009  12.451
12203W        W83929   6.802  35.961  11.946
12204W        W83930  10.162  34.008   4.408
12205W        W83931  23.809   6.870   4.679
12206W        W83932  19.545  20.134  10.603
12207W        W83933  25.485  24.788   4.084
12208W        W83934  22.196   7.292   2.962
12209W        W83935   6.458  40.004  13.948
12210W        W83936  11.181   9.801   2.257
12211W        W83937  28.337   3.867   0.446
12212W        W83938  34.317  20.658  12.064
12213W        W83939   9.843   5.297  14.924
12214W        W83940  11.368  25.201   2.484
12215W        W83941   0.651  18.105   1.490
12216W        W83942   5.957  39.817   2.880
12217W        W83943  31.624  31.511  12.830
12218W        W83944  25.166  33.455   1.440
12219W        W83945   7.429   4.386  10.503
12220W        W83946  10.942  10.922  12.146
12221W        W83947  29.972  44.269  14.044
12222W        W83948  24.706  34.949  13.459
12223W        W83949  25.076  41.889   3.755
12224W        W83950  37.918  23.692   0.908
12225W        W83951  34.877  13.103  12.422
12226W        W83952   3.848  27.687  11.084
12227W        W83953  38.218  18.797   1.207
12228W        W83954  36.573  24.750   0.926
12229W        W83955  32.396  24.216  13.205
12230W        W83956  39.985  25.771   2.286
12231W        W83957  15.073  28.531   1.925
12232W        W83958   8.235  44.822   2.899
12233W        W83959  35.425  17.354   4.592
12234W        W83960  29.424  25.412   1.848
12235W        W83961  40.050  43.183   0.588
12236W        W83962  15.165   7.394   1.908
12237W        W83963   4.468  44.152   3.804
12238W        W83964  25.521   2.369  12.584
12239W        W83965  18.194  20.516  14.305
12240W        W83966  23.482  15.652   1.159
12241W        W83967   5.296  12.079  12.681
12242W        W83968  16.643   0.785   3.185
12243W        W83969  29.111  38.524   3.218
12244W        W83970  28.621   5.318  12.546
12245W        W83971  31.933  34.396  14.869
12246W        W83972  14.804  41.605   1.094
12247W        W83973  10.203  44.873   0.467
12248W        W83974  27.667  44.682   1.229
12249W        W83975  23.976  13.124  13.523
12250W        W83976   6.733  24.021   0.264
12251W        W83977   2.872  34.623   3.616
12252W        W83978  39.400  32.370   4.446
12253W        W83979  26.513  36.103  14.323
12254W        W83980  40.826   1.948   1.050
12255W        W83981  43.276  37.318  12.446
12256W        W83982  44.584  22.071   1.456
12257W        W83983  44.263  24.300  13.009
12258W        W83984   2.048  38.613   2.256
12259W        W83985  13.074  14.263   2.769
12260W        W83986  36.084  40.921  10.655
12261W        W83987  18.437  40.200  11.673
12262W        W83988   8.296   8.547   5.014
12263W        W83989  22.241  10.199  13.480
12264W        W83990  29.415   8.039   2.454
12265W        W83991   2.941  17.020   2.032
12266W        W83992   8.133  22.730  12.912
12267W        W83993   1.825  14.501  11.462
12268W        W83994  40.709  35.614  11.020
12269W        W83995  12.387  33.487   1.400
12270W        W83996  16.224  11.383  11.142
12271W        W83997  43.019  42.919   3.637
12272W        W83998  17.706  17.307   3.869
12273W        W83999  21.104  33.210  12.962
12274W        W84000  16.133  22.132  11.862
12275W        W84001  29.506   4.707  13.945
12276W        W84002   9.309  26.198  13.895
12277W        W84003  13.665   4.248   3.700
12278W        W84004   6.469  36.725  13.341
12279W        W84005   5.549  18.770  14.779
12280W        W84006  28.211  10.746  12.996
12281W        W84007  18.132  26.981   2.440
12282W        W84008   7.135  16.673  13.714
12283W        W84009   3.055  26.933  14.354
12284W        W84010  20.141   9.199  11.573
12285W        W84011  30.435  31.862   5.073
12286W        W84012  12.663  23.658   1.697
12287W        W84013  32.474   8.442   0.798
12288W        W84014  22.082  16.076   4.799
12289W        W84015  14.455  24.226  13.491
12290W        W84016  36.382  27.987  11.744
12291W        W84017  28.980  43.860   1.858
12292W        W84018  41.942  13.508  12.173
12293W        W84019  19.339   3.797   2.786
12294W        W84020  26.082  16.899   1.189
12295W        W84021   2.382  10.397  12.955
12296W        W84022  25.186  35.157  13.481
12297W        W84023   9.247  38.001  12.456
12298W        W84024  40.413  35.888  12.803
12299W        W84025   2.921  44.578   1.212
12300W        W84026  38.401  22.722  11.222
12301W        W84027  28.062  32.647  13.489
12302W        W84028   7.168  11.065  10.586
12303W        W84029  24.096   2.549  12.514
12304W        W84030  23.093  31.659   4.821
12305W        W84031   8.764  15.889  14.557
12306W        W84032  21.076  16.538   1.464
12307W        W84033  41.104  19.765  13.325
12308W        W84034   7.274  41.737  14.392
12309W        W84035  19.227  23.519   3.947
12310W        W84036  16.240  35.614   3.657
12311W        W84037  26.534  23.231  12.779
12312W        W84038  25.758  17.783   1.852
12313W        W84039  43.698  29.815   0.383
12314W        W84040   6.943  11.374   2.844
12315W        W84041  11.870   4.395  12.911
12316W        W84042  33.039  28.952   4.422
12317W        W84043  43.866   5.335   2.938
12318W        W84044  14.576  40.829   2.447
12319W        W84045  31.223  28.484   3.624
12320W        W84046  42.062   0.394   2.274
12321W        W84047  12.734  29.992   0.071
12322W        W84048  17.618  21.510   4.331
12323W        W84049  21.643  26.895   3.935
12324W        W84050   9.297  40.006  12.479
12325W        W84051  22.083  44.729   1.927
12326W        W84052  32.858   4.749  14.418
12327W        W84053   8.688  26.414   3.185
12328W        W84054  41.538  34.009   4.238
12329W        W84055  27.588  28.334   2.396
12330W        W84056  34.920   3.205   3.493
12331W        W84057  36.994  10.011   1.298
12332W        W84058   0.501  44.028  14.744
12333W        W84059  28.551  36.645  12.118
12334W        W84060  11.295  11.177  14.978
12335W        W84061  20.755  26.539   3.801
12336W        W84062  39.818   9.774   3.233
12337W        W84063  14.435  11.533   5.003
12338W        W84064  28.722  25.629   3.284
12339W        W84065   0.402  42.664   3.400
12340W        W84066  15.619  26.521  12.397
12341W        W84067  29.634   4.897   0.872
12342W        W84068  11.756   8.212   0.964
12343W        W84069  22.939  11.813   2.223
12344W        W84070  31.919  11.157   4.614
12345W        W84071  15.100   9.028   0.287
12346W        W84072   3.020  21.002   3.728
12347W        W84073  24.249   7.182  12.202
12348W        W84074  19.028  36.883   1.763
12349W        W84075  43.393  35.508   1.696
12350W        W84076  33.555  34.828  11.449
12351W        W84077  13.345  21.031   2.209
12352W        W84078  28.032  25.606   4.379
12353W        W84079  44.552  26.037  13.325
12354W        W84080   3.162  38.959  11.888
12355W        W84081   0.428  13.405   2.193
12356W        W84082  17.571  41.939   4.642
12357W        W84083  43.742  21.373  11.136
12358W        W84084  23.877  25.780  13.432
12359W        W84085  36.025  16.540   0.799
12360W        W84086  34.498   9.690  11.549
12361W        W84087  21.140  29.623   0.379
12362W        W84088  27.841   1.800   3.170
12363W        W84089  32.466  17.612   3.901
12364W        W84090   2.344  24.380  13.762
12365W        W84091  23.215  14.635  12.399
12366W        W84092  13.152  11.094   0.265
12367W        W84093  39.965  39.699  14.936
12368W        W84094  39.510  13.577   2.389
12369W        W84095  33.179  27.897   1.323
12370W        W84096  11.301   9.639  13.767
12371W        W84097  33.339  39.365  14.600
12372W        W84098  16.081  17.181   4.611
12373W        W84099  35.584  34.290   2.441
12374W        W84100  37.845  29.221   3.818
12375W        W84101   9.340  24.892   3.069
12376W        W84102   3.419   2.530  12.502
12377W        W84103  22.007  38.038  13.164
12378W        W84104  20.056  30.130  12.094
12379W        W84105  31.657   9.377   0.025
12380W        W84106  22.395   3.447   2.352
12381W        W84107  25.642  23.982   2.658
12382W        W84108  43.418   4.345   3.744
12383W        W84109  12.110  29.089   3.325
12384W        W84110   0.767  20.199   4.034
12385W        W84111  29.823  16.889   0.264
12386W        W84112   6.153  44.818   3.995
12387W        W84113  11.103  27.505  12.330
12388W        W84114  20.051   8.673   5.053
12389W        W84115  34.094  16.145   3.907
12390W        W84116  32.915  39.506  14.320
12391W        W84117   2.198   4.282   1.404
12392W        W84118   2.740  22.445   4.680
12393W        W84119  14.960   7.738  11.564
12394W        W84120   2.265  41.917  11.910
12395W        W84121  10.963  25.047  14.308
12396W        W84122  35.024   3.380   1.755
12397W        W84123  34.278  26.523  13.359
12398W        W84124  36.051  32.385   4.659
12399W        W84125  31.402  20.565  14.146
12400W        W84126  27.481  24.265  12.535
12401W        W84127  44.484  28.216  11.103
12402W        W84128  33.128  15.412   3.297
12403W        W84129  21.757  28.446  13.602
12404W        W84130   8.563  20.027   3.670
12405W        W84131  24.961   1.991   0.016
12406W        W84132   6.272  13.646  10.153
12407W        W84133  22.100  25.202   9.800
12408W        W84134  10.436  29.867  10.511
12409W        W84135  28.630  37.051  14.789
12410W        W84136  18.230  29.564  13.979
12411W        W84137  11.727  36.269  13.905
12412W        W84138  18.191  35.618   2.182
12413W        W84139   6.368  16.569   0.228
12414W        W84140  22.755  17.798  11.371
12415W        W84141  31.493  33.476   0.474
12416W        W84142  33.343  32.917   4.314
12417W        W84143  11.019   6.232   1.660
12418W        W84144  30.112  20.166   0.179
12419W        W84145  22.242  29.438  14.703
12420W        W84146  27.372  23.226   3.085
12421W        W84147   7.363  14.830  11.010
12422W        W84148   7.205   2.972  11.697
12423W        W84149  25.604  33.420  13.455
12424W        W84150  29.276   6.201   0.954
12425W        W84151  15.044  10.106  11.224
12426W        W84152   7.862  23.758   4.554
12427W        W84153  33.203   2.840   0.299
12428W        W84154  37.825  42.467   4.846
12429W        W84155  33.438   0.019   4.161
12430W        W84156   0.197  10.185   4.640
12431W        W84157  40.488  27.384  13.959
12432W        W84158  13.158  25.802  13.696
12433W        W84159   7.595   9.317  10.766
12434W        W84160   9.695   7.018   1.715
12435W        W84161  25.490  15.964  13.708
12436W        W84162  36.584   3.936  14.121
12437W        W84163  18.625  28.176  13.669
12438W        W84164  34.016  27.955   0.307
12439W        W84165  36.925  43.202   2.210
12440W        W84166   3.698  24.686   4.325
12441W        W84167   0.437   4.468  12.456
12442W        W84168   2.467   4.759  12.918
12443W        W84169  17.558  32.990   3.877
12444W        W84170  29.090   5.169  12.336
12445W        W84171  43.745  42.425   4.896
12446W        W84172  20.557  16.803   2.810
12447W        W84173  37.658  43.438   1.792
12448W        W84174  41.612  37.577   1.673
12449W        W84175  21.541  21.171   0.429
12450W        W84176  32.997  11.219  11.118
12451W        W84177  12.020  36.378   4.059
12452W        W84178   7.649  22.642   1.667
12453W        W84179  32.921  23.066  10.635
12454W        W84180   9.640  16.621  13.321
12455W        W84181   5.749  11.301   4.348
12456W        W84182  27.894  31.182   0.362
12457W        W84183  42.501  24.205   0.947
12458W        W84184   2.854  17.596  11.082
12459W        W84185  24.847  39.818  10.703
12460W        W84186  21.638  32.215   1.942
12461W        W84187  19.254  13.521   2.125
12462W        W84188  44.415   4.308   3.390
12463W        W84189  14.397  26.038   1.768
12464W        W84190  31.161  10.584   0.847
12465W        W84191  43.853   6.573   0.248
12466W        W84192  16.502  30.957   0.236
12467W        W84193  39.737  33.413  10.533
12468W        W84194  11.616  28.555   2.288
12469W        W84195  26.224  34.998   1.669
12470W        W84196  25.442  27.961  14.819
12471W        W84197  14.312  44.472  11.625
12472W        W84198   8.717  16.224   1.900
12473W        W84199  12.748  23.946  14.466
12474W        W84200   8.692  40.493   4.284
12475W        W84201  23.831  44.987   5.413
12476W        W84202  15.025   3.879   1.297
12477W        W84203  41.786  31.997  14.027
12478W        W84204  15.222  43.226  13.376
12479W        W84205   6.733  42.885   4.060
12480W        W84206  21.667  13.115  12.099
12481W        W84207  23.254  28.075   0.526
12482W        W84208   4.499  38.475   1.768
12483W        W84209  42.052  17.983  11.651
12484W        W84210   1.948   7.239   1.327
12485W        W84211  31.265   8.640   3.170
12486W        W84212  17.182   7.146  14.030
12487W        W84213   7.421  17.716  11.627
12488W        W84214  25.742  33.637  10.325
12489W        W84215  42.637  43.404   4.563
12490W        W84216  30.989  44.580   2.246
12491W        W84217  11.620  25.722   2.398
12492W        W84218  13.124  22.594   3.407
12493W        W84219  33.922   7.197   4.539
12494W        W84220  43.816  35.297   3.154
12495W        W84221  32.035  43.468   1.181
12496W        W84222  26.592  10.565   0.354
12497W        W84223  31.877  41.479   0.355
12498W        W84224  36.928  33.343   0.856
12499W        W84225  31.487   6.905  10.563
12500W        W84226  16.110  10.211  13.144
12501W        W84227  38.949   0.665   4.123
12502W        W84228  20.612  35.588  13.970
12503W        W84229  36.100  30.513  14.934
12504W        W84230  41.824   1.850  12.967
12505W        W84231  24.284  27.211   2.773
12506W        W84232  18.566  14.212   0.326
12507W        W84233   5.341  11.101   1.805
12508W        W84234  27.647  12.118   4.456
12509W        W84235  37.929  41.719  14.357
12510W        W84236  24.929  27.270  10.172
12511W        W84237  32.544  18.154  12.917
12512W        W84238  11.887  34.383   9.985
12513W        W84239   5.668  40.446   4.046
12514W        W84240  34.142  23.165  11.023
12515W        W84241  18.270  29.413   4.423
12516W        W84242  18.102  40.794   1.354
12517W        W84243  18.773  32.007   2.651
12518W        W84244  20.995   3.880  12.962
12519W        W84245  32.884  24.188  10.072
12520W        W84246  38.845  28.037   2.073
12521W        W84247  14.545  36.398   1.622
12522W        W84248  37.538  15.721   1.941
12523W        W84249  26.165   3.081   1.702
12524W        W84250  17.714  30.654  14.474
12525W        W84251  38.019  32.960   1.316
12526W        W84252   3.923  39.612   0.852
12527W        W84253  24.769  27.138  13.007
12528W        W84254  28.872  43.798   0.888
12529W        W84255  11.841  18.047  10.763
12530W        W84256  38.042  41.226  14.463
12531W        W84257   4.679  18.060  11.600
12532W        W84258   2.172  44.465   0.242
12533W        W84259   1.257  33.566  11.065
12534W        W84260  36.086  36.386  12.592
12535W        W84261   5.496  22.360   4.791
12536W        W84262  42.547  26.435  14.239
12537W        W84263  38.850   2.143   4.125
12538W        W84264  13.584  34.354   0.572
12539W        W84265  44.778  35.491   1.335
12540W        W84266  44.986   1.250  11.160
12541W        W84267   9.871  42.213  11.058
12542W        W84268  13.252  29.674   1.761
12543W        W84269   7.444  11.790  13.995
12544W        W84270  18.656   3.209  10.694
12545W        W84271  22.070  20.196   0.259
12546W        W84272  43.793  27.707  11.953
12547W        W84273  28.716  44.700  12.824
12548W        W84274   5.580  23.934   4.087
12549W        W84275   5.668  31.785  10.346
12550W        W84276  22.749  27.769  12.340
12551W        W84277   1.578  31.982   0.537
12552W        W84278  10.104  30.952   3.176
12553W        W84279   6.411   6.631  11.484
12554W        W84280   1.052   5.904  13.926
12555W        W84281  35.891  29.900   3.028
12556W        W84282  37.909   8.826   0.403
12557W        W84283  37.007  15.869   4.759
12558W        W84284  19.471  29.134  11.980
12559W        W84285  15.197  37.066  10.662
12560W        W84286   7.016  43.618  12.009
12561W        W84287  19.683  27.649  10.986
12562W        W84288   6.326  41.763  11.264
12563W        W84289  33.774  40.964   3.251
12564W        W84290  36.227  37.988  11.299
12565W        W84291  40.098   0.450   1.780
12566W        W84292  22.514  14.356  12.826
12567W        W84293   3.464   0.907   0.451
12568W        W84294  40.535  14.612   4.569
12569W        W84295  23.248  38.036  11.201
12570W        W84296  36.622  44.221   2.200
12571W        W84297  25.042  20.104   5.101
12572W        W84298  23.424  34.416  14.609
12573W        W84299  11.719  18.976  12.398
12574W        W84300  27.186  38.581   3.535
12575W        W84301   4.445  41.993  10.440
12576W        W84302  41.913  34.314  12.048
12577W        W84303  36.135   1.538   3.207
12578W        W84304  33.032  34.588  11.992
12579W        W84305  13.898   7.872  14.151
12580W        W84306  27.540  35.575  13.504
12581W        W84307  31.074  15.617  10.207
12582W        W84308  32.377   6.122   0.758
12583W        W84309  37.347  25.292   2.115
12584W        W84310  39.779  35.364  11.115
12585W        W84311  31.673   1.853   1.764
12586W        W84312  13.827  41.007   1.834
12587W        W84313  16.301  19.150  12.152
12588W        W84314  10.136  18.244   4.762
12589W        W84315  27.068  33.506  10.556
12590W        W84316   9.609  35.111  12.462
12591W        W84317  17.827  23.848  11.135
12592W        W84318   7.315  26.367  11.620
12593W        W84319  29.709   0.908  11.085
12594W        W84320   0.503  38.065   3.598
12595W        W84321  36.224  13.321   2.763
12596W        W84322  10.075   5.442  12.471
12597W        W84323  33.444  24.076   5.065
12598W        W84324  17.876  35.140   3.210
12599W        W84325   8.931  20.195  12.562
12600W        W84326   7.365   9.367   3.756
12601W        W84327  31.854  34.135  13.070
12602W        W84328  32.193  18.510  13.054
12603W        W84329   4.957  15.777   3.109
12604W        W84330  32.669  36.495   3.799
12605W        W84331  16.838   6.289  12.585
12606W        W84332  36.785  29.503  11.178
12607W        W84333  40.258  21.583   4.868
12608W        W84334  21.080  44.889  13.731
12609W        W84335  21.164  27.607   1.336
12610W        W84336  29.629  23.032   1.867
12611W        W84337  15.991  28.993  13.901
12612W        W84338  12.587   1.776  14.984
12613W        W84339  37.072  38.976  12.516
12614W        W84340  44.073  25.472  12.461
12615W        W84341  18.102  23.662  14.098
12616W        W84342  32.906  12.070  14.349
12617W        W84343  40.329  43.998  13.344
12618W        W84344  30.006  13.317   4.820
12619W        W84345  11.891   8.785   2.315
12620W        W84346  43.762  28.116  13.509
12621W        W84347  20.162  12.121  12.063
12622W        W84348   6.874  40.751  11.937
12623W        W84349  29.578  25.718   3.768
12624W        W84350  31.454   7.380   2.908
12625W        W84351  16.229   6.339   3.387
12626W        W84352  13.624  43.568  11.708
12627W        W84353  27.975  35.951  13.821
12628W        W84354  20.240   6.367  11.630
12629W        W84355  22.048  25.266   1.205
12630W        W84356  15.883  38.046   4.296
12631W        W84357   7.565   2.233  11.128
12632W        W84358  30.149  20.326  14.283
12633W        W84359  10.989  26.613   2.791
12634W        W84360  27.885   1.407  11.205
12635W        W84361   2.025   5.633   3.224
12636W        W84362  24.363  25.209  11.709
12637W        W84363  33.375  11.533   4.990
12638W        W84364  35.095  32.783  14.285
12639W        W84365  15.813   6.132  12.505
12640W        W84366  32.361   6.770  11.374
12641W        W84367  25.881   9.854  11.556
12642W        W84368   1.519  10.660  11.054
12643W        W84369  12.392  15.039  12.506
12644W        W84370  16.687  40.587   4.258
12645W        W84371   4.569   5.140   0.376
12646W        W84372   8.245  24.239   0.291
12647W        W84373   7.349  29.356   2.635
12648W        W84374   4.393  38.453  10.508
12649W        W84375  23.003  20.081  11.569
12650W        W84376  13.548  27.060  13.011
12651W        W84377  37.776   9.714   2.782
12652W        W84378  39.844  18.185   0.274
12653W        W84379  23.441  25.257  14.285
12654W        W84380  25.804  43.447  10.109
12655W        W84381  39.036   2.144  11.391
12656W        W84382  13.220   5.472   1.174
12657W        W84383  29.000   1.899  12.997
12658W        W84384   5.339  14.354  10.672
12659W        W84385   0.347  18.621  14.858
12660W        W84386   6.386  28.184   3.624
12661W        W84387  23.570   3.312  12.848
12662W        W84388  27.662   1.502  14.782
12663W        W84389  12.326  32.912   2.779
12664W        W84390  33.621  33.571  11.599
12665W        W84391  41.556   4.285  12.396
12666W        W84392  41.816  28.706   3.677
12667W        W84393  11.445  30.217   0.829
12668W        W84394   2.007  25.856  11.240
12669W        W84395   1.325  30.384   0.465
12670W        W84396  27.210  30.087   4.425
12671W        W84397  14.860   8.830   4.142
12672W        W84398  43.860  40.454   0.487
12673W        W84399  18.319  25.433   4.946
12674W        W84400  15.280  21.855  14.739
12675W        W84401   6.425  23.229  12.464
12676W        W84402  29.257   2.010   0.887
12677W        W84403   6.934  27.002  13.013
12678W        W84404  24.680  35.964  12.151
12679W        W84405  34.000   3.164  12.956
12680W        W84406  42.845  29.455  12.695
12681W        W84407  33.643  22.009   0.848
12682W        W84408  44.836  29.682   1.016
12683W        W84409  24.079  43.316   1.348
12684W        W84410  23.729   5.677   1.284
12685W        W84411  30.982   9.754  14.495
12686W        W84412   5.868  23.272   0.350
12687W        W84413   9.545   4.254   3.423
12688W        W84414  42.153  41.572   2.996
12689W        W84415  21.281  40.980  14.876
12690W        W84416  18.912  27.051  11.130
12691W        W84417  26.979  16.071   4.216
12692W        W84418  36.976  10.139  14.143
12693W        W84419  36.080   4.766   3.889
12694W        W84420  40.452   9.754   1.751
12695W        W84421  14.684  42.036  11.600
12696W        W84422   7.991  44.332   5.049
12697W        W84423   0.416  21.760  10.285
12698W        W84424  18.522  15.636  13.119
12699W        W84425   8.936  19.154  11.667
12700W        W84426  13.854   2.921   0.912
12701W        W84427  36.528  36.544   0.774
12702W        W84428  22.328  40.071  14.406
12703W        W84429  38.494   0.119   2.216
12704W        W84430  40.309  44.545  13.305
12705W        W84431  40.896  32.687  14.732
12706W        W84432  14.852   9.196  12.842
12707W        W84433  32.606  33.828   3.667
12708W        W84434  21.958  42.317  12.032
12709W        W84435  44.421  28.674  12.195
12710W        W84436  26.604  41.708  12.282
12711W        W84437  44.587  27.035  12.802
12712W        W84438   2.114  24.480  13.304
12713W        W84439  35.965  14.845  12.494
12714W        W84440  27.783  25.571  14.511
12715W        W84441  18.731  35.891   3.846
12716W        W84442  14.268  22.248  14.498
12717W        W84443  26.042  39.609   0.373
12718W        W84444   6.437  43.304   2.865
12719W        W84445  12.833  31.051  12.397
12720W        W84446  11.047  28.697   3.748
12721W        W84447  15.215  30.962   0.878
12722W        W84448  26.840   8.180   1.790
12723W        W84449  21.833  16.425   3.831
12724W        W84450  15.352  34.337  12.958
12725W        W84451   3.862  23.733  12.083
12726W        W84452  28.132   2.490   2.624
12727W        W84453  21.142  39.566   2.763
12728W        W84454  10.458  40.534   2.871
12729W        W84455   3.539  10.817  12.834
12730W        W84456  25.615  10.154   1.572
12731W        W84457  15.937  29.370  11.450
12732W        W84458   0.916  11.734  13.509
12733W        W84459  11.501  42.963   4.614
12734W        W84460  17.781  37.928   3.194
12735W        W84461  41.056  18.123  11.030
12736W        W84462  41.950  18.515  11.675
12737W        W84463  35.465  30.963   2.227
12738W        W84464  38.319  24.173   4.558
12739W        W84465   8.237   6.791  14.562
12740W        W84466  12.565  38.960  14.397
12741W        W84467   8.750  32.883  12.416
12742W        W84468  36.639  12.005  10.417
12743W        W84469  40.972  42.450   2.731
12744W        W84470  44.727  32.697  14.828
12745W        W84471  31.908   2.101   2.140
12746W        W84472  10.277  25.895  12.570
12747W        W84473  13.714  41.426   2.797
12748W        W84474  27.014  36.989  12.529
12749W        W84475   4.806  40.733   3.000
12750W        W84476   0.579  30.844  13.329
12751W        W84477  14.819  15.311   4.176
12752W        W84478  29.407  12.635   3.361
12753W        W84479  42.961  20.010   4.164
12754W        W84480  24.725  13.627   2.251
12755W        W84481  21.652  33.953   3.613
12756W        W84482  40.491  43.888  12.481
12757W        W84483  35.331  37.577   2.740
12758W        W84484  41.989  31.960  10.262
12759W        W84485  24.024  11.201  14.735
12760W        W84486  39.581  31.982  11.942
12761W        W84487  31.532  19.243  11.949
12762W        W84488  23.413  36.998  10.403
12763W        W84489  17.362  36.034  12.473
12764W        W84490  25.822  37.786   4.583
12765W        W84491   2.688  26.111   2.973
12766W        W84492  14.658  41.313  12.940
12767W        W84493   1.347  43.038   3.355
12768W        W84494  16.814  39.518  10.432
12769W        W84495  33.911  43.880   2.738
12770W        W84496  10.947   5.708  13.773
12771W        W84497   2.724   3.920  10.797
12772W        W84498   4.182  22.072  14.397
12773W        W84499   7.609  40.890  10.683
12774W        W84500  20.807  42.240   0.639
12775W        W84501  34.142   5.671   3.841
12776W        W84502  24.184   5.353  14.345
12777W        W84503  26.602  28.988  11.484
12778W        W84504  21.794   1.984  11.095
12779W        W84505  18.549  19.682   0.729
12780W        W84506  12.878  26.562  14.205
12781W        W84507  38.156  30.347   2.208
12782W        W84508   2.201   6.303  13.747
12783W        W84509  26.119   5.833   2.387
12784W        W84510  38.234  19.642   3.536
12785W        W84511   2.167  18.173   0.767
12786W        W84512  44.492  10.014   1.686
12787W        W84513  32.162  27.258   4.145
12788W        W84514  25.980  42.674  14.420
12789W        W84515  40.986   1.466  13.808
12790W        W84516  33.068  10.617   1.841
12791W        W84517   4.503  20.138   3.676
12792W        W84518  35.427  44.665   0.594
12793W        W84519  11.817   2.220  12.559
12794W        W84520  41.227   1.855   3.148
12795W        W84521  18.113  20.094   2.875
12796W        W84522  23.474   5.103   1.712
12797W        W84523  30.533  40.994  13.121
12798W        W84524  21.155  22.809  14.066
12799W        W84525  16.787  41.190  13.158
12800W        W84526  33.520  37.887   1.701
12801W        W84527  42.588  22.728   3.983
12802W        W84528  28.095  27.122   2.716
12803W        W84529  26.650   7.268  10.570
12804W        W84530  12.606  25.106   3.319
12805W        W84531   0.224  37.982   1.111
12806W        W84532  11.666  26.199   4.997
12807W        W84533  39.509  13.384  14.549
12808W        W84534  40.912  32.072  12.426
12809W        W84535  18.108  27.015   1.890
12810W        W84536   8.770  35.323   0.410
12811W        W84537   4.813  41.033   4.876
12812W        W84538  35.617   1.823   3.716
12813W        W84539  13.071  37.434   1.457
12814W        W84540  31.509  35.412  11.909
12815W        W84541  32.455   9.148  14.722
12816W        W84542  29.958   5.742   3.418
12817W        W84543  33.641  17.205   3.160
12818W        W84544  43.291   8.164   0.322
12819W        W84545  16.231  27.379   4.522
12820W        W84546   3.270   8.329   1.926
12821W        W84547  14.504  34.617   3.686
12822W        W84548  24.260  30.713   0.409
12823W        W84549  39.575  43.735  14.372
12824W        W84550  40.026  14.569   0.002
12825W        W84551  31.891  30.721  13.008
12826W        W84552  36.185  42.510   2.423
12827W        W84553  18.970  42.952   4.796
12828W        W84554   4.793  36.574   2.126
12829W        W84555  35.097  41.880  13.888
12830W        W84556   3.960  37.433  10.648
12831W        W84557   9.931  21.405  11.086
12832W        W84558  37.423   5.190   0.858
12833W        W84559   6.034  15.351  13.843
12834W        W84560  32.100  29.154  13.906
12835W        W84561  32.908  41.508  12.090
12836W        W84562   8.435  28.804  12.928
12837W        W84563  18.764  41.920  13.234
12838W        W84564   9.812  29.190   3.293
12839W        W84565  43.975   7.845  13.853
12840W        W84566  27.940  36.197   4.173
12841W        W84567  41.908  11.391   1.711
12842W        W84568  23.036   2.218  14.608
12843W        W84569  44.468  42.829   4.485
12844W        W84570   8.729  41.157   4.904
12845W        W84571  18.238  40.701  13.858
12846W        W84572  35.040  23.614  14.269
12847W        W84573  30.806  27.679   4.372
12848W        W84574  26.892  15.776  11.206
12849W        W84575  24.963  28.011  10.675
12850W        W84576  40.573  34.555   1.394
12851W        W84577  14.716  30.604   0.171
12852W        W84578  29.320   7.334  10.336
12853W        W84579   0.934  44.501   1.815
12854W        W84580   9.376  11.361   1.773
12855W        W84581  34.593  10.805  12.748
12856W        W84582   2.655  30.586   1.795
12857W        W84583  24.639  11.073  12.569
12858W        W84584  19.713  42.422  11.873
12859W        W84585  40.474  34.884   2.291
12860W        W84586  29.252  35.967  12.468
12861W        W84587  40.029  19.516  12.549
12862W        W84588  43.478  13.605  10.756
12863W        W84589  28.400  18.091  14.906
12864W        W84590  14.859  25.071   1.252
12865W        W84591  41.457  19.518   1.841
12866W        W84592  43.533   8.741   5.097
12867W        W84593  11.885  19.115   4.219
12868W        W84594  19.166  20.027   1.386
12869W        W84595   1.725   1.750   3.323
12870W        W84596   8.952  40.350   2.538
12871W        W84597  19.589  37.834   2.664
12872W        W84598  37.845  34.275   3.706
12873W        W84599  11.649  34.868  14.245
12874W        W84600  10.318   2.264   4.567
12875W        W84601   7.759  38.810  12.990
12876W        W84602  27.181  13.173   3.213
12877W        W84603  36.902  37.531  12.675
12878W        W84604  32.915  11.883  13.478
12879W        W84605  11.351  29.460   2.703
12880W        W84606  20.074   2.732  10.671
12881W        W84607  23.092   3.297   1.514
12882W        W84608  30.210  38.928   2.837
12883W        W84609  10.160  17.907   1.709
12884W        W84610  44.380  42.368   0.377
12885W        W84611  22.398  38.126  11.490
12886W        W84612  11.419  26.638  11.427
12887W        W84613  10.206  34.837  13.838
12888W        W84614   9.038   7.142  13.904
12889W        W84615  17.566   1.265   0.402
12890W        W84616   4.342  23.945  14.944
12891W        W84617  41.775  34.628   1.045
12892W        W84618  40.237  25.773  11.604
12893W        W84619  31.559  13.588  11.200
12894W        W84620  29.169   5.253  10.867
12895W        W84621  41.929  38.085   3.683
12896W        W84622  34.357  15.213   1.436
12897W        W84623   5.839  22.227  14.015
12898W        W84624  33.561   4.473   1.776
12899W        W84625  17.364  10.315  11.994
12900W        W84626  37.108  15.361   2.837
12901W        W84627   6.859  23.708   2.866
12902W        W84628  13.906   3.694   3.354
12903W        W84629  42.950  36.010   4.155
12904W        W84630  22.066  21.182  13.298
12905W        W84631   7.757   3.800  14.923
12906W        W84632  23.106  37.513  12.095
12907W        W84633  28.684  17.208   4.705
12908W        W84634  42.935   2.517  11.171
12909W        W84635  29.556  21.727   0.333
12910W        W84636  15.304  41.445   3.692
12911W        W84637  10.686  15.134  10.571
12912W        W84638   7.855  15.773  14.270
12913W        W84639  43.767   3.795  12.069
12914W        W84640   2.921  33.973  12.886
12915W        W84641  25.527  28.506   4.048
12916W        W84642  34.903  37.303  13.354
12917W        W84643  14.772  12.449  12.114
12918W        W84644   2.651  13.707   0.031
12919W        W84645  31.961   3.466   0.447
12920W        W84646  44.124  29.267   3.769
12921W        W84647  27.738  21.775   1.833
12922W        W84648   5.834  43.243  14.767
12923W        W84649  14.876  21.678   4.755
12924W        W84650  18.873  36.936   4.900
12925W        W84651   1.276  30.425  12.344
12926W        W84652   1.705   6.160   4.881
12927W        W84653  19.840  21.039   2.754
12928W        W84654  31.557  15.239  14.809
12929W        W84655  13.889  32.436   3.676
12930W        W84656   0.269  11.545  11.610
12931W        W84657  17.986  44.553   2.277
12932W        W84658  18.784   8.640   2.665
12933W        W84659  19.656  39.760  11.554
12934W        W84660  30.584  32.036  11.652
12935W        W84661  18.460  11.799   9.804
12936W        W84662  16.104   6.243  11.669
12937W        W84663  32.944  18.350  13.521
12938W        W84664  35.280  35.958  13.634
12939W        W84665   3.557   1.343   0.848
12940W        W84666  34.992  37.940   2.793
12941W        W84667  41.803  22.205   3.341
12942W        W84668   7.154  27.919   0.863
12943W        W84669   9.335  15.278  13.642
12944W        W84670   4.347   6.130   0.842
12945W        W84671   2.689   2.451  10.528
12946W        W84672  44.729  28.200   3.311
12947W        W84673  18.211  21.570   2.556
12948W        W84674  11.744   3.832   0.906
12949W        W84675  26.127  19.645  12.454
12950W        W84676  41.602   7.645  13.798
12951W        W84677   9.346  10.499  12.468
12952W        W84678  22.712  35.002  14.984
12953W        W84679  38.893   8.250  14.416
12954W        W84680   5.880  34.464  12.449
12955W        W84681  32.852   5.025   1.797
12956W        W84682  36.476  44.267   4.979
12957W        W84683  13.244  35.533   0.260
12958W        W84684  26.425   0.674   3.079
12959W        W84685  23.944  20.720   3.574
12960W        W84686   0.019  19.252  14.273
12961W        W84687   8.445  11.631   1.423
12962W        W84688   3.120  18.858   2.166
12963W        W84689  10.863  19.654  13.360
12964W        W84690  31.439  12.652   3.936
12965W        W84691  36.188  35.049  13.136
12966W        W84692  22.955  24.106  11.235
12967W        W84693  24.181   3.248  14.488
12968W        W84694  21.129   3.081  13.531
12969W        W84695   8.309  10.033   4.264
12970W        W84696  17.789   6.196   2.290
12971W        W84697  31.422  18.057  14.880
12972W        W84698  39.988  19.217   3.777
12973W        W84699  34.980  29.993   0.016
12974W        W84700  28.212  41.544   0.832
12975W        W84701  43.926  20.896  11.093
12976W        W84702  28.994  31.103   3.351
12977W        W84703  18.270   6.222   0.858
12978W        W84704  10.829  15.076   4.250
12979W        W84705   9.673  11.312  11.993
12980W        W84706  36.978  20.069   1.525
12981W        W84707  32.980  44.502   3.080
12982W        W84708   7.797   1.235   3.164
12983W        W84709  34.568  44.761   4.860
12984W        W84710  26.478  42.043   2.867
12985W        W84711  23.549  44.864   0.025
12986W        W84712  34.864  16.980   2.414
12987W        W84713  25.909  35.390  11.858
12988W        W84714  37.040  44.040   3.167
12989W        W84715  33.524   4.870  11.194
12990W        W84716   4.931  21.803  10.862
12991W        W84717   5.439  15.748   3.282
12992W        W84718  29.373  17.003  13.470
12993W        W84719  20.250  19.145   1.937
12994W        W84720  41.592  12.108   4.947
12995W        W84721  20.051  19.171  14.126
12996W        W84722  24.768  37.725  12.501
12997W        W84723  25.016  13.186   2.043
12998W        W84724  19.316  15.327  13.827
12999W        W84725  17.313  19.473  14.363
13000W        W84726  23.706  18.721   2.834
13001W        W84727  33.115  43.497  14.424
13002W        W84728   8.771  16.079  11.210
13003W        W84729   7.930   1.963   3.334
13004W        W84730  10.341  30.964  13.810
13005W        W84731   2.781  34.990  12.673
13006W        W84732  26.136  38.014   2.000
13007W        W84733  26.565  34.231  12.946
13008W        W84734  16.017  14.316  10.117
13009W        W84735  34.660   6.397  11.228
13010W        W84736   7.787   6.287   9.697
13011W        W84737   0.460  17.171  14.042
13012W        W84738   9.728  38.173   4.125
13013W        W84739  42.570  24.037  11.500
13014W        W84740  18.029   4.855  13.098
13015W        W84741  33.239  11.538  14.864
13016W        W84742  11.634  15.379   4.709
13017W        W84743  22.110  30.386  12.556
13018W        W84744  15.683  15.738   5.007
13019W        W84745  31.552  41.887   0.348
13020W        W84746   1.878  31.654   4.119
13021W        W84747  21.637   2.827   4.180
13022W        W84748  14.328  11.296  11.127
13023W        W84749  33.837  39.950  10.699
13024W        W84750  35.808  16.247   1.440
13025W        W84751   1.231   6.908  14.497
13026W        W84752  17.846  12.250   1.242
13027W        W84753  37.424  26.925  10.474
13028W        W84754  22.035   0.463   2.227
13029W        W84755   1.193  20.188  13.048
13030W        W84756  32.368  23.605   3.295
13031W        W84757  43.456   1.314  13.038
13032W        W84758  24.175  27.640  10.078
13033W        W84759  24.792   4.136   1.731
13034W        W84760  42.501  17.295   2.789
13035W        W84761  27.487   9.381   0.907
13036W        W84762  25.675  29.537   3.205
13037W        W84763   9.335  39.959  13.866
13038W        W84764  33.541  39.613  11.588
13039W        W84765   9.827  31.014  13.825
13040W        W84766  40.439   0.325  13.974
13041W        W84767  23.057  19.496   1.861
13042W        W84768  14.684  19.042  14.437
13043W        W84769  27.537  35.558  10.579
13044W        W84770  37.192  38.985  11.011
13045W        W84771   1.937  24.482  10.459
13046W        W84772   1.518  18.042  11.501
13047W        W84773  37.149   8.365  11.196
13048W        W84774  40.762  31.324  12.986
13049W        W84775  30.710  17.287  14.389
13050W        W84776  17.631  38.417   3.238
13051W        W84777  29.952  39.330   2.578
13052W        W84778  13.834  25.089  13.496
13053W        W84779  34.443  19.094   4.127
13054W        W84780  14.723  43.045   0.712
13055W        W84781   5.978  43.942  14.493
13056W        W84782  32.141  25.660  13.995
13057W        W84783  29.588  43.891  12.905
13058W        W84784  35.851  26.672  11.989
13059W        W84785  29.205   3.397  11.476
13060W        W84786   5.477  15.798   3.806
13061W        W84787  24.503  12.846   4.636
13062W        W84788  17.034   6.098   1.494
13063W        W84789  20.977  43.313   2.219
13064W        W84790  25.154   7.698   2.603
13065W        W84791   9.604  20.187   4.582
13066W        W84792  20.554  29.554   4.614
13067W        W84793   8.250  42.329   1.730
13068W        W84794  20.138  19.273  13.622
13069W        W84795  23.534   3.495  13.341
13070W        W84796  15.804  42.229  13.682
13071W        W84797   2.627   5.355   2.348
13072W        W84798   0.957  41.446  12.073
13073W        W84799   4.868  36.979  10.751
13074W        W84800  40.514  39.236   4.579
13075W        W84801  13.318  27.932  12.535
13076W        W84802  39.616  26.994  11.092
13077W        W84803  15.797  15.614   3.131
13078W        W84804  31.604  14.537  14.394
13079W        W84805  12.809  15.796   3.813
13080W        W84806  17.988   0.408   1.501
13081W        W84807  25.053  17.052  13.740
13082W        W84808   5.217  35.555   0.785
13083W        W84809   0.724  12.223   2.797
13084W        W84810  20.782  33.881  12.382
13085W        W84811   5.276  13.668   1.147
13086W        W84812  20.137  12.744   1.623
13087W        W84813  18.335  39.027   4.074
13088W        W84814  24.271  36.895   2.841
13089W        W84815   2.339  17.045   0.937
13090W        W84816  31.554  10.695  10.501
13091W        W84817   5.888   6.152   3.897
13092W        W84818  38.650   8.221  13.051
13093W        W84819  24.998  20.609  13.675
13094W        W84820  20.995  24.949  11.611
13095W        W84821   3.755  10.783   3.658
13096W        W84822   6.908  40.246   1.692
13097W        W84823   4.690  16.774  12.914
13098W        W84824  25.734  44.674   2.204
13099W        W84825  42.393  28.973  13.613
13100W        W84826   6.518   9.870  11.569
13101W        W84827   0.501  17.194  14.921
13102W        W84828   5.974  17.811   2.209
13103W        W84829   6.723  21.540  11.348
13104W        W84830  24.206  22.929   0.237
13105W        W84831  11.166   7.578  14.416
13106W        W84832  33.555  25.919  10.704
13107W        W84833  10.974  30.653  12.065
13108W        W84834  17.255  36.353  13.320
13109W        W84835   7.280  21.715   2.246
13110W        W84836   4.128  19.606   3.819
13111W        W84837  39.839  13.726   1.665
13112W        W84838  27.023  39.343  10.981
13113W        W84839  11.093   5.897  11.989
13114W        W84840  33.192   7.705  11.273
13115W        W84841   3.289  32.628  11.136
13116W        W84842  44.310   4.480  11.591
13117W        W84843   9.471  32.027  11.525
13118W        W84844   7.199  39.849  11.722
13119W        W84845  13.551   6.515   4.580
13120W        W84846  35.908  26.475   0.896
13121W        W84847  34.552   8.958   1.827
13122W        W84848  19.271  28.177   4.394
13123W        W84849   0.725   2.839   0.984
13124W        W84850  42.347  40.474   4.432
13125W        W84851  37.437  32.208   3.264
13126W        W84852   1.984  19.786  14.487
13127W        W84853  35.503  27.555   3.450
13128W        W84854  38.353  34.904   3.362
13129W        W84855  38.623  38.944   4.596
13130W        W84856   3.000  25.599   1.816
13131W        W84857  35.438  14.604   2.340
13132W        W84858  34.529  24.830   4.219
13133W        W84859   5.094  25.852  13.363
13134W        W84860  12.283   5.423  10.565
13135W        W84861  11.417  11.028   3.283
13136W        W84862  34.624  43.232  13.371
13137W        W84863  12.464   7.415  11.607
13138W        W84864   3.506  14.710   2.679
13139W        W84865  18.717   8.082  11.499
13140W        W84866   7.317  23.384   2.274
13141W        W84867  32.863  34.658   1.720
13142W        W84868  37.584   1.990  12.696
13143W        W84869  29.525  31.193  12.421
13144W        W84870  24.283  20.748  10.625
13145W        W84871   1.146  38.415   2.266
13146W        W84872  33.179  16.112  12.938
13147W        W84873  33.029  37.082   2.737
13148W        W84874  41.059  26.476  11.559
13149W        W84875  18.151   1.182   2.559
13150W        W84876  12.222  12.155  13.898
13151W        W84877  13.898  19.032   1.220
13152W        W84878  12.113   2.815  14.347
13153W        W84879   3.685  30.524   0.086
13154W        W84880   6.414  16.983   3.333
13155W        W84881  19.346  42.841  13.360
13156W        W84882  31.491  18.268   0.457
13157W        W84883  37.872  36.138   0.252
13158W        W84884  36.910  22.274   4.484
13159W        W84885  10.832  18.856  14.807
13160W        W84886   9.853  18.167   2.194
13161W        W84887  42.799  28.588  11.594
13162W        W84888   0.736   1.933  10.358
13163W        W84889   7.928  20.727   0.389
13164W        W84890  42.354  40.031  11.228
13165W        W84891  39.833  37.050   3.411
13166W        W84892   2.467   7.798  13.002
13167W        W84893  37.492  19.045  11.678
13168W        W84894  13.887  29.209  12.986
13169W        W84895  25.483  21.575   1.698
13170W        W84896  18.635  31.448   1.481
13171W        W84897  40.096  16.144   0.800
13172W        W84898  40.695  32.459  11.614
13173W        W84899  24.956  20.961  11.932
13174W        W84900  31.748  43.731  11.532
13175W        W84901  27.905  17.221  13.631
13176W        W84902  12.804  37.248  13.149
13177W        W84903   6.834   8.285   4.667
13178W        W84904  43.237  19.847  11.549
13179W        W84905   3.355  44.010   0.011
13180W        W84906  11.759  31.652  12.123
13181W        W84907  10.166  33.309  14.824
13182W        W84908  23.052  14.920  11.108
13183W        W84909  42.601  32.040   4.155
13184W        W84910   8.858  25.939   3.683
13185W        W84911   7.444  35.856  12.845
13186W        W84912  22.057   6.643  13.926
13187W        W84913  43.339   6.589   3.171
13188W        W84914  20.208  20.355  14.925
13189W        W84915   5.220  33.625   4.582
13190W        W84916  11.413  38.620   1.269
13191W        W84917  27.661   0.404  14.461
13192W        W84918   6.731   4.653   3.384
13193W        W84919  40.751  32.160  11.186
13194W        W84920  40.491  13.180   0.291
13195W        W84921  22.968  20.010   2.603
13196W        W84922  25.245   5.839  12.523
13197W        W84923  41.081  40.909  11.811
13198W        W84924  17.770  36.756  10.644
13199W        W84925  34.522  38.091   3.102
13200W        W84926  34.882  17.847  13.581
13201W        W84927  21.208  33.985  11.097
13202W        W84928  28.206   0.433   1.625
13203W        W84929  21.444  41.331  10.743
13204W        W84930  37.097  39.525   1.478
13205W        W84931  31.644  42.366   2.490
13206W        W84932  28.738  16.502   0.593
13207W        W84933  15.372  19.800  14.004
13208W        W84934   0.399  22.158   4.730
13209W        W84935  12.352  29.636   3.559
13210W        W84936   6.805  16.623  12.463
13211W        W84937  41.843  38.259  10.744
13212W        W84938  23.103  25.240   1.975
13213W        W84939  38.396   0.063   1.327
13214W        W84940  23.440  21.098  12.112
13215W        W84941  32.779  15.658  14.982
13216W        W84942   7.373  33.644   4.256
13217W        W84943  14.245  42.921   4.982
13218W        W84944  15.692  14.714   3.537
13219W        W84945  24.250  44.376  13.507
13220W        W84946  12.608  13.335   1.654
13221W        W84947  32.968  17.178  11.394
13222W        W84948   9.867  22.483  10.192
13223W        W84949   1.750  39.986  11.870
13224W        W84950  39.947  28.949  11.270
13225W        W84951  43.464  29.435   3.189
13226W        W84952  23.528  38.856   0.453
13227W        W84953  41.741   3.729   3.839
13228W        W84954  21.546  30.139   1.098
13229W        W84955  28.523   2.346   1.693
13230W        W84956   9.337  27.450  12.522
13231W        W84957  20.279  44.846   2.290
13232W        W84958  44.672  39.121   1.854
13233W        W84959  44.466  14.061   3.332
13234W        W84960  33.956  24.073   1.758
13235W        W84961  41.789  16.801  12.364
13236W        W84962  32.617  10.381  13.958
13237W        W84963  12.166  42.766  14.749
13238W        W84964  10.384  18.748  13.497
13239W        W84965  21.853  18.235   0.369
13240W        W84966  28.033  39.828   3.998
13241W        W84967   1.586  27.590   1.332
13242W        W84968  23.640  26.657   4.991
13243W        W84969  44.116   9.369   0.970
13244W        W84970  38.352   6.233   2.739
13245W        W84971  14.877  40.874   2.030
13246W        W84972  42.947  30.273   3.767
13247W        W84973   1.883  39.502   0.690
13248W        W84974  21.513  16.141  13.959
13249W        W84975   0.420  23.730   3.258
13250W        W84976  40.072  21.524   0.312
13251W        W84977  42.550   2.893  13.722
13252W        W84978  19.778   1.920   4.551
13253W        W84979  16.807  36.079  13.337
13254W        W84980   8.150  23.475  14.388
13255W        W84981   9.880  10.429  12.446
13256W        W84982  21.468   8.769  14.284
13257W        W84983  11.893  38.052   3.168
13258W        W84984  14.085  10.383   1.802
13259W        W84985  10.881  16.255   0.397
13260W        W84986  44.398  18.731   3.178
13261W        W84987  30.721  18.138   2.903
13262W        W84988   8.522  15.788  10.068
13263W        W84989  44.449  26.423  11.793
13264W        W84990  38.181  33.961  13.284
13265W        W84991  23.251   7.368   1.380
13266W        W84992  18.998  41.056   1.353
13267W        W84993  20.388  36.024   2.404
13268W        W84994  22.919  26.355   3.352
13269W        W84995  20.896   9.295   4.303
13270W        W84996  21.104  25.126   2.673
13271W        W84997  12.332  11.787   2.616
13272W        W84998  22.624  30.920  13.029
13273W        W84999  33.019  33.647   1.160
13274W        W85000  32.559  12.126   4.782
13275W        W85001   3.738  25.299   2.453
13276W        W85002  37.159  26.015   4.826
13277W        W85003  36.863  41.850   4.840
13278W        W85004  33.103  23.263  11.092
13279W        W85005  30.932  24.426   1.317
13280W        W85006   2.402  17.569  14.975
13281W        W85007   2.136  32.384   2.179
13282W        W85008  31.768  31.328   1.462
13283W        W85009  35.569  44.742  11.074
13284W        W85010  12.746   2.450   3.630
13285W        W85011   8.960  35.987   4.896
13286W        W85012  42.043   6.255  11.254
13287W        W85013   5.477   4.345   3.624
13288W        W85014  21.323   6.955  14.343
13289W        W85015  15.146  29.503  12.153
13290W        W85016   3.183   4.115  10.974
13291W        W85017  13.801  35.813  13.031
13292W        W85018  31.495  21.938   1.924
13293W        W85019  10.424   9.129  10.709
13294W        W85020  37.597   3.784   3.196
13295W        W85021  28.224  19.753  14.987
13296W        W85022  42.864  42.044   2.715
13297W        W85023  41.522   2.729   1.456
13298W        W85024  33.150  33.301  13.515
13299W        W85025  28.778   1.452  12.873
13300W        W85026  13.998   2.351   2.961
13301W        W85027   7.975  15.434  13.902
13302W        W85028  36.472   0.298  14.040
13303W        W85029  12.051  24.490  10.450
13304W        W85030  32.055   7.217   4.709
13305W        W85031  28.400  41.492   5.185
13306W        W85032   3.007  35.173  11.661
13307W        W85033   9.862  36.425   1.795
13308W        W85034  12.778   8.699   1.232
13309W        W85035  19.257   5.491   3.866
13310W        W85036  10.844  42.358   4.292
13311W        W85037   4.264  28.161  12.675
13312W        W85038  31.988  36.126   2.704
13313W        W85039  39.776  28.390  14.903
13314W        W85040  12.528   8.155  14.018
13315W        W85041  34.866  40.180  14.434
13316W        W85042  41.009  28.965  12.989
13317W        W85043  23.196   0.077  14.216
13318W        W85044  34.856   0.318   1.173
13319W        W85045  24.652   5.155   3.234
13320W        W85046  41.941  37.142  12.007
13321W        W85047   2.059  44.984  11.052
13322W        W85048  27.951  11.350   1.345
13323W        W85049   8.754  22.115   3.162
13324W        W85050  26.575  34.877  14.655
13325W        W85051  10.941  16.852   4.080
13326W        W85052   7.216  38.603   4.219
13327W        W85053   4.413  10.675   1.016
13328W        W85054   2.205   3.811   4.080
13329W        W85055  23.225  32.335   2.828
13330W        W85056  35.344  26.877   4.604
13331W        W85057  14.082  32.357   2.703
13332W        W85058  37.654  28.830  14.563
13333W        W85059  28.125   4.356   4.205
13334W        W85060  39.001   0.214   2.112
13335W        W85061  13.309  34.977  10.883
13336W        W85062  36.461  34.078   3.788
13337W        W85063  36.045  30.615   3.140
13338W        W85064  22.405   6.220   2.108
13339W        W85065  43.317  23.404  10.762
13340W        W85066  44.042  23.578  11.690
13341W        W85067  40.815  14.573   4.128
13342W        W85068   1.722  42.063   3.011
13343W        W85069  12.543   1.851  13.843
13344W        W85070  32.656  41.332  14.924
13345W        W85071  25.970   4.531  12.987
13346W        W85072  20.538  19.703   0.397
13347W        W85073  14.205  23.224  14.324
13348W        W85074  15.257  14.387  12.415
13349W        W85075  14.227  36.367   4.627
13350W        W85076  34.336  38.251  11.123
13351W        W85077  10.742  32.936  12.996
13352W        W85078   4.632   5.832   4.585
13353W        W85079  17.503  29.136   0.441
13354W        W85080  18.068  18.161  12.320
13355W        W85081  32.021  21.471   0.805
13356W        W85082  30.649  32.141   3.593
13357W        W85083  25.733  15.090   2.781
13358W        W85084   1.783  15.614  13.995
13359W        W85085  13.868  17.832   4.214
13360W        W85086  28.834  36.756   2.303
13361W        W85087  10.642  18.000  14.608
13362W        W85088  38.986  31.162  13.531
13363W        W85089   5.282  14.671   4.373
13364W        W85090  27.445  34.862  14.078
13365W        W85091  10.779  11.459   4.608
13366W        W85092  15.610   2.353   3.081
13367W        W85093   0.912  16.632   1.541
13368W        W85094  11.872  44.876   3.697
13369W        W85095  38.446  10.873  11.824
13370W        W85096  19.201  21.174  13.538
13371W        W85097  29.634   7.216  12.853
13372W        W85098   7.446  34.024  13.875
13373W        W85099   4.720  26.397  12.864
13374W        W85100   3.745  42.599  13.074
13375W        W85101  23.688  24.013   4.106
13376W        W85102  21.586  14.742   4.635
13377W        W85103  12.173  42.365  11.118
13378W        W85104   4.343   1.934   4.496
13379W        W85105  34.179  30.876   4.846
13380W        W85106   8.724  33.592   2.162
13381W        W85107  22.299  22.747  13.390
13382W        W85108  26.560  13.114   0.255
13383W        W85109  30.538  22.683   2.435
13384W        W85110  13.487   8.772   3.268
13385W        W85111   3.864   2.752  14.345
13386W        W85112  19.354  25.777  11.479
13387W        W85113  19.632  39.465   1.715
13388W        W85114  16.069   8.389   2.880
13389W        W85115  29.155  21.801   2.881
13390W        W85116  35.836  18.349  10.945
13391W        W85117   2.879   6.904   3.133
13392W        W85118  30.704  32.144  12.149
13393W        W85119  22.627  11.200  12.458
13394W        W85120   6.071  24.697   2.406
13395W        W85121   2.409  11.774  14.251
13396W        W85122  26.970   6.328  13.919
13397W        W85123   3.474  27.904  11.441
13398W        W85124  29.903  42.233   3.175
13399W        W85125  32.939  33.163  12.126
13400W        W85126  31.481  20.888  11.208
13401W        W85127  27.678   7.628   0.286
13402W        W85128  13.753  37.924   3.265
13403W        W85129   6.164  19.762   2.329
13404W        W85130   9.287  38.924   3.245
13405W        W85131   3.479   8.698   2.838
13406W        W85132   0.995   8.883   3.312
13407W        W85133  24.749  31.642  11.128
13408W        W85134  41.067  39.914   0.384
13409W        W85135  42.277  43.759   1.272
13410W        W85136  32.846  29.119  12.542
13411W        W85137  23.855  25.153   4.579
13412W        W85138  23.773  29.426   0.917
13413W        W85139  36.546  13.649   1.485
13414W        W85140  43.815   2.308   2.408
13415W        W85141  11.933  15.874  13.775
13416W        W85142  32.907  29.859   3.217
13417W        W85143   9.398  34.156   9.956
13418W        W85144  18.437  39.122   0.827
13419W        W85145  13.944  29.057  13.867
13420W        W85146   9.400  44.703  12.858
13421W        W85147   9.172  42.398   3.885
13422W        W85148  11.102  22.026  11.537
13423W        W85149   7.843  32.068   4.385
13424W        W85150  20.579  10.339  14.420
13425W        W85151   8.083  17.712   4.317
13426W        W85152   4.909  33.581   0.828
13427W        W85153   7.137  22.499  13.623
13428W        W85154  40.630  38.873   4.219
13429W        W85155   5.217  27.762  11.115
13430W        W85156  36.065  35.603  13.810
13431W        W85157  35.552  16.621   4.112
13432W        W85158  33.162  28.137   3.260
13433W        W85159  34.062  16.733  14.451
13434W        W85160  44.339  10.386   3.740
13435W        W85161  39.298  26.899   2.614
13436W        W85162  20.063  33.855   0.742
13437W        W85163  44.754   0.195  14.098
13438W        W85164  21.223  26.279  10.962
13439W        W85165  19.741  10.816  12.057
13440W        W85166  23.123  40.749   4.139
13441W        W85167   1.025   0.827  11.884
13442W        W85168  12.671  37.532  11.060
13443W        W85169  37.043   5.052  13.791
13444W        W85170  24.617  25.266   0.304
13445W        W85171  21.689  19.123   3.256
13446W        W85172  11.644   0.266  11.591
13447W        W85173  35.962  44.521  10.757
13448W        W85174  26.042  16.363   1.289
13449W        W85175   7.948  29.222  12.106
13450W        W85176  26.223   0.799  12.685
13451W        W85177   9.616  37.426   0.999
13452W        W85178  15.779  22.243  12.559
13453W        W85179  18.133  16.767   4.333
13454W        W85180  36.421  36.540   1.773
13455W        W85181   4.424  32.032  10.993
13456W        W85182  20.727  26.047   9.714
13457W        W85183  32.842  41.913   2.096
13458W        W85184  12.698  22.277   1.717
13459W        W85185  32.346   5.116   0.818
13460W        W85186  25.424   7.605  13.862
13461W        W85187  10.134  36.313   1.369
13462W        W85188   8.348   2.807  12.087
13463W        W85189   0.793   8.303  10.728
13464W        W85190  35.566  23.052   2.363
13465W        W85191  39.991  23.608  11.926
13466W        W85192  14.171   6.200   0.475
13467W        W85193  37.037  34.045   4.479
13468W        W85194   3.332  38.802  13.784
13469W        W85195  26.093  21.654   0.894
13470W        W85196  42.510  36.501   1.647
13471W        W85197  38.421   2.539  13.034
13472W        W85198  15.449  31.470  14.466
13473W        W85199  16.259   6.211  13.289
13474W        W85200  38.861  40.296  11.526
13475W        W85201   0.742  28.107   1.867
13476W        W85202   5.092   3.482  12.079
13477W        W85203  25.436  44.296  10.233
13478W        W85204  14.805  23.785   2.761
13479W        W85205  23.621  12.129  10.532
13480W        W85206   7.708  35.571  11.235
13481W        W85207  18.219  28.938   4.225
13482W        W85208  38.388  36.421  13.720
13483W        W85209  32.693   5.297  13.364
13484W        W85210  42.802  29.696  11.616
13485W        W85211  25.216   8.617   2.838
13486W        W85212  29.956  25.563   2.701
13487W        W85213  41.895   7.362   3.797
13488W        W85214  20.986  36.839  12.540
13489W        W85215  23.530  37.434  14.347
13490W        W85216  42.466  37.915  14.803
13491W        W85217  31.706  16.550   0.081
13492W        W85218  14.027  38.867   1.619
13493W        W85219  27.659  32.274  13.409
13494W        W85220  10.792  14.810   1.119
13495W        W85221  12.083  35.843   3.751
13496W        W85222  15.158  17.160   4.683
13497W        W85223  34.872  37.080  10.717
13498W        W85224  13.402  12.387  12.034
13499W        W85225  43.732  31.668  13.301
13500W        W85226  39.487  21.042  13.619
13501W        W85227  25.575  40.783   2.159
13502W        W85228  12.286   7.878   1.732
13503W        W85229   5.355  36.047  12.167
13504W        W85230  20.116  23.578  12.886
13505W        W85231  18.026  20.430  13.445
13506W        W85232   7.784   1.557   9.932
13507W        W85233  24.323  27.579  11.070
13508W        W85234  10.317  21.308  10.740
13509W        W85235  42.864  24.073  11.930
13510W        W85236  33.106  28.914  13.529
13511W        W85237  38.142  34.771   5.012
13512W        W85238  44.992   4.805   9.619
13513W        W85239  43.280  24.272   3.846
13514W        W85240  44.152  19.599  12.569
13515W        W85241  32.000  43.387   1.684
13516W        W85242   4.846  35.623   3.705
13517W        W85243  25.581  19.226  12.839
13518W        W85244   4.861  28.804  11.993
13519W        W85245  32.113  16.805   0.253
13520W        W85246  41.557  33.321   2.627
13521W        W85247  10.720  27.200   1.820
13522W        W85248   1.848  40.513  11.951
13523W        W85249  43.396  28.818  12.988
13524W        W85250  35.328  25.072  14.970
13525W        W85251  25.478  43.804  12.443
13526W        W85252  17.363  30.484  11.344
13527W        W85253  37.564  44.798   3.329
13528W        W85254  30.621   8.083  12.525
13529W        W85255   8.730  39.455   2.693
13530W        W85256  32.037  40.793  11.120
13531W        W85257  20.070  23.439   1.800
13532W        W85258   3.263  40.390  11.572
13533W        W85259  16.585  39.380   3.512
13534W        W85260   5.441  27.961  10.694
13535W        W85261  41.521  38.476   2.151
13536W        W85262  20.513  27.927   2.655
13537W        W85263  13.090  26.485   5.013
13538W        W85264  12.289  20.522  12.541
13539W        W85265  17.099  14.070   4.608
13540W        W85266  18.323  39.407   0.013
13541W        W85267  31.089  31.384  13.164
13542W        W85268  29.036  24.243   0.518
13543W        W85269  13.045  42.512  12.555
13544W        W85270  34.622  27.399   1.961
13545W        W85271  18.986   2.948   0.722
13546W        W85272  11.336  41.302   2.293
13547W        W85273  21.791  37.102   2.183
13548W        W85274  15.867  33.950   4.470
13549W        W85275  43.408  12.594   3.712
13550W        W85276  24.752  20.721  10.894
13551W        W85277  12.246  37.259  11.957
13552W        W85278  16.578  42.878   4.573
13553W        W85279  44.803  24.058  11.397
13554W        W85280   9.465  17.674  13.396
13555W        W85281   2.898  43.244   3.248
13556W        W85282   9.287  18.053   4.030
13557W        W85283   4.331  13.342  10.712
13558W        W85284  15.329  15.716  10.657
13559W        W85285  15.507   2.699  13.036
13560W        W85286  33.447  11.086  11.350
13561W        W85287  19.285   6.864  13.332
13562W        W85288  38.018  29.446  13.525
13563W        W85289  17.746  35.668   1.287
13564W        W85290  26.461  15.298  13.625
13565W        W85291  16.202  41.083  12.006
13566W        W85292  11.938   3.089  13.082
13567W        W85293  26.250  24.618   2.409
13568W        W85294  10.649   0.761  12.430
13569W        W85295   6.325  19.811   4.077
13570W        W85296   1.026   3.538   1.784
13571W        W85297   5.218  24.140  13.166
13572W        W85298  41.043  23.985   1.712
13573W        W85299   5.114  36.985  12.535
13574W        W85300  34.342  42.570   2.946
13575W        W85301  22.446  16.684  11.888
13576W        W85302  44.688  22.831  12.049
13577W        W85303  25.520  10.960  14.489
13578W        W85304  13.162  39.043   2.259
13579W        W85305  17.834  16.642   2.138
13580W        W85306  12.783  21.509  13.343
13581W        W85307  23.274  38.364  13.265
13582W        W85308  30.811  27.763  13.165
13583W        W85309  39.829   0.282   3.199
13584W        W85310  36.091  20.524  11.233
13585W        W85311   2.758   2.484  12.481
13586W        W85312   4.171  44.431  10.714
13587W        W85313  43.991  17.792   0.741
13588W        W85314   1.837   5.192   0.945
13589W        W85315  26.517  35.188   0.797
13590W        W85316  15.869  40.923   3.083
13591W        W85317  18.223  41.981  14.426
13592W        W85318   7.689   8.196   0.831
13593W        W85319  29.085  19.825  14.077
13594W        W85320  39.744  32.427  12.649
13595W        W85321  32.103  30.009  13.442
13596W        W85322  14.572  36.014   3.730
13597W        W85323  22.095   8.829   4.480
13598W        W85324  20.611  14.731   3.160
13599W        W85325  24.037  21.728   2.606
13600W        W85326  26.257  18.080  13.043
13601W        W85327  31.032  23.549   0.465
13602W        W85328  11.126   3.922   3.605
13603W        W85329  30.941  34.393   1.986
13604W        W85330  10.119  23.514  13.415
13605W        W85331  26.396   4.751   2.204
13606W        W85332  28.264  43.363  14.369
13607W        W85333  43.498   7.215   1.763
13608W        W85334  21.567   2.525  12.110
13609W        W85335  42.781  44.243   0.882
13610W        W85336  40.321  44.687   5.020
13611W        W85337  35.613   2.146   4.540
13612W        W85338  25.357  12.794   3.291
13613W        W85339   7.839  14.967  12.593
13614W        W85340  17.622   4.475   4.606
13615W        W85341  17.368  10.116   5.112
13616W        W85342  44.312  10.351  13.697
13617W        W85343  13.400  19.553   0.784
13618W        W85344  15.324  19.541   3.025
13619W        W85345  16.136  35.406  11.090
13620W        W85346   7.275  44.349  10.454
13621W        W85347  22.480  10.196  12.079
13622W        W85348   1.036  22.125  12.108
13623W        W85349  33.887  19.527  11.070
13624W        W85350  16.654  33.308   2.629
13625W        W85351  32.913  36.922  10.947
13626W        W85352  38.316  24.636  12.850
13627W        W85353  16.295  37.609   2.557
13628W        W85354  34.527   8.495  13.113
13629W        W85355  16.307   6.814   0.241
13630W        W85356  44.224  37.590   4.524
13631W        W85357  44.013   2.823   1.730
13632W        W85358  10.606  12.152  12.435
13633W        W85359   7.180  42.729  14.407
13634W        W85360  20.613   8.181   1.762
13635W        W85361   0.891  40.261  14.646
13636W        W85362  24.660  30.480   2.393
13637W        W85363  34.242  42.966   4.113
13638W        W85364  39.107  23.453  12.482
13639W        W85365  38.659  35.709   4.289
13640W        W85366  18.098   3.508  14.317
13641W        W85367  15.194  43.728  13.421
13642W        W85368  30.099  27.246   3.751
13643W        W85369  15.218  39.305   2.099
13644W        W85370  14.109  31.230   0.515
13645W        W85371  10.684  39.245  12.460
13646W        W85372  41.672  22.459  12.111
13647W        W85373  20.602  22.704   0.164
13648W        W85374  18.984  17.590   2.804
13649W        W85375  17.614  32.627   1.249
13650W        W85376  19.408  31.039  10.984
13651W        W85377  33.279  37.404  10.273
13652W        W85378  13.578  36.499   4.245
13653W        W85379  31.858  30.121   4.358
13654W        W85380  18.649  27.988  12.264
13655W        W85381  36.464   3.892   0.645
13656W        W85382   6.429  25.632   2.160
13657W        W85383  44.415  34.440  13.534
13658W        W85384  15.636  32.089   0.342
13659W        W85385  16.526  15.153   1.835
13660W        W85386  10.929  44.824  12.652
13661W        W85387  34.499  30.111   3.244
13662W        W85388  10.795  11.755   1.724
13663W        W85389  33.946  10.164  14.672
13664W        W85390  39.075   5.662  13.012
13665W        W85391  18.203   0.046  10.786
13666W        W85392  36.993  33.360   4.773
13667W        W85393  42.911  15.008   3.646
13668W        W85394  11.161  29.949   3.433
13669W        W85395  40.099  22.099   0.427
13670W        W85396  42.450  20.332   1.775
13671W        W85397  11.731  12.451  13.491
13672W        W85398  37.515  22.081   2.153
13673W        W85399  15.357  32.478   0.037
13674W        W85400  36.556  23.773   2.809
13675W        W85401  12.886  32.328  11.990
13676W        W85402  35.992   6.352   3.806
13677W        W85403   4.682  18.210  10.704
13678W        W85404   6.343   7.397   0.732
13679W        W85405  24.946  23.661   0.319
13680W        W85406  32.182  17.228   1.011
13681W        W85407  32.008  39.843  10.526
13682W        W85408   8.352   7.463   3.810
13683W        W85409  10.825  21.804  14.961
13684W        W85410  14.731  26.743   0.307
13685W        W85411  21.615  27.322   3.296
13686W        W85412  20.739  44.302   1.301
13687W        W85413   4.688  12.824  10.961
13688W        W85414   4.316   4.889   4.229
13689W        W85415  18.273  37.889  10.698
13690W        W85416   5.830   5.823  13.577
13691W        W85417  10.752  28.785  13.013
13692W        W85418  16.803  41.227  13.672
13693W        W85419  25.455  35.219   0.383
13694W        W85420  38.650   4.787  12.464
13695W        W85421  12.053   1.154  14.363
13696W        W85422   7.705  13.047   4.251
13697W        W85423  33.832  43.723   1.739
13698W        W85424  42.534  20.781  13.887
13699W        W85425  40.482  33.657  13.163
13700W        W85426  31.090   7.694  13.376
13701W        W85427  22.972  30.921   2.708
13702W        W85428  30.153  42.579  11.182
13703W        W85429  27.921  37.048  12.167
13704W        W85430   9.613  10.643   3.192
13705W        W85431  34.697  39.867  12.411
13706W        W85432  28.168  23.250  11.625
13707W        W85433  24.654  24.574   0.669
13708W        W85434  19.764   4.681  12.428
13709W        W85435   1.616  36.807  11.260
13710W        W85436  43.051  31.462  14.047
13711W        W85437  34.517  24.568  14.271
13712W        W85438   0.306   9.120  14.015
13713W        W85439   7.698  20.138   3.648
13714W        W85440  43.829  18.758  11.656
13715W        W85441  18.740   4.245   1.870
13716W        W85442  27.318  32.657  13.533
13717W        W85443   8.221  44.419   2.575
13718W        W85444   8.918  13.693  14.670
13719W        W85445  25.059  17.489   3.682
13720W        W85446  17.054  39.971  12.932
13721W        W85447   0.872  17.336   1.789
13722W        W85448   1.310   9.915  14.347
13723W        W85449  12.504  25.705   2.550
13724W        W85450  14.817  11.391  14.420
13725W        W85451  26.520   1.738   1.389
13726W        W85452  36.849  23.611   2.143
13727W        W85453   4.194  20.675   0.702
13728W        W85454  35.889  43.909   3.980
13729W        W85455   0.574   9.366  14.439
13730W        W85456  36.587  41.481  12.959
13731W        W85457   1.993  12.749   1.929
13732W        W85458  15.291  24.242  13.982
13733W        W85459  15.663  25.679   0.930
13734W        W85460   4.206   1.090   4.028
13735W        W85461  30.857  29.827   0.811
13736W        W85462  26.654   3.701  13.069
13737W        W85463   9.968  28.966   1.523
13738W        W85464   2.363  12.687  13.028
13739W        W85465  26.989  12.317   0.387
13740W        W85466  32.537  41.743   1.441
13741W        W85467   3.899  39.300   3.762
13742W        W85468  16.159  30.993   3.415
13743W        W85469  42.514  18.078  13.948
13744W        W85470  43.124  26.630   2.751
13745W        W85471  21.599  18.656  14.660
13746W        W85472  25.016   2.876   4.044
13747W        W85473  34.151   8.810  13.873
13748W        W85474  42.548  14.595   2.941
13749W        W85475  28.722   5.865   1.395
13750W        W85476  40.169  19.706  13.973
13751W        W85477   5.700   6.412   1.329
13752W        W85478   7.459   3.760   4.342
13753W        W85479  22.006   2.107  11.533
13754W        W85480  37.015   9.365   3.863
13755W        W85481  25.517  43.069  11.168
13756W        W85482  19.813  24.188  14.496
13757W        W85483  43.151   3.210  12.183
13758W        W85484   8.904  23.981   1.475
13759W        W85485  34.599   0.943   2.296
13760W        W85486  10.881  33.838  11.988
13761W        W85487  30.428  21.009   0.197
13762W        W85488   2.988  41.883   1.788
13763W        W85489  29.233   9.120  12.830
13764W        W85490  36.203  36.319  14.497
13765W        W85491  10.197  10.838  12.601
13766W        W85492  43.707  33.877   0.801
13767W        W85493   3.942   3.077  12.777
13768W        W85494  28.619  24.947   2.213
13769W        W85495  42.538   2.883   1.496
13770W        W85496  24.585  18.034   1.415
13771W        W85497   4.376  43.826  11.495
13772W        W85498  12.818  37.596  12.786
13773W        W85499  34.199   5.959  12.396
13774W        W85500  11.393  22.247   1.808
13775W        W85501  43.501   6.812  13.087
13776W        W85502  10.090  29.153   2.692
13777W        W85503  20.319  24.421  10.663
13778W        W85504   1.725  34.962  14.981
13779W        W85505  38.474  38.097   1.269
13780W        W85506  29.128   4.549   1.820
13781W        W85507  18.973  35.933   4.879
13782W        W85508  17.281  16.956   3.705
13783W        W85509  18.695   1.802  11.789
13784W        W85510  14.645  17.142   2.191
13785W        W85511  19.243  41.233  13.491
13786W        W85512  12.364   5.191   2.201
13787W        W85513  11.130  35.391   3.745
13788W        W85514  17.219  17.164  12.370
13789W        W85515  17.431   0.232  10.970
13790W        W85516  10.689  26.268   1.745
13791W        W85517  19.183  11.793   3.092
13792W        W85518   3.075  11.438   3.283
13793W        W85519  39.555   3.781   3.141
13794W        W85520   8.507  24.375  14.069
13795W        W85521  43.354  37.271   4.617
13796W        W85522  23.581  27.709  10.717
13797W        W85523  44.523  12.311  10.357
13798W        W85524  27.518  23.500  12.013
13799W        W85525  34.075  17.242   2.841
13800W        W85526  10.623  11.780  12.903
13801W        W85527  12.328   4.321   2.527
13802W        W85528  29.274  21.674  14.868
13803W        W85529  11.763  18.326   3.772
13804W        W85530  26.593  13.362   1.237
13805W        W85531  35.626   2.258   1.317
13806W        W85532  24.562   2.732  13.666
13807W        W85533  42.575   8.911   1.340
13808W        W85534  25.160  44.477   1.352
13809W        W85535  11.789  21.259   4.276
13810W        W85536  38.019   1.541  10.647
13811W        W85537   3.800  36.144   1.130
13812W        W85538  23.726  13.677  10.070
13813W        W85539  17.115  18.599   0.497
13814W        W85540   9.355  16.553   0.742
13815W        W85541  13.565  17.077  13.655
13816W        W85542  43.946  32.166  11.615
13817W        W85543   5.370  38.448   4.565
13818W        W85544  35.899  13.868  11.623
13819W        W85545  30.423  31.140  11.955
13820W        W85546  36.677  16.293   1.850
13821W        W85547  41.899  14.075   4.104
13822W        W85548   3.200  20.187  11.145
13823W        W85549  23.087   5.420  13.781
13824W        W85550   4.770   2.227   0.011
13825W        W85551  37.434  30.391   3.364
13826W        W85552  29.523  43.830   3.602
13827W        W85553  33.853  27.220   3.662
13828W        W85554  26.928  20.784  12.886
13829W        W85555   2.839  30.498  10.882
13830W        W85556  35.459  39.875   2.636
13831W        W85557  38.337  39.374   4.598
13832W        W85558  15.251   3.568  14.940
13833W        W85559  22.391   1.280   0.277
13834W        W85560  28.472  33.134   2.687
13835W        W85561  28.159  10.376   3.246
13836W        W85562  28.411  10.779  12.082
13837W        W85563  14.259  22.270   3.717
13838W        W85564  34.834  15.351   1.625
13839W        W85565   4.219  28.057  14.020
13840W        W85566  14.451  24.923  11.874
13841W        W85567  25.230  40.517  11.999
13842W        W85568  30.975  37.344   1.175
13843W        W85569  39.908  18.278   2.139
13844W        W85570  14.411  33.066  14.372
13845W        W85571  29.805  34.164  13.163
13846W        W85572  42.540   5.643  11.639
13847W        W85573  20.247  44.294  11.269
13848W        W85574  24.276  16.287   4.133
13849W        W85575   1.270   0.261   0.580
13850W        W85576  21.307  27.764   4.801
13851W        W85577  33.605  21.749   3.371
13852W        W85578  15.216  19.740  10.667
13853W        W85579  33.747  18.519  13.931
13854W        W85580  19.771   3.773   0.842
13855W        W85581  10.679  12.755   3.248
13856W        W85582  17.964   6.306   1.291
13857W        W85583   4.639  23.247  13.034
13858W        W85584  26.645  29.541   3.239
13859W        W85585  15.252  41.833   0.953
13860W        W85586  43.962  13.256  12.489
13861W        W85587  22.027  18.215  12.036
13862W        W85588  31.522  29.947   1.832
13863W        W85589  35.203  36.247   2.850
13864W        W85590  42.376  30.711   4.473
13865W        W85591  17.316  34.590  14.839
13866W        W85592  39.060  38.879   0.896
13867W        W85593  10.624  22.574   0.676
13868W        W85594  28.166  11.694   5.046
13869W        W85595  44.874  33.921  13.811
13870W        W85596  12.683  39.405  10.628
13871W        W85597  20.000  28.212  11.898
13872W        W85598  22.647  39.044   0.957
13873W        W85599  23.181  41.352   3.705
13874W        W85600  19.454  27.739  14.333
13875W        W85601  14.005  42.531   3.710
13876W        W85602  11.184   9.829   1.713
13877W        W85603  44.477  22.499  10.128
13878W        W85604  42.078  10.910   1.607
13879W        W85605  17.792  27.618  10.801
13880W        W85606  21.309   5.262   3.537
13881W        W85607   7.266  16.911  11.204
13882W        W85608  23.940  39.015   1.519
13883W        W85609  11.220  25.190  11.073
13884W        W85610  29.585   9.680  14.680
13885W        W85611  13.795  11.575  10.996
13886W        W85612  14.574  42.746  13.941
13887W        W85613  31.614   8.409  13.235
13888W        W85614   0.379   8.295  11.027
13889W        W85615  13.591  30.470   3.642
13890W        W85616   6.461  22.722  12.481
13891W        W85617  24.091  33.206  11.835
13892W        W85618  22.089  17.644   1.176
13893W        W85619  16.663  39.598   4.013
13894W        W85620   8.169   4.521  11.179
13895W        W85621  36.055  34.084  10.728
13896W        W85622   0.335   4.564   4.413
13897W        W85623  36.658  38.545   0.724
13898W        W85624  43.594   1.968  13.177
13899W        W85625  18.822  28.220   3.623
13900W        W85626   0.019  17.593   0.854
13901W        W85627   2.558   4.473  13.864
13902W        W85628  20.802   5.235  14.432
13903W        W85629   6.614  25.232  13.105
13904W        W85630  37.377  35.092  12.020
13905W        W85631   2.832  25.258  12.524
13906W        W85632  14.861  12.785  14.854
13907W        W85633  43.749  25.719  13.273
13908W        W85634  27.007   5.126   1.296
13909W        W85635   2.823  22.246   0.894
13910W        W85636  18.605  13.641  12.505
13911W        W85637  10.682  25.539  12.034
13912W        W85638   8.020  19.725   3.641
13913W        W85639  38.998  34.562   0.412
13914W        W85640   8.925  43.735  11.114
13915W        W85641  22.048  17.302   2.625
13916W        W85642  21.496  35.505  13.776
13917W        W85643  15.053  38.822   2.055
13918W        W85644  20.243  23.938   1.787
13919W        W85645  11.822  15.193   4.283
13920W        W85646  14.760  35.547   3.810
13921W        W85647  15.847  35.674   4.196
13922W        W85648  42.472  20.870  14.821
13923W        W85649   6.894  10.694   1.681
13924W        W85650  14.708  38.771  13.030
13925W        W85651  17.039  37.852  10.511
13926W        W85652  38.750  15.173   4.920
13927W        W85653  39.949   1.504   3.561
13928W        W85654  10.711  16.838   4.520
13929W        W85655   9.131  16.285  10.540
13930W        W85656  25.976  10.357  13.042
13931W        W85657   8.295  28.091  10.462
13932W        W85658  10.472   3.581  13.158
13933W        W85659  30.404  20.130  14.699
13934W        W85660  39.574  30.187   1.224
13935W        W85661  25.987  14.784  12.970
13936W        W85662  25.233  29.971   0.742
13937W        W85663  35.519  13.093  10.767
13938W        W85664   8.930  44.210   3.048
13939W        W85665  25.629  26.591   4.582
13940W        W85666  34.318   9.390  11.951
13941W        W85667  29.436  21.975  11.619
13942W        W85668  27.045   5.818  10.663
13943W        W85669   7.677  29.401  11.718
13944W        W85670  43.348  39.500   1.282
13945W        W85671   6.581  13.388   2.370
13946W        W85672  15.796  18.608   2.210
13947W        W85673  38.086  22.537   3.647
13948W        W85674  33.909  23.986  12.787
13949W        W85675  13.243  21.155  10.666
13950W        W85676  36.801  26.436   0.703
13951W        W85677  23.017  41.914  13.482
13952W        W85678  13.521   4.369  10.967
13953W        W85679   8.653  19.684  11.469
13954W        W85680   8.755  13.724   2.207
13955W        W85681  11.823   3.203   1.335
13956W        W85682  28.724  44.034   1.319
13957W        W85683  34.593  30.145  12.354
13958W        W85684  33.403  34.836  13.116
13959W        W85685  14.624  23.716  12.783
13960W        W85686  33.657  10.519  12.954
13961W        W85687  26.664  29.022   5.044
13962W        W85688  25.753  35.080   3.517
13963W        W85689  19.963  38.859  13.457
13964W        W85690  25.003  21.432   3.241
13965W        W85691   1.932  42.378  10.749
13966W        W85692  21.971  30.684   0.391
13967W        W85693  34.433  28.821   2.790
13968W        W85694  39.853   4.807  10.647
13969W        W85695  26.158   9.344  12.011
13970W        W85696  26.950  24.973  10.770
13971W        W85697  43.009   2.558  14.781
13972W        W85698   9.199  34.105   3.177
13973W        W85699  35.270  22.185   2.783
13974W        W85700  31.068  33.783   2.921
13975W        W85701  28.876  27.105   4.370
13976W        W85702  29.957  32.059   4.322
13977W        W85703   9.350   2.422  11.133
13978W        W85704  16.206  24.121  10.704
13979W        W85705   2.846  43.504   0.366
13980W        W85706   5.497  20.974   2.409
13981W        W85707  17.623  39.810  12.893
13982W        W85708  28.640  24.761  13.458
13983W        W85709  18.599  37.289  11.943
13984W        W85710  37.973   0.514   4.103
13985W        W85711  12.771  12.393   1.374
13986W        W85712  32.864  33.920  12.720
13987W        W85713  44.846  18.775   2.216
13988W        W85714   8.020  27.226  12.987
13989W        W85715  24.052  34.983   2.438
13990W        W85716  35.448  30.545  11.988
13991W        W85717  30.023   9.431  14.551
13992W        W85718  24.489  30.608  13.069
13993W        W85719   7.758   6.802   4.152
13994W        W85720   3.253   5.662  14.598
13995W        W85721  14.720   9.100   0.903
13996W        W85722  38.586   3.127   4.344
13997W        W85723   3.816  19.042  11.502
13998W        W85724  41.538   5.048   4.261
13999W        W85725  19.572   2.827   2.236
14000W        W85726   5.352  44.806   4.531
14001W        W85727  15.551  29.462  14.524
14002W        W85728  10.872   0.278   0.868
14003W        W85729  13.189   5.120  12.434
14004W        W85730  19.286   3.302   2.243
14005W        W85731  24.385  20.221   1.917
14006W        W85732  31.816  17.794  13.653
14007W        W85733  15.590  20.786   2.680
14008W        W85734  44.791  29.936  11.629
14009W        W85735   0.386  18.660   2.232
14010W        W85736  34.475  30.555   4.523
14011W        W85737  13.290  17.787   4.785
14012W        W85738  40.873  29.987  12.149
14013W        W85739  26.421  40.995  11.607
14014W        W85740  18.663  36.624  11.136
14015W        W85741  22.078  40.875   2.779
14016W        W85742  24.112  44.054  11.808
14017W        W85743   7.133  25.992   2.362
14018W        W85744  34.829  11.181  13.056
14019W        W85745  10.994  16.017  13.921
14020W        W85746  42.710  13.259   1.364
14021W        W85747  40.721  31.646   4.113
14022W        W85748  41.852  31.454  11.763
14023W        W85749  41.998  20.243   4.104
14024W        W85750  13.037  32.557  14.565
14025W        W85751  23.480   6.323  13.003
14026W        W85752  35.049  10.577   0.732
14027W        W85753  26.914  20.552  10.620
14028W        W85754  12.741  41.340  14.848
14029W        W85755  26.385  41.537  11.467
14030W        W85756  34.807   7.186  11.158
14031W        W85757  12.422  13.770  12.081
14032W        W85758  18.890  11.411  11.220
14033W        W85759  29.540  36.404  12.093
14034W        W85760   3.733  31.403  12.413
14035W        W85761  18.062  29.963  10.768
14036W        W85762  17.518  15.854  12.825
14037W        W85763  17.778  41.835   3.187
14038W        W85764  39.084  26.467   0.391
14039W        W85765  23.664   4.388   4.481
14040W        W85766   6.983  26.093  11.899
14041W        W85767  44.010  12.074  14.268
14042W        W85768  21.360  44.264  10.141
14043W        W85769  20.151  33.153   3.239
14044W        W85770   0.155  18.167   4.071
14045W        W85771  33.684  41.733   3.663
14046W        W85772  31.216  39.063  13.303
14047W        W85773  14.272  27.004   2.892
14048W        W85774  44.116  31.141   1.254
14049W        W85775  14.454  21.495  11.922
14050W        W85776  15.272   4.759   2.803
14051W        W85777  38.006  34.864   2.684
14052W        W85778  37.043  20.141   0.340
14053W        W85779  35.434   7.720  12.429
14054W        W85780   7.403  32.549  12.494
14055W        W85781  33.858  39.180   2.350
14056W        W85782  21.093  10.312   2.756
14057W        W85783  33.580  42.610   2.566
14058W        W85784  15.639  21.969  14.371
14059W        W85785   5.012  39.454  13.094
14060W        W85786   6.909  40.828   4.158
14061W        W85787  24.712  38.891   4.224
14062W        W85788  12.679  31.516  10.348
14063W        W85789  13.082   3.080   5.050
14064W        W85790   0.885  40.393   0.141
14065W        W85791  37.610  36.938   2.110
14066W        W85792  44.001  35.464  14.969
14067W        W85793   7.725  35.054   5.032
14068W        W85794  18.171  29.811   3.654
14069W        W85795  38.138   2.789   4.271
14070W        W85796  13.523  41.491   4.212
14071W        W85797  28.120  34.308  12.597
14072W        W85798  21.912  28.912   4.643
14073W        W85799   5.456   6.379   3.658
14074W        W85800  34.070  31.091   0.365
14075W        W85801  30.055  28.402   1.517
14076W        W85802   4.371  21.529   1.340
14077W        W85803   1.021  43.749  10.706
14078W        W85804  21.167   2.279   1.512
14079W        W85805   3.209   4.897  11.674
14080W        W85806  31.046  41.098   2.172
14081W        W85807   1.892   4.758   2.263
14082W        W85808  19.580   0.384   3.653
14083W        W85809  23.270  10.695  12.626
14084W        W85810  15.771  27.524   3.230
14085W        W85811   3.423   1.288   2.763
14086W        W85812   2.273  32.586  11.632
14087W        W85813  39.432  30.588   3.590
14088W        W85814  14.815   6.240   0.021
14089W        W85815  25.692  27.436   0.347
14090W        W85816   7.091  32.518   1.943
14091W        W85817  42.281   3.968  12.926
14092W        W85818  14.294  33.069  10.931
14093W        W85819   1.170  21.573   4.540
14094W        W85820  17.833  22.613   0.727
14095W        W85821  27.203  10.635   1.189
14096W        W85822  16.459  25.990   1.437
14097W        W85823  40.966  12.702   0.766
14098W        W85824  41.260  36.292  14.326
14099W        W85825  32.355  24.908  14.894
14100W        W85826  24.242  13.285   4.706
14101W        W85827  34.347  17.797   2.839
14102W        W85828  15.337   4.686  13.956
14103W        W85829  31.173  26.180   0.722
14104W        W85830   5.835  10.514  14.350
14105W        W85831  16.836  24.127  11.502
14106W        W85832   4.452  22.321  12.915
14107W        W85833   7.444  32.709  11.578
14108W        W85834  32.104   6.112   5.131
14109W        W85835  39.226  24.446  13.385
14110W        W85836  13.928  31.866  13.813
14111W        W85837   0.023  26.103   1.250
14112W        W85838  31.248  40.911  10.775
14113W        W85839  34.659  31.621   0.768
14114W        W85840  42.109  39.004   0.968
14115W        W85841  24.184  22.182   3.561
14116W        W85842  35.034  19.169   0.861
14117W        W85843  41.412  30.600  12.131
14118W        W85844  22.081  19.475   1.790
14119W        W85845   7.700   7.209   1.299
14120W        W85846  34.296  20.826   2.506
14121W        W85847  23.477   5.269  11.464
14122W        W85848   3.953  29.522   1.399
14123W        W85849  39.957  15.916  13.118
14124W        W85850  15.839  29.686   1.813
14125W        W85851  30.149  14.134   3.305
14126W        W85852  33.337  14.403   3.769
14127W        W85853  11.704   6.435  11.888
14128W        W85854  14.325  42.885  12.409
14129W        W85855  35.592   9.135   0.326
14130W        W85856  32.942  21.420  11.675
14131W        W85857  23.494  38.363   1.880
14132W        W85858  11.309   0.450  12.611
14133W        W85859  36.029  29.041   2.941
14134W        W85860  32.067   9.653  10.983
14135W        W85861  22.801  41.022   2.039
14136W        W85862  14.500  41.911   2.887
14137W        W85863  29.101  43.306   1.004
14138W        W85864  27.420  19.748  11.658
14139W        W85865  17.900  10.818  10.845
14140W        W85866  21.088   7.877   2.949
14141W        W85867  21.434  27.985  12.043
14142W        W85868  12.826  39.105  12.944
14143W        W85869   8.383  25.926  10.365
14144W        W85870  20.022  20.609  13.902
14145W        W85871  22.819  35.543  11.166
14146W        W85872  20.243  39.531   3.002
14147W        W85873   1.314   0.155  11.579
14148W        W85874  27.124  44.485   2.300
14149W        W85875   4.689  41.557   3.304
14150W        W85876  42.549  22.736   1.834
14151W        W85877  18.061  43.220   2.689
14152W        W85878  38.372  22.291   2.794
14153W        W85879   8.785  37.292  13.479
14154W        W85880  20.844  26.253   4.515
14155W        W85881  37.158   1.447   0.380
14156W        W85882  16.210   3.051  11.209
14157W        W85883  22.043  20.130  14.405
14158W        W85884  20.721  27.071   9.786
14159W        W85885  39.988  21.231   2.350
14160W        W85886  26.488  11.728  13.940
14161W        W85887  44.511  40.971   1.265
14162W        W85888  15.241  34.037  13.813
14163W        W85889  42.947   9.554   4.863
14164W        W85890  16.760  41.868  11.227
14165W        W85891   6.296  17.419  14.850
14166W        W85892   3.965  24.891   0.896
14167W        W85893  40.105   6.177   0.354
14168W        W85894  19.349  23.973  14.483
14169W        W85895  11.219   1.255   0.686
14170W        W85896   7.596  33.914   1.259
14171W        W85897  11.706  32.352   2.179
14172W        W85898  39.902   7.050   2.775
14173W        W85899   5.848  16.620  12.479
14174W        W85900  33.752  12.816  11.258
14175W        W85901  29.091  43.222   3.338
14176W        W85902  20.008   7.250  14.883
14177W        W85903  26.080  31.656   3.805
14178W        W85904  14.642  38.775  14.853
14179W        W85905  39.685  31.644  11.176
14180W        W85906  22.595  29.391  13.715
14181W        W85907  38.796  39.779  11.564
14182W        W85908  29.595  10.427  10.788
14183W        W85909  25.113  14.604   3.211
14184W        W85910  41.356  35.897  12.698
14185W        W85911  38.868  29.311  12.973
14186W        W85912   6.701  44.577  13.439
14187W        W85913  21.684   5.295   0.873
14188W        W85914  43.437  10.890  10.656
14189W        W85915  35.625  13.527   0.536
14190W        W85916  13.841  42.023  13.449
14191W        W85917  17.817  21.244  12.849
14192W        W85918  15.720  23.730   1.827
14193W        W85919  26.470   8.835   0.233
14194W        W85920  19.642  29.976   1.860
14195W        W85921  18.758  21.483   1.938
14196W        W85922   6.468  24.080   3.797
14197W        W85923  36.550   6.427  12.636
14198W        W85924  40.339   5.043   3.838
14199W        W85925   5.739  39.316   1.017
14200W        W85926  16.225   3.947  14.775
14201W        W85927  23.985  39.528  11.605
14202W        W85928  37.770  23.700   4.087
14203W        W85929  13.543  27.436   2.898
14204W        W85930  25.420   6.795   3.277
14205W        W85931   0.946  38.458  10.721
14206W        W85932  17.129   7.186   2.202
14207W        W85933   9.103  32.683  11.128
14208W        W85934  21.457  36.449   3.351
14209W        W85935   5.397  28.776  13.149
14210W        W85936  21.040  14.045   2.693
14211W        W85937  27.674  19.771   2.324
14212W        W85938  21.497  34.741  11.075
14213W        W85939   3.339  10.327  12.961
14214W        W85940  32.298  38.144  11.037
14215W        W85941   6.510  34.251   4.246
14216W        W85942  41.818   8.942  13.479
14217W        W85943  26.965  25.488   1.890
14218W        W85944  27.993  34.621  11.926
14219W        W85945  11.341  10.589  13.515
14220W        W85946   4.967  11.629   2.997
14221W        W85947  30.745  12.375   1.172
14222W        W85948  38.189   2.552  11.473
14223W        W85949  29.583  12.825   1.708
14224W        W85950  32.839  18.845  13.604
14225W        W85951  44.521  17.682   0.824
14226W        W85952  32.442  24.695  11.089
14227W        W85953  10.631   8.232  12.146
14228W        W85954  31.161  17.199  14.741
14229W        W85955   6.893  16.913   3.665
14230W        W85956  43.149  29.504  14.463
14231W        W85957  36.836  24.312  14.250
14232W        W85958  30.650   7.698  12.204
14233W        W85959  43.874  41.429   1.682
14234W        W85960  32.462  29.601   3.204
14235W        W85961  12.453  25.784  10.740
14236W        W85962  11.872   6.453   0.740
14237W        W85963  32.610  19.571  14.780
14238W        W85964   2.018  43.724   3.465
14239W        W85965  38.517  17.198  13.465
14240W        W85966   4.369  27.555  14.352
14241W        W85967   2.041  24.845   2.660
14242W        W85968  27.857   9.744   1.837
14243W        W85969  38.900  27.428   4.113
14244W        W85970  42.458  23.301  12.051
14245W        W85971  26.383  28.337   0.797
14246W        W85972  10.577  26.164  13.448
14247W        W85973   0.841  23.111   0.393
14248W        W85974  25.732  32.049  11.685
14249W        W85975  20.555  18.009   2.236
14250W        W85976  39.119  27.142  11.013
14251W        W85977   2.897  27.054   4.900
14252W        W85978  43.078  29.552   2.158
14253W        W85979  39.836  19.269   4.596
14254W        W85980  37.615  38.334   3.165
14255W        W85981  13.481  31.911  13.236
14256W        W85982  15.241  25.541   4.747
14257W        W85983  39.112  36.053  12.509
14258W        W85984  32.422  31.908   1.199
14259W        W85985   7.741  39.356  13.837
14260W        W85986   2.621  30.451  12.991
14261W        W85987  44.990   9.587  13.810
14262W        W85988  20.731  43.737   2.033
14263W        W85989  32.657  19.493   0.291
14264W        W85990  27.651  43.248  13.482
14265W        W85991  14.584  22.303  12.226
14266W        W85992  38.360  27.994   4.621
14267W        W85993  26.666  10.620  13.801
14268W        W85994  40.953   0.325   0.210
14269W        W85995  25.711  23.541  11.471
14270W        W85996  33.599  33.389   2.384
14271W        W85997  13.385  26.505  10.763
14272W        W85998  10.368  32.643  11.449
14273W        W85999  15.232   9.437   4.588
14274W        W86000  39.718   4.815  14.419
14275W        W86001  20.573  30.683   2.141
14276W        W86002  27.052  40.465   1.465
14277W        W86003  16.901  43.041  14.324
14278W        W86004  39.628  30.659  14.675
14279W        W86005  42.107  11.916   4.996
14280W        W86006  37.435  28.477  14.889
14281W        W86007   0.494  29.902   1.833
14282W        W86008  27.319  35.420   3.054
14283W        W86009  21.958  13.839   3.676
14284W        W86010  40.816  37.841  12.375
14285W        W86011   3.409   8.681   1.264
14286W        W86012  34.441   8.573  10.644
14287W        W86013  32.996   9.985   2.196
14288W        W86014  21.552  19.494   4.477
14289W        W86015  18.559  25.235   2.777
14290W        W86016  36.067  12.543   1.764
14291W        W86017   7.078   4.680   3.007
14292W        W86018  14.667  37.330  14.917
14293W        W86019  29.717  11.080  13.027
14294W        W86020  30.007  14.640   2.492
14295W        W86021  22.138   1.152   3.300
14296W        W86022  41.112  15.534   5.117
14297W        W86023  18.499   3.823   0.918
14298W        W86024  41.777  37.537  14.836
14299W        W86025  25.214  16.149  12.520
14300W        W86026  27.054   7.493  12.012
14301W        W86027  33.393  25.039   2.844
14302W        W86028  32.072  13.116   2.056
14303W        W86029  20.007  23.721   1.344
14304W        W86030  25.820  35.429   3.114
14305W        W86031  18.506   6.015   4.608
14306W        W86032   9.931  12.732  13.764
14307W        W86033  19.789  33.077  11.441
14308W        W86034  20.215  11.665  11.822
14309W        W86035   4.889  12.681  14.852
14310W        W86036  37.352  26.981  14.975
14311W        W86037   8.366  19.975   2.409
14312W        W86038  20.262  16.731  12.098
14313W        W86039   1.450  38.650  12.795
14314W        W86040  27.999  42.101  14.897
14315W        W86041  36.538  43.290  12.273
14316W        W86042  41.382  25.116   0.250
14317W        W86043  31.977   8.930   5.018
14318W        W86044  40.163  32.378  12.962
14319W        W86045  12.645  40.107   1.310
14320W        W86046  10.594  12.449   3.669
14321W        W86047  37.947   0.567  13.855
14322W        W86048   7.101  30.504  13.492
14323W        W86049  35.095  40.275   1.884
14324W        W86050  15.333  33.942   4.448
14325W        W86051  26.012  17.583  14.891
14326W        W86052  37.533  11.095   3.816
14327W        W86053  28.988  22.327  10.983
14328W        W86054  36.314  11.168  12.907
14329W        W86055  32.560  16.806  14.483
14330W        W86056   4.353  10.077  12.936
14331W        W86057  11.628   7.680   2.710
14332W        W86058   3.798  40.193  14.931
14333W        W86059  43.115  40.155   2.899
14334W        W86060  30.598  10.321  13.460
14335W        W86061   2.627  35.046   0.248
14336W        W86062  36.884  27.706   2.815
14337W        W86063  28.536  21.293  13.358
14338W        W86064  40.928   4.404   3.976
14339W        W86065  15.766   8.140  12.440
14340W        W86066   5.225  22.706  13.293
14341W        W86067  26.821  40.489   2.463
14342W        W86068  43.207  14.297  11.233
14343W        W86069  34.152  44.014  13.799
14344W        W86070   5.482  44.693   0.183
14345W        W86071  32.612  29.201  14.574
14346W        W86072  17.046  30.499  12.395
14347W        W86073  42.017  13.083  10.778
14348W        W86074   6.245  44.726   0.022
14349W        W86075   5.834  37.271   1.878
14350W        W86076  24.147  31.380  11.893
14351W        W86077  41.018  34.372  11.548
14352W        W86078  34.922  18.089   4.306
14353W        W86079  40.749  40.133   3.642
14354W        W86080  42.955  34.980   2.114
14355W        W86081  29.910   6.249  13.785
14356W        W86082  41.952   9.641  14.277
14357W        W86083  11.047  27.054   2.255
14358W        W86084  34.771  10.884  12.196
14359W        W86085  33.352  15.934   3.226
14360W        W86086  38.880  41.792   1.460
14361W        W86087  30.854   7.814   0.249
14362W        W86088   1.251  44.737  13.493
14363W        W86089  32.422  19.185  10.536
14364W        W86090  34.596  20.224  11.940
14365W        W86091  11.872  33.583   3.167
14366W        W86092  29.116  32.074  12.929
14367W        W86093  44.302  42.051  12.354
14368W        W86094  31.018   0.461   2.634
14369W        W86095  33.666   7.924   1.436
14370W        W86096  15.382  24.995  14.289
14371W        W86097  42.422  17.123  10.543
14372W        W86098  15.188  42.106  11.731
14373W        W86099  29.518  29.045   1.920
14374W        W86100  37.237   3.458   4.000
14375W        W86101  23.043  19.054  11.625
14376W        W86102   6.178  37.946  12.545
14377W        W86103  38.137  33.336   0.906
14378W        W86104  29.054  24.286   5.702
14379W        W86105  42.413  26.462  10.606
14380W        W86106  44.019  11.617   2.605
14381W        W86107   1.938  25.508  11.828
14382W        W86108   0.078  34.152  14.523
14383W        W86109  20.603  27.842   1.141
14384W        W86110  28.174  28.564   4.288
14385W        W86111  27.407   0.529   2.699
14386W        W86112  44.714  23.793  10.063
14387W        W86113  43.393  10.920   0.949
14388W        W86114  39.246  32.802   4.226
14389W        W86115   6.831  31.392  12.598
14390W        W86116   8.131  24.226   4.588
14391W        W86117   2.687  39.803  11.202
14392W        W86118  33.177  33.225   0.008
14393W        W86119  32.656  37.994   4.756
14394W        W86120  39.014  29.147   4.563
14395W        W86121  35.299  25.174   2.904
14396W        W86122  36.547  43.322  12.837
14397W        W86123  20.295  34.727  14.180
14398W        W86124  13.029   5.789   4.608
14399W        W86125  21.742   3.336   4.143
14400W        W86126   8.162  19.428  13.606
14401W        W86127  39.516  28.482  14.238
14402W        W86128   7.334  25.655   1.640
14403W        W86129  29.965  34.851   1.187
14404W        W86130  12.634  34.507   4.620
14405W        W86131  24.902  21.196  14.344
14406W        W86132   6.876  36.423  13.310
14407W        W86133   1.853  12.280  14.686
14408W        W86134   8.375  36.889  12.847
14409W        W86135  42.516  30.605   3.979
14410W        W86136  23.635  12.377  12.588
14411W        W86137   4.546  12.734   1.602
14412W        W86138   5.194   9.736  13.081
14413W        W86139  34.079  13.669  12.839
14414W        W86140  30.625  15.208  13.025
14415W        W86141  31.133  10.486  10.740
14416W        W86142  36.820  17.815  13.350
14417W        W86143  14.719  17.688  13.101
14418W        W86144  38.499  14.145  13.134
14419W        W86145  43.553  27.024   0.046
14420W        W86146   1.601  35.753  13.054
14421W        W86147  32.867  41.842  11.539
14422W        W86148  23.162  40.522  13.844
14423W        W86149  28.732  15.711   0.939
14424W        W86150  10.860   2.453   3.171
14425W        W86151  19.543   2.389   2.609
14426W        W86152  13.597   3.526   4.249
14427W        W86153  12.860  21.660  14.835
14428W        W86154   6.591  12.585  13.783
14429W        W86155   6.118  43.175   3.640
14430W        W86156  23.570   7.953  12.448
14431W        W86157  20.284   2.282   0.947
14432W        W86158  11.627  10.281  13.030
14433W        W86159  17.039  27.221   3.872
14434W        W86160   6.384  33.954   2.883
14435W        W86161  28.212  36.921  14.433
14436W        W86162  32.469  30.183   1.775
14437W        W86163   7.603  16.055   0.948
14438W        W86164  41.320   5.691   0.967
14439W        W86165   7.688  13.110   0.162
14440W        W86166  13.639  18.742   2.851
14441W        W86167  34.972  28.187   2.607
14442W        W86168  37.862  21.435  11.142
14443W        W86169  19.767  43.419  10.683
14444W        W86170  33.130  41.024   4.505
14445W        W86171  42.494  36.873   3.007
14446W        W86172  37.912   7.758  14.409
14447W        W86173   6.732  44.284   1.590
14448W        W86174  40.315  36.805  11.336
14449W        W86175  39.333   7.814  14.984
14450W        W86176  31.043  25.729  14.379
14451W        W86177   4.598  19.607   3.635
14452W        W86178  15.085  15.318  13.677
14453W        W86179   6.814  37.643   2.561
14454W        W86180  12.909  40.369  10.976
14455W        W86181  31.987  13.336   1.038
14456W        W86182  14.218   1.220  14.396
14457W        W86183  20.217  18.032   4.484
14458W        W86184  20.762  11.282  11.513
14459W        W86185  11.081   4.303   3.266
14460W        W86186  31.060  22.698  10.934
14461W        W86187  12.921  11.212   1.252
14462W        W86188  29.561  42.853  11.890
14463W        W86189  42.332  34.975  10.861
14464W        W86190  13.344  29.880   3.658
14465W        W86191  35.611   8.759   2.466
14466W        W86192   5.889  15.344   0.723
14467W        W86193  39.490  38.696  11.181
14468W        W86194  21.637  17.813  13.324
14469W        W86195  28.591  13.173   0.477
14470W        W86196  12.117   7.046   3.746
14471W        W86197  38.861  15.108  13.348
14472W        W86198  40.091  31.821   1.759
14473W        W86199  12.144   7.894   2.782
14474W        W86200  18.535   7.648  12.680
14475W        W86201  26.506   6.403  11.640
14476W        W86202   8.796   5.180   0.900
14477W        W86203   0.690  21.999   4.130
14478W        W86204  15.811  23.702   2.878
14479W        W86205  11.618  12.032  11.570
14480W        W86206   5.514  12.943   3.313
14481W        W86207  14.046  11.688   2.723
14482W        W86208   0.765   0.794   4.041
14483W        W86209  18.642  37.186   4.516
14484W        W86210   1.865  12.373  10.716
14485W        W86211  35.276  44.232  12.440
14486W        W86212  44.735  41.926  10.685
14487W        W86213  39.912  10.818  11.593
14488W        W86214   5.203   8.431   1.746
14489W        W86215  26.284  23.252  11.560
14490W        W86216  21.056  40.307   3.267
14491W        W86217  26.193   8.204   3.179
14492W        W86218   2.741  24.152   4.952
14493W        W86219  16.741  38.792  13.542
14494W        W86220  32.176   9.485   0.023
14495W        W86221   9.218  36.013  13.416
14496W        W86222   7.381  23.743  13.927
14497W        W86223  27.278  28.566  12.536
14498W        W86224   5.977  38.903   0.830
14499W        W86225  40.518   0.401  12.982
14500W        W86226   7.665  18.535  12.411
14501W        W86227  19.456   6.009   4.567
14502W        W86228  32.838  15.828  11.948
14503W        W86229  21.345  32.414   0.448
14504W        W86230   3.986  11.533   2.691
14505W        W86231  21.121  26.855  14.400
14506W        W86232  37.780   1.049  11.517
14507W        W86233   0.403  20.687   2.910
14508W        W86234   6.760  10.348   3.257
14509W        W86235   6.302   1.540  10.772
14510W        W86236  28.053  44.726   0.894
14511W        W86237  21.622  15.699  10.644
14512W        W86238  11.829  23.562   0.681
14513W        W86239  24.225  20.676   2.210
14514W        W86240   9.828  44.022   1.511
14515W        W86241  21.665  10.181  10.987
14516W        W86242  10.686  17.278   3.911
14517W        W86243  43.183  18.207  13.316
14518W        W86244  38.714  39.962   9.638
14519W        W86245  41.024  29.211  12.491
14520W        W86246  15.042  38.569  11.626
14521W        W86247  32.098  20.687   4.328
14522W        W86248  41.809  43.130   1.383
14523W        W86249  43.256  23.737   5.057
14524W        W86250  28.146  34.015  13.900
14525W        W86251  29.138  29.354   2.628
14526W        W86252  33.638   1.783   3.708
14527W        W86253  36.116  15.712   4.657
14528W        W86254  24.083  26.591   4.077
14529W        W86255  38.896  23.179   2.091
14530W        W86256  29.677  39.365   0.002
14531W        W86257  36.242  28.682  11.101
14532W        W86258  30.007  36.070   4.168
14533W        W86259  44.898   8.246   2.155
14534W        W86260  24.280   0.310   4.618
14535W        W86261  11.338   6.825  10.472
14536W        W86262  31.411  24.529  11.495
14537W        W86263  33.233  43.710   3.485
14538W        W86264   9.207  18.788  12.960
14539W        W86265  35.658  18.592  12.497
14540W        W86266  25.426  36.797  10.695
14541W        W86267  42.724  17.573   5.127
14542W        W86268  37.481  20.056  10.970
14543W        W86269   6.915  27.622  12.501
14544W        W86270  23.491  33.618   2.672
14545W        W86271  39.683  26.081   3.301
14546W        W86272  25.645  32.982   3.939
14547W        W86273   5.510   3.137   3.761
14548W        W86274  27.016  22.207  12.017
14549W        W86275  12.377  11.765  11.576
14550W        W86276  33.417  27.163   3.213
14551W        W86277  39.749   7.644   0.253
14552W        W86278  44.761  23.577   2.190
14553W        W86279  25.845  32.519   3.168
14554W        W86280  19.607   1.281  14.959
14555W        W86281  12.511  13.185  11.585
14556W        W86282  10.691   7.362  14.420
14557W        W86283  30.034   2.176  14.433
14558W        W86284  13.633  44.890  12.353
14559W        W86285  13.849  24.314   0.381
14560W        W86286  15.823  13.729  14.069
14561W        W86287   9.720  39.659  14.745
14562W        W86288  42.006  25.959  13.384
14563W        W86289  44.480  30.862  10.744
14564W        W86290   0.181  39.785  10.322
14565W        W86291  43.880  42.818   4.557
14566W        W86292  32.181  24.829   3.256
14567W        W86293  26.656   6.631   4.130
14568W        W86294  36.079  20.732   1.262
14569W        W86295  38.565   7.500  11.658
14570W        W86296  25.485   6.938  11.584
14571W        W86297  19.183  26.667  11.960
14572W        W86298   7.788  42.499   4.064
14573W        W86299   8.409  18.139   1.351
14574W        W86300   6.964  23.890   3.734
14575W        W86301   5.216   9.436  10.647
14576W        W86302  25.481   6.296  13.656
14577W        W86303   7.909   1.404  11.591
14578W        W86304  31.265  19.917   0.664
14579W        W86305  17.312  11.732  14.834
14580W        W86306   0.686  24.701   1.839
14581W        W86307   5.819  39.176  13.846
14582W        W86308  39.415   3.005  11.163
14583W        W86309  13.594  37.986   4.921
14584W        W86310  16.237  11.526  13.072
14585W        W86311   4.640  35.155   3.784
14586W        W86312  31.115   3.183   0.552
14587W        W86313   6.101  43.456   1.801
14588W        W86314  43.841   1.655  14.797
14589W        W86315  44.812  13.701   1.583
14590W        W86316   8.937   4.818   4.703
14591W        W86317   1.751  42.496   4.653
14592W        W86318  21.788  19.809   4.042
14593W        W86319  20.137  34.272   4.265
14594W        W86320   6.641   4.403   4.983
14595W        W86321  34.143  29.083  13.399
14596W        W86322   2.820  26.304  11.268
14597W        W86323  13.100  44.274   4.711
14598W        W86324  16.657  35.486   0.968
14599W        W86325   4.672   7.343   0.975
14600W        W86326   9.149  30.984   1.692
14601W        W86327  18.339  38.065   0.146
14602W        W86328  43.316  11.135   3.378
14603W        W86329  43.467  36.507   0.678
14604W        W86330  13.436  36.009   4.183
14605W        W86331  35.458  43.313  12.801
14606W        W86332  36.852  42.641  13.473
14607W        W86333   7.450  41.298   4.621
14608W        W86334  28.477  19.088  14.760
14609W        W86335  13.291  36.390  12.890
14610W        W86336  25.611  32.085   2.743
14611W        W86337  31.185  19.848  12.477
14612W        W86338  39.521  14.465  14.565
14613W        W86339  41.337  33.965  11.379
14614W        W86340  34.807  27.303   2.719
14615W        W86341  10.242   1.871  14.934
14616W        W86342   5.386  29.002  13.993
14617W        W86343  18.520  17.096  14.026
14618W        W86344  16.237  26.150  14.524
14619W        W86345  27.499  37.920  14.986
14620W        W86346  28.119   3.581  14.652
14621W        W86347  41.444  29.978   3.060
14622W        W86348  17.716  27.576  12.292
14623W        W86349   6.133   5.921  10.343
14624W        W86350   7.084   0.397  14.409
14625W        W86351  28.125  17.506   0.343
14626W        W86352  21.276  36.536  12.173
14627W        W86353  39.066  39.104  11.058
14628W        W86354  24.173   8.393  11.139
14629W        W86355   4.380  17.705  13.148
14630W        W86356  12.981  44.212   2.655
14631W        W86357  23.514   8.700  10.643
14632W        W86358  18.834   8.445   4.581
14633W        W86359  13.793  11.194   2.864
14634W        W86360  41.543  27.190  13.292
14635W        W86361  24.539  16.841   0.210
14636W        W86362   7.860  32.138   3.551
14637W        W86363  32.434  13.187  14.801
14638W        W86364  16.450  20.551   3.322
14639W        W86365  33.068  34.636   3.779
14640W        W86366   2.276  12.669   3.306
14641W        W86367  32.679  24.585  13.477
14642W        W86368   4.785  18.546   1.473
14643W        W86369  38.124  31.500   0.853
14644W        W86370  10.148  32.801  13.916
14645W        W86371  16.491   7.698  12.333
14646W        W86372   5.655  41.068   1.844
14647W        W86373  32.109  19.543   3.083
14648W        W86374   0.957   2.007  12.952
14649W        W86375   6.132  23.594  13.870
14650W        W86376  15.460  34.828  14.971
14651W        W86377  32.371  11.618   2.904
14652W        W86378  23.565   8.413   2.122
14653W        W86379  14.306   9.201  13.525
14654W        W86380  39.384  18.821  11.120
14655W        W86381  25.647  13.001   3.662
14656W        W86382  42.383  26.138  11.575
14657W        W86383  44.663  19.712  10.708
14658W        W86384  18.793  21.603   3.840
14659W        W86385  44.247   3.277   4.225
14660W        W86386  30.523   9.679  10.709
14661W        W86387   7.694  21.770  13.088
14662W        W86388  21.986  16.404  11.784
14663W        W86389  33.466  19.029   4.088
14664W        W86390   3.405  21.044  13.271
14665W        W86391  38.309  14.571  14.518
14666W        W86392  24.032   1.558   2.322
14667W        W86393  43.394  43.454   2.175
14668W        W86394  32.481  44.882  11.397
14669W        W86395   3.708  41.916  13.483
14670W        W86396   4.358   3.996  11.986
14671W        W86397   7.868  36.920  11.443
14672W        W86398  10.648  29.245  13.321
14673W        W86399  30.212   1.843  11.196
14674W        W86400  21.676  31.517   4.751
14675W        W86401  32.333  27.729   4.098
14676W        W86402  11.220   0.748   3.766
14677W        W86403  16.051  39.819   1.351
14678W        W86404  15.745  28.589   0.765
14679W        W86405  16.274  23.440  14.393
14680W        W86406  33.461  33.206  11.945
14681W        W86407  29.490  41.282  14.408
14682W        W86408  12.134  44.456   3.878
14683W        W86409  33.423  29.701   2.781
14684W        W86410   2.548  20.801   0.566
14685W        W86411  23.080  36.016   3.776
14686W        W86412  33.782  20.243  13.853
14687W        W86413  21.445  13.258   4.457
14688W        W86414  35.069  31.387  13.735
14689W        W86415   0.086   3.363   4.696
14690W        W86416  36.398  24.407  14.007
14691W        W86417  32.034  38.930   0.848
14692W        W86418  39.146  33.252  14.381
14693W        W86419  12.910  30.821   0.790
14694W        W86420  10.586  15.939  12.057
14695W        W86421  34.805  30.925  10.774
14696W        W86422  34.974  20.768  10.326
14697W        W86423  23.115   5.841  11.990
14698W        W86424  23.223  11.379   2.361
14699W        W86425  27.173  32.942  13.977
14700W        W86426   6.736  29.064  10.874
14701W        W86427   4.245  10.198  13.823
14702W        W86428  18.104  23.145  10.890
14703W        W86429  27.967  27.053   1.510
14704W        W86430  31.161  26.575   5.521
14705W        W86431  15.644  29.971  13.191
14706W        W86432  16.115  14.641  13.342
14707W        W86433  24.088  25.255   0.412
14708W        W86434  26.429   7.454   4.720
14709W        W86435  41.345   7.697  11.827
14710W        W86436  19.276  14.945  14.961
14711W        W86437  39.831  18.839  14.395
14712W        W86438   5.484  33.500   3.227
14713W        W86439   9.980  34.890  13.382
14714W        W86440  25.458  25.122   3.235
14715W        W86441  29.517  36.353  13.020
14716W        W86442  14.174  25.416   4.099
14717W        W86443   6.007  16.050  12.984
14718W        W86444  15.904  42.787  14.383
14719W        W86445  28.188  11.671   1.819
14720W        W86446  37.661  23.095  11.609
14721W        W86447  21.292  18.311  13.484
14722W        W86448  38.490   2.424  13.532
14723W        W86449  14.059   1.855   2.747
14724W        W86450  38.006   1.796   4.511
14725W        W86451  22.803  23.140   2.128
14726W        W86452  33.493  33.569  10.781
14727W        W86453  31.554  10.335   4.571
14728W        W86454  25.860  41.397   0.923
14729W        W86455  43.792  38.347  14.973
14730W        W86456  25.730  20.774  13.969
14731W        W86457   8.871  29.682  11.157
14732W        W86458  23.227  12.691   2.775
14733W        W86459  40.198  34.815  10.615
14734W        W86460   6.634   3.525  12.351
14735W        W86461  27.583  13.236  10.721
14736W        W86462   4.145  36.623  10.519
14737W        W86463  17.087   1.427   3.037
14738W        W86464  26.632  34.410  11.466
14739W        W86465  30.006  10.418   3.626
14740W        W86466  13.608  37.997  11.912
14741W        W86467  23.093  42.253   0.483
14742W        W86468  15.541  31.080  13.293
14743W        W86469  26.465  21.187  10.210
14744W        W86470  15.789  19.248  12.220
14745W        W86471  28.301  33.562   0.239
14746W        W86472  20.271  21.480  11.161
14747W        W86473   0.877  13.449  14.600
14748W        W86474  12.847  19.071  10.745
14749W        W86475  30.660  14.880  12.632
14750W        W86476   3.394  32.274  14.511
14751W        W86477   5.467  42.278   2.127
14752W        W86478  22.276  31.115  11.990
14753W        W86479  22.096   6.682   3.653
14754W        W86480  27.939  39.842  10.912
14755W        W86481  28.107  11.191   4.978
14756W        W86482  23.574   4.341   0.744
14757W        W86483  31.180  32.598   2.514
14758W        W86484   3.133  13.115   3.939
14759W        W86485   6.373  11.752  14.991
14760W        W86486   4.768  43.776   4.008
14761W        W86487  22.313  14.125   1.860
14762W        W86488  36.737  35.760  12.057
14763W        W86489   2.261  33.415  12.152
14764W        W86490  34.117  43.369  13.086
14765W        W86491  38.413   6.524  13.228
14766W        W86492  41.506   7.923  12.481
14767W        W86493  39.472  31.877   4.612
14768W        W86494   0.187  14.776   2.143
14769W        W86495  39.790  35.223   0.454
14770W        W86496  13.845  15.255  13.063
14771W        W86497  41.597  44.947   1.803
14772W        W86498  37.016  38.110  13.104
14773W        W86499  28.234   3.942  10.072
14774W        W86500  19.308  18.506  14.290
14775W        W86501  19.312  37.901   4.068
14776W        W86502  35.824  29.159   3.920
14777W        W86503  27.638   6.782   0.929
14778W        W86504   9.129  32.999   9.831
14779W        W86505  20.585  42.614   0.271
14780W        W86506  17.658  14.285   2.882
14781W        W86507  39.036  31.598   4.764
14782W        W86508  23.915  30.169   3.259
14783W        W86509  18.537  11.053   0.588
14784W        W86510  31.314  11.134  13.818
14785W        W86511   9.194  15.709  11.816
14786W        W86512  29.150  35.903  14.699
14787W        W86513  23.228  36.034   0.256
14788W        W86514   2.909  36.889   0.866
14789W        W86515  10.378   6.089  10.268
14790W        W86516  24.135   5.066  10.268
14791W        W86517   0.575  19.066   4.292
14792W        W86518  25.024  15.861   4.617
14793W        W86519  10.859  10.147  14.345
14794W        W86520  21.112  14.353  13.793
14795W        W86521  39.785  25.484   0.820
14796W        W86522  17.315  28.006  12.383
14797W        W86523   1.343  30.668   2.839
14798W        W86524  13.093  18.746   4.797
14799W        W86525  22.771  36.435   3.671
14800W        W86526   2.678   9.348  11.524
14801W        W86527  26.774   8.092   4.141
14802W        W86528  32.480  35.485   4.510
14803W        W86529   2.808  25.151  11.999
14804W        W86530  19.732  31.520   2.101
14805W        W86531  37.307   0.569  14.434
14806W        W86532  40.094   2.509   1.897
14807W        W86533   8.793  37.691  11.421
14808W        W86534  13.336  41.212  11.687
14809W        W86535  31.507  12.822   0.885
14810W        W86536   4.451   9.554   1.802
14811W        W86537   0.406  35.629  13.928
14812W        W86538   2.316   2.678   0.430
14813W        W86539   1.024   7.909  11.660
14814W        W86540  24.260  24.941  12.182
14815W        W86541  21.012  12.244   2.392
14816W        W86542  44.926   6.006   3.670
14817W        W86543  14.448   1.188  10.568
14818W        W86544  23.156  37.462  13.041
14819W        W86545  22.109  22.248   1.811
14820W        W86546  31.915   0.360   4.510
14821W        W86547   5.272  17.784  14.927
14822W        W86548  11.755  30.210   1.666
14823W        W86549  15.074  23.683  12.037
14824W        W86550   2.734   7.550  11.072
14825W        W86551  44.041  33.676   4.075
14826W        W86552  39.236  17.786   3.270
14827W        W86553  32.359   3.467   3.279
14828W        W86554  39.913  33.299   2.721
14829W        W86555  34.695  41.306   0.834
14830W        W86556  37.696  11.084   0.263
14831W        W86557  36.239  14.668  10.828
14832W        W86558   9.718  28.503   0.005
14833W        W86559  42.765   0.988  10.607
14834W        W86560  15.660  15.792  12.629
14835W        W86561  32.025  39.463   0.481
14836W        W86562  26.048  19.795   0.332
14837W        W86563  38.959  18.783   1.772
14838W        W86564  11.898  37.961  13.875
14839W        W86565  37.469  39.928  10.642
14840W        W86566  43.301   5.916  12.916
14841W        W86567  20.030  44.459   1.946
14842W        W86568  31.946  38.550   2.411
14843W        W86569  34.816   3.737   2.775
14844W        W86570  24.930  30.613  13.953
14845W        W86571   8.063  27.149   0.771
14846W        W86572  29.177   1.932  12.048
14847W        W86573   3.890  33.095  12.586
14848W        W86574  29.663  36.562  14.034
14849W        W86575  17.059  13.592  10.038
14850W        W86576  36.876  15.478  13.529
14851W        W86577  26.980  13.954  11.200
14852W        W86578   5.865  21.261  13.089
14853W        W86579  15.066  40.310  14.531
14854W        W86580  35.650  43.508   3.183
14855W        W86581  25.175   7.268   4.312
14856W        W86582  24.521  43.406  12.776
14857W        W86583  33.618  17.505   1.987
14858W        W86584  15.735  11.129  14.990
14859W        W86585  10.615  28.513   2.177
14860W        W86586  33.615  35.925   1.781
14861W        W86587  40.130  10.218  12.796
14862W        W86588   9.662  36.286  13.434
14863W        W86589  18.131  38.109   4.515
14864W        W86590  37.640   9.179   2.688
14865W        W86591   9.314  22.083   4.371
14866W        W86592  19.255   5.018   4.085
14867W        W86593  30.567  18.592  10.904
14868W        W86594   2.214  26.985  10.787
14869W        W86595  43.907   7.181   2.696
14870W        W86596  22.164  44.758  12.060
14871W        W86597  43.790  18.713  12.163
14872W        W86598  42.824  12.622  14.490
14873W        W86599   2.452  39.357   3.748
14874W        W86600  39.273  25.640  14.950
14875W        W86601  12.805  43.954  11.381
14876W        W86602  21.619  27.123  14.758
14877W        W86603  33.475   7.880  13.005
14878W        W86604  12.798  43.446   0.884
14879W        W86605  19.967  44.049   1.665
14880W        W86606  16.108  26.962   2.332
14881W        W86607  14.934  31.473   2.348
14882W        W86608  11.742  37.498   2.341
14883W        W86609   7.450  10.485  13.524
14884W        W86610  26.640  27.961  14.450
14885W        W86611  26.448  11.884   4.191
14886W        W86612  15.004  34.440  13.559
14887W        W86613  28.826  33.349  11.286
14888W        W86614  25.760  28.095   3.844
14889W        W86615  32.035  22.979   3.812
14890W        W86616  44.994   8.594   3.438
14891W        W86617  34.565  10.384   4.564
14892W        W86618   5.156   4.927   3.709
14893W        W86619  31.135  35.122  10.968
14894W        W86620   9.603   4.175  12.504
14895W        W86621   3.464  42.895   4.850
14896W        W86622  22.027  17.144  11.429
14897W        W86623   1.009  13.346   0.312
14898W        W86624  23.198  12.012  11.520
14899W        W86625  20.242  16.002   2.981
14900W        W86626  17.586  21.641  12.601
14901W        W86627  30.917  26.379  10.924
14902W        W86628  14.670  28.206   4.120
14903W        W86629  20.167  24.987   2.222
14904W        W86630  43.784   3.476   3.290
14905W        W86631   1.814  14.219   2.475
14906W        W86632  32.234  28.203   4.267
14907W        W86633  14.761   1.951   0.220
14908W        W86634  43.779  34.911  13.957
14909W        W86635  38.263   5.109  14.495
14910W        W86636  16.770  40.232   2.649
14911W        W86637   7.922  33.954   3.720
14912W        W86638  26.910  32.348   4.454
14913W        W86639  24.315   4.891   3.524
14914W        W86640  27.927  32.604   0.924
14915W        W86641  42.352  43.854   1.773
14916W        W86642  41.336   4.874   0.778
14917W        W86643   9.801   4.401   0.187
14918W        W86644   2.375  36.870   0.815
14919W        W86645  29.049  24.076  12.099
14920W        W86646   5.376  20.119   2.448
14921W        W86647  35.543  15.823  14.388
14922W        W86648   3.220   6.137  11.999
14923W        W86649   5.727  19.260  14.849
14924W        W86650  21.308  27.517  10.325
14925W        W86651   3.452  22.621   1.384
14926W        W86652  20.602  38.093   1.327
14927W        W86653   1.457  17.724  14.772
14928W        W86654   2.724  38.514   3.941
14929W        W86655  10.150  42.379  10.631
14930W        W86656  31.697  24.179   2.383
14931W        W86657  11.883  21.105  12.954
14932W        W86658   4.361   4.980  13.099
14933W        W86659   5.860   4.467  14.569
14934W        W86660  19.238  32.207   2.753
14935W        W86661  38.052  26.682  14.991
14936W        W86662  26.049   6.165  11.510
14937W        W86663  37.582  35.224  13.496
14938W        W86664   4.010  23.124   2.660
14939W        W86665  28.321  37.393  11.932
14940W        W86666  37.334   2.830  11.588
14941W        W86667   4.014  38.815  10.636
14942W        W86668  22.551  37.083   3.179
14943W        W86669  12.769  17.487  12.506
14944W        W86670   7.329  22.631   4.537
14945W        W86671  18.217  36.549   0.696
14946W        W86672  36.868  15.295  12.459
14947W        W86673  34.566   2.058   1.986
14948W        W86674  14.577  17.806  13.598
14949W        W86675  19.148   4.926  14.507
14950W        W86676   0.963  44.754   2.333
14951W        W86677  28.473   8.396  11.662
14952W        W86678  26.603  22.896  12.400
14953W        W86679  23.375   7.825   0.296
14954W        W86680   1.968  35.938   3.508
14955W        W86681   7.292  20.546  13.834
14956W        W86682  31.992   4.441   4.824
14957W        W86683  13.578  26.057  13.588
14958W        W86684  15.130  17.293   3.642
14959W        W86685  31.325  13.860   1.305
14960W        W86686  10.903  30.885   2.892
14961W        W86687  41.542  11.728   1.071
14962W        W86688  40.765  33.743   2.388
14963W        W86689  12.154  19.313  11.977
14964W        W86690  10.796  34.472  14.148
14965W        W86691   6.787  40.441  14.324
14966W        W86692  26.440  12.309  14.863
14967W        W86693   2.330  17.657  11.386
14968W        W86694   5.692  36.133  10.974
14969W        W86695  39.226  34.057   0.523
14970W        W86696  22.525  13.068  12.011
14971W        W86697  25.525   8.407   2.416
14972W        W86698  32.706   8.718  11.127
14973W        W86699  25.107   5.353   1.373
14974W        W86700  33.873  44.736  14.501
14975W        W86701  39.943   4.503  10.209
14976W        W86702  11.077  20.361   2.007
14977W        W86703   6.279   6.474  13.104
14978W        W86704  33.900  31.634   0.444
14979W        W86705  30.650   9.232   4.807
14980W        W86706  23.503  20.071   3.212
14981W        W86707   3.687  15.244   5.015
14982W        W86708  23.768   0.522   5.467
14983W        W86709  13.680  21.476   0.384
14984W        W86710  17.461  15.753  14.178
14985W        W86711   5.903  42.353   3.546
14986W        W86712   2.610  38.061  14.758
14987W        W86713  13.309   2.220  14.059
14988W        W86714  17.223  27.464  11.150
14989W        W86715  31.969   1.061  13.646
14990W        W86716  27.682  38.871   0.404
14991W        W86717  23.911  18.660  11.191
14992W        W86718  27.184  19.113   4.875
14993W        W86719  11.592  27.049  10.637
14994W        W86720  11.290  37.624  10.774
14995W        W86721  28.206  27.049  13.110
14996W        W86722  40.198  24.798  11.915
14997W        W86723  17.117  22.050  12.201
14998W        W86724  40.860  14.275   3.699
14999W        W86725  13.060   1.855  13.811
15000W        W86726  22.995  27.020   0.226
15001W        W86727  38.993  20.494   1.276
15002W        W86728  40.962  28.666   4.323
15003W        W86729   9.491  25.317  13.908
15004W        W86730  13.261  39.656  12.432
15005W        W86731  34.468  16.117  12.154
15006W        W86732  23.803  19.556  12.085
15007W        W86733  32.789  33.559  11.202
15008W        W86734  12.307  21.844   2.870
15009W        W86735  17.499  29.616  11.395
15010W        W86736  34.324  29.369  11.014
15011W        W86737   7.888  28.577  13.771
15012W        W86738   2.922   7.420  13.457
15013W        W86739   3.844  33.555   0.191
15014W        W86740  34.029  20.604   0.347
15015W        W86741  14.848   4.977  14.526
15016W        W86742  44.341  29.875   2.817
15017W        W86743  43.244  17.461  12.114
15018W        W86744  13.670  22.791   4.245
15019W        W86745   5.752  26.735   3.447
15020W        W86746  27.981  31.905   4.489
15021W        W86747  16.769  11.324   1.036
15022W        W86748  12.841  11.119  14.460
15023W        W86749  22.801  25.489  12.068
15024W        W86750   8.187  14.364  14.074
15025W        W86751   7.271  12.051   3.425
15026W        W86752  41.549  17.662   1.930
15027W        W86753  35.853   4.983   0.330
15028W        W86754  44.222  35.296  11.879
15029W        W86755  39.609  43.959   3.603
15030W        W86756  25.586  31.875   3.764
15031W        W86757  39.373  26.663   3.882
15032W        W86758  23.676  44.999  10.789
15033W        W86759  36.530  33.922  12.499
15034W        W86760  10.163  27.460   1.320
15035W        W86761  39.845  16.390   2.344
15036W        W86762   6.193   7.161   4.163
15037W        W86763   6.824  13.052   1.813
15038W        W86764   2.326   8.823  14.248
15039W        W86765   5.727  27.468   1.290
15040W        W86766   6.239  18.515   1.564
15041W        W86767  28.954   2.780  13.990
15042W        W86768  41.857   7.957  10.676
15043W        W86769   1.807  14.163   1.421
15044W        W86770   7.727  25.878   0.299
15045W        W86771  17.623  29.491   2.660
15046W        W86772   6.341   5.074   4.128
15047W        W86773   6.614  14.724  12.557
15048W        W86774   4.333  34.369  12.592
15049W        W86775   3.773  17.078   2.955
15050W        W86776  21.665  26.156  12.383
15051W        W86777  18.148  44.632   4.525
15052W        W86778   5.880  22.210  13.045
15053W        W86779  11.139  40.582   0.541
15054W        W86780   0.146   3.594  12.826
15055W        W86781  36.401   5.057   0.938
15056W        W86782  13.216   2.220   1.373
15057W        W86783  18.276  10.144  11.051
15058W        W86784  28.558  37.795   0.768
15059W        W86785   2.195  20.670  13.505
15060W        W86786   9.342  34.523  10.904
15061W        W86787  40.365  39.720  11.473
15062W        W86788   7.382  43.790   0.961
15063W        W86789  39.348  10.259  10.266
15064W        W86790  20.484  16.924  14.380
15065W        W86791   1.253  39.587  13.613
15066W        W86792  18.779  41.562   2.425
15067W        W86793  44.040   6.890   0.938
15068W        W86794  35.004  26.739   0.739
15069W        W86795  42.122   8.178   3.219
15070W        W86796  37.402   4.867   0.350
15071W        W86797  26.153  35.012  12.510
15072W        W86798  34.096   7.783   2.734
15073W        W86799   7.647  25.925  11.153
15074W        W86800  40.673  29.130   9.907
15075W        W86801  11.518  13.654   1.406
15076W        W86802  31.105  13.397  14.454
15077W        W86803  27.697  17.154   0.937
15078W        W86804  10.872  30.509   0.286
15079W        W86805   0.004  12.755  13.091
15080W        W86806  23.075  28.796  11.351
15081W        W86807  13.915   6.521   1.646
15082W        W86808  34.656  29.207  13.448
15083W        W86809  41.251  44.319   3.279
15084W        W86810  25.768   0.318   4.609
15085W        W86811  44.227  14.810   3.652
15086W        W86812  41.987   7.405   1.871
15087W        W86813  14.179  44.240  12.949
15088W        W86814   8.386  17.847  11.482
15089W        W86815  43.000  13.380   0.200
15090W        W86816  13.056  28.497  14.041
15091W        W86817  24.605  17.087  11.509
15092W        W86818  36.182  30.953   4.129
15093W        W86819  35.070  34.640  10.815
15094W        W86820   2.740  37.124  12.537
15095W        W86821  14.232  41.569   2.435
15096W        W86822  31.351  17.857  13.461
15097W        W86823   8.389   3.804  14.377
15098W        W86824  11.563  14.910   0.898
15099W        W86825  20.765  27.206   5.466
15100W        W86826  29.172  10.522  13.024
15101W        W86827  44.293   2.280   3.681
15102W        W86828  23.677  26.974   3.113
15103W        W86829  13.766  25.440   3.729
15104W        W86830   4.457  32.174  14.334
15105W        W86831  19.226  14.248   1.379
15106W        W86832  10.552  40.901  14.440
15107W        W86833  17.047  41.127  12.483
15108W        W86834   1.397  16.344  11.828
15109W        W86835   3.163  26.460   3.259
15110W        W86836   4.685  15.544   2.736
15111W        W86837   3.802   5.074  10.603
15112W        W86838   5.753   8.340   2.916
15113W        W86839  17.661   6.361   1.733
15114W        W86840  35.017  18.776   3.172
15115W        W86841   1.971  35.919  11.605
15116W        W86842  35.855   5.734  12.845
15117W        W86843  30.703  38.394  13.841
15118W        W86844  27.998  23.977   1.978
15119W        W86845  30.507  20.873  12.066
15120W        W86846  35.578  31.051   1.332
15121W        W86847  43.085  30.438  11.813
15122W        W86848  15.516  20.270  13.550
15123W        W86849  13.425   0.242  11.978
15124W        W86850   0.734  30.412   3.843
15125W        W86851  14.277  37.767   3.292
15126W        W86852  14.132  24.786   0.865
15127W        W86853  41.916  43.044   4.295
15128W        W86854   6.723  34.256   0.366
15129W        W86855  33.270  16.545   3.396
15130W        W86856  21.210   1.751  10.306
15131W        W86857  34.520  34.622  14.469
15132W        W86858  43.878  16.249  11.054
15133W        W86859  27.053  34.450  12.261
15134W        W86860  29.572  28.190  12.675
15135W        W86861  33.478  27.656   0.491
15136W        W86862  20.117  17.826   3.580
15137W        W86863  31.898   7.247  13.553
15138W        W86864  40.939  21.845  14.429
15139W        W86865  32.616  26.500   4.595
15140W        W86866  43.477  28.933   2.306
15141W        W86867  41.100  28.024   3.659
15142W        W86868  39.431  10.699  11.427
15143W        W86869  44.467  33.609  13.959
15144W        W86870  18.631  28.767   2.833
15145W        W86871   7.889  26.961   0.303
15146W        W86872   7.010  27.838   1.640
15147W        W86873   5.976   0.920   1.635
15148W        W86874  18.536   1.708  12.260
15149W        W86875  40.546  38.794  13.984
15150W        W86876  14.080  19.600   3.227
15151W        W86877  28.949  31.343   0.984
15152W        W86878  21.854  10.833  12.867
15153W        W86879  17.633  21.752   2.559
15154W        W86880  24.693  30.555   3.699
15155W        W86881  23.547  20.819   1.834
15156W        W86882  34.094  21.150  14.232
15157W        W86883  41.472  16.457  13.837
15158W        W86884  22.075  39.297  12.086
15159W        W86885  34.951  39.411   4.735
15160W        W86886  34.673  10.923   1.839
15161W        W86887  18.568  21.479  11.351
15162W        W86888  35.084   4.957   4.650
15163W        W86889  34.634  41.683   1.777
15164W        W86890   0.074  37.644  10.947
15165W        W86891   7.205  27.951  13.996
15166W        W86892   3.475  30.927  12.982
15167W        W86893  28.042  41.768  10.920
15168W        W86894  27.573  14.067  10.575
15169W        W86895  26.568   3.832   2.248
15170W        W86896  33.892  24.118   0.817
15171W        W86897  36.569   5.353   2.450
15172W        W86898  19.688  34.892   4.603
15173W        W86899  23.081  15.601  10.295
15174W        W86900  25.756  26.833   3.590
15175W        W86901  35.680  32.906  11.838
15176W        W86902   0.600  30.893   4.023
15177W        W86903  21.192  35.729   3.256
15178W        W86904  24.173  23.067   2.164
15179W        W86905  10.888  43.356  12.846
15180W        W86906  32.636  32.452  10.714
15181W        W86907  35.393  17.079   0.303
15182W        W86908  11.386   2.166  14.509
15183W        W86909   4.431  13.053  13.960
15184W        W86910  33.299  37.056  10.650
15185W        W86911   8.376  15.349  12.738
15186W        W86912  19.309   1.237  13.097
15187W        W86913  34.817  17.984  11.712
15188W        W86914   3.804   0.771   4.101
15189W        W86915  34.423   3.161   4.141
15190W        W86916   2.989  18.490   3.128
15191W        W86917   1.842  15.800   2.807
15192W        W86918   7.450  27.425   2.734
15193W        W86919  17.715   0.307   3.236
15194W        W86920  20.005  33.468  11.995
15195W        W86921  31.196  43.269  14.000
15196W        W86922  13.952   2.807  12.936
15197W        W86923  29.966  37.884   0.316
15198W        W86924  23.232  22.525   2.751
15199W        W86925  44.238  43.943  11.595
15200W        W86926  39.385  15.363  14.646
15201W        W86927  12.373  14.311  12.979
15202W        W86928   4.888   0.223  13.946
15203W        W86929  38.554  17.548  13.946
15204W        W86930  16.184   1.071   3.738
15205W        W86931   1.820  43.838   3.001
15206W        W86932  21.093  32.696  13.067
15207W        W86933  17.775  28.187  13.402
15208W        W86934  35.392  11.124  11.642
15209W        W86935  35.155  37.476   4.408
15210W        W86936  40.840  29.352  14.961
15211W        W86937  29.306   2.424   0.190
15212W        W86938  39.464  33.423   4.863
15213W        W86939  26.920   2.907   0.427
15214W        W86940  22.763  26.007  12.953
15215W        W86941  38.445  18.956  13.775
15216W        W86942   8.926   3.941   4.772
15217W        W86943  44.482   7.751  14.919
15218W        W86944  32.151  30.116   5.188
15219W        W86945  20.544  30.406   2.775
15220W        W86946  18.322  13.893  13.578
15221W        W86947  20.911  31.951  11.012
15222W        W86948  13.918  35.336   3.878
15223W        W86949  19.446  21.609  10.811
15224W        W86950  33.162  15.853  13.390
15225W        W86951  34.904  42.054  10.676
15226W        W86952  19.384  36.821   4.973
15227W        W86953  10.871  11.486   0.006
15228W        W86954  18.447  27.686  12.979
15229W        W86955  34.191   8.625   1.675
15230W        W86956  17.016  24.028  10.682
15231W        W86957  28.394  31.508   3.329
15232W        W86958  44.304  26.696  13.669
15233W        W86959   8.280  18.465   3.089
15234W        W86960   9.140   5.393   1.784
15235W        W86961  18.047  28.834  13.351
15236W        W86962  39.282  44.577  12.525
15237W        W86963  39.777  40.834   3.550
15238W        W86964  28.894  23.324   0.854
15239W        W86965   0.014  42.993  13.803
15240W        W86966  26.227  26.269  13.284
15241W        W86967  40.070  16.989   2.338
15242W        W86968   9.169  43.700   2.389
15243W        W86969   9.408  39.332   4.218
15244W        W86970  36.597   1.831   0.466
15245W        W86971  10.018  30.240   0.414
15246W        W86972   2.796  20.830  14.298
15247W        W86973  35.816   9.272  12.973
15248W        W86974  14.416   3.073   2.875
15249W        W86975  22.093  21.119   4.569
15250W        W86976  13.334  42.472  11.225
15251W        W86977  19.234  40.555   4.580
15252W        W86978  31.699  11.809   1.912
15253W        W86979  22.041  16.561  13.033
15254W        W86980  24.460  36.265   4.904
15255W        W86981  41.980  36.494   3.846
15256W        W86982  22.148   0.990  13.859
15257W        W86983   3.219  10.614   3.691
15258W        W86984   5.496  31.041  11.151
15259W        W86985  43.796  40.075   4.047
15260W        W86986  18.335   9.247   1.724
15261W        W86987  28.496  15.524   0.477
15262W        W86988  37.021   0.183   0.802
15263W        W86989  12.322   3.950   2.148
15264W        W86990  14.612  40.308  14.889
15265W        W86991  29.633  32.165  14.436
15266W        W86992   4.457  23.410   1.705
15267W        W86993  11.872  24.467  13.036
15268W        W86994  30.835  38.147   2.874
15269W        W86995  24.004  35.588   2.369
15270W        W86996  35.621  15.350   1.208
15271W        W86997   8.734   6.143   4.729
15272W        W86998  12.823   1.936   0.437
15273W        W86999  14.539  43.384   3.023
15274W        W87000  40.202   0.217   3.608
15275W        W87001  22.242  21.527   2.686
15276W        W87002  38.818  12.318   1.746
15277W        W87003  16.331  40.950  11.099
15278W        W87004  17.057   8.973  13.541
15279W        W87005   2.259  35.127   2.078
15280W        W87006   6.270  15.650   4.228
15281W        W87007  38.923   3.404  12.014
15282W        W87008  34.341  35.981  10.716
15283W        W87009   0.759  33.900   2.325
15284W        W87010  11.142  13.712   3.355
15285W        W87011  36.978  29.966  12.644
15286W        W87012  10.763  37.785  11.131
15287W        W87013  20.279  29.240   1.524
15288W        W87014  40.304  14.307  14.129
15289W        W87015  36.834  41.097   3.482
15290W        W87016  36.987  27.692  10.733
15291W        W87017  26.899  10.914   1.687
15292W        W87018  20.283   7.005  14.346
15293W        W87019  28.602   3.185   2.878
15294W        W87020   9.677  40.944  13.579
15295W        W87021  31.763  33.548   0.016
15296W        W87022  41.043  26.909   3.642
15297W        W87023  30.723   6.398   4.531
15298W        W87024  34.613  21.569  10.766
15299W        W87025  24.994  34.646   3.016
15300W        W87026  10.854  22.079  12.066
15301W        W87027   6.982  29.075  14.339
15302W        W87028  35.624  15.792   2.762
15303W        W87029  35.597  12.155   0.109
15304W        W87030   1.755   7.085   4.429
15305W        W87031  44.765   7.309  14.854
15306W        W87032  37.056  18.273   1.838
15307W        W87033  15.078  11.595   1.800
15308W        W87034  38.506  25.735   1.340
15309W        W87035  22.897  10.071  13.071
15310W        W87036  38.080  42.406   4.411
15311W        W87037  37.557  26.632  11.898
15312W        W87038  41.478  26.928  10.397
15313W        W87039  33.647   0.933  13.003
15314W        W87040  27.932   1.103  10.798
15315W        W87041  17.148  33.720  14.508
15316W        W87042  36.013  26.006   1.785
15317W        W87043  29.897   2.629   3.337
15318W        W87044  27.257  22.768   3.348
15319W        W87045  43.409   5.348   0.332
15320W        W87046  19.239  36.541   0.465
15321W        W87047   4.395  29.888  14.100
15322W        W87048  25.590  41.189  14.467
15323W        W87049  11.385  12.121  10.728
15324W        W87050  15.845  23.402  11.923
15325W        W87051  41.735  28.178  10.328
15326W        W87052  36.345  40.985  11.168
15327W        W87053  19.362  36.802  14.402
15328W        W87054  12.805  39.416  12.527
15329W        W87055   2.311  12.350  12.391
15330W        W87056   7.905  24.810  12.998
15331W        W87057  30.462  26.203   3.711
15332W        W87058  24.694  42.083   4.543
15333W        W87059  37.478   2.002   0.448
15334W        W87060  10.305   0.189  10.757
15335W        W87061  22.617  25.777   3.539
15336W        W87062  43.780  39.817   1.258
15337W        W87063  35.859   4.721   3.427
15338W        W87064  20.735  17.781   1.620
15339W        W87065   4.920  32.420  12.654
15340W        W87066   9.257  38.475   1.695
15341W        W87067  40.927   3.900   3.864
15342W        W87068  21.988  44.343  14.274
15343W        W87069   7.684  24.075  11.591
15344W        W87070  38.929   7.633   1.235
15345W        W87071  41.360   5.882   4.164
15346W        W87072  20.788  16.251  12.590
15347W        W87073  28.900  15.507  11.153
15348W        W87074   8.416  33.868  13.672
15349W        W87075   0.953  17.090  14.045
15350W        W87076   6.700  27.226  11.219
15351W        W87077  34.609  15.830   4.535
15352W        W87078  35.940   7.157  14.400
15353W        W87079  15.166  40.454  10.100
15354W        W87080  26.599   3.268   2.318
15355W        W87081  20.144  21.122   0.646
15356W        W87082  36.793  10.424  14.538
15357W        W87083  30.322  22.119  14.414
15358W        W87084  44.994  24.545  11.675
15359W        W87085  38.937  30.886  13.989
15360W        W87086  14.452  30.915  14.822
15361W        W87087  32.088   7.881  13.298
15362W        W87088  10.306  39.531   4.590
15363W        W87089  23.732  15.279   3.617
15364W        W87090  34.600  32.265   3.662
15365W        W87091  24.150  42.242  14.496
15366W        W87092  39.334  12.998   4.760
15367W        W87093  28.262   8.283   0.708
15368W        W87094  18.018   8.232  10.858
15369W        W87095  15.273  27.017   2.420
15370W        W87096  42.995   4.778   3.292
15371W        W87097  12.651  12.237  12.386
15372W        W87098   9.599  16.268  11.307
15373W        W87099  44.680  12.421   1.787
15374W        W87100  21.739  42.576   0.396
15375W        W87101  35.007  21.826   4.909
15376W        W87102  44.030   8.022   3.820
15377W        W87103  43.612  15.239  12.534
15378W        W87104  28.113  35.914   0.371
15379W        W87105   5.553  14.247   4.507
15380W        W87106  33.102  18.687  12.207
15381W        W87107  44.248  26.484  10.658
15382W        W87108  33.587  37.686   4.963
15383W        W87109   9.745  34.817  14.582
15384W        W87110  30.194  44.886  12.327
15385W        W87111  40.488  36.329   1.330
15386W        W87112  27.663   0.283   2.308
15387W        W87113  13.631  11.123   0.887
15388W        W87114  37.492  32.551  12.492
15389W        W87115   0.361  16.292   0.389
15390W        W87116  10.719  39.020  12.926
15391W        W87117  35.261  31.828  12.109
15392W        W87118  26.635   1.034  12.392
15393W        W87119  22.225  36.059   0.777
15394W        W87120  30.934  24.757   0.913
15395W        W87121  31.332  18.545  14.751
15396W        W87122  26.026   8.667   1.359
15397W        W87123   9.873  40.488  13.476
15398W        W87124   8.559  17.237   0.805
15399W        W87125   2.565  41.326  11.167
15400W        W87126  40.455  33.822  13.772
15401W        W87127  40.609  41.700   4.483
15402W        W87128   4.174  42.404   0.889
15403W        W87129  32.920  32.042   2.334
15404W        W87130  35.036  38.298  11.370
15405W        W87131  16.595  21.715   1.772
15406W        W87132  12.629  15.984  10.655
15407W        W87133  34.608  11.596  11.581
15408W        W87134  23.454  39.250   2.745
15409W        W87135  41.348  37.938   1.449
15410W        W87136  17.134  30.475  13.795
15411W        W87137  30.656   3.384   0.317
15412W        W87138   0.557  13.807   0.591
15413W        W87139   1.871  29.451   1.445
15414W        W87140   0.296  43.430   3.720
15415W        W87141  44.397  20.620   0.674
15416W        W87142  41.133  21.567  12.099
15417W        W87143   7.128  34.273   3.689
15418W        W87144  35.675  14.604  14.662
15419W        W87145  24.993  32.867   0.677
15420W        W87146  39.736  10.221  10.658
15421W        W87147  36.969  34.160  11.639
15422W        W87148   5.094  23.240  11.615
15423W        W87149   6.683  34.365  14.288
15424W        W87150   1.120  41.530  11.590
15425W        W87151  10.876   5.390  11.937
15426W        W87152  44.216  22.715  12.206
15427W        W87153   3.840  22.189  13.030
15428W        W87154  26.129  11.403   1.708
15429W        W87155  38.101   3.765  13.450
15430W        W87156  16.910  44.931  12.955
15431W        W87157  40.205   6.291   3.256
15432W        W87158   1.738  20.610   2.720
15433W        W87159  37.610  32.120   2.754
15434W        W87160  27.046   0.501  13.511
15435W        W87161   0.949  25.206   1.464
15436W        W87162   8.469  35.482  14.067
15437W        W87163  27.508  11.727  10.972
15438W        W87164  26.162  14.387  11.204
15439W        W87165  35.789  25.736  11.004
15440W        W87166  42.221  15.565   2.769
15441W        W87167  36.009   3.283  14.700
15442W        W87168  39.830  23.174  12.156
15443W        W87169  44.821  28.242   0.419
15444W        W87170   8.445   3.308  14.491
15445W        W87171   6.751  12.052  14.807
15446W        W87172   1.966   6.980  11.115
15447W        W87173  27.052  27.304   0.361
15448W        W87174  22.448  40.517  14.673
15449W        W87175  27.406   3.913   3.877
15450W        W87176   6.092  38.324  13.975
15451W        W87177   6.664  10.664   2.831
15452W        W87178  34.604  39.405   2.147
15453W        W87179  22.130  32.510  14.154
15454W        W87180  14.693  18.641  12.144
15455W        W87181  17.201  36.623   3.648
15456W        W87182  33.580   4.691  12.675
15457W        W87183  40.033  19.247  11.624
15458W        W87184  25.587  21.709  13.052
15459W        W87185  37.335  19.322  13.529
15460W        W87186  34.640  32.479   1.235
15461W        W87187  36.637   7.885  13.795
15462W        W87188   9.104  12.302  14.984
15463W        W87189  14.052   8.819  11.203
15464W        W87190  21.761  22.113   4.067
15465W        W87191  19.996  41.589  14.880
15466W        W87192  13.722  24.007   0.799
15467W        W87193  17.619   9.241   4.143
15468W        W87194  35.482  24.563  12.351
15469W        W87195  15.112  29.148   0.282
15470W        W87196  10.664  40.746   4.166
15471W        W87197  14.410  42.944  14.404
15472W        W87198  22.690  12.409  12.587
15473W        W87199  39.264  17.679  10.601
15474W        W87200   7.865  12.848  10.685
15475W        W87201  36.564  17.055  11.429
15476W        W87202   9.445  10.170  11.568
15477W        W87203   8.350   0.298  10.752
15478W        W87204  35.839  39.908   4.945
15479W        W87205   7.341   9.734   2.984
15480W        W87206  12.408  18.179  13.054
15481W        W87207  41.488  22.620   3.194
15482W        W87208  20.191  33.038  12.212
15483W        W87209  42.369  30.448   0.712
15484W        W87210   3.007  16.607   2.764
15485W        W87211  23.827   5.660  11.253
15486W        W87212  39.368  11.670   1.989
15487W        W87213  39.754  41.081   0.813
15488W        W87214  34.985  14.574   1.465
15489W        W87215   7.174  37.686  12.107
15490W        W87216   2.797  23.744  14.736
15491W        W87217  26.081  39.523   1.836
15492W        W87218  41.853   4.857   2.604
15493W        W87219  20.169  44.399   4.939
15494W        W87220   9.131  26.617   2.266
15495W        W87221  34.660  18.972   1.161
15496W        W87222  18.330  14.773   2.832
15497W        W87223  31.505  13.340   0.904
15498W        W87224  41.087  30.581   2.668
15499W        W87225  17.538  32.438  13.031
15500W        W87226  25.636   5.375   3.671
15501W        W87227  13.364  28.177   4.719
15502W        W87228   6.357   3.420   5.115
15503W        W87229   0.862   3.737   1.266
15504W        W87230  18.090  29.596   2.454
15505W        W87231   7.621  40.995  10.178
15506W        W87232   7.314  29.559  13.737
15507W        W87233  17.808  38.289   2.770
15508W        W87234  30.221  20.035  11.953
15509W        W87235  26.074  25.350   3.688
15510W        W87236  15.255  37.841  11.079
15511W        W87237  15.578  29.721  14.977
15512W        W87238  28.426  10.676  11.215
15513W        W87239  31.072  18.699   4.676
15514W        W87240  40.867  23.139   2.106
15515W        W87241  36.802  12.478  11.244
15516W        W87242  29.558  24.634  14.476
15517W        W87243  28.912   0.752  12.480
15518W        W87244  37.048  40.531   1.271
15519W        W87245  10.464  23.140   4.871
15520W        W87246  38.753  34.571  12.138
15521W        W87247   7.117  31.542   4.396
15522W        W87248  13.399  38.995   0.762
15523W        W87249  43.647  35.810  12.040
15524W        W87250  35.553  18.762   4.557
15525W        W87251  17.339  14.710   0.546
15526W        W87252  10.171  32.077  14.443
15527W        W87253   6.944  29.700  11.513
15528W        W87254   8.701   9.130  14.283
15529W        W87255  32.873  35.354   3.132
15530W        W87256  25.559  43.046   1.457
15531W        W87257  24.982  14.131   2.218
15532W        W87258  22.730   0.474   0.549
15533W        W87259  40.545   5.194  14.474
15534W        W87260   1.936  23.734   0.894
15535W        W87261  38.679  36.783  11.411
15536W        W87262  25.888  31.913   4.243
15537W        W87263  14.380  20.952   3.212
15538W        W87264  40.076  43.899   1.534
15539W        W87265  32.944  34.868   2.195
15540W        W87266  24.002  16.135  12.104
15541W        W87267  30.514  28.115   0.915
15542W        W87268  39.539  14.461   0.113
15543W        W87269   1.986  11.765  13.367
15544W        W87270  43.319  29.923   3.794
15545W        W87271  36.613  37.874   3.692
15546W        W87272  39.778  27.480  13.425
15547W        W87273   7.726  42.328  13.834
15548W        W87274  38.864   2.280  13.128
15549W        W87275   0.289  36.995   1.131
15550W        W87276  21.320  12.684   3.313
15551W        W87277  31.881  21.182  10.534
15552W        W87278  36.910  33.612  10.732
15553W        W87279  31.901  12.872   3.338
15554W        W87280   5.713  16.254  10.306
15555W        W87281  33.879  24.600  13.491
15556W        W87282   2.239  44.101   5.315
15557W        W87283  27.607  33.996   2.089
15558W        W87284   3.951  37.695   0.900
15559W        W87285   2.603  44.316  13.446
15560W        W87286   9.583  29.100   2.841
15561W        W87287  30.660  42.225   9.711
15562W        W87288  30.671  18.282  11.670
15563W        W87289   7.228  10.145   4.552
15564W        W87290  13.137  24.440  12.120
15565W        W87291  40.588   1.874   0.596
15566W        W87292  19.182  13.698  12.128
15567W        W87293  27.058   6.102   3.133
15568W        W87294  38.067  22.208   1.398
15569W        W87295  33.959  37.058   0.238
15570W        W87296  39.192  19.261   1.368
15571W        W87297  24.653  18.727   2.755
15572W        W87298  40.788  13.036  12.918
15573W        W87299  40.921  24.921   0.411
15574W        W87300  23.563  37.406  13.354
15575W        W87301   2.229  21.216   0.306
15576W        W87302   8.509  41.366   3.749
15577W        W87303  23.570  15.864  11.527
15578W        W87304  23.534   4.789  11.119
15579W        W87305  36.919  38.950  10.583
15580W        W87306   1.334  18.224   0.991
15581W        W87307  12.897  19.002  14.145
15582W        W87308  33.084  35.896  13.438
15583W        W87309   2.764   7.863   4.179
15584W        W87310   2.464  18.538   4.547
15585W        W87311  19.018  23.085  10.819
15586W        W87312  11.177  29.567   0.396
15587W        W87313  27.661  10.824  11.520
15588W        W87314  19.426   6.483  11.976
15589W        W87315  20.951  19.415  14.473
15590W        W87316   2.953   0.946   3.833
15591W        W87317  23.678   3.353  11.376
15592W        W87318  15.484  24.572   2.954
15593W        W87319  14.299  27.489  14.945
15594W        W87320   7.124  24.131   2.829
15595W        W87321   0.801  21.148  13.869
15596W        W87322  40.507   2.698   3.737
15597W        W87323  33.078  29.493   0.369
15598W        W87324  30.926  43.494   4.146
15599W        W87325  42.487  31.970   4.648
15600W        W87326   6.870  41.093  12.327
15601W        W87327   3.181  29.021  14.582
15602W        W87328   2.483  13.062  13.907
15603W        W87329  42.857   2.057  10.966
15604W        W87330  31.886  38.004   3.708
15605W        W87331  33.731  12.273  11.534
15606W        W87332   8.185  33.414   3.637
15607W        W87333  13.178  35.969  11.241
15608W        W87334  15.179  32.613  13.040
15609W        W87335  36.928  22.210   0.433
15610W        W87336  22.577  31.106   3.065
15611W        W87337   9.155  26.129  11.148
15612W        W87338  38.341  37.115   1.968
15613W        W87339   5.644  33.375   2.748
15614W        W87340  38.289   8.685   4.143
15615W        W87341   2.231  11.145  11.984
15616W        W87342  19.168  35.730  12.884
15617W        W87343  12.650  27.533   0.710
15618W        W87344  44.522  19.218   4.855
15619W        W87345  15.273  32.221   2.327
15620W        W87346   0.511  12.756  13.869
15621W        W87347  21.279  33.048   4.279
15622W        W87348  30.584  35.866  13.323
15623W        W87349  30.815  28.010  11.086
15624W        W87350  35.051  24.795  11.540
15625W        W87351  40.052  43.459   2.880
15626W        W87352  25.760   3.333  14.515
15627W        W87353  28.370  28.125   2.690
15628W        W87354  25.861  36.013   3.889
15629W        W87355  34.947   9.785  13.310
15630W        W87356  27.112  24.912   4.684
15631W        W87357  23.700   4.120   4.981
15632W        W87358  21.745  22.567  12.045
15633W        W87359  33.201  21.313  11.231
15634W        W87360  29.653   0.701  11.549
15635W        W87361  13.747   5.846   1.685
15636W        W87362   7.829  15.251  12.113
15637W        W87363  18.548  11.297   4.166
15638W        W87364  35.502   0.383   3.916
15639W        W87365  29.737  42.686   4.200
15640W        W87366  14.091   8.953   3.810
15641W        W87367  31.861  42.376  12.352
15642W        W87368   3.367  44.931   0.053
15643W        W87369  35.459  18.791   2.899
15644W        W87370  34.137  24.034  10.887
15645W        W87371  44.241  13.546   2.732
15646W        W87372  41.946   9.801  12.045
15647W        W87373  22.567  27.838  13.291
15648W        W87374  38.547  25.966  11.126
15649W        W87375  42.244  33.914  14.828
15650W        W87376  25.475  33.338   0.382
15651W        W87377  22.463   2.777   2.622
15652W        W87378  17.066   4.777   2.856
15653W        W87379  31.608  41.818  13.608
15654W        W87380  16.091  41.349  14.835
15655W        W87381  36.551  36.818   4.684
15656W        W87382   8.882  16.077  12.070
15657W        W87383  27.772   4.005   1.643
15658W        W87384  39.263  14.686  11.511
15659W        W87385  17.063  39.288   5.123
15660W        W87386  28.991  26.158   4.750
15661W        W87387  17.081  10.319  10.729
15662W        W87388  33.167  19.166  12.861
15663W        W87389   0.928  37.977  11.007
15664W        W87390  40.765  32.636   0.237
15665W        W87391  32.170  21.232  12.353
15666W        W87392   6.036  39.434  12.166
15667W        W87393  22.083  33.074  12.939
15668W        W87394   4.161  32.542   4.604
15669W        W87395  25.038  15.072  11.105
15670W        W87396   3.803   3.365   3.278
15671W        W87397  27.438  17.929   4.965
15672W        W87398  14.648   4.285  13.834
15673W        W87399  15.989  12.321  11.464
15674W        W87400  22.650  21.908  13.368
15675W        W87401  43.471  11.749  11.221
15676W        W87402  37.104  33.230  12.105
15677W        W87403  15.818  43.013   4.240
15678W        W87404   9.872  43.112  12.637
15679W        W87405  11.590  19.530  10.671
15680W        W87406  12.641  16.349  12.981
15681W        W87407   8.435  20.807   1.014
15682W        W87408  43.174   4.890   0.425
15683W        W87409  42.364   1.872  14.005
15684W        W87410  20.061   7.908   2.864
15685W        W87411  38.079  18.518  11.654
15686W        W87412  18.076   3.216  12.360
15687W        W87413  36.000  33.944  13.610
15688W        W87414  23.175  12.145  12.482
15689W        W87415  16.777  12.625   2.420
15690W        W87416  34.009   5.702  11.058
15691W        W87417  40.740  30.154  13.338
15692W        W87418  10.167  42.057   2.733
15693W        W87419  18.499  35.708  14.019
15694W        W87420  42.240  29.683   2.873
15695W        W87421  19.853  37.084   4.108
15696W        W87422  24.415  17.508   3.183
15697W        W87423  31.003  11.264   4.625
15698W        W87424  11.457  13.015  11.561
15699W        W87425  38.308  35.737   0.034
15700W        W87426  18.523   6.610  11.139
15701W        W87427  33.454  41.866   4.126
15702W        W87428  14.875  22.146  13.610
15703W        W87429  17.132   7.414  14.475
15704W        W87430   2.393  22.995   0.973
15705W        W87431  23.961  30.265   0.384
15706W        W87432  36.662  33.560   2.221
15707W        W87433  30.026  30.920  12.455
15708W        W87434  26.001  12.057  10.627
15709W        W87435  31.280  27.466  13.167
15710W        W87436  43.074  31.630   3.147
15711W        W87437  29.611  14.079   3.646
15712W        W87438  14.852  28.221  11.063
15713W        W87439  26.513  32.031   2.682
15714W        W87440  32.522  42.321   2.246
15715W        W87441  25.996  21.771  13.342
15716W        W87442  39.785  24.399  14.796
15717W        W87443  41.059  36.308  11.477
15718W        W87444  31.243  28.995  13.445
15719W        W87445  18.150   8.789  13.817
15720W        W87446   3.495  23.217   2.656
15721W        W87447  18.960  14.120  14.845
15722W        W87448  34.489  21.137   5.005
15723W        W87449   0.789  28.981  10.628
15724W        W87450  41.034  29.107   3.857
15725W        W87451  17.081  42.518   0.043
15726W        W87452  30.964   7.300   1.758
15727W        W87453  25.573  44.294   2.882
15728W        W87454  44.504   4.865  12.431
15729W        W87455  21.757   6.453  10.680
15730W        W87456  20.283   8.231  13.918
15731W        W87457  17.203  16.754   3.218
15732W        W87458   7.213   0.267  12.926
15733W        W87459   4.877  16.556   4.194
15734W        W87460  11.176  38.591   4.706
15735W        W87461  29.850  15.852   0.252
15736W        W87462  35.627   9.148  13.479
15737W        W87463  37.256   7.136  12.515
15738W        W87464  43.317  40.954   0.862
15739W        W87465   0.035  24.670  14.806
15740W        W87466  15.244   4.620   3.841
15741W        W87467  23.536   3.854  11.163
15742W        W87468  35.787  31.676   1.907
15743W        W87469  26.137  43.931  14.875
15744W        W87470  38.288  32.918   0.320
15745W        W87471   9.519  25.151  14.837
15746W        W87472  19.081   3.702  13.742
15747W        W87473  12.016  14.026  13.256
15748W        W87474  40.599  38.119   4.048
15749W        W87475  14.129   4.446  12.066
15750W        W87476  22.553  11.246  10.629
15751W        W87477  36.554  42.223   0.369
15752W        W87478   5.407   5.556   4.178
15753W        W87479   5.240   3.392   3.194
15754W        W87480  17.247  22.903   1.804
15755W        W87481  43.711   4.830   2.834
15756W        W87482  19.789  39.441   2.752
15757W        W87483  30.024  33.603   1.283
15758W        W87484  30.546   3.909   0.427
15759W        W87485  10.796  26.045   2.214
15760W        W87486  40.473  17.840   3.573
15761W        W87487   8.290  11.175   3.158
15762W        W87488  20.366   2.732   1.902
15763W        W87489   6.350   8.876  13.354
15764W        W87490  26.006  33.464   4.603
15765W        W87491   3.399  20.213   0.446
15766W        W87492  43.967  37.950   2.106
15767W        W87493   9.785  15.310  13.395
15768W        W87494  41.849  21.671   4.502
15769W        W87495  42.320  24.906   5.165
15770W        W87496  39.741  15.159   2.803
15771W        W87497  39.842  28.500   1.124
15772W        W87498   9.634  39.575  11.641
15773W        W87499  42.839  28.632  10.677
15774W        W87500   5.879  34.484   2.404
15775W        W87501  24.986  18.539  10.660
15776W        W87502  13.355   0.308   4.350
15777W        W87503   9.318  16.485   1.719
15778W        W87504  16.736   2.519   1.749
15779W        W87505  18.835   3.810   2.695
15780W        W87506  12.701  16.052  11.966
15781W        W87507   9.593   2.354  13.514
15782W        W87508  26.205  30.626   4.618
15783W        W87509  23.496   3.941  14.118
15784W        W87510  21.564   0.496   1.401
15785W        W87511  36.317  36.068   0.883
15786W        W87512  39.777   2.967   2.793
15787W        W87513  24.458  25.057   3.296
15788W        W87514   9.068  20.789  13.946
15789W        W87515   2.730   9.884  10.856
15790W        W87516  38.879  23.302   0.723
15791W        W87517  43.515  13.103  13.943
15792W        W87518  44.346  25.936  11.884
15793W        W87519  10.601  36.832   4.028
15794W        W87520  14.257  21.774   3.577
15795W        W87521  27.671  31.148   3.673
15796W        W87522  23.441  42.062   4.153
15797W        W87523   5.706  22.666  14.954
15798W        W87524   2.484  14.436  12.471
15799W        W87525   7.923  18.747   2.862
15800W        W87526  16.760  31.596   0.877
15801W        W87527  34.298  38.607   2.765
15802W        W87528  13.661   4.846   3.065
15803W        W87529  38.156  26.074   0.443
15804W        W87530  29.264  40.670  13.929
15805W        W87531  35.875  32.454  12.010
15806W        W87532  27.208  13.021   1.800
15807W        W87533  30.326  35.524   3.225
15808W        W87534  22.559  37.942   2.373
15809W        W87535   4.385  20.056  10.789
15810W        W87536   3.169  33.990   1.029
15811W        W87537  25.186   4.871   3.107
15812W        W87538  28.171  30.528   1.369
15813W        W87539  15.070  16.169  10.575
15814W        W87540   6.182  11.091  13.804
15815W        W87541  25.558   9.679   2.056
15816W        W87542   4.344  10.701   2.478
15817W        W87543  30.972  41.357  13.944
15818W        W87544  33.520  37.409   0.777
15819W        W87545   4.977  39.965   4.158
15820W        W87546  21.734  14.859  11.574
15821W        W87547  20.175  41.597   1.248
15822W        W87548   4.626  43.114   1.908
15823W        W87549  30.090  37.936   1.306
15824W        W87550  13.377  13.806   2.801
15825W        W87551  37.211  18.272  11.214
15826W        W87552   3.362  43.758  12.478
15827W        W87553  11.776   2.355  13.070
15828W        W87554  42.883  39.851   3.736
15829W        W87555  44.159  19.682  10.723
15830W        W87556   6.185  28.057   3.131
15831W        W87557  15.554  25.492   3.940
15832W        W87558   3.419  23.620   3.703
15833W        W87559  22.232  27.725  14.271
15834W        W87560  11.092  31.935   2.805
15835W        W87561  15.508  10.851  14.109
15836W        W87562  11.373   4.728   0.650
15837W        W87563  33.120  37.910   4.967
15838W        W87564  34.046  15.825  14.435
15839W        W87565  37.032  36.846  12.045
15840W        W87566  13.334  41.401  13.122
15841W        W87567  30.578  20.641   2.839
15842W        W87568  38.980  11.622  12.471
15843W        W87569   9.790  31.100   4.480
15844W        W87570  34.836  38.901  13.900
15845W        W87571  36.495  12.247   1.651
15846W        W87572  28.454  13.143   1.325
15847W        W87573  28.464  32.859  14.685
15848W        W87574   8.902  41.539   3.183
15849W        W87575   8.127   7.338  13.254
15850W        W87576   0.270   4.108  11.574
15851W        W87577  41.743  40.488   3.815
15852W        W87578  42.227  33.496  13.514
15853W        W87579   2.119  32.426  14.530
15854W        W87580  20.209   3.571  14.428
15855W        W87581  28.373   9.659  10.923
15856W        W87582  27.150  34.903  10.550
15857W        W87583  43.382  35.071  12.952
15858W        W87584  28.707   7.463   3.217
15859W        W87585   4.299  44.276   1.321
15860W        W87586  40.855   3.459   4.809
15861W        W87587  21.486  40.945   4.961
15862W        W87588  31.143  30.764   2.783
15863W        W87589   2.966  28.262   0.016
15864W        W87590   0.609   6.313  12.003
15865W        W87591  14.196  13.191  13.583
15866W        W87592   2.168  20.195   3.021
15867W        W87593  21.538  29.631   0.963
15868W        W87594   3.410  39.424   2.653
15869W        W87595   3.774  13.935   2.786
15870W        W87596   9.618  26.557   5.167
15871W        W87597  43.537  36.896   4.083
15872W        W87598  23.884  41.825   3.859
15873W        W87599  23.893  39.050   2.476
15874W        W87600  21.496  10.402  12.891
15875W        W87601   5.397  43.383  14.534
15876W        W87602   8.834  44.278   0.602
15877W        W87603   6.905   6.711  11.194
15878W        W87604  31.680  28.014   2.410
15879W        W87605  26.707   8.663   1.958
15880W        W87606   0.941  28.102  10.697
15881W        W87607  31.681   5.696   4.051
15882W        W87608  25.751  19.237  14.359
15883W        W87609   7.934   8.818  11.591
15884W        W87610  35.864  19.088  12.490
15885W        W87611  28.953  32.916   1.946
15886W        W87612  33.989  16.852  10.943
15887W        W87613   7.714   4.564  14.447
15888W        W87614  42.294  39.586  11.469
15889W        W87615  24.489  34.692  11.118
15890W        W87616   5.872   7.620   4.065
15891W        W87617  32.045  25.155   4.617
15892W        W87618  21.279  21.508  11.058
15893W        W87619  21.548   2.795  13.585
15894W        W87620   1.761  34.228   2.162
15895W        W87621  34.001  37.878   4.740
15896W        W87622  14.164   7.854   1.811
15897W        W87623  14.394  25.074   0.321
15898W        W87624   7.054  38.621   3.724
15899W        W87625  35.936  22.336  12.171
15900W        W87626  37.466  35.073  12.982
15901W        W87627   7.584  42.348  14.325
15902W        W87628  26.426  24.406   3.634
15903W        W87629   3.259   2.305  14.495
15904W        W87630  34.871   6.468  13.836
15905W        W87631  19.054  39.216   2.794
15906W        W87632  23.595  22.503   2.297
15907W        W87633   6.743  42.994  12.468
15908W        W87634  36.648  44.875   0.447
15909W        W87635  41.818  34.194  11.127
15910W        W87636  43.505   7.748   2.579
15911W        W87637  15.044  35.839   1.252
15912W        W87638  14.347  19.053   2.084
15913W        W87639   7.770  11.333   3.189
15914W        W87640  11.197  43.878   1.855
15915W        W87641  35.511  12.125   2.521
15916W        W87642  16.255  38.126   2.679
15917W        W87643   4.274  43.470  12.823
15918W        W87644  18.018  20.102  10.697
15919W        W87645  18.804  27.983  14.096
15920W        W87646  18.646  18.994  13.851
15921W        W87647   1.347  14.751  14.782
15922W        W87648  26.982  20.690   1.320
15923W        W87649  28.657  41.946   4.662
15924W        W87650  34.028  37.524   0.442
15925W        W87651   9.677  40.412   0.381
15926W        W87652  15.119   0.058  12.072
15927W        W87653  35.992  39.805  12.233
15928W        W87654  44.947  36.798  13.517
15929W        W87655  16.842   3.416   4.186
15930W        W87656  32.350   9.851   3.052
15931W        W87657   2.924  17.232  12.396
15932W        W87658   3.067  41.925  11.564
15933W        W87659   2.553  39.857   3.718
15934W        W87660  26.914  13.013   3.761
15935W        W87661  31.862  34.037   4.084
15936W        W87662  44.478  22.225   3.198
15937W        W87663  10.677   8.962   2.191
15938W        W87664   1.206  29.421  11.387
15939W        W87665  32.997  27.996   2.730
15940W        W87666  32.428  39.572  13.001
15941W        W87667   9.635  29.161   4.150
15942W        W87668   5.244   7.515  11.662
15943W        W87669   7.331  11.387  12.141
15944W        W87670   8.103   6.274   1.262
15945W        W87671   6.377   3.959   5.052
15946W        W87672  11.147  37.438   2.561
15947W        W87673   5.462  13.073   5.469
15948W        W87674  18.559  29.832   4.630
15949W        W87675  14.236  33.380   4.029
15950W        W87676  31.191  17.509  11.012
15951W        W87677  21.502  43.959  13.585
15952W        W87678   3.881   2.658  13.839
15953W        W87679  21.626  27.170  10.080
15954W        W87680  10.124  41.535   0.962
15955W        W87681  21.525   3.999   1.311
15956W        W87682  19.267   4.540  12.965
15957W        W87683  33.488  17.966   1.204
15958W        W87684  30.555  25.689   3.702
15959W        W87685   2.997  42.217   3.192
15960W        W87686  21.331   1.781   0.041
15961W        W87687   3.012  21.977   4.495
15962W        W87688  44.916  23.187   3.855
15963W        W87689  18.087   8.214   3.667
15964W        W87690  39.887  23.910  12.953
15965W        W87691  13.690   5.325   3.228
15966W        W87692   7.360  36.909   0.841
15967W        W87693  29.729  10.073   2.289
15968W        W87694  39.223  13.122  14.897
15969W        W87695  39.441  37.289  13.924
15970W        W87696  31.604   7.291  12.286
15971W        W87697  43.910  35.454  13.737
15972W        W87698  37.161  30.270  14.062
15973W        W87699  32.660  17.229   4.877
15974W        W87700   9.434  19.630  11.121
15975W        W87701  18.590  14.780   4.620
15976W        W87702  20.738   8.801  13.462
15977W        W87703  40.593  33.094   4.715
15978W        W87704  36.907  24.462   4.546
15979W        W87705  13.573  34.838  11.692
15980W        W87706  36.035  41.543   3.303
15981W        W87707   3.567  21.764   1.781
15982W        W87708  37.124  15.166  14.619
15983W        W87709  17.332  16.596   1.959
15984W        W87710  24.155  14.722   4.606
15985W        W87711  20.365  32.853   4.333
15986W        W87712   3.886  26.212   0.733
15987W        W87713  35.588  26.567   4.972
15988W        W87714  10.204  24.123   0.212
15989W        W87715  31.375  10.354   3.177
15990W        W87716  15.012  40.442   0.882
15991W        W87717  22.012   3.941   4.952
15992W        W87718  42.331   2.194  12.535
15993W        W87719  27.661  44.120   4.868
15994W        W87720  10.114  19.677   1.506
15995W        W87721  35.627  20.510   4.163
15996W        W87722  22.138   3.491   4.713
15997W        W87723  16.317   0.294  12.034
15998W        W87724  29.561  44.593  14.945
15999W        W87725  14.158  13.249   4.113
16000W        W87726   6.855  33.459   3.342
16001W        W87727   0.196  26.784  12.471
16002W        W87728   0.967  14.784   3.198
16003W        W87729   8.355  35.156   0.928
16004W        W87730  26.456  13.123  14.352
16005W        W87731  44.716  14.490  13.458
16006W        W87732  30.265  13.137   0.953
16007W        W87733  24.883  20.819   1.289
16008W        W87734  21.799  21.182   3.787
16009W        W87735  41.010  39.237   2.541
16010W        W87736  20.655   0.125   1.856
16011W        W87737   8.211  36.615   3.912
16012W        W87738   3.589  14.742  11.663
16013W        W87739  24.471  27.187  13.428
16014W        W87740   7.761  28.093  14.859
16015W        W87741   8.606  25.492   2.765
16016W        W87742   7.187  38.001  14.513
16017W        W87743   7.783   9.446   0.072
16018W        W87744  36.328  28.508   1.786
16019W        W87745  16.033  18.570   2.685
16020W        W87746  40.292  24.884  13.040
16021W        W87747  10.079  34.951  10.983
16022W        W87748   9.695  13.091   1.790
16023W        W87749  20.593  38.797   0.815
16024W        W87750  31.040  36.434  10.642
16025W        W87751  37.966  25.212   0.733
16026W        W87752  15.377  42.467   3.748
16027W        W87753  21.660  32.123   4.397
16028W        W87754  36.158  13.139   4.187
16029W        W87755  25.800  23.082  14.493
16030W        W87756  18.787  29.321  11.108
16031W        W87757  38.096  20.492  14.959
16032W        W87758  10.829  27.676   4.510
16033W        W87759  30.148  39.481  12.563
16034W        W87760   1.702  33.572  12.851
16035W        W87761  32.492   9.373  13.284
16036W        W87762   9.918  13.213  10.886
16037W        W87763  19.253   6.420  13.042
16038W        W87764   5.944  42.948  13.966
16039W        W87765  43.437  30.672  14.582
16040W        W87766   1.941   8.345   1.714
16041W        W87767  21.150  14.711  12.637
16042W        W87768  38.525  10.920  14.824
16043W        W87769  31.410  41.495  12.998
16044W        W87770  29.047  19.163  13.061
16045W        W87771  15.318  23.246  11.909
16046W        W87772  28.413  33.599  14.096
16047W        W87773  35.910  39.844   2.896
16048W        W87774  16.425  20.886   0.255
16049W        W87775  40.287  33.661  14.251
16050W        W87776  20.299  34.800  11.436
16051W        W87777  42.999   6.833   2.209
16052W        W87778  17.037  41.774  14.362
16053W        W87779   8.799  31.466  14.345
16054W        W87780  29.514  15.386   3.104
16055W        W87781  11.603  31.416  14.068
16056W        W87782  25.553  33.669  11.102
16057W        W87783   5.789  33.539  14.886
16058W        W87784  20.071   7.092   2.302
16059W        W87785  33.534  19.712  13.382
16060W        W87786  36.060  43.292   0.972
16061W        W87787   4.509  44.433   3.375
16062W        W87788  28.321  36.141  11.974
16063W        W87789   2.288  22.548   3.442
16064W        W87790  44.269  36.308  11.060
16065W        W87791  22.970   2.205  11.641
16066W        W87792  32.648  24.071   2.312
16067W        W87793  17.589   5.945   3.713
16068W        W87794  37.413  14.260   3.220
16069W        W87795   1.441  11.864   1.736
16070W        W87796  10.480  11.705   1.322
16071W        W87797  37.410  20.252  14.494
16072W        W87798  27.219  40.033   1.708
16073W        W87799   6.653  36.387   1.037
16074W        W87800  15.626   6.760  11.896
16075W        W87801   0.373  42.987   1.507
16076W        W87802  16.361  17.557  14.347
16077W        W87803  37.243  17.162  13.870
16078W        W87804  19.709  43.092   3.235
16079W        W87805   2.174   2.932  12.595
16080W        W87806   7.493  42.880   0.850
16081W        W87807   3.899   7.175   2.896
16082W        W87808  29.888  36.690   4.868
16083W        W87809  19.678  30.521  12.148
16084W        W87810  30.697  30.684  12.898
16085W        W87811  11.288  10.722  14.054
16086W        W87812   1.583   6.567   0.756
16087W        W87813  38.946  26.085   4.424
16088W        W87814  28.665   5.816   0.862
16089W        W87815   9.860  44.993   3.615
16090W        W87816   3.485   6.828   1.514
16091W        W87817  43.415  35.957  14.435
16092W        W87818  15.229  14.853   1.333
16093W        W87819  23.571  35.140  11.263
16094W        W87820  18.604  15.705   9.850
16095W        W87821  23.631  17.745   3.797
16096W        W87822  38.309  10.668   4.013
16097W        W87823  14.679   7.922  13.857
16098W        W87824  23.222  34.393   3.271
16099W        W87825  10.124  40.545   3.252
16100W        W87826  32.362  17.208   0.429
16101W        W87827  19.795   4.331   2.074
16102W        W87828  20.159  20.622   4.224
16103W        W87829   5.933   7.409  13.054
16104W        W87830  13.158  44.897   2.867
16105W        W87831   5.870  37.559  12.363
16106W        W87832   1.998  16.577   0.828
16107W        W87833  14.641  12.352   2.889
16108W        W87834   9.243  22.130   3.321
16109W        W87835  25.444  39.097  11.101
16110W        W87836   8.889   8.875   1.399
16111W        W87837  12.106  16.056   3.258
16112W        W87838   7.921  26.393  12.395
16113W        W87839  25.723   6.548   3.652
16114W        W87840  25.124  16.094   0.525
16115W        W87841  23.473  24.109   3.220
16116W        W87842  21.872  23.960  11.137
16117W        W87843  33.162  26.429   3.594
16118W        W87844  42.600  22.055  14.049
16119W        W87845  23.304  22.606  12.824
16120W        W87846  39.830  26.641  12.058
16121W        W87847  25.037  25.973  14.623
16122W        W87848  24.662  20.962  11.508
16123W        W87849  19.048  15.821  10.689
16124W        W87850  28.977   2.803   2.307
16125W        W87851  10.691  34.689  13.691
16126W        W87852  43.558  27.341   2.316
16127W        W87853   4.377  14.343  10.646
16128W        W87854  25.656  16.410   4.300
16129W        W87855  19.731  30.461   1.579
16130W        W87856   4.013  42.392  12.707
16131W        W87857  16.724   9.859  11.933
16132W        W87858  26.492  15.043   1.398
16133W        W87859  18.670  35.756  12.126
16134W        W87860  27.586  38.882  10.081
16135W        W87861  18.416  14.154   2.110
16136W        W87862  22.564  38.322   3.208
16137W        W87863  12.349  26.479  14.304
16138W        W87864   8.765  37.610  13.082
16139W        W87865  42.325  32.490   4.685
16140W        W87866  12.961  19.167   1.394
16141W        W87867   0.334  40.210  10.565
16142W        W87868  24.728  31.472   4.632
16143W        W87869  41.034  29.755  12.602
16144W        W87870  39.960  13.096   3.181
16145W        W87871  23.734  37.393   0.250
16146W        W87872  32.395  11.129   2.783
16147W        W87873  44.899   5.186  14.429
16148W        W87874   6.304   8.409  11.047
16149W        W87875  31.324  26.631   0.467
16150W        W87876  12.342  38.856   3.245
16151W        W87877  21.495   1.965  12.043
16152W        W87878  34.299  18.269   3.534
16153W        W87879  27.040  33.043  12.072
16154W        W87880  36.847  38.455  14.504
16155W        W87881  28.970  11.468   2.765
16156W        W87882  42.682  41.069   0.344
16157W        W87883  13.739   0.389  12.527
16158W        W87884   3.475   8.153   4.342
16159W        W87885  28.748  19.482   4.522
16160W        W87886  23.453  33.645   3.833
16161W        W87887  31.018  14.735  13.970
16162W        W87888  17.840   9.099   1.655
16163W        W87889  31.499  24.705  12.911
16164W        W87890  29.608  12.724   2.888
16165W        W87891  27.105  37.494  10.640
16166W        W87892  40.792   4.199   0.884
16167W        W87893  35.891  15.823   4.176
16168W        W87894  13.917   2.303   1.833
16169W        W87895  28.116  20.516   1.054
16170W        W87896  23.917  27.076   1.779
16171W        W87897   3.428  44.529  11.226
16172W        W87898   3.694  22.344  14.910
16173W        W87899  28.427   5.246   3.787
16174W        W87900  18.573  18.366  12.449
16175W        W87901  41.582  33.830   2.702
16176W        W87902  44.874  19.128   2.623
16177W        W87903   0.905  10.867  14.699
16178W        W87904  40.419  37.722  11.602
16179W        W87905  13.125   7.568  13.899
16180W        W87906  34.341  11.247   4.688
16181W        W87907  35.016  20.624   2.898
16182W        W87908  33.068   0.173   4.477
16183W        W87909   5.299   1.417  10.633
16184W        W87910  40.060  24.393   1.527
16185W        W87911   2.811   8.566  11.118
16186W        W87912  37.978  23.208   0.702
16187W        W87913  21.994  35.468   1.040
16188W        W87914  33.136  16.034   1.947
16189W        W87915  23.028   9.689   1.648
16190W        W87916  30.692  30.494  11.604
16191W        W87917  42.688  14.555  11.177
16192W        W87918   1.011  24.191   2.303
16193W        W87919  12.267   8.856   1.362
16194W        W87920   2.208   9.888  11.070
16195W        W87921  35.342  27.602  13.568
16196W        W87922  24.084  16.293   1.653
16197W        W87923  38.888  38.421   2.644
16198W        W87924  44.602  39.733  10.168
16199W        W87925   1.472  30.420  10.692
16200W        W87926  17.846  11.124  14.474
16201W        W87927  12.904  39.588  12.047
16202W        W87928  29.187   4.507   4.114
16203W        W87929  20.794   4.286  11.538
16204W        W87930  39.428  32.071  10.526
16205W        W87931   3.997  35.982   2.759
16206W        W87932  40.833  17.634   0.333
16207W        W87933  18.724  21.253   1.309
16208W        W87934  43.560  17.988  11.222
16209W        W87935   4.792  14.335  14.487
16210W        W87936  28.617  41.738  13.606
16211W        W87937  37.155  17.390   0.836
16212W        W87938   9.523   2.229   3.346
16213W        W87939  31.786  36.440  12.418
16214W        W87940   7.394  21.764   4.112
16215W        W87941  20.814   5.281   3.660
16216W        W87942  39.530   9.512   1.321
16217W        W87943  43.702  40.971  13.086
16218W        W87944  41.882   8.272  12.340
16219W        W87945  17.327  22.131   2.943
16220W        W87946  13.580   1.821  13.848
16221W        W87947  43.446  26.439  11.323
16222W        W87948  29.634   0.332   3.373
16223W        W87949  33.901  36.563  14.509
16224W        W87950  27.058  17.265  14.665
16225W        W87951  16.862  43.372   3.747
16226W        W87952  37.574   8.887   4.697
16227W        W87953  11.280  19.280  12.381
16228W        W87954   4.398   0.168  12.289
16229W        W87955  34.412   4.889  11.150
16230W        W87956  38.891  27.962  14.976
16231W        W87957  23.987  11.792   0.999
16232W        W87958  12.274  30.587   3.963
16233W        W87959  15.730  36.147   2.250
16234W        W87960  13.859  22.104  12.773
16235W        W87961  38.441  18.049  11.380
16236W        W87962  16.665  24.468   4.643
16237W        W87963  31.351  34.416   1.671
16238W        W87964  28.263  32.205   0.832
16239W        W87965  13.675   8.683  14.291
16240W        W87966  23.342   6.989  13.536
16241W        W87967  31.926  15.776   0.209
16242W        W87968  34.832  34.593   1.855
16243W        W87969  26.552  12.798   1.209
16244W        W87970   4.845  40.003   1.893
16245W        W87971   0.233  39.798  10.841
16246W        W87972   2.222  28.552   0.448
16247W        W87973  35.855   8.314   2.762
16248W        W87974  12.167  23.626   3.260
16249W        W87975  21.942  18.748  12.387
16250W        W87976  10.510  29.721  13.527
16251W        W87977  16.731   0.538   2.716
16252W        W87978  25.063   5.151  13.625
16253W        W87979  43.895  16.872  10.629
16254W        W87980  16.549   8.972   0.438
16255W        W87981   0.931  17.180  11.452
16256W        W87982   5.876  19.017   4.628
16257W        W87983  22.629  15.127   4.145
16258W        W87984  31.956   9.130  10.925
16259W        W87985  33.206  35.961  10.400
16260W        W87986   7.496   1.165  12.905
16261W        W87987  13.344  35.377  11.627
16262W        W87988   3.043   7.768   3.631
16263W        W87989  21.564  31.962   2.411
16264W        W87990  33.643  21.977  14.879
16265W        W87991   8.896  34.618  14.782
16266W        W87992  20.473  21.672  10.717
16267W        W87993  16.068   3.670  10.539
16268W        W87994  19.151  41.511  12.082
16269W        W87995  30.437  42.312  12.402
16270W        W87996  26.820  10.219  10.737
16271W        W87997  43.694  35.315  11.897
16272W        W87998  17.236  35.965  14.539
16273W        W87999  25.882   4.399   0.270
16274W        W88000  34.847   4.712  13.435
16275W        W88001   2.031  19.566  14.961
16276W        W88002  41.531  43.803  12.348
16277W        W88003  23.255  29.700   4.060
16278W        W88004  24.193  40.314   4.186
16279W        W88005  30.412  28.119  11.370
16280W        W88006  18.534  13.616  10.699
16281W        W88007  30.546   4.977  10.659
16282W        W88008  38.369  21.584  13.830
16283W        W88009  44.253  30.430   4.561
16284W        W88010  23.671  21.018   0.484
16285W        W88011   7.906  37.498  13.404
16286W        W88012  32.024  36.512   1.274
16287W        W88013  32.375  38.875   1.692
16288W        W88014  32.183  30.055  11.561
16289W        W88015   6.307   6.915   9.583
16290W        W88016   0.244  26.275  12.336
16291W        W88017  41.440  44.039  12.798
16292W        W88018   5.300  32.803  10.677
16293W        W88019   6.922  43.831   1.701
16294W        W88020  10.667  26.119   4.477
16295W        W88021  38.973  12.646  13.918
16296W        W88022  32.035  22.546   0.857
16297W        W88023   6.317  43.120  11.578
16298W        W88024  43.313  21.227   5.245
16299W        W88025   3.913  24.755   0.294
16300W        W88026  25.017   4.490   4.686
16301W        W88027   0.846  37.761   3.320
16302W        W88028  35.840  17.617  12.388
16303W        W88029  19.824   0.462   0.450
16304W        W88030  10.245  15.207   0.691
16305W        W88031  13.217  14.572   2.306
16306W        W88032  34.732  43.881  10.481
16307W        W88033  30.732   5.907   3.893
16308W        W88034  14.675   5.976   0.499
16309W        W88035  34.272  21.221  13.120
16310W        W88036   1.283  37.589   3.064
16311W        W88037  40.412  10.719  14.530
16312W        W88038  22.315   7.570  13.015
16313W        W88039   2.959  25.563   0.916
16314W        W88040  13.199  33.782   3.282
16315W        W88041  24.923  22.000  11.075
16316W        W88042  10.365  37.613  13.051
16317W        W88043  40.054  21.001  12.433
16318W        W88044   9.433   3.996   1.630
16319W        W88045  27.909  15.681   4.122
16320W        W88046  31.668  31.443  14.300
16321W        W88047  19.987  24.425  13.468
16322W        W88048  13.725  22.938   2.689
16323W        W88049   8.251  11.507  13.493
16324W        W88050  17.080  18.149  13.394
16325W        W88051  34.893  40.776   1.859
16326W        W88052   7.591  32.827  12.076
16327W        W88053  32.873  15.698  12.974
16328W        W88054  26.934  19.537  11.671
16329W        W88055   2.159  32.549   4.713
16330W        W88056  17.205   0.065   3.198
16331W        W88057  25.090  32.713   3.477
16332W        W88058   2.303  17.635  11.916
16333W        W88059  22.600  14.975   5.430
16334W        W88060   0.890   9.710   4.557
16335W        W88061  37.557  20.973   0.561
16336W        W88062  28.647  40.179  13.444
16337W        W88063  22.522  23.634  12.975
16338W        W88064   5.632  29.430   3.835
16339W        W88065  14.055   8.329   0.360
16340W        W88066  18.498  11.791   4.092
16341W        W88067   4.550  24.154  10.093
16342W        W88068  11.075  39.993  11.100
16343W        W88069  23.454  10.720  13.490
16344W        W88070  36.494  20.701   3.664
16345W        W88071  27.076  40.415   3.432
16346W        W88072   1.740   6.556  11.265
16347W        W88073  24.645  34.127   0.387
16348W        W88074   8.352  39.083   2.754
16349W        W88075  38.028  40.012  12.146
16350W        W88076  38.832   4.890  14.799
16351W        W88077  18.946  37.512  14.949
16352W        W88078  14.153   7.618   4.206
16353W        W88079  16.322  35.508  14.452
16354W        W88080  11.172  44.742  11.506
16355W        W88081  27.819  20.429  11.135
16356W        W88082  39.213  43.387  14.292
16357W        W88083  22.696  35.051  11.120
16358W        W88084  14.407  30.188  14.302
16359W        W88085  44.150  11.662   3.107
16360W        W88086  12.857  13.212  12.878
16361W        W88087  16.269  27.430   3.278
16362W        W88088  20.034  21.053  12.937
16363W        W88089  26.988   6.438   0.389
16364W        W88090  28.685   3.402  11.378
16365W        W88091  13.426   6.816  14.536
16366W        W88092  25.497  26.695   1.383
16367W        W88093   4.490  11.541   2.806
16368W        W88094  41.455  16.303   3.786
16369W        W88095  24.343  14.317  13.844
16370W        W88096  20.044  14.056  14.040
16371W        W88097  10.364  21.273   1.757
16372W        W88098   4.820  42.065   3.253
16373W        W88099  21.604  29.724   4.535
16374W        W88100   2.474  27.085  13.879
16375W        W88101  34.083  15.097  14.905
16376W        W88102  13.267   5.847   1.948
16377W        W88103  12.639   2.896   4.827
16378W        W88104  21.754   7.743  14.870
16379W        W88105  42.465  13.889   0.788
16380W        W88106   6.747  24.995   4.524
16381W        W88107  10.951   6.337  12.973
16382W        W88108  43.219  11.356   4.671
16383W        W88109  42.252  21.005   0.319
16384W        W88110  35.029  11.351  12.587
16385W        W88111   2.913  34.559  10.958
16386W        W88112  44.826  22.147   4.633
16387W        W88113  44.761   2.428   0.871
16388W        W88114  15.775   2.464  11.643
16389W        W88115  36.944  35.584   1.897
16390W        W88116  29.556  30.824  11.655
16391W        W88117  31.758  24.131   0.034
16392W        W88118   9.613  44.956   2.655
16393W        W88119   3.911  24.810   2.404
16394W        W88120  14.847   9.314   3.588
16395W        W88121   0.762   3.896  12.214
16396W        W88122  11.354  31.416   2.849
16397W        W88123  29.655  40.997   4.776
16398W        W88124  16.091  20.138  12.489
16399W        W88125  28.175  42.434   0.262
16400W        W88126  40.825  43.532   1.395
16401W        W88127  38.093  28.621   4.448
16402W        W88128   7.141  27.066  13.475
16403W        W88129  32.129  28.661   4.068
16404W        W88130   9.735  30.394   0.927
16405W        W88131  22.069   2.349   2.521
16406W        W88132  24.259  30.358   0.830
16407W        W88133   3.510  15.284   3.208
16408W        W88134  37.891  38.902  13.983
16409W        W88135  30.993  26.788   3.356
16410W        W88136  10.636   5.735   1.355
16411W        W88137   2.475  32.062   5.113
16412W        W88138  12.799  24.088   4.327
16413W        W88139  17.613   3.434   1.315
16414W        W88140  22.120  36.903  11.165
16415W        W88141  33.877  41.914  11.792
16416W        W88142  31.172  22.846   3.158
16417W        W88143  35.847  25.099  14.733
16418W        W88144  22.538   7.317   0.778
16419W        W88145   1.455  22.096  13.403
16420W        W88146   1.163  40.923  13.083
16421W        W88147  42.438  30.952   4.985
16422W        W88148   0.343  26.710   0.778
16423W        W88149  15.718   1.696   0.796
16424W        W88150  32.611   5.837   3.358
16425W        W88151   6.928  26.466  14.399
16426W        W88152  35.949  31.227  13.598
16427W        W88153  15.559  43.925   1.269
16428W        W88154  28.282  30.039  12.948
16429W        W88155  11.597  21.286   1.195
16430W        W88156  34.170  12.662   4.363
16431W        W88157  35.535   6.874  11.566
16432W        W88158   9.257  14.733  13.697
16433W        W88159  10.706  31.666  14.957
16434W        W88160  19.578   0.222  13.878
16435W        W88161   1.630  33.672   2.347
16436W        W88162  37.066  18.799  14.381
16437W        W88163  30.304  37.519  12.400
16438W        W88164  43.598  35.434   4.968
16439W        W88165  19.511  40.940   3.384
16440W        W88166  15.812  30.962   2.082
16441W        W88167  36.336  34.118  13.965
16442W        W88168  31.509  43.877   1.776
16443W        W88169  25.249  14.102   0.305
16444W        W88170  16.142   6.811   3.600
16445W        W88171   9.884  39.056   4.213
16446W        W88172  24.213  29.496  14.783
16447W        W88173  33.873   8.880   1.272
16448W        W88174   6.920  28.081  13.584
16449W        W88175  18.324  28.867  14.295
16450W        W88176  13.777  41.147  10.350
16451W        W88177  38.602  18.787   3.170
16452W        W88178   7.666   5.621   2.274
16453W        W88179  35.486  28.686  14.567
16454W        W88180  41.003  31.986   0.792
16455W        W88181  31.168   5.446  11.062
16456W        W88182  39.526  13.898   3.786
16457W        W88183  20.975  10.667   4.310
16458W        W88184  42.320  42.829   2.876
16459W        W88185  22.059  11.312  12.079
16460W        W88186  10.383  44.286  11.453
16461W        W88187  37.405  41.860  11.201
16462W        W88188  18.768   5.907   2.264
16463W        W88189  34.187  25.331  13.870
16464W        W88190  21.601  28.617  11.006
16465W        W88191  27.921  40.022  10.389
16466W        W88192  36.027   6.639   1.816
16467W        W88193  35.069  34.941   1.268
16468W        W88194  20.687  17.628  12.093
16469W        W88195   1.143  17.583  10.911
16470W        W88196  22.669  31.987   4.591
16471W        W88197  35.903   1.641   2.459
16472W        W88198  29.924  43.738  13.990
16473W        W88199  44.140  31.079  10.430
16474W        W88200   2.643  37.273  14.387
16475W        W88201  32.139  32.431   3.810
16476W        W88202  16.345  38.954  12.004
16477W        W88203   5.812  27.956   1.132
16478W        W88204  39.025   0.264  11.529
16479W        W88205  44.190   7.486  11.548
16480W        W88206  37.381  25.168   0.456
16481W        W88207  27.590  19.011  14.485
16482W        W88208   7.645  10.715  10.599
16483W        W88209   8.271  28.659   3.887
16484W        W88210  21.249  34.881  11.558
16485W        W88211  31.146  16.522  11.160
16486W        W88212   1.645  30.615  12.638
16487W        W88213   6.827   9.197   3.724
16488W        W88214   6.302  22.998   5.149
16489W        W88215   8.936   8.442  13.539
16490W        W88216  25.036  12.790   4.755
16491W        W88217  30.929  26.027  10.546
16492W        W88218  13.288  21.207   0.705
16493W        W88219  41.956  43.280   3.804
16494W        W88220  36.079  20.146  14.832
16495W        W88221  31.992  37.034  10.983
16496W        W88222   8.946  42.833  11.545
16497W        W88223  12.862   5.153   0.935
16498W        W88224  26.135   3.780  13.826
16499W        W88225  14.024  24.744  14.985
16500W        W88226  27.057  21.647   3.615
16501W        W88227  24.676  42.956   4.558
16502W        W88228  32.097  13.713  10.545
16503W        W88229  16.372  35.525   4.569
16504W        W88230  34.905  18.358  12.044
16505W        W88231   2.289  11.251   0.903
16506W        W88232  40.325   5.821   2.759
16507W        W88233   3.323  15.268   1.863
16508W        W88234  15.886  32.588  11.446
16509W        W88235  26.036   5.274   3.374
16510W        W88236  33.917  36.531   2.340
16511W        W88237  36.921   9.750  13.781
16512W        W88238  35.562  25.460   4.865
16513W        W88239   8.358  42.074   1.279
16514W        W88240  29.911  36.463  13.394
16515W        W88241  27.107  18.809   3.954
16516W        W88242   1.687  42.015   1.666
16517W        W88243  39.980   8.239   1.775
16518W        W88244  42.074  13.249  12.588
16519W        W88245   8.782   2.101   3.793
16520W        W88246  14.206  20.372   2.580
16521W        W88247  22.742   7.334  13.980
16522W        W88248  37.512  31.304  13.060
16523W        W88249  42.482  37.513   2.235
16524W        W88250  21.210  13.163  13.980
16525W        W88251   5.857  43.483   2.264
16526W        W88252  15.659  10.780   4.706
16527W        W88253  22.136  12.970   3.492
16528W        W88254  13.783   1.797   0.369
16529W        W88255  40.019   7.924   2.822
16530W        W88256  42.466   2.248  11.255
16531W        W88257  36.804  42.897  13.027
16532W        W88258  44.816   1.901   0.753
16533W        W88259  24.483  41.561  10.706
16534W        W88260   1.688  28.986   1.240
16535W        W88261  43.765  17.650  12.968
16536W        W88262  42.240  10.711  11.866
16537W        W88263  44.548   4.462   2.901
16538W        W88264   5.462   7.126   1.559
16539W        W88265  24.550  11.422   4.907
16540W        W88266   4.284   9.734   3.045
16541W        W88267  38.284   0.931  11.493
16542W        W88268  27.428  41.461  10.740
16543W        W88269  15.114  36.815   2.869
16544W        W88270  19.119  21.205   2.194
16545W        W88271  14.747  33.299  10.658
16546W        W88272  12.786   3.601  12.003
16547W        W88273  18.096   9.513  10.431
16548W        W88274  14.711  29.296  14.024
16549W        W88275  27.764  13.285   3.807
16550W        W88276   2.986  40.770  12.588
16551W        W88277  11.703  26.976  13.462
16552W        W88278  32.057  36.634  14.524
16553W        W88279  12.828  14.382   3.731
16554W        W88280  23.022  19.775   4.571
16555W        W88281  12.786  37.929   4.301
16556W        W88282  42.593  24.672  14.980
16557W        W88283  36.719  28.745   4.052
16558W        W88284   2.985   0.516   0.945
16559W        W88285  28.570  14.604  14.337
16560W        W88286  38.335  43.848  14.830
16561W        W88287  39.871   9.824  14.095
16562W        W88288  44.819  43.615   2.935
16563W        W88289  35.154   8.216  11.702
16564W        W88290   8.964  33.939   3.674
16565W        W88291  14.477  11.656  14.763
16566W        W88292  37.316   5.208  14.222
16567W        W88293  37.833   5.440   3.583
16568W        W88294   6.955  33.761   0.261
16569W        W88295  21.261  37.932  14.828
16570W        W88296  10.322  14.107   3.567
16571W        W88297   0.801  11.217   1.885
16572W        W88298  43.369  22.844  12.099
16573W        W88299   1.761   2.811  14.342
16574W        W88300  23.269  23.045   0.334
16575W        W88301  25.764  10.706  10.046
16576W        W88302  13.292  26.480  11.556
16577W        W88303  31.326  16.712  13.350
16578W        W88304  29.092  42.864  11.125
16579W        W88305  11.046  24.345  12.618
16580W        W88306  29.123  17.270  14.587
16581W        W88307  18.490  40.302   4.322
16582W        W88308  20.687  27.952  10.300
16583W        W88309   8.087   3.710   1.822
16584W        W88310  15.477  34.390   3.918
16585W        W88311  33.713  34.923   3.126
16586W        W88312  23.811  39.345  11.079
16587W        W88313  43.723  23.182  11.659
16588W        W88314  19.872   2.765  14.378
16589W        W88315   6.322  39.467   0.257
16590W        W88316  11.232  38.453  13.757
16591W        W88317  37.681   2.867  11.191
16592W        W88318  32.132  42.086   1.453
16593W        W88319  22.612  37.621  12.211
16594W        W88320  23.049  41.792   3.936
16595W        W88321  33.114  15.721   1.495
16596W        W88322  21.605  26.554  14.542
16597W        W88323   3.917   6.471   0.965
16598W        W88324  44.382  15.285  14.343
16599W        W88325  40.073  39.377  11.203
16600W        W88326  30.064  26.267  12.348
16601W        W88327  31.920  23.826   5.074
16602W        W88328  15.170  43.789  10.628
16603W        W88329   4.746  19.906   3.227
16604W        W88330  37.458  44.693  12.777
16605W        W88331  28.938  14.648  11.722
16606W        W88332  29.905   5.635   0.352
16607W        W88333   0.847  44.989   3.695
16608W        W88334  18.565  26.770  14.331
16609W        W88335  37.658  20.618  13.359
16610W        W88336   9.235  22.081   0.307
16611W        W88337  38.854   7.780   0.746
16612W        W88338  10.892  33.935  10.627
16613W        W88339  23.040  21.456  14.478
16614W        W88340  31.346  24.616  12.416
16615W        W88341  41.374  41.216   0.532
16616W        W88342   9.451   6.365  14.411
16617W        W88343   7.751  11.389  11.460
16618W        W88344  12.839  31.875  14.057
16619W        W88345  21.732  42.444   3.178
16620W        W88346  23.180  27.476   3.631
16621W        W88347  37.032  27.165  10.722
16622W        W88348  12.343   7.909   2.250
16623W        W88349  16.749  36.576  14.957
16624W        W88350  29.293  20.468   4.341
16625W        W88351  44.261   0.871  10.623
16626W        W88352   1.758  14.105   0.910
16627W        W88353  31.532  28.000   2.917
16628W        W88354  14.399  20.933  12.729
16629W        W88355   8.394  30.365  10.767
16630W        W88356   1.033  11.253   1.404
16631W        W88357  18.735  16.966   2.278
16632W        W88358   4.594   0.120   1.765
16633W        W88359  29.499   8.211   0.184
16634W        W88360   7.853  36.375   1.380
16635W        W88361   8.728  43.357   2.372
16636W        W88362   9.707  34.214  14.546
16637W        W88363  15.832   6.703   0.422
16638W        W88364   9.861  34.849   4.636
16639W        W88365   5.883  17.712   1.707
16640W        W88366  28.992  10.261   4.383
16641W        W88367  29.992   9.995  10.787
16642W        W88368   0.633  12.200  13.160
16643W        W88369  16.804  36.141  11.917
16644W        W88370  32.958  43.392  12.145
16645W        W88371   4.947  25.766   0.958
16646W        W88372   3.929  34.631  12.438
16647W        W88373  28.660   2.777  12.009
16648W        W88374   6.108   2.373   1.312
16649W        W88375  18.168  37.500  13.809
16650W        W88376   2.428  14.538   0.393
16651W        W88377  23.505  13.365   3.995
16652W        W88378   7.213   1.441   1.771
16653W        W88379  18.248   5.788  12.581
16654W        W88380  42.597   9.853  12.009
16655W        W88381   9.092  17.025   4.961
16656W        W88382  10.657  21.558  12.137
16657W        W88383  27.440  13.564   0.489
16658W        W88384  36.466  17.191  13.279
16659W        W88385   7.235  35.502   1.482
16660W        W88386  32.879  22.190   0.414
16661W        W88387   2.680  22.199  10.522
16662W        W88388  16.334   7.226  11.534
16663W        W88389   4.265  41.489   0.928
16664W        W88390   4.510  15.326   0.888
16665W        W88391  33.156  42.411   0.368
16666W        W88392  30.589  17.563  13.951
16667W        W88393  15.250  15.661  13.305
16668W        W88394  38.488  12.206  13.076
16669W        W88395  23.523  13.628   2.985
16670W        W88396  30.583  38.650   1.523
16671W        W88397  42.883  16.714  13.385
16672W        W88398   2.837  39.099   0.392
16673W        W88399  26.583  26.707   1.287
16674W        W88400  41.094  13.128   2.186
16675W        W88401  17.097  23.542   3.375
16676W        W88402  30.276  26.461  13.337
16677W        W88403  30.499   8.620  10.720
16678W        W88404  40.386   4.429   3.862
16679W        W88405  18.731  39.294  13.877
16680W        W88406  28.593   7.905  14.247
16681W        W88407  36.862  38.162  11.975
16682W        W88408  15.042   0.026   1.429
16683W        W88409  21.201  42.218  14.022
16684W        W88410  22.577  31.421  11.657
16685W        W88411   6.168  40.026  10.993
16686W        W88412  11.584  15.210   1.347
16687W        W88413  42.381  18.062   4.554
16688W        W88414  11.113  14.894   0.644
16689W        W88415   8.298  15.403  12.235
16690W        W88416  26.675   2.000   1.858
16691W        W88417  40.526  27.688  12.593
16692W        W88418  20.588   2.910   3.760
16693W        W88419  35.647  37.296   4.441
16694W        W88420  37.987  42.415   2.941
16695W        W88421  22.187  24.523  13.348
16696W        W88422   6.527   4.252  12.504
16697W        W88423  19.966   5.882  12.930
16698W        W88424  24.980  31.876   0.443
16699W        W88425  39.661   9.478  13.366
16700W        W88426  33.800  16.148   1.264
16701W        W88427  11.179  19.124   1.836
16702W        W88428  15.070  21.698   3.364
16703W        W88429  11.598  27.923  13.366
16704W        W88430  31.410   1.688  12.543
16705W        W88431  31.010  32.501  11.918
16706W        W88432   6.746   0.447   0.847
16707W        W88433  25.289  15.766  14.956
16708W        W88434  24.918  20.201   4.614
16709W        W88435   6.972  15.105  12.508
16710W        W88436  39.113  20.225   4.115
16711W        W88437  38.589   5.480  14.227
16712W        W88438  10.154  30.463   2.995
16713W        W88439  40.542  30.289  11.235
16714W        W88440  20.338  27.249   3.823
16715W        W88441  30.470   1.214   0.908
16716W        W88442  31.030  39.523  14.463
16717W        W88443   1.472  34.946  13.059
16718W        W88444  15.212   5.033   1.381
16719W        W88445   9.157  29.452   0.208
16720W        W88446  28.278  33.872  12.358
16721W        W88447  30.398  33.467  13.985
16722W        W88448  19.093  19.962  11.506
16723W        W88449  26.995   3.348   0.722
16724W        W88450  34.800  22.378  11.366
16725W        W88451  16.862   3.977  13.414
16726W        W88452  40.577  27.760   0.931
16727W        W88453   2.207  25.053  14.058
16728W        W88454  40.525  11.768  12.638
16729W        W88455   2.298  39.756  10.657
16730W        W88456   0.831  26.197   0.508
16731W        W88457  29.695  26.681  11.582
16732W        W88458  42.972  17.229  13.425
16733W        W88459  28.785  37.595  11.723
16734W        W88460   9.529  34.158   1.374
16735W        W88461  14.142   0.707   3.327
16736W        W88462   4.144  44.867  14.562
16737W        W88463  28.219   5.843   1.304
16738W        W88464  40.757  40.364  12.044
16739W        W88465  37.576  31.390   3.269
16740W        W88466   4.263   8.831  12.237
16741W        W88467  41.944   9.198   4.607
16742W        W88468   2.759  33.336  12.056
16743W        W88469  43.326   9.799   4.556
16744W        W88470   0.018  29.420   3.173
16745W        W88471   7.139  21.547   1.240
16746W        W88472  31.165   6.940   4.034
16747W        W88473  18.617   9.306  11.127
16748W        W88474  30.449  10.698   3.607
16749W        W88475  39.905   1.019   4.080
16750W        W88476  27.778  21.702   0.031
16751W        W88477  12.249  25.552   4.554
16752W        W88478  33.097  36.693  12.961
16753W        W88479   6.297   0.707   0.718
16754W        W88480  15.310  22.924   4.694
16755W        W88481   0.363  22.804  13.483
16756W        W88482   6.270  37.873  11.160
16757W        W88483  22.060  32.561  13.179
16758W        W88484  24.244   6.761   4.322
16759W        W88485  27.226   4.386  12.932
16760W        W88486  29.641  20.592   0.008
16761W        W88487  41.284  10.044  12.001
16762W        W88488  28.144  22.981  13.557
16763W        W88489  12.735  40.838   0.907
16764W        W88490  37.472  32.074  12.251
16765W        W88491   0.449   3.277  11.927
16766W        W88492  42.812   0.151   4.115
16767W        W88493   0.531   7.486  12.475
16768W        W88494  43.491  14.305   1.301
16769W        W88495  31.013   9.120  13.246
16770W        W88496  35.868  28.640   3.790
16771W        W88497  16.626  40.054  11.446
16772W        W88498  38.732  27.489  13.323
16773W        W88499  14.933  14.785  12.448
16774W        W88500  11.375  23.622   0.249
16775W        W88501  19.182  40.266  12.854
16776W        W88502  30.492  27.102  11.417
16777W        W88503  40.066  18.019  14.826
16778W        W88504  16.277  39.268  13.477
16779W        W88505  34.534  21.647  14.910
16780W        W88506   6.867   8.299   3.651
16781W        W88507  24.446  22.868  13.449
16782W        W88508  19.242  31.655   0.271
16783W        W88509  30.462  34.904  13.525
16784W        W88510  13.570  22.427   0.901
16785W        W88511  34.989  14.142   3.160
16786W        W88512  13.662  21.519   3.169
16787W        W88513  23.069  37.901   3.793
16788W        W88514   5.187  42.480  11.687
16789W        W88515  30.476  21.635  11.650
16790W        W88516  31.755  26.161   4.505
16791W        W88517  20.819  43.220   0.919
16792W        W88518  37.352  22.721   2.357
16793W        W88519  31.292  21.593   0.956
16794W        W88520  33.145  41.349  12.960
16795W        W88521  28.535  20.759  13.356
16796W        W88522  37.477   1.947   1.881
16797W        W88523  41.345  25.953  14.125
16798W        W88524  24.808  29.417   2.881
16799W        W88525  42.817   2.889   1.041
16800W        W88526   5.304   3.507  13.438
16801W        W88527   9.662   9.917  11.162
16802W        W88528  17.482   1.739   3.918
16803W        W88529   4.240  16.112  10.274
16804W        W88530   2.286  42.778   2.716
16805W        W88531  29.160  36.319  11.494
16806W        W88532  15.524  40.603  14.460
16807W        W88533  39.323  30.155   3.326
16808W        W88534  42.056  16.902  13.050
16809W        W88535  17.137  22.220   4.730
16810W        W88536  20.519  32.392  10.992
16811W        W88537  11.175  30.662  11.463
16812W        W88538   7.400  23.045   1.474
16813W        W88539   7.649  25.955   3.497
16814W        W88540   0.867  13.602  11.300
16815W        W88541  11.383   0.978  11.956
16816W        W88542  33.070  33.093  11.621
16817W        W88543   7.916   7.885  14.892
16818W        W88544  33.101   8.093   0.981
16819W        W88545   6.393  10.266  11.208
16820W        W88546  32.832   3.813  14.426
16821W        W88547  16.221  41.371  10.703
16822W        W88548  44.145   2.133   5.310
16823W        W88549  40.537  13.703   0.358
16824W        W88550  13.145  22.101   0.906
16825W        W88551   3.940  29.798  14.316
16826W        W88552  10.272   6.148  11.123
16827W        W88553  35.434  13.926   2.411
16828W        W88554   5.305  29.990  14.528
16829W        W88555  44.859  39.030  14.962
16830W        W88556  42.337  13.519   0.457
16831W        W88557  22.639  17.976   0.506
16832W        W88558  27.113  41.966   4.610
16833W        W88559  39.306  43.424  11.552
16834W        W88560  33.271  21.683  10.724
16835W        W88561  13.784  18.256  13.909
16836W        W88562   5.850  38.946  13.409
16837W        W88563  18.875  35.193   3.290
16838W        W88564   9.672  39.877   3.076
16839W        W88565  36.487  29.557  13.699
16840W        W88566  26.870  18.593  11.258
16841W        W88567  21.183   0.003  11.916
16842W        W88568   1.368   0.730  10.785
16843W        W88569  34.817  23.425  13.838
16844W        W88570  35.085  23.746   1.268
16845W        W88571  17.274  41.506   2.655
16846W        W88572  37.487  39.891   1.368
16847W        W88573  30.949   9.648   4.879
16848W        W88574  18.304  12.146   1.631
16849W        W88575   0.142  20.322   3.231
16850W        W88576  39.626   3.301   2.422
16851W        W88577   7.897   2.917   1.283
16852W        W88578  42.949  13.108  11.084
16853W        W88579  42.231  35.770  12.157
16854W        W88580  23.732   8.437  11.685
16855W        W88581  12.158  43.281  13.249
16856W        W88582   5.224  31.390  13.432
16857W        W88583  44.845  43.004  11.612
16858W        W88584   8.228  26.752   2.307
16859W        W88585  28.385  20.561   0.033
16860W        W88586  14.693   6.871   4.455
16861W        W88587   9.699  38.325   0.746
16862W        W88588   2.652   1.051  13.914
16863W        W88589  37.794   0.970   3.833
16864W        W88590  14.767   3.950   0.790
16865W        W88591  37.597   4.719  12.510
16866W        W88592  42.787   5.945   9.943
16867W        W88593  43.957   8.805   2.311
16868W        W88594  33.194  16.177  12.020
16869W        W88595  33.858  43.064  11.942
16870W        W88596  18.329  35.438   1.719
16871W        W88597  25.000  43.018  11.047
16872W        W88598  40.825   7.464   3.728
16873W        W88599  42.780  43.584   2.714
16874W        W88600  16.971  16.149  12.619
16875W        W88601  34.986  13.033  11.504
16876W        W88602  41.993  34.439   0.387
16877W        W88603   1.990   9.625   2.393
16878W        W88604  36.373  34.598   0.534
16879W        W88605  13.722  11.929  10.640
16880W        W88606  41.150  35.363   2.717
16881W        W88607  19.252   0.671  11.616
16882W        W88608  41.056  34.635   4.705
16883W        W88609   5.710  16.716   1.378
16884W        W88610  27.151   5.431   4.186
16885W        W88611  36.085  35.848  14.918
16886W        W88612   9.914  26.986  13.729
16887W        W88613  21.164   5.240   4.035
16888W        W88614  39.873  16.315   2.884
16889W        W88615  10.755  35.594   1.720
16890W        W88616  12.429  24.698   1.301
16891W        W88617  42.856  26.191   4.651
16892W        W88618  28.142  24.264  13.972
16893W        W88619   5.414  43.839   4.738
16894W        W88620  37.493  33.104  11.757
16895W        W88621  18.101  28.179   2.394
16896W        W88622  35.674  35.062  13.097
16897W        W88623   2.360   1.892  11.180
16898W        W88624  28.110   0.952   2.929
16899W        W88625  39.375  17.393  12.515
16900W        W88626  23.625  34.368   2.232
16901W        W88627  26.197  43.392  11.076
16902W        W88628  14.674  12.432  14.447
16903W        W88629  29.056  10.378   3.888
16904W        W88630  43.181  37.395   1.142
16905W        W88631   0.701  43.370  11.564
16906W        W88632  39.332  19.151   4.639
16907W        W88633   4.305  10.103  10.562
16908W        W88634  30.399   0.311  10.839
16909W        W88635  35.324   2.570   1.600
16910W        W88636   1.729   7.671   4.012
16911W        W88637  40.222  22.623   0.427
16912W        W88638  32.991  36.537   0.890
16913W        W88639  43.546  37.897  14.902
16914W        W88640  39.350   2.838   4.695
16915W        W88641  19.262  24.741  11.411
16916W        W88642  34.905  42.473  12.410
16917W        W88643  31.443  42.518   0.201
16918W        W88644   1.772  44.814   0.608
16919W        W88645  40.313  37.968   0.335
16920W        W88646   3.745  11.309  10.686
16921W        W88647   8.123  42.030  14.855
16922W        W88648  34.144  43.228  13.578
16923W        W88649  29.144  34.301   4.221
16924W        W88650  12.982  39.413  14.713
16925W        W88651  41.241  32.946   0.014
16926W        W88652  14.164   2.732   2.201
16927W        W88653  38.255  43.668   3.428
16928W        W88654  14.217  41.020  12.981
16929W        W88655  11.254  37.938  11.183
16930W        W88656   7.415   9.208  12.074
16931W        W88657  38.032  38.126   2.648
16932W        W88658  16.717   1.711   0.972
16933W        W88659  27.401  24.059  13.859
16934W        W88660  30.631  25.322  11.122
16935W        W88661  34.066  17.422   3.353
16936W        W88662  37.174  42.077  14.047
16937W        W88663   0.521  38.404  12.630
16938W        W88664  38.663  33.082   3.567
16939W        W88665  23.724   1.446  12.496
16940W        W88666   0.380  39.737   0.765
16941W        W88667  29.492  25.737  13.361
16942W        W88668  29.503  34.982   0.861
16943W        W88669  33.660   5.702   1.736
16944W        W88670  25.802   8.700  13.297
16945W        W88671  17.581  26.230   0.358
16946W        W88672  18.472  19.785  14.846
16947W        W88673  36.266  32.549  13.039
16948W        W88674  35.520  27.485  14.508
16949W        W88675   0.034   2.013  11.585
16950W        W88676  35.452  25.427  12.091
16951W        W88677  19.063  29.500  12.393
16952W        W88678  18.743  30.252   2.940
16953W        W88679  41.062   5.164   4.502
16954W        W88680   6.711  34.037   1.833
16955W        W88681  39.543  32.504   2.450
16956W        W88682  44.568  37.955   3.569
16957W        W88683  20.728  25.923  11.575
16958W        W88684  19.833   6.354  13.883
16959W        W88685  29.182  16.408   2.824
16960W        W88686  36.967  36.912   1.486
16961W        W88687  10.079  14.403   1.730
16962W        W88688  39.912  16.295  12.116
16963W        W88689   4.933  29.221   1.976
16964W        W88690  22.593   7.129   2.635
16965W        W88691   0.203  19.582  12.579
16966W        W88692  22.691  12.663   2.861
16967W        W88693  21.264  31.403  12.493
16968W        W88694  44.372  30.899   2.662
16969W        W88695  29.704  44.414  12.034
16970W        W88696  17.154  33.343  12.122
16971W        W88697   5.670  40.068   4.720
16972W        W88698  10.381  12.080   5.019
16973W        W88699   6.537  13.072   3.302
16974W        W88700   7.669   1.168   1.785
16975W        W88701  13.580   0.054  13.936
16976W        W88702   5.827  17.658  12.439
16977W        W88703  23.475  21.371   1.519
16978W        W88704  21.734  15.372   3.808
16979W        W88705  27.492   0.924   1.843
16980W        W88706   0.444   5.181  13.851
16981W        W88707  14.243  24.016  13.028
16982W        W88708  29.982  22.514  12.891
16983W        W88709   0.857  11.353   2.926
16984W        W88710  25.286   2.056   4.838
16985W        W88711  29.042   6.130   5.001
16986W        W88712  30.939  17.940   4.011
16987W        W88713   5.132  14.666   4.874
16988W        W88714  32.814   3.825  11.254
16989W        W88715   7.246  27.189  11.220
16990W        W88716   7.412  40.316   4.550
16991W        W88717  29.890   2.440   2.528
16992W        W88718   6.144   0.971  14.426
16993W        W88719  40.326  39.183   3.224
16994W        W88720  42.408  31.417   3.905
16995W        W88721   2.931  40.023  13.045
16996W        W88722  15.366  26.222  10.764
16997W        W88723  35.878  35.079  11.998
16998W        W88724  15.738  42.271  10.994
16999W        W88725  28.809   9.931  10.453
17000W        W88726  34.495   0.763  12.059
17001W        W88727  39.932   6.908   1.803
17002W        W88728  21.590  28.127   2.199
17003W        W88729  22.110  21.570   1.217
17004W        W88730   6.788  24.192   4.191
17005W        W88731  20.129  14.144  10.979
17006W        W88732   8.384   4.728  11.582
17007W        W88733  42.906  29.271   1.173
17008W        W88734  31.384  12.118   0.225
17009W        W88735  21.071   0.651   4.904
17010W        W88736  10.622  15.701  12.537
17011W        W88737  24.043  15.742  12.418
17012W        W88738   6.378  23.261  11.613
17013W        W88739  24.089  11.353  10.718
17014W        W88740  22.900  41.280   3.277
17015W        W88741  34.479  34.502  14.970
17016W        W88742  23.752  10.834  12.817
17017W        W88743  11.742  37.382  10.734
17018W        W88744  19.431  37.644  11.984
17019W        W88745  32.350   4.989   1.721
17020W        W88746  15.815  44.539   3.685
17021W        W88747   5.368  35.056   0.435
17022W        W88748  23.371  43.189  13.936
17023W        W88749  31.911  14.114  14.233
17024W        W88750  36.570  13.815   3.342
17025W        W88751   1.538  19.124   4.101
17026W        W88752   5.991  14.164  13.032
17027W        W88753  33.440  17.865  11.595
17028W        W88754   3.410  44.503  12.092
17029W        W88755   8.142  35.772   5.307
17030W        W88756  10.559  12.961   2.768
17031W        W88757  43.650  24.260  10.671
17032W        W88758   9.903  23.609  11.422
17033W        W88759  27.919   1.982  12.080
17034W        W88760  18.837  39.372   3.219
17035W        W88761   7.182  20.574   2.415
17036W        W88762  23.256  39.329  13.311
17037W        W88763  42.812  42.552   1.770
17038W        W88764  35.840   5.349  14.861
17039W        W88765  44.349  40.006  11.423
17040W        W88766  42.885  25.661  13.877
17041W        W88767  34.953   0.005  13.950
17042W        W88768  38.670   2.086   2.345
17043W        W88769  24.353  37.077  10.718
17044W        W88770  36.821  11.879   3.263
17045W        W88771  22.105  33.298  12.341
17046W        W88772  32.994  33.157   1.374
17047W        W88773  14.791  14.368  14.465
17048W        W88774  27.554   7.305  11.936
17049W        W88775  11.205  43.980  13.529
17050W        W88776  42.025   3.914  14.961
17051W        W88777  43.281  12.524  14.770
17052W        W88778  30.910  11.915  12.538
17053W        W88779  30.007  23.393  14.787
17054W        W88780  18.799  14.041  10.535
17055W        W88781  38.684  38.470   1.652
17056W        W88782  39.733  20.633   4.555
17057W        W88783  39.029  37.655   3.288
17058W        W88784  27.960  20.704   2.887
17059W        W88785  20.943  16.310  14.287
17060W        W88786   3.137  16.117  14.866
17061W        W88787  27.019  11.787  14.090
17062W        W88788  13.099   8.123  10.853
17063W        W88789  34.411  28.111  11.543
17064W        W88790  14.588   3.632   4.987
17065W        W88791  41.866  11.369   2.718
17066W        W88792  34.913  16.544  13.415
17067W        W88793   7.729  26.893   2.368
17068W        W88794  16.232   2.295   1.846
17069W        W88795   8.351  23.673  10.510
17070W        W88796  14.261  13.681   1.368
17071W        W88797  26.933   0.599   5.064
17072W        W88798   6.351   0.530   1.183
17073W        W88799  28.215  16.763   1.716
17074W        W88800  31.629  38.906   2.215
17075W        W88801  13.373  25.742   3.094
17076W        W88802  18.764  41.086  13.265
17077W        W88803   2.986  40.936   1.299
17078W        W88804  16.604  21.031  14.398
17079W        W88805  38.884  34.126  14.019
17080W        W88806  29.640  11.653  13.940
17081W        W88807   5.932   7.227   2.734
17082W        W88808  44.996  42.907   4.634
17083W        W88809   8.727   3.069  12.829
17084W        W88810  22.915  29.538  12.021
17085W        W88811  30.895   2.512   2.259
17086W        W88812  39.052   2.259   3.577
17087W        W88813  10.281  12.059  11.189
17088W        W88814   7.297  11.902  12.098
17089W        W88815   5.804  19.214   3.628
17090W        W88816  10.841   7.402  13.538
17091W        W88817  18.743  41.645  12.443
17092W        W88818  43.870   6.684  12.325
17093W        W88819  24.418  39.059  11.922
17094W        W88820   4.323   7.888  10.768
17095W        W88821   4.429   7.857   1.348
17096W        W88822  19.665  40.285  14.012
17097W        W88823  44.387   9.883   4.028
17098W        W88824  31.896  31.165   2.845
17099W        W88825  10.575  24.271  12.345
17100W        W88826  20.662  36.062  14.703
17101W        W88827  22.470  39.400  11.531
17102W        W88828  12.241  41.132   4.802
17103W        W88829   3.787   6.857   3.289
17104W        W88830  18.503  29.435   3.853
17105W        W88831   3.852  41.925  12.518
17106W        W88832   4.351  11.005   4.159
17107W        W88833  25.967  20.182   4.807
17108W        W88834  13.645  25.953   3.792
17109W        W88835  12.247   8.665  11.717
17110W        W88836   7.427   1.252   1.306
17111W        W88837  44.883  39.105   3.209
17112W        W88838  23.719  32.053   0.338
17113W        W88839  35.533  17.795  10.694
17114W        W88840  32.114   5.449   1.779
17115W        W88841  37.625  37.830  11.452
17116W        W88842  44.917  24.115   4.433
17117W        W88843   7.407  44.483   0.302
17118W        W88844   9.273  43.749  14.763
17119W        W88845  13.123  17.855  13.359
17120W        W88846  19.241  13.025   2.255
17121W        W88847  16.150  35.571  12.921
17122W        W88848   8.506   6.213  10.264
17123W        W88849  23.835   6.977   0.653
17124W        W88850  41.589   2.877  13.296
17125W        W88851   6.357  11.174   1.986
17126W        W88852  29.146  36.326   2.372
17127W        W88853  23.220  28.218  13.016
17128W        W88854  21.148  30.843   5.088
17129W        W88855  35.326  13.308   1.381
17130W        W88856  31.376  20.651   4.683
17131W        W88857  18.144  27.954   1.487
17132W        W88858  41.213   0.998  12.945
17133W        W88859  11.342   8.578  14.259
17134W        W88860  40.004   9.454  10.973
17135W        W88861  34.407  30.374   1.918
17136W        W88862  24.725  17.286   0.408
17137W        W88863  19.202  41.999   1.239
17138W        W88864  40.379  12.730  12.597
17139W        W88865   3.382  36.469   1.149
17140W        W88866   4.686  31.432  13.400
17141W        W88867  28.591  19.611  12.987
17142W        W88868   6.713  39.963  13.441
17143W        W88869  32.302  33.047   3.135
17144W        W88870  21.773  28.252  13.070
17145W        W88871   2.276  42.733   3.741
17146W        W88872  30.388  37.386   3.402
17147W        W88873   2.353   8.605  11.667
17148W        W88874  15.272  22.471   5.006
17149W        W88875  24.627  17.546  13.439
17150W        W88876  21.326  18.293   0.468
17151W        W88877  41.492  25.229  14.718
17152W        W88878  40.383  28.134   4.103
17153W        W88879  21.753  15.203  10.609
17154W        W88880   4.819   4.600   5.040
17155W        W88881   5.967  35.436   4.351
17156W        W88882  42.996  26.093  12.481
17157W        W88883  32.634   2.201   1.389
17158W        W88884  39.495  10.787   0.924
17159W        W88885   7.553  34.638  14.847
17160W        W88886  35.462  41.110   3.840
17161W        W88887  22.802  44.397   0.374
17162W        W88888  27.502  11.286  14.816
17163W        W88889  41.588  42.899   3.878
17164W        W88890  12.121  34.431   4.607
17165W        W88891  33.850   6.450   2.352
17166W        W88892  40.519  18.502   0.304
17167W        W88893  34.170  24.941   1.222
17168W        W88894  34.599  31.461   1.252
17169W        W88895  41.281  26.944  14.374
17170W        W88896  10.072  15.147  12.061
17171W        W88897   9.264  13.109   3.822
17172W        W88898  44.319  44.528   2.447
17173W        W88899  28.020  13.999   0.174
17174W        W88900   3.489  43.756  11.722
17175W        W88901  33.657   3.741   1.517
17176W        W88902  27.902  17.742  14.884
17177W        W88903   0.830   6.383  10.923
17178W        W88904  27.220  39.251   4.172
17179W        W88905   7.176  29.437   4.010
17180W        W88906  22.092   4.782  10.342
17181W        W88907  21.795  39.497   2.240
17182W        W88908  29.752  37.386  13.447
17183W        W88909  29.110  43.823  14.646
17184W        W88910  21.681  31.106   0.149
17185W        W88911  16.565  22.771  12.923
17186W        W88912  27.247  12.414  13.468
17187W        W88913  24.967  10.595   2.690
17188W        W88914  19.187  37.422   0.400
17189W        W88915  14.084  28.733  14.274
17190W        W88916  37.683  33.603  12.898
17191W        W88917   1.424   3.471  12.157
17192W        W88918  15.115  14.679  12.927
17193W        W88919  15.320   4.864  11.958
17194W        W88920  42.758  17.564   0.990
17195W        W88921   4.445   3.433  14.807
17196W        W88922  16.783  18.777   2.954
17197W        W88923  32.153  22.003  11.411
17198W        W88924  28.501  16.193  10.668
17199W        W88925  22.665  14.376   3.708
17200W        W88926  39.872  12.571   4.280
17201W        W88927  18.543   3.468  13.098
17202W        W88928  39.496   9.644  14.793
17203W        W88929  31.120  25.038  10.339
17204W        W88930  40.541   8.004  10.612
17205W        W88931  12.011  44.480   3.385
17206W        W88932   1.215  37.081   3.887
17207W        W88933  13.591  42.977   0.759
17208W        W88934  24.321  16.812   4.118
17209W        W88935  34.024  11.703  14.381
17210W        W88936  27.489   3.975   4.990
17211W        W88937  26.232  26.470   0.920
17212W        W88938   5.975  41.517   3.553
17213W        W88939  21.407  29.343   1.400
17214W        W88940   4.867  44.924   4.000
17215W        W88941   4.087  13.887   0.926
17216W        W88942  36.061   4.486   1.875
17217W        W88943  12.227  12.619   2.082
17218W        W88944  42.480  43.889  11.968
17219W        W88945  24.934   6.905   3.150
17220W        W88946   3.239  11.248   0.595
17221W        W88947  43.978  13.135   4.808
17222W        W88948  19.302  30.238  14.848
17223W        W88949   5.010  16.783   3.763
17224W        W88950  15.114  31.469  11.849
17225W        W88951   2.675  13.181   3.663
17226W        W88952  44.158  41.278  14.145
17227W        W88953  20.560  36.090   0.210
17228W        W88954   7.793  41.634   0.017
17229W        W88955  34.797  31.949  14.519
17230W        W88956   7.253  32.334  13.230
17231W        W88957  36.823  26.969  14.916
17232W        W88958  18.848  34.856   4.170
17233W        W88959  29.582  35.557  12.513
17234W        W88960  39.153   7.740  13.846
17235W        W88961  22.704   4.961   2.736
17236W        W88962  34.047   2.322   0.236
17237W        W88963  12.840  11.631   2.650
17238W        W88964  23.122  38.406  13.753
17239W        W88965  28.563  44.050   2.183
17240W        W88966  26.235  41.347   1.993
17241W        W88967  16.797  27.537   2.397
17242W        W88968  15.794  15.316   2.363
17243W        W88969  39.683   7.993   2.387
17244W        W88970  36.358  25.844  13.850
17245W        W88971  33.028  10.026  10.067
17246W        W88972  37.909  13.388   3.095
17247W        W88973   3.298  12.699  13.478
17248W        W88974  35.667  20.203   4.573
17249W        W88975  35.038  29.000   4.926
17250W        W88976  39.016  34.211  13.082
17251W        W88977  12.371  44.585  12.847
17252W        W88978   4.196  31.853  14.682
17253W        W88979   8.195  19.068   0.847
17254W        W88980   7.383  43.242  13.134
17255W        W88981   1.946  39.367   3.683
17256W        W88982  38.327   5.395   3.882
17257W        W88983  42.724  44.460   1.341
17258W        W88984  36.677  36.395  14.323
17259W        W88985  28.360  44.255  14.279
17260W        W88986  41.511  39.743   3.929
17261W        W88987  10.010  28.201  14.420
17262W        W88988  10.761  16.561  12.902
17263W        W88989  29.909   5.755   2.875
17264W        W88990  35.404  30.578   0.441
17265W        W88991   6.714   3.535  10.714
17266W        W88992  31.212  32.992  13.306
17267W        W88993   9.757  13.536  13.466
17268W        W88994   3.266  34.329   0.522
17269W        W88995  38.544   6.009  12.505
17270W        W88996  31.068  42.982  12.382
17271W        W88997  33.928  43.801  12.403
17272W        W88998   4.868  33.088  13.772
17273W        W88999  36.368   7.445  12.122
17274W        W89000  39.384   6.380   2.551
17275W        W89001  23.766  38.530   0.818
17276W        W89002  11.621   1.468  13.385
17277W        W89003  25.408  12.154  13.122
17278W        W89004  32.886  43.687   2.635
17279W        W89005  41.849  44.084   1.137
17280W        W89006  37.853  43.956   0.801
17281W        W89007   9.406  30.525   1.830
17282W        W89008  12.472  16.151   2.426
17283W        W89009  10.566  18.237   2.894
17284W        W89010   8.428  28.161   2.643
17285W        W89011   7.182  33.589   1.135
17286W        W89012  42.515  18.668  13.382
17287W        W89013  15.631   1.875   1.304
17288W        W89014  21.760  13.280   1.335
17289W        W89015   0.910  11.306   2.422
17290W        W89016   5.474  24.966  11.128
17291W        W89017  10.311  41.543   3.180
17292W        W89018  14.044  39.928  10.618
17293W        W89019   8.844  26.963  11.215
17294W        W89020  25.989  25.553  13.774
17295W        W89021   5.821  31.552  14.631
17296W        W89022  16.772  17.974   4.126
17297W        W89023  25.159  21.028   0.521
17298W        W89024   0.976  12.258   2.317
17299W        W89025  10.465  30.003  12.452
17300W        W89026  44.826   2.049  11.115
17301W        W89027  35.043  13.591   2.498
17302W        W89028  10.626  24.420   2.917
17303W        W89029  30.298   8.990   2.308
17304W        W89030   8.306   0.302   2.248
17305W        W89031  17.321  27.253  12.935
17306W        W89032   6.159  18.365   0.652
17307W        W89033  22.780  35.879  14.417
17308W        W89034  15.723  20.655  10.887
17309W        W89035  15.408  36.332   4.294
17310W        W89036  16.265  40.416  13.994
17311W        W89037  11.975   8.354   2.907
17312W        W89038  41.108   1.838   0.543
17313W        W89039  28.915  19.613  12.336
17314W        W89040   3.553   5.360  13.420
17315W        W89041  38.077   3.054  11.453
17316W        W89042  31.427  33.504   5.260
17317W        W89043  35.017  26.223   0.736
17318W        W89044  17.973   7.994  12.117
17319W        W89045   9.005  35.656  12.896
17320W        W89046  31.720   6.931   2.170
17321W        W89047  10.726  10.765  14.451
17322W        W89048  30.909  25.835  14.868
17323W        W89049   0.415   3.160   5.078
17324W        W89050  39.715  24.363  13.169
17325W        W89051   2.089  31.165  12.119
17326W        W89052   0.950  12.131   4.775
17327W        W89053   0.777   0.160  11.300
17328W        W89054   5.300  25.089  13.652
17329W        W89055  37.150  10.903  14.674
17330W        W89056  15.511  16.809  14.909
17331W        W89057   3.464  29.969  12.930
17332W        W89058  36.844   9.201  14.535
17333W        W89059  12.185  28.947   2.822
17334W        W89060  41.332  10.202   3.800
17335W        W89061   9.816  29.102  13.929
17336W        W89062  24.565   9.331   1.947
17337W        W89063  36.618  11.403   3.462
17338W        W89064  32.866  30.545   2.039
17339W        W89065  44.351  20.976  10.399
17340W        W89066  31.181  24.405  11.931
17341W        W89067  35.268  24.104  11.102
17342W        W89068  43.219  42.848   0.516
17343W        W89069  23.586   9.238  10.636
17344W        W89070  31.751  40.941  10.721
17345W        W89071  21.554   8.718  10.799
17346W        W89072   0.715  44.779   1.444
17347W        W89073  13.774  43.437   2.293
17348W        W89074  21.162  23.619   0.729
17349W        W89075  32.850  27.186  11.512
17350W        W89076  35.572  16.579   3.151
17351W        W89077  29.393   1.756   1.657
17352W        W89078   1.249  42.464  11.363
17353W        W89079  24.508  41.257   4.117
17354W        W89080  43.830  22.061   3.335
17355W        W89081  39.610  24.659   4.419
17356W        W89082  31.001   0.826   3.555
17357W        W89083  33.215   9.864  13.488
17358W        W89084  10.170  38.010   4.355
17359W        W89085  26.126   3.235  14.862
17360W        W89086  39.405  21.679  13.008
17361W        W89087   4.159  14.772  14.785
17362W        W89088   2.888  27.195  11.094
17363W        W89089  40.562  29.858   2.170
17364W        W89090   3.271  19.047  13.205
17365W        W89091  17.112   5.117   1.740
17366W        W89092   9.450  28.188   4.191
17367W        W89093  39.444  21.570   4.446
17368W        W89094   3.441  33.413  12.453
17369W        W89095   2.004  31.229   3.840
17370W        W89096  34.427  42.281  10.713
17371W        W89097  29.530  27.087   0.940
17372W        W89098  36.805  22.047   2.845
17373W        W89099   6.439   1.830   2.026
17374W        W89100  36.953   0.474  13.968
17375W        W89101   2.400   4.351  10.757
17376W        W89102  20.364  14.206  10.537
17377W        W89103  29.390   4.911   0.399
17378W        W89104  23.297   8.276  14.583
17379W        W89105  31.672  15.390  10.623
17380W        W89106   7.179   0.771  13.020
17381W        W89107   0.002  10.496   4.249
17382W        W89108   2.806  17.804   4.495
17383W        W89109  37.755  10.746   2.261
17384W        W89110  38.969  19.524   4.601
17385W        W89111  30.546   7.558  14.842
17386W        W89112  28.802  44.302   3.392
17387W        W89113  30.523  25.461   0.585
17388W        W89114  34.974  38.611   2.298
17389W        W89115  25.657  31.278   2.571
17390W        W89116  19.024  13.600   0.842
17391W        W89117  44.185  21.138   3.199
17392W        W89118  22.226  40.311   3.859
17393W        W89119  44.903  23.519   3.090
17394W        W89120  38.390  14.826  12.612
17395W        W89121  32.466  29.813  11.917
17396W        W89122  23.101  24.982   2.832
17397W        W89123   8.064  12.429  13.609
17398W        W89124  23.660  24.477  12.463
17399W        W89125   1.361  12.912  12.958
17400W        W89126  11.709  26.608   4.107
17401W        W89127   8.327  17.621   0.027
17402W        W89128  17.068   5.899  13.384
17403W        W89129   1.262  17.807   1.308
17404W        W89130  34.106   0.184  13.075
17405W        W89131  42.764  27.935   0.466
17406W        W89132  14.724  13.559  12.505
17407W        W89133  19.710  11.079   0.165
17408W        W89134  13.382  25.182   0.461
17409W        W89135  32.730  28.052   4.192
17410W        W89136  23.126   5.233  13.308
17411W        W89137  14.413  28.900  13.854
17412W        W89138  24.062  23.184  13.414
17413W        W89139  34.024  35.044  11.322
17414W        W89140  38.362  40.241   0.826
17415W        W89141  38.971  18.313   4.199
17416W        W89142  29.916  39.351  13.943
17417W        W89143   9.263   4.941   0.953
17418W        W89144   0.780   2.517  13.557
17419W        W89145  31.520   6.510   3.821
17420W        W89146  41.813  31.104  13.833
17421W        W89147  11.168  17.045   4.741
17422W        W89148  32.562  40.637   0.876
17423W        W89149  14.344  41.840   4.213
17424W        W89150  18.032  42.235  14.836
17425W        W89151  23.082  30.981   3.209
17426W        W89152  24.631  15.401  11.118
17427W        W89153   4.466   4.370  10.543
17428W        W89154  34.016  30.625  12.072
17429W        W89155   1.876  43.287  11.538
17430W        W89156  35.406  10.916   4.207
17431W        W89157   9.420  11.903  11.110
17432W        W89158  13.641  28.510  11.433
17433W        W89159  23.990  25.363   4.101
17434W        W89160   1.772  17.306   4.590
17435W        W89161   8.896  22.120  11.078
17436W        W89162  30.416  11.791   3.147
17437W        W89163  22.139  40.535  13.659
17438W        W89164  43.200  29.900  11.876
17439W        W89165   3.188   3.250  10.451
17440W        W89166  10.646  21.331  14.404
17441W        W89167  42.239  32.381   3.680
17442W        W89168   0.668  11.135   4.664
17443W        W89169  42.684  20.667   3.159
17444W        W89170  10.075  17.375   3.256
17445W        W89171  28.707  38.909   2.586
17446W        W89172  27.564  41.964   3.336
17447W        W89173  41.698   3.417   5.054
17448W        W89174   5.960  12.858   4.618
17449W        W89175   3.802  20.650   1.509
17450W        W89176  14.013  36.013  14.425
17451W        W89177  11.185   6.851   4.342
17452W        W89178  21.570  44.739  14.979
17453W        W89179  35.161  15.621   2.561
17454W        W89180  13.314  25.400   4.064
17455W        W89181  34.079   4.483   4.074
17456W        W89182  24.826  10.906  13.883
17457W        W89183  13.298  34.960  14.451
17458W        W89184  23.218  15.217   5.015
17459W        W89185   3.118  37.546   0.394
17460W        W89186  17.436   6.883   3.377
17461W        W89187  15.370  31.711   2.194
17462W        W89188  18.153  25.634   2.124
17463W        W89189  11.385   9.952   4.160
17464W        W89190   1.912  28.150   0.606
17465W        W89191  20.012  14.213   3.969
17466W        W89192  20.959  15.870   3.828
17467W        W89193  19.509  41.040  12.036
17468W        W89194  21.522  20.754  10.399
17469W        W89195  22.120  14.703  12.896
17470W        W89196   2.950  23.980  13.416
17471W        W89197  15.117  21.963  13.159
17472W        W89198  30.232   2.719   4.235
17473W        W89199  30.551  30.035   3.882
17474W        W89200  42.488   1.419  14.546
17475W        W89201  38.091  36.381  11.202
17476W        W89202  25.865  20.091  12.331
17477W        W89203  38.484  30.071  11.209
17478W        W89204  36.450  38.153  14.390
17479W        W89205  18.838   2.333  11.130
17480W        W89206  32.236   4.290   1.039
17481W        W89207  13.622  16.562   2.826
17482W        W89208  31.934  29.747  11.203
17483W        W89209  42.994  34.813   0.687
17484W        W89210   2.583   3.671   3.746
17485W        W89211  39.971   3.288   1.042
17486W        W89212  16.960  10.110   1.661
17487W        W89213  29.983  35.537   4.220
17488W        W89214  21.084  28.468   4.204
17489W        W89215  40.533  41.490  10.701
17490W        W89216  27.699   6.282   1.717
17491W        W89217   2.057  31.109  14.806
17492W        W89218  22.171  30.011   3.812
17493W        W89219  22.606  10.160   4.887
17494W        W89220  10.155  36.430   2.210
17495W        W89221  40.765  37.030  11.401
17496W        W89222  44.025   5.290   4.831
17497W        W89223  18.800   7.916  11.025
17498W        W89224  34.441  18.210   4.195
17499W        W89225  20.319  31.448   0.467
17500W        W89226  32.611  23.669   0.464
17501W        W89227   1.702  30.898   1.300
17502W        W89228  35.066  23.076  10.684
17503W        W89229  32.976  11.569  14.409
17504W        W89230  44.993  12.154   1.488
17505W        W89231   7.999  26.655   3.749
17506W        W89232  18.727  19.205  11.929
17507W        W89233  10.903  28.152  14.510
17508W        W89234  41.091  31.496   0.923
17509W        W89235  16.623  40.560   2.198
17510W        W89236  30.479  22.028   2.610
17511W        W89237   4.213   6.653  14.271
17512W        W89238  20.462  13.343  14.324
17513W        W89239  37.531   0.306  12.628
17514W        W89240  19.329  11.306   0.988
17515W        W89241  27.087  24.064  13.458
17516W        W89242  26.839  12.619  12.141
17517W        W89243  14.244  43.847  13.874
17518W        W89244  29.402  22.500   1.176
17519W        W89245  26.125  14.246  10.715
17520W        W89246  20.130  38.755  14.452
17521W        W89247  20.222   4.927  11.165
17522W        W89248   8.552  14.057  11.995
17523W        W89249  32.841  20.429  12.180
17524W        W89250   2.885   0.423  14.520
17525W        W89251  14.906  29.676   4.774
17526W        W89252  23.604  41.525  11.006
17527W        W89253  42.850   0.372   3.296
17528W        W89254   1.067   5.773   0.208
17529W        W89255   2.260   9.106   0.695
17530W        W89256  22.545  23.844  10.501
17531W        W89257   6.957  17.133  14.506
17532W        W89258  42.935  20.258   0.202
17533W        W89259   3.341  29.887   4.628
17534W        W89260  10.049   3.408  10.745
17535W        W89261   9.181  35.657   2.762
17536W        W89262  21.206  28.883  13.036
17537W        W89263  44.513   5.830  13.943
17538W        W89264  16.094   0.023   1.304
17539W        W89265  17.164  35.359   2.761
17540W        W89266   4.784  23.138  11.197
17541W        W89267  22.882  30.162   3.430
17542W        W89268  18.394  30.457  14.359
17543W        W89269  35.713   1.346   2.858
17544W        W89270  14.350  33.528   2.133
17545W        W89271   8.315  17.630   1.526
17546W        W89272  41.078  42.361  11.051
17547W        W89273  40.699  35.851   4.323
17548W        W89274  21.431   8.163   0.749
17549W        W89275  13.870  42.919   0.288
17550W        W89276   8.960  42.909   1.480
17551W        W89277   5.797   1.359  13.940
17552W        W89278  20.714  15.203  13.829
17553W        W89279  35.573  27.703  13.126
17554W        W89280  44.748  12.831  14.994
17555W        W89281  22.676  22.776   4.868
17556W        W89282  26.407  18.232   3.724
17557W        W89283  28.025  18.182   2.742
17558W        W89284  19.100  27.693   4.197
17559W        W89285   1.472  25.149  12.417
17560W        W89286   3.028  40.958  13.969
17561W        W89287  28.934  28.854  13.313
17562W        W89288  22.479  12.166   3.736
17563W        W89289  29.255  41.311   0.740
17564W        W89290  23.456  25.609  10.679
17565W        W89291  32.060  11.818  11.079
17566W        W89292  11.493  29.410  13.364
17567W        W89293  42.330  25.539  14.023
17568W        W89294  14.092  43.945   4.105
17569W        W89295   3.325   1.839  13.776
17570W        W89296  27.414  22.991  13.937
17571W        W89297  42.762  43.927   1.323
17572W        W89298  39.571   4.936   1.202
17573W        W89299  44.275  21.494   4.624
17574W        W89300  23.119  26.170  11.156
17575W        W89301   2.278  20.624  14.865
17576W        W89302   4.063  41.653  10.367
17577W        W89303  34.297   6.341  11.584
17578W        W89304   5.503  25.038   0.734
17579W        W89305  41.847  39.300   1.959
17580W        W89306  36.408   9.812  11.626
17581W        W89307  21.755  41.508   5.027
17582W        W89308  35.323  15.608   4.061
17583W        W89309   3.862  12.371   0.834
17584W        W89310   4.767  12.467  10.581
17585W        W89311  22.873   1.543  10.391
17586W        W89312  20.636   0.964  11.685
17587W        W89313  31.364  32.696   1.626
17588W        W89314  23.106  20.741   2.155
17589W        W89315  27.138  25.602   4.233
17590W        W89316  17.532  17.150   3.296
17591W        W89317   6.413  13.942   1.065
17592W        W89318  21.673  17.769  14.160
17593W        W89319  24.132  34.070   3.346
17594W        W89320  30.169  39.558  14.920
17595W        W89321  27.129  33.873  11.643
17596W        W89322  19.292  25.627  14.980
17597W        W89323  15.347  33.299   2.820
17598W        W89324  15.015  11.748  14.771
17599W        W89325  12.264  33.938   2.705
17600W        W89326  34.405  28.576   1.413
17601W        W89327  44.873  42.300  14.040
17602W        W89328  35.990  30.654  11.634
17603W        W89329  35.767   6.239  12.634
17604W        W89330  14.471  19.011  10.679
17605W        W89331  40.295  12.596   4.625
17606W        W89332  25.609  21.533  14.902
17607W        W89333   7.439  43.848  10.648
17608W        W89334  10.778  30.899   0.951
17609W        W89335   7.463  11.138   4.149
17610W        W89336  29.940  43.280   3.297
17611W        W89337   3.256  14.489  11.363
17612W        W89338  16.776  20.345  11.104
17613W        W89339   2.736   3.009   4.552
17614W        W89340  22.595  19.611   0.459
17615W        W89341  15.515  35.882  11.164
17616W        W89342  18.516  31.612  14.099
17617W        W89343  15.037  29.142   2.932
17618W        W89344  27.343  39.811   3.656
17619W        W89345  27.600  21.629   0.499
17620W        W89346   1.814  41.952   4.526
17621W        W89347  32.586  13.235   2.209
17622W        W89348  34.428  21.288   0.878
17623W        W89349  10.712   6.348   3.140
17624W        W89350  12.102  32.543   1.366
17625W        W89351  41.115  42.301  11.977
17626W        W89352  20.311  33.884   4.891
17627W        W89353  42.834  33.012   0.872
17628W        W89354  18.787   2.198   0.315
17629W        W89355  43.218  40.903  12.074
17630W        W89356  22.834  29.465   3.546
17631W        W89357  13.855  16.767   2.392
17632W        W89358  14.212  14.480   4.080
17633W        W89359  33.694   8.617  11.177
17634W        W89360  38.653  22.624   1.758
17635W        W89361  38.362  13.568  10.569
17636W        W89362  25.392  43.527   1.332
17637W        W89363  34.573   5.028   4.579
17638W        W89364   2.782  44.291   4.609
17639W        W89365  19.054  12.649   3.547
17640W        W89366  41.015  14.849   3.719
17641W        W89367  12.602  21.636   3.384
17642W        W89368  32.149  29.260   1.815
17643W        W89369  43.797  20.037   1.291
17644W        W89370   4.463  41.443   3.814
17645W        W89371  43.344  21.856   1.957
17646W        W89372  33.452  32.445   4.102
17647W        W89373   3.396   0.980  11.280
17648W        W89374  12.908  41.096   0.389
17649W        W89375   5.048  18.529  14.219
17650W        W89376   3.190  24.550  13.279
17651W        W89377  40.647   6.205  11.685
17652W        W89378  26.713   5.877  13.413
17653W        W89379  25.067  23.141   1.172
17654W        W89380  35.527   9.141  14.369
17655W        W89381  22.246  25.578  11.640
17656W        W89382  32.837   2.418   4.539
17657W        W89383  35.480  34.563  13.129
17658W        W89384  34.348  36.159  11.200
17659W        W89385  13.216  15.691   1.859
17660W        W89386   0.898  28.134  13.932
17661W        W89387   2.928  24.260   1.913
17662W        W89388  33.342   3.874  11.169
17663W        W89389  14.874  29.987   2.617
17664W        W89390  20.821  12.269   0.985
17665W        W89391  10.713  14.611  13.846
17666W        W89392  22.600   3.539  10.295
17667W        W89393   7.696   1.274  13.451
17668W        W89394  28.015  36.945   2.639
17669W        W89395  30.903   5.969   0.309
17670W        W89396  35.419  44.300   2.061
17671W        W89397   7.847  35.055   2.245
17672W        W89398  36.631  30.880  11.031
17673W        W89399  22.211   4.224   2.234
17674W        W89400   7.931  15.884   1.344
17675W        W89401  17.743  33.652   1.149
17676W        W89402  34.662  29.022  11.141
17677W        W89403  22.122  24.644   3.411
17678W        W89404  15.055   6.037   3.499
17679W        W89405  26.183  41.290   1.337
17680W        W89406  41.067  24.266   4.095
17681W        W89407  15.595  17.272   4.409
17682W        W89408   2.732   4.260  11.186
17683W        W89409  25.146  36.051   4.986
17684W        W89410  40.819  11.219   0.906
17685W        W89411  21.824  37.571   3.122
17686W        W89412  23.610  30.640   0.447
17687W        W89413  40.924  26.741  11.123
17688W        W89414  37.492  31.682  14.459
17689W        W89415  16.220  24.956  14.331
17690W        W89416  26.703  39.980   1.780
17691W        W89417  22.919  24.625   5.036
17692W        W89418   1.497  29.130   4.925
17693W        W89419  31.052  14.740   2.680
17694W        W89420  23.787  40.342   0.322
17695W        W89421   5.145  35.969  12.609
17696W        W89422  24.197  18.579   3.584
17697W        W89423   6.454  11.769   3.890
17698W        W89424   3.211  20.615   4.949
17699W        W89425   0.854  26.603  13.043
17700W        W89426  41.757   7.023   1.216
17701W        W89427  25.564   8.022   4.641
17702W        W89428  28.962  39.666   0.146
17703W        W89429   8.472  16.195   2.351
17704W        W89430  34.801  29.428   5.130
17705W        W89431   0.492  26.990  12.983
17706W        W89432  43.255  26.676  14.741
17707W        W89433  14.083  20.083  14.070
17708W        W89434  27.147  42.185   2.779
17709W        W89435  22.781   9.640  11.100
17710W        W89436  27.378  42.163   1.827
17711W        W89437   4.498  14.311   3.010
17712W        W89438  11.435   0.781  14.521
17713W        W89439  19.596   8.694   4.608
17714W        W89440   4.774  22.699   0.902
17715W        W89441  26.904  34.415   3.550
17716W        W89442   5.239  14.360  13.745
17717W        W89443  29.995  28.940   3.345
17718W        W89444  21.981  11.981   4.446
17719W        W89445  20.881  17.277   1.673
17720W        W89446  16.503  26.031  14.090
17721W        W89447  15.594  29.386  12.397
17722W        W89448  29.059  22.522  11.958
17723W        W89449  11.073  24.586   4.501
17724W        W89450  20.123  40.167  10.741
17725W        W89451   8.651   3.827   0.847
17726W        W89452  13.126   1.052  13.619
17727W        W89453  24.426   2.752  11.818
17728W        W89454   3.192  36.079   4.473
17729W        W89455   6.768  43.375  11.565
17730W        W89456  33.440  27.187  11.170
17731W        W89457  10.967   6.641  10.795
17732W        W89458  31.871  10.244  13.491
17733W        W89459  25.162  19.283   0.755
17734W        W89460  24.629  42.262  13.011
17735W        W89461  37.990  11.167   2.925
17736W        W89462  21.903  37.152  12.294
17737W        W89463  26.387  11.784  14.898
17738W        W89464  32.418  33.898  12.971
17739W        W89465  33.124   8.145  14.269
17740W        W89466  15.612  22.424   3.245
17741W        W89467  38.964   5.815   3.300
17742W        W89468  43.025   9.555   0.877
17743W        W89469   2.786  12.318  14.918
17744W        W89470  13.932  31.034   5.128
17745W        W89471  32.033  18.255   4.565
17746W        W89472  17.663  12.793  13.192
17747W        W89473  32.457   8.921   3.696
17748W        W89474  12.920  23.097  11.421
17749W        W89475  32.480  41.856  14.943
17750W        W89476  25.149  12.753   3.789
17751W        W89477   3.911  12.788  10.222
17752W        W89478  15.341  23.480   4.581
17753W        W89479  38.276  27.196  11.465
17754W        W89480  22.319  29.596  13.269
17755W        W89481  25.121   6.195   5.074
17756W        W89482   9.718  15.719   1.221
17757W        W89483  15.478   8.267   3.751
17758W        W89484  27.079   8.387   2.252
17759W        W89485  26.503  32.937  12.104
17760W        W89486  37.290  14.738  14.305
17761W        W89487  20.685   5.725  14.252
17762W        W89488  21.185  34.818   3.838
17763W        W89489  27.135  18.245   9.896
17764W        W89490  13.667  41.071   0.798
17765W        W89491   3.767  31.291  14.663
17766W        W89492  22.170   8.690   0.786
17767W        W89493   8.901  38.287  14.252
17768W        W89494  17.273  17.489   3.647
17769W        W89495  41.099  22.985   4.221
17770W        W89496  12.397   7.125  14.905
17771W        W89497   8.254  30.542   3.239
17772W        W89498  27.848  39.129   0.831
17773W        W89499   9.244  25.978  10.240
17774W        W89500  15.763  25.016  13.567
17775W        W89501  17.559  21.849   3.927
17776W        W89502  38.748  10.370   3.782
17777W        W89503   1.467  26.243   4.518
17778W        W89504  18.445  21.611  12.083
17779W        W89505  35.838  41.199  13.987
17780W        W89506  28.660  16.938   0.852
17781W        W89507   8.682  32.616  14.398
17782W        W89508  32.558  44.401   4.749
17783W        W89509  28.473  20.985   4.720
17784W        W89510  42.456  34.865  13.483
17785W        W89511  35.379   1.805   1.192
17786W        W89512  36.814  35.438  14.328
17787W        W89513  36.865  15.993  13.450
17788W        W89514   5.502  16.693   9.624
17789W        W89515  15.583  23.188  14.566
17790W        W89516  19.377  15.394  10.712
17791W        W89517  22.746  25.028   0.728
17792W        W89518  31.460   5.832  13.783
17793W        W89519  34.931   9.665  11.228
17794W        W89520  30.496  32.471   0.589
17795W        W89521  40.853  23.314  11.578
17796W        W89522  41.072  10.455  12.496
17797W        W89523  16.568  24.392  12.475
17798W        W89524  40.536  21.125  14.558
17799W        W89525  30.162   7.169   3.258
17800W        W89526  12.904  17.107   3.339
17801W        W89527  43.447  37.543   3.198
17802W        W89528   4.866   3.056   4.524
17803W        W89529  20.628   5.231  12.999
17804W        W89530  29.176  13.609  14.965
17805W        W89531  22.977  22.787  12.467
17806W        W89532  16.218  18.298  11.984
17807W        W89533  18.528   6.163   2.661
17808W        W89534  39.425  28.504   4.165
17809W        W89535  14.577  35.156  12.477
17810W        W89536  44.511  21.082   4.428
17811W        W89537  29.263  30.126  11.544
17812W        W89538  10.094  18.965   3.803
17813W        W89539   3.158   0.529  11.165
17814W        W89540  20.083   1.252   1.740
17815W        W89541  18.296   7.813  14.387
17816W        W89542  30.666  34.054   0.419
17817W        W89543  41.273  44.880  12.828
17818W        W89544   2.318  18.538   1.492
17819W        W89545  32.146   0.797   5.362
17820W        W89546   8.007   1.530   2.696
17821W        W89547  41.302  32.962  13.005
17822W        W89548  25.681   3.494   0.026
17823W        W89549  29.120   0.464  14.964
17824W        W89550  25.683  39.215   0.351
17825W        W89551  26.655  38.530  11.868
17826W        W89552   2.147   6.434   2.791
17827W        W89553  27.161  19.013   1.860
17828W        W89554   1.352  10.263  14.823
17829W        W89555  30.475  32.307   4.297
17830W        W89556  31.866  41.731   4.181
17831W        W89557  32.544   7.970  13.548
17832W        W89558   2.413  40.363  14.205
17833W        W89559  24.271  24.055  10.677
17834W        W89560  28.677  30.433  10.803
17835W        W89561   4.349  43.942   4.276
17836W        W89562  28.532   7.817  13.743
17837W        W89563  14.026  33.197   3.051
17838W        W89564   2.562  38.902   1.365
17839W        W89565  31.785  44.760  13.778
17840W        W89566   8.056  23.227  13.001
17841W        W89567  22.905  14.685   4.089
17842W        W89568  29.069   7.396   1.351
17843W        W89569  35.881  21.000  11.207
17844W        W89570  27.163  30.650  13.728
17845W        W89571  24.614  33.094   4.623
17846W        W89572  34.520  43.316   0.816
17847W        W89573  40.593  37.487  12.065
17848W        W89574   9.986   9.450  11.994
17849W        W89575  42.834  33.124   3.706
17850W        W89576  25.455  22.657  10.552
17851W        W89577  35.363  10.222  11.639
17852W        W89578   2.592  13.575  13.978
17853W        W89579  39.625  37.535  14.363
17854W        W89580  26.938  22.625  13.159
17855W        W89581  38.501  44.387   3.840
17856W        W89582  26.401  42.807   3.208
17857W        W89583  19.945   9.767  10.568
17858W        W89584  35.562  23.870   3.105
17859W        W89585   8.433  10.635   4.279
17860W        W89586  11.972  27.740  13.037
17861W        W89587  43.540  11.849   2.444
17862W        W89588  16.501  13.685   2.452
17863W        W89589  26.370  20.988   4.594
17864W        W89590  36.526  37.585  14.965
17865W        W89591  19.731  16.335   3.115
17866W        W89592  35.005  23.560   4.113
17867W        W89593  17.288   7.683   4.153
17868W        W89594   5.950   2.265   2.713
17869W        W89595  21.656   0.332  13.322
17870W        W89596   9.230  36.389  11.156
17871W        W89597   4.454  31.713   0.896
17872W        W89598  12.447  12.595  14.046
17873W        W89599  18.049  37.871  14.149
17874W        W89600  38.562   9.305  12.548
17875W        W89601  31.254  23.135   2.392
17876W        W89602  27.027   7.406  13.811
17877W        W89603   6.075  34.782  10.228
17878W        W89604  43.717   5.341   1.504
17879W        W89605  22.597   9.502  13.829
17880W        W89606   2.260  43.803  14.963
17881W        W89607  37.402  37.367  11.416
17882W        W89608  28.244  16.016   3.890
17883W        W89609  27.752  17.906  12.040
17884W        W89610  23.677  25.101  10.554
17885W        W89611  36.094   7.843   0.091
17886W        W89612  42.727  14.535   1.313
17887W        W89613  29.235   4.522  12.972
17888W        W89614  42.585  42.279   3.501
17889W        W89615  37.415  10.368   2.394
17890W        W89616  41.049  35.625  14.299
17891W        W89617  38.763  27.512   1.662
17892W        W89618  33.635  15.277   2.340
17893W        W89619  15.629  36.880   3.006
17894W        W89620   4.672  20.555   1.447
17895W        W89621  29.011  41.277   4.027
17896W        W89622  35.506  23.259   1.885
17897W        W89623  19.463  17.220   3.681
17898W        W89624  24.008  27.262  14.342
17899W        W89625   0.391   7.737   1.068
17900W        W89626  27.441  40.946  10.572
17901W        W89627  33.864  43.820  12.925
17902W        W89628  28.586  35.828   0.119
17903W        W89629   9.843  21.576   3.416
17904W        W89630  11.286  36.555  14.043
17905W        W89631  23.978  21.101   2.353
17906W        W89632  10.620  18.719   1.632
17907W        W89633  41.946  15.227   3.574
17908W        W89634  33.466  36.954  14.337
17909W        W89635   5.308  27.181   1.190
17910W        W89636   8.101  19.522   2.481
17911W        W89637   5.740   0.035  14.340
17912W        W89638  15.267  37.219  12.474
17913W        W89639  27.570   9.111   1.354
17914W        W89640  10.225  26.630  12.079
17915W        W89641  28.455  26.175   2.431
17916W        W89642  20.541  44.774  12.540
17917W        W89643  30.158  35.607  13.927
17918W        W89644  29.823   2.928  13.001
17919W        W89645   3.727  41.027   0.698
17920W        W89646  12.207  26.087   2.732
17921W        W89647  31.019   2.363   4.517
17922W        W89648  33.076  23.218   4.305
17923W        W89649  43.886  26.603   4.994
17924W        W89650  14.132   7.449  14.389
17925W        W89651  40.438  40.410  10.794
17926W        W89652  11.162  13.168  11.173
17927W        W89653  32.001  33.993   2.743
17928W        W89654  24.451  15.675   2.747
17929W        W89655  33.895  25.872   1.313
17930W        W89656  12.891  39.482   2.751
17931W        W89657  18.748  10.676  12.880
17932W        W89658  28.005  10.398   5.120
17933W        W89659  20.115  33.794   1.932
17934W        W89660  10.329  43.398   4.561
17935W        W89661  44.838   2.040  14.337
17936W        W89662  19.055  30.640   4.263
17937W        W89663  21.022  10.381  11.630
17938W        W89664  28.918  21.089   1.032
17939W        W89665   6.347   1.551   0.355
17940W        W89666  28.185  27.964  14.473
17941W        W89667  36.067  37.283  14.944
17942W        W89668  44.740  25.449   0.933
17943W        W89669  28.547   9.411   2.458
17944W        W89670   9.775   7.601  13.438
17945W        W89671  22.445  40.041  14.921
17946W        W89672   9.644  12.684  14.210
17947W        W89673  19.729  25.421  11.598
17948W        W89674  35.625  34.873   0.742
17949W        W89675  29.927  27.572   3.392
17950W        W89676  34.408  15.218   2.825
17951W        W89677  10.224  21.215  10.234
17952W        W89678  32.110  19.478   0.797
17953W        W89679  12.099  42.904   3.807
17954W        W89680  23.053   7.293   3.798
17955W        W89681  22.887  15.462  11.969
17956W        W89682  20.056  34.916   1.895
17957W        W89683  37.884   6.352   1.792
17958W        W89684  16.168   8.458   0.897
17959W        W89685  12.879  38.736   3.984
17960W        W89686  24.494   2.173  14.859
17961W        W89687  42.260  32.921   0.830
17962W        W89688  17.603  38.589   3.727
17963W        W89689  25.791   2.485  12.082
17964W        W89690  30.258  38.019  12.575
17965W        W89691  13.734   2.245   4.072
17966W        W89692  21.916  34.889  14.128
17967W        W89693  43.989  27.054   2.719
17968W        W89694  20.808  41.588  11.787
17969W        W89695  36.280   9.593   1.772
17970W        W89696  22.338  35.299  14.835
17971W        W89697  10.164  18.936  11.158
17972W        W89698  43.877  24.600   2.062
17973W        W89699  11.157   3.352   2.217
17974W        W89700   3.289  13.451  14.186
17975W        W89701  29.298  19.708  11.533
17976W        W89702  40.352  13.356   3.408
17977W        W89703  33.410  11.295   1.765
17978W        W89704  19.756   0.727  13.889
17979W        W89705  43.824  23.073  12.144
17980W        W89706   3.202  22.169  10.768
17981W        W89707  28.115  35.884  13.307
17982W        W89708  36.094  30.142  12.342
17983W        W89709  39.260  31.943   4.138
17984W        W89710  15.644   4.907   5.156
17985W        W89711  28.317  31.991  10.729
17986W        W89712  25.411  22.213  14.966
17987W        W89713  21.154  17.660   1.901
17988W        W89714   3.421   2.244   2.766
17989W        W89715   8.743  37.788  12.333
17990W        W89716  40.500   8.819  14.548
17991W        W89717  24.401   7.384   1.778
17992W        W89718  12.713  41.932   0.060
17993W        W89719   6.557  39.334  12.084
17994W        W89720  18.363  37.859  13.275
17995W        W89721   0.817  16.863   1.996
17996W        W89722   5.085  42.092  13.515
17997W        W89723  12.288  10.709  13.318
17998W        W89724   0.866   5.298  12.411
17999W        W89725   2.737  18.179   1.482
18000W        W89726  18.054  19.607   2.751
18001W        W89727  34.377  11.133   2.570
18002W        W89728   3.818  13.443   0.265
18003W        W89729   0.596   6.455   0.985
18004W        W89730  12.606   1.761   1.799
18005W        W89731  26.647  16.580   3.041
18006W        W89732  39.778  27.498   3.816
18007W        W89733   7.891   0.503  10.711
18008W        W89734   3.280   7.703   4.101
18009W        W89735  38.803  37.116   4.494
18010W        W89736   6.195  20.906   1.937
18011W        W89737  31.570  10.247  13.924
18012W        W89738  42.004  27.380  14.965
18013W        W89739  12.759  33.183   2.713
18014W        W89740   5.421  42.107   1.300
18015W        W89741  27.269  27.107   2.267
18016W        W89742  41.487  27.966   3.309
18017W        W89743  31.163  30.056   2.236
18018W        W89744  24.997   2.290   2.270
18019W        W89745  14.969  42.917   3.698
18020W        W89746  31.875  20.189  12.884
18021W        W89747   6.095  37.110  12.452
18022W        W89748  15.049  16.433   3.721
18023W        W89749  26.882  15.863  10.274
18024W        W89750  18.144  16.756   1.732
18025W        W89751  34.884  24.546   3.938
18026W        W89752   4.807  37.547   0.843
18027W        W89753  17.612   3.197  12.584
18028W        W89754  34.821  22.535  13.021
18029W        W89755  29.550  27.160  11.403
18030W        W89756  28.170  36.460   1.324
18031W        W89757  22.757  14.728   0.903
18032W        W89758  26.384   8.211   2.699
18033W        W89759  36.578  23.598   0.312
18034W        W89760  25.775  39.792  10.921
18035W        W89761  14.780  16.341   2.199
18036W        W89762  34.333  26.606   4.733
18037W        W89763  38.051  28.142  12.365
18038W        W89764  38.602  25.842   4.755
18039W        W89765  18.755   5.393  13.307
18040W        W89766  40.527  15.814   0.758
18041W        W89767  27.647  32.386  12.358
18042W        W89768   9.926  16.153   1.492
18043W        W89769  28.695   8.782  10.979
18044W        W89770  10.001  10.868  12.116
18045W        W89771  44.014  26.102   3.755
18046W        W89772  38.838  21.210  14.998
18047W        W89773  18.499   3.376   3.736
18048W        W89774  42.003  36.962   2.848
18049W        W89775  30.704  15.762  11.706
18050W        W89776  42.463  31.822   2.814
18051W        W89777  14.455  13.303   2.256
18052W        W89778   4.960  31.333  14.251
18053W        W89779   3.513  12.110   2.188
18054W        W89780   4.901   5.683   3.171
18055W        W89781  26.430  15.267  12.020
18056W        W89782  39.853  32.590   1.333
18057W        W89783  36.048  29.440  13.962
18058W        W89784  39.872  26.501  12.904
18059W        W89785   1.464  17.130  13.156
18060W        W89786  37.628  34.655   2.365
18061W        W89787  10.814  27.978   9.899
18062W        W89788   1.013  28.466   0.884
18063W        W89789  16.337  32.582   4.146
18064W        W89790   0.406  37.472   4.432
18065W        W89791  29.560  14.598   3.793
18066W        W89792   8.676  23.370   0.222
18067W        W89793  24.258  19.008  11.314
18068W        W89794  44.473  36.608  11.848
18069W        W89795   1.221  36.819  12.457
18070W        W89796  10.891  42.415  12.749
18071W        W89797  10.649  19.775  10.782
18072W        W89798  29.204  32.524  10.746
18073W        W89799  18.568  14.235  13.930
18074W        W89800  36.327  32.035  10.326
18075W        W89801  20.744  33.760  11.092
18076W        W89802  42.902  17.753   1.981
18077W        W89803  20.223   9.774   3.289
18078W        W89804   6.442  32.499  11.529
18079W        W89805   4.652  13.306  12.260
18080W        W89806  13.279  10.820   3.709
18081W        W89807  27.493  43.560  14.863
18082W        W89808   4.723   6.592  12.775
18083W        W89809  43.582  13.572   3.723
18084W        W89810   2.353   1.753   0.076
18085W        W89811   8.580   1.481  12.312
18086W        W89812   8.188  44.737  12.496
18087W        W89813   4.859  30.574   3.454
18088W        W89814  10.939   3.326   0.898
18089W        W89815  23.446   5.873  14.942
18090W        W89816   1.915  31.892   4.577
18091W        W89817   7.584   0.036   0.688
18092W        W89818  14.161  33.019  10.449
18093W        W89819  15.864  13.102   2.274
18094W        W89820  23.490  40.048   3.503
18095W        W89821  38.045  26.073  11.150
18096W        W89822   2.184  18.559  12.065
18097W        W89823  15.180   6.048  13.934
18098W        W89824  19.449  32.577   0.561
18099W        W89825  35.827  42.525  14.864
18100W        W89826  29.485  31.656  12.621
18101W        W89827  40.344  42.030  11.531
18102W        W89828  44.789  33.534  12.049
18103W        W89829   5.782   3.459   4.706
18104W        W89830   3.967  32.113  11.233
18105W        W89831  11.896  44.847   0.344
18106W        W89832  26.540   5.717   0.589
18107W        W89833  26.898  26.470  11.956
18108W        W89834  18.133  32.414   3.640
18109W        W89835   8.550   7.246  14.085
18110W        W89836   8.741   8.154  12.360
18111W        W89837  24.005  26.797  14.885
18112W        W89838  33.692  43.115   9.673
18113W        W89839  35.775  42.649   3.596
18114W        W89840  37.108   7.777  14.925
18115W        W89841  25.201  39.272   3.195
18116W        W89842  42.965   2.010  12.010
18117W        W89843   5.463  38.768  14.306
18118W        W89844  25.202  28.510  13.811
18119W        W89845  36.942  23.999   0.916
18120W        W89846  42.164  41.523   2.454
18121W        W89847  39.641  12.779   1.443
18122W        W89848  22.527  26.197  12.361
18123W        W89849  25.779   6.133  14.044
18124W        W89850  26.198  20.812   3.076
18125W        W89851   5.583   4.919  14.441
18126W        W89852   5.073  38.495   0.519
18127W        W89853  19.488  17.572  13.328
18128W        W89854   8.391  42.802   4.089
18129W        W89855  22.164  33.625  10.869
18130W        W89856  17.074   9.821  11.024
18131W        W89857  11.417  34.821  11.416
18132W        W89858   8.465  12.050   2.565
18133W        W89859  21.812   0.882  11.179
18134W        W89860  21.773   0.459   3.891
18135W        W89861  37.989  34.564   0.347
18136W        W89862   3.247  36.450  14.584
18137W        W89863  31.994   2.859   1.705
18138W        W89864   0.224  44.737  11.941
18139W        W89865  23.451  16.702  11.114
18140W        W89866  26.005   6.785  12.625
18141W        W89867  42.865  11.401   1.327
18142W        W89868  43.435   1.270  13.556
18143W        W89869  21.710   3.535  12.368
18144W        W89870  27.432  31.606   3.631
18145W        W89871  12.401  17.740   4.270
18146W        W89872  19.669  32.312   1.862
18147W        W89873  15.204  19.306   3.908
18148W        W89874  36.470  28.805  11.558
18149W        W89875  25.030   2.900  13.880
18150W        W89876  44.798  22.838   1.303
18151W        W89877  22.994   9.208   0.724
18152W        W89878  22.008   7.309   0.005
18153W        W89879   8.200  27.001  14.865
18154W        W89880  35.594  15.220  13.490
18155W        W89881  40.218  44.279  10.780
18156W        W89882  15.592  21.145   5.004
18157W        W89883   2.866  19.983  12.067
18158W        W89884  18.013  16.600   2.601
18159W        W89885  39.914  29.182   1.339
18160W        W89886  44.378   9.973  12.442
18161W        W89887  32.416  32.035   2.197
18162W        W89888  41.469  27.481   4.787
18163W        W89889  39.410  37.887  11.537
18164W        W89890  21.072  37.964  10.967
18165W        W89891  33.270  41.043   3.261
18166W        W89892   7.729  29.864  10.230
18167W        W89893  37.611  28.059   1.335
18168W        W89894  18.468  13.387   1.314
18169W        W89895  17.830  38.756   0.340
18170W        W89896   6.192  33.575  13.146
18171W        W89897  15.841   8.853   2.760
18172W        W89898  13.607  25.640   0.283
18173W        W89899  42.853  19.188   0.361
18174W        W89900  44.445  35.453  12.366
18175W        W89901   0.285  29.507  12.590
18176W        W89902  35.601  13.533   3.274
18177W        W89903  25.018  37.370  13.945
18178W        W89904  36.873  17.325  14.209
18179W        W89905   3.204  26.556  11.571
18180W        W89906  22.203  34.082   1.383
18181W        W89907  36.738  34.601  13.476
18182W        W89908  13.739  34.356  12.923
18183W        W89909  14.614  30.792  13.063
18184W        W89910  17.373   5.710   3.273
18185W        W89911  39.284  22.516   4.079
18186W        W89912   2.705  22.279   3.257
18187W        W89913  27.378  28.944  13.261
18188W        W89914   5.380  12.012   4.546
18189W        W89915   7.656  29.370   4.238
18190W        W89916  20.956  40.718  12.851
18191W        W89917  23.126   7.452  14.313
18192W        W89918  15.728  12.613   3.159
18193W        W89919  23.892  43.685   2.692
18194W        W89920  39.004  30.399  12.950
18195W        W89921  12.585  28.720   0.388
18196W        W89922  24.002  31.380   0.755
18197W        W89923  24.127  15.196   1.641
18198W        W89924  43.763  23.010   2.701
18199W        W89925  25.478   6.311   1.312
18200W        W89926  11.802  15.853   3.785
18201W        W89927  19.150  23.597   0.832
18202W        W89928  19.302   3.826  14.243
18203W        W89929  11.752  35.122   5.059
18204W        W89930  32.204  29.162   4.190
18205W        W89931  34.470   1.995  11.434
18206W        W89932  38.707  23.745  14.089
18207W        W89933  43.958  38.465   3.989
18208W        W89934  27.601  13.676   4.089
18209W        W89935  38.436  24.079   0.973
18210W        W89936  43.880  30.655  13.305
18211W        W89937  25.154  19.728   4.584
18212W        W89938  25.362  19.112   2.561
18213W        W89939  29.176  36.083   2.835
18214W        W89940  31.908   9.110   2.731
18215W        W89941   3.523  18.680   2.591
18216W        W89942   3.385  41.051   4.114
18217W        W89943  24.953   6.030  14.690
18218W        W89944  22.737  11.396  13.448
18219W        W89945  41.249  11.865   2.508
18220W        W89946  42.065   2.287  12.081
18221W        W89947   6.436  13.605  13.890
18222W        W89948   6.704  44.442   0.587
18223W        W89949  41.011  13.356   1.516
18224W        W89950  18.070   0.289  13.213
18225W        W89951  35.571  21.450  12.009
18226W        W89952  17.300   0.233  14.812
18227W        W89953  30.687  31.855   4.076
18228W        W89954  24.894   1.762   1.814
18229W        W89955  38.366  27.484  12.941
18230W        W89956  21.936   9.164   3.655
18231W        W89957  43.966  37.786  11.164
18232W        W89958   1.403  38.421   3.625
18233W        W89959  34.343  11.091  13.953
18234W        W89960   1.508  40.844  12.707
18235W        W89961  36.769  14.752  11.935
18236W        W89962  14.832  10.808   0.501
18237W        W89963  33.665  19.213   4.546
18238W        W89964  17.227  36.896  10.604
18239W        W89965  25.709  41.008   2.662
18240W        W89966  40.918  44.796  12.462
18241W        W89967  38.984   6.176   2.288
18242W        W89968  16.673  35.639  12.021
18243W        W89969  24.973  43.279  12.972
18244W        W89970  31.864  10.679   4.790
18245W        W89971  29.026   7.785   0.891
18246W        W89972   3.659  27.406  10.679
18247W        W89973  20.112  28.999   3.303
18248W        W89974  18.054  11.092   3.386
18249W        W89975   2.859  42.109  12.889
18250W        W89976  44.048  42.299  10.656
18251W        W89977   6.127  11.165   1.201
18252W        W89978  14.507   6.726   3.970
18253W        W89979  27.541  37.983   2.899
18254W        W89980  21.304  22.782   1.798
18255W        W89981  30.545  14.917  11.422
18256W        W89982   6.233  13.539  11.602
18257W        W89983   8.573  38.520   2.927
18258W        W89984   9.182   8.152   1.310
18259W        W89985  23.823  36.147   4.431
18260W        W89986  30.316   4.337  14.948
18261W        W89987  30.794  31.162   1.857
18262W        W89988  33.719  25.987  13.335
18263W        W89989   3.891  12.130   1.688
18264W        W89990  19.005  43.568  14.439
18265W        W89991  28.914  16.800  14.327
18266W        W89992   8.374  38.583   4.941
18267W        W89993  19.645  11.568  14.950
18268W        W89994  27.509  33.432  12.390
18269W        W89995   4.855  17.149  10.245
18270W        W89996  44.956  17.246  13.180
18271W        W89997  24.666  17.637   2.724
18272W        W89998  32.635  20.814  13.810
18273W        W89999  21.095  43.041   0.380
18274W        W90000  31.516  19.587   1.488
18275W        W90001   3.386   2.394  13.002
18276W        W90002   9.615  30.968  14.454
18277W        W90003  37.818  43.449   2.280
18278W        W90004   2.987  20.963  12.477
18279W        W90005  23.450   0.376  11.079
18280W        W90006   0.074   4.479  11.209
18281W        W90007   9.239  18.664   1.523
18282W        W90008   0.517  18.520  13.969
18283W        W90009  18.276  29.551   1.408
18284W        W90010  13.749  37.923  14.266
18285W        W90011  26.999  27.678  13.145
18286W        W90012   5.851  31.897   3.929
18287W        W90013   5.757   6.284   2.384
18288W        W90014  39.238   4.908  11.064
18289W        W90015  39.422   7.110   3.209
18290W        W90016  25.034  28.072   0.208
18291W        W90017  15.117  33.461  13.448
18292W        W90018  25.239  20.703  11.120
18293W        W90019  18.512  20.028   0.327
18294W        W90020   9.977  19.969  11.693
18295W        W90021  44.998  20.812   4.415
18296W        W90022  23.680  25.670  11.124
18297W        W90023  26.178   0.211  13.531
18298W        W90024  27.818  29.036   2.792
18299W        W90025   3.961  44.366  11.343
18300W        W90026  23.591  29.290  13.666
18301W        W90027  38.552  28.429   1.814
18302W        W90028   6.760  22.486   1.435
18303W        W90029  29.122   8.128  10.699
18304W        W90030  24.984  30.322   3.341
18305W        W90031  41.203  13.285  14.835
18306W        W90032  43.604  14.184   2.313
18307W        W90033   7.388   4.318   1.684
18308W        W90034  36.543  32.074   2.738
18309W        W90035   5.190  27.362   4.536
18310W        W90036  15.298  41.002   1.654
18311W        W90037   3.452   7.664  12.073
18312W        W90038  14.243   8.123   3.275
18313W        W90039   1.294   7.334  11.582
18314W        W90040  38.580  44.744   4.218
18315W        W90041  43.188  22.613   0.422
18316W        W90042  20.111  16.959   2.602
18317W        W90043  27.995  34.882  11.481
18318W        W90044  44.576  42.605  11.251
18319W        W90045  15.306  44.646   0.474
18320W        W90046  28.205  17.183   0.838
18321W        W90047  33.588  40.852   4.641
18322W        W90048  31.954  42.256   0.997
18323W        W90049  33.456  34.911   1.778
18324W        W90050   4.773  44.708  10.836
18325W        W90051   3.033   3.967   4.618
18326W        W90052  13.138  18.131   4.382
18327W        W90053  29.402   1.813   3.133
18328W        W90054  16.694  31.405   0.386
18329W        W90055  14.012   5.360   4.239
18330W        W90056  34.829  37.981   1.352
18331W        W90057  24.001  13.315  12.291
18332W        W90058  41.016  17.155  14.427
18333W        W90059  43.000  33.994  14.007
18334W        W90060  18.725  31.407   0.069
18335W        W90061  33.904  37.787  10.953
18336W        W90062  28.563   4.980   3.134
18337W        W90063  13.128   1.835   1.729
18338W        W90064  13.692   3.817  11.157
18339W        W90065  34.879  14.205  14.240
18340W        W90066  17.254  12.273  14.742
18341W        W90067   0.857  38.586  13.993
18342W        W90068   0.163  16.820  13.837
18343W        W90069  37.858  42.933  13.508
18344W        W90070  15.799  27.851   1.505
18345W        W90071  44.180   4.737  14.349
18346W        W90072  14.846  16.541   0.464
18347W        W90073  42.300  14.654   2.490
18348W        W90074  27.432  14.126   2.699
18349W        W90075  41.489  26.192   4.133
18350W        W90076  18.735   9.235  14.900
18351W        W90077  42.081  26.823  11.981
18352W        W90078  41.633  11.597  14.370
18353W        W90079  27.372  43.890  10.162
18354W        W90080  18.952  16.338   0.024
18355W        W90081  32.390   8.821   1.751
18356W        W90082  37.891   8.769   2.902
18357W        W90083  35.030  35.120   3.598
18358W        W90084   9.208  41.100  13.462
18359W        W90085  24.415  16.732  12.565
18360W        W90086  34.549  19.361   0.191
18361W        W90087  20.304  33.650   1.438
18362W        W90088  19.748  40.784  12.431
18363W        W90089  36.387  26.544   3.074
18364W        W90090  26.896  13.392  12.618
18365W        W90091   0.950  26.815  11.246
18366W        W90092  43.374  18.990   3.195
18367W        W90093  16.698  43.268  10.484
18368W        W90094  10.255   8.819   1.282
18369W        W90095   8.329  19.582  14.088
18370W        W90096  25.251  11.977   0.832
18371W        W90097  15.720  16.224  11.712
18372W        W90098  17.012  31.810   4.214
18373W        W90099   8.009  43.751  13.372
18374W        W90100  12.690  14.535   4.246
18375W        W90101  25.943  43.031   3.312
18376W        W90102  13.609  31.360   2.159
18377W        W90103   5.768  13.695  12.845
18378W        W90104   2.301  18.706   0.507
18379W        W90105  18.674   1.020   4.097
18380W        W90106   6.050   3.334   1.465
18381W        W90107   2.101  28.698  12.854
18382W        W90108  12.797  25.230  13.296
18383W        W90109   1.928  31.374  11.379
18384W        W90110  42.059  16.370  13.023
18385W        W90111  13.686  29.981   1.873
18386W        W90112  32.208  33.155   0.726
18387W        W90113  41.103   7.793  11.364
18388W        W90114  34.395  34.421   4.452
18389W        W90115   5.229  25.066   0.291
18390W        W90116  31.408   7.396  14.427
18391W        W90117  14.369  17.031  10.576
18392W        W90118  19.209  28.374  11.256
18393W        W90119  17.345   8.679   3.473
18394W        W90120   9.636  23.795  12.379
18395W        W90121  25.006  11.369   3.143
18396W        W90122   3.951   0.699   4.593
18397W        W90123  11.854   3.604  10.385
18398W        W90124  34.361  38.577  13.808
18399W        W90125  14.737  31.811  10.521
18400W        W90126   6.875  35.080  11.787
18401W        W90127  36.524   6.253   2.077
18402W        W90128   3.916  30.851  13.226
18403W        W90129   6.975  42.050   4.545
18404W        W90130  33.680  14.692   2.857
18405W        W90131  44.012  39.092   2.619
18406W        W90132  16.836  33.063   2.184
18407W        W90133  41.115   8.732   2.604
18408W        W90134  30.038  10.917   2.233
18409W        W90135  30.987   1.838   2.777
18410W        W90136   6.156  22.047  10.653
18411W        W90137   8.098  23.207  10.296
18412W        W90138  12.139   3.303  10.720
18413W        W90139   0.006  12.617   0.398
18414W        W90140   0.691  15.189  14.095
18415W        W90141  18.626   3.478  14.003
18416W        W90142  24.984   5.146   3.663
18417W        W90143  34.706  15.156   2.397
18418W        W90144   3.223  38.079   0.376
18419W        W90145  11.705  29.645  11.922
18420W        W90146  10.290  27.912   4.688
18421W        W90147   1.240  35.095   1.704
18422W        W90148   0.294  28.756   3.546
18423W        W90149  40.995  18.044  11.994
18424W        W90150  34.712   8.810   0.431
18425W        W90151  40.963  32.588  13.829
18426W        W90152  26.748   7.193   1.725
18427W        W90153  26.671   0.846  12.905
18428W        W90154  44.525  40.007   1.015
18429W        W90155  12.132  29.206   0.475
18430W        W90156  25.688  41.935   3.934
18431W        W90157   3.691  44.196   1.126
18432W        W90158  43.392   3.795  13.960
18433W        W90159  13.180  19.707   1.261
18434W        W90160  39.034  22.797  13.421
18435W        W90161  13.165  38.291   0.369
18436W        W90162  18.537  44.953   0.334
18437W        W90163  33.708  33.040   2.762
18438W        W90164   2.304   2.573   3.142
18439W        W90165  22.524  33.340  14.395
18440W        W90166  16.496  26.223   2.304
18441W        W90167  20.674   5.510   4.094
18442W        W90168  40.343  40.806   4.732
18443W        W90169   1.434  40.384   3.858
18444W        W90170   4.511   0.796   0.144
18445W        W90171  19.769  23.659   0.721
18446W        W90172  39.937  16.628  13.705
18447W        W90173  15.308  32.057  14.738
18448W        W90174  23.603   6.794  14.223
18449W        W90175  30.604  22.749   4.666
18450W        W90176  36.007   7.241  13.774
18451W        W90177   5.204   2.224   2.292
18452W        W90178   6.636  17.233  13.122
18453W        W90179  24.145  34.889  13.484
18454W        W90180  28.974  27.695   0.218
18455W        W90181  42.491  24.804   4.318
18456W        W90182  21.974  42.303  14.919
18457W        W90183  13.842   8.401   2.340
18458W        W90184   6.235  33.319  14.970
18459W        W90185  25.212  33.492  14.956
18460W        W90186  38.527  39.042  10.801
18461W        W90187  10.210  34.677  14.866
18462W        W90188  22.515  17.542   2.875
18463W        W90189  41.028  34.684  11.962
18464W        W90190  33.415  27.684   3.175
18465W        W90191  32.000   8.582   2.612
18466W        W90192   3.140  26.290   2.748
18467W        W90193   3.421  32.907   3.485
18468W        W90194   3.655   9.173  14.474
18469W        W90195  44.431  38.282   4.110
18470W        W90196  40.328  38.961   1.713
18471W        W90197  17.555  11.319   1.466
18472W        W90198  28.332  28.473   3.263
18473W        W90199  42.349  42.621   0.458
18474W        W90200  33.919   9.738   3.484
18475W        W90201   2.440  20.471  14.378
18476W        W90202  28.851  25.671  11.626
18477W        W90203  20.670  32.927  11.468
18478W        W90204   6.870   2.454  13.348
18479W        W90205  36.931  27.721   3.686
18480W        W90206  41.620   9.285  12.565
18481W        W90207  43.093  29.020  11.480
18482W        W90208   0.345  22.026  11.364
18483W        W90209  32.929  43.836  14.804
18484W        W90210  30.434  28.453  12.526
18485W        W90211  41.962  17.894  14.882
18486W        W90212   9.865  36.305   2.638
18487W        W90213  13.321  19.641  12.098
18488W        W90214   6.640   6.287  13.469
18489W        W90215  43.826  22.538   2.491
18490W        W90216   2.923  29.066  11.023
18491W        W90217  27.982   5.414  10.000
18492W        W90218   9.955  21.773  12.306
18493W        W90219  22.481   8.269   0.776
18494W        W90220  35.735  30.508   0.904
18495W        W90221  19.136  25.868   3.823
18496W        W90222  41.355  27.842  14.347
18497W        W90223  39.112  39.501  14.824
18498W        W90224   0.736  29.876   1.344
18499W        W90225  31.015   8.329   2.790
18500W        W90226   0.303  32.718   4.045
18501W        W90227  22.571  15.284   0.211
18502W        W90228   5.294   6.012  14.204
18503W        W90229   8.816   7.449  11.098
18504W        W90230   8.518  12.629  14.292
18505W        W90231  13.391  24.602   0.364
18506W        W90232  20.278  16.442  12.533
18507W        W90233  38.823  27.876   3.830
18508W        W90234  43.816  42.841  11.175
18509W        W90235  27.481  13.610  14.074
18510W        W90236  37.351   3.788   2.724
18511W        W90237  44.097   5.942   4.170
18512W        W90238   9.245  14.671   3.475
18513W        W90239  44.198  15.679   3.662
18514W        W90240  31.118  25.776   4.944
18515W        W90241  15.515  25.665  12.957
18516W        W90242  31.537  30.968   1.163
18517W        W90243  12.659   6.191   2.647
18518W        W90244  18.275  17.759   3.495
18519W        W90245   6.179  14.343   0.838
18520W        W90246   4.650  36.378   1.038
18521W        W90247   6.672  27.156  12.527
18522W        W90248  25.510  17.637  13.907
18523W        W90249  31.374   6.382   3.274
18524W        W90250  37.318   9.194  14.862
18525W        W90251  10.830   9.648  14.018
18526W        W90252  14.771  39.557   4.198
18527W        W90253  22.530  11.722  14.315
18528W        W90254  10.895  36.942  14.414
18529W        W90255  43.759   7.234  11.693
18530W        W90256  34.379   6.481   4.050
18531W        W90257   0.559  43.503   2.397
18532W        W90258  35.937  43.365  11.634
18533W        W90259  19.774  32.910   1.897
18534W        W90260  12.399  32.591  12.019
18535W        W90261  30.102  28.129   4.212
18536W        W90262  15.546  22.458  10.697
18537W        W90263  26.109  38.554   1.277
18538W        W90264   3.927   2.871   1.943
18539W        W90265   5.327   4.208  10.760
18540W        W90266  29.376  28.919  12.070
18541W        W90267  32.189  39.853   0.787
18542W        W90268   9.696  20.225   2.747
18543W        W90269   9.474  18.696   3.258
18544W        W90270  15.940  34.172  12.409
18545W        W90271  14.439   0.921  12.048
18546W        W90272  36.965  19.316   2.952
18547W        W90273  15.142  34.421   2.678
18548W        W90274  28.008  20.861   4.551
18549W        W90275   3.994   5.322  13.153
18550W        W90276  32.101  35.905   3.183
18551W        W90277  29.955   6.832   4.689
18552W        W90278  33.352  11.896   4.414
18553W        W90279  40.296  29.922  13.297
18554W        W90280   4.472  43.280  12.360
18555W        W90281   3.742   0.204   2.147
18556W        W90282  12.509  14.806   3.841
18557W        W90283  18.031   3.489   2.893
18558W        W90284   3.389  36.941  13.356
18559W        W90285  12.344  11.842   0.674
18560W        W90286   7.986  10.767  13.822
18561W        W90287  11.176  24.219   1.556
18562W        W90288  30.581  44.343   2.438
18563W        W90289  29.610  25.232  13.464
18564W        W90290   8.410  37.347  10.563
18565W        W90291   2.961  11.155  11.158
18566W        W90292  30.495   6.453  13.070
18567W        W90293  20.334  16.116   0.932
18568W        W90294   4.896   6.486   0.678
18569W        W90295  29.453  24.409   5.051
18570W        W90296  14.600  24.265   2.812
18571W        W90297  15.135  34.035  11.775
18572W        W90298  41.540  26.659   1.945
18573W        W90299  21.198   5.924   4.741
18574W        W90300  37.749  28.982   4.290
18575W        W90301  42.455  39.384   0.765
18576W        W90302  36.580  26.829   4.988
18577W        W90303  32.585  37.155  13.468
18578W        W90304  15.419  30.038   2.638
18579W        W90305  34.838  10.143   1.487
18580W        W90306  38.631  11.295  12.046
18581W        W90307  34.317  29.928   4.535
18582W        W90308  22.180  16.040  14.266
18583W        W90309  44.736  25.954   3.240
18584W        W90310  23.503  15.147  12.976
18585W        W90311   5.353  17.555  11.061
18586W        W90312   0.497  42.062   1.083
18587W        W90313  18.323  38.277   2.802
18588W        W90314  20.067  39.164   4.008
18589W        W90315   3.121   0.465   0.410
18590W        W90316  30.002  30.800  14.426
18591W        W90317  29.016  14.508  14.917
18592W        W90318   3.564  15.274  12.956
18593W        W90319  16.577  19.171  12.589
18594W        W90320   4.120   1.304   2.429
18595W        W90321  15.351   4.841  10.590
18596W        W90322  31.408   4.205   2.732
18597W        W90323   7.448  26.117  12.979
18598W        W90324   1.227  38.796  11.149
18599W        W90325   4.467   9.265  11.982
18600W        W90326  32.910  30.426   2.559
18601W        W90327   1.214   7.299   0.330
18602W        W90328  31.585  20.988   1.936
18603W        W90329  44.822  30.555  14.773
18604W        W90330  10.162  18.215  12.249
18605W        W90331  35.447  38.919  11.564
18606W        W90332   3.966  20.089   3.687
18607W        W90333  33.902  31.573  10.936
18608W        W90334  33.875  28.450   1.659
18609W        W90335  43.778  36.527   2.500
18610W        W90336  29.012  25.612  13.575
18611W        W90337  23.515  18.045  11.931
18612W        W90338  15.264  11.304   4.966
18613W        W90339   8.658  27.894   3.333
18614W        W90340   4.716  18.726   0.725
18615W        W90341  18.189  19.993  12.455
18616W        W90342  28.111  33.026   0.403
18617W        W90343   9.413   2.536   4.172
18618W        W90344  39.146  38.915   4.559
18619W        W90345  11.030  32.060   3.763
18620W        W90346  20.763  39.070  11.521
18621W        W90347   1.333  44.058  14.103
18622W        W90348   9.272  16.524   3.179
18623W        W90349  25.562  22.614  12.834
18624W        W90350  44.338  24.431   2.764
18625W        W90351   0.305   7.826   1.568
18626W        W90352  39.318   2.781   1.004
18627W        W90353  20.201  43.227  10.440
18628W        W90354  10.375  17.234  11.957
18629W        W90355  13.613  15.117  11.444
18630W        W90356  20.077  20.803  13.419
18631W        W90357  41.999  20.083  13.501
18632W        W90358  30.618  24.620   2.910
18633W        W90359  25.172  12.492   0.803
18634W        W90360  12.434   3.799   3.196
18635W        W90361  13.844  34.463  11.455
18636W        W90362   2.720  16.112   4.675
18637W        W90363  24.652  32.718  11.126
18638W        W90364   2.263  22.835  12.876
18639W        W90365   0.193   6.390   3.348
18640W        W90366  29.436   0.223  11.599
18641W        W90367  24.707  42.341   2.345
18642W        W90368  27.635  13.214  12.074
18643W        W90369  18.611  17.345   3.336
18644W        W90370  44.406  32.509   3.407
18645W        W90371  31.222  33.592  14.228
18646W        W90372  13.211  37.201  11.324
18647W        W90373  19.815  42.058   3.162
18648W        W90374  44.932  43.734   0.492
18649W        W90375   6.315  41.438  13.891
18650W        W90376  39.756   5.131   2.376
18651W        W90377  29.459   8.686   3.537
18652W        W90378  14.003  38.782  14.197
18653W        W90379  44.351  17.104   2.953
18654W        W90380  44.404  27.469   3.180
18655W        W90381  21.447  25.096   0.384
18656W        W90382  27.957  20.061   0.317
18657W        W90383   7.768  10.074  12.874
18658W        W90384  44.564  28.803  14.308
18659W        W90385  18.320  27.526   1.212
18660W        W90386  29.986  41.541  11.112
18661W        W90387  20.978  41.479   1.920
18662W        W90388  19.985  16.069   4.965
18663W        W90389  19.091  36.036  14.701
18664W        W90390  13.605   2.518   1.484
18665W        W90391   3.219   6.080  11.133
18666W        W90392  26.572  25.999  14.291
18667W        W90393   8.187   7.830   1.709
18668W        W90394  12.340  23.050   2.071
18669W        W90395  16.494  13.349   1.330
18670W        W90396  33.889   2.683   2.655
18671W        W90397   6.339   0.320  12.362
18672W        W90398  30.704   3.514   4.043
18673W        W90399  14.393  36.700   3.354
18674W        W90400  44.762  26.560  12.854
18675W        W90401  31.372  20.767  12.218
18676W        W90402  34.395  15.664   1.711
18677W        W90403  18.807  44.597  12.871
18678W        W90404  11.301  13.806   4.399
18679W        W90405   4.830   7.992  10.085
18680W        W90406   1.672  16.499   2.195
18681W        W90407  40.541  11.651   0.958
18682W        W90408  34.077  10.010  10.817
18683W        W90409  25.940  35.213  13.421
18684W        W90410   3.927   0.348  13.488
18685W        W90411  43.983   7.767   0.028
18686W        W90412  12.634   9.132  12.518
18687W        W90413  32.033  23.583   1.989
18688W        W90414   3.568   3.626   2.903
18689W        W90415  41.585  28.639  11.104
18690W        W90416  20.535  30.445   1.224
18691W        W90417  35.340   5.264   2.974
18692W        W90418  17.657  12.099  14.988
18693W        W90419  33.399  36.378   1.665
18694W        W90420  32.809   6.260  10.594
18695W        W90421  26.652  34.881   0.181
18696W        W90422   8.017  38.133  12.515
18697W        W90423  25.514  41.880  12.131
18698W        W90424   7.381  16.566  13.237
18699W        W90425   3.180  41.319  12.830
18700W        W90426  32.438  30.048  12.392
18701W        W90427   5.215  33.490  11.043
18702W        W90428  27.638  24.227   3.303
18703W        W90429   6.344  16.240   4.065
18704W        W90430  38.338  30.508   3.164
18705W        W90431  33.415   8.452  10.788
18706W        W90432  38.827  24.184   0.605
18707W        W90433  30.704   7.264   4.189
18708W        W90434  44.097  26.543  14.545
18709W        W90435  10.396   1.277   1.456
18710W        W90436  42.805  13.770  14.227
18711W        W90437   8.121  39.009  13.408
18712W        W90438  18.151  28.037  11.985
18713W        W90439  30.923   9.815   1.295
18714W        W90440  38.518  23.731   1.341
18715W        W90441  38.963  10.087   0.818
18716W        W90442  42.997  31.984   4.527
18717W        W90443  23.616  42.169   0.389
18718W        W90444  34.060   6.935  13.421
18719W        W90445   3.535  30.845   0.469
18720W        W90446  25.955  17.983  12.108
18721W        W90447  39.477  39.860  14.971
18722W        W90448  13.911   7.366   2.702
18723W        W90449  44.918   5.367   0.862
18724W        W90450  26.809  19.214  13.843
18725W        W90451  40.534  15.103   3.129
18726W        W90452  27.349  31.986  10.892
18727W        W90453   2.166  38.288  12.240
18728W        W90454  14.272  40.984  10.172
18729W        W90455  23.018  27.896   5.041
18730W        W90456  35.904  42.864   0.711
18731W        W90457  18.985   7.286  14.755
18732W        W90458   7.139  36.831   0.389
18733W        W90459  16.547   3.397  10.986
18734W        W90460   0.878  18.758  14.749
18735W        W90461  38.751  17.540   1.109
18736W        W90462   7.048   1.797   3.487
18737W        W90463  17.179  23.869  11.965
18738W        W90464  16.604   6.271   1.253
18739W        W90465  40.870  12.676  13.884
18740W        W90466   5.777  21.727  10.346
18741W        W90467  10.932  44.962  11.952
18742W        W90468  17.590  18.573   0.750
18743W        W90469  12.283   0.378   1.226
18744W        W90470  44.334  24.501   0.182
18745W        W90471  25.611  32.624  14.290
18746W        W90472   4.897  37.641  10.015
18747W        W90473  29.985  33.942  11.745
18748W        W90474  17.185  24.242   3.782
18749W        W90475   8.864  17.499  10.899
18750W        W90476  30.531   5.462  13.851
18751W        W90477   9.343   7.154  14.823
18752W        W90478  31.549  13.142  13.500
18753W        W90479  43.862  41.359   3.837
18754W        W90480   7.331  43.419   2.303
18755W        W90481   5.694  13.516  11.433
18756W        W90482  31.105  15.812   4.641
18757W        W90483  10.060  19.193   4.259
18758W        W90484  14.327  28.160   1.371
18759W        W90485  34.246  12.424   0.266
18760W        W90486  27.676   2.982   3.517
18761W        W90487   4.228   0.001   2.120
18762W        W90488   4.394   6.448   2.733
18763W        W90489   7.843  12.203   1.265
18764W        W90490  28.675  16.340   3.747
18765W        W90491   0.041   2.810   0.449
18766W        W90492  14.596   6.680   0.185
18767W        W90493  35.373  19.773  12.134
18768W        W90494  18.276  15.183   4.633
18769W        W90495  17.014  32.139   2.732
18770W        W90496  14.719  40.010   5.403
18771W        W90497  33.667   1.765   2.786
18772W        W90498  29.951  26.039   1.310
18773W        W90499  35.116  29.233  11.255
18774W        W90500  24.462  20.132  11.587
18775W        W90501  26.347   7.334   3.663
18776W        W90502  36.665  10.869   3.637
18777W        W90503  42.255  21.859   0.877
18778W        W90504  12.608   6.772   3.150
18779W        W90505  16.733  43.507   2.589
18780W        W90506  26.162  42.475   0.318
18781W        W90507   9.662  23.641   1.783
18782W        W90508  26.444  23.018   0.893
18783W        W90509  24.629  34.330   2.238
18784W        W90510  16.777   4.902   0.038
18785W        W90511  37.487  27.982  10.871
18786W        W90512  12.203  26.969  14.303
18787W        W90513  18.091  30.991   3.559
18788W        W90514  19.476  17.714   0.435
18789W        W90515   2.507  32.447   2.925
18790W        W90516  21.304   2.016   3.744
18791W        W90517  33.893  19.180  12.608
18792W        W90518  16.357  28.000   4.635
18793W        W90519  29.217  33.046  12.112
18794W        W90520   9.587  22.964   4.568
18795W        W90521  43.321   0.105   3.145
18796W        W90522  35.335  17.576   3.205
18797W        W90523   4.941  40.569  11.526
18798W        W90524  41.557  35.273   3.009
18799W        W90525  13.763  30.468   2.583
18800W        W90526   6.141  32.197  12.133
18801W        W90527   3.371   5.585  11.094
18802W        W90528  14.918  25.538  10.766
18803W        W90529  32.996  31.327  12.538
18804W        W90530  35.048  34.142   0.855
18805W        W90531  17.077  43.347  13.813
18806W        W90532  19.879   9.782   2.140
18807W        W90533  41.041  16.146  14.473
18808W        W90534   0.188  19.986  13.126
18809W        W90535  18.362   2.359   1.489
18810W        W90536  37.524  27.293   0.381
18811W        W90537  10.140  39.709   2.927
18812W        W90538  29.288  26.928   3.435
18813W        W90539   6.445  39.001   0.998
18814W        W90540  13.462   1.881   0.796
18815W        W90541  42.390  25.181  13.402
18816W        W90542   9.627   0.231  13.505
18817W        W90543  28.050  20.021   4.533
18818W        W90544   0.313   8.854   3.763
18819W        W90545   4.658   0.797   2.880
18820W        W90546  12.130  43.842  13.102
18821W        W90547  12.110  17.608   1.167
18822W        W90548  37.951   1.745  12.915
18823W        W90549  21.760  43.519   3.240
18824W        W90550   1.804   2.491   4.785
18825W        W90551   8.280  11.647  12.571
18826W        W90552  26.605   4.724  11.157
18827W        W90553  14.551  17.922  12.650
18828W        W90554   7.768   3.880   4.765
18829W        W90555  20.227   5.801  14.508
18830W        W90556  35.668  18.783   3.850
18831W        W90557  21.053  20.423   0.236
18832W        W90558  13.250  14.340   1.472
18833W        W90559  16.991   0.611   2.238
18834W        W90560   4.823  36.604  11.090
18835W        W90561  37.893   5.639  10.409
18836W        W90562  28.141  38.282  11.488
18837W        W90563  23.487  12.027   3.823
18838W        W90564  23.599  30.901   3.900
18839W        W90565  41.908  27.442  13.836
18840W        W90566  41.117  41.619   3.655
18841W        W90567  19.350  37.349   1.844
18842W        W90568  28.019   4.799   0.493
18843W        W90569  36.525  34.971  12.615
18844W        W90570  40.057  39.045  13.955
18845W        W90571   3.346   4.489  14.705
18846W        W90572  43.182   5.804  13.393
18847W        W90573   5.824  11.785  11.068
18848W        W90574  24.677   8.041   3.275
18849W        W90575   3.244  30.493  13.871
18850W        W90576  10.284  22.141   3.300
18851W        W90577  19.391   9.080  11.742
18852W        W90578   8.823  26.646  12.710
18853W        W90579  23.609  44.734   0.928
18854W        W90580  18.699  16.674  14.728
18855W        W90581  25.441   3.012  10.443
18856W        W90582   5.811   8.625   0.431
18857W        W90583  21.677   3.950   2.660
18858W        W90584  33.501   9.800   2.793
18859W        W90585  41.843   7.637   1.407
18860W        W90586  42.499   4.699   4.103
18861W        W90587  18.289  36.459   1.726
18862W        W90588   7.476  13.470   3.683
18863W        W90589  36.586  28.271  11.351
18864W        W90590  29.093  10.578   1.721
18865W        W90591  29.471  34.901  14.019
18866W        W90592   4.840  38.020  12.533
18867W        W90593  41.745  33.011  14.891
18868W        W90594   1.461  28.895   1.721
18869W        W90595   7.849  42.479  14.929
18870W        W90596  43.094  40.477  11.487
18871W        W90597  28.658   5.384   4.280
18872W        W90598  11.379   6.995   2.415
18873W        W90599   3.376  43.346   1.847
18874W        W90600  26.186  34.939   1.150
18875W        W90601  13.847  43.323  11.218
18876W        W90602  21.117  25.309  12.698
18877W        W90603   9.707  25.767   5.598
18878W        W90604   5.693  27.105  13.491
18879W        W90605   6.130  17.097  12.004
18880W        W90606  10.702  21.697  14.045
18881W        W90607   2.684   3.497  11.653
18882W        W90608  12.567  44.272   4.759
18883W        W90609   1.765  23.103   0.099
18884W        W90610  39.616   7.707   4.781
18885W        W90611  41.817  35.992  14.930
18886W        W90612  37.215  40.521   3.662
18887W        W90613  33.043  21.032   3.366
18888W        W90614   7.937  33.872  13.495
18889W        W90615  10.495  25.143  10.662
18890W        W90616  16.835  44.283   4.557
18891W        W90617  25.151  16.253   1.013
18892W        W90618   6.397  18.535  13.286
18893W        W90619  15.649  12.841   2.717
18894W        W90620   7.287  35.694  11.916
18895W        W90621  37.926   7.509  13.506
18896W        W90622   0.979  36.314   4.237
18897W        W90623   3.837  12.438  13.490
18898W        W90624  28.033  40.076  12.910
18899W        W90625  10.896  36.012   2.651
18900W        W90626  37.349  11.842   3.228
18901W        W90627  44.827  38.853   1.359
18902W        W90628  11.673  18.635  14.917
18903W        W90629  34.062  12.149  12.901
18904W        W90630  41.036   6.122  12.779
18905W        W90631  16.783  19.564   2.353
18906W        W90632  13.947   7.943  10.849
18907W        W90633  33.574  33.498   2.935
18908W        W90634   5.787   3.270  10.702
18909W        W90635   0.377  28.609  13.117
18910W        W90636   4.128  24.094  11.846
18911W        W90637  26.538  21.203   2.310
18912W        W90638  11.146  11.432  13.861
18913W        W90639  37.935  26.216   0.885
18914W        W90640  22.136  11.781  13.005
18915W        W90641  42.840  25.709  14.751
18916W        W90642  38.494   1.833  10.772
18917W        W90643  32.458  43.310   1.918
18918W        W90644  36.843  27.339  11.169
18919W        W90645  42.689  40.917  10.780
18920W        W90646  16.746  21.139   0.569
18921W        W90647  40.858   3.294   1.976
18922W        W90648   4.624  32.480   3.769
18923W        W90649  26.478   9.707   4.744
18924W        W90650   6.848   2.185  13.861
18925W        W90651  33.551  21.948   2.247
18926W        W90652  14.626  39.294  13.903
18927W        W90653  40.441  18.565  13.326
18928W        W90654  42.304   9.896   4.266
18929W        W90655  18.172  18.452   2.211
18930W        W90656   0.023   0.781   4.534
18931W        W90657  35.895   2.329  12.130
18932W        W90658  33.026   7.235  12.459
18933W        W90659  44.072  34.835   3.278
18934W        W90660  18.550  44.526  13.375
18935W        W90661  20.124   4.291   1.297
18936W        W90662  44.009  14.342  14.879
18937W        W90663  38.123  35.334   2.887
18938W        W90664   5.329  44.143   3.542
18939W        W90665  22.423   0.022  13.984
18940W        W90666   7.385  20.737   0.381
18941W        W90667  24.758  38.559  11.111
18942W        W90668   1.247   1.288  14.343
18943W        W90669   8.920  25.199  10.076
18944W        W90670  16.616  30.011   4.897
18945W        W90671  36.029  40.752   4.871
18946W        W90672  33.708  42.016  11.318
18947W        W90673   6.568  38.883   2.892
18948W        W90674  20.303  30.655   4.627
18949W        W90675  27.925   2.445   0.870
18950W        W90676  19.757  39.788  14.867
18951W        W90677  17.360  21.391  14.441
18952W        W90678  20.039  38.497  14.892
18953W        W90679  20.758  30.860  11.453
18954W        W90680  10.273  28.930   3.368
18955W        W90681  36.695  25.986   4.004
18956W        W90682  36.850  40.588  12.904
18957W        W90683  32.833   1.721   4.157
18958W        W90684  41.592   7.202   0.014
18959W        W90685  10.136  19.347  11.554
18960W        W90686  44.717  18.148   4.361
18961W        W90687  33.533  18.059   2.749
18962W        W90688  44.022   9.497  11.685
18963W        W90689   4.745  29.944  13.307
18964W        W90690  28.064  31.940  11.180
18965W        W90691   4.155  22.193   3.659
18966W        W90692  26.869  34.513  14.881
18967W        W90693  40.450  11.062   3.754
18968W        W90694  18.833  30.991   1.320
18969W        W90695  42.497  43.879   4.409
18970W        W90696  44.861  44.158  13.169
18971W        W90697  11.882  25.895  11.949
18972W        W90698   9.993   3.520   0.918
18973W        W90699   5.263  30.026  13.446
18974W        W90700   3.897  26.005  13.829
18975W        W90701  44.689  15.524  13.550
18976W        W90702  37.029  42.821   1.856
18977W        W90703  43.898  39.550   1.729
18978W        W90704  42.301  31.209   4.395
18979W        W90705  38.887  29.857  12.929
18980W        W90706  30.859  14.295   2.476
18981W        W90707  13.452  31.656  12.087
18982W        W90708  25.486  43.728   5.022
18983W        W90709  27.653  10.749  14.826
18984W        W90710  36.978   6.311  10.919
18985W        W90711  13.134  31.130  10.952
18986W        W90712  23.204  29.478  12.443
18987W        W90713  19.206  28.637  12.169
18988W        W90714  38.368  11.149  13.508
18989W        W90715  21.698  15.873   1.215
18990W        W90716  18.786  28.015   5.140
18991W        W90717  31.154  10.272   1.269
18992W        W90718  36.442  20.380  11.592
18993W        W90719  18.753  13.412  12.038
18994W        W90720  13.572   2.705   0.516
18995W        W90721  42.935  18.947  13.944
18996W        W90722  15.248   5.271   0.518
18997W        W90723  35.250  35.576   3.568
18998W        W90724   2.744  14.630  14.787
18999W        W90725  43.603  34.099  14.088
19000W        W90726  30.952  26.045   3.753
19001W        W90727  13.600  43.389   0.401
19002W        W90728  21.270   0.465   0.440
19003W        W90729  39.927  41.991   3.262
19004W        W90730   9.193  15.312  12.602
19005W        W90731  43.914  28.584  12.414
19006W        W90732  13.581  42.776  13.007
19007W        W90733  44.344  41.531  12.349
19008W        W90734  14.686  14.014  14.076
19009W        W90735  38.396   6.535  12.547
19010W        W90736   8.828  21.752  14.564
19011W        W90737   4.052   4.168  10.798
19012W        W90738  23.902  40.125  13.485
19013W        W90739  22.772   5.198  14.942
19014W        W90740  32.839  42.854   0.488
19015W        W90741  22.945  24.789   1.667
19016W        W90742   5.250  15.104   4.614
19017W        W90743  32.585  15.756  14.492
19018W        W90744  16.907   8.824  14.375
19019W        W90745  40.799   1.826   0.120
19020W        W90746  18.860  35.901   4.357
19021W        W90747  34.278  25.652  11.750
19022W        W90748  42.935   7.720  11.095
19023W        W90749  29.402  27.007   2.930
19024W        W90750  31.824   6.628   3.387
19025W        W90751  33.326  17.080  12.992
19026W        W90752  11.010  29.021   1.343
19027W        W90753   8.204  39.106   0.367
19028W        W90754  13.685  15.678   2.640
19029W        W90755  29.146   1.294   4.202
19030W        W90756  36.001  32.134  11.507
19031W        W90757   4.144  21.076   2.603
19032W        W90758  31.652  35.348   4.120
19033W        W90759   8.695  12.900   4.016
19034W        W90760   3.005  21.983  13.387
19035W        W90761  20.962  39.388   1.230
19036W        W90762   0.066  28.687  14.527
19037W        W90763  21.195  18.287  10.542
19038W        W90764  38.434  29.261   1.160
19039W        W90765  39.349  28.752   2.185
19040W        W90766  32.586  26.518   0.814
19041W        W90767  14.551  13.586   4.059
19042W        W90768  14.515  24.613   2.442
19043W        W90769  10.728   7.949   1.680
19044W        W90770  21.241  30.885   3.608
19045W        W90771  20.576  10.335  11.340
19046W        W90772  21.483  24.266  14.945
19047W        W90773   1.683  38.448   4.060
19048W        W90774   8.155  21.747  12.840
19049W        W90775  31.177  10.620  14.010
19050W        W90776  18.425  41.481   2.061
19051W        W90777  27.421  37.932  11.264
19052W        W90778  36.797  24.449  11.160
19053W        W90779  38.577   5.784  12.963
19054W        W90780  25.195  22.474   4.119
19055W        W90781  39.299  30.957   0.800
19056W        W90782  20.881  12.276  10.183
19057W        W90783  34.809   8.578   0.881
19058W        W90784   5.145  41.391  14.776
19059W        W90785  33.357   7.009   3.287
19060W        W90786  39.047  10.182   4.140
19061W        W90787   8.380  41.457  11.578
19062W        W90788  39.039  43.855   4.920
19063W        W90789   7.273  33.115   0.757
19064W        W90790  23.019  40.002   2.689
19065W        W90791  44.432  40.498  11.891
19066W        W90792  14.441   4.658   0.175
19067W        W90793  40.054  17.575   4.288
19068W        W90794  18.712  18.074   0.757
19069W        W90795  42.008  20.259   2.563
19070W        W90796  13.659  38.827   4.289
19071W        W90797   5.971  25.103   5.093
19072W        W90798  14.878  35.462  13.493
19073W        W90799  35.770  16.962  14.846
19074W        W90800  40.816  44.351   4.453
19075W        W90801  20.820  31.274   2.853
19076W        W90802  38.811  30.935   0.995
19077W        W90803  40.190  31.566  11.149
19078W        W90804  30.949  38.377   3.742
19079W        W90805   6.372  19.462   9.831
19080W        W90806  40.829  15.098   4.143
19081W        W90807  13.770  36.583   4.719
19082W        W90808   3.260  14.569   4.296
19083W        W90809  12.300  13.774   0.815
19084W        W90810  17.552  38.009   3.718
19085W        W90811  10.340  14.163   2.160
19086W        W90812   9.772  19.003   0.781
19087W        W90813  42.799   7.822   4.433
19088W        W90814  15.681  21.680   0.054
19089W        W90815  40.877  10.137   4.762
19090W        W90816  21.162  14.618   0.396
19091W        W90817  30.283   7.629   4.912
19092W        W90818  19.154  23.278  12.890
19093W        W90819  41.673  12.734  12.979
19094W        W90820  23.076  42.841   3.237
19095W        W90821  29.142  21.564   4.207
19096W        W90822  18.432  26.974  11.251
19097W        W90823  17.520  43.756  11.276
19098W        W90824   9.778  15.300   0.893
19099W        W90825  17.626  26.217  12.862
19100W        W90826  13.830  36.485  14.438
19101W        W90827   5.143  16.064   1.745
19102W        W90828  35.923   0.583  12.025
19103W        W90829   8.815  23.287  12.604
19104W        W90830  24.922   1.293   2.301
19105W        W90831  44.922  37.471   1.947
19106W        W90832  23.120  27.390   1.906
19107W        W90833   8.376   4.832  14.377
19108W        W90834  22.106  14.851  10.986
19109W        W90835  44.847  15.902   2.633
19110W        W90836  12.824  23.209   4.469
19111W        W90837  30.202  18.164   0.868
19112W        W90838   7.067  14.475   1.392
19113W        W90839  29.098  33.894   2.839
19114W        W90840  25.013  10.841  10.712
19115W        W90841  37.644  21.187  14.093
19116W        W90842   9.657  18.092   0.907
19117W        W90843   9.338  35.489  14.708
19118W        W90844   1.061   4.390  11.881
19119W        W90845  23.973  27.004   4.712
19120W        W90846   8.690  12.210  11.969
19121W        W90847  32.051  14.296  13.420
19122W        W90848   3.163  40.986   0.728
19123W        W90849  25.717  24.287   0.346
19124W        W90850  26.455  16.362  11.376
19125W        W90851   0.040  11.666   3.790
19126W        W90852  39.796  24.161   0.235
19127W        W90853  27.881  17.610   0.789
19128W        W90854   0.044   9.758   2.248
19129W        W90855  19.139  23.014   1.141
19130W        W90856  38.072  25.117   3.208
19131W        W90857  29.202  30.729  13.493
19132W        W90858  12.248  43.847  10.474
19133W        W90859  25.013  28.126   3.081
19134W        W90860  22.565   4.915   3.239
19135W        W90861   7.390  33.066   2.736
19136W        W90862  41.728  33.642  12.554
19137W        W90863  39.063  22.395   2.795
19138W        W90864   3.207  37.847   0.838
19139W        W90865  19.726  19.201  10.635
19140W        W90866  39.503   9.873   0.907
19141W        W90867  16.056  35.607   1.799
19142W        W90868  33.949  21.054  12.293
19143W        W90869  21.763  44.333   2.636
19144W        W90870  28.522  19.276   3.220
19145W        W90871   6.314  32.855  10.746
19146W        W90872  25.532  23.189  14.912
19147W        W90873   8.371  18.276   4.471
19148W        W90874  22.494  24.232   3.113
19149W        W90875   8.529  17.828   2.451
19150W        W90876  16.005  25.646  14.462
19151W        W90877  33.353  23.667   1.054
19152W        W90878  22.603  37.676  14.282
19153W        W90879  35.800  17.957  11.953
19154W        W90880  27.444  40.461   4.641
19155W        W90881  32.021  25.111  11.339
19156W        W90882   2.850  13.681  12.098
19157W        W90883  44.183  39.314  13.098
19158W        W90884   6.212   1.237   0.772
19159W        W90885   0.354  30.950   1.704
19160W        W90886  25.174  15.857   1.387
19161W        W90887  22.288  26.194   4.457
19162W        W90888  30.975  44.426   0.667
19163W        W90889  25.445   8.737   3.341
19164W        W90890  17.312  30.559   4.710
19165W        W90891  31.864  15.916   4.197
19166W        W90892  26.832   6.173   4.455
19167W        W90893  44.012  34.376  14.834
19168W        W90894  10.211  15.229  13.144
19169W        W90895   4.758  26.287   1.805
19170W        W90896  17.267  21.200  12.658
19171W        W90897  31.590  38.693  13.557
19172W        W90898  25.030  43.994   3.282
19173W        W90899  13.662  25.099  11.596
19174W        W90900  39.102  18.280   5.065
19175W        W90901   4.836   4.206   4.135
19176W        W90902   9.696   7.945  11.106
19177W        W90903  16.189  10.675  11.863
19178W        W90904   9.163   0.209   3.282
19179W        W90905  44.550  29.622   3.252
19180W        W90906  28.957  36.739  13.691
19181W        W90907  29.140  36.689  11.906
19182W        W90908  22.206  30.947   3.725
19183W        W90909  42.827  40.334   1.037
19184W        W90910  30.966   6.133   1.763
19185W        W90911  33.902  21.084  10.273
19186W        W90912  11.387  17.724  14.880
19187W        W90913  38.041  15.834   1.703
19188W        W90914  27.867  41.180   0.971
19189W        W90915  26.335  33.163   5.069
19190W        W90916  41.416   8.788   0.807
19191W        W90917   2.143  44.546  13.404
19192W        W90918  20.069  19.056   1.432
19193W        W90919  26.182   0.949   5.076
19194W        W90920  17.275  39.885  11.054
19195W        W90921  44.964  18.025  12.495
19196W        W90922  25.964  14.613   1.332
19197W        W90923  20.010  32.164   2.244
19198W        W90924  16.587  39.025  13.078
19199W        W90925  19.636  37.186   2.254
19200W        W90926  28.795  24.243   4.246
19201W        W90927  16.177  11.312  14.739
19202W        W90928  24.222  22.065   4.087
19203W        W90929  27.624  22.532  10.581
19204W        W90930  35.585  19.704   2.865
19205W        W90931   0.413  22.603   2.393
19206W        W90932  33.412  27.133   1.848
19207W        W90933   6.388   4.265   2.401
19208W        W90934  44.536  11.319  13.454
19209W        W90935  20.650  39.827  14.903
19210W        W90936  34.126  26.672  12.622
19211W        W90937  10.230  43.247   1.002
19212W        W90938  27.667  10.269  11.156
19213W        W90939  38.418   7.921  14.442
19214W        W90940  30.287  24.525   3.326
19215W        W90941  37.346  38.696  11.399
19216W        W90942  20.962  10.307  14.098
19217W        W90943   7.599  42.792   3.658
19218W        W90944  32.483   7.441   4.050
19219W        W90945   4.456  37.538  11.351
19220W        W90946  23.604  40.853  11.668
19221W        W90947  40.990  21.245  12.599
19222W        W90948  23.086  15.546  14.520
19223W        W90949  35.468  28.174  12.918
19224W        W90950  38.528   7.835   2.466
19225W        W90951   3.305  35.692   2.312
19226W        W90952  18.842  36.836  11.948
19227W        W90953  39.575  43.246   2.930
19228W        W90954  13.387   9.634   3.150
19229W        W90955  31.805  16.238   1.970
19230W        W90956  40.912  35.122   3.603
19231W        W90957  15.789   6.163   2.299
19232W        W90958   0.315  36.898   3.600
19233W        W90959  37.271  17.054   1.275
19234W        W90960  33.969  22.603   0.890
19235W        W90961  23.554   2.393   0.828
19236W        W90962  42.532  20.014  13.488
19237W        W90963  36.306  10.843   2.327
19238W        W90964  44.750  26.867   2.315
19239W        W90965  41.794   5.351   1.712
19240W        W90966  16.531  14.788   3.560
19241W        W90967  30.434  31.735   1.102
19242W        W90968  43.684  14.711  14.371
19243W        W90969   7.805  43.038  10.308
19244W        W90970  24.048   5.901  11.672
19245W        W90971  18.297  11.849   0.218
19246W        W90972  30.004  32.133   4.822
19247W        W90973   4.820   3.872  10.101
19248W        W90974  24.797  24.563  13.352
19249W        W90975   9.741  27.001   4.394
19250W        W90976  31.977  39.399  10.849
19251W        W90977   7.259   4.107   4.672
19252W        W90978  39.214   0.639   4.937
19253W        W90979   1.888  26.697  12.150
19254W        W90980  33.129  41.435   3.599
19255W        W90981   3.235  18.992   0.930
19256W        W90982  30.409  31.267   0.251
19257W        W90983  37.877   7.372   0.348
19258W        W90984   9.883   0.265  14.807
19259W        W90985  16.311  33.759   0.791
19260W        W90986  21.806  26.047   4.514
19261W        W90987  27.116  11.486  12.623
19262W        W90988  27.520  16.374  14.872
19263W        W90989  30.463  40.113  12.018
19264W        W90990   0.296  31.335   2.822
19265W        W90991  33.955   2.644  12.926
19266W        W90992  12.071  16.883   4.590
19267W        W90993  24.717  21.784   0.333
19268W        W90994  43.770  12.585  13.418
19269W        W90995   9.857   2.778   3.976
19270W        W90996  41.318  38.555   3.703
19271W        W90997  38.854  26.596  10.978
19272W        W90998  30.841  43.780   4.584
19273W        W90999   8.335  23.593  11.133
19274W        W91000   1.904  17.943  14.948
19275W        W91001  19.151  17.496  14.409
19276W        W91002  41.333  38.519  10.636
19277W        W91003  40.003  39.539  13.776
19278W        W91004  20.227  32.663  10.643
19279W        W91005  30.128  21.927  14.865
19280W        W91006  10.700  37.055   0.912
19281W        W91007  33.123   2.240  14.761
19282W        W91008   1.987   1.000   4.159
19283W        W91009   7.456  29.458  14.958
19284W        W91010  27.300  20.842  10.437
19285W        W91011  43.997  42.751   0.853
19286W        W91012  35.797  23.989   1.847
19287W        W91013  15.685  34.343   1.638
19288W        W91014   7.699  22.017   2.379
19289W        W91015   4.493  18.702  13.157
19290W        W91016  39.340  29.642   4.585
19291W        W91017  12.363  16.610  11.689
19292W        W91018  11.189  23.704   2.251
19293W        W91019  36.776  29.916  13.421
19294W        W91020  14.251  36.597  13.115
19295W        W91021  28.539  22.621   0.892
19296W        W91022  22.822   4.806  13.339
19297W        W91023  35.634  42.577   4.164
19298W        W91024  12.131   8.600  12.211
19299W        W91025  36.570  41.860  13.461
19300W        W91026  19.120  11.898  10.750
19301W        W91027  14.655   7.741  11.976
19302W        W91028  17.521   8.138  10.721
19303W        W91029  41.856  41.769   4.403
19304W        W91030  12.275   1.285  12.678
19305W        W91031  16.282  29.897   4.494
19306W        W91032  44.265   1.548   1.760
19307W        W91033   8.187  38.820  11.624
19308W        W91034   7.295  24.808  11.504
19309W        W91035  40.195  35.508  14.943
19310W        W91036  14.171  36.269  11.055
19311W        W91037  36.691   1.387   4.166
19312W        W91038  41.022  33.953  13.836
19313W        W91039  11.541  18.372  11.961
19314W        W91040  40.321  20.470   1.341
19315W        W91041  31.974  15.478   2.491
19316W        W91042  31.983  38.554   3.723
19317W        W91043  24.457   0.307  12.143
19318W        W91044   3.319  10.620   1.226
19319W        W91045  16.665  38.462   3.900
19320W        W91046  19.593  27.683   4.050
19321W        W91047   1.456  25.949  11.983
19322W        W91048  13.124   4.215  12.476
19323W        W91049  11.390  36.009   0.718
19324W        W91050  14.342  15.313  11.959
19325W        W91051  24.226  39.718  13.504
19326W        W91052  21.693  15.212  11.985
19327W        W91053  31.606  11.862  14.014
19328W        W91054  11.435  35.055   0.812
19329W        W91055  20.152  34.859   1.025
19330W        W91056  43.030   2.988  13.971
19331W        W91057   9.157  28.774   1.838
19332W        W91058  32.938  22.750   4.153
19333W        W91059  36.401  35.077   4.092
19334W        W91060  24.925  35.137   0.268
19335W        W91061  22.805   4.415   2.256
19336W        W91062  12.990   3.220  12.297
19337W        W91063   5.082  19.148   2.462
19338W        W91064  27.673  10.701   2.751
19339W        W91065  13.910  15.207   4.172
19340W        W91066  28.884  27.015  12.385
19341W        W91067  16.119  21.149  13.496
19342W        W91068  12.646  32.636   3.693
19343W        W91069   5.639   8.203  12.107
19344W        W91070  26.251  23.270   0.474
19345W        W91071  13.125  16.009  12.279
19346W        W91072  41.741  33.408   2.151
19347W        W91073   0.236  17.807   0.421
19348W        W91074  10.384  31.402   1.536
19349W        W91075  23.794  20.310  12.544
19350W        W91076   9.851  16.859  12.341
19351W        W91077  20.640  10.100   4.578
19352W        W91078  15.853  12.821  13.862
19353W        W91079  19.105  27.054   4.551
19354W        W91080  44.565  35.066   1.085
19355W        W91081  25.652   8.076   0.681
19356W        W91082  21.785  41.820  12.001
19357W        W91083  10.445  28.926  14.023
19358W        W91084  15.829  19.693   4.839
19359W        W91085  27.653   9.604   2.290
19360W        W91086  29.417   1.764  13.302
19361W        W91087  29.171  19.666   4.731
19362W        W91088  12.073  14.216  11.243
19363W        W91089  20.129  42.923   2.418
19364W        W91090  21.010  42.872   1.237
19365W        W91091  33.011  27.935   0.450
19366W        W91092  10.878  21.196  13.958
19367W        W91093  12.540  44.928  10.410
19368W        W91094  38.809   7.696  12.988
19369W        W91095  18.223  20.974  13.386
19370W        W91096  34.610  40.002   4.113
19371W        W91097  10.347   4.978   4.377
19372W        W91098  14.849  16.553  12.676
19373W        W91099   8.496  30.358   1.173
19374W        W91100  35.473   0.459  13.049
19375W        W91101  21.023  44.278  10.530
19376W        W91102  21.180  32.028   0.766
19377W        W91103  36.488  20.186   4.636
19378W        W91104  29.708  11.096   0.353
19379W        W91105   0.355  32.651  12.966
19380W        W91106  39.120   1.143   4.023
19381W        W91107   5.878  38.417  14.421
19382W        W91108  26.151  29.164   2.757
19383W        W91109  13.823   3.371  14.293
19384W        W91110  22.977   8.856  14.453
19385W        W91111  10.249  18.025  10.303
19386W        W91112   2.783  11.116   4.332
19387W        W91113  29.611  27.218   2.282
19388W        W91114  29.988  24.159  10.999
19389W        W91115  29.361  11.885  14.373
19390W        W91116  36.674   2.793  14.847
19391W        W91117  26.355  35.005  10.042
19392W        W91118  25.222  21.993   1.830
19393W        W91119  12.126  41.429   3.954
19394W        W91120  35.965   5.161   1.206
19395W        W91121  13.846  43.428   0.870
19396W        W91122  27.667  25.700  11.088
19397W        W91123  41.924  10.072  12.482
19398W        W91124  18.066  22.274   4.738
19399W        W91125  15.940  30.904   1.581
19400W        W91126  35.032   6.629   1.927
19401W        W91127  38.562  16.813   2.379
19402W        W91128  14.541  33.502  11.130
19403W        W91129   2.169  33.040  11.820
19404W        W91130  14.829  19.400  10.548
19405W        W91131  19.806  26.104  13.481
19406W        W91132   1.959  33.753  14.490
19407W        W91133   8.253   6.206   4.529
19408W        W91134  17.740   3.402   1.835
19409W        W91135  25.050   1.897  14.042
19410W        W91136  27.594  12.827   3.268
19411W        W91137   4.837  15.085  11.677
19412W        W91138  20.722  44.657   3.209
19413W        W91139   5.317  33.277  14.843
19414W        W91140  16.869  17.663  11.257
19415W        W91141  11.748  35.365  14.435
19416W        W91142  11.338  22.790   4.918
19417W        W91143   4.501  11.856  11.830
19418W        W91144  10.288   1.639   3.065
19419W        W91145  28.548  23.541   2.783
19420W        W91146  26.136   9.365  13.029
19421W        W91147  18.537  25.962   1.900
19422W        W91148  27.217  39.446   3.309
19423W        W91149  30.319  16.816   0.330
19424W        W91150  29.208  40.583  14.803
19425W        W91151  11.070  14.891  13.505
19426W        W91152  42.011  24.178   0.762
19427W        W91153  23.583  41.559   1.746
19428W        W91154  26.649  31.978   3.184
19429W        W91155   4.286  26.637   2.289
19430W        W91156  44.742  36.707   1.477
19431W        W91157  24.227  10.217  14.951
19432W        W91158  28.033  42.348   2.838
19433W        W91159   1.731  35.264  14.523
19434W        W91160  42.310  23.139   1.531
19435W        W91161   8.407  22.090  13.432
19436W        W91162  18.530  43.952  13.725
19437W        W91163  20.187  39.358  11.166
19438W        W91164   5.947  30.700   1.547
19439W        W91165  19.372   5.885  14.383
19440W        W91166   9.981  29.603  10.547
19441W        W91167  10.261  41.986  12.333
19442W        W91168  12.653   5.288  11.593
19443W        W91169  43.587   1.858  13.696
19444W        W91170  34.575  28.844  12.047
19445W        W91171  39.543   4.255   2.901
19446W        W91172  15.791  26.176  11.092
19447W        W91173   3.952   7.859   0.327
19448W        W91174  43.821  31.132   0.248
19449W        W91175   3.947  33.639   2.622
19450W        W91176  23.482  33.914  10.593
19451W        W91177  41.518  36.713   3.830
19452W        W91178  15.143  28.937  10.472
19453W        W91179  12.852  35.967   4.320
19454W        W91180  36.830   9.218   0.945
19455W        W91181  27.098  15.390  11.470
19456W        W91182  42.927   0.232   2.815
19457W        W91183  15.854  17.153   1.439
19458W        W91184  37.492  34.542  10.857
19459W        W91185  20.533  42.452   1.362
19460W        W91186  24.323  37.291  11.198
19461W        W91187  42.758  29.388   4.536
19462W        W91188  24.175  19.699  11.538
19463W        W91189  35.606  21.821   3.728
19464W        W91190  32.961   0.950   2.188
19465W        W91191  40.418  22.947   2.365
19466W        W91192  23.529  21.616  14.334
19467W        W91193  44.720  20.987  13.530
19468W        W91194  34.668   3.862   0.347
19469W        W91195  25.026  43.066  10.129
19470W        W91196  43.479  35.691   1.221
19471W        W91197  42.954  22.731   1.408
19472W        W91198   3.779  33.484   4.717
19473W        W91199   7.415   4.253   0.707
19474W        W91200   6.782  37.995   0.998
19475W        W91201  18.549   2.233  11.545
19476W        W91202   4.177  26.218   1.333
19477W        W91203  36.860  21.282  12.585
19478W        W91204   5.883  14.248   3.436
19479W        W91205  13.361  31.441  13.459
19480W        W91206  11.451  16.758  12.442
19481W        W91207   0.898  14.320   4.131
19482W        W91208   0.795  32.651  11.913
19483W        W91209   9.926  11.624  13.574
19484W        W91210  44.498  12.280   4.891
19485W        W91211  10.919  10.889   1.725
19486W        W91212  22.733   5.535  12.065
19487W        W91213  39.924  25.718   4.785
19488W        W91214  37.056   3.238   4.512
19489W        W91215  17.046   1.481   4.103
19490W        W91216   5.216  25.926   2.172
19491W        W91217   6.918  33.787   3.742
19492W        W91218  38.133   8.653   0.835
19493W        W91219  17.964  15.209  14.758
19494W        W91220   2.241  36.070  11.179
19495W        W91221  16.185   6.897  13.074
19496W        W91222  24.376   7.722   0.414
19497W        W91223  11.807  12.149  13.041
19498W        W91224  34.167  28.640   4.194
19499W        W91225  29.640   0.789   0.953
19500W        W91226  38.022  44.859   2.211
19501W        W91227   3.766  31.145   1.901
19502W        W91228   0.443  29.184   4.664
19503W        W91229  40.822  22.088   3.576
19504W        W91230  35.076  27.457   3.127
19505W        W91231  12.925  13.753  12.135
19506W        W91232   5.200  42.507  14.462
19507W        W91233  20.941  10.731  13.808
19508W        W91234  29.757  16.248   4.762
19509W        W91235  20.786  31.625   4.567
19510W        W91236  32.519  17.157  11.114
19511W        W91237  34.949  40.564  12.114
19512W        W91238  28.542  39.045   4.605
19513W        W91239  39.296  19.592  10.680
19514W        W91240  32.350  15.970  12.054
19515W        W91241  15.977   0.791   5.016
19516W        W91242  34.429  44.369   5.564
19517W        W91243  32.022   8.458  14.828
19518W        W91244  37.529   0.988  11.966
19519W        W91245   9.180  39.509  12.495
19520W        W91246   6.184  43.876   4.142
19521W        W91247  12.462  12.354   4.550
19522W        W91248  29.875  26.527  14.291
19523W        W91249  11.715  44.802  13.284
19524W        W91250  42.628  12.561   0.397
19525W        W91251  43.999  17.970   2.565
19526W        W91252   2.186   2.298  10.583
19527W        W91253  32.047   0.729   0.369
19528W        W91254  36.042   6.340  11.387
19529W        W91255  10.824  15.649  14.756
19530W        W91256  10.130   9.473  13.421
19531W        W91257  44.393  10.659  14.572
19532W        W91258  41.302   9.851  13.558
19533W        W91259  33.640  40.423   3.170
19534W        W91260  12.013  13.030  11.557
19535W        W91261  39.535  30.155  12.899
19536W        W91262  42.905   5.338   2.083
19537W        W91263  38.479  30.648   4.223
19538W        W91264  36.907  41.722  11.092
19539W        W91265  40.234  15.263  12.061
19540W        W91266  24.006  38.454  14.948
19541W        W91267  13.849  26.512   1.436
19542W        W91268  31.893  44.510   3.087
19543W        W91269   5.396  20.604   3.247
19544W        W91270  15.835  40.788   3.595
19545W        W91271  22.744  43.650   4.951
19546W        W91272   4.834  15.744   4.991
19547W        W91273   5.214   0.901  10.571
19548W        W91274   3.258  33.668   1.441
19549W        W91275  43.578  44.241   2.857
19550W        W91276   6.752  11.306  11.484
19551W        W91277  32.518  17.191  11.638
19552W        W91278   7.150  42.487  11.447
19553W        W91279   5.123  44.689  14.771
19554W        W91280  23.128  44.906  14.688
19555W        W91281  11.671  39.565   1.035
19556W        W91282  39.307  37.325  14.886
19557W        W91283  35.511   4.384  13.980
19558W        W91284  39.416  19.732   4.133
19559W        W91285  20.585   6.809  14.765
19560W        W91286   4.775  10.416   5.080
19561W        W91287  17.739   8.005   0.528
19562W        W91288   1.022  19.739   4.711
19563W        W91289  25.619   5.183  10.977
19564W        W91290   6.489   3.756  11.144
19565W        W91291  21.046   5.143  14.904
19566W        W91292   4.933  17.844  12.949
19567W        W91293  36.048  37.573   4.617
19568W        W91294  36.272  25.169   0.058
19569W        W91295  25.940  35.452  12.363
19570W        W91296  32.023  16.285  13.928
19571W        W91297  23.204  35.801  12.036
19572W        W91298  33.998  14.622  12.480
19573W        W91299  15.393  37.273  14.352
19574W        W91300  33.427  23.750   2.635
19575W        W91301   0.987   8.335   1.691
19576W        W91302   4.388  21.679  14.117
19577W        W91303  32.552  44.344  14.389
19578W        W91304   0.278  42.506   4.813
19579W        W91305  27.732  20.736  12.565
19580W        W91306  30.169  19.845   1.226
19581W        W91307  32.992  31.149  13.846
19582W        W91308  31.181  32.796  11.507
19583W        W91309  17.256   7.637  14.936
19584W        W91310  39.884   2.746   3.242
19585W        W91311   8.302   2.764   2.271
19586W        W91312  26.286  44.015   2.591
19587W        W91313  14.246  12.374  14.015
19588W        W91314   8.397   6.554   5.551
19589W        W91315  33.919   8.658   4.451
19590W        W91316   6.431  30.382  11.695
19591W        W91317  11.713  42.894   1.497
19592W        W91318   5.402  40.915   3.236
19593W        W91319  25.001  42.120   3.301
19594W        W91320  44.071  39.741  13.856
19595W        W91321  40.106  33.351   4.076
19596W        W91322  44.619  34.939  13.604
19597W        W91323  37.075  42.995  13.789
19598W        W91324   4.070  21.763   1.823
19599W        W91325  10.670  38.563   2.603
19600W        W91326  21.738  17.218   4.528
19601W        W91327  34.116   7.205   2.774
19602W        W91328  34.662  23.017  13.000
19603W        W91329  38.608   6.295   0.401
19604W        W91330  29.048   8.340   3.646
19605W        W91331  43.289  43.511  12.373
19606W        W91332  21.622   1.138  13.897
19607W        W91333  30.682  39.944  11.088
19608W        W91334  21.612  17.772  11.817
19609W        W91335   3.924  13.236  13.941
19610W        W91336  37.860  11.241  10.282
19611W        W91337  20.077  26.528  11.848
19612W        W91338  25.212  25.974  13.140
19613W        W91339  31.868  22.533  12.568
19614W        W91340  20.228  18.242  10.770
19615W        W91341  11.545  24.431  11.243
19616W        W91342  23.186   4.271  12.656
19617W        W91343  12.691  29.072   2.863
19618W        W91344  27.281  14.398  11.528
19619W        W91345   0.345  43.022   0.997
19620W        W91346  18.650  41.507  14.063
19621W        W91347  27.071  12.767   1.353
19622W        W91348   8.367   3.761  10.772
19623W        W91349   9.611  25.644   2.679
19624W        W91350  41.381  28.576  11.924
19625W        W91351  16.673  23.638   3.862
19626W        W91352  39.327  27.982   4.227
19627W        W91353  17.151  24.262  11.113
19628W        W91354  10.752  34.571  14.940
19629W        W91355  31.419   3.307  11.224
19630W        W91356  33.672  10.412   4.552
19631W        W91357  24.039  26.040  14.315
19632W        W91358  33.763   6.158  10.106
19633W        W91359  13.668  38.867  13.639
19634W        W91360  44.902  36.341   2.797
19635W        W91361  19.754  22.944   2.521
19636W        W91362  26.852  41.086  12.879
19637W        W91363  15.327   6.884   0.473
19638W        W91364  26.796  29.071  13.030
19639W        W91365  37.073  43.502  11.033
19640W        W91366  18.916  40.963  11.201
19641W        W91367  41.710  15.307  14.825
19642W        W91368  26.142  28.525   3.695
19643W        W91369  43.254  36.069  11.554
19644W        W91370  40.088  33.310  14.580
19645W        W91371  11.643  41.490   3.765
19646W        W91372   9.667   4.436   4.344
19647W        W91373   7.166  29.120   2.195
19648W        W91374   9.100   7.889  14.243
19649W        W91375  37.537   8.249  12.360
19650W        W91376  13.306  18.555  11.666
19651W        W91377  42.417  27.659  13.982
19652W        W91378  29.946  27.954  13.073
19653W        W91379  30.687  40.284  14.663
19654W        W91380  18.124  34.927   2.817
19655W        W91381  15.251   3.353   0.407
19656W        W91382  30.121  19.769  14.353
19657W        W91383  24.596  27.858   1.844
19658W        W91384  19.167  32.597   0.995
19659W        W91385  40.101  13.439  11.513
19660W        W91386  15.160  40.000  12.888
19661W        W91387  38.510   7.626  10.626
19662W        W91388  32.060  44.419  14.063
19663W        W91389  23.659  23.022   2.247
19664W        W91390  30.686  43.052  13.966
19665W        W91391   0.309   5.180   1.158
19666W        W91392  15.824  31.994   2.221
19667W        W91393  30.026  18.397   4.584
19668W        W91394  19.699  29.132  13.485
19669W        W91395  29.433  31.153   1.834
19670W        W91396  27.879   0.836   3.387
19671W        W91397  27.453  32.040   5.005
19672W        W91398   1.753  23.659  11.348
19673W        W91399   3.280  27.892   1.055
19674W        W91400  27.693  14.574  13.108
19675W        W91401  23.240  30.418   1.370
19676W        W91402   6.110  22.613   3.296
19677W        W91403  12.266   3.728  14.286
19678W        W91404  12.925  40.553   1.377
19679W        W91405  19.191  14.646  14.526
19680W        W91406   4.896   8.044   3.171
19681W        W91407  12.947  27.564  12.138
19682W        W91408  24.095  41.366   2.403
19683W        W91409  44.033  41.931  11.022
19684W        W91410  15.598  30.502   2.852
19685W        W91411  15.098  13.182  12.559
19686W        W91412  28.491  41.872   3.788
19687W        W91413   9.079  33.187   0.672
19688W        W91414  40.680  27.444  14.989
19689W        W91415  10.884  29.629  10.645
19690W        W91416  32.839   5.467  12.062
19691W        W91417   7.963  15.163  10.484
19692W        W91418  19.312   7.265  14.299
19693W        W91419  12.654  14.151   0.721
19694W        W91420   5.686  28.233   3.163
19695W        W91421  16.577  29.167   3.379
19696W        W91422   5.115  35.649   1.287
19697W        W91423  31.189  43.420  12.636
19698W        W91424  16.728  12.765  11.589
19699W        W91425   9.145   8.284   4.301
19700W        W91426  20.101  24.964  12.177
19701W        W91427  18.145   3.317   0.482
19702W        W91428  33.308  21.575  12.022
19703W        W91429   9.205   2.736   2.635
19704W        W91430   3.734  21.141   1.814
19705W        W91431   0.441  13.765   2.882
19706W        W91432  30.447  31.685  14.481
19707W        W91433   2.273  24.123  11.601
19708W        W91434   2.851  12.211   3.414
19709W        W91435  37.868  33.621   0.565
19710W        W91436  19.794  36.979   3.216
19711W        W91437  37.008  21.104   1.429
19712W        W91438  44.439  35.817   2.443
19713W        W91439  42.200  41.076   1.930
19714W        W91440  41.970  30.363   4.627
19715W        W91441  43.286  35.195  11.108
19716W        W91442  12.583  21.694  12.870
19717W        W91443   8.744  40.917   1.833
19718W        W91444  26.640   5.557  12.422
19719W        W91445   9.709  14.555  12.985
19720W        W91446  31.695  15.671   1.205
19721W        W91447   9.591  36.427  14.853
19722W        W91448  33.962  19.309   0.595
19723W        W91449  24.370  22.525   3.920
19724W        W91450  39.391   0.934   0.003
19725W        W91451  38.464  42.082  11.751
19726W        W91452  31.493   9.721   4.795
19727W        W91453  18.870  30.607   2.583
19728W        W91454   8.658   8.827  10.746
19729W        W91455  18.340  12.681  13.950
19730W        W91456   9.666  15.813   4.681
19731W        W91457   7.116   9.198  12.498
19732W        W91458  43.009  34.444  11.726
19733W        W91459  41.273  26.652  14.852
19734W        W91460   3.382  11.657   3.643
19735W        W91461  24.126   5.286   1.225
19736W        W91462   9.947  41.290  13.833
19737W        W91463  15.534  38.431  11.514
19738W        W91464  32.103   3.177  12.819
19739W        W91465   4.587  29.245   3.603
19740W        W91466   3.271  19.573  13.351
19741W        W91467  14.104  21.422  13.331
19742W        W91468  38.795   0.874   3.678
19743W        W91469  13.359   3.548  13.925
19744W        W91470   8.365  43.558   0.484
19745W        W91471  26.849  13.373   4.162
19746W        W91472  12.275  30.524   4.479
19747W        W91473  44.536  28.021   5.226
19748W        W91474   1.140  33.353   0.965
19749W        W91475  34.441  12.216  12.480
19750W        W91476  27.914  23.280   2.309
19751W        W91477  14.647  16.877   2.879
19752W        W91478  33.057  28.672  12.402
19753W        W91479   9.567  44.637  14.686
19754W        W91480  13.291   6.878   1.058
19755W        W91481  19.644  28.162  11.094
19756W        W91482  37.891  16.115   2.156
19757W        W91483  36.608  15.871   2.791
19758W        W91484  31.979  39.553   1.494
19759W        W91485  14.354  40.283  11.507
19760W        W91486  27.650  12.070  13.521
19761W        W91487  38.797  36.431   3.295
19762W        W91488   8.034   4.798  14.961
19763W        W91489   7.327  30.209   2.127
19764W        W91490  13.698  17.343  11.143
19765W        W91491  33.501  44.549  14.084
19766W        W91492  10.405   8.068   0.280
19767W        W91493  15.240  25.505   0.723
19768W        W91494  25.888  38.398  14.579
19769W        W91495  28.991   4.767   2.924
19770W        W91496  32.650  20.827  14.765
19771W        W91497   3.233  24.070  12.991
19772W        W91498  27.433  33.954   1.581
19773W        W91499  32.961  13.110  10.700
19774W        W91500  19.671  38.108  11.802
19775W        W91501  30.928   0.995   0.856
19776W        W91502  36.379   0.771   1.389
19777W        W91503  26.522  17.593  10.835
19778W        W91504  24.969  16.533   0.303
19779W        W91505   2.676  33.086  13.782
19780W        W91506   9.880  36.520   9.836
19781W        W91507  10.598  44.538   0.466
19782W        W91508  22.940  37.979   0.983
19783W        W91509  20.741  41.880  14.785
19784W        W91510  35.990  18.237  14.639
19785W        W91511  41.382  36.733  14.532
19786W        W91512  27.169  31.652   0.095
19787W        W91513   4.231   9.306   0.392
19788W        W91514  30.643   9.273  13.950
19789W        W91515  38.221  27.211   2.170
19790W        W91516  32.171   3.988   4.594
19791W        W91517  40.281  14.315  12.016
19792W        W91518  43.606   9.302  13.523
19793W        W91519  39.262  41.828  12.860
19794W        W91520  44.165  13.760  12.624
19795W        W91521  36.797  43.353   0.475
19796W        W91522  39.429  31.718  12.999
19797W        W91523  27.903  30.613  14.394
19798W        W91524  36.572  14.251   2.709
19799W        W91525  16.999  38.998  10.949
19800W        W91526  15.659   8.456  11.884
19801W        W91527  14.506  25.796   2.298
19802W        W91528   0.413  44.894  11.019
19803W        W91529  34.902   2.433  11.917
19804W        W91530  18.224  23.066  11.896
19805W        W91531  12.017  21.228  12.024
19806W        W91532  17.685  33.356   0.699
19807W        W91533  23.670   9.281  11.665
19808W        W91534   2.284  16.316   2.868
19809W        W91535  21.151  40.602  11.526
19810W        W91536  36.351  12.417  13.323
19811W        W91537  14.663  41.541  12.471
19812W        W91538  39.570  41.561  12.484
19813W        W91539   2.259  22.373   3.935
19814W        W91540  33.137  28.113  10.902
19815W        W91541  31.039  44.137   5.547
19816W        W91542  32.380  36.101  12.427
19817W        W91543  38.389  17.170   0.310
19818W        W91544  40.775  18.529  14.102
19819W        W91545  19.695  41.824   1.432
19820W        W91546  37.945  33.930  11.943
19821W        W91547  22.047  27.957  10.126
19822W        W91548   5.968   4.203  12.465
19823W        W91549  26.075  16.073  11.601
19824W        W91550  12.882  18.519  14.326
19825W        W91551  16.658  14.320   3.748
19826W        W91552  25.416  36.969  11.615
19827W        W91553  32.494  10.157  10.127
19828W        W91554  16.029  23.597  11.500
19829W        W91555   4.325  16.454   9.886
19830W        W91556  28.734   4.480  13.027
19831W        W91557  42.692  41.751  12.525
19832W        W91558  27.636  27.465   1.523
19833W        W91559  25.674  26.540  10.686
19834W        W91560  22.983  23.524  10.537
19835W        W91561  44.690  20.983  14.488
19836W        W91562  44.793  22.077  11.479
19837W        W91563  17.319  23.516   2.881
19838W        W91564  16.122  36.707   2.891
19839W        W91565   0.696  10.203   4.580
19840W        W91566  29.697  14.270  14.379
19841W        W91567  18.042   6.129   0.400
19842W        W91568  23.639  13.336  10.467
19843W        W91569  36.204  18.052   1.740
19844W        W91570  35.447   5.298   4.467
19845W        W91571  41.298  18.366  13.350
19846W        W91572  24.555  38.962   0.351
19847W        W91573  15.302  21.241   3.416
19848W        W91574  32.547  12.263  14.657
19849W        W91575  11.148  21.954   3.349
19850W        W91576  26.436  12.778   3.260
19851W        W91577  27.405   3.611   0.183
19852W        W91578  12.364   8.347   1.949
19853W        W91579   2.676  10.092   4.930
19854W        W91580  27.830   2.905  12.344
19855W        W91581   5.770  29.969   0.289
19856W        W91582   6.664  19.270   3.146
19857W        W91583   5.107   8.556  12.603
19858W        W91584  36.432  22.087   4.636
19859W        W91585  16.741   3.412  12.427
19860W        W91586  37.919  33.774  10.615
19861W        W91587  14.931  31.658  10.972
19862W        W91588  12.600  22.801   0.942
19863W        W91589   1.697  38.604  11.327
19864W        W91590  20.245  41.992   2.203
19865W        W91591  28.067  35.633  14.940
19866W        W91592  34.218   2.282   3.307
19867W        W91593  33.641  15.939  12.035
19868W        W91594   5.413   4.652  10.507
19869W        W91595  40.217  40.574  14.968
19870W        W91596   9.861  33.663   3.204
19871W        W91597  16.776  13.792   3.751
19872W        W91598   1.805  14.883  10.448
19873W        W91599  33.109  32.414  12.544
19874W        W91600   1.425  19.709   0.875
19875W        W91601  27.696  16.802   1.725
19876W        W91602   2.486   5.302   3.275
19877W        W91603  22.047  14.326   3.418
19878W        W91604  21.760  13.249   1.848
19879W        W91605  32.359   4.981   3.095
19880W        W91606  17.131  27.519  13.355
19881W        W91607  30.593  10.612  12.867
19882W        W91608  20.286  22.021   4.168
19883W        W91609  11.367  25.653   5.546
19884W        W91610  19.717   7.661   5.024
19885W        W91611  28.486  44.727   3.723
19886W        W91612  11.803  42.384  14.947
19887W        W91613  32.363  32.253  11.126
19888W        W91614  42.677   8.568   1.734
19889W        W91615  29.852  27.489  12.203
19890W        W91616  27.539  16.440   4.083
19891W        W91617  30.432   4.757  11.979
19892W        W91618  29.795  37.612   5.055
19893W        W91619   4.256  33.236  14.970
19894W        W91620  33.358  29.919  11.000
19895W        W91621  44.636  16.653  11.111
19896W        W91622  21.831   7.683  13.740
19897W        W91623  33.486  21.248  12.535
19898W        W91624  23.534   3.337   0.209
19899W        W91625  24.258  25.753  10.059
19900W        W91626  33.605   6.908   1.840
19901W        W91627   9.616  12.925  11.184
19902W        W91628  17.384  40.105  12.530
19903W        W91629   3.965  30.582   2.756
19904W        W91630   2.483  22.078  13.355
19905W        W91631  24.643  37.379   1.668
19906W        W91632  26.111   1.124   0.626
19907W        W91633  22.517   1.652   1.997
19908W        W91634  33.688  31.642  12.160
19909W        W91635  11.779  28.681   3.264
19910W        W91636  28.166  32.568   4.691
19911W        W91637  38.757  17.798  10.629
19912W        W91638  31.931  19.583  11.749
19913W        W91639  28.778  13.054   2.678
19914W        W91640  10.611  36.542   0.846
19915W        W91641  37.507  29.028   9.900
19916W        W91642  37.107  36.431  12.372
19917W        W91643  27.016  42.487   4.754
19918W        W91644  31.292  32.399  14.590
19919W        W91645  24.986  19.554  14.007
19920W        W91646   8.170  32.665   0.771
19921W        W91647  37.083  42.660   2.338
19922W        W91648   5.834   5.424  11.869
19923W        W91649  13.600  35.366  12.090
19924W        W91650  37.367  10.341  11.411
19925W        W91651  15.283   3.702  12.581
19926W        W91652   4.318   6.671   1.722
19927W        W91653  22.225  33.964   3.195
19928W        W91654   0.358  41.971  13.985
19929W        W91655   9.409  33.143   2.821
19930W        W91656  11.359  34.534   3.278
19931W        W91657   9.547  35.270   2.760
19932W        W91658  36.815  24.705  13.293
19933W        W91659   8.520  13.813   5.159
19934W        W91660  27.869   6.742  14.262
19935W        W91661  30.371  31.865  10.293
19936W        W91662  34.503  23.763  14.120
19937W        W91663  41.939  16.699   4.762
19938W        W91664  44.878  41.319  13.473
19939W        W91665  21.155  44.950   0.232
19940W        W91666   6.872  43.197   2.246
19941W        W91667  18.266  28.382  13.386
19942W        W91668  41.031  31.095  13.382
19943W        W91669   7.375  19.416   3.059
19944W        W91670  43.801   0.511   3.211
19945W        W91671   6.897  31.820  13.328
19946W        W91672  24.499  43.033  10.472
19947W        W91673  27.768  35.945   3.732
19948W        W91674  30.341   8.660   3.564
19949W        W91675  18.485   0.723   1.718
19950W        W91676  33.188  26.493   2.703
19951W        W91677  44.345   3.438  12.519
19952W        W91678  16.904  23.284  13.099
19953W        W91679   5.735  42.407  14.777
19954W        W91680  20.055   7.269   3.622
19955W        W91681  29.664  28.411   0.208
19956W        W91682   7.411   8.412  12.303
19957W        W91683  42.952  31.517  12.017
19958W        W91684  10.247  34.516   4.594
19959W        W91685   2.515   0.408  13.286
19960W        W91686  39.906  42.268   2.470
19961W        W91687  14.476   3.807  11.542
19962W        W91688  18.464  31.144   2.784
19963W        W91689  12.624  33.070  14.495
19964W        W91690  36.338  29.491  12.045
19965W        W91691  22.298  16.274   3.692
19966W        W91692  25.459  12.374  11.190
19967W        W91693  12.629  26.206  12.420
19968W        W91694  22.037  32.567   1.935
19969W        W91695  27.676  41.884  11.640
19970W        W91696  37.902  25.903   4.258
19971W        W91697   2.574  37.952  12.248
19972W        W91698   0.958  43.948   3.324
19973W        W91699  31.683  31.339  12.344
19974W        W91700   6.950  28.076  11.568
19975W        W91701   8.451  29.490   3.845
19976W        W91702  18.534  38.552   2.348
19977W        W91703  42.849  12.686   0.860
19978W        W91704  11.060  21.514  11.487
19979W        W91705  39.360   4.409  13.776
19980W        W91706  35.770  39.350  13.082
19981W        W91707   7.719  24.958   3.710
19982W        W91708   0.978  25.989   3.659
19983W        W91709  20.228  17.625  14.886
19984W        W91710  22.362  28.021   0.754
19985W        W91711  39.270   1.329  14.241
19986W        W91712  19.747   9.870  11.702
19987W        W91713  35.148  25.917   0.342
19988W        W91714  30.404   6.399  12.554
19989W        W91715   0.972   7.651  14.349
19990W        W91716   7.158  15.359   0.407
19991W        W91717  22.787  23.509  14.813
19992W        W91718  35.860   2.874  11.439
19993W        W91719  16.275  26.297  10.909
19994W        W91720  34.988  36.530   0.392
19995W        W91721  30.025   6.223   2.240
19996W        W91722  38.506  24.087  10.521
19997W        W91723   3.885  27.243   0.485
19998W        W91724  30.316  40.955   4.000
19999W        W91725  29.560  22.732   4.084
20000W        W91726  20.803   9.353  10.693
20001W        W91727  42.737  35.920   0.228
20002W        W91728  25.852  36.585  13.563
20003W        W91729  16.366  11.491   1.832
20004W        W91730  26.601  11.229   4.672
20005W        W91731   7.501  41.965  12.567
20006W        W91732  34.049  17.282   1.843
20007W        W91733  16.627  25.688   0.699
20008W        W91734  43.423  12.215  13.546
20009W        W91735  30.048  21.536  13.555
20010W        W91736   5.266  25.480  14.025
20011W        W91737  32.523  36.135  14.757
20012W        W91738  17.288  14.298  11.648
20013W        W91739  18.257  28.947  11.537
20014W        W91740  25.433  12.659  10.501
20015W        W91741  43.727   0.745  10.612
20016W        W91742  12.552  29.356  11.031
20017W        W91743  13.818  23.678  13.202
20018W        W91744  11.299  24.510   3.176
20019W        W91745  38.003   4.849   1.686
20020W        W91746  25.275  29.635  14.405
20021W        W91747  40.636  27.031  12.011
20022W        W91748  27.930  23.148   0.181
20023W        W91749  34.543  23.120   1.171
20024W        W91750   6.290   1.222  13.045
20025W        W91751  21.122  26.420  14.736
20026W        W91752  40.882  25.876   2.598
20027W        W91753  29.070  13.280  13.361
20028W        W91754  32.056  32.261   5.168
20029W        W91755  11.177  35.517   0.828
20030W        W91756  15.800   5.763  12.045
20031W        W91757  40.701  28.138   0.221
20032W        W91758  31.501  35.693   2.304
20033W        W91759  27.071  36.914  13.341
20034W        W91760   5.480  18.408   1.033
20035W        W91761  15.611  44.702  10.728
20036W        W91762  30.068  26.049   3.990
20037W        W91763   3.257  16.521  11.965
20038W        W91764   6.750  39.792   1.273
20039W        W91765  28.579  25.402  12.655
20040W        W91766  42.977   8.944  11.169
20041W        W91767  42.787  14.226   0.481
20042W        W91768  22.107  21.199   0.299
20043W        W91769   1.692  43.791  13.832
20044W        W91770   8.936  21.071  13.474
20045W        W91771  25.286   4.932   4.530
20046W        W91772   5.894  40.919  10.827
20047W        W91773  19.765  11.175   4.621
20048W        W91774  15.113  39.959   9.980
20049W        W91775  44.345   4.345  13.008
20050W        W91776  12.369  16.728   0.732
20051W        W91777   8.258  12.218   3.048
20052W        W91778  34.517  14.366   1.979
20053W        W91779  33.946  24.445   3.873
20054W        W91780   3.694  11.636   4.128
20055W        W91781  20.696  21.351  12.076
20056W        W91782  35.481   3.995   3.525
20057W        W91783  43.022  30.903  13.288
20058W        W91784  42.331  37.322   3.873
20059W        W91785   3.288  37.804  14.009
20060W        W91786  21.122   1.750  11.660
20061W        W91787  38.598   3.160   5.191
20062W        W91788  43.064  41.916  13.805
20063W        W91789  38.897  42.306  11.523
20064W        W91790  24.074  30.966   4.127
20065W        W91791  19.703   2.302  14.255
20066W        W91792  14.632  38.283  11.583
20067W        W91793  16.022  12.538   0.688
20068W        W91794   7.926   2.025   4.034
20069W        W91795  11.161  27.283   3.181
20070W        W91796  16.788  33.435  14.224
20071W        W91797   0.780   0.529   1.839
20072W        W91798  16.616  23.575   4.394
20073W        W91799   8.716  33.903   0.790
20074W        W91800  38.658  18.228   3.809
20075W        W91801  31.225  35.641  14.835
20076W        W91802  22.028  27.975  11.028
20077W        W91803  35.608  41.906  11.553
20078W        W91804  39.455   2.869  12.609
20079W        W91805  29.178  20.994   3.354
20080W        W91806  29.292  34.052   0.480
20081W        W91807  10.220  12.869  11.525
20082W        W91808  32.923  34.321  12.413
20083W        W91809  23.690   0.609   2.762
20084W        W91810  28.587   5.255  13.894
20085W        W91811   3.308  31.026  12.512
20086W        W91812  40.228  38.371   1.377
20087W        W91813  39.264  37.035  13.481
20088W        W91814  40.416  29.028  12.968
20089W        W91815   4.302  16.514  14.343
20090W        W91816   0.837  44.998  12.176
20091W        W91817   5.343  32.052   4.094
20092W        W91818   2.376  30.703  13.359
20093W        W91819  26.962  13.597  14.863
20094W        W91820  44.690  18.106   1.849
20095W        W91821  29.564   3.150   3.685
20096W        W91822  14.548  32.944   4.237
20097W        W91823  12.813  22.022  10.695
20098W        W91824   5.478  20.271  10.773
20099W        W91825  27.731   4.722   3.660
20100W        W91826  41.254  18.826   4.960
20101W        W91827  19.853  24.106   0.974
20102W        W91828  13.222   4.443   4.450
20103W        W91829  35.533   8.620  13.543
20104W        W91830   2.050  27.509  10.659
20105W        W91831  30.962   2.209  14.331
20106W        W91832  34.630  42.536  11.117
20107W        W91833  18.659   2.741   3.170
20108W        W91834  44.743  11.338  12.595
20109W        W91835  32.113  23.482  12.404
20110W        W91836  33.412   6.209   3.629
20111W        W91837  15.666  24.523  12.401
20112W        W91838   6.691   5.629   3.247
20113W        W91839  11.191   5.853  12.887
20114W        W91840  33.503  23.457  13.078
20115W        W91841  23.200  26.572  11.999
20116W        W91842  20.281   4.393  12.801
20117W        W91843   1.842  30.134   1.707
20118W        W91844  24.174  10.804   3.807
20119W        W91845   7.492  20.787   2.035
20120W        W91846  18.111  32.419   0.485
20121W        W91847   7.748   8.562  11.160
20122W        W91848  38.149  37.327  14.517
20123W        W91849  16.693  28.380  12.568
20124W        W91850  20.031  40.557  13.130
20125W        W91851  12.114   3.086  12.576
20126W        W91852   9.771   9.703   2.364
20127W        W91853  21.766   0.037   1.288
20128W        W91854  19.512  36.087  13.015
20129W        W91855  37.749   4.549  11.141
20130W        W91856   5.026  31.509   2.583
20131W        W91857  31.181  41.378   0.852
20132W        W91858  22.643   4.418   4.430
20133W        W91859  10.249  14.212   4.084
20134W        W91860  41.945  22.436   2.914
20135W        W91861   2.769  27.651   1.931
20136W        W91862  40.887  42.689  14.464
20137W        W91863  31.080  27.586  14.905
20138W        W91864  40.635  26.975   2.231
20139W        W91865  11.976  30.134   4.738
20140W        W91866  32.652   5.936  13.897
20141W        W91867  17.153  22.523   2.627
20142W        W91868  38.040  24.976  10.656
20143W        W91869  17.301  24.713   2.225
20144W        W91870  16.034  31.476  11.926
20145W        W91871  29.478  16.748  13.041
20146W        W91872  29.018  27.491  14.285
20147W        W91873  24.896   8.340   0.750
20148W        W91874  24.700  19.223  12.564
20149W        W91875  15.193   5.256   4.523
20150W        W91876  40.584  36.987  13.836
20151W        W91877  29.964   8.472   0.843
20152W        W91878   6.138  35.643   3.168
20153W        W91879   4.262  34.147  14.524
20154W        W91880  33.168  40.667   4.899
20155W        W91881  21.455  25.517   3.896
20156W        W91882   9.818  28.614  11.228
20157W        W91883  12.803  16.627  14.964
20158W        W91884  16.735  27.316   3.456
20159W        W91885  38.044  41.417  11.623
20160W        W91886  27.146  10.398  13.779
20161W        W91887   9.869  43.537   0.367
20162W        W91888  19.117  28.136  13.491
20163W        W91889  15.469  14.707   4.514
20164W        W91890  30.067  18.372  13.495
20165W        W91891  39.899  20.162   0.029
20166W        W91892   9.180  40.601   4.164
20167W        W91893  33.089   5.544  12.516
20168W        W91894   7.846  26.588  11.521
20169W        W91895   9.575  13.591  10.729
20170W        W91896  37.532  18.599  10.498
20171W        W91897   8.299  20.291   2.846
20172W        W91898  37.498   8.627  10.911
20173W        W91899  39.941   1.466   2.663
20174W        W91900  44.728  31.320  13.407
20175W        W91901   4.483   2.513   2.754
20176W        W91902  12.792  15.543  13.195
20177W        W91903  28.501   6.234   4.071
20178W        W91904  41.356  42.375   4.814
20179W        W91905  40.432  25.897  11.132
20180W        W91906   8.219   1.774  12.542
20181W        W91907  10.358   1.577  10.719
20182W        W91908   3.803  35.624   3.124
20183W        W91909  11.367  10.708   0.404
20184W        W91910   2.304  23.338   4.860
20185W        W91911  30.567  21.683   2.987
20186W        W91912   3.579  37.050  12.017
20187W        W91913  39.391  26.982   4.711
20188W        W91914  28.258  38.453  14.844
20189W        W91915  36.137   5.200  12.002
20190W        W91916  21.799   4.501   0.484
20191W        W91917  32.205  20.244  14.376
20192W        W91918  25.452   3.950   3.750
20193W        W91919  17.319   5.805  10.397
20194W        W91920  22.016  39.424   1.165
20195W        W91921  35.470  10.644  10.723
20196W        W91922  29.925   6.663   2.821
20197W        W91923   0.972   6.307   3.531
20198W        W91924   0.398  26.184   0.873
20199W        W91925  40.784  14.232  14.861
20200W        W91926  22.284  24.585   9.812
20201W        W91927  25.011  33.587   0.432
20202W        W91928  21.249  34.015  14.719
20203W        W91929  19.626   0.822  13.143
20204W        W91930  17.726  38.298  12.371
20205W        W91931  12.874  34.542   4.156
20206W        W91932  44.206  19.125  12.818
20207W        W91933   6.971  42.560   0.358
20208W        W91934  37.405  13.153  11.511
20209W        W91935  21.199  27.979  10.171
20210W        W91936  16.540  38.856  10.715
20211W        W91937  14.290  37.087  12.972
20212W        W91938  23.126  32.236  12.541
20213W        W91939   8.424  20.895   4.573
20214W        W91940  40.930  18.740  13.362
20215W        W91941  39.571  12.836   3.400
20216W        W91942  20.745   9.608   4.713
20217W        W91943   0.698   6.761  11.708
20218W        W91944  34.282  22.655   1.301
20219W        W91945  30.988  18.023  10.313
20220W        W91946  29.128  43.777   0.164
20221W        W91947  21.669  25.580   3.005
20222W        W91948  26.215  21.392   1.341
20223W        W91949  31.041  25.203  13.325
20224W        W91950  20.504  41.452  10.827
20225W        W91951  42.129  38.460   0.313
20226W        W91952  11.901  40.122   4.618
20227W        W91953  21.792  32.956   2.260
20228W        W91954  12.688  26.552  14.672
20229W        W91955  15.678  28.735   4.909
20230W        W91956   2.847  36.162  10.714
20231W        W91957  31.638  25.027   4.909
20232W        W91958   6.591  33.522  10.661
20233W        W91959  27.696  32.141   0.899
20234W        W91960  38.985  33.529   4.129
20235W        W91961  44.250   8.222  14.947
20236W        W91962   0.358  34.922   4.373
20237W        W91963   6.983  25.248  11.125
20238W        W91964  33.798  39.085  14.513
20239W        W91965  14.801  42.969  13.297
20240W        W91966  36.468  41.498   1.512
20241W        W91967  42.934  24.498   4.415
20242W        W91968  12.992   6.209  13.977
20243W        W91969  29.546  11.017  12.116
20244W        W91970  11.352  32.379  13.985
20245W        W91971  18.936  39.760   2.766
20246W        W91972  43.471  37.707  11.164
20247W        W91973  16.790  34.209  12.092
20248W        W91974  28.904  29.562   3.443
20249W        W91975  24.568  12.762  13.936
20250W        W91976   7.810   4.636   5.221
20251W        W91977  31.888  37.587  11.794
20252W        W91978  44.978  11.691   0.683
20253W        W91979  27.603  42.941   3.851
20254W        W91980   0.336  38.529   3.772
20255W        W91981  21.033   9.810  10.789
20256W        W91982   6.517  43.411   3.407
20257W        W91983  28.469  21.337   2.440
20258W        W91984   5.621  29.442  14.149
20259W        W91985  18.859  18.865  14.333
20260W        W91986  30.641   8.532  14.964
20261W        W91987  35.407  39.164   1.513
20262W        W91988   5.772   5.698  14.099
20263W        W91989  32.046  10.420   5.192
20264W        W91990   7.863   2.482   2.255
20265W        W91991  18.151  25.257   4.084
20266W        W91992  34.665  37.375   4.509
20267W        W91993  42.745   5.186   1.622
20268W        W91994   6.716   0.907  12.836
20269W        W91995  29.956  26.034  13.081
20270W        W91996  12.293   0.900   2.893
20271W        W91997  26.773  17.342  12.983
20272W        W91998  19.665  24.098  12.174
20273W        W91999  31.983  12.111   4.054
20274W        W92000  14.186  38.527   9.778
20275W        W92001   8.238   5.781  14.464
20276W        W92002  37.656   8.755  14.141
20277W        W92003  15.649  38.508  14.989
20278W        W92004  10.049  33.379   5.055
20279W        W92005  13.473   3.378  12.406
20280W        W92006  30.344  25.499  11.698
20281W        W92007   4.887   9.359   1.973
20282W        W92008  31.694  17.042  14.085
20283W        W92009  20.593  14.097   5.151
20284W        W92010  11.905  33.027  11.224
20285W        W92011   5.297  22.746   1.327
20286W        W92012  42.578  29.468   2.293
20287W        W92013   2.271  36.472  12.070
20288W        W92014  25.955   0.471   5.062
20289W        W92015  36.020   0.468  14.972
20290W        W92016  40.647  31.608  12.554
20291W        W92017   2.383  40.927   0.398
20292W        W92018  18.312  43.312  12.404
20293W        W92019  42.090   2.430   0.863
20294W        W92020  40.500  43.059  14.495
20295W        W92021  38.823  26.088   2.720
20296W        W92022  15.061  27.420   4.215
20297W        W92023  17.625  38.436   4.610
20298W        W92024   7.179  41.010   3.754
20299W        W92025  41.072  10.849  13.896
20300W        W92026  20.330  31.424   2.755
20301W        W92027  10.238  23.035   5.343
20302W        W92028  31.716   0.458  12.929
20303W        W92029  29.742  15.751   4.932
20304W        W92030   8.900  10.406   4.228
20305W        W92031  10.415  42.072   3.168
20306W        W92032  44.826  16.057   2.125
20307W        W92033   9.170  28.524  14.353
20308W        W92034   5.396  15.200   3.235
20309W        W92035  26.519  26.551   4.473
20310W        W92036  28.512  10.730  14.378
20311W        W92037  10.642  36.423  12.497
20312W        W92038  20.695  31.810   2.931
20313W        W92039  30.473  28.030   4.557
20314W        W92040   5.106  39.896  13.980
20315W        W92041  44.357  23.973   4.598
20316W        W92042   9.871  41.740   0.513
20317W        W92043  42.423  13.220  11.615
20318W        W92044  42.611   4.203   4.253
20319W        W92045   1.145  21.580  13.344
20320W        W92046   8.078  34.807  14.924
20321W        W92047  32.246  40.907   4.935
20322W        W92048  12.547  24.965  12.898
20323W        W92049  19.834  15.628  14.512
20324W        W92050   6.710  25.767   2.615
20325W        W92051  22.931  34.330  13.146
20326W        W92052  44.909   9.807  14.758
20327W        W92053  29.718   7.561   4.963
20328W        W92054   4.849   5.174  10.082
20329W        W92055  10.803  17.018  11.159
20330W        W92056  31.333  44.058  14.407
20331W        W92057  27.093  34.040  14.910
20332W        W92058  13.596  32.677  11.490
20333W        W92059  18.758   7.305  12.180
20334W        W92060  37.402  30.356  11.441
20335W        W92061  27.466  25.403   1.711
20336W        W92062  21.189   1.312  14.226
20337W        W92063  26.619  27.296   0.834
20338W        W92064  23.022  15.680   4.913
20339W        W92065  36.980  33.404  11.208
20340W        W92066  13.529  37.498  12.066
20341W        W92067   8.313  23.962  14.312
20342W        W92068  39.378  28.385   1.349
20343W        W92069   9.690  33.149  14.406
20344W        W92070  14.717  16.216   4.043
20345W        W92071   4.720  26.064   4.062
20346W        W92072  19.814   9.824  12.196
20347W        W92073  30.096  36.827  10.578
20348W        W92074  17.403  27.871   0.539
20349W        W92075   8.282   8.226  12.721
20350W        W92076   4.214  23.519  13.889
20351W        W92077   7.766   5.865   1.211
20352W        W92078  30.984  15.685  12.143
20353W        W92079  34.871  28.531   1.158
20354W        W92080  13.268  36.722  12.017
20355W        W92081  13.524   6.821  13.363
20356W        W92082  22.466   7.734   2.818
20357W        W92083   5.974  12.540  10.682
20358W        W92084  29.923   2.169   3.021
20359W        W92085  41.358  19.859  10.983
20360W        W92086  27.987  32.942   3.875
20361W        W92087  10.164  14.534   0.434
20362W        W92088   0.114   9.071   3.298
20363W        W92089  27.356   3.053  14.977
20364W        W92090  39.961  26.511  13.806
20365W        W92091  42.401  26.171   3.547
20366W        W92092  41.321   1.014   4.617
20367W        W92093  31.146  25.228  14.278
20368W        W92094  27.048  20.608   2.664
20369W        W92095  40.691  16.636   4.137
20370W        W92096  32.476  24.645  14.442
20371W        W92097  28.050  14.769   2.442
20372W        W92098  40.525   4.043   4.141
20373W        W92099  40.302  25.267   3.581
20374W        W92100  33.421  39.120   2.609
20375W        W92101  23.723   9.372   3.313
20376W        W92102  14.237   8.849   1.932
20377W        W92103  44.231   4.420  12.472
20378W        W92104   1.486   1.095   2.677
20379W        W92105  35.167  21.221   4.535
20380W        W92106   7.890  28.728   2.770
20381W        W92107  20.574  22.948   0.961
20382W        W92108   7.683  43.374   0.900
20383W        W92109   2.277   1.889   0.924
20384W        W92110  21.143  22.591  11.135
20385W        W92111  17.212  17.184   1.246
20386W        W92112  11.005  12.054  10.392
20387W        W92113   0.268  33.379  14.302
20388W        W92114  30.482  37.855   3.164
20389W        W92115  16.735  41.138   2.073
20390W        W92116   3.514   7.371  14.255
20391W        W92117   0.127   6.898   3.753
20392W        W92118  15.203  33.515  12.553
20393W        W92119  12.071  31.542   2.228
20394W        W92120   6.255  41.712  13.447
20395W        W92121  20.556  36.569  14.662
20396W        W92122  37.174   2.865  11.097
20397W        W92123  20.693  36.657  13.742
20398W        W92124   0.641  35.860   4.238
20399W        W92125  38.445   8.332  12.437
20400W        W92126  40.081  18.278  10.686
20401W        W92127  16.631  40.388  10.231
20402W        W92128   5.523  24.134  12.186
20403W        W92129   9.617  22.108  12.488
20404W        W92130   0.693  13.119  11.310
20405W        W92131  24.028  25.380   5.351
20406W        W92132   5.147  30.194   2.092
20407W        W92133  11.255   1.823  13.289
20408W        W92134  10.294  29.558  11.332
20409W        W92135   7.742  33.132  14.844
20410W        W92136  26.971  19.107   0.592
20411W        W92137  36.512  31.036   1.421
20412W        W92138  41.810  37.252   3.258
20413W        W92139  39.176   5.348   1.119
20414W        W92140   3.862  37.175   0.931
20415W        W92141  20.842  17.230  12.914
20416W        W92142  38.562  17.854  12.116
20417W        W92143   2.943   5.677  12.127
20418W        W92144  15.718  33.629  14.805
20419W        W92145  27.609  20.707   2.479
20420W        W92146  15.582  14.699   0.651
20421W        W92147  19.213  37.794  12.589
20422W        W92148  18.869   8.149   4.163
20423W        W92149   7.979  31.535   3.290
20424W        W92150   9.795  40.544  14.885
20425W        W92151  26.593  36.518   3.865
20426W        W92152  38.541  34.443   2.191
20427W        W92153  35.651   7.244   1.883
20428W        W92154   5.736  39.798  12.383
20429W        W92155  23.061  35.645   1.203
20430W        W92156  17.751  44.010   2.737
20431W        W92157  37.050   0.730   2.118
20432W        W92158  17.053  31.520   1.620
20433W        W92159   1.427  44.624  13.022
20434W        W92160  41.384   2.688   3.876
20435W        W92161  19.649  17.079  13.234
20436W        W92162   8.067   0.957  10.975
20437W        W92163  22.773   1.071   4.067
20438W        W92164  33.131   3.750   1.309
20439W        W92165   8.108  33.794  12.694
20440W        W92166   1.822   9.810  13.288
20441W        W92167  20.450  43.392   2.351
20442W        W92168  13.714  16.629  14.304
20443W        W92169  35.921  15.754   1.290
20444W        W92170  24.729  31.426  12.502
20445W        W92171  30.446   3.708   1.805
20446W        W92172  13.356  21.924  13.916
20447W        W92173  15.735  21.537   2.222
20448W        W92174   5.340  29.617  12.111
20449W        W92175   7.943   7.232   0.829
20450W        W92176  43.582   8.158   3.508
20451W        W92177   6.460   5.098  13.993
20452W        W92178  26.067  32.934   1.317
20453W        W92179  20.474  14.100   3.776
20454W        W92180  35.491  31.403  13.449
20455W        W92181  43.716  37.647   4.662
20456W        W92182   0.490   5.630  11.273
20457W        W92183  34.100   0.268   1.819
20458W        W92184   9.462  39.500   3.410
20459W        W92185  28.646  18.290   0.925
20460W        W92186   3.814  13.268  10.916
20461W        W92187  44.502  24.467   4.642
20462W        W92188  14.697  34.321  11.882
20463W        W92189  11.740  38.914  14.778
20464W        W92190  42.537   1.823  12.197
20465W        W92191  41.511  24.402  14.889
20466W        W92192   6.987  30.697   0.931
20467W        W92193  35.906  10.346   4.621
20468W        W92194  27.303  12.624   2.867
20469W        W92195  38.511   4.366   0.904
20470W        W92196  26.590  10.693   3.617
20471W        W92197   3.439  41.127  14.456
20472W        W92198  41.023  10.743   0.919
20473W        W92199   1.045  29.059   0.324
20474W        W92200  34.888  36.612  14.087
20475W        W92201   0.025  28.491  13.923
20476W        W92202   6.800   2.745  11.429
20477W        W92203  33.370  15.679  12.385
20478W        W92204  18.534  36.209  12.949
20479W        W92205  25.081   4.753  14.534
20480W        W92206  24.987  31.322  13.124
20481W        W92207  27.555  37.559  10.924
20482W        W92208  36.906  23.929  11.178
20483W        W92209   8.732  19.542   3.740
20484W        W92210  40.720  26.949   0.232
20485W        W92211   8.669  39.278  14.004
20486W        W92212  43.647  12.785   3.245
20487W        W92213   3.969  21.357  14.272
20488W        W92214  24.058  23.911  14.162
20489W        W92215  40.224  26.513  13.369
20490W        W92216  19.475   5.104   4.593
20491W        W92217  27.972  20.013  12.454
20492W        W92218  10.843  39.314   3.394
20493W        W92219   6.308   4.389   3.246
20494W        W92220   6.723   5.501   0.946
20495W        W92221   8.051   8.906   4.095
20496W        W92222  34.514   5.658  14.405
20497W        W92223  23.100   3.439  10.548
20498W        W92224  25.484   5.361   1.744
20499W        W92225  38.925  30.116   0.191
20500W        W92226  29.561  33.892   1.845
20501W        W92227   7.606  18.978   3.187
20502W        W92228  20.248  40.246   1.936
20503W        W92229  15.280   1.307   0.754
20504W        W92230  33.034  29.048   1.676
20505W        W92231  25.284   5.270  10.588
20506W        W92232  19.476  18.669  13.831
20507W        W92233   0.736  32.122   2.098
20508W        W92234  31.885   7.863   1.845
20509W        W92235   9.931  31.226   1.391
20510W        W92236  35.233  32.969  11.579
20511W        W92237  39.019  14.196  12.372
20512W        W92238  44.969  12.110  14.319
20513W        W92239  39.986   7.242  11.942
20514W        W92240   7.489  23.132   2.717
20515W        W92241  16.545  14.744   4.546
20516W        W92242  42.471  14.390   0.871
20517W        W92243  37.197  23.498   1.167
20518W        W92244   2.258  43.536  14.499
20519W        W92245  40.380  19.006  14.413
20520W        W92246  44.534  24.054   4.112
20521W        W92247   6.716   1.929   2.509
20522W        W92248  24.318   0.318   2.350
20523W        W92249  14.908  43.902  14.351
20524W        W92250   6.837  14.335  13.636
20525W        W92251  34.307  10.792   0.417
20526W        W92252  39.380  11.156  12.566
20527W        W92253  16.506  23.695   2.463
20528W        W92254  19.357  42.422   0.985
20529W        W92255  27.892  40.695   1.747
20530W        W92256   2.013  10.953   3.571
20531W        W92257  31.591  12.721  12.559
20532W        W92258   9.400  10.284   2.596
20533W        W92259  42.777  24.406  13.575
20534W        W92260  33.069  43.342   3.808
20535W        W92261   6.145   7.373  13.534
20536W        W92262  18.266  21.549   3.147
20537W        W92263  29.450   0.727  12.587
20538W        W92264  29.133  31.539  11.468
20539W        W92265   1.524  14.646  12.710
20540W        W92266  44.131  37.295   0.856
20541W        W92267  41.956  16.234  13.859
20542W        W92268  41.389  15.411  12.422
20543W        W92269   1.187  19.935  12.602
20544W        W92270  44.394  24.935   1.274
20545W        W92271  17.673  17.578   4.294
20546W        W92272  41.321  41.421   2.487
20547W        W92273  43.675  10.849   3.106
20548W        W92274  42.356  11.663   3.109
20549W        W92275  23.395  30.327   4.309
20550W        W92276   4.407   0.744   4.350
20551W        W92277  34.147  44.858  12.695
20552W        W92278  24.156  42.122   4.739
20553W        W92279  23.199   2.921   4.535
20554W        W92280  36.344  36.812  14.302
20555W        W92281  15.792  25.017  10.642
20556W        W92282  24.641   7.773   2.840
20557W        W92283  28.888  11.249  14.822
20558W        W92284  43.536  29.083   0.329
20559W        W92285   5.634  40.088   3.257
20560W        W92286  37.949  35.678  11.628
20561W        W92287  41.326  20.530   1.424
20562W        W92288  20.963  29.163  14.892
20563W        W92289  19.077  26.136   2.883
20564W        W92290  31.766   8.707   3.047
20565W        W92291   0.324  42.164  11.452
20566W        W92292  13.050  41.108  12.446
20567W        W92293  18.352  17.636   1.950
20568W        W92294   0.642   8.423   9.855
20569W        W92295  38.541  14.494   5.023
20570W        W92296  40.090  29.985  14.851
20571W        W92297  25.731  26.479   1.805
20572W        W92298  44.764   5.741  11.950
20573W        W92299   2.156  33.785   2.223
20574W        W92300  19.784   8.640   1.803
20575W        W92301  15.675  29.404  10.965
20576W        W92302  30.831  36.884   1.842
20577W        W92303  16.761  35.536   4.216
20578W        W92304   8.304  34.537  13.110
20579W        W92305  35.680  30.787  13.845
20580W        W92306  24.324  10.837   4.295
20581W        W92307   7.967  41.735   2.218
20582W        W92308  31.388  25.086   2.866
20583W        W92309  20.039  16.264  10.677
20584W        W92310  25.541  10.107   4.909
20585W        W92311   6.595   7.812   4.628
20586W        W92312  40.051  34.895  11.105
20587W        W92313   8.557  31.483  14.820
20588W        W92314  31.994  11.261  11.143
20589W        W92315  14.071  25.978  13.804
20590W        W92316   8.753  10.775  14.449
20591W        W92317   1.998  19.719   2.614
20592W        W92318   9.737  14.743   4.676
20593W        W92319  42.864  37.920  14.484
20594W        W92320  10.245  18.855   0.503
20595W        W92321   9.162  40.512   3.363
20596W        W92322   2.716  33.849   3.966
20597W        W92323  27.486  24.034  11.271
20598W        W92324  20.743  37.385  10.926
20599W        W92325  17.719  25.739   1.830
20600W        W92326  37.398  15.582  13.501
20601W        W92327  31.622  25.474   3.180
20602W        W92328   2.010  19.198   3.877
20603W        W92329  41.826  15.568   1.004
20604W        W92330  18.267   5.668  13.476
20605W        W92331   3.319   0.971   4.200
20606W        W92332  22.146  31.637  10.731
20607W        W92333  14.565  33.116   2.778
20608W        W92334  16.452  20.313  12.835
20609W        W92335  38.106  32.359   0.706
20610W        W92336  42.884  23.569  11.961
20611W        W92337   9.203   9.226   4.276
20612W        W92338  36.838  26.676  13.147
20613W        W92339  31.657  37.883   1.205
20614W        W92340  40.258  27.289  12.906
20615W        W92341  19.594  22.126   1.396
20616W        W92342   1.888  16.676  13.794
20617W        W92343   3.444  35.975  12.858
20618W        W92344  44.409  25.064   0.774
20619W        W92345   3.185   6.704   0.995
20620W        W92346  31.400  26.175   3.485
20621W        W92347  33.660  17.950   4.155
20622W        W92348   5.244   4.834  10.061
20623W        W92349  14.169  24.538  11.094
20624W        W92350  33.101  24.286   4.205
20625W        W92351  15.076   8.753  12.980
20626W        W92352   4.809   9.246   1.464
20627W        W92353  22.667  44.822   1.274
20628W        W92354  13.428  22.927  12.593
20629W        W92355  26.962  36.922  14.348
20630W        W92356  21.127  38.035   1.127
20631W        W92357  28.351  39.015   0.726
20632W        W92358  32.043  14.448  12.371
20633W        W92359   1.598   0.403  12.522
20634W        W92360   5.215  37.223  13.465
20635W        W92361   0.389  39.399  12.253
20636W        W92362  39.878  38.552  10.812
20637W        W92363  43.074  24.092  11.467
20638W        W92364   2.230  18.140   3.183
20639W        W92365  29.905  22.840  13.919
20640W        W92366  22.733  29.629  11.082
20641W        W92367  25.483  17.369   0.726
20642W        W92368  22.083   9.398  14.422
20643W        W92369  30.943   2.964  14.667
20644W        W92370  26.546  29.949  11.563
20645W        W92371  19.845  18.528  14.181
20646W        W92372  22.017   1.490  13.906
20647W        W92373  40.964  23.766   4.045
20648W        W92374  29.036  11.376   3.633
20649W        W92375   4.649   6.609   5.050
20650W        W92376  14.090   0.785   4.167
20651W        W92377  17.134   4.226   4.562
20652W        W92378  14.660   0.909  12.508
20653W        W92379  21.686  38.440  12.439
20654W        W92380  11.749  37.030  11.726
20655W        W92381  25.620  14.089   2.932
20656W        W92382   9.643   8.703   4.618
20657W        W92383  15.246   6.786   4.824
20658W        W92384  27.219  37.016   0.822
20659W        W92385  11.176   9.283   2.152
20660W        W92386  10.212   3.362  12.742
20661W        W92387  43.614   0.434  11.545
20662W        W92388  38.999  13.630  13.689
20663W        W92389  44.070  18.333  11.484
20664W        W92390  37.893  12.264   2.666
20665W        W92391   6.064  32.420   2.808
20666W        W92392  31.192  17.313  11.504
20667W        W92393  11.055  14.381   2.702
20668W        W92394  41.259  15.185  11.953
20669W        W92395  25.437   3.755  12.507
20670W        W92396  17.641   5.856   1.913
20671W        W92397  15.603   0.229  10.756
20672W        W92398  16.719  40.278   5.645
20673W        W92399  17.086   2.338   3.309
20674W        W92400  40.976   7.672  14.364
20675W        W92401  17.772  40.243  10.585
20676W        W92402  35.832   8.778  12.832
20677W        W92403  42.391  41.340   3.837
20678W        W92404   2.718  31.202   3.459
20679W        W92405  18.065  18.533  14.498
20680W        W92406  36.758  25.823  11.254
20681W        W92407  29.154   7.633  11.988
20682W        W92408  12.869  17.702   4.492
20683W        W92409   9.695  27.450  12.926
20684W        W92410  16.107  33.038   4.180
20685W        W92411  20.123  33.779   4.107
20686W        W92412   5.643   1.486  11.039
20687W        W92413  14.833   5.937   4.215
20688W        W92414  20.809  13.553  11.048
20689W        W92415  35.005  33.114   1.492
20690W        W92416  44.876  38.027  10.670
20691W        W92417  27.528   7.900  14.860
20692W        W92418  20.710  33.243  14.946
20693W        W92419   7.988  20.996  11.695
20694W        W92420  22.555  23.203   4.605
20695W        W92421  26.630  30.517   1.338
20696W        W92422   5.158  31.939  12.902
20697W        W92423   0.474  21.107  11.020
20698W        W92424  25.668  12.633   0.283
20699W        W92425  41.586  34.651   4.666
20700W        W92426  38.355  12.989   0.513
20701W        W92427  42.312  22.010  12.633
20702W        W92428   7.286  39.747  14.494
20703W        W92429  16.564  41.365   0.913
20704W        W92430  24.500  34.632  13.813
20705W        W92431  25.911   5.897   1.903
20706W        W92432  20.268  12.031  11.475
20707W        W92433  11.158  37.833   4.276
20708W        W92434  21.209  18.683  11.790
20709W        W92435   7.875  24.683   4.646
20710W        W92436  13.316  26.494   1.367
20711W        W92437  23.631  19.838  11.644
20712W        W92438  13.775   7.808  13.487
20713W        W92439   5.396  23.160  14.865
20714W        W92440   4.790  42.729   4.151
20715W        W92441  31.069  25.630  10.228
20716W        W92442  22.961  40.953   2.643
20717W        W92443  42.830  34.686   1.687
20718W        W92444  39.398  16.531   2.641
20719W        W92445  17.755   2.946   0.499
20720W        W92446  38.936  40.511   1.813
20721W        W92447  18.972  17.746   4.646
20722W        W92448   3.569  11.327   3.137
20723W        W92449  17.307   9.757  14.526
20724W        W92450  32.680   1.358   1.478
20725W        W92451  18.695  38.751  12.611
20726W        W92452   4.856  39.944  11.158
20727W        W92453  37.853  28.550  14.088
20728W        W92454  24.602  22.983  12.599
20729W        W92455  30.116  13.070   4.370
20730W        W92456   9.132   3.882  13.350
20731W        W92457  39.380  20.155   1.412
20732W        W92458  29.915  43.882   4.837
20733W        W92459   9.909   4.606  12.508
20734W        W92460  13.247  20.026  13.935
20735W        W92461  23.942  13.821  11.568
20736W        W92462   5.930  43.723  10.648
20737W        W92463  32.964  33.677  12.265
20738W        W92464  37.312   6.134   0.937
20739W        W92465  32.441  17.485   2.376
20740W        W92466  16.681   8.321  10.470
20741W        W92467  26.548  43.040  11.204
20742W        W92468  17.628  37.958   2.422
20743W        W92469  21.991   8.910   0.342
20744W        W92470  31.872   3.425   1.399
20745W        W92471  41.797  23.134   1.655
20746W        W92472  21.019  44.433   0.884
20747W        W92473  10.777  25.709  12.525
20748W        W92474  40.915   5.615   0.332
20749W        W92475  40.533  29.459   1.814
20750W        W92476   0.720  26.410  11.606
20751W        W92477  11.387  11.685   2.204
20752W        W92478  10.301  43.291  12.888
20753W        W92479  11.814   3.037  13.573
20754W        W92480  19.689  31.825   3.117
20755W        W92481  18.557  29.293   2.680
20756W        W92482  37.510  25.049  11.527
20757W        W92483  34.079  41.544  12.075
20758W        W92484  14.651   9.623   0.863
20759W        W92485  19.194   1.809   2.877
20760W        W92486   1.752   0.324   0.373
20761W        W92487  37.352  36.157  12.797
20762W        W92488  31.938  39.875  13.369
20763W        W92489  36.403  41.081  12.070
20764W        W92490  10.475  31.992   4.640
20765W        W92491   7.309  12.368   0.414
20766W        W92492  19.978   9.871   1.360
20767W        W92493  19.990  26.770   1.280
20768W        W92494  32.840  26.000   3.607
20769W        W92495   0.026  28.573   3.135
20770W        W92496  38.840  14.131   1.355
20771W        W92497  37.781  25.964  12.479
20772W        W92498   8.092  34.029  14.516
20773W        W92499  34.994  25.584  11.938
20774W        W92500   4.722   6.662  12.264
20775W        W92501  28.150  36.285   3.710
20776W        W92502  29.488  13.801  10.535
20777W        W92503  36.498   2.903   2.434
20778W        W92504   2.373   2.798  10.772
20779W        W92505  25.105  29.146  14.378
20780W        W92506   1.360  40.299  12.049
20781W        W92507   3.670  30.577   4.109
20782W        W92508   9.324  16.230   4.692
20783W        W92509  22.145   7.789   4.709
20784W        W92510  34.160  13.839   0.349
20785W        W92511  29.192  26.606   1.329
20786W        W92512  39.919  31.115   2.452
20787W        W92513  44.004  31.172   3.337
20788W        W92514   9.096  31.794   3.219
20789W        W92515   3.715  35.533   2.628
20790W        W92516  29.835  26.773   5.021
20791W        W92517  27.694  19.180  13.975
20792W        W92518  35.513  23.407   4.162
20793W        W92519  27.030  28.734  14.375
20794W        W92520  44.906   3.575  10.759
20795W        W92521  25.095   4.227   2.166
20796W        W92522  22.511  23.228   1.694
20797W        W92523  21.505  29.234   4.681
20798W        W92524  43.145  27.492  10.934
20799W        W92525  27.739  42.076  11.186
20800W        W92526  32.860  39.748  10.546
20801W        W92527  18.184  42.290   1.512
20802W        W92528  37.949  41.432   2.434
20803W        W92529  14.316  15.778   4.665
20804W        W92530  37.122  28.205   0.243
20805W        W92531  33.487  28.623  12.862
20806W        W92532  24.813   3.179  12.953
20807W        W92533  41.904  35.854   1.809
20808W        W92534   9.360   4.043   4.512
20809W        W92535   6.306   9.678   4.561
20810W        W92536  20.894  14.263  10.510
20811W        W92537  29.195  31.639   0.011
20812W        W92538  32.581  37.895  12.272
20813W        W92539  42.067  16.187  14.361
20814W        W92540   4.471  38.902   4.385
20815W        W92541  21.138   7.697  13.880
20816W        W92542   4.033  18.658  12.925
20817W        W92543  20.086  29.470  13.861
20818W        W92544  10.628  31.503  13.083
20819W        W92545  13.607  22.450  12.499
20820W        W92546  19.552   3.765   2.321
20821W        W92547   4.197  43.200  11.928
20822W        W92548  36.530  23.467  14.440
20823W        W92549   7.380  31.098   1.488
20824W        W92550  20.298  35.996  11.551
20825W        W92551  29.898  10.095  12.944
20826W        W92552  36.403  28.993   4.713
20827W        W92553  14.136  23.091   4.702
20828W        W92554  32.347  17.808   0.824
20829W        W92555   5.438  29.604   4.286
20830W        W92556  43.889  23.669  13.916
20831W        W92557  26.911  26.090   1.454
20832W        W92558  18.930  23.997  11.577
20833W        W92559  29.392   5.684  14.384
20834W        W92560  19.902  11.810  14.046
20835W        W92561  27.271  27.583  13.813
20836W        W92562  31.729  28.209   3.362
20837W        W92563  38.477  34.909  13.356
20838W        W92564  10.312  25.562  10.151
20839W        W92565   3.806  41.986  14.425
20840W        W92566  25.129  29.586  12.720
20841W        W92567  42.280  36.969  10.775
20842W        W92568  40.881  43.725   0.884
20843W        W92569  38.799  10.426   4.638
20844W        W92570  32.096  30.610   3.703
20845W        W92571  43.011  20.464   3.907
20846W        W92572  44.310  22.288  13.492
20847W        W92573  39.492  21.972   4.070
20848W        W92574  35.767  18.276  13.694
20849W        W92575   4.404   3.985  12.879
20850W        W92576  18.511  14.452  14.879
20851W        W92577  13.346  20.510  11.944
20852W        W92578  25.496  32.009  10.724
20853W        W92579  17.180  15.790   2.178
20854W        W92580  39.005   9.542  11.959
20855W        W92581  26.643  24.704   4.041
20856W        W92582  28.716  31.537  13.901
20857W        W92583  39.635  38.777  13.847
20858W        W92584  21.015  29.696  14.405
20859W        W92585  15.353   4.677   3.324
20860W        W92586  13.577   9.688  12.856
20861W        W92587  22.818  34.078   4.103
20862W        W92588  13.552   7.469  13.117
20863W        W92589  14.280  16.150   2.219
20864W        W92590  29.556  23.648  12.304
20865W        W92591  44.179  35.813  12.036
20866W        W92592  29.357  25.185  10.542
20867W        W92593   7.203  25.869   0.017
20868W        W92594  26.540   7.655  11.894
20869W        W92595   4.940   1.447  11.580
20870W        W92596   1.428  15.596  10.764
20871W        W92597  19.920   3.234   3.313
20872W        W92598  23.627  44.028   0.317
20873W        W92599  39.836  18.778   2.810
20874W        W92600   6.378  31.046   1.461
20875W        W92601  42.689  30.916   2.202
20876W        W92602  44.022   1.185  14.856
20877W        W92603  26.607  14.406  10.596
20878W        W92604  44.954  13.790   3.144
20879W        W92605   5.833   1.349   4.557
20880W        W92606  20.894  21.015   3.730
20881W        W92607   8.886  30.677   0.988
20882W        W92608  10.348  34.076   1.824
20883W        W92609  34.351  13.564  11.665
20884W        W92610  32.082  36.916  13.477
20885W        W92611  17.755  12.563  12.743
20886W        W92612  14.117  27.723   2.259
20887W        W92613  42.189  11.731   4.132
20888W        W92614  21.893   2.866   2.686
20889W        W92615  27.570  39.854   0.764
20890W        W92616  25.438  35.835  10.702
20891W        W92617  44.531  23.545  11.430
20892W        W92618  42.550  37.431  11.512
20893W        W92619  18.758  25.737  13.568
20894W        W92620  13.868  12.027   3.197
20895W        W92621  43.756  11.647  14.402
20896W        W92622   4.095  17.530  12.746
20897W        W92623   0.774  34.121  14.755
20898W        W92624  26.098  43.467  13.585
20899W        W92625   7.649   0.539  12.869
20900W        W92626  41.351  23.899  14.851
20901W        W92627   3.687  11.539  13.864
20902W        W92628   0.702  19.245   1.790
20903W        W92629  11.488  38.922  13.077
20904W        W92630   8.322  32.003   4.195
20905W        W92631  16.071   0.300  14.789
20906W        W92632  40.787  21.185   4.113
20907W        W92633  21.841  12.452  10.270
20908W        W92634  23.180   5.634   2.930
20909W        W92635   8.248  42.257  14.022
20910W        W92636  42.450  32.445  12.424
20911W        W92637  29.685   1.175   2.310
20912W        W92638  35.338   3.664  14.351
20913W        W92639  20.989  41.977   2.777
20914W        W92640  15.522   2.605  13.572
20915W        W92641  13.896  16.025   1.020
20916W        W92642  23.762   1.764  12.078
20917W        W92643  40.929  30.631  14.038
20918W        W92644  39.368  33.610  14.797
20919W        W92645   6.430  18.268  12.337
20920W        W92646  11.410  30.863   4.774
20921W        W92647  18.061   8.503  12.029
20922W        W92648  37.100  44.464   2.190
20923W        W92649  35.884   1.010  14.960
20924W        W92650   7.798  30.514  12.079
20925W        W92651  18.871  11.267   1.859
20926W        W92652   2.842  15.998   0.380
20927W        W92653  29.897   6.423  12.426
20928W        W92654  37.245  32.494  12.943
20929W        W92655  33.641  14.094  14.929
20930W        W92656   8.103  25.347   2.806
20931W        W92657  40.423  30.757  13.846
20932W        W92658  25.992   4.201   4.876
20933W        W92659  16.757  30.561   3.645
20934W        W92660  31.967  37.378  10.608
20935W        W92661  23.236  13.777  14.301
20936W        W92662  33.783  39.344   0.812
20937W        W92663  29.864  25.131  13.923
20938W        W92664   0.463  16.424  11.153
20939W        W92665  17.677  43.214   2.312
20940W        W92666   4.727   7.748  12.043
20941W        W92667  25.156  35.950  14.799
20942W        W92668  36.679  36.322   4.552
20943W        W92669   6.865   2.578   1.748
20944W        W92670  44.784  35.061   0.156
20945W        W92671  29.909  17.633  11.388
20946W        W92672  44.290  40.316   0.239
20947W        W92673   5.784  33.888  13.349
20948W        W92674  17.989  19.831  11.925
20949W        W92675  18.593   0.065  11.982
20950W        W92676  32.305  35.909   4.315
20951W        W92677  44.700  12.746  13.528
20952W        W92678  39.036  10.845   1.832
20953W        W92679  11.675  44.337  13.562
20954W        W92680  14.771   4.457  14.706
20955W        W92681   8.461  27.037  12.743
20956W        W92682  27.113  28.785  11.288
20957W        W92683  32.940  12.212   4.444
20958W        W92684  44.842  12.401  13.908
20959W        W92685  14.339   8.593   2.397
20960W        W92686  17.725  26.953  14.954
20961W        W92687  20.099  19.945   1.275
20962W        W92688  34.113  22.217  14.925
20963W        W92689  29.772  13.235   0.868
20964W        W92690  27.215  23.007   1.068
20965W        W92691  21.023   8.154   2.139
20966W        W92692  21.203  37.017  10.428
20967W        W92693   7.723  42.082  12.073
20968W        W92694  31.111  34.866   1.455
20969W        W92695  25.369  10.523  12.034
20970W        W92696   7.710  23.503  12.723
20971W        W92697  42.905  17.078  10.894
20972W        W92698  42.383   1.973  10.739
20973W        W92699  11.777  15.680   2.061
20974W        W92700   0.428  29.671   2.308
20975W        W92701   4.882   0.791  13.907
20976W        W92702   7.374   7.290   1.719
20977W        W92703  13.149  21.021   1.723
20978W        W92704  42.779  38.789  11.651
20979W        W92705  21.072   4.839   3.737
20980W        W92706  33.471  14.020   0.422
20981W        W92707  15.569  39.689   9.970
20982W        W92708  16.313  25.012  10.650
20983W        W92709  32.569  19.678  10.727
20984W        W92710  15.202  24.826  11.134
20985W        W92711  12.757   3.399   3.244
20986W        W92712  34.505  21.990   2.456
20987W        W92713   7.102   8.606  10.512
20988W        W92714   4.454   8.209   2.192
20989W        W92715   4.671  24.181   3.150
20990W        W92716  22.829   7.089  13.541
20991W        W92717   7.909  43.393  14.887
20992W        W92718  29.014  37.103   0.140
20993W        W92719  31.210  41.757  11.102
20994W        W92720   6.364  39.627  14.296
20995W        W92721   7.336  29.709  12.731
20996W        W92722   8.175  10.280  11.202
20997W        W92723  19.085  27.266   2.767
20998W        W92724   3.609   5.086  12.894
20999W        W92725  21.034  43.863   3.934
21000W        W92726  31.226  43.435   5.067
21001W        W92727  20.680  33.447   4.904
21002W        W92728  21.282  36.910   4.394
21003W        W92729  38.393  44.216  12.607
21004W        W92730  31.655   6.237  12.111
21005W        W92731   0.232  22.215  11.837
21006W        W92732  28.149  22.739  10.580
21007W        W92733  32.358  16.706   1.735
21008W        W92734  17.663  22.608  11.641
21009W        W92735  39.323  21.144   4.167
21010W        W92736  36.849  25.225   4.929
21011W        W92737  32.821  28.095   0.907
21012W        W92738  16.634   8.949   1.366
21013W        W92739  21.094  32.633   1.299
21014W        W92740  12.747  33.166  13.981
21015W        W92741   6.881  23.984  12.571
21016W        W92742  26.201  35.647  11.530
21017W        W92743  16.078   4.334  13.527
21018W        W92744  41.835   7.659  14.945
21019W        W92745  35.760  17.762   2.830
21020W        W92746  35.893  39.478   4.665
21021W        W92747  10.000  13.381  12.406
21022W        W92748  21.718  16.814   1.917
21023W        W92749  37.819  16.395  13.450
21024W        W92750   0.213  11.668  10.873
21025W        W92751  15.054  34.494   0.845
21026W        W92752  31.452  23.921  11.470
21027W        W92753  44.391  39.001   2.956
21028W        W92754  30.856  15.809   4.189
21029W        W92755   0.444   7.249  14.874
21030W        W92756  35.147  18.660  12.469
21031W        W92757  22.285  12.871   4.309
21032W        W92758  44.858  29.101  10.759
21033W        W92759  20.974   4.753   0.744
21034W        W92760  11.588   0.320  13.457
21035W        W92761  20.850  39.543  10.593
21036W        W92762  20.487  16.262   0.055
21037W        W92763  39.921   4.373  12.964
21038W        W92764  37.318  28.345  11.494
21039W        W92765  36.649  27.998   4.540
21040W        W92766   2.732  36.065   4.085
21041W        W92767  35.909  29.084   0.408
21042W        W92768  25.965  24.548  14.819
21043W        W92769   2.302  21.487   3.884
21044W        W92770  41.818   2.293  10.767
21045W        W92771  22.046   2.596  11.636
21046W        W92772  32.908  16.546   1.229
21047W        W92773  42.497   1.872   1.410
21048W        W92774  17.704  21.203  13.557
21049W        W92775  21.834  23.827   3.559
21050W        W92776  18.826   8.971  12.467
21051W        W92777   5.408   3.853  13.036
21052W        W92778   9.196  39.405   2.454
21053W        W92779  11.393  41.759   1.996
21054W        W92780  38.756  28.493  11.228
21055W        W92781  28.461  14.650  11.536
21056W        W92782  37.598  42.413  13.269
21057W        W92783  11.584  22.713   4.078
21058W        W92784  37.433   5.179  13.424
21059W        W92785   8.219  35.105  13.797
21060W        W92786  23.940  37.836   2.833
21061W        W92787  33.890  37.904   1.305
21062W        W92788  23.985  16.604  12.813
21063W        W92789  33.902  26.879  11.221
21064W        W92790  41.798  15.062  12.678
21065W        W92791  13.118  23.604  12.109
21066W        W92792  25.053  39.976   3.896
21067W        W92793   4.470  30.715   2.824
21068W        W92794  37.621  43.995   2.215
21069W        W92795  29.653  30.674   3.627
21070W        W92796  42.653  15.770   0.694
21071W        W92797  30.621  13.886  11.619
21072W        W92798  18.167  35.378   0.239
21073W        W92799  11.633   3.532   0.472
21074W        W92800  12.516  32.545  14.596
21075W        W92801  42.391  11.230   3.400
21076W        W92802  10.121  34.062  11.160
21077W        W92803   7.732  28.666  14.537
21078W        W92804  42.864  18.470   0.008
21079W        W92805  16.109  37.608  12.916
21080W        W92806  10.102  19.802  12.909
21081W        W92807   0.101  17.615  14.932
21082W        W92808  23.310  34.143   3.953
21083W        W92809  32.841   2.947  11.140
21084W        W92810  31.514  29.504  11.036
21085W        W92811   1.455  35.486  12.361
21086W        W92812  43.320  30.519   4.660
21087W        W92813  28.221  32.941   4.328
21088W        W92814  40.713   7.166  10.307
21089W        W92815   2.015   6.926   3.605
21090W        W92816  33.863  25.329  14.701
21091W        W92817  21.704   3.448   1.889
21092W        W92818   4.369  25.303   1.711
21093W        W92819  31.069  43.322   4.596
21094W        W92820  42.351  12.179  12.103
21095W        W92821  22.098  12.268   1.167
21096W        W92822  27.178  11.802   2.372
21097W        W92823  38.336  34.470   3.662
21098W        W92824  19.033  28.667   3.128
21099W        W92825   9.393  26.657   1.810
21100W        W92826  40.532  26.701  10.768
21101W        W92827  36.910   4.964  11.137
21102W        W92828  36.118  23.722   1.272
21103W        W92829   8.411   1.731  10.742
21104W        W92830   0.174  40.330  12.415
21105W        W92831   0.820  34.814   1.823
21106W        W92832  25.261   0.728  11.988
21107W        W92833  41.586  42.823  12.516
21108W        W92834  34.578   5.164   1.864
21109W        W92835  43.894  29.486  13.936
21110W        W92836  29.157  14.293   3.211
21111W        W92837  21.987  31.199  11.021
21112W        W92838  31.778  33.538  11.470
21113W        W92839   8.891  21.018  12.929
21114W        W92840  42.513   3.398   0.826
21115W        W92841  43.714   0.284   3.655
21116W        W92842  11.238  32.509   1.362
21117W        W92843   0.431  35.818   0.244
21118W        W92844  31.487   4.427   3.214
21119W        W92845  37.853  27.194  13.289
21120W        W92846  23.670  10.852  11.375
21121W        W92847  40.371  42.076   2.407
21122W        W92848  10.432  17.505  10.329
21123W        W92849  13.779   9.291  10.993
21124W        W92850  25.651  41.073  11.149
21125W        W92851  24.961  25.116   3.290
21126W        W92852  36.910   7.791   2.211
21127W        W92853  19.040  32.047  13.547
21128W        W92854  11.672  41.374   0.313
21129W        W92855  15.780  21.135  13.907
21130W        W92856   1.271  17.977   3.012
21131W        W92857  28.102  28.739   5.161
21132W        W92858   4.652   7.398  13.909
21133W        W92859  22.190  22.376  11.000
21134W        W92860  31.911  35.652   0.914
21135W        W92861  32.951  23.698  14.461
21136W        W92862  18.795   9.760  14.872
21137W        W92863   3.210  43.249  13.234
21138W        W92864  18.503  24.211  10.725
21139W        W92865   9.245   6.781  13.560
21140W        W92866  21.188  38.934   4.604
21141W        W92867  41.614   5.216   2.890
21142W        W92868   4.913   9.860  12.664
21143W        W92869  24.362  15.651   4.464
21144W        W92870   2.896   0.245  11.506
21145W        W92871  20.551   0.896  13.129
21146W        W92872  27.464  23.990  10.768
21147W        W92873  37.351  19.225   3.267
21148W        W92874  39.242  27.500  13.386
21149W        W92875   3.990   6.303  13.361
21150W        W92876   6.351   3.437  14.074
21151W        W92877  29.084  11.580  11.166
21152W        W92878  12.154  13.558  11.614
21153W        W92879  25.092   6.683   4.888
21154W        W92880  21.490  39.935  14.709
21155W        W92881  30.402  22.023   0.275
21156W        W92882   8.271   9.653  14.992
21157W        W92883   1.395  26.170   2.218
21158W        W92884  14.317  38.978   3.666
21159W        W92885  20.421  24.528   2.277
21160W        W92886   4.463   9.313   2.263
21161W        W92887  28.214  42.868  11.236
21162W        W92888  39.064  30.851   1.789
21163W        W92889  31.874   7.809   1.208
21164W        W92890   2.858  40.026  11.645
21165W        W92891   5.063  23.583   2.491
21166W        W92892  43.496   8.806  10.447
21167W        W92893  20.555  39.090   3.256
21168W        W92894  33.987  28.953   0.473
21169W        W92895  44.967  37.577   4.197
21170W        W92896  17.217  29.153  12.415
21171W        W92897  26.640  17.544   0.422
21172W        W92898   1.370  18.839  10.756
21173W        W92899  13.044  24.872  12.867
21174W        W92900  42.916  12.388   3.534
21175W        W92901  31.594  25.735   5.174
21176W        W92902   7.720   2.240  13.297
21177W        W92903   9.187  36.047  14.974
21178W        W92904  20.830   0.663   4.146
21179W        W92905   4.881  21.995  13.719
21180W        W92906  37.127  25.736  11.621
21181W        W92907   9.737  22.090   3.546
21182W        W92908  26.704  13.286   4.976
21183W        W92909  12.273   6.732   0.210
21184W        W92910   9.621  38.358   2.791
21185W        W92911  18.702  33.455   2.648
21186W        W92912   4.599  38.409   0.796
21187W        W92913  14.867  25.117   0.006
21188W        W92914  29.950  32.763   2.681
21189W        W92915   9.244   0.974  14.550
21190W        W92916   2.263   3.728   1.467
21191W        W92917  30.179  36.316   0.371
21192W        W92918  33.006  40.934  12.365
21193W        W92919  28.472  32.007  13.959
21194W        W92920   8.913   8.888   0.893
21195W        W92921   5.368   8.689   3.041
21196W        W92922  25.967   3.710   2.862
21197W        W92923  27.930  40.212  14.367
21198W        W92924  33.239  26.055  13.477
21199W        W92925  19.803  29.055   1.624
21200W        W92926  25.371  33.377   2.721
21201W        W92927   0.082  38.371   0.769
21202W        W92928  13.324  22.128  10.563
21203W        W92929  20.918  31.286   1.390
21204W        W92930  29.237   5.307  10.334
21205W        W92931  19.748  41.567   0.972
21206W        W92932  33.056   0.942   4.586
21207W        W92933  34.142  13.675   0.876
21208W        W92934   5.193  34.202   2.745
21209W        W92935   0.957  27.031   1.872
21210W        W92936  38.655  30.216   2.191
21211W        W92937   6.409  38.555   0.705
21212W        W92938  44.235   5.397  13.836
21213W        W92939   8.407  35.548  10.829
21214W        W92940  29.500  33.710   1.288
21215W        W92941   7.236  24.109  13.549
21216W        W92942  25.209  12.794  12.044
21217W        W92943  15.159  12.636   4.564
21218W        W92944  32.983  32.311   2.822
21219W        W92945  10.821  31.064  12.876
21220W        W92946   6.719  27.273   3.336
21221W        W92947  29.728  42.604  14.777
21222W        W92948   9.803   4.226  14.708
21223W        W92949  34.645   1.908  12.774
21224W        W92950  41.237  24.411  13.057
21225W        W92951  37.554  26.114  13.033
21226W        W92952   1.509  34.153   1.696
21227W        W92953  11.239  23.077  12.495
21228W        W92954  34.971  28.245  10.823
21229W        W92955  34.084  29.863   0.973
21230W        W92956   6.178  38.059   3.819
21231W        W92957  12.374  28.502  13.439
21232W        W92958  36.402   2.178  14.080
21233W        W92959  40.230  17.024   0.045
21234W        W92960  44.169   7.310  10.127
21235W        W92961   8.696  14.153  12.807
21236W        W92962  19.810  11.342   1.674
21237W        W92963  29.754  31.025  12.867
21238W        W92964  34.119  33.911   3.648
21239W        W92965  21.439   5.752   0.782
21240W        W92966   6.265  27.798  13.877
21241W        W92967  13.791  31.488   4.061
21242W        W92968  28.701  10.823  13.909
21243W        W92969  39.980  36.643   2.323
21244W        W92970   0.162  19.804  10.844
21245W        W92971  17.054  32.518  12.844
21246W        W92972  31.646  31.715   1.795
21247W        W92973  30.090  13.594  10.781
21248W        W92974  36.444  34.443  10.942
21249W        W92975   4.494  31.327  13.929
21250W        W92976   0.346   8.351   3.905
21251W        W92977   3.915   4.719  13.060
21252W        W92978  10.183  29.697  12.767
21253W        W92979  36.681  12.155   4.225
21254W        W92980  12.413   8.225   4.198
21255W        W92981  29.893  28.070  11.136
21256W        W92982   8.295  20.637   3.253
21257W        W92983  20.486  17.126   3.766
21258W        W92984  29.424   1.882   4.814
21259W        W92985  17.060  28.105   4.079
21260W        W92986  43.689  15.706   3.551
21261W        W92987  37.827  31.856   3.311
21262W        W92988   2.818   6.915   2.620
21263W        W92989  38.573  30.541   0.775
21264W        W92990   7.750  23.310   3.712
21265W        W92991   5.271  11.196  14.101
21266W        W92992   2.820   6.464   3.411
21267W        W92993  35.436  17.279   3.658
21268W        W92994  23.982  42.876  11.934
21269W        W92995  16.187  16.144   3.646
21270W        W92996  27.235  27.076   3.309
21271W        W92997  27.954   9.390  10.217
21272W        W92998  25.373   9.751  10.755
21273W        W92999   3.874   6.688   1.974
21274W        W93000  42.950  28.045  12.381
21275W        W93001  37.069  41.936  13.571
21276W        W93002  21.469  35.667  11.223
21277W        W93003  24.070  10.794   1.318
21278W        W93004   5.309   7.112  10.676
21279W        W93005  17.238  43.509   2.370
21280W        W93006  41.490   1.562   0.309
21281W        W93007  13.640  20.091   3.644
21282W        W93008  29.584  29.934   1.914
21283W        W93009   7.909  43.054  12.065
21284W        W93010  27.750  24.616   0.341
21285W        W93011  15.293  29.628  13.005
21286W        W93012  11.282  32.150   0.367
21287W        W93013  30.237   8.186   3.369
21288W        W93014  36.559  43.712   2.317
21289W        W93015  26.210   8.673   2.858
21290W        W93016  20.758  17.711   2.604
21291W        W93017  38.431  30.875   4.727
21292W        W93018  22.409  39.551  14.335
21293W        W93019  41.781  13.360  13.426
21294W        W93020  43.977  10.817  11.528
21295W        W93021  41.000  37.831   2.326
21296W        W93022  44.006   3.901   4.129
21297W        W93023  25.106   8.978   0.034
21298W        W93024  33.066   7.342  12.964
21299W        W93025  16.905  21.574   0.802
21300W        W93026  18.573  12.649   2.689
21301W        W93027  37.869   5.747   1.419
21302W        W93028  35.851   6.810   3.214
21303W        W93029  38.250  11.962  14.900
21304W        W93030  26.628  27.001   0.399
21305W        W93031   0.365  36.207   2.476
21306W        W93032   6.680  10.362   1.340
21307W        W93033  25.933   3.354   1.345
21308W        W93034   0.336  42.450  12.264
21309W        W93035   9.401  16.135  12.033
21310W        W93036  40.784  16.815   0.805
21311W        W93037  34.516  11.227  12.503
21312W        W93038  10.139  17.268  10.699
21313W        W93039  13.241  20.540   2.352
21314W        W93040   0.056  37.622  13.917
21315W        W93041  31.090  23.656  10.636
21316W        W93042  26.558  18.587   2.395
21317W        W93043  44.969  37.553   9.858
21318W        W93044  14.783   6.413  11.116
21319W        W93045   5.808  11.197  13.456
21320W        W93046  44.368  31.362  14.915
21321W        W93047  18.392  11.267  14.325
21322W        W93048  35.680  33.071  10.780
21323W        W93049  23.961   8.871  11.592
21324W        W93050  37.321  38.245  11.645
21325W        W93051  40.986  41.130   3.673
21326W        W93052  21.980  19.048  12.814
21327W        W93053  15.754  24.930  12.071
21328W        W93054   2.989  14.913  13.073
21329W        W93055  26.409  21.258  10.720
21330W        W93056  25.641  23.081   4.344
21331W        W93057   3.446  35.246  14.801
21332W        W93058  29.026  29.424   1.295
21333W        W93059   6.972   4.828   2.087
21334W        W93060  42.731  35.596  13.017
21335W        W93061  38.630   6.921   2.613
21336W        W93062  28.452  14.025  10.914
21337W        W93063  16.118  18.488   0.371
21338W        W93064  43.044  13.834  13.768
21339W        W93065   4.274  25.114   3.322
21340W        W93066   3.927  32.659  14.843
21341W        W93067   2.292  11.042  13.640
21342W        W93068   9.693  16.100  14.547
21343W        W93069  13.998  41.875   2.837
21344W        W93070  18.219  35.437  10.880
21345W        W93071  43.461  11.267  13.018
21346W        W93072  24.737  36.941  13.908
21347W        W93073  24.198   9.698  14.041
21348W        W93074  20.806  18.842  14.407
21349W        W93075  24.731  19.189  14.330
21350W        W93076  22.367  21.617   0.045
21351W        W93077  22.126  28.976  14.450
21352W        W93078  44.010  26.412   0.815
21353W        W93079  26.747  15.380   1.709
21354W        W93080   6.816  37.509   4.541
21355W        W93081  16.923   5.887   1.036
21356W        W93082  19.451  36.656   4.116
21357W        W93083  12.768  27.128  13.906
21358W        W93084  39.844   4.211   3.319
21359W        W93085  44.066  42.189   0.786
21360W        W93086  35.832  41.348   0.401
21361W        W93087  40.281   3.488  10.884
21362W        W93088   2.922  29.664  12.638
21363W        W93089   4.408  25.539  12.695
21364W        W93090   0.705  23.771  11.035
21365W        W93091  24.982  21.305   2.461
21366W        W93092  25.574   6.877   2.438
21367W        W93093  18.249  16.562   4.820
21368W        W93094  19.725  27.448  12.930
21369W        W93095  31.610  23.598  10.662
21370W        W93096  18.815  14.732   2.617
21371W        W93097  11.612  15.614   0.395
21372W        W93098   1.029  37.767  12.598
21373W        W93099  42.382  16.187   3.790
21374W        W93100  20.071  18.636   0.027
21375W        W93101  32.508  21.314  13.969
21376W        W93102  11.926  38.388  12.531
21377W        W93103  11.815  38.022   0.348
21378W        W93104  15.527  38.909   1.902
21379W        W93105   9.752  36.661   4.195
21380W        W93106   0.542  44.897  13.911
21381W        W93107  39.363  39.918   4.661
21382W        W93108  10.190  32.429   2.924
21383W        W93109  34.105  43.389  11.105
21384W        W93110  34.079  28.389  11.035
21385W        W93111  37.718  17.536   0.829
21386W        W93112  26.060  27.671  10.894
21387W        W93113  19.704  44.682   4.262
21388W        W93114  25.430  23.501  12.456
21389W        W93115  41.457   1.798   1.871
21390W        W93116  43.329   6.256   0.491
21391W        W93117   4.244  23.294   2.214
21392W        W93118   0.363  36.780  11.486
21393W        W93119  23.002  40.245   4.215
21394W        W93120  39.884  26.632   0.678
21395W        W93121  23.108   0.681  10.590
21396W        W93122  29.224  18.010   4.253
21397W        W93123  43.257  12.237  11.137
21398W        W93124  15.360  28.076   1.750
21399W        W93125  40.983  30.211   4.461
21400W        W93126  10.724   9.562   0.973
21401W        W93127   3.356  20.740   1.817
21402W        W93128  42.411  36.816   3.846
21403W        W93129   0.789  10.106  12.583
21404W        W93130  21.651   6.720   3.407
21405W        W93131  10.766   7.138  14.901
21406W        W93132  32.359  22.117  14.358
21407W        W93133  32.772  15.283  11.074
21408W        W93134   1.467   8.174  13.247
21409W        W93135  11.272  39.826   3.208
21410W        W93136  30.473  32.494  11.892
21411W        W93137   1.570  44.732   3.088
21412W        W93138  27.371  23.986  14.805
21413W        W93139  35.346  19.563  13.248
21414W        W93140  38.486  37.651   4.890
21415W        W93141  21.024  13.908  12.965
21416W        W93142   0.272  41.980  12.434
21417W        W93143   7.539  30.989  11.987
21418W        W93144  41.616   5.790   3.724
21419W        W93145   5.424  17.145   1.328
21420W        W93146  41.035  18.846   4.315
21421W        W93147  16.183  42.458  13.409
21422W        W93148  12.687  27.200  13.397
21423W        W93149  37.363  17.732  12.531
21424W        W93150  12.860  30.904  12.893
21425W        W93151   0.989  35.439   4.398
21426W        W93152  17.106  10.206   2.711
21427W        W93153  14.081  41.890  12.964
21428W        W93154  41.330   5.388  10.385
21429W        W93155  30.011   0.113  11.112
21430W        W93156  10.841  30.103  12.786
21431W        W93157   1.215  10.623  10.639
21432W        W93158  25.336  16.517  11.157
21433W        W93159  23.719   6.036  14.022
21434W        W93160  33.996  14.916  10.697
21435W        W93161  30.516  17.281   0.394
21436W        W93162  14.010  30.285  12.594
21437W        W93163  36.523  42.564  10.933
21438W        W93164  13.268   7.688   0.535
21439W        W93165   9.987  25.919   1.241
21440W        W93166  20.569  39.059  13.100
21441W        W93167   6.729  31.460   1.396
21442W        W93168   9.302  35.523   0.239
21443W        W93169  16.229   5.339  11.017
21444W        W93170   5.194  13.659  12.976
21445W        W93171  42.674  10.642  12.896
21446W        W93172  28.687  41.508   2.134
21447W        W93173  38.904  26.952   3.821
21448W        W93174  40.792  33.828  14.519
21449W        W93175  42.205   0.054   1.871
21450W        W93176  31.014  29.478   0.201
21451W        W93177  13.492  17.995  10.201
21452W        W93178  34.406  26.955   1.736
21453W        W93179  12.583   4.698  14.894
21454W        W93180   3.448   0.396  13.303
21455W        W93181  21.908  33.560  12.856
21456W        W93182  27.241  29.012  12.776
21457W        W93183  29.093   2.834  14.919
21458W        W93184  40.570  15.730  11.864
21459W        W93185  33.530   1.034  11.900
21460W        W93186  29.863  34.171   3.183
21461W        W93187   5.357  37.032  13.924
21462W        W93188  13.248  28.554   1.286
21463W        W93189  28.434   6.387   2.275
21464W        W93190   3.725  16.603  13.062
21465W        W93191  27.729  35.514  11.054
21466W        W93192  32.449  26.428  12.572
21467W        W93193  15.792  33.399  11.842
21468W        W93194  40.796  11.437   1.423
21469W        W93195  24.951   7.959  10.694
21470W        W93196  15.866  30.150   0.884
21471W        W93197  32.589   7.193  13.105
21472W        W93198   2.539  15.849   4.134
21473W        W93199   3.439  37.925  14.490
21474W        W93200   5.653  40.556   1.830
21475W        W93201  15.237  39.508  13.089
21476W        W93202  42.198  34.783   4.130
21477W        W93203  15.030  12.930   2.770
21478W        W93204  33.452  41.329  10.928
21479W        W93205  21.668   9.929   2.957
21480W        W93206   9.092  44.350  11.197
21481W        W93207  39.325  37.589   2.862
21482W        W93208  23.239  38.540  11.103
21483W        W93209  26.013  10.666  10.913
21484W        W93210  12.297  22.708   4.775
21485W        W93211  26.112   3.524   0.322
21486W        W93212   4.414  36.934  12.039
21487W        W93213  17.907  42.119  12.711
21488W        W93214  30.660  35.402   3.603
21489W        W93215  41.403   9.145   3.738
21490W        W93216  16.030  30.380  12.368
21491W        W93217  27.049  38.603   1.658
21492W        W93218  26.165  29.664   1.887
21493W        W93219  24.019  34.035  14.956
21494W        W93220   8.684  35.245  13.402
21495W        W93221  21.021   6.235   3.752
21496W        W93222  10.867  37.151  11.593
21497W        W93223  37.385  20.668  11.906
21498W        W93224   3.694   4.616   2.810
21499W        W93225  37.631  40.082  11.109
21500W        W93226  39.661  41.810   3.815
21501W        W93227  37.625   2.998  13.663
21502W        W93228  41.696  39.503  12.864
21503W        W93229  19.014  35.314  13.126
21504W        W93230  20.111   4.736  13.522
21505W        W93231  17.937   6.863   3.396
21506W        W93232  16.278   6.091   2.041
21507W        W93233  24.593  30.007   3.584
21508W        W93234  16.524  42.939   1.361
21509W        W93235  24.990  35.413  13.906
21510W        W93236   8.862  17.692  14.841
21511W        W93237  38.512  25.580  12.263
21512W        W93238  30.624  37.122  12.554
21513W        W93239  25.129  25.367   0.254
21514W        W93240  27.308  39.554  13.330
21515W        W93241   4.210   1.239  12.108
21516W        W93242   1.249  31.144  14.437
21517W        W93243   1.535  18.712  12.882
21518W        W93244  16.575  25.124   1.846
21519W        W93245  43.704  11.223  13.661
21520W        W93246   2.748  23.823   3.301
21521W        W93247  43.107   2.850  11.821
21522W        W93248   7.707  19.004  11.261
21523W        W93249  33.041  17.649  11.201
21524W        W93250  36.421  26.726   2.220
21525W        W93251  16.611  27.602   0.106
21526W        W93252  21.176   0.563   3.169
21527W        W93253   5.417  11.849   3.206
21528W        W93254  20.819   6.446   2.414
21529W        W93255  22.536  35.340   4.088
21530W        W93256  38.858  33.005  12.933
21531W        W93257   7.346  37.871   1.026
21532W        W93258  20.626  38.152  14.117
21533W        W93259  33.103  28.562   1.882
21534W        W93260  13.691  13.656   1.227
21535W        W93261  24.031  29.813  11.184
21536W        W93262  43.360   7.454  12.457
21537W        W93263   2.419   2.855  13.883
21538W        W93264  40.839  23.115   0.235
21539W        W93265   6.258  16.250  11.149
21540W        W93266   8.454   0.184  12.551
21541W        W93267   4.866  20.979  13.970
21542W        W93268   7.080  26.947   3.603
21543W        W93269  26.632  35.313   3.411
21544W        W93270   5.684   8.317  14.834
21545W        W93271  26.110  23.747   0.339
21546W        W93272  17.761  21.031  11.856
21547W        W93273  30.749  21.455  12.877
21548W        W93274  21.147  10.578  13.343
21549W        W93275  29.625  23.784  11.823
21550W        W93276  16.933  33.418  10.238
21551W        W93277  22.365  24.094   2.208
21552W        W93278  39.601  33.078  14.558
21553W        W93279  15.037   8.333   2.000
21554W        W93280  13.576  23.791   1.278
21555W        W93281   3.351   7.470  12.566
21556W        W93282   1.490  11.573   3.784
21557W        W93283   3.235   2.582   2.301
21558W        W93284   9.625  12.122   4.215
21559W        W93285  26.195  40.969  13.935
21560W        W93286  40.235  37.057   2.501
21561W        W93287   0.778  26.730   0.471
21562W        W93288  14.313  19.967   2.920
21563W        W93289  20.570   7.455  14.336
21564W        W93290  22.153  19.549  11.657
21565W        W93291  29.410  16.401   3.301
21566W        W93292  20.930   0.491   3.661
21567W        W93293  22.476  30.163   1.508
21568W        W93294  23.582  14.702   1.010
21569W        W93295  18.317  13.467   4.485
21570W        W93296  18.146  36.328  14.716
21571W        W93297   3.977   9.316  11.018
21572W        W93298   9.120  37.493   0.884
21573W        W93299  10.507   1.177   2.833
21574W        W93300  44.919  34.074  11.187
21575W        W93301  41.974  28.586   4.621
21576W        W93302  17.798  16.218  11.104
21577W        W93303  21.165  16.245  10.708
21578W        W93304  30.939  32.624  13.799
21579W        W93305  13.315  20.196   4.080
21580W        W93306  43.589  21.575   3.613
21581W        W93307  17.036  22.564  13.899
21582W        W93308  15.469  11.169  12.572
21583W        W93309  44.247  28.145   1.434
21584W        W93310  32.139  30.917   0.318
21585W        W93311  31.716  21.190   1.483
21586W        W93312  13.362  31.845   0.345
21587W        W93313   8.106  42.636   1.341
21588W        W93314  35.956  26.729  13.039
21589W        W93315  12.052  42.335  14.478
21590W        W93316  34.282  36.885   2.420
21591W        W93317  31.963  37.085  11.917
21592W        W93318   0.304  10.704   1.528
21593W        W93319  28.652  22.272  12.145
21594W        W93320   2.323  20.099   3.510
21595W        W93321  41.582  35.103  14.768
21596W        W93322  30.941   6.292  13.418
21597W        W93323  11.207  16.639  12.020
21598W        W93324  37.426  40.198   4.344
21599W        W93325  41.187  10.735  14.998
21600W        W93326  25.771   6.811   2.921
21601W        W93327  30.378   8.841  14.036
21602W        W93328   4.168   3.876   5.310
21603W        W93329  13.722   1.428  11.144
21604W        W93330  25.738   7.847  13.554
21605W        W93331  37.450   6.204  13.393
21606W        W93332  40.104  36.370   3.615
21607W        W93333  10.634   6.108  13.732
21608W        W93334  27.913  41.123   4.164
21609W        W93335  30.576   8.836   0.370
21610W        W93336  28.090  23.760   1.460
21611W        W93337  29.006  19.957   3.198
21612W        W93338   3.429  21.474   1.384
21613W        W93339  24.500  34.729   3.609
21614W        W93340  12.948  22.689   4.167
21615W        W93341  10.305  19.711  13.392
21616W        W93342  31.736  38.992  13.172
21617W        W93343  18.185  21.066   2.606
21618W        W93344   5.452  30.937  13.609
21619W        W93345  27.715  27.398  14.607
21620W        W93346  38.311  37.191  11.524
21621W        W93347  31.027  36.802  13.437
21622W        W93348  37.914  22.720   4.773
21623W        W93349  43.984  42.432  12.114
21624W        W93350  41.515  30.147  14.763
21625W        W93351   8.713  35.111  14.633
21626W        W93352  33.941  22.941  10.593
21627W        W93353  40.906   8.644  14.241
21628W        W93354  23.782  40.841  13.556
21629W        W93355   3.308  24.240   2.735
21630W        W93356  13.588   5.020  14.006
21631W        W93357  44.193   2.186  12.529
21632W        W93358  35.604   7.255   3.284
21633W        W93359  41.316   7.322   2.603
21634W        W93360  13.670  37.046  11.131
21635W        W93361  35.133   1.549  10.920
21636W        W93362   2.974  35.327   4.199
21637W        W93363  25.596  17.591  12.585
21638W        W93364  34.717  12.249  12.016
21639W        W93365  15.394  30.581   2.249
21640W        W93366  14.526   3.786  13.956
21641W        W93367  30.640  14.655  10.968
21642W        W93368  18.200  20.465   0.316
21643W        W93369  40.093  26.713  12.478
21644W        W93370  31.979  36.787   1.757
21645W        W93371  31.867  14.681  11.935
21646W        W93372   0.883   4.596   3.281
21647W        W93373  28.020  34.391   3.796
21648W        W93374  12.544  13.140  12.465
21649W        W93375  12.460  35.421   4.901
21650W        W93376  19.977  37.961   3.860
21651W        W93377   6.248  38.529   1.210
21652W        W93378   4.641  30.583  14.624
21653W        W93379  26.437  38.168  11.518
21654W        W93380  43.198   3.248   1.923
21655W        W93381  40.475  26.058  13.962
21656W        W93382  22.631  31.685  12.601
21657W        W93383  10.541  23.023   0.959
21658W        W93384   2.697  25.053   0.421
21659W        W93385  32.596  19.904  13.457
21660W        W93386  29.066  44.422  14.865
21661W        W93387  41.749  10.854   2.697
21662W        W93388   1.506   9.905  13.812
21663W        W93389  20.609  36.366   0.667
21664W        W93390  10.643   4.127  11.627
21665W        W93391  15.901  28.274   4.669
21666W        W93392  14.635  16.105  12.859
21667W        W93393  27.393  19.206   2.721
21668W        W93394   3.190   2.535   0.413
21669W        W93395  29.438  24.091  10.903
21670W        W93396   2.431  12.599   0.489
21671W        W93397  31.632  12.670   2.944
21672W        W93398   5.649  35.580  10.676
21673W        W93399   4.452  20.325   0.434
21674W        W93400  40.268   1.410  10.733
21675W        W93401  44.615  11.821   3.204
21676W        W93402  10.686  16.702   1.310
21677W        W93403  27.352   2.392  14.683
21678W        W93404   0.706   0.913   0.415
21679W        W93405   8.152  35.763   4.791
21680W        W93406  12.308   2.539   4.991
21681W        W93407  23.767  41.035   0.860
21682W        W93408  41.053  10.037   0.311
21683W        W93409  21.987   1.515   0.708
21684W        W93410  34.308  32.158  14.465
21685W        W93411  27.430  16.242  13.392
21686W        W93412  10.559  24.841  11.505
21687W        W93413  40.471  38.781   4.779
21688W        W93414  35.423  33.370   3.674
21689W        W93415  33.611  31.917   4.038
21690W        W93416  25.629  21.226  11.701
21691W        W93417  43.566  25.040  14.769
21692W        W93418  38.513  28.337  12.259
21693W        W93419  21.617  24.175   1.738
21694W        W93420  34.874  24.151  14.836
21695W        W93421  39.069  15.741  10.644
21696W        W93422  32.626  28.375  11.982
21697W        W93423  36.862  43.761  13.397
21698W        W93424  22.702  11.669  11.881
21699W        W93425  21.222   2.271   0.214
21700W        W93426  25.469  14.762   4.406
21701W        W93427   2.326   1.953  13.394
21702W        W93428  27.551  18.376   2.695
21703W        W93429  16.057   4.035  12.072
21704W        W93430  18.977  39.545   1.512
21705W        W93431  24.422  31.113   4.862
21706W        W93432  29.006  40.046   1.809
21707W        W93433  36.101  14.890  14.915
21708W        W93434  19.006  26.009  14.700
21709W        W93435  42.294   8.883   1.865
21710W        W93436  41.838  16.050   1.242
21711W        W93437   6.150  41.267   9.895
21712W        W93438  15.225   6.653   0.932
21713W        W93439   5.250   4.888   0.968
21714W        W93440  31.432  10.385  14.436
21715W        W93441  38.424  13.706   1.246
21716W        W93442   6.240  19.323   1.066
21717W        W93443  21.008  43.048  11.057
21718W        W93444  21.445  21.712  14.875
21719W        W93445  33.717  42.888   4.096
21720W        W93446  33.751  11.774   4.128
21721W        W93447  10.336  14.952   0.189
21722W        W93448  16.610  14.041  11.174
21723W        W93449  19.471  23.052  12.544
21724W        W93450  37.879  21.734  12.947
21725W        W93451   0.493   8.629  14.065
21726W        W93452  34.460  16.303   4.877
21727W        W93453  36.881   8.751   1.844
21728W        W93454  14.625   8.411   1.207
21729W        W93455  39.307   6.429   0.641
21730W        W93456  24.498  39.462  11.612
21731W        W93457  27.595  30.206  14.675
21732W        W93458  42.572  39.267   3.011
21733W        W93459   8.733  14.922   2.828
21734W        W93460  31.069  39.926   3.690
21735W        W93461  28.721   4.226  12.567
21736W        W93462   4.885  17.760  14.535
21737W        W93463  43.331  17.712   3.743
21738W        W93464  42.266  35.512   3.728
21739W        W93465  28.746   8.102  12.529
21740W        W93466  42.527  35.113   1.861
21741W        W93467   9.673  23.140   1.625
21742W        W93468   0.969  29.096   1.825
21743W        W93469   6.683  11.765  13.450
21744W        W93470  38.364  35.977   4.752
21745W        W93471  10.408  39.842   0.338
21746W        W93472  26.390  11.169   3.713
21747W        W93473  27.601  24.237  13.361
21748W        W93474   2.234  36.039   4.887
21749W        W93475  11.157  26.448   0.848
21750W        W93476  34.451  20.126  10.534
21751W        W93477   2.851  13.802   4.809
21752W        W93478  38.279  10.077  12.844
21753W        W93479  28.198  36.076   4.642
21754W        W93480  12.369  20.279   3.702
21755W        W93481  29.779  42.533   5.115
21756W        W93482  32.512   3.971  10.874
21757W        W93483  21.243  17.741  11.468
21758W        W93484  27.165  40.917  11.484
21759W        W93485  18.262  12.739   0.392
21760W        W93486  16.618  44.091   1.709
21761W        W93487  33.005  22.602  13.873
21762W        W93488  21.961  20.783   4.945
21763W        W93489  21.531   9.443   2.868
21764W        W93490  12.833  22.176   2.203
21765W        W93491  42.570  12.663   2.146
21766W        W93492  28.630   5.723  10.306
21767W        W93493  10.388  38.912   4.199
21768W        W93494   3.446  24.681  11.062
21769W        W93495  44.956   8.184   4.207
21770W        W93496   7.487   8.921   3.973
21771W        W93497  41.456  29.837   1.021
21772W        W93498  17.216  12.434  10.747
21773W        W93499   6.199  39.432   2.265
21774W        W93500   6.854  27.619   3.733
21775W        W93501  22.508  13.762  11.649
21776W        W93502  37.929  42.375  11.531
21777W        W93503  20.423  15.171  11.979
21778W        W93504  13.790  32.068  12.853
21779W        W93505   9.368   8.266   0.185
21780W        W93506  12.660  19.991  14.491
21781W        W93507  16.884  26.899   4.274
21782W        W93508  19.212  24.331   4.663
21783W        W93509  43.541   3.233  10.720
21784W        W93510  29.161  39.247   4.183
21785W        W93511  21.015  10.655   2.284
21786W        W93512  40.902  35.697  12.878
21787W        W93513   5.315  44.409   1.057
21788W        W93514  43.451   4.435   2.348
21789W        W93515  13.166  19.675   4.070
21790W        W93516  25.228  20.910  14.035
21791W        W93517   7.845  15.531   4.634
21792W        W93518  16.258   7.992  14.522
21793W        W93519  23.218  33.551  14.259
21794W        W93520  25.480  17.803  13.406
21795W        W93521  34.035  25.039  10.679
21796W        W93522  38.078  19.687  13.345
21797W        W93523   7.215  33.868   3.318
21798W        W93524  40.884  22.014   1.627
21799W        W93525   9.641  29.602   0.314
21800W        W93526  10.617  20.118   2.212
21801W        W93527   5.457  41.886   4.858
21802W        W93528   4.441  13.316   3.902
21803W        W93529  26.679  17.715   4.883
21804W        W93530  11.930  11.929  10.253
21805W        W93531   3.375  20.475   2.264
21806W        W93532  44.316  41.034   4.392
21807W        W93533  28.547  20.936  12.480
21808W        W93534   0.378   1.779  13.334
21809W        W93535  16.325  22.581  11.079
21810W        W93536  34.016  29.617   2.243
21811W        W93537  44.655  27.486  13.037
21812W        W93538   1.139   8.221   0.458
21813W        W93539  26.896  25.136   4.215
21814W        W93540  41.188  40.290  14.765
21815W        W93541  35.677   1.489   4.116
21816W        W93542  26.114  23.161   4.542
21817W        W93543  38.055  42.046  13.928
21818W        W93544   4.850  17.650  10.491
21819W        W93545  41.906   8.296  12.855
21820W        W93546  31.030  36.140  12.969
21821W        W93547  10.627  33.797   3.144
21822W        W93548   2.500  24.212  12.497
21823W        W93549  17.300  42.868  12.026
21824W        W93550  27.712   6.655  12.956
21825W        W93551  42.488   5.497   2.854
21826W        W93552  37.917   0.048   4.356
21827W        W93553  40.456  19.296   1.740
21828W        W93554  39.657   6.403   1.142
21829W        W93555   7.343  43.719   3.852
21830W        W93556   9.140  23.612  11.653
21831W        W93557  14.823  33.149  12.574
21832W        W93558  39.503  41.972   2.277
21833W        W93559   9.010   0.659  14.913
21834W        W93560   5.267  27.699   1.272
21835W        W93561  30.687   8.446   3.195
21836W        W93562  12.275   1.946   3.958
21837W        W93563   0.986   2.861   2.681
21838W        W93564  32.801  19.221  13.259
21839W        W93565  36.459  37.880   4.628
21840W        W93566  37.130  11.323   1.217
21841W        W93567  21.203  13.133  13.029
21842W        W93568  38.432   7.727  13.522
21843W        W93569  10.383  42.497  11.500
21844W        W93570  14.336  14.723   4.919
21845W        W93571  10.915   8.848  14.389
21846W        W93572   8.668   2.996   4.520
21847W        W93573   2.325   8.194  14.884
21848W        W93574  31.044   3.934   4.854
21849W        W93575  28.164  16.725  10.312
21850W        W93576  10.006  27.112  14.890
21851W        W93577  34.361  38.091   1.156
21852W        W93578  43.567  25.556  11.317
21853W        W93579  30.175  23.256  12.475
21854W        W93580  37.084  14.634   3.460
21855W        W93581  34.043  19.593   0.098
21856W        W93582   1.551  29.071  11.287
21857W        W93583   6.650  20.574  10.690
21858W        W93584  27.903  42.624  14.848
21859W        W93585  37.547  21.008   4.496
21860W        W93586  15.224  24.396  13.114
21861W        W93587  10.799  39.050   0.008
21862W        W93588  31.095  17.351   2.722
21863W        W93589  32.881   6.336  14.219
21864W        W93590  18.562   8.719  14.987
21865W        W93591   2.410  29.073  10.804
21866W        W93592   7.864  22.941   1.187
21867W        W93593  26.936   8.286  13.291
21868W        W93594   7.290   1.671  12.430
21869W        W93595  21.712  38.871   2.824
21870W        W93596  41.509  14.042   1.741
21871W        W93597  34.289  26.624  10.807
21872W        W93598  44.407   9.903   2.569
21873W        W93599   4.271  35.025  10.619
21874W        W93600  43.866   2.460   0.229
21875W        W93601   6.396  43.443   0.417
21876W        W93602  21.334  39.442  12.592
21877W        W93603  35.266   6.737  13.346
21878W        W93604  27.332   1.481  11.886
21879W        W93605   0.690  20.071  13.007
21880W        W93606  18.915   5.306  10.684
21881W        W93607  19.621  22.719   3.608
21882W        W93608  18.700  15.376  11.548
21883W        W93609  18.636  37.226  14.066
21884W        W93610  43.546   3.400  11.702
21885W        W93611  15.217  41.230  11.900
21886W        W93612  10.444  43.059   2.854
21887W        W93613   5.146  44.724  13.972
21888W        W93614  14.318   2.184   3.356
21889W        W93615  29.205  30.472   1.427
21890W        W93616   6.905  19.530  14.414
21891W        W93617   1.956   5.901   2.772
21892W        W93618  42.196  18.274  13.239
21893W        W93619  44.244  28.658  13.918
21894W        W93620  15.015  13.807   0.801
21895W        W93621  18.784  25.253  14.005
21896W        W93622  22.550  27.933  10.797
21897W        W93623  12.801   6.442  12.362
21898W        W93624   5.469   9.653  13.515
21899W        W93625  10.175  37.986  13.484
21900W        W93626  28.417  25.100  13.951
21901W        W93627  32.220  35.799   1.764
21902W        W93628  38.083  18.635   3.115
21903W        W93629   5.677  26.086   1.950
21904W        W93630  33.962  39.500  12.904
21905W        W93631  26.881  39.953  11.772
21906W        W93632  30.980  35.304  14.536
21907W        W93633   4.939  33.462   2.170
21908W        W93634   2.650   0.342   0.576
21909W        W93635  37.083  17.620  12.946
21910W        W93636  25.826  17.693   3.948
21911W        W93637   5.138  25.164   3.806
21912W        W93638  21.161  18.278   1.071
21913W        W93639  12.667  16.058   0.643
21914W        W93640   9.696  41.118   2.658
21915W        W93641  37.230  30.284   4.078
21916W        W93642  42.515   6.633  11.481
21917W        W93643  27.726  39.093   1.361
21918W        W93644   8.598   3.765   0.298
21919W        W93645  23.621  23.137   3.708
21920W        W93646   3.166  14.921   2.323
21921W        W93647  25.523  28.205   2.214
21922W        W93648  37.698  30.422   4.848
21923W        W93649  36.525  29.806  12.408
21924W        W93650   4.795  44.775   2.688
21925W        W93651  15.648  32.456  14.360
21926W        W93652  44.993   6.821  12.530
21927W        W93653  43.909  33.667   0.338
21928W        W93654  11.718  35.106   3.524
21929W        W93655  17.583  22.356   1.116
21930W        W93656  20.140   7.591   2.209
21931W        W93657  32.187   3.735  11.209
21932W        W93658  36.102  10.956  13.364
21933W        W93659  13.656   0.109  11.457
21934W        W93660  42.424  27.895  14.491
21935W        W93661  15.850  25.465  12.077
21936W        W93662  16.333   9.748   4.235
21937W        W93663   2.783  10.186  12.607
21938W        W93664  17.233  19.699  11.620
21939W        W93665  42.377   2.525   2.783
21940W        W93666  41.818  33.996  11.608
21941W        W93667  38.631  14.683   2.234
21942W        W93668   4.895  34.956   4.189
21943W        W93669  28.702  33.031  12.128
21944W        W93670  28.428  27.881   1.689
21945W        W93671  42.293  44.661   0.028
21946W        W93672  23.477  37.516  12.660
21947W        W93673  15.309  22.911   1.716
21948W        W93674  24.457  33.186  11.012
21949W        W93675  39.974   1.180   3.105
21950W        W93676  22.758  38.454  13.353
21951W        W93677  40.157  28.438   3.763
21952W        W93678  43.252  30.085   0.353
21953W        W93679  16.760  19.289   2.790
21954W        W93680  43.768  20.425  12.011
21955W        W93681   8.458  11.655  13.938
21956W        W93682  25.085  35.404   0.695
21957W        W93683  14.277  34.803   4.122
21958W        W93684  23.124   6.378   4.245
21959W        W93685  40.129  12.177  14.806
21960W        W93686  24.407  25.530  13.881
21961W        W93687   2.018  14.656  12.895
21962W        W93688  39.777  19.691   0.276
21963W        W93689  19.718  29.023   2.140
21964W        W93690  19.653  20.624   4.177
21965W        W93691  14.955   3.961  11.685
21966W        W93692  24.182   5.382  10.684
21967W        W93693  13.052  16.034  10.346
21968W        W93694  21.057  44.882   2.823
21969W        W93695  32.837   4.227   1.208
21970W        W93696   6.306  33.978   0.503
21971W        W93697  15.715  19.477   3.801
21972W        W93698  35.265  22.711  13.233
21973W        W93699  43.801  38.054   0.764
21974W        W93700  43.020  39.645   2.899
21975W        W93701  30.635  29.993   1.831
21976W        W93702  29.395  26.657  12.034
21977W        W93703  41.353   5.802   4.995
21978W        W93704  40.508  20.719   1.772
21979W        W93705  13.387   0.617   0.510
21980W        W93706  33.516  44.256   2.385
21981W        W93707  41.295  11.530  10.916
21982W        W93708  38.965  42.823  11.603
21983W        W93709  23.114  37.026   1.953
21984W        W93710  27.489  25.725   3.242
21985W        W93711  11.896  10.685   3.559
21986W        W93712  35.513  14.179  12.004
21987W        W93713  38.465  18.715   3.777
21988W        W93714   7.923  20.422  14.346
21989W        W93715  16.886  34.098   0.792
21990W        W93716   6.706  41.486  12.658
21991W        W93717   8.712  37.537  11.883
21992W        W93718  10.631   8.848   1.655
21993W        W93719  30.963  12.944   3.739
21994W        W93720   2.950   7.952   1.215
21995W        W93721  18.632  38.199   3.613
21996W        W93722  33.144  26.750  12.984
21997W        W93723  28.480  27.629   2.827
21998W        W93724   8.798  17.658  12.213
21999W        W93725  33.657  31.542   1.389
22000W        W93726   4.709   4.290   3.270
22001W        W93727   1.725  27.583  12.812
22002W        W93728  29.848  13.706   3.220
22003W        W93729  40.646  11.953  12.172
22004W        W93730  34.390   8.005   3.810
22005W        W93731  14.737   3.266  11.079
22006W        W93732  17.721   5.721  10.721
22007W        W93733  39.960   8.402   2.572
22008W        W93734  29.484  32.187   2.882
22009W        W93735  42.225  21.640  10.722
22010W        W93736   3.414  14.522  14.413
22011W        W93737  10.710   0.035   3.193
22012W        W93738   9.907  21.992   5.022
22013W        W93739  39.309   3.235   0.307
22014W        W93740   7.728  24.847   5.139
22015W        W93741  11.659  27.766   0.863
22016W        W93742  17.720  36.450  11.762
22017W        W93743  17.400  30.139   3.838
22018W        W93744  36.341  36.115   4.199
22019W        W93745  27.690  39.845   1.660
22020W        W93746  35.630  25.480  11.448
22021W        W93747  24.985  16.836   4.895
22022W        W93748   9.390  21.192   1.980
22023W        W93749  16.276  21.715   4.634
22024W        W93750  38.368  26.339   2.679
22025W        W93751  10.729  25.339   1.339
22026W        W93752  24.157  10.910  12.445
22027W        W93753  35.937  30.232   3.489
22028W        W93754   5.956  38.501   1.737
22029W        W93755  11.898  17.219   3.086
22030W        W93756  41.940  30.588   1.096
22031W        W93757   0.274   4.196  12.949
22032W        W93758  24.907  36.052  11.685
22033W        W93759   9.248   4.400   0.842
22034W        W93760  32.651  12.854   1.332
22035W        W93761   4.286   6.355  12.897
22036W        W93762  39.076  25.083  10.688
22037W        W93763  28.567  30.644   4.385
22038W        W93764  34.977  40.890   0.007
22039W        W93765  34.191  16.115   2.142
22040W        W93766   7.369  14.094   4.429
22041W        W93767   1.469  31.453  10.656
22042W        W93768  20.747  10.721   2.708
22043W        W93769   6.836  28.399  11.948
22044W        W93770  23.133   1.165  12.439
22045W        W93771   5.655  18.105  10.365
22046W        W93772  11.332   7.631  12.807
22047W        W93773  28.966  18.218  11.595
22048W        W93774  24.843  19.373   4.353
22049W        W93775  12.678  17.612   0.254
22050W        W93776  29.469   3.192  14.804
22051W        W93777  39.021   9.818  14.909
22052W        W93778  40.545  32.485   3.640
22053W        W93779   5.434   5.486   1.886
22054W        W93780  27.988  17.837   4.349
22055W        W93781   0.633  25.103  13.857
22056W        W93782  15.303  36.470  11.585
22057W        W93783  17.562   8.452   4.523
22058W        W93784  12.699  42.355   0.849
22059W        W93785  32.562  17.370  14.493
22060W        W93786   1.992  27.064  14.484
22061W        W93787  11.099  10.768   4.578
22062W        W93788  23.041  32.369  12.045
22063W        W93789  12.882  12.965  14.947
22064W        W93790  20.659  32.883  10.900
22065W        W93791   6.312  40.440   0.309
22066W        W93792  11.132  40.151  14.049
22067W        W93793  43.906  22.730   2.020
22068W        W93794  16.695  21.407   3.495
22069W        W93795  17.307  17.674  14.025
22070W        W93796  41.717  33.468  14.493
22071W        W93797  25.184   7.637   2.084
22072W        W93798  15.350  17.761  14.236
22073W        W93799   4.513  26.590  11.106
22074W        W93800   3.844  19.665   0.315
22075W        W93801  17.732   1.543   0.816
22076W        W93802  24.728  18.214  12.522
22077W        W93803  14.660  34.919   3.297
22078W        W93804   4.465  40.313   0.872
22079W        W93805  42.102   2.538  14.820
22080W        W93806  38.478   9.310  13.987
22081W        W93807  30.915   5.342  11.498
22082W        W93808   4.141  37.067   0.132
22083W        W93809   8.902  34.268   2.805
22084W        W93810  39.420  10.233  11.672
22085W        W93811  35.638  12.305  12.281
22086W        W93812  13.733  20.228  14.818
22087W        W93813  27.682  10.303  13.616
22088W        W93814  18.708   0.190  14.882
22089W        W93815  28.496  23.936   3.147
22090W        W93816   1.487  41.839   2.214
22091W        W93817  11.144  28.027  12.667
22092W        W93818  31.463  19.814  13.804
22093W        W93819  37.286  35.612   4.114
22094W        W93820  41.256  13.308  12.030
22095W        W93821  39.911  24.760  14.455
22096W        W93822  32.076  37.556  14.827
22097W        W93823  16.728  15.803  10.442
22098W        W93824  12.718   8.264   2.358
22099W        W93825  19.045  13.753   4.808
22100W        W93826  14.528  41.521   0.646
22101W        W93827  31.497  30.541  14.422
22102W        W93828  22.524  38.466   4.214
22103W        W93829  40.904  35.499   3.205
22104W        W93830  15.048  44.594   3.319
22105W        W93831  36.163  23.101   4.663
22106W        W93832  31.579  18.899   0.353
22107W        W93833  16.389  10.649   2.783
22108W        W93834  27.100  25.052   0.532
22109W        W93835  39.973  19.113   1.769
22110W        W93836  38.846  26.212   0.784
22111W        W93837  37.414   2.271   0.943
22112W        W93838  22.392  29.963   3.361
22113W        W93839  30.983  33.176   0.303
22114W        W93840  19.014  28.853  11.108
22115W        W93841  26.073  22.964  11.962
22116W        W93842  35.919  20.530  12.087
22117W        W93843  36.265   3.534   0.284
22118W        W93844  20.746  42.050  11.571
22119W        W93845  24.809  36.177  14.421
22120W        W93846  25.914   6.295  12.459
22121W        W93847  26.269  14.586   2.129
22122W        W93848  25.492  10.596   4.734
22123W        W93849  10.422   2.419   2.822
22124W        W93850  44.339  30.415  10.517
22125W        W93851  28.506  27.136  10.644
22126W        W93852   7.450  21.667   0.402
22127W        W93853   0.388  10.258   1.760
22128W        W93854   9.051  35.061   0.053
22129W        W93855  29.115  34.852   4.258
22130W        W93856  25.457   4.326  14.327
22131W        W93857   2.148   6.600   0.740
22132W        W93858  33.157  27.022   2.309
22133W        W93859  22.697  28.322   4.967
22134W        W93860  21.137  15.795  14.897
22135W        W93861   4.352  15.396   1.872
22136W        W93862  42.833  19.214  14.374
22137W        W93863  22.803   8.542   3.712
22138W        W93864  12.663   5.979   1.267
22139W        W93865   5.578  35.064  12.884
22140W        W93866  39.452  40.226   2.905
22141W        W93867  31.939  31.881  13.572
22142W        W93868  11.974  41.742  13.829
22143W        W93869  14.789  10.437   2.259
22144W        W93870  44.402  36.822   2.257
22145W        W93871  43.741  39.837  11.177
22146W        W93872  37.857  18.960  12.907
22147W        W93873  13.131  10.102  13.040
22148W        W93874   8.566  35.835   9.692
22149W        W93875  33.598  11.845   1.842
22150W        W93876  17.610  19.345   3.778
22151W        W93877   9.470   5.317   4.215
22152W        W93878  35.739  30.015  13.265
22153W        W93879   7.393  26.612  13.461
22154W        W93880  14.151  28.118   0.442
22155W        W93881  19.632  12.706  13.503
22156W        W93882  19.727   4.852   3.275
22157W        W93883  16.261  40.084   2.661
22158W        W93884  33.360   6.131  14.294
22159W        W93885  17.023  19.154   3.235
22160W        W93886  21.934  13.667  12.907
22161W        W93887  19.728  15.054  13.994
22162W        W93888  43.771  41.755   0.766
22163W        W93889   0.514   7.971  12.333
22164W        W93890  43.338  26.589  10.832
22165W        W93891  14.414  32.095   4.619
22166W        W93892  29.729  29.403   3.266
22167W        W93893   5.140  12.585  11.963
22168W        W93894  38.926   1.477  10.666
22169W        W93895  32.706  16.214   0.375
22170W        W93896   6.685  41.734  13.133
22171W        W93897  40.549  13.051   0.788
22172W        W93898  44.890  43.204  10.725
22173W        W93899   3.737   6.488  14.413
22174W        W93900  23.699   1.465  11.614
22175W        W93901  15.650  41.874  11.523
22176W        W93902  31.801  19.056  12.504
22177W        W93903  44.387  31.415   2.856
22178W        W93904  21.630   0.030   0.421
22179W        W93905  27.114  40.876   2.162
22180W        W93906  25.134   4.721  14.001
22181W        W93907  21.576  39.612   3.749
22182W        W93908  26.564  38.814   3.668
22183W        W93909  37.343  35.978  10.276
22184W        W93910   2.770   0.259   3.354
22185W        W93911  41.555   9.723   4.816
22186W        W93912   2.305  13.324  14.948
22187W        W93913   6.899  17.286  13.588
22188W        W93914  34.780  26.486  13.993
22189W        W93915  35.090  41.835  11.578
22190W        W93916  15.143  23.656   4.110
22191W        W93917  15.588  10.673  10.985
22192W        W93918  35.706  16.680   0.277
22193W        W93919  31.614  34.197   3.667
22194W        W93920  14.296   1.964  10.653
22195W        W93921   2.383  15.756   0.624
22196W        W93922  18.816  12.187   0.920
22197W        W93923  43.552  43.402   1.179
22198W        W93924  41.759  25.377   0.456
22199W        W93925  33.139  18.098   2.401
22200W        W93926  30.510   3.425  13.940
22201W        W93927  32.949   6.434  12.430
22202W        W93928  15.064   7.600   4.142
22203W        W93929  33.455  10.673   2.262
22204W        W93930  38.340  31.016   0.809
22205W        W93931  32.448  27.858  12.007
22206W        W93932  27.812  16.729  11.944
22207W        W93933  37.581  20.736  12.860
22208W        W93934  35.382  15.222  12.666
22209W        W93935  37.925  30.570   3.507
22210W        W93936   2.494  41.499   1.130
22211W        W93937   1.514  17.109   0.427
22212W        W93938   8.016   5.984  14.039
22213W        W93939  44.128  12.923   2.199
22214W        W93940   4.903  28.351  14.608
22215W        W93941  17.756   7.208  13.463
22216W        W93942   9.923  10.146  14.309
22217W        W93943  37.836  17.084   3.311
22218W        W93944  21.435  21.172   1.056
22219W        W93945  31.999   1.362  11.093
22220W        W93946  33.772   6.210   1.870
22221W        W93947  27.434  13.738   3.072
22222W        W93948  29.161  31.711  11.959
22223W        W93949   5.170   3.003  13.553
22224W        W93950  38.739  36.056   1.272
22225W        W93951   2.210   1.628  14.557
22226W        W93952  17.671  22.010  13.999
22227W        W93953  30.115  28.582   3.738
22228W        W93954  34.052  40.473   0.813
22229W        W93955  27.926   3.986   2.939
22230W        W93956  13.390  34.911   2.689
22231W        W93957  44.559  30.878  12.613
22232W        W93958  44.724   4.861   0.838
22233W        W93959  43.969  16.369   0.755
22234W        W93960  27.084   1.980   2.244
22235W        W93961  39.890  31.763   4.923
22236W        W93962  31.478  35.351   0.780
22237W        W93963  16.503  32.984   3.023
22238W        W93964  37.965  36.663  13.857
22239W        W93965  43.735   9.629  10.992
22240W        W93966   0.762  37.161   3.651
22241W        W93967   7.627  44.315   4.106
22242W        W93968  39.486   0.873  14.458
22243W        W93969  30.459  41.383  13.935
22244W        W93970  23.950  10.347  14.117
22245W        W93971  17.298   7.679   1.834
22246W        W93972  36.825  22.782  13.541
22247W        W93973   6.992  27.582  11.646
22248W        W93974  37.693  35.931   1.917
22249W        W93975  29.099  24.761  12.670
22250W        W93976  11.563  15.659  11.118
22251W        W93977  27.318  28.269  10.088
22252W        W93978  25.133  19.307   0.247
22253W        W93979  44.184  25.482   2.279
22254W        W93980  16.668  34.366   4.665
22255W        W93981  12.607  21.099   1.375
22256W        W93982  16.708  40.215   4.673
22257W        W93983  15.378  44.240   4.612
22258W        W93984  19.664  43.945  10.731
22259W        W93985  38.129   0.915   0.738
22260W        W93986  25.924  10.237  11.198
22261W        W93987  42.931   3.546   2.397
22262W        W93988  42.686  44.845   2.615
22263W        W93989  17.089  25.116   0.181
22264W        W93990  11.785  17.213   0.850
22265W        W93991  27.456   5.642   0.310
22266W        W93992   1.426  31.882  11.864
22267W        W93993  34.283  25.601  14.768
22268W        W93994   3.207  26.003  11.977
22269W        W93995   5.181  15.396   2.808
22270W        W93996  16.839  28.021  11.089
22271W        W93997  31.698   7.784   3.641
22272W        W93998  26.912  30.482  14.141
22273W        W93999  32.438  34.209  12.532
22274W        W94000  15.001  43.880   4.668
22275W        W94001  33.166   0.889  14.319
22276W        W94002  21.733  35.955   4.092
22277W        W94003  41.387  24.955  11.884
22278W        W94004   1.632  24.985  13.988
22279W        W94005   9.727  27.670   1.117
22280W        W94006  29.098  43.971   4.239
22281W        W94007  33.461  32.622   0.686
22282W        W94008  19.291   6.286   0.987
22283W        W94009  22.540  42.521  13.941
22284W        W94010  27.457   9.901  11.435
22285W        W94011   2.308  33.841  10.706
22286W        W94012  17.209  17.272   4.120
22287W        W94013  21.724  44.915  14.509
22288W        W94014   2.844  25.978  10.659
22289W        W94015  39.001  35.283   3.531
22290W        W94016   4.705  36.478   3.638
22291W        W94017   9.373   9.069   2.897
22292W        W94018  13.226  25.310  13.573
22293W        W94019  37.040  20.111  10.633
22294W        W94020  44.854  19.653   3.912
22295W        W94021  26.336  14.550  12.598
22296W        W94022  17.704   0.530  14.045
22297W        W94023  33.516  30.388  13.450
22298W        W94024  30.919  28.918  10.722
22299W        W94025  39.852   7.292  11.447
22300W        W94026  28.580   8.280  11.188
22301W        W94027  27.649   3.305   2.775
22302W        W94028  37.038  15.692  12.150
22303W        W94029   6.811  16.429   4.636
22304W        W94030   2.078   0.775   0.415
22305W        W94031  17.039  23.499  12.331
22306W        W94032   0.784  29.169   3.304
22307W        W94033  16.826  20.007  12.004
22308W        W94034   1.268  19.917  13.972
22309W        W94035  31.522   9.338  14.526
22310W        W94036  34.561  38.519   1.379
22311W        W94037  28.028   0.784   4.322
22312W        W94038  11.622  11.211   2.168
22313W        W94039   1.274  34.036   2.233
22314W        W94040  41.153  15.791  10.455
22315W        W94041   5.164  23.666  14.797
22316W        W94042  31.518  44.291   0.268
22317W        W94043  20.268  40.652   3.674
22318W        W94044  23.134  39.266   0.919
22319W        W94045  26.433   1.470   2.684
22320W        W94046  19.530  29.406   3.632
22321W        W94047  22.483  44.233   1.884
22322W        W94048  23.595  11.944   1.621
22323W        W94049  37.910  44.686  13.013
22324W        W94050   7.506   7.590  11.108
22325W        W94051  41.146   2.015  14.729
22326W        W94052   7.470  31.381   3.362
22327W        W94053   5.984   3.240   1.970
22328W        W94054   7.373  18.858  12.710
22329W        W94055  31.270  14.201   0.294
22330W        W94056  30.280   6.670  11.238
22331W        W94057  44.039  41.335   2.880
22332W        W94058   2.963  43.976   3.640
22333W        W94059  36.629   2.649  14.030
22334W        W94060  22.058  43.584   1.309
22335W        W94061   7.905  14.472  14.552
22336W        W94062  21.290  30.344   5.033
22337W        W94063  24.754  24.138   0.416
22338W        W94064  32.902  11.224   0.080
22339W        W94065  14.736  30.167  11.687
22340W        W94066  21.745  24.618  11.585
22341W        W94067   3.622   8.331  14.598
22342W        W94068  32.028  29.788   2.619
22343W        W94069  16.274   4.879   4.733
22344W        W94070   6.176  33.337   1.675
22345W        W94071  27.692  36.620   2.890
22346W        W94072  10.009  36.381  13.806
22347W        W94073  14.772  31.115   3.627
22348W        W94074  33.086  12.099  12.999
22349W        W94075  30.844  34.344   3.734
22350W        W94076  31.385  17.352   0.961
22351W        W94077  34.425  26.209  12.910
22352W        W94078  32.902  38.162  12.946
22353W        W94079  20.552  34.061  10.560
22354W        W94080  24.607  28.452   3.483
22355W        W94081   7.261  25.689   3.750
22356W        W94082  42.969  27.679  10.498
22357W        W94083  22.752  42.927   1.809
22358W        W94084  30.416  43.205  11.978
22359W        W94085  10.604  24.222   4.612
22360W        W94086  33.902  11.372   2.615
22361W        W94087  30.576  16.110  13.118
22362W        W94088  29.605   9.635  12.887
22363W        W94089  15.718  44.759   2.291
22364W        W94090   3.198  11.506  10.870
22365W        W94091  31.950  29.688  13.056
22366W        W94092  13.650  30.057  14.992
22367W        W94093  27.925  16.979   0.470
22368W        W94094  44.840  34.078  12.778
22369W        W94095  20.021  31.760  13.603
22370W        W94096  31.600   4.424   1.837
22371W        W94097  41.772   3.923  11.528
22372W        W94098  13.689  36.133  12.579
22373W        W94099  38.720  44.463   4.616
22374W        W94100  14.812  16.719  13.458
22375W        W94101  42.288  37.988  10.549
22376W        W94102  29.763   6.210   1.801
22377W        W94103  19.817  21.764   4.627
22378W        W94104  29.193  11.034  12.996
22379W        W94105  33.500   6.378  12.869
22380W        W94106  32.584   2.878  10.701
22381W        W94107   8.989  39.635   4.387
22382W        W94108  29.867  30.874   2.775
22383W        W94109  38.110   0.446  11.499
22384W        W94110  16.871  23.150   4.502
22385W        W94111  22.150   4.712   2.391
22386W        W94112  11.751  30.856   0.377
22387W        W94113  38.352   8.993   2.881
22388W        W94114  22.843   7.909   2.498
22389W        W94115  39.000   5.246  13.952
22390W        W94116  20.681  27.709   1.623
22391W        W94117  32.728  14.004  12.552
22392W        W94118  12.173  31.085   4.166
22393W        W94119  12.657  10.872  14.921
22394W        W94120  29.574  23.033   2.790
22395W        W94121  23.946   4.942   3.109
22396W        W94122   9.011  22.007   2.736
22397W        W94123  14.943  44.262  11.146
22398W        W94124  35.019  38.129   3.767
22399W        W94125  24.986  31.021   4.678
22400W        W94126   6.151  33.876   4.237
22401W        W94127  13.629   8.622  11.599
22402W        W94128  20.849  15.506  14.561
22403W        W94129  14.384  35.584  12.694
22404W        W94130  15.703   9.729   4.655
22405W        W94131  16.383  22.575  13.430
22406W        W94132   5.728  34.508  14.454
22407W        W94133  13.447   3.003  12.914
22408W        W94134  33.712  28.334  11.931
22409W        W94135   7.421  11.395  11.072
22410W        W94136  28.135   5.441   4.168
22411W        W94137  38.787   9.100  12.139
22412W        W94138  12.183   7.813   1.242
22413W        W94139   0.820  42.954   4.190
22414W        W94140   4.623  30.128   2.135
22415W        W94141   7.369   7.848  14.266
22416W        W94142   6.381  18.967  11.477
22417W        W94143  44.011  33.812  12.443
22418W        W94144  37.511   7.097   2.240
22419W        W94145  23.025  40.475   2.854
22420W        W94146  40.840  42.613   3.637
22421W        W94147   0.741   9.923   0.072
22422W        W94148  38.250  14.063   2.907
22423W        W94149  30.172  19.659   2.982
22424W        W94150  12.701  41.937   3.102
22425W        W94151  27.251  18.902  13.686
22426W        W94152  10.282  42.942   3.793
22427W        W94153   7.821  42.477   0.918
22428W        W94154  28.084  22.032  11.041
22429W        W94155   4.505  14.165  11.137
22430W        W94156  23.455   3.207   3.393
22431W        W94157  30.035  16.318  14.886
22432W        W94158  28.551  33.619   3.893
22433W        W94159  44.773   7.140   2.120
22434W        W94160  29.050  37.538   1.347
22435W        W94161  33.525  28.708   0.377
22436W        W94162  22.068  17.742   0.306
22437W        W94163  23.401  39.986  11.976
22438W        W94164  11.770  17.963  14.258
22439W        W94165  31.490  10.725   0.280
22440W        W94166  44.486   8.689  14.933
22441W        W94167  33.052   4.736  11.075
22442W        W94168  30.161  39.999  12.518
22443W        W94169  36.552  38.005  12.910
22444W        W94170   9.349  14.658   1.314
22445W        W94171   9.485  36.679   2.747
22446W        W94172   5.292   6.144  10.824
22447W        W94173   8.946  30.952  10.825
22448W        W94174  16.784  25.584  11.235
22449W        W94175  25.078  22.115  11.559
22450W        W94176   9.615   8.631  14.356
22451W        W94177  18.664  27.947  11.189
22452W        W94178   0.711   5.105   2.467
22453W        W94179  41.383  36.265   3.110
22454W        W94180  16.096  43.284  14.246
22455W        W94181   3.796  39.509  10.601
22456W        W94182  22.947  29.708  11.544
22457W        W94183  34.638  42.782   1.966
22458W        W94184  33.200   1.951  13.000
22459W        W94185   1.298  34.616   1.940
22460W        W94186   6.847   9.098  12.087
22461W        W94187  10.817  39.845   1.816
22462W        W94188  41.896  34.444   1.997
22463W        W94189  43.338  33.467  12.361
22464W        W94190  36.523  10.695   2.784
22465W        W94191  19.017  27.187  12.540
22466W        W94192  15.508  22.245   4.114
22467W        W94193  28.571  31.107  14.812
22468W        W94194  14.882  20.767  13.993
22469W        W94195  35.414  23.542  13.295
22470W        W94196  23.539  31.168   0.920
22471W        W94197  11.829  10.265   4.384
22472W        W94198  21.432  28.793   3.397
22473W        W94199  27.948  10.831   1.464
22474W        W94200  29.726   3.968  11.265
22475W        W94201   4.520  20.339   1.995
22476W        W94202  28.676  30.156   4.251
22477W        W94203  16.580   9.243  12.975
22478W        W94204  31.189  23.105  11.748
22479W        W94205  23.593  17.567   3.324
22480W        W94206  19.291   3.612  11.399
22481W        W94207  34.663  31.071  13.412
22482W        W94208   2.479  23.098  14.538
22483W        W94209  40.472  10.295   0.978
22484W        W94210  15.624  43.779  11.406
22485W        W94211  28.156   7.617  10.610
22486W        W94212   0.810  39.547   2.331
22487W        W94213  32.436  15.070   1.230
22488W        W94214   3.362  28.358  10.601
22489W        W94215  23.116  36.145  10.593
22490W        W94216  24.687  25.117  13.994
22491W        W94217  14.711   7.936   0.103
22492W        W94218  10.619   0.111   4.119
22493W        W94219  44.723  18.182  14.544
22494W        W94220  15.331  17.485  13.771
22495W        W94221  20.936   7.876  14.309
22496W        W94222  20.328  37.366   9.998
22497W        W94223  22.901  12.391   1.461
22498W        W94224  20.230  36.001   1.483
22499W        W94225   5.580  20.772  10.650
22500W        W94226   5.698  16.130  14.068
22501W        W94227  13.757  37.489   3.937
22502W        W94228   5.358  38.751  13.420
22503W        W94229   6.839  42.733  12.979
22504W        W94230   4.425  35.917   0.889
22505W        W94231  34.084  17.808   1.518
22506W        W94232  24.796  42.392   3.694
22507W        W94233  44.282  43.428  14.273
22508W        W94234  18.845  10.194  11.206
22509W        W94235  41.888  28.959   4.116
22510W        W94236   6.922   9.406   4.667
22511W        W94237  16.595  14.639   0.873
22512W        W94238  37.157  11.218   2.678
22513W        W94239  21.167  20.826   3.336
22514W        W94240  33.517  44.548   1.025
22515W        W94241   9.209  30.416   4.578
22516W        W94242   2.959  19.148   3.923
22517W        W94243   8.408  42.316   2.970
22518W        W94244  15.600   8.860  12.881
22519W        W94245  40.895   8.134  13.602
22520W        W94246   8.567  42.348  11.076
22521W        W94247  32.600  29.300   0.195
22522W        W94248  28.526  16.671   1.290
22523W        W94249   9.466   8.765  12.389
22524W        W94250  38.365   5.275   2.853
22525W        W94251   4.545  22.667  11.404
22526W        W94252  35.051   4.158   0.166
22527W        W94253  23.615  29.045   3.714
22528W        W94254  42.288  24.134   4.824
22529W        W94255   8.720   6.456  11.059
22530W        W94256  12.745   6.426  13.469
22531W        W94257   3.459   5.081  11.005
22532W        W94258  30.618   7.929  13.340
22533W        W94259  11.368  22.379   3.736
22534W        W94260  25.283  37.747  12.568
22535W        W94261   2.422   2.211   3.586
22536W        W94262  24.994  23.047   3.605
22537W        W94263  43.545  38.525  12.085
22538W        W94264   5.306   9.377   0.246
22539W        W94265  19.556   4.838  10.979
22540W        W94266   1.405  24.642  11.495
22541W        W94267  36.502  24.010  11.528
22542W        W94268  35.412  28.777  13.776
22543W        W94269  21.484   9.129   0.813
22544W        W94270  43.405  33.781  11.877
22545W        W94271  32.514  29.646   2.677
22546W        W94272  29.121  11.312   4.948
22547W        W94273  12.731  25.671  12.421
22548W        W94274  28.887  35.858   2.428
22549W        W94275  44.394  29.010   1.331
22550W        W94276  23.308  19.763  12.075
22551W        W94277  12.421  38.822   0.959
22552W        W94278  14.881   2.491  11.564
22553W        W94279  35.061  10.058   0.803
22554W        W94280   7.346  18.208   1.324
22555W        W94281  22.767   8.396  14.405
22556W        W94282  33.344  10.661  12.065
22557W        W94283  24.678  38.465   0.691
22558W        W94284   1.381  32.911   2.830
22559W        W94285  22.829  20.292  14.846
22560W        W94286  28.369  44.512  11.519
22561W        W94287  27.452  36.017  12.518
22562W        W94288  14.532  41.038   4.890
22563W        W94289  20.094  25.298  11.205
22564W        W94290  44.845   2.244   4.884
22565W        W94291  10.235  28.083   0.907
22566W        W94292  26.204  12.823  11.196
22567W        W94293  36.353   6.831   3.200
22568W        W94294   7.920  13.794  14.827
22569W        W94295   7.685   5.235  12.056
22570W        W94296   7.276  11.176  11.514
22571W        W94297   0.719   5.412   1.981
22572W        W94298  26.353   7.830   4.383
22573W        W94299  23.718   9.300   0.708
22574W        W94300  13.381  20.381  12.879
22575W        W94301  26.360   4.483   1.734
22576W        W94302  38.846  20.148  13.100
22577W        W94303  34.819   9.676   4.607
22578W        W94304  13.121  28.948   0.336
22579W        W94305   0.810  15.375   0.158
22580W        W94306  35.319   1.520   1.939
22581W        W94307  13.732  28.903  13.413
22582W        W94308  25.379  39.793  10.563
22583W        W94309  11.459  25.052  10.652
22584W        W94310  43.559  24.666  11.458
22585W        W94311   8.738  38.979  13.137
22586W        W94312  13.253   5.033  10.277
22587W        W94313   3.406  21.739  10.586
22588W        W94314  23.135   4.310  10.644
22589W        W94315   4.839  17.072   1.675
22590W        W94316  11.823  12.236   3.162
22591W        W94317   3.586  33.288   2.902
22592W        W94318   5.532  34.405   4.815
22593W        W94319   5.723  34.947   2.258
22594W        W94320  31.758  44.940   0.970
22595W        W94321  28.445  32.160   0.306
22596W        W94322  30.598  11.278  13.126
22597W        W94323  34.807  22.746  13.531
22598W        W94324   2.883   1.009  11.174
22599W        W94325  26.529  11.383  10.144
22600W        W94326   8.718  43.134   3.838
22601W        W94327  19.886  37.592   0.984
22602W        W94328  19.729  15.374   3.372
22603W        W94329  17.419  39.976   4.623
22604W        W94330  25.143  10.601   3.743
22605W        W94331  25.638  32.566   4.228
22606W        W94332  37.392  19.045  12.175
22607W        W94333  31.106  34.653  11.206
22608W        W94334  27.579   7.104   0.492
22609W        W94335  21.575  16.150  10.395
22610W        W94336  43.953   7.700   2.848
22611W        W94337  31.565   1.219  14.923
22612W        W94338  39.588   9.642   3.952
22613W        W94339   3.284  15.305  14.748
22614W        W94340  39.320   7.601  13.126
22615W        W94341  24.416  16.173  14.825
22616W        W94342  19.695   9.131   1.342
22617W        W94343   7.860  28.028   4.476
22618W        W94344  26.129  37.384   2.785
22619W        W94345   8.832  39.392  14.883
22620W        W94346  14.399  44.905  14.263
22621W        W94347  42.572  42.443  11.068
22622W        W94348   3.989  16.779   3.724
22623W        W94349  41.219  20.105   0.261
22624W        W94350  32.960  36.361   0.394
22625W        W94351   7.778   6.652  11.467
22626W        W94352  21.692  15.123  14.859
22627W        W94353  24.571  43.046  14.301
22628W        W94354  34.012  15.449  13.486
22629W        W94355  27.530  44.540  12.375
22630W        W94356  27.633  26.902   3.787
22631W        W94357  27.981  44.537  13.062
22632W        W94358  18.552   7.241  11.712
22633W        W94359  15.073  23.075  11.485
22634W        W94360  35.408  21.568  13.767
22635W        W94361  27.185  16.131  14.540
22636W        W94362  17.628  17.055   4.329
22637W        W94363   2.176   4.244   0.268
22638W        W94364  25.624  41.241  13.004
22639W        W94365  38.565   2.380   3.753
22640W        W94366  14.291  18.499  14.892
22641W        W94367   5.759  25.641   2.293
22642W        W94368   7.962  43.817  10.692
22643W        W94369  25.472  41.831  11.610
22644W        W94370   0.537   1.980   0.271
22645W        W94371   2.435   8.630   2.601
22646W        W94372   2.822  37.472  12.171
22647W        W94373  12.606  10.265  12.702
22648W        W94374   7.302  29.493   4.619
22649W        W94375  16.363  25.115   0.914
22650W        W94376  23.221  18.283  13.607
22651W        W94377   7.292  22.963  13.421
22652W        W94378  12.839   1.980   2.203
22653W        W94379  35.302  40.475  14.383
22654W        W94380  31.617  22.094   3.714
22655W        W94381   2.301  20.993  14.314
22656W        W94382  24.701  25.024   4.862
22657W        W94383   5.862   2.784  10.545
22658W        W94384  22.531   7.972   0.350
22659W        W94385  17.199  21.757  11.355
22660W        W94386  40.426  31.675   3.209
22661W        W94387   7.905  23.679  10.257
22662W        W94388  27.584  37.045  11.207
22663W        W94389  17.876  26.760   3.693
22664W        W94390  40.919  30.520  12.000
22665W        W94391   0.894   5.961  14.761
22666W        W94392  25.542  26.120  10.396
22667W        W94393   1.003  23.712   3.745
22668W        W94394  41.499  40.039  13.980
22669W        W94395  26.486  35.358   1.283
22670W        W94396   4.485  26.639   1.356
22671W        W94397  30.976   9.977  12.815
22672W        W94398  38.028  26.562  13.952
22673W        W94399  10.327  41.566  10.161
22674W        W94400  43.620  32.874   3.812
22675W        W94401  19.235  27.259  14.306
22676W        W94402  19.030  34.540   0.268
22677W        W94403  42.611  26.944   4.246
22678W        W94404  29.583  13.371  10.866
22679W        W94405  32.532  34.061   2.750
22680W        W94406  44.986  23.200  12.272
22681W        W94407   1.832  32.072  12.620
22682W        W94408  18.806  31.975   4.102
22683W        W94409  12.211  44.693  13.498
22684W        W94410  12.712  14.195   3.159
22685W        W94411  30.155  22.983   0.338
22686W        W94412   8.188  20.461  13.909
22687W        W94413  16.584  43.846  14.008
22688W        W94414  17.793  44.535  14.038
22689W        W94415  29.905  29.051   3.832
22690W        W94416  10.109  27.936   3.354
22691W        W94417  34.446  32.822   2.422
22692W        W94418  22.641  31.902   1.845
22693W        W94419  24.145  19.587   2.633
22694W        W94420  34.922   7.621  13.160
22695W        W94421  41.927  40.290  11.052
22696W        W94422  32.512  23.038   4.122
22697W        W94423  22.638   5.273  13.523
22698W        W94424  33.341   1.267  10.726
22699W        W94425   9.165   1.259   3.270
22700W        W94426  43.133  24.906  11.687
22701W        W94427   2.762   4.121   2.769
22702W        W94428  34.680  39.780  12.906
22703W        W94429  15.567  11.690   1.222
22704W        W94430  26.670  13.321  11.955
22705W        W94431   4.274   4.956  13.776
22706W        W94432   2.278  34.790  11.641
22707W        W94433  23.362  25.730  14.130
22708W        W94434  35.381   5.984   3.359
22709W        W94435   4.258  17.586   1.890
22710W        W94436   3.380  43.009   3.291
22711W        W94437   0.894  14.389   1.416
22712W        W94438   9.749  21.571   4.755
22713W        W94439  12.168  16.063  12.523
22714W        W94440  15.407   5.526   1.417
22715W        W94441  34.591  25.350  12.618
22716W        W94442  39.296  11.765  14.906
22717W        W94443  38.592  43.293   1.645
22718W        W94444  36.384  38.449   0.287
22719W        W94445  29.424  15.307  12.767
22720W        W94446  12.357  30.054  12.466
22721W        W94447   7.165  37.494   2.937
22722W        W94448  28.471  20.106  11.722
22723W        W94449   3.183  35.593  13.547
22724W        W94450  28.546  24.845  10.786
22725W        W94451  30.337  33.451   3.658
22726W        W94452  20.973  23.201   1.853
22727W        W94453  37.976  10.689   0.828
22728W        W94454   2.287   9.429   1.247
22729W        W94455   1.037   2.780  14.891
22730W        W94456   6.630  42.309   2.029
22731W        W94457   8.197  13.386  10.940
22732W        W94458  41.357   1.279  11.474
22733W        W94459  42.729   6.752  11.020
22734W        W94460  19.093   2.543   3.361
22735W        W94461  31.008  44.261  12.362
22736W        W94462  42.495   1.287   3.901
22737W        W94463   4.617  35.979  13.940
22738W        W94464  11.370  18.299  14.306
22739W        W94465  22.143  32.201   2.360
22740W        W94466  23.197  25.189   3.763
22741W        W94467  17.809  16.824   4.745
22742W        W94468  30.176   1.959  13.042
22743W        W94469   4.354  42.809   4.798
22744W        W94470   8.315  35.119   3.846
22745W        W94471   0.267  39.347   0.468
22746W        W94472  38.821  29.642  12.462
22747W        W94473  36.749  42.939   2.615
22748W        W94474   6.179  28.580   3.089
22749W        W94475  31.166  34.692   0.284
22750W        W94476  44.440  10.281  14.206
22751W        W94477   1.288  39.281   1.026
22752W        W94478   5.240  10.390   4.825
22753W        W94479  38.181   3.486   3.752
22754W        W94480  25.497   5.880   1.615
22755W        W94481  13.541  11.693  13.611
22756W        W94482  21.084  16.645  11.953
22757W        W94483   1.026  15.201   1.007
22758W        W94484  29.691  32.676  14.416
22759W        W94485  37.803  11.218  14.403
22760W        W94486   5.961  25.991  12.594
22761W        W94487  35.470  14.165   0.423
22762W        W94488  23.961  25.030   0.860
22763W        W94489   3.541  12.740  12.570
22764W        W94490  16.986   2.618  10.855
22765W        W94491  32.147   4.857   0.323
22766W        W94492   9.633  10.116   3.266
22767W        W94493  13.571  24.197   3.114
22768W        W94494  40.251   5.694  13.158
22769W        W94495  19.660   6.844   0.012
22770W        W94496  22.601  41.480  12.285
22771W        W94497  33.506  31.141   2.797
22772W        W94498  23.141  20.241   4.344
22773W        W94499  20.720   9.569  14.891
22774W        W94500   9.625  14.864  11.455
22775W        W94501  25.368  29.753   2.297
22776W        W94502   0.878   0.320  11.782
22777W        W94503  42.009  17.514   2.768
22778W        W94504  42.683  21.187   1.795
22779W        W94505  26.199  23.780  11.545
22780W        W94506  36.806  27.035   0.728
22781W        W94507  36.948  22.642  12.552
22782W        W94508  28.169  33.043  12.034
22783W        W94509  13.987  28.717   3.930
22784W        W94510  36.127  26.028   4.663
22785W        W94511  44.186  26.073   1.752
22786W        W94512  31.050  37.409  12.383
22787W        W94513  25.216  24.650   1.377
22788W        W94514  22.551  30.537   1.861
22789W        W94515  26.559  18.314  14.922
22790W        W94516   4.482  44.423  13.028
22791W        W94517  40.787  26.995  13.736
22792W        W94518  41.231   1.174   0.784
22793W        W94519  42.058  38.795  14.529
22794W        W94520   9.720  31.010   0.509
22795W        W94521  40.421  29.055   0.749
22796W        W94522  34.165  21.640   0.559
22797W        W94523  40.480  32.883   2.240
22798W        W94524  14.389  35.035  12.952
22799W        W94525   1.789  32.644  11.831
22800W        W94526  15.158  13.012  11.615
22801W        W94527   9.282  18.149  11.734
22802W        W94528   8.806   7.935  13.437
22803W        W94529  25.252  32.965  11.579
22804W        W94530  43.089  16.660   1.432
22805W        W94531  20.014  38.873   2.367
22806W        W94532  20.249  40.678  10.879
22807W        W94533  13.084   9.205  13.633
22808W        W94534   7.102  33.442   1.635
22809W        W94535  15.140   0.253  13.076
22810W        W94536  27.568   9.314  10.535
22811W        W94537  26.419   4.371   2.555
22812W        W94538  15.686  26.600   4.128
22813W        W94539  23.634  44.016  12.064
22814W        W94540   0.931  12.199  14.617
22815W        W94541  26.413  22.146   0.015
22816W        W94542  27.943  23.773   4.048
22817W        W94543  22.774  10.613  12.718
22818W        W94544  33.089  20.191  13.508
22819W        W94545  32.479  37.997   1.949
22820W        W94546  14.216  29.604   2.213
22821W        W94547  21.235   1.904   1.915
22822W        W94548   8.915  20.585  11.006
22823W        W94549  39.315  26.545  11.199
22824W        W94550  26.924  29.012  14.797
22825W        W94551  19.495   3.902   1.829
22826W        W94552  26.647  30.914  11.604
22827W        W94553  43.832  30.972   3.842
22828W        W94554   7.840  16.758  14.459
22829W        W94555  25.904  29.888  12.704
22830W        W94556  32.536  42.994  11.571
22831W        W94557  30.213  31.611   4.165
22832W        W94558  13.064  22.592  13.057
22833W        W94559   7.477   9.927  12.428
22834W        W94560  42.295  23.546  10.622
22835W        W94561  41.253  11.593  13.071
22836W        W94562  41.427  38.110   3.468
22837W        W94563  14.120  23.138   4.188
22838W        W94564  24.197  32.462   0.904
22839W        W94565   9.801  37.936  12.529
22840W        W94566  39.068   5.660   2.171
22841W        W94567   2.240  42.905   1.266
22842W        W94568  16.487  18.849  14.455
22843W        W94569  27.571   8.353   2.059
22844W        W94570  28.646  33.963   1.046
22845W        W94571  40.240  37.123  10.423
22846W        W94572  32.811  10.785  14.828
22847W        W94573  22.770   0.288   2.452
22848W        W94574  27.911  29.510   0.506
22849W        W94575  44.210  32.758  13.866
22850W        W94576  33.191  40.020  13.867
22851W        W94577  41.265  36.877   1.380
22852W        W94578  43.398  38.046   2.259
22853W        W94579   2.967  32.075   3.766
22854W        W94580  17.149  14.904   1.406
22855W        W94581  23.053  35.906   1.666
22856W        W94582  28.909  33.530  13.916
22857W        W94583  22.295  13.071  10.667
22858W        W94584  26.634  33.515  11.500
22859W        W94585   1.978  30.394  11.197
22860W        W94586  31.584  43.017  14.369
22861W        W94587  20.481   0.708   2.292
22862W        W94588  19.588  19.915   0.351
22863W        W94589  18.737  34.891  11.579
22864W        W94590  38.137  33.826   3.733
22865W        W94591  36.055  37.863   3.736
22866W        W94592  12.756   7.934   1.953
22867W        W94593  20.407  44.225   3.179
22868W        W94594  27.096   8.960   4.324
22869W        W94595  15.741  30.418   4.317
22870W        W94596  15.329  41.026  11.032
22871W        W94597  25.152  37.526   1.636
22872W        W94598   0.955  21.352  11.092
22873W        W94599   1.708   5.667  14.427
22874W        W94600  24.447  34.029   1.868
22875W        W94601  13.363  28.490   3.130
22876W        W94602  42.971  10.785  12.491
22877W        W94603   9.520  22.014   2.662
22878W        W94604  19.650  44.020  14.438
22879W        W94605  26.445  14.154   2.420
22880W        W94606  42.525   8.966   4.164
22881W        W94607  39.950  11.816   0.707
22882W        W94608  26.668  44.348   0.356
22883W        W94609  13.337  39.100  12.371
22884W        W94610  43.424  34.695  11.022
22885W        W94611  41.746   6.964   2.729
22886W        W94612  21.755  16.418   2.865
22887W        W94613  38.587  10.798  10.292
22888W        W94614   3.499  15.176  10.086
22889W        W94615   5.651   7.258   0.053
22890W        W94616   0.496  23.768  13.503
22891W        W94617  11.591  13.952  14.292
22892W        W94618   5.655  42.088   3.193
22893W        W94619  36.460  44.018   3.765
22894W        W94620   6.881   8.939  14.521
22895W        W94621  25.757   9.144   3.195
22896W        W94622  37.861  28.576  13.083
22897W        W94623  19.974  15.808   1.838
22898W        W94624   5.469   4.760   3.293
22899W        W94625  27.396  31.007  13.999
22900W        W94626  43.724  29.810  12.987
22901W        W94627  12.513   4.595  12.127
22902W        W94628  15.228  40.352   0.434
22903W        W94629  12.840   2.956  14.488
22904W        W94630  15.024  33.669   3.637
22905W        W94631  17.791   6.736  11.629
22906W        W94632   7.354  30.463   3.597
22907W        W94633   7.280  34.652   4.707
22908W        W94634   1.802  12.906  10.760
22909W        W94635  11.869  30.529   3.618
22910W        W94636  32.945  15.163   1.202
22911W        W94637  16.804  42.173   2.719
22912W        W94638  17.862  19.697  13.919
22913W        W94639  33.769  20.522   0.815
22914W        W94640  44.083  30.667   0.446
22915W        W94641  32.603   0.264  11.720
22916W        W94642  16.110  40.091  13.061
22917W        W94643  16.117  34.484  10.475
22918W        W94644  37.010  20.569   4.348
22919W        W94645   6.130   1.831   4.267
22920W        W94646   8.573   0.369  11.218
22921W        W94647  41.325  29.025   2.204
22922W        W94648  22.576   5.454   9.810
22923W        W94649  32.089  10.712  11.865
22924W        W94650  10.382   9.904  11.712
22925W        W94651   7.037  19.101   2.812
22926W        W94652  44.761  30.123  13.041
22927W        W94653  32.507   2.757   4.897
22928W        W94654  27.578   9.261  13.889
22929W        W94655  31.034  38.625   0.017
22930W        W94656  20.734  10.833  14.326
22931W        W94657  17.623   9.128  14.902
22932W        W94658  31.383  29.629  12.457
22933W        W94659  28.290  18.286   2.239
22934W        W94660  20.107  26.185   0.290
22935W        W94661  26.223   7.765  13.059
22936W        W94662  44.619  34.850   3.298
22937W        W94663  39.906  33.044  11.214
22938W        W94664  35.520   4.914  12.903
22939W        W94665  32.609  41.237   2.741
22940W        W94666  11.335   2.304   4.372
22941W        W94667  40.813  33.261   2.193
22942W        W94668   9.742  18.178  11.967
22943W        W94669  19.194  19.042  13.565
22944W        W94670  16.683   8.712  14.823
22945W        W94671  24.082   6.334   3.639
22946W        W94672  16.855  25.180   3.804
22947W        W94673   8.398   1.277   0.742
22948W        W94674  18.176  34.110   2.428
22949W        W94675  27.367  24.825  11.644
22950W        W94676  11.120  17.131   3.701
22951W        W94677   6.642   1.269  12.040
22952W        W94678  26.472  12.849   0.696
22953W        W94679  20.835  40.019   1.844
22954W        W94680   0.068  34.157   2.800
22955W        W94681  16.206  10.091   1.070
22956W        W94682   1.494  27.965  12.177
22957W        W94683  14.520  12.846   2.684
22958W        W94684  42.788   8.288  13.925
22959W        W94685   2.215   7.858   4.249
22960W        W94686   6.281  34.138   0.992
22961W        W94687  37.386  36.808  11.239
22962W        W94688  35.921  22.422   3.166
22963W        W94689   0.892  20.791  11.115
22964W        W94690  14.580  21.635  11.163
22965W        W94691   8.721   8.022  12.887
22966W        W94692  17.713   8.340  13.095
22967W        W94693  21.723   8.316  10.507
22968W        W94694  37.337   8.312  10.531
22969W        W94695  19.646  17.315  11.164
22970W        W94696   7.228  18.287   2.554
22971W        W94697   2.197   7.430   2.648
22972W        W94698  10.433  16.229  11.596
22973W        W94699  21.233  10.349  10.736
22974W        W94700  38.027  17.793   1.854
22975W        W94701   1.072  31.076  14.943
22976W        W94702   4.187   4.328   3.259
22977W        W94703  26.219  13.096   1.520
22978W        W94704  20.667  24.194  12.340
22979W        W94705  39.452  30.394   2.598
22980W        W94706  27.887  42.767  13.466
22981W        W94707  31.343  19.621   4.788
22982W        W94708  18.116  17.868  14.742
22983W        W94709   5.846  40.526   2.325
22984W        W94710  14.107  29.964   0.215
22985W        W94711  38.894  44.797  13.619
22986W        W94712   4.510  26.546   0.454
22987W        W94713  15.314  29.032   1.358
22988W        W94714   1.518  11.217  12.589
22989W        W94715   1.533   9.408   2.314
22990W        W94716  15.861  11.819   3.038
22991W        W94717  39.889  40.373  10.676
22992W        W94718  21.182   4.625   3.297
22993W        W94719  18.629  12.294   0.077
22994W        W94720  12.099  18.274  14.914
22995W        W94721  29.358  36.446   3.170
22996W        W94722  39.839  10.403   0.274
22997W        W94723  21.625  32.092   3.373
22998W        W94724  29.681  36.487  10.649
22999W        W94725  38.325  21.707   4.505
23000W        W94726  12.412  25.113  14.057
23001W        W94727  11.304  30.575  10.542
23002W        W94728   5.695   3.694   0.193
23003W        W94729  23.206  30.905  11.033
23004W        W94730   8.016   5.102   0.838
23005W        W94731   4.192  32.586  11.216
23006W        W94732  28.402  32.610  11.935
23007W        W94733  13.278  26.409  13.904
23008W        W94734  33.415  19.270   3.096
23009W        W94735  39.757   1.701  13.002
23010W        W94736   1.838  22.422   3.186
23011W        W94737   1.234  16.294   0.978
23012W        W94738   1.893  37.517   0.240
23013W        W94739  15.703   6.388   4.125
23014W        W94740  40.854  34.528   1.840
23015W        W94741   8.860  14.199   3.621
23016W        W94742  32.419  23.961  10.682
23017W        W94743  25.141  13.738  13.245
23018W        W94744  23.871  18.163   2.780
23019W        W94745   7.089  42.901  11.089
23020W        W94746  36.265  29.942  13.321
23021W        W94747  31.509   2.611   1.240
23022W        W94748   5.398   2.989  10.368
23023W        W94749  23.204  24.453   0.398
23024W        W94750  28.699  16.306  12.930
23025W        W94751  20.569   4.241  10.717
23026W        W94752  24.252  40.325  11.981
23027W        W94753  10.358  15.082   1.201
23028W        W94754   7.244  22.497   2.820
23029W        W94755  31.535   3.214  13.545
23030W        W94756  44.328  44.952  13.155
23031W        W94757  33.417  17.359  11.584
23032W        W94758  12.535  21.947  13.866
23033W        W94759  36.918  33.620   0.384
23034W        W94760  15.145  32.297   0.999
23035W        W94761  30.503  43.755   1.755
23036W        W94762   7.037  24.751  11.935
23037W        W94763  36.407   5.204  13.643
23038W        W94764  24.199  18.841   3.114
23039W        W94765  35.478  29.841  14.881
23040W        W94766   4.175  19.428   2.306
23041W        W94767  37.101  13.052   4.226
23042W        W94768   4.758  37.177   5.104
23043W        W94769   4.918  17.994  12.071
23044W        W94770  35.353   9.436   1.808
23045W        W94771  20.462  44.136   1.768
23046W        W94772   7.376  20.706   4.180
23047W        W94773  36.479  16.622  11.694
23048W        W94774  22.539  36.852  11.511
23049W        W94775   6.174  42.384  10.659
23050W        W94776  43.269   1.514   2.868
23051W        W94777  26.052  37.303  13.828
23052W        W94778  13.363  33.477   1.537
23053W        W94779  13.681   3.921  14.111
23054W        W94780   0.841   4.015  13.450
23055W        W94781  19.386  34.880   0.408
23056W        W94782  34.124  16.152  14.833
23057W        W94783   3.720  36.441   2.824
23058W        W94784  37.170  22.159  11.641
23059W        W94785   4.524  30.800  12.495
23060W        W94786  15.110  41.099   1.183
23061W        W94787  27.662   8.364  14.009
23062W        W94788  41.850  31.740  11.246
23063W        W94789  18.494  21.097   1.752
23064W        W94790  30.198   9.868   2.267
23065W        W94791  24.546  42.721  13.909
23066W        W94792   6.503  35.834  11.242
23067W        W94793   6.582   8.428   0.223
23068W        W94794   1.553  35.808  14.592
23069W        W94795  33.099   3.905  14.002
23070W        W94796  39.312   1.477  12.889
23071W        W94797  30.491  39.297  11.692
23072W        W94798  12.840  11.631  14.384
23073W        W94799   7.210  18.404  12.963
23074W        W94800  14.681   9.535  14.316
23075W        W94801   6.982   4.913   1.232
23076W        W94802  44.278  20.252   1.322
23077W        W94803  17.012  33.062   0.682
23078W        W94804   8.890  18.539   3.869
23079W        W94805  31.294  17.360   5.183
23080W        W94806  41.126  42.828   0.273
23081W        W94807  26.967   4.859   4.324
23082W        W94808  11.319  13.188  14.536
23083W        W94809  19.538  21.549   4.238
23084W        W94810  21.942  38.373   1.731
23085W        W94811  23.476  26.154   5.003
23086W        W94812  12.413  36.310   2.925
23087W        W94813  36.840  23.622  10.756
23088W        W94814  28.063   2.862  13.862
23089W        W94815  28.594   6.341   0.680
23090W        W94816   4.281  19.290   3.350
23091W        W94817  33.319  10.927  13.755
23092W        W94818   3.509  18.418   3.040
23093W        W94819  30.445  23.596   4.859
23094W        W94820  39.491  30.984   3.935
23095W        W94821  41.405  39.623  10.515
23096W        W94822   4.157  32.342   3.578
23097W        W94823  22.261   1.439  14.787
23098W        W94824  39.490  36.353  14.930
23099W        W94825  44.934  25.564  11.924
23100W        W94826  16.280  20.651  13.267
23101W        W94827  25.752  27.031  10.807
23102W        W94828  30.144   7.591   0.551
23103W        W94829  17.785  24.814   2.385
23104W        W94830   3.319  18.535  14.999
23105W        W94831  25.406  11.485   2.841
23106W        W94832  25.008   6.112   0.202
23107W        W94833  36.088  15.547   2.854
23108W        W94834  22.050   6.387   2.788
23109W        W94835  13.291   9.206   0.567
23110W        W94836   6.475  35.491   3.587
23111W        W94837  43.502   8.935  10.937
23112W        W94838  34.006  25.942   3.754
23113W        W94839   3.697  35.547  14.451
23114W        W94840  44.286   4.662   1.051
23115W        W94841  34.116  13.231  11.116
23116W        W94842  38.216   2.197   0.858
23117W        W94843  33.536   6.404  13.390
23118W        W94844  39.138  33.456  12.971
23119W        W94845  24.078   1.413  14.025
23120W        W94846  44.280  41.093   0.811
23121W        W94847  18.888  33.051   1.727
23122W        W94848  38.822  38.938  14.287
23123W        W94849  14.731  33.892   1.891
23124W        W94850  38.042  34.107  12.799
23125W        W94851  27.664  24.497  13.810
23126W        W94852  14.353  29.104   3.819
23127W        W94853  39.865  10.133   2.853
23128W        W94854  41.032  18.566   1.939
23129W        W94855  20.343  29.439   4.139
23130W        W94856  18.524  14.004   4.183
23131W        W94857   0.759  25.315  11.105
23132W        W94858  42.913   3.155   3.243
23133W        W94859  44.881   0.015   1.149
23134W        W94860   3.491   4.514  12.872
23135W        W94861  39.631   2.397   1.722
23136W        W94862   6.656  40.305  12.138
23137W        W94863   1.839  10.352   0.037
23138W        W94864  10.889  22.997   5.121
23139W        W94865  38.004  25.757  13.441
23140W        W94866  39.487  33.878   1.451
23141W        W94867  40.986  33.639  13.000
23142W        W94868   8.603   9.755   3.899
23143W        W94869   5.276   8.878  11.527
23144W        W94870  34.180  22.886  13.543
23145W        W94871  41.742  41.325  14.219
23146W        W94872  35.005  22.210  12.367
23147W        W94873  31.911   5.564   0.952
23148W        W94874   8.612  12.691   0.225
23149W        W94875  26.209  36.798  13.859
23150W        W94876   0.185   8.246   1.147
23151W        W94877  25.569   7.173  12.481
23152W        W94878   7.440  28.048   1.308
23153W        W94879  17.598  32.603  12.059
23154W        W94880  10.870  43.602  11.967
23155W        W94881   3.813  20.150   3.209
23156W        W94882  13.323   4.568   1.022
23157W        W94883  31.571   3.717   2.634
23158W        W94884   0.520  21.982   1.832
23159W        W94885   2.043  11.884   0.930
23160W        W94886   3.444  27.486   1.318
23161W        W94887  25.225  14.584   2.305
23162W        W94888  31.981  28.126   4.729
23163W        W94889   9.319  42.520   4.409
23164W        W94890  28.933  24.081  14.963
23165W        W94891   0.904  34.992   3.580
23166W        W94892  33.845  10.511   1.317
23167W        W94893   8.703   2.699   1.584
23168W        W94894  41.959  22.334  10.926
23169W        W94895  22.704  18.593  13.051
23170W        W94896  18.528  32.580   0.202
23171W        W94897  14.031  33.512  11.137
23172W        W94898  26.055  26.250  10.444
23173W        W94899  12.060  25.730  14.796
23174W        W94900   9.578   1.877   0.290
23175W        W94901  30.999   3.698  10.525
23176W        W94902  41.524  39.890   1.386
23177W        W94903  30.486  16.605  13.965
23178W        W94904   3.647  19.001  11.011
23179W        W94905  16.344  40.341  14.879
23180W        W94906   9.830  38.783   0.979
23181W        W94907  17.778  23.066   4.612
23182W        W94908  22.227   6.090  13.013
23183W        W94909  16.710  14.052  14.465
23184W        W94910  37.547   1.277  10.589
23185W        W94911  33.252  17.822   1.792
23186W        W94912  40.188  16.740   4.163
23187W        W94913  16.990  39.272  14.421
23188W        W94914  28.336  43.038   4.581
23189W        W94915  36.128  27.700   1.849
23190W        W94916   9.943  32.694   1.992
23191W        W94917  26.533  14.837  13.870
23192W        W94918   5.415  30.844  14.130
23193W        W94919  33.839  17.689   2.943
23194W        W94920  27.607  40.957  13.552
23195W        W94921  41.821  36.819  12.370
23196W        W94922   3.006  38.822   4.243
23197W        W94923  18.366  22.177  12.887
23198W        W94924   8.287   6.023   5.492
23199W        W94925  37.292  28.092  11.959
23200W        W94926  38.716   4.665  11.157
23201W        W94927   6.686  28.229  13.140
23202W        W94928   6.260   3.781  12.610
23203W        W94929   1.278  41.804   3.724
23204W        W94930  35.427  34.602   0.322
23205W        W94931   0.430  16.842   0.291
23206W        W94932  42.380  31.005   0.132
23207W        W94933  37.264   0.278  10.249
23208W        W94934  10.328  26.274   2.159
23209W        W94935  25.205   2.314  13.079
23210W        W94936  31.434  24.537   1.156
23211W        W94937  32.638  31.498   1.410
23212W        W94938  28.864  20.683   4.554
23213W        W94939  32.431   3.251   0.482
23214W        W94940  12.372  10.314   1.273
23215W        W94941  20.332  28.573  13.655
23216W        W94942   0.565   8.177  11.852
23217W        W94943   7.916   7.892  12.577
23218W        W94944  39.547  12.416   3.114
23219W        W94945  35.938   7.822   1.043
23220W        W94946  31.182  11.453   4.172
23221W        W94947  26.754  35.150  11.850
23222W        W94948  28.637  12.768  11.622
23223W        W94949  17.615   6.494   4.633
23224W        W94950  21.754  31.396   1.462
23225W        W94951   7.392  24.166  11.189
23226W        W94952  19.768  12.938  12.507
23227W        W94953  31.929   4.279   3.406
23228W        W94954   6.297  21.242   1.580
23229W        W94955  27.467  32.461  10.673
23230W        W94956   8.655   1.269  14.366
23231W        W94957  32.944  38.666  13.932
23232W        W94958  44.965  23.654  11.126
23233W        W94959  19.073  10.206  13.679
23234W        W94960  32.485  27.875   0.293
23235W        W94961  23.271  23.820  13.483
23236W        W94962   0.756   6.738   1.393
23237W        W94963  19.059  25.230  14.736
23238W        W94964   7.407  27.933   2.766
23239W        W94965  11.405  36.502  13.096
23240W        W94966  44.867  41.437   2.147
23241W        W94967  16.187  26.308  10.387
23242W        W94968  15.605  37.825   1.318
23243W        W94969   4.744  37.007  13.480
23244W        W94970  31.963  34.936   4.167
23245W        W94971   4.337  23.602  11.046
23246W        W94972  38.495   5.847   5.164
23247W        W94973   2.825  17.261  14.897
23248W        W94974  18.039  30.143  13.038
23249W        W94975   9.422  33.977  12.180
23250W        W94976   7.442   4.488   1.192
23251W        W94977  14.734   7.186  12.722
23252W        W94978  35.654  24.534   0.205
23253W        W94979  17.377  22.473  12.060
23254W        W94980   0.950  11.693  11.238
23255W        W94981  36.971  29.514  12.384
23256W        W94982  14.620  14.553  12.078
23257W        W94983  43.048  14.407  14.974
23258W        W94984   3.905   1.072  11.176
23259W        W94985   7.101  44.933  12.556
23260W        W94986  13.761   0.329  13.539
23261W        W94987  40.389  33.000  12.471
23262W        W94988   1.109  33.545   3.283
23263W        W94989  10.358  34.159   0.829
23264W        W94990   9.529  32.926   1.819
23265W        W94991  22.073  38.058   4.810
23266W        W94992  35.434   7.193  11.964
23267W        W94993  35.513   3.758  11.021
23268W        W94994  10.326  39.989   1.979
23269W        W94995  44.174  14.271  12.945
23270W        W94996  33.833  44.945   3.842
23271W        W94997  36.380  15.767  13.549
23272W        W94998  32.109   5.809   3.509
23273W        W94999  32.740  40.333  13.422
23274W        W95000  19.812   3.302  10.039
23275W        W95001  33.504  15.601   1.849
23276W        W95002  13.357   1.805   3.108
23277W        W95003  12.263  37.429   2.259
23278W        W95004  11.150  17.197  12.516
23279W        W95005   6.076  25.682  11.113
23280W        W95006  43.381  31.701  13.704
23281W        W95007  13.200  40.043   4.233
23282W        W95008  21.656  19.340  10.502
23283W        W95009  10.153  30.091  13.549
23284W        W95010   3.732  32.633   3.797
23285W        W95011  15.324  40.305  13.264
23286W        W95012   8.760  39.245   3.347
23287W        W95013  15.203  26.383   3.264
23288W        W95014   0.427  41.476   4.868
23289W        W95015   5.516  36.600  14.827
23290W        W95016  20.953   1.076   1.560
23291W        W95017  42.410  14.581  13.784
23292W        W95018  16.237  18.156   0.763
23293W        W95019   0.428  23.122   2.288
23294W        W95020  43.716  43.538  14.545
23295W        W95021  26.685  31.136  13.487
23296W        W95022   2.499  40.133   1.695
23297W        W95023  32.584  17.959  13.519
23298W        W95024  38.883  29.467  11.976
23299W        W95025  28.125  38.820   1.173
23300W        W95026   5.224  16.304   0.807
23301W        W95027   8.241  14.054  14.490
23302W        W95028  38.763  13.236  10.120
23303W        W95029  38.404  36.990   4.147
23304W        W95030  12.423   2.823  10.768
23305W        W95031  40.787  36.576  14.070
23306W        W95032   6.423  28.179  12.151
23307W        W95033   7.857   8.176   1.957
23308W        W95034  27.085  13.787  14.365
23309W        W95035   5.560   3.489  10.288
23310W        W95036   3.608  32.742  14.463
23311W        W95037   9.706  25.203   0.533
23312W        W95038  40.894  37.074   1.829
23313W        W95039  37.398  36.025   1.486
23314W        W95040   6.511  29.475  11.459
23315W        W95041  31.509  16.151   1.190
23316W        W95042  17.344  43.069   3.247
23317W        W95043  10.203   5.872  10.706
23318W        W95044  44.416  34.930   4.702
23319W        W95045   9.766  21.316   0.603
23320W        W95046  12.857  24.151   1.872
23321W        W95047   7.727  11.853   1.699
23322W        W95048  42.483  20.222   3.871
23323W        W95049  28.478  22.104  13.948
23324W        W95050  34.716  20.006   0.256
23325W        W95051  29.775  15.079  14.767
23326W        W95052  30.172  29.157   0.778
23327W        W95053   3.641  40.490  11.884
23328W        W95054   3.445  41.918   5.061
23329W        W95055  22.141  28.114  13.429
23330W        W95056   9.281  28.691  14.841
23331W        W95057  29.029  27.913  13.352
23332W        W95058  19.500  15.785   3.544
23333W        W95059  38.952  28.463   2.357
23334W        W95060  17.470  31.933   0.768
23335W        W95061   9.940  28.739   2.966
23336W        W95062   9.746  12.434   3.824
23337W        W95063   5.791  21.339  11.222
23338W        W95064   1.199   6.330   4.896
23339W        W95065  34.044  23.123   0.974
23340W        W95066   2.021  16.579   1.618
23341W        W95067  40.572  22.532   3.644
23342W        W95068   9.688  24.003  10.664
23343W        W95069  20.460  19.232  14.442
23344W        W95070  36.422  25.235   4.243
23345W        W95071  36.352  15.825  11.248
23346W        W95072   1.792  21.702   4.010
23347W        W95073  10.007  40.229   2.839
23348W        W95074  10.135  15.546   4.741
23349W        W95075  21.450  37.121  13.554
23350W        W95076  43.311  18.658  10.692
23351W        W95077  23.769  32.218  11.115
23352W        W95078  34.034  34.153  14.076
23353W        W95079  14.547  29.075   1.455
23354W        W95080   2.788   4.865   4.142
23355W        W95081   1.019  19.595   1.226
23356W        W95082  21.644  28.457  10.520
23357W        W95083  43.190   1.316   4.780
23358W        W95084  35.022   2.987  13.950
23359W        W95085   9.288  13.142   4.709
23360W        W95086  37.472  33.443  13.745
23361W        W95087  35.643  14.142  13.799
23362W        W95088  39.290   9.272   3.761
23363W        W95089  12.972  12.018  12.017
23364W        W95090  12.266  37.340   3.435
23365W        W95091  27.700   2.349   2.847
23366W        W95092  14.662   5.782   1.002
23367W        W95093  34.172  12.428  13.875
23368W        W95094  24.591  41.227   2.699
23369W        W95095  15.699  16.952  12.598
23370W        W95096   1.394  31.885   3.771
23371W        W95097  13.248  30.099   0.806
23372W        W95098  16.388  23.218  13.118
23373W        W95099  11.878  17.820  13.752
23374W        W95100  22.530  37.658   1.092
23375W        W95101  42.816  15.397  12.087
23376W        W95102  27.224  12.187   3.194
23377W        W95103  42.083   0.854   2.012
23378W        W95104   5.326  13.049  13.634
23379W        W95105  39.559  23.511  11.681
23380W        W95106  29.164  41.161   4.754
23381W        W95107  22.633  22.344   4.600
23382W        W95108   1.458  32.524   0.690
23383W        W95109   1.213   1.788  14.534
23384W        W95110   7.364   2.480   1.784
23385W        W95111  29.049  24.001   1.318
23386W        W95112  22.694  42.549  11.184
23387W        W95113  35.459   8.199   1.319
23388W        W95114   3.448  42.440   3.378
23389W        W95115  38.144  36.450   2.666
23390W        W95116   1.322  41.559   3.011
23391W        W95117  34.449  43.554   4.103
23392W        W95118  25.199   5.629   3.725
23393W        W95119  22.447  17.263   3.741
23394W        W95120  17.834  14.986   1.416
23395W        W95121  23.952   9.439   3.810
23396W        W95122  43.068  38.782   4.639
23397W        W95123  41.916  44.974  13.468
23398W        W95124  31.662  23.777   5.518
23399W        W95125  13.772  38.398   2.185
23400W        W95126   4.525  40.732  12.143
23401W        W95127  30.853  24.618   2.235
23402W        W95128  42.743  33.970  11.716
23403W        W95129  36.812  37.503  13.759
23404W        W95130   2.335  26.298   4.553
23405W        W95131  39.799   2.205  13.062
23406W        W95132  36.043   2.725   0.509
23407W        W95133  35.622  16.259   3.573
23408W        W95134   7.687  12.278   3.691
23409W        W95135   0.407  20.787   2.407
23410W        W95136   4.152  12.194   0.294
23411W        W95137   7.814  44.529   4.550
23412W        W95138  38.543  12.141  10.542
23413W        W95139  41.463  23.581   0.236
23414W        W95140  27.681  16.269  12.926
23415W        W95141  20.867  24.250   3.751
23416W        W95142  18.819  10.680  11.025
23417W        W95143  12.362  42.452  13.071
23418W        W95144  10.901  43.012   2.619
23419W        W95145  14.817  14.286   0.901
23420W        W95146  34.557  21.987  11.635
23421W        W95147   6.422  25.245  12.523
23422W        W95148  22.256   8.746   5.075
23423W        W95149  11.990   8.782   3.179
23424W        W95150  20.728  11.882  14.420
23425W        W95151  22.488  13.633   1.954
23426W        W95152   0.782   6.290   2.633
23427W        W95153  26.086  43.900  13.841
23428W        W95154   6.798  36.424  11.587
23429W        W95155  14.993   9.333   3.020
23430W        W95156   9.468  43.876  13.282
23431W        W95157  27.600  16.042  11.633
23432W        W95158  40.997  24.401   0.059
23433W        W95159  31.084  12.157   0.826
23434W        W95160  39.371  39.914  13.496
23435W        W95161  24.969  36.945   3.350
23436W        W95162  23.350   6.326   2.923
23437W        W95163  10.195  38.595   0.692
23438W        W95164  36.126   4.974   4.762
23439W        W95165  14.615  22.085   3.376
23440W        W95166   9.186  42.045   0.928
23441W        W95167   8.861   0.158  12.201
23442W        W95168  33.011  42.803  10.477
23443W        W95169  14.424   3.936   4.622
23444W        W95170  15.792  13.899   5.005
23445W        W95171   5.442  44.629  11.514
23446W        W95172   1.939  21.989  12.944
23447W        W95173   5.827  39.792   1.184
23448W        W95174   0.227   8.499   0.344
23449W        W95175  11.128  17.356   1.263
23450W        W95176  36.543  13.730  13.750
23451W        W95177  39.461  27.460  11.387
23452W        W95178  24.619  16.844   4.535
23453W        W95179  28.538  42.311   2.852
23454W        W95180  42.055  35.360   1.899
23455W        W95181  10.460  36.555   0.157
23456W        W95182   2.222  36.939   0.311
23457W        W95183   7.016   4.475   3.769
23458W        W95184  30.975  27.039  11.916
23459W        W95185  29.390  33.497   5.095
23460W        W95186   0.526  31.393   4.204
23461W        W95187  38.599   2.021   9.982
23462W        W95188  16.378  36.339   4.232
23463W        W95189  24.109  22.486   3.093
23464W        W95190  40.138  26.881   2.462
23465W        W95191  33.564   3.208   9.914
23466W        W95192  12.361  36.774  13.029
23467W        W95193  36.136  40.930   2.378
23468W        W95194  26.099   9.916  13.925
23469W        W95195   8.222   9.013  13.589
23470W        W95196  41.500  36.186   1.728
23471W        W95197  38.815  20.966  12.530
23472W        W95198   5.862  12.135  14.391
23473W        W95199   8.933   2.733   4.109
23474W        W95200  19.608  32.303   0.972
23475W        W95201  30.372  43.590   3.531
23476W        W95202  28.671  21.964  11.188
23477W        W95203   1.436  26.544  11.245
23478W        W95204   7.332  31.716  10.758
23479W        W95205   5.182  12.192   1.007
23480W        W95206   7.715  25.426  11.146
23481W        W95207  11.473  37.855   0.724
23482W        W95208  27.465  27.563   0.551
23483W        W95209   2.812  42.596  12.693
23484W        W95210  20.571  13.652   0.822
23485W        W95211  26.314  39.254  13.533
23486W        W95212  24.273  21.311   4.043
23487W        W95213  13.663   1.518   2.492
23488W        W95214  41.687  40.732   4.654
23489W        W95215   2.892  39.326  14.926
23490W        W95216  11.921  38.885  13.358
23491W        W95217  10.897  39.912   0.478
23492W        W95218   7.831  25.150   0.021
23493W        W95219  34.703  29.055  12.926
23494W        W95220  23.754  19.635  13.027
23495W        W95221  22.564  30.365   3.789
23496W        W95222   2.252  28.948  14.857
23497W        W95223  15.720  14.073   2.252
23498W        W95224  10.936  30.558  13.488
23499W        W95225  43.787  32.618  14.837
23500W        W95226  23.194  32.949  10.699
23501W        W95227   1.862  40.918  10.616
23502W        W95228  18.320   6.720  12.536
23503W        W95229  19.632  31.183  14.896
23504W        W95230  12.404  37.288  12.847
23505W        W95231   4.364  38.979  11.490
23506W        W95232  11.783  43.274   4.921
23507W        W95233   5.027  38.937   2.952
23508W        W95234  44.504   9.630  12.023
23509W        W95235  29.985  22.118   1.774
23510W        W95236  11.164  15.217  10.747
23511W        W95237  30.742  20.118   0.801
23512W        W95238  44.514  14.134  12.512
23513W        W95239   4.844   0.814   0.901
23514W        W95240  33.612  19.127  11.219
23515W        W95241  12.226  15.528  12.530
23516W        W95242  38.907  36.123  10.732
23517W        W95243  30.934  22.316  12.922
23518W        W95244  23.913  28.760   4.655
23519W        W95245  33.968  18.324   4.335
23520W        W95246  16.083  25.494   0.193
23521W        W95247  34.587  31.894   1.553
23522W        W95248  21.660  43.043  14.273
23523W        W95249  43.231  12.980  11.854
23524W        W95250  14.348  34.361  11.492
23525W        W95251  28.893   7.173   2.812
23526W        W95252   4.890  19.170   3.648
23527W        W95253  29.572  13.647  12.318
23528W        W95254  40.113  17.495  12.073
23529W        W95255  16.663  37.996  14.855
23530W        W95256  16.270  42.598   4.271
23531W        W95257  39.850  26.534   4.101
23532W        W95258  33.058   9.570   1.905
23533W        W95259  30.120  39.023   0.217
23534W        W95260  26.475  37.111   2.276
23535W        W95261  21.519  39.859   2.533
23536W        W95262  12.911  21.491   1.505
23537W        W95263   2.440   6.027   2.853
23538W        W95264  32.870   7.942   0.174
23539W        W95265  23.937   9.691   4.531
23540W        W95266  17.592  40.218   0.557
23541W        W95267   1.903  13.784   2.196
23542W        W95268   4.026  21.110   0.502
23543W        W95269  20.912  34.904   3.414
23544W        W95270  14.771  42.267  11.132
23545W        W95271   4.892  43.572   3.139
23546W        W95272  39.756  25.750   4.267
23547W        W95273  26.493  20.809  11.461
23548W        W95274  14.644  39.670   4.960
23549W        W95275  20.357  25.603  10.342
23550W        W95276  26.043   8.160  13.861
23551W        W95277   7.631  36.435  13.975
23552W        W95278  37.743  23.625   1.943
23553W        W95279   3.147  12.213   4.748
23554W        W95280  23.431  42.643   0.313
23555W        W95281  24.062   4.394  13.336
23556W        W95282  43.955  10.062   1.817
23557W        W95283   1.455  31.538  11.489
23558W        W95284  17.173   0.724  12.929
23559W        W95285  27.642   9.884   0.933
23560W        W95286  31.839   8.186  14.098
23561W        W95287  30.589  23.137   5.040
23562W        W95288  38.604  11.713  13.423
23563W        W95289  13.894   4.654  14.790
23564W        W95290   6.987  15.821   4.575
23565W        W95291   8.237   7.152   3.416
23566W        W95292  41.458  11.162   1.815
23567W        W95293   3.853   5.356   3.178
23568W        W95294  25.715  25.425   2.921
23569W        W95295   2.751  16.814  12.652
23570W        W95296   0.703  10.702   1.876
23571W        W95297   3.924  32.592   0.835
23572W        W95298  42.652  38.364  11.954
23573W        W95299  25.663   0.704  13.912
23574W        W95300   6.456  36.642   1.511
23575W        W95301  42.425  25.634   1.719
23576W        W95302  31.187   9.254   3.724
23577W        W95303  36.851   9.193   0.058
23578W        W95304  19.255  28.122   2.727
23579W        W95305  27.850  16.125   2.260
23580W        W95306   6.838  21.249  14.006
23581W        W95307  33.430  26.163  11.169
23582W        W95308  24.746   5.282  14.773
23583W        W95309   9.697  18.168  14.867
23584W        W95310  44.852  30.498   4.215
23585W        W95311  37.476  19.424   1.404
23586W        W95312  11.006  21.729   0.444
23587W        W95313  39.781   1.757   2.274
23588W        W95314   2.391  28.625  14.478
23589W        W95315  22.387   9.455   3.618
23590W        W95316  43.384  31.147   2.754
23591W        W95317   0.718  33.496  11.080
23592W        W95318  39.779  25.440  14.924
23593W        W95319  31.112  18.558   1.800
23594W        W95320  10.299  43.019  12.379
23595W        W95321   4.391  36.300   3.224
23596W        W95322  29.668  30.185   1.471
23597W        W95323   5.429   8.194   1.341
23598W        W95324  22.174  36.802   2.309
23599W        W95325  16.092  35.560   3.133
23600W        W95326  32.642  26.615   1.806
23601W        W95327   1.993  40.081   0.002
23602W        W95328  44.067  34.066   1.762
23603W        W95329  18.730  18.598  11.565
23604W        W95330  11.614  34.421   4.560
23605W        W95331   7.902  27.951  14.346
23606W        W95332  21.653  19.304  11.015
23607W        W95333  40.281  39.786   2.696
23608W        W95334  21.034  33.905  10.629
23609W        W95335  30.143  19.476  11.913
23610W        W95336  33.982  36.384  10.543
23611W        W95337  13.362   1.270  12.679
23612W        W95338  42.469  34.658   1.296
23613W        W95339  12.713  36.333   0.478
23614W        W95340   3.013  26.970   0.673
23615W        W95341  28.981  22.113  14.780
23616W        W95342   2.176  43.278  14.994
23617W        W95343  23.982  34.510  13.892
23618W        W95344  34.717  29.537   4.596
23619W        W95345  38.928  31.452  13.984
23620W        W95346  33.638  13.678  13.798
23621W        W95347   5.158   9.160  14.282
23622W        W95348  44.943  22.996   2.423
23623W        W95349   6.727  42.231  13.015
23624W        W95350  31.617  32.114  14.859
23625W        W95351  30.164  10.446  13.685
23626W        W95352  36.648  21.408  11.588
23627W        W95353  36.315  12.570  11.101
23628W        W95354   6.914   4.357  10.546
23629W        W95355  30.022   9.613   0.465
23630W        W95356  34.103   2.722  11.475
23631W        W95357  32.829   0.389  12.304
23632W        W95358  23.579  20.117  14.392
23633W        W95359  29.943  35.005  13.507
23634W        W95360  42.235   4.767  11.588
23635W        W95361  20.281   3.251  12.388
23636W        W95362  26.154   6.912  14.638
23637W        W95363  14.096  12.617  14.457
23638W        W95364  23.444  15.886   4.674
23639W        W95365  19.803  18.341  13.613
23640W        W95366  27.674  12.212   1.749
23641W        W95367  43.551  33.052   1.916
23642W        W95368  29.891  34.551   2.850
23643W        W95369  32.658   0.766  10.358
23644W        W95370  24.501  32.686   1.881
23645W        W95371  32.038   3.346  13.298
23646W        W95372  43.686  26.258   0.443
23647W        W95373  32.008  39.473   2.888
23648W        W95374  37.265  38.853   4.995
23649W        W95375  33.869  17.770  11.901
23650W        W95376  31.052  44.910  14.897
23651W        W95377  12.594  23.743  13.589
23652W        W95378  27.918  16.862   4.148
23653W        W95379   5.110  21.670  13.282
23654W        W95380  25.696  10.505   3.875
23655W        W95381   8.222  43.543   2.393
23656W        W95382  12.386   2.970  14.751
23657W        W95383  17.864   9.160  13.476
23658W        W95384   7.812  41.120  14.876
23659W        W95385  35.623  44.843  10.562
23660W        W95386  33.412  30.747   0.446
23661W        W95387   4.776  33.397   2.651
23662W        W95388   6.174  41.376  10.937
23663W        W95389  29.485  44.082  13.939
23664W        W95390  21.561  23.763  14.103
23665W        W95391  43.330  44.058   4.205
23666W        W95392  16.813   3.989  14.506
23667W        W95393  44.186  38.853   0.752
23668W        W95394  28.515  40.092   1.663
23669W        W95395  19.736   0.941   2.772
23670W        W95396   4.821   7.848  11.539
23671W        W95397  44.995  36.685  11.139
23672W        W95398  41.771  26.474  11.016
23673W        W95399  20.090   3.360   2.853
23674W        W95400  19.450  14.863  13.030
23675W        W95401  16.164   9.861  14.986
23676W        W95402   1.242   7.576   1.093
23677W        W95403  14.962  16.720  14.986
23678W        W95404   4.108   3.181   2.411
23679W        W95405  31.011  27.608   3.492
23680W        W95406  31.933  35.008  12.610
23681W        W95407   1.271  35.492  13.349
23682W        W95408  35.351  38.548   4.242
23683W        W95409  35.757  27.954  14.443
23684W        W95410  34.624  37.469  10.971
23685W        W95411  44.276  27.500  13.404
23686W        W95412  25.070   5.945   3.321
23687W        W95413  36.395  13.930  11.535
23688W        W95414   8.815  12.402   3.031
23689W        W95415  10.670   5.781  14.867
23690W        W95416  15.045   6.970  13.636
23691W        W95417   4.089   4.437  12.033
23692W        W95418   0.291  28.201   3.807
23693W        W95419  40.903  29.315  13.813
23694W        W95420  22.032  19.159  13.306
23695W        W95421  44.335  39.861   2.399
23696W        W95422   7.440  39.631   4.513
23697W        W95423  28.553  12.389  13.807
23698W        W95424  39.290   3.765  12.104
23699W        W95425  35.663  19.167   2.142
23700W        W95426   6.324  20.638  13.575
23701W        W95427  10.490  31.976  12.945
23702W        W95428  41.035  33.643   1.268
23703W        W95429  16.378  16.830   1.442
23704W        W95430  30.651   2.619  14.391
23705W        W95431  21.501  23.299  14.960
23706W        W95432   1.409   7.841  14.548
23707W        W95433  36.438  10.925   0.786
23708W        W95434  30.156  15.308   3.630
23709W        W95435  21.449  39.993  12.553
23710W        W95436  32.147  15.910  14.277
23711W        W95437   7.121  20.417  11.965
23712W        W95438  38.999  23.665   9.875
23713W        W95439  30.185   6.819   3.776
23714W        W95440  12.912  10.202   0.427
23715W        W95441   6.816  29.592   1.412
23716W        W95442  27.907  28.205   1.930
23717W        W95443  20.092  15.914   4.139
23718W        W95444  28.120  10.406  10.245
23719W        W95445  13.314  14.343  11.766
23720W        W95446  38.011  28.034   3.203
23721W        W95447  29.710  29.386   4.190
23722W        W95448  21.676   4.258   4.730
23723W        W95449   0.737  24.164  12.483
23724W        W95450  23.497  28.969  11.091
23725W        W95451  11.694   7.379  11.030
23726W        W95452   4.853  34.653  10.704
23727W        W95453  12.813  22.735   4.665
23728W        W95454  20.633   5.881   2.091
23729W        W95455  24.056  21.700  10.703
23730W        W95456  41.752   6.781   3.195
23731W        W95457  32.222  14.217   0.240
23732W        W95458  43.645  19.807   4.246
23733W        W95459  32.627  36.474  12.985
23734W        W95460  29.582  25.207   3.782
23735W        W95461  20.111  10.393  14.250
23736W        W95462  33.446  35.329   1.320
23737W        W95463  20.686  10.214  12.443
23738W        W95464  29.256  18.642  11.549
23739W        W95465   0.762  17.782  12.970
23740W        W95466  39.092  42.884  14.254
23741W        W95467  15.736  41.766  11.037
23742W        W95468  24.017   8.664   2.025
23743W        W95469  42.538  23.006   2.316
23744W        W95470  15.825  27.481  12.389
23745W        W95471   0.235  33.918   4.550
23746W        W95472  25.501  41.793  13.591
23747W        W95473  33.454  39.278  11.182
23748W        W95474  44.424  43.218   2.258
23749W        W95475  13.678  28.151   2.136
23750W        W95476  36.100  14.363  11.608
23751W        W95477   3.374  16.774   0.357
23752W        W95478  11.958   7.679  12.187
23753W        W95479  39.395  30.936   4.441
23754W        W95480  31.134  25.525  12.910
23755W        W95481  16.206  39.494   2.862
23756W        W95482  25.207  13.864  10.458
23757W        W95483  39.907   8.145  13.446
23758W        W95484  25.099  31.304   5.117
23759W        W95485  36.784   1.715  14.268
23760W        W95486  19.123  28.045  11.987
23761W        W95487  39.359  25.221  14.671
23762W        W95488  37.722  30.146   3.727
23763W        W95489   4.615   5.290   1.288
23764W        W95490  23.669  14.062   2.768
23765W        W95491  34.365  20.207  11.434
23766W        W95492  16.058  37.992   9.729
23767W        W95493   7.966  44.092  12.025
23768W        W95494  42.300  19.447   4.377
23769W        W95495  18.586  29.664   2.304
23770W        W95496  42.290   1.543  11.594
23771W        W95497  32.903   1.267   0.984
23772W        W95498  39.820  15.858   2.192
23773W        W95499  37.681  12.091  10.848
23774W        W95500  28.915  19.095  10.672
23775W        W95501  20.014   4.785   4.681
23776W        W95502  25.951  42.924  12.027
23777W        W95503   2.354  37.379  11.388
23778W        W95504  23.790  25.760  10.312
23779W        W95505  10.550  29.092   2.945
23780W        W95506  13.631   4.359   3.187
23781W        W95507   4.665  34.401   3.382
23782W        W95508  44.820  35.525   3.163
23783W        W95509  41.511  43.461  10.980
23784W        W95510  11.640  20.033   0.785
23785W        W95511  19.759  16.650  10.466
23786W        W95512  23.770  21.692  12.954
23787W        W95513   9.306  41.602   4.398
23788W        W95514  27.340  19.558  13.986
23789W        W95515   8.159  32.033  12.425
23790W        W95516  18.298   3.356   4.208
23791W        W95517  36.418  18.638   1.930
23792W        W95518  24.020  36.529  11.945
23793W        W95519  21.613   5.883   2.089
23794W        W95520  26.674  15.374   3.756
23795W        W95521  21.150  19.778  10.352
23796W        W95522   2.061   0.812  11.516
23797W        W95523  10.256   4.540  10.775
23798W        W95524  40.346  12.322  13.449
23799W        W95525  31.622  33.803  14.487
23800W        W95526  21.918  41.129   4.697
23801W        W95527  33.287  12.139   3.565
23802W        W95528  28.458  36.062  13.680
23803W        W95529  39.423  44.609   1.400
23804W        W95530   4.675  34.925  13.837
23805W        W95531  39.018  22.080  10.656
23806W        W95532  31.118   2.402  11.238
23807W        W95533  37.876  25.092   2.725
23808W        W95534  43.934   5.802  10.651
23809W        W95535  31.413  24.083   5.175
23810W        W95536  24.643  31.357  14.338
23811W        W95537  16.953  15.789  10.921
23812W        W95538  15.048  21.541   0.804
23813W        W95539  10.885  31.562  12.624
23814W        W95540  16.057   7.944   0.803
23815W        W95541  38.263  10.221   1.940
23816W        W95542  44.347   8.097  13.519
23817W        W95543   0.226  28.579  10.582
23818W        W95544  22.978  21.724   0.788
23819W        W95545   1.262  25.967  14.240
23820W        W95546  16.147  16.601   0.613
23821W        W95547  15.827  25.458   4.744
23822W        W95548  19.672  25.090   2.369
23823W        W95549  13.149   8.796  11.463
23824W        W95550  41.356  32.996   3.859
23825W        W95551   7.377  35.036   0.983
23826W        W95552  11.525   3.883  14.521
23827W        W95553  37.754  28.645  11.545
23828W        W95554  15.338   1.680  10.650
23829W        W95555  17.904  43.278   1.333
23830W        W95556  41.293   1.337   3.258
23831W        W95557   3.656   0.244   0.336
23832W        W95558  36.363  14.194   2.242
23833W        W95559   2.976  13.396   2.234
23834W        W95560   7.768  26.550   3.228
23835W        W95561  12.704  27.040  11.160
23836W        W95562  37.775  28.969  11.936
23837W        W95563  40.992  16.737   1.676
23838W        W95564  22.035  34.887  14.640
23839W        W95565   0.049  18.057   3.139
23840W        W95566  42.547  30.036  11.062
23841W        W95567  22.280  39.028   1.417
23842W        W95568  28.001  17.826  11.072
23843W        W95569  30.653  44.454   1.508
23844W        W95570  27.132  41.428   3.800
23845W        W95571  28.026  38.340   3.616
23846W        W95572  22.908  34.182   0.978
23847W        W95573   1.442  23.031   0.786
23848W        W95574  17.811  23.584   1.741
23849W        W95575  32.491   2.814  13.714
23850W        W95576  19.212  41.776  13.454
23851W        W95577  16.772   7.820   4.165
23852W        W95578  30.115  40.465   0.973
23853W        W95579   8.930  27.543  10.639
23854W        W95580  30.014  39.070  14.696
23855W        W95581  16.114  27.899   3.082
23856W        W95582  35.610   8.138   1.810
23857W        W95583   3.149  40.468   0.427
23858W        W95584  41.492  33.405   3.552
23859W        W95585   9.331  24.361  10.447
23860W        W95586  30.971  29.056  14.883
23861W        W95587  21.472   4.704  14.056
23862W        W95588  40.228  21.070  14.104
23863W        W95589   1.191   5.183   2.719
23864W        W95590   5.664   5.241   4.594
23865W        W95591  44.347  21.594   1.345
23866W        W95592  23.024  24.462  12.145
23867W        W95593  27.517   1.446   4.704
23868W        W95594  29.683  32.977   3.664
23869W        W95595  29.502   1.818   3.652
23870W        W95596   8.548  42.806   2.767
23871W        W95597  19.384  37.953  14.704
23872W        W95598  13.856  39.093   0.550
23873W        W95599  17.844  18.047   2.339
23874W        W95600   2.424  33.505  14.692
23875W        W95601  16.666   9.299   2.266
23876W        W95602  31.147  12.208   4.891
23877W        W95603  24.010  35.752  13.071
23878W        W95604  28.400  26.638   5.126
23879W        W95605   9.236  24.291   0.412
23880W        W95606  14.761  33.884   4.351
23881W        W95607   0.878  39.743  14.526
23882W        W95608   1.448  12.196   1.181
23883W        W95609   6.794  11.823  11.508
23884W        W95610  29.640  35.361  14.986
23885W        W95611   6.411  35.183   5.140
23886W        W95612  21.643  40.058   4.514
23887W        W95613  11.876  25.438  13.414
23888W        W95614  19.936   6.831   0.648
23889W        W95615   8.125  39.623   0.382
23890W        W95616  21.248  23.573  10.521
23891W        W95617  22.827   2.256  13.773
23892W        W95618   4.086  19.184   1.231
23893W        W95619  14.808   1.934   4.142
23894W        W95620  41.966  19.074   3.531
23895W        W95621  43.298  42.836   2.874
23896W        W95622  28.453   1.658   1.193
23897W        W95623  29.434  26.974   0.402
23898W        W95624   3.233   3.556   4.930
23899W        W95625  42.322  38.105  13.064
23900W        W95626   0.624  41.828  13.388
23901W        W95627  38.656  28.106   2.606
23902W        W95628  27.669  44.012   3.757
23903W        W95629  43.778  30.013   2.181
23904W        W95630  28.408  44.485  12.452
23905W        W95631  21.416  32.026  10.993
23906W        W95632  23.406  41.994  11.217
23907W        W95633  27.389  31.407   2.391
23908W        W95634   6.672  11.059  12.868
23909W        W95635  20.726  43.357   4.118
23910W        W95636   7.683  26.076   2.990
23911W        W95637  38.954  31.430  13.066
23912W        W95638  23.235  42.913  13.488
23913W        W95639   9.357  17.173  12.788
23914W        W95640  21.207   8.955   4.059
23915W        W95641  16.700   9.451   1.400
23916W        W95642  32.575   0.863   4.814
23917W        W95643  19.433  25.492   2.085
23918W        W95644  28.687  36.990   2.753
23919W        W95645   1.271   9.442  11.943
23920W        W95646  31.938  37.463  12.277
23921W        W95647   9.377   4.120   4.018
23922W        W95648  39.937  20.809  11.566
23923W        W95649  18.066  32.453  11.929
23924W        W95650  30.245  15.649  10.925
23925W        W95651  21.265  22.636   0.950
23926W        W95652  39.142  14.467   4.538
23927W        W95653  17.906  10.650   2.732
23928W        W95654  37.889  40.910   2.244
23929W        W95655   3.725  40.135   3.130
23930W        W95656   2.963  27.250  14.789
23931W        W95657   8.767   0.301   0.203
23932W        W95658  25.698   5.622  12.507
23933W        W95659  44.316  18.549  14.016
23934W        W95660  24.699  18.664  12.881
23935W        W95661  18.527   8.030   4.579
23936W        W95662  43.619   9.835   3.037
23937W        W95663  44.804   8.586   3.918
23938W        W95664  38.459  26.409   3.711
23939W        W95665  31.032  30.727   0.369
23940W        W95666  18.250  22.322   2.779
23941W        W95667  14.743  29.866  14.602
23942W        W95668  22.680  38.918   3.986
23943W        W95669   9.393  30.028  14.544
23944W        W95670  17.212  19.005   2.777
23945W        W95671  44.353  16.577  10.681
23946W        W95672  34.386   3.436  13.148
23947W        W95673   8.413  40.954  11.060
23948W        W95674   9.307   6.983   4.107
23949W        W95675  30.578   9.601  11.510
23950W        W95676  16.843   5.355  14.796
23951W        W95677   1.657  20.762   0.904
23952W        W95678   0.356  41.645   1.908
23953W        W95679   8.697  11.410   0.077
23954W        W95680   6.890  35.690   2.817
23955W        W95681  33.208  39.997  11.993
23956W        W95682   3.209   0.808  13.538
23957W        W95683  22.653   8.841   0.955
23958W        W95684  25.067  24.342   2.186
23959W        W95685  25.803  40.568  11.154
23960W        W95686  30.621  42.336  13.015
23961W        W95687  20.105  29.404  14.781
23962W        W95688  27.275  15.881   4.931
23963W        W95689  28.906  19.808   1.870
23964W        W95690   5.642  37.986   3.939
23965W        W95691  31.729   6.779  14.317
23966W        W95692   0.475  32.356  12.558
23967W        W95693  35.055  12.731   4.579
23968W        W95694  20.604  21.539  11.605
23969W        W95695  10.877   5.734   0.902
23970W        W95696  33.970  34.676   0.465
23971W        W95697  13.383  17.778   2.591
23972W        W95698  10.327  19.194  12.078
23973W        W95699  26.623   2.727   1.383
23974W        W95700  34.105   4.000  13.928
23975W        W95701  23.983  28.685   1.380
23976W        W95702   6.142  41.780   0.810
23977W        W95703  44.293  36.050  13.987
23978W        W95704  44.853  44.814  11.452
23979W        W95705  14.640   2.717  12.102
23980W        W95706   6.270  11.646   2.903
23981W        W95707  13.139  14.989  12.607
23982W        W95708  21.248  22.729  12.036
23983W        W95709   3.136  31.031  10.939
23984W        W95710  29.453   6.133  10.618
23985W        W95711  25.937  33.539   0.296
23986W        W95712   2.239  34.556   2.745
23987W        W95713   7.214   2.794  12.180
23988W        W95714  43.519  21.962  13.955
23989W        W95715  37.521  40.202  13.756
23990W        W95716   0.775  27.534   0.877
23991W        W95717  24.029   8.281  13.542
23992W        W95718  34.515  11.404  14.371
23993W        W95719  17.689  26.172  10.857
23994W        W95720  26.146  28.704   1.769
23995W        W95721  34.671  26.587   3.708
23996W        W95722  13.634  18.867   4.174
23997W        W95723  34.643  40.359   1.658
23998W        W95724  40.612  39.865  11.892
23999W        W95725  34.069  15.794  13.053
24000W        W95726  22.179  21.777   3.144
24001W        W95727  27.916  32.629   3.300
24002W        W95728   4.230  26.164  10.515
24003W        W95729  44.342  10.894  10.549
24004W        W95730   0.525  12.492   4.666
24005W        W95731  13.359  44.420   2.933
24006W        W95732  32.540  37.004  12.543
24007W        W95733  25.191   3.719  11.973
24008W        W95734  16.201   0.340   3.177
24009W        W95735  12.638   6.138   3.659
24010W        W95736  35.653  32.957  11.276
24011W        W95737   7.726  41.018   3.409
24012W        W95738  17.145  27.732  13.820
24013W        W95739  23.981  17.407  10.693
24014W        W95740   6.266  21.437  12.062
24015W        W95741   4.936  11.709  12.588
24016W        W95742   2.796  22.100  11.553
24017W        W95743  22.741  22.360   1.919
24018W        W95744  23.286  28.343  10.172
24019W        W95745  37.317  17.807  13.426
24020W        W95746  18.042  22.835   2.776
24021W        W95747   9.208  32.415  10.675
24022W        W95748  21.790  34.969  10.712
24023W        W95749   8.801  23.749   4.223
24024W        W95750  30.534   4.921   4.236
24025W        W95751   8.759  29.395  13.409
24026W        W95752  38.955  29.711   5.087
24027W        W95753  24.862  33.979   4.066
24028W        W95754   4.205  27.102  12.464
24029W        W95755   5.320  13.885   2.907
24030W        W95756  20.606  29.237   3.220
24031W        W95757  22.022   6.378  12.619
24032W        W95758  18.086  24.552  11.466
24033W        W95759   8.161   5.907  14.955
24034W        W95760  33.552  33.607   0.934
24035W        W95761   0.299  27.548   3.411
24036W        W95762  42.598  30.509   3.475
24037W        W95763   0.267  27.206  11.553
24038W        W95764  38.900   5.130   2.182
24039W        W95765  39.119  42.217  11.964
24040W        W95766  25.980  32.447   1.750
24041W        W95767  26.931   0.124  13.859
24042W        W95768  33.228  21.441  10.261
24043W        W95769   5.562  36.466  11.971
24044W        W95770  36.299   3.172  10.198
24045W        W95771  21.568  32.969  13.005
24046W        W95772  12.367  29.672  10.662
24047W        W95773  44.285  11.546   1.726
24048W        W95774  43.732  17.362  11.919
24049W        W95775   0.792  16.807   4.129
24050W        W95776  23.466  17.260   1.747
24051W        W95777  35.285  36.270  14.056
24052W        W95778  26.948  30.839   2.610
24053W        W95779  36.540  33.025  12.340
24054W        W95780   1.201  14.824   1.335
24055W        W95781  27.789  20.552  14.414
24056W        W95782  32.479  30.678   2.359
24057W        W95783  16.223  41.409  14.313
24058W        W95784  16.713  32.097  12.925
24059W        W95785  41.285  30.606  14.854
24060W        W95786  32.986   7.306  11.548
24061W        W95787  18.135   6.417  12.911
24062W        W95788   1.239  10.402  12.567
24063W        W95789  38.545  34.500   3.136
24064W        W95790  37.528   2.287   1.440
24065W        W95791   8.639  33.912   1.310
24066W        W95792  21.294   5.250  13.169
24067W        W95793   3.476  22.615  10.736
24068W        W95794  36.870  39.658   3.312
24069W        W95795  26.772  10.923  14.370
24070W        W95796  30.034   4.677  13.986
24071W        W95797   5.867  12.773   0.073
24072W        W95798  11.842  43.945  11.886
24073W        W95799   6.289   1.893   1.531
24074W        W95800  32.564   2.305   4.112
24075W        W95801  38.834  19.233   0.978
24076W        W95802   1.898  36.604  11.624
24077W        W95803  38.984  32.510  10.374
24078W        W95804  26.543   0.914  14.038
24079W        W95805  44.231   4.443  13.928
24080W        W95806  34.005  37.016   1.728
24081W        W95807   9.114  30.167  12.084
24082W        W95808   5.191  34.398   1.795
24083W        W95809  10.710   0.884   1.272
24084W        W95810   1.876  30.576   4.323
24085W        W95811  36.631  11.288   3.967
24086W        W95812  36.076  43.980   2.349
24087W        W95813  28.933   7.217   3.607
24088W        W95814  14.762   7.656  12.468
24089W        W95815  25.150  37.377   2.616
24090W        W95816  39.056  10.342  14.818
24091W        W95817  38.288   2.350  12.571
24092W        W95818  18.342  11.276  13.443
24093W        W95819  10.871  10.310  13.484
24094W        W95820   4.363  37.600  10.353
24095W        W95821  27.547  29.125   4.620
24096W        W95822   6.988  30.668  10.581
24097W        W95823  22.517  38.066  13.060
24098W        W95824   3.002   5.994   3.565
24099W        W95825  17.078  27.717  14.687
24100W        W95826  38.673  34.698   1.761
24101W        W95827  12.326  14.042  11.659
24102W        W95828  22.940  18.455   9.862
24103W        W95829  38.940  35.146  14.125
24104W        W95830  41.507  15.336   1.396
24105W        W95831  44.885   2.273  10.566
24106W        W95832   2.840  41.418   1.518
24107W        W95833  12.279  26.658   4.791
24108W        W95834   7.467  25.507   4.231
24109W        W95835   0.911  15.363  13.087
24110W        W95836  19.308  19.256   4.857
24111W        W95837   3.554  10.131  11.231
24112W        W95838  14.544  41.819  14.738
24113W        W95839  23.464  28.596   4.387
24114W        W95840  12.350  25.910  13.003
24115W        W95841  29.656  39.070   0.464
24116W        W95842  38.738  38.478  12.129
24117W        W95843  12.669  34.891   0.264
24118W        W95844  37.562  36.929  12.175
24119W        W95845   1.688   7.201  10.753
24120W        W95846  22.492  44.883   2.711
24121W        W95847  13.230  28.627   1.889
24122W        W95848  32.638  24.617   2.770
24123W        W95849   3.769  30.673  11.985
24124W        W95850  38.317   0.003  13.050
24125W        W95851  36.602  38.123   4.171
24126W        W95852  29.942  12.415  12.572
24127W        W95853  30.431  31.863   4.549
24128W        W95854  29.142  39.037   1.324
24129W        W95855  33.152  29.169   2.160
24130W        W95856  42.104   0.882  12.092
24131W        W95857  37.755  18.689  14.869
24132W        W95858  24.743  16.702   2.771
24133W        W95859  15.774  35.394   2.747
24134W        W95860   2.251  33.798   0.465
24135W        W95861   1.404  26.620  12.981
24136W        W95862  40.157  13.469   1.385
24137W        W95863  31.071  37.840   1.347
24138W        W95864   6.439   3.466   2.014
24139W        W95865   1.978   3.315   2.391
24140W        W95866  42.303  15.332   4.247
24141W        W95867  14.624  44.890   3.184
24142W        W95868  42.525  44.574  13.029
24143W        W95869  13.018  27.044  12.037
24144W        W95870  22.661  40.135   3.071
24145W        W95871  42.997  33.187  12.976
24146W        W95872   0.804   3.257   0.082
24147W        W95873  40.353   7.362  12.892
24148W        W95874   4.238   4.225  14.189
24149W        W95875  30.214  12.687  11.619
24150W        W95876   6.990  19.107  12.419
24151W        W95877  19.640  12.274  14.285
24152W        W95878   3.488  22.656   0.347
24153W        W95879  27.170   6.698  10.707
24154W        W95880  15.166  12.305  13.521
24155W        W95881  10.525  33.050   3.486
24156W        W95882  19.500  19.284   2.249
24157W        W95883   3.119  22.752  12.513
24158W        W95884  11.701  18.487   2.417
24159W        W95885  39.279   7.359  12.677
24160W        W95886  24.617   0.566   1.270
24161W        W95887  33.857  11.353   3.833
24162W        W95888  20.562   9.273  13.446
24163W        W95889   7.400  35.260   0.485
24164W        W95890   3.395  40.448  13.841
24165W        W95891   3.413  32.141  11.085
24166W        W95892  14.152  42.990   0.856
24167W        W95893  34.840  30.861   0.905
24168W        W95894  16.217  22.021  11.349
24169W        W95895  39.048   2.629   3.924
24170W        W95896   7.894  42.722   2.237
24171W        W95897  40.939  30.273   1.449
24172W        W95898  34.825   5.171  14.866
24173W        W95899  14.033  34.850   2.365
24174W        W95900  39.305  40.959   3.733
24175W        W95901  12.542   1.912  13.325
24176W        W95902  22.570  17.631   0.877
24177W        W95903   2.963  33.399   4.039
24178W        W95904  36.297  27.225   0.792
24179W        W95905  28.522   9.753  14.793
24180W        W95906  15.071  14.814  14.532
24181W        W95907   6.011   5.405   2.749
24182W        W95908   6.642  27.001   0.813
24183W        W95909  44.328  40.948   2.639
24184W        W95910  17.247   1.394   0.979
24185W        W95911  44.318  26.684   2.552
24186W        W95912  42.429   3.391   4.659
24187W        W95913  43.701  44.749  11.962
24188W        W95914  14.478  30.552  11.025
24189W        W95915  30.998  13.227   4.176
24190W        W95916  14.479  44.104   2.284
24191W        W95917  28.717   6.248   1.819
24192W        W95918   2.545  27.411  10.779
24193W        W95919  41.396  34.324  13.986
24194W        W95920   8.447  14.833   1.804
24195W        W95921   0.981  27.066  14.348
24196W        W95922  38.351  15.770   0.353
24197W        W95923  40.221  37.518   2.760
24198W        W95924  31.402  28.623   2.282
24199W        W95925  24.588  42.806  11.275
24200W        W95926  38.530  10.270   4.243
24201W        W95927  20.051  35.847   0.253
24202W        W95928   5.775  14.772   3.260
24203W        W95929   5.979  11.720   5.112
24204W        W95930  29.573  28.524   1.774
24205W        W95931  32.459  36.198   0.261
24206W        W95932  23.412  12.192   4.948
24207W        W95933  40.568  23.684   4.726
24208W        W95934  29.508  16.520   1.608
24209W        W95935  17.558  38.899  14.929
24210W        W95936   8.945  24.625  13.764
24211W        W95937  18.170   8.197  13.439
24212W        W95938   0.986  28.241   1.406
24213W        W95939   4.461  21.576  12.704
24214W        W95940  33.110  28.990  14.505
24215W        W95941  11.353  29.920  12.147
24216W        W95942  16.239  42.786  12.450
24217W        W95943  29.712  23.805  14.856
24218W        W95944  26.757  40.396   0.456
24219W        W95945  43.860   2.997  11.049
24220W        W95946   3.319  35.194   2.436
24221W        W95947  42.716  35.685  11.985
24222W        W95948   3.518  40.121   3.851
24223W        W95949  15.036   3.673  13.951
24224W        W95950  18.619  24.492   4.176
24225W        W95951  43.309   2.828  10.950
24226W        W95952  15.776   0.857  12.958
24227W        W95953  37.870  19.757  13.920
24228W        W95954   9.297   6.711  12.546
24229W        W95955   9.553  39.842  10.641
24230W        W95956  31.397   7.213  11.805
24231W        W95957  27.008  44.330  14.523
24232W        W95958  43.132  42.104   1.843
24233W        W95959  21.643   6.880   2.338
24234W        W95960  36.454  16.524  14.061
24235W        W95961   5.429  18.919   0.263
24236W        W95962  34.585  12.242   0.808
24237W        W95963  20.647  19.561   2.250
24238W        W95964   0.427  20.751   3.423
24239W        W95965  32.913  12.821   3.305
24240W        W95966  39.528  34.703  12.408
24241W        W95967  38.920  18.756   0.760
24242W        W95968  36.049   5.324  10.501
24243W        W95969  13.770  21.570  10.689
24244W        W95970  10.176  24.938   0.460
24245W        W95971  33.974  31.654   2.823
24246W        W95972  41.548  16.609   5.068
24247W        W95973  42.569  34.486  10.972
24248W        W95974  37.012   9.465   3.346
24249W        W95975  42.938  35.551   1.939
24250W        W95976  19.473  19.745  12.028
24251W        W95977   3.692   7.427   2.360
24252W        W95978  43.005  43.399   1.245
24253W        W95979  39.118  41.487   1.814
24254W        W95980   5.285  33.656  12.435
24255W        W95981  38.830  24.422   4.583
24256W        W95982  14.380  22.102  11.661
24257W        W95983  20.510  42.483  11.484
24258W        W95984   0.658  32.540   4.933
24259W        W95985  41.474  22.087   4.880
24260W        W95986  25.500  22.034   3.196
24261W        W95987  23.293  33.366   1.342
24262W        W95988  37.817   6.971   0.916
24263W        W95989  20.507  12.153  12.461
24264W        W95990  42.084   7.004   0.051
24265W        W95991  40.771   9.060  10.671
24266W        W95992  41.410  18.442  14.279
24267W        W95993  31.379  40.018  12.028
24268W        W95994   2.794  12.696   3.200
24269W        W95995  15.422  29.596   4.800
24270W        W95996  15.618  10.345  12.962
24271W        W95997  31.172  32.474   4.673
24272W        W95998  14.662  31.759   1.686
24273W        W95999  34.142  11.181  13.474
24274W        W96000   5.405  29.567  13.162
24275W        W96001   4.434   2.936  10.767
24276W        W96002   9.797  15.462  13.893
24277W        W96003  30.281  25.953  13.522
24278W        W96004  16.266  25.255  14.756
24279W        W96005   0.276  30.944  14.706
24280W        W96006  25.644  13.716   3.308
24281W        W96007  41.348  35.109   2.244
24282W        W96008  38.907  38.485   4.430
24283W        W96009  39.320   0.518   1.872
24284W        W96010  16.210   2.950   0.859
24285W        W96011  14.923  32.991  14.475
24286W        W96012   7.655  14.845  14.863
24287W        W96013  11.401  12.678  11.932
24288W        W96014   3.194  14.625  13.524
24289W        W96015  11.740   9.666   1.449
24290W        W96016  20.492  42.462   3.951
24291W        W96017  17.149  10.837  11.990
24292W        W96018   3.127  41.565  12.307
24293W        W96019  23.784   0.343   4.605
24294W        W96020  31.487  16.153  11.219
24295W        W96021   2.800  24.887  11.553
24296W        W96022  44.086  43.830  12.071
24297W        W96023  27.784  18.862   2.809
24298W        W96024  17.635  25.551  10.641
24299W        W96025  40.052  20.036   0.534
24300W        W96026   4.631   8.273  13.315
24301W        W96027  10.259  26.597  10.595
24302W        W96028  39.625   1.459  11.928
24303W        W96029  28.218   4.674  13.525
24304W        W96030  44.315  14.248  14.474
24305W        W96031  16.138  13.264   0.068
24306W        W96032   5.788  13.242   4.297
24307W        W96033   8.400  36.598   4.986
24308W        W96034  22.187  40.372   2.932
24309W        W96035  37.482  32.986  10.402
24310W        W96036   2.435  23.110   1.898
24311W        W96037   8.135   5.859   3.194
24312W        W96038   7.366  33.824  12.989
24313W        W96039  30.385   8.100  11.958
24314W        W96040  38.566  26.421   0.389
24315W        W96041  21.161  32.884  13.976
24316W        W96042  40.007  29.106  11.742
24317W        W96043  36.096   6.226  13.961
24318W        W96044  22.211  28.127  14.604
24319W        W96045  34.572  41.758  11.550
24320W        W96046  14.256  26.607  12.008
24321W        W96047   7.478  32.560  10.575
24322W        W96048  13.160  30.827   3.619
24323W        W96049  23.907  33.953   2.756
24324W        W96050   6.422  35.402  10.947
24325W        W96051  19.728  21.527  11.763
24326W        W96052  43.280  11.446   1.002
24327W        W96053  19.709   6.293   1.290
24328W        W96054  14.254   4.656  13.866
24329W        W96055  17.319  28.159   2.808
24330W        W96056  13.187  29.749  12.001
24331W        W96057  31.768  36.462   0.785
24332W        W96058   0.662  33.154   0.726
24333W        W96059  21.520   8.230  14.828
24334W        W96060  37.828   2.760  11.791
24335W        W96061  23.560  11.256   3.263
24336W        W96062  21.591   0.534  12.828
24337W        W96063  34.653   8.862  11.084
24338W        W96064   3.326  11.837   5.062
24339W        W96065  15.614  26.668   3.267
24340W        W96066  36.142   6.385   1.168
24341W        W96067  10.155  17.809   0.319
24342W        W96068  40.825  20.414   0.394
24343W        W96069  43.415  24.010  14.845
24344W        W96070  13.638   4.504   4.146
24345W        W96071  40.545  19.006  10.751
24346W        W96072  34.217   6.942  11.591
24347W        W96073  32.164  34.049  13.470
24348W        W96074  26.571  43.193   2.290
24349W        W96075   8.817  38.435   2.481
24350W        W96076  22.220  23.554   2.620
24351W        W96077  12.063  20.290  12.063
24352W        W96078   1.217  13.142   2.746
24353W        W96079  17.237  19.830   2.344
24354W        W96080  22.655  35.055  12.988
24355W        W96081   9.902   7.332   4.664
24356W        W96082  27.104  11.201  12.141
24357W        W96083  34.573   9.847  12.026
24358W        W96084  34.610   5.372  13.075
24359W        W96085  11.383  44.842   0.222
24360W        W96086  16.744  22.216   1.416
24361W        W96087  30.090  37.564  14.794
24362W        W96088  29.940  24.731   3.694
24363W        W96089  38.623  32.586   2.140
24364W        W96090  35.348  35.037   2.157
24365W        W96091  41.862   6.172  14.773
24366W        W96092  37.567  42.741   0.448
24367W        W96093  14.564  36.307  12.012
24368W        W96094  19.199  40.734  12.553
24369W        W96095  22.921  30.958  13.940
24370W        W96096  41.880  32.139   2.901
24371W        W96097   9.138  14.866  11.651
24372W        W96098  18.333  21.756   2.018
24373W        W96099  14.155  37.084   2.659
24374W        W96100  28.190   6.166  10.663
24375W        W96101   0.004  30.589   0.690
24376W        W96102  31.525  14.829  13.903
24377W        W96103   7.120   1.304  11.181
24378W        W96104   9.610  17.240  14.677
24379W        W96105  36.030  17.072  14.430
24380W        W96106  39.115  33.936   3.832
24381W        W96107   6.755   1.373   3.650
24382W        W96108   1.538  29.947   3.909
24383W        W96109   9.171  38.727  14.346
24384W        W96110  25.563  23.976  12.629
24385W        W96111  44.973  40.779  12.516
24386W        W96112   6.268  26.450   9.830
24387W        W96113  27.878  43.023  12.045
24388W        W96114  13.613   5.194   0.410
24389W        W96115   6.675  28.918   4.477
24390W        W96116   9.075  24.588   2.011
24391W        W96117   4.862   3.674   1.995
24392W        W96118  40.258  10.901   2.196
24393W        W96119  21.561   3.863  11.604
24394W        W96120   1.956  24.591   2.216
24395W        W96121  33.918  35.087  14.348
24396W        W96122   9.959  13.492   4.452
24397W        W96123   2.830  38.050   1.157
24398W        W96124  19.683   6.883   4.625
24399W        W96125  41.238   3.873   0.900
24400W        W96126  18.094   2.331  10.643
24401W        W96127  42.750  16.663   0.615
24402W        W96128  41.987  31.626   0.872
24403W        W96129  19.608   9.281  10.471
24404W        W96130  18.848  10.533   2.959
24405W        W96131  26.032  42.396   1.290
24406W        W96132  13.812  36.888  13.009
24407W        W96133  11.700  36.563  14.387
24408W        W96134  33.865  22.961   3.906
24409W        W96135   7.800  26.163  10.727
24410W        W96136   8.685  44.942   4.743
24411W        W96137   3.963  13.169  14.866
24412W        W96138   1.727  15.496  12.060
24413W        W96139  29.118  42.346  12.968
24414W        W96140  32.245  25.754  12.595
24415W        W96141  19.040   3.400   1.325
24416W        W96142   2.855  29.679   3.367
24417W        W96143   1.984  17.223   4.124
24418W        W96144  27.234   5.643   3.333
24419W        W96145  18.599  44.215   4.553
24420W        W96146  17.281  40.272   2.067
24421W        W96147  28.042  39.598   0.752
24422W        W96148  12.420  37.083   4.603
24423W        W96149  39.582   5.480   0.807
24424W        W96150  25.829   9.885   0.544
24425W        W96151  38.804  24.571  13.004
24426W        W96152  13.604  10.098   1.820
24427W        W96153  33.906  36.543   0.045
24428W        W96154  18.081  13.369  14.515
24429W        W96155  17.509  18.539  14.502
24430W        W96156   6.237  11.194  12.111
24431W        W96157  22.711  16.690  13.318
24432W        W96158  10.133  22.500   2.084
24433W        W96159  31.858  18.594  13.421
24434W        W96160  22.929   8.010  11.321
24435W        W96161   8.563  43.210  14.568
24436W        W96162  44.215  43.538  13.377
24437W        W96163  27.962  20.704  10.728
24438W        W96164  24.437   6.876  11.642
24439W        W96165  13.499  42.503   2.786
24440W        W96166   9.893  22.513  12.382
24441W        W96167  19.708   1.400  10.677
24442W        W96168   9.511  14.900  13.308
24443W        W96169   4.829  37.869  11.509
24444W        W96170  31.419  27.330   2.214
24445W        W96171  24.703  20.075  11.140
24446W        W96172  40.977  10.224   0.796
24447W        W96173  44.626  37.495  10.789
24448W        W96174   2.701   6.593   0.689
24449W        W96175  12.618  44.754  13.874
24450W        W96176  34.459  31.575  13.311
24451W        W96177  24.432  42.513   4.505
24452W        W96178  44.407  33.929  13.541
24453W        W96179  28.494  34.562   3.667
24454W        W96180  40.398  26.006  12.022
24455W        W96181  43.511   5.735  14.326
24456W        W96182  17.087  11.529   3.912
24457W        W96183  29.863  16.610   3.145
24458W        W96184  24.447  27.005  12.614
24459W        W96185  36.290   1.362  14.967
24460W        W96186  11.380  20.734  13.388
24461W        W96187  17.333  38.427  14.946
24462W        W96188  12.008  10.717   1.269
24463W        W96189   0.215  14.143  10.688
24464W        W96190   8.856  19.750   1.889
24465W        W96191  11.299  35.684   2.200
24466W        W96192   4.061   2.380  11.998
24467W        W96193  43.481  24.587  13.962
24468W        W96194  34.039  19.757  11.658
24469W        W96195   1.808  36.368  10.376
24470W        W96196  12.336  27.075   0.822
24471W        W96197  31.132  28.070  13.686
24472W        W96198  15.643   6.499  13.291
24473W        W96199  29.855  19.185   1.292
24474W        W96200  30.539  36.413  13.085
24475W        W96201  11.937  20.187   4.027
24476W        W96202  17.059  21.210   2.413
24477W        W96203   1.910  28.680  13.321
24478W        W96204  10.909  32.128  11.578
24479W        W96205  34.796  41.949   2.233
24480W        W96206  37.541  26.517   3.745
24481W        W96207   7.093  23.714   5.043
24482W        W96208  16.841  18.191   2.162
24483W        W96209  26.777  20.178  14.072
24484W        W96210  29.525  17.089   2.292
24485W        W96211  20.541  37.438   4.436
24486W        W96212  15.159   8.157  14.964
24487W        W96213   7.585   1.710  14.846
24488W        W96214   6.285  36.219   5.141
24489W        W96215  32.467  18.008   1.298
24490W        W96216   1.319   8.978  12.137
24491W        W96217  19.646  34.814   1.138
24492W        W96218  29.578   0.400  11.124
24493W        W96219   7.590  16.786   2.813
24494W        W96220  33.559  24.003  11.509
24495W        W96221  11.958  28.562  14.728
24496W        W96222  29.269  37.398   4.397
24497W        W96223   2.735  10.213   0.816
24498W        W96224  10.468  28.162   4.280
24499W        W96225   8.768  20.479  11.875
24500W        W96226  16.569  15.515  11.170
24501W        W96227   0.747   9.192   2.284
24502W        W96228  36.496  36.936   2.689
24503W        W96229  37.442   3.484  10.575
24504W        W96230   7.898   8.395   1.256
24505W        W96231   9.070  37.375  12.205
24506W        W96232  20.328  20.075  11.045
24507W        W96233  33.570  32.961  13.717
24508W        W96234  16.655  18.305   3.197
24509W        W96235  42.716   8.976  14.362
24510W        W96236  36.130   4.212   2.323
24511W        W96237  27.238  16.827  14.943
24512W        W96238   8.100  22.525   0.856
24513W        W96239  40.693  12.685   0.257
24514W        W96240  24.450  20.281  10.738
24515W        W96241   2.129  44.868  11.541
24516W        W96242  28.829  41.457   4.492
24517W        W96243  28.304  20.131  12.922
24518W        W96244  22.585   3.396   4.998
24519W        W96245  44.393  43.874   1.250
24520W        W96246  35.488  43.676   2.260
24521W        W96247  17.841  36.755  12.163
24522W        W96248  34.989  35.380  14.492
24523W        W96249  35.527   0.073   0.917
24524W        W96250  20.200  39.017   4.512
24525W        W96251  36.096  19.071   2.481
24526W        W96252   0.957   8.105   4.569
24527W        W96253   2.405  14.287  12.968
24528W        W96254  31.015   9.389   2.747
24529W        W96255   8.853   5.385   3.396
24530W        W96256   5.803  31.148  14.308
24531W        W96257   9.155  39.300  11.646
24532W        W96258  38.907   7.922  13.436
24533W        W96259  25.004   1.181  11.988
24534W        W96260   2.250  22.036  12.438
24535W        W96261  22.631  21.307   3.801
24536W        W96262  27.921   1.440  13.815
24537W        W96263  39.930   7.805  11.545
24538W        W96264  36.051  36.382  13.375
24539W        W96265   7.523  40.384  13.028
24540W        W96266  28.947   8.093   0.119
24541W        W96267  11.888  43.819  10.891
24542W        W96268  20.027  44.399   0.997
24543W        W96269  34.522  13.691   1.683
24544W        W96270  32.534  28.247   2.677
24545W        W96271  14.888  28.803  14.029
24546W        W96272  32.025  16.787   1.285
24547W        W96273  27.533  11.049  14.353
24548W        W96274   1.341  31.049   4.605
24549W        W96275  28.362  19.091   3.681
24550W        W96276  43.547  10.562  13.936
24551W        W96277  21.724  38.478  13.471
24552W        W96278  15.829  20.711  13.570
24553W        W96279   8.730  30.247  12.447
24554W        W96280  33.306  38.295  12.155
24555W        W96281  22.388  18.063   1.999
24556W        W96282  15.208   9.429   2.560
24557W        W96283  32.060  31.212  14.003
24558W        W96284  11.239  20.037   0.082
24559W        W96285  32.907  39.695   0.804
24560W        W96286  20.117  41.876  10.303
24561W        W96287  28.982  22.018   1.256
24562W        W96288  36.847  35.376   1.273
24563W        W96289  35.549  21.979   1.449
24564W        W96290  19.632  12.354   4.223
24565W        W96291  36.795   2.725  11.402
24566W        W96292  32.778  12.816  11.887
24567W        W96293   4.749   2.890  13.848
24568W        W96294  36.949  41.843   0.292
24569W        W96295  27.721  39.746  14.467
24570W        W96296   1.515  13.823  12.115
24571W        W96297  44.802  43.859  13.829
24572W        W96298  20.635  16.938   3.294
24573W        W96299  31.905   8.713   1.255
24574W        W96300  15.133  35.152   1.702
24575W        W96301   9.637   7.405   0.200
24576W        W96302  36.969   6.950  13.583
24577W        W96303  28.614   8.847  14.567
24578W        W96304  23.072   4.907   3.419
24579W        W96305  18.400  10.366  10.307
24580W        W96306   1.906  28.578  14.785
24581W        W96307  20.086  39.270  14.410
24582W        W96308  37.031  25.997   1.777
24583W        W96309  12.614  40.045  12.170
24584W        W96310  31.541   3.036  14.476
24585W        W96311  40.765  38.865   2.296
24586W        W96312  28.487  25.439   1.700
24587W        W96313  23.284  26.577  10.328
24588W        W96314  21.613  41.088  14.421
24589W        W96315  15.864   3.872   4.193
24590W        W96316  31.616  35.367   2.699
24591W        W96317   3.787  12.931   0.326
24592W        W96318   5.376  40.802  11.653
24593W        W96319  29.064   4.283   0.352
24594W        W96320  35.527  21.162   4.908
24595W        W96321  27.661  24.780  12.577
24596W        W96322   2.490  36.010   3.384
24597W        W96323  18.293   2.922   3.463
24598W        W96324  32.402  29.285  11.956
24599W        W96325  14.678  29.447   0.087
24600W        W96326   6.402  34.399  12.873
24601W        W96327   9.877  38.925  10.539
24602W        W96328   4.884  12.736  12.414
24603W        W96329  11.450  36.636  12.201
24604W        W96330   1.059   5.978  11.147
24605W        W96331  20.999  25.469   4.134
24606W        W96332  18.175  10.169   2.887
24607W        W96333  42.567  10.710   0.214
24608W        W96334   5.284  29.626   1.882
24609W        W96335  41.781  22.805   0.477
24610W        W96336   7.695  14.202  10.016
24611W        W96337   9.690  16.607   0.367
24612W        W96338  21.606  42.101  13.707
24613W        W96339  16.886  16.784   2.211
24614W        W96340  32.928   6.798   0.454
24615W        W96341  27.550  43.784  10.626
24616W        W96342  43.040  39.231  14.811
24617W        W96343  20.799  44.706   2.370
24618W        W96344  22.457  42.352   1.122
24619W        W96345  29.033  43.902  12.202
24620W        W96346  32.511  44.919  10.506
24621W        W96347   0.438  21.099  10.488
24622W        W96348  20.973  44.955  14.218
24623W        W96349  41.002  23.519  13.467
24624W        W96350  39.514  22.025  14.458
24625W        W96351   0.015  33.150   2.771
24626W        W96352  18.416  28.543  14.715
24627W        W96353  39.954  32.074   1.322
24628W        W96354  37.571  37.405  14.689
24629W        W96355  20.651  38.839   1.950
24630W        W96356   4.987  10.647   1.353
24631W        W96357  31.439  34.864  14.383
24632W        W96358  40.303  37.754  12.445
24633W        W96359  27.095  40.053   4.675
24634W        W96360   9.239  40.437   0.684
24635W        W96361   0.658   7.296   3.103
24636W        W96362  27.536  44.501   3.809
24637W        W96363  25.910   8.792   2.417
24638W        W96364   1.859  31.772  10.585
24639W        W96365   3.309   8.204  13.726
24640W        W96366  19.589  14.831   4.607
24641W        W96367  14.721  41.291  12.039
24642W        W96368  27.614  25.213  10.666
24643W        W96369  27.830  44.756   0.341
24644W        W96370   0.763  39.103   3.729
24645W        W96371  30.366  19.349   1.299
24646W        W96372  31.381  17.726   4.160
24647W        W96373  20.735  33.140  13.756
24648W        W96374  43.460   4.657   1.865
24649W        W96375  30.789   6.898   2.187
24650W        W96376  37.093  21.675   1.789
24651W        W96377  22.354   6.749  10.876
24652W        W96378  12.638  19.119   0.969
24653W        W96379  39.993   3.499  13.387
24654W        W96380   9.198  13.886   1.981
24655W        W96381  19.300  30.161   3.988
24656W        W96382  24.675  25.460   0.979
24657W        W96383  39.172   3.505   4.097
24658W        W96384  32.856  40.762   3.319
24659W        W96385  39.496  43.970   0.363
24660W        W96386  14.820   7.049  14.820
24661W        W96387  39.812  20.168   1.792
24662W        W96388  12.637  17.679  11.716
24663W        W96389   0.361  11.773  12.060
24664W        W96390   5.539  13.012  11.533
24665W        W96391  43.581  16.712   1.243
24666W        W96392  36.137   4.365  11.445
24667W        W96393   0.432  30.544   1.417
24668W        W96394  32.699  14.241  11.495
24669W        W96395  33.356  29.176  14.096
24670W        W96396  42.473  22.687  14.365
24671W        W96397  10.441  30.334  10.248
24672W        W96398  18.592  27.710   4.117
24673W        W96399  28.486  18.621   4.411
24674W        W96400   1.762  35.495   1.361
24675W        W96401   8.476   1.960  11.181
24676W        W96402  15.817  38.294   0.940
24677W        W96403  15.567  12.902  14.284
24678W        W96404  15.271  40.341  11.470
24679W        W96405   6.602  21.967  14.377
24680W        W96406  28.549  31.881   5.100
24681W        W96407  38.601  43.779   1.445
24682W        W96408  30.771   4.761   2.411
24683W        W96409   9.853  20.664  14.336
24684W        W96410  34.886   2.201  10.070
24685W        W96411  35.627  31.626   3.401
24686W        W96412  31.925  38.840  12.623
24687W        W96413  30.618  39.278  12.599
24688W        W96414  31.477   0.937  14.486
24689W        W96415  36.379   0.795  10.359
24690W        W96416  26.135  34.128  14.064
24691W        W96417  41.806  23.594  13.875
24692W        W96418   4.514   4.888  10.588
24693W        W96419  28.459  17.798   3.631
24694W        W96420  15.205  39.004   3.685
24695W        W96421   4.628   5.622  11.224
24696W        W96422  12.265  16.221  13.561
24697W        W96423  28.571  35.404  14.067
24698W        W96424  44.299  33.108   1.295
24699W        W96425  16.887  18.996  14.988
24700W        W96426  12.878  44.483  12.824
24701W        W96427  28.584  16.006  13.781
24702W        W96428  12.697   6.574  10.756
24703W        W96429  16.590  20.327   4.321
24704W        W96430  25.691  15.122  12.503
24705W        W96431  37.418  11.039  13.399
24706W        W96432  20.547  40.326  14.003
24707W        W96433   3.251  32.485   3.720
24708W        W96434  28.525  11.627  11.155
24709W        W96435  17.029  13.363   4.041
24710W        W96436  24.558  44.044  12.137
24711W        W96437  28.145  26.548   4.674
24712W        W96438  23.641   8.703   1.681
24713W        W96439  20.964   5.123   3.182
24714W        W96440  15.346   8.618   4.140
24715W        W96441  14.275  28.913  12.909
24716W        W96442   3.353  31.243  13.463
24717W        W96443  18.994  30.446  12.865
24718W        W96444  21.574  28.868   1.257
24719W        W96445  21.662  29.663   0.462
24720W        W96446  36.759   3.240   4.084
24721W        W96447   8.014  41.132   0.736
24722W        W96448  17.794  20.812   1.294
24723W        W96449   1.228   6.697  10.787
24724W        W96450  13.285  43.551   4.147
24725W        W96451  16.159  18.001   1.680
24726W        W96452  27.585  18.677   3.767
24727W        W96453   3.275  30.568  12.136
24728W        W96454  25.545  23.564  14.550
24729W        W96455  27.091  13.272   1.360
24730W        W96456  20.478   7.178  11.704
24731W        W96457   3.886  20.600   2.557
24732W        W96458   8.925  24.469  11.906
24733W        W96459  33.421  29.126   1.333
24734W        W96460  24.144  36.348   1.340
24735W        W96461  13.595   3.222   0.275
24736W        W96462  28.120  28.617   1.712
24737W        W96463   7.187  44.310   0.814
24738W        W96464  42.803  36.565   4.175
24739W        W96465  24.368  38.509  14.448
24740W        W96466  40.473  17.188   4.217
24741W        W96467  37.983  17.718  14.809
24742W        W96468  21.881  44.587  11.531
24743W        W96469  17.383  14.771   3.258
24744W        W96470  23.015  10.284  10.817
24745W        W96471   6.681  10.869  14.181
24746W        W96472   8.373  21.006   2.255
24747W        W96473  33.891   7.191   0.331
24748W        W96474  28.976  27.855  11.441
24749W        W96475  31.025  21.568  14.476
24750W        W96476  13.409  27.177   1.935
24751W        W96477  28.598  27.229  13.392
24752W        W96478  14.364  14.843   0.224
24753W        W96479  15.051  10.282   2.761
24754W        W96480   2.101   4.229  13.897
24755W        W96481  26.539  37.370  11.931
24756W        W96482  16.571  38.427   4.663
24757W        W96483  30.403  34.388   4.877
24758W        W96484   9.841  38.341  14.027
24759W        W96485  16.353  25.411  11.469
24760W        W96486   8.260   8.352  12.230
24761W        W96487  13.879  28.388   0.050
24762W        W96488  31.597  16.613  11.415
24763W        W96489  38.504  39.079   0.309
24764W        W96490  23.448  37.076  11.566
24765W        W96491  37.412  27.563   1.691
24766W        W96492   9.378  10.216   4.112
24767W        W96493  22.566   1.871  14.027
24768W        W96494  22.170  25.573   3.706
24769W        W96495  20.070  11.329  13.804
24770W        W96496  21.694  42.375  12.897
24771W        W96497  26.618  19.730   3.815
24772W        W96498  39.686  35.449  14.990
24773W        W96499  20.173  22.014  14.658
24774W        W96500   1.868   8.449  14.989
24775W        W96501  16.749  39.451  10.942
24776W        W96502  10.330  33.496  13.901
24777W        W96503  44.177  33.312  11.182
24778W        W96504  23.603  31.029  12.797
24779W        W96505   1.296  14.726  11.165
24780W        W96506   6.219  31.190  14.615
24781W        W96507  11.858   1.070   2.649
24782W        W96508  37.039  40.503   2.180
24783W        W96509  37.047   5.173   4.630
24784W        W96510  13.833   6.661  14.827
24785W        W96511  26.382  14.601   1.631
24786W        W96512  30.493  19.403  14.544
24787W        W96513   5.393  27.094   1.687
24788W        W96514   3.423  15.756   2.057
24789W        W96515   1.343   3.446   3.832
24790W        W96516  35.493   7.830   2.784
24791W        W96517  28.161   4.163   2.488
24792W        W96518  36.858   3.273  12.056
24793W        W96519   1.205  32.836  10.674
24794W        W96520  12.901  24.603   1.547
24795W        W96521  30.874  32.601   3.626
24796W        W96522  13.557   7.601   3.626
24797W        W96523  12.778  18.683   3.404
24798W        W96524  39.231  39.877   3.556
24799W        W96525  25.717  37.755  12.216
24800W        W96526  37.919  13.138   1.805
24801W        W96527  31.350  32.079   0.295
24802W        W96528  34.637   7.654  12.047
24803W        W96529  19.674   4.440  11.596
24804W        W96530  34.545  24.736  13.769
24805W        W96531  26.935  12.656  13.837
24806W        W96532  24.179   3.448  12.396
24807W        W96533   0.382  37.675  14.321
24808W        W96534  19.304  21.246   0.297
24809W        W96535   5.620  20.078  11.245
24810W        W96536  29.280  35.522  14.355
24811W        W96537  40.737  19.379  11.045
24812W        W96538   4.425  13.172   0.809
24813W        W96539  31.671  21.845  14.725
24814W        W96540   9.374  35.074   0.920
24815W        W96541  12.684  34.625  12.466
24816W        W96542  23.283   5.585   1.688
24817W        W96543  11.986  10.967  11.982
24818W        W96544  17.487  18.082  13.720
24819W        W96545  17.331  24.758  13.810
24820W        W96546  25.378  14.347  10.564
24821W        W96547  24.247  12.642  13.533
24822W        W96548  14.090   6.954   0.758
24823W        W96549  34.090  15.649   4.635
24824W        W96550  21.527  16.037  12.585
24825W        W96551  21.585   1.363  12.401
24826W        W96552  35.881  26.405   2.979
24827W        W96553  30.076  31.381  11.118
24828W        W96554  27.391  34.032   3.205
24829W        W96555  35.079  34.657   0.835
24830W        W96556  42.035  10.923   0.857
24831W        W96557  42.086   7.449   4.388
24832W        W96558  10.633   8.237  13.097
24833W        W96559  19.073  17.156  13.902
24834W        W96560  30.970   3.257  11.971
24835W        W96561  21.546   7.291  14.718
24836W        W96562  18.003   2.155  13.958
24837W        W96563  31.096  36.371  14.369
24838W        W96564   8.333  19.693   0.501
24839W        W96565   7.309  26.281  12.481
24840W        W96566  14.804  26.183  13.125
24841W        W96567   5.863  38.896  14.606
24842W        W96568  14.677  35.314  14.940
24843W        W96569  40.716  23.247  14.758
24844W        W96570  33.609   7.766   2.892
24845W        W96571  11.348  26.619  10.901
24846W        W96572   7.537   3.280  12.575
24847W        W96573   3.903   8.909  10.104
24848W        W96574   8.000  33.350  13.464
24849W        W96575  19.678  38.851  11.572
24850W        W96576  17.358  31.013  11.838
24851W        W96577  22.523  32.637   1.327
24852W        W96578  18.798   5.044  14.110
24853W        W96579   6.979  36.650   1.360
24854W        W96580  26.123  28.708  14.312
24855W        W96581  13.045   3.705  12.451
24856W        W96582  13.796  35.645   4.285
24857W        W96583  24.547  27.129   0.275
24858W        W96584  20.775   2.994   1.754
24859W        W96585  37.103  31.968  11.624
24860W        W96586  28.095  26.668   3.807
24861W        W96587  42.437  10.299  12.189
24862W        W96588  15.639  16.919   0.743
24863W        W96589  35.812  28.123   2.339
24864W        W96590  28.214  10.732   4.314
24865W        W96591  44.564  40.402  13.254
24866W        W96592   2.664  31.533   2.630
24867W        W96593  35.792  24.675   3.115
24868W        W96594   5.713   2.694   3.616
24869W        W96595   1.390  11.642   3.284
24870W        W96596  15.338  27.713   4.578
24871W        W96597  37.665   7.852  13.951
24872W        W96598  27.047  42.379   0.156
24873W        W96599   0.887   1.703  14.968
24874W        W96600  14.850  29.890  12.538
24875W        W96601   5.173  40.998   3.721
24876W        W96602   6.947  44.683  11.340
24877W        W96603  42.777   0.325  13.481
24878W        W96604  17.002  35.004  14.823
24879W        W96605  19.676  29.035  11.505
24880W        W96606  43.055  13.036   4.549
24881W        W96607  10.445  28.905   0.056
24882W        W96608   8.034  19.741  12.028
24883W        W96609  30.090  29.963   4.669
24884W        W96610  20.435  31.667   0.927
24885W        W96611  31.329  39.508  13.962
24886W        W96612   3.185  15.811  13.975
24887W        W96613  18.261   8.362  11.565
24888W        W96614   3.736  14.450   4.086
24889W        W96615  24.908   7.666   0.427
24890W        W96616  43.709  35.012   4.170
24891W        W96617  25.643  39.486   1.196
24892W        W96618  16.139  20.638  10.569
24893W        W96619  36.462  41.439   3.621
24894W        W96620  40.296  31.269  14.553
24895W        W96621  37.125   2.623   0.027
24896W        W96622  25.585  41.924   1.890
24897W        W96623  24.652  31.929   3.516
24898W        W96624  24.075  35.602   3.217
24899W        W96625  24.889  36.553   4.966
24900W        W96626  15.325  12.601  13.139
24901W        W96627   5.185  44.734  12.541
24902W        W96628  41.364   7.477   0.398
24903W        W96629  34.183  37.797  12.396
24904W        W96630  42.288  24.075   1.427
24905W        W96631  18.871  34.512  10.785
24906W        W96632  26.617  12.354   0.777
24907W        W96633  44.999   7.287   4.173
24908W        W96634  39.589  10.285  13.124
24909W        W96635  43.718  21.212   2.090
24910W        W96636   1.937  32.188   3.717
24911W        W96637   1.421  41.722  12.044
24912W        W96638  18.820  32.011  13.095
24913W        W96639  35.151   8.137  12.603
24914W        W96640  26.231  27.071  13.909
24915W        W96641  18.165  22.117  14.355
24916W        W96642  22.949  17.254   1.724
24917W        W96643  17.355  16.759  14.869
24918W        W96644  12.405  13.691  14.882
24919W        W96645  34.961  26.760   2.756
24920W        W96646   8.913   4.300   2.836
24921W        W96647   9.639   9.371  13.220
24922W        W96648  27.807  38.908  10.593
24923W        W96649  19.178   8.017   0.385
24924W        W96650   1.643   4.340   3.630
24925W        W96651   2.740  24.217  14.521
24926W        W96652   4.177   5.899  10.260
24927W        W96653  34.655  35.372   2.020
24928W        W96654  32.350  23.070  10.597
24929W        W96655   4.955  37.465   2.451
24930W        W96656  43.311  13.855  14.365
24931W        W96657  28.214  40.049  12.406
24932W        W96658   2.670   5.015  12.509
24933W        W96659  35.562   6.373   1.969
24934W        W96660  28.968  42.308   0.839
24935W        W96661  14.727   4.272  11.366
24936W        W96662  28.961  33.783  10.683
24937W        W96663  26.450  11.315  14.316
24938W        W96664  28.888   2.936  11.570
24939W        W96665  12.418  35.797   2.916
24940W        W96666  17.049  41.963  13.093
24941W        W96667  43.524   4.686   4.154
24942W        W96668   0.751   3.505  14.415
24943W        W96669  33.549  35.967   2.931
24944W        W96670  32.058  32.041   3.409
24945W        W96671  32.503   2.777   3.812
24946W        W96672  42.000  16.479   2.663
24947W        W96673   3.133  19.452  12.031
24948W        W96674  38.466  42.433   0.153
24949W        W96675  33.866  23.616  11.062
24950W        W96676   2.892   0.419   2.867
24951W        W96677  13.502  23.469  10.665
24952W        W96678  16.861  25.434  11.722
24953W        W96679  23.966  39.828  11.171
24954W        W96680  26.549   4.608   4.169
24955W        W96681  23.464  26.465  11.533
24956W        W96682   8.391  23.412   0.675
24957W        W96683   3.487  33.098   2.057
24958W        W96684  26.425  34.190  11.018
24959W        W96685  34.106   0.951   4.712
24960W        W96686  42.226  40.925   4.666
24961W        W96687  43.182  26.495   3.685
24962W        W96688  30.204  23.898  14.942
24963W        W96689  22.223   4.483  14.852
24964W        W96690  39.897  20.279  13.962
24965W        W96691  14.836   9.774   2.747
24966W        W96692  20.108  10.515  11.170
24967W        W96693  36.473  19.980   2.166
24968W        W96694  18.267  39.274  14.520
24969W        W96695   3.042  19.876  14.804
24970W        W96696  34.343  32.539   3.309
24971W        W96697  41.357  19.096   1.475
24972W        W96698  12.047  34.110   2.233
24973W        W96699  34.968  42.503   0.890
24974W        W96700  15.045  34.532   3.659
24975W        W96701  21.468  40.403   4.114
24976W        W96702  18.816   6.205  13.961
24977W        W96703  17.829  34.911  12.099
24978W        W96704  35.547  20.205   0.532
24979W        W96705  32.908  37.827  14.444
24980W        W96706  30.254  29.463   4.662
24981W        W96707  16.241  19.959  13.136
24982W        W96708  42.025  43.829   2.186
24983W        W96709  11.883  16.802  11.587
24984W        W96710  37.717  35.354   4.305
24985W        W96711   7.423  22.213  10.884
24986W        W96712  16.169  25.386   2.222
24987W        W96713  38.673  41.251  12.400
24988W        W96714  20.463  28.930   0.628
24989W        W96715  18.976  33.563   1.819
24990W        W96716  28.475  35.486   1.277
24991W        W96717  43.492  32.469   3.183
24992W        W96718  39.774  12.718   4.759
24993W        W96719   4.674  12.337   4.680
24994W        W96720  36.490  31.131   0.507
24995W        W96721   6.414  36.306  11.112
24996W        W96722  44.180  16.692  11.607
24997W        W96723  42.853  41.337  12.799
24998W        W96724   1.363  30.796   2.358
24999W        W96725  30.074   5.147  12.036
25000W        W96726   6.292  41.894  10.749
25001W        W96727   9.944  17.060  13.366
25002W        W96728  22.546  33.280  13.113
25003W        W96729  10.811  24.462  10.425
25004W        W96730   8.624   7.264  12.375
25005W        W96731   0.879  44.276  11.605
25006W        W96732  44.876   1.752   4.734
25007W        W96733  20.141  14.993  11.161
25008W        W96734  35.356   4.822   4.247
25009W        W96735   7.333  21.249   3.214
25010W        W96736  30.695   7.080  14.909
25011W        W96737  21.273  23.632  14.513
25012W        W96738  14.672  19.555  14.479
25013W        W96739   8.777  44.506   3.431
25014W        W96740  30.324  14.239  12.949
25015W        W96741  22.233  43.878  14.349
25016W        W96742  32.507  39.259  12.594
25017W        W96743  39.773   9.899   0.444
25018W        W96744  24.528  30.597  12.013
25019W        W96745  31.073  13.783  11.412
25020W        W96746  19.979  22.754  14.145
25021W        W96747  28.460  13.699   1.165
25022W        W96748  36.838  18.611   4.129
25023W        W96749  41.095  23.462   3.650
25024W        W96750  23.588  28.595  14.396
25025W        W96751  19.210  19.246  14.552
25026W        W96752  14.742  28.059   3.077
25027W        W96753   0.533  35.870   3.420
25028W        W96754  38.344  34.464   2.674
25029W        W96755  11.386  42.935  14.675
25030W        W96756  16.930  34.105  12.895
25031W        W96757   2.372   1.103   2.691
25032W        W96758  29.771   4.923   4.642
25033W        W96759  24.934   5.339   4.612
25034W        W96760  34.465  16.668   4.462
25035W        W96761  42.569   6.076   3.712
25036W        W96762  31.957   1.490   0.860
25037W        W96763  29.794  32.929  11.558
25038W        W96764  31.443  11.096  12.919
25039W        W96765   5.942   3.848   3.427
25040W        W96766  14.823  27.942  14.989
25041W        W96767  17.549   7.667   2.329
25042W        W96768  32.956  31.631  12.951
25043W        W96769  18.118  33.483  14.475
25044W        W96770  25.738  28.372   2.660
25045W        W96771   7.233  26.594   1.264
25046W        W96772  14.722  32.315   1.812
25047W        W96773  18.498  33.157   1.264
25048W        W96774  19.047  41.360   0.288
25049W        W96775  13.619  22.649  12.988
25050W        W96776  36.623  42.761   0.365
25051W        W96777  38.925   6.574   4.682
25052W        W96778  35.016  38.789   2.874
25053W        W96779  35.481  38.033  13.542
25054W        W96780  42.319  28.599   4.199
25055W        W96781  34.516  10.712  14.902
25056W        W96782  17.318  18.246   5.063
25057W        W96783  32.175  27.000   1.296
25058W        W96784  16.257  42.385  10.630
25059W        W96785  37.578  20.215  13.008
25060W        W96786   9.378  13.639  13.816
25061W        W96787  33.118   0.807   1.254
25062W        W96788   9.369  16.802   3.596
25063W        W96789  27.690  16.745  13.485
25064W        W96790  11.020  28.621  12.345
25065W        W96791  24.807  30.899  13.373
25066W        W96792  16.609  37.002   2.414
25067W        W96793  22.147  17.380   0.706
25068W        W96794  28.114  25.098   3.670
25069W        W96795  20.334  27.045   1.017
25070W        W96796  17.290  11.460  11.836
25071W        W96797  22.128  40.901   2.084
25072W        W96798   8.853  12.643   2.068
25073W        W96799  38.312  15.018   1.956
25074W        W96800  26.232  20.784   2.544
25075W        W96801  40.968  23.642   2.248
25076W        W96802  12.031   4.896  11.264
25077W        W96803   4.855  19.279  14.436
25078W        W96804  42.872  31.022   2.687
25079W        W96805  44.476   7.662   0.781
25080W        W96806  22.176  21.487   3.589
25081W        W96807  28.037  26.477   2.334
25082W        W96808  15.754  44.192  11.683
25083W        W96809   5.419  16.849  11.591
25084W        W96810  38.017   7.116   2.111
25085W        W96811  38.984  20.150   2.365
25086W        W96812   6.606  30.897  14.423
25087W        W96813   8.446  33.154  11.583
25088W        W96814  39.491  35.009   0.820
25089W        W96815  39.026   7.819  10.495
25090W        W96816  28.431  30.978   1.317
25091W        W96817  39.863   5.735   0.441
25092W        W96818   7.296  38.244  10.664
25093W        W96819  37.323  25.703  12.368
25094W        W96820  11.546  36.446   3.194
25095W        W96821   4.639  44.554  13.492
25096W        W96822  21.572  20.228  11.721
25097W        W96823   3.552  21.489  11.547
25098W        W96824  23.232   9.685  12.898
25099W        W96825   7.602  41.274   0.367
25100W        W96826  33.026  44.513  10.403
25101W        W96827   8.887  33.968   1.824
25102W        W96828  28.341  27.511  12.915
25103W        W96829  24.881  39.809   1.305
25104W        W96830  19.129   7.626  13.917
25105W        W96831  30.715   8.462  13.953
25106W        W96832   5.871   2.338  12.419
25107W        W96833  26.712  13.041   1.645
25108W        W96834   3.236  37.175  12.403
25109W        W96835  30.047  42.623  12.569
25110W        W96836   4.688  32.620  13.598
25111W        W96837  27.013   4.019  10.738
25112W        W96838  37.001   9.275  13.991
25113W        W96839   3.729  38.701  11.061
25114W        W96840  31.065  39.517  12.527
25115W        W96841   1.192   1.263   0.362
25116W        W96842  32.866  27.192   3.263
25117W        W96843  33.081  43.298  14.891
25118W        W96844  37.381  42.235  11.539
25119W        W96845  43.704  32.308   4.958
25120W        W96846  27.723   3.395   1.444
25121W        W96847  33.869  36.916   3.358
25122W        W96848  12.693  36.519   1.362
25123W        W96849  22.690  39.580   3.784
25124W        W96850   4.444  30.144  12.834
25125W        W96851  21.045  12.987   4.660
25126W        W96852  39.058  15.833   0.916
25127W        W96853  44.548  17.951  13.258
25128W        W96854  23.075  42.513   1.522
25129W        W96855  34.880   5.723   2.282
25130W        W96856  11.187  19.117   0.973
25131W        W96857   1.769  27.446  11.083
25132W        W96858   2.783  30.019  10.693
25133W        W96859  33.888  10.135   3.862
25134W        W96860  27.399  17.127  13.719
25135W        W96861  12.192  28.733  12.995
25136W        W96862  38.940  13.993  10.672
25137W        W96863   1.194  22.856  12.864
25138W        W96864  17.804  43.805   4.174
25139W        W96865  34.156  13.482   4.154
25140W        W96866  16.432  31.655  14.538
25141W        W96867  34.000   4.758  11.436
25142W        W96868  19.074   8.843  14.926
25143W        W96869  16.624  43.963  13.046
25144W        W96870  14.179  13.273   2.692
25145W        W96871  40.096  15.726   1.757
25146W        W96872  42.603  16.232   0.376
25147W        W96873  24.132  43.906   0.268
25148W        W96874   5.659  31.564   0.466
25149W        W96875  36.949   3.621  10.666
25150W        W96876  34.010  40.064   3.166
25151W        W96877   1.516   8.697  13.090
25152W        W96878  40.468  42.613   2.630
25153W        W96879  27.381   4.786  10.108
25154W        W96880   3.727  33.108  14.960
25155W        W96881   7.424  27.806  14.521
25156W        W96882  24.488  41.303   2.077
25157W        W96883  42.149  13.119  13.834
25158W        W96884   9.791   1.917  12.630
25159W        W96885   6.881  18.154  12.586
25160W        W96886  27.216  15.036  14.916
25161W        W96887  40.600  11.203   3.225
25162W        W96888  30.900  40.089   2.277
25163W        W96889  19.075  12.602  14.997
25164W        W96890   0.288  27.998   0.320
25165W        W96891  23.665  20.099   4.320
25166W        W96892  38.113  35.960  14.274
25167W        W96893  12.169  11.117   1.925
25168W        W96894  14.046  35.309   0.636
25169W        W96895  36.764  29.723   1.104
25170W        W96896  25.773  42.341   2.163
25171W        W96897  14.215  27.612   0.882
25172W        W96898  42.920  10.293   2.300
25173W        W96899  42.514   3.855   1.159
25174W        W96900  16.518  38.563   2.613
25175W        W96901  27.833   0.660   3.875
25176W        W96902  39.056  25.451   2.172
25177W        W96903   9.664  19.660   1.202
25178W        W96904  18.684  26.523  11.153
25179W        W96905  12.772  12.831   3.715
25180W        W96906   6.744  29.519   1.956
25181W        W96907   5.694  12.215   2.848
25182W        W96908  39.560  36.611   0.395
25183W        W96909  36.506  26.975  11.956
25184W        W96910  26.913  16.770  14.515
25185W        W96911  19.568  27.898  12.546
25186W        W96912  11.212  26.521  13.343
25187W        W96913  25.648  21.899   0.302
25188W        W96914  37.540   4.196   4.747
25189W        W96915  44.990  20.842   0.007
25190W        W96916  10.255  35.020  12.069
25191W        W96917  20.178  42.322   0.397
25192W        W96918  40.061   4.481   2.921
25193W        W96919  26.441  29.077   0.977
25194W        W96920  38.400  24.434   1.965
25195W        W96921  40.891  43.242   0.458
25196W        W96922   7.415  26.251  13.845
25197W        W96923   6.749  16.532  14.773
25198W        W96924  32.067  37.551   1.264
25199W        W96925  40.969  21.148  11.114
25200W        W96926   9.626  30.556  12.483
25201W        W96927  17.087  44.045   3.246
25202W        W96928  42.983  41.424   3.230
25203W        W96929  31.975  31.981  12.087
25204W        W96930  13.329   8.248   3.228
25205W        W96931  23.324  39.081  11.926
25206W        W96932  35.256  22.562   0.723
25207W        W96933  10.613  32.382   0.762
25208W        W96934  42.974  12.369  12.805
25209W        W96935   5.716  29.141  12.876
25210W        W96936  26.364   3.098   4.097
25211W        W96937   7.180   0.035   3.708
25212W        W96938  31.340   8.768  14.349
25213W        W96939  19.570  34.083  11.939
25214W        W96940   1.448   5.655   2.650
25215W        W96941  44.951  35.648  11.212
25216W        W96942  15.710   1.457   2.884
25217W        W96943  25.699  15.106   3.737
25218W        W96944  33.389  25.894  11.610
25219W        W96945  24.028   9.164   4.526
25220W        W96946  36.778  20.831   0.731
25221W        W96947  41.336   7.853   4.106
25222W        W96948  17.392  10.054   2.317
25223W        W96949  22.099  32.068  11.433
25224W        W96950  24.112   9.400  10.965
25225W        W96951  22.960   0.934  12.882
25226W        W96952  43.941  15.556  11.552
25227W        W96953   6.881   8.215   1.243
25228W        W96954  31.973   9.870  12.891
25229W        W96955  21.307  19.644  12.911
25230W        W96956   0.359  13.142  13.041
25231W        W96957  41.534   2.852   2.281
25232W        W96958  43.842  16.009   4.774
25233W        W96959  34.854   1.482   0.705
25234W        W96960  12.633  18.193   0.859
25235W        W96961  38.591  38.332  13.409
25236W        W96962  41.933  10.349   2.678
25237W        W96963  30.202  38.876  11.746
25238W        W96964  39.344  37.571  13.483
25239W        W96965   7.144   1.841  14.108
25240W        W96966  26.686  33.830   2.740
25241W        W96967  35.197  15.939   3.598
25242W        W96968  14.054   9.813  13.767
25243W        W96969  32.050  19.026  11.063
25244W        W96970  12.388  39.740   3.669
25245W        W96971  17.265  32.380   3.370
25246W        W96972  31.381  28.126  12.563
25247W        W96973  29.147  38.276   4.509
25248W        W96974  20.581   4.789   3.585
25249W        W96975  30.325  33.885   4.129
25250W        W96976   3.602  13.183   3.674
25251W        W96977  19.538  35.031   1.609
25252W        W96978  23.741  34.576   1.782
25253W        W96979  31.765   0.719  14.888
25254W        W96980  44.012   8.409   0.884
25255W        W96981  32.574  26.010   0.684
25256W        W96982   8.077  39.310  11.610
25257W        W96983  22.755  23.003  13.958
25258W        W96984  32.875   3.821   3.718
25259W        W96985   3.154  15.169   0.261
25260W        W96986  11.898  36.292  14.834
25261W        W96987  34.127  27.155   4.154
25262W        W96988  34.995  13.055  10.800
25263W        W96989   3.995  13.961   5.344
25264W        W96990  41.143  25.528  14.408
25265W        W96991   0.332  15.496  14.439
25266W        W96992  31.963  43.972  14.756
25267W        W96993  36.570  13.855  11.071
25268W        W96994  20.074  37.130   3.649
25269W        W96995  38.315  26.003  12.489
25270W        W96996  37.508  38.748  12.304
25271W        W96997  13.710   3.201  13.824
25272W        W96998  19.138  24.725  14.744
25273W        W96999  26.228  28.156  12.925
25274W        W97000   7.810  32.409  11.780
25275W        W97001  28.286  24.349   3.365
25276W        W97002  34.188  44.651  13.202
25277W        W97003   4.798   3.838  11.794
25278W        W97004  30.620  27.156   0.770
25279W        W97005   2.817  20.720  14.787
25280W        W97006  35.737  28.887   2.531
25281W        W97007  28.744  44.815   3.276
25282W        W97008  23.090  38.933   4.825
25283W        W97009  43.137  38.156  12.015
25284W        W97010   5.659  11.743   1.802
25285W        W97011  15.881  20.646   1.381
25286W        W97012   1.906  12.679   0.496
25287W        W97013  37.599   4.197   0.893
25288W        W97014  31.002  38.965   0.841
25289W        W97015  27.638  36.950   0.107
25290W        W97016  33.341  42.260   0.840
25291W        W97017  38.099  43.092  12.062
25292W        W97018  26.716  24.046  14.288
25293W        W97019  37.871   9.419   3.651
25294W        W97020  25.428  19.838   3.629
25295W        W97021  31.768  18.408   0.032
25296W        W97022  24.462   6.713  14.411
25297W        W97023  10.120  39.858  11.860
25298W        W97024   0.500  26.176   3.715
25299W        W97025  19.933  39.558   4.304
25300W        W97026  19.197  35.836  13.387
25301W        W97027  16.987   1.053  10.746
25302W        W97028   2.764  40.568  10.809
25303W        W97029  13.015  42.030   2.686
25304W        W97030  28.334  44.682  11.982
25305W        W97031  43.301  12.478   0.987
25306W        W97032   1.864  10.134   4.652
25307W        W97033  11.328  19.773  14.151
25308W        W97034  36.383  43.945  14.371
25309W        W97035  21.203  24.199   5.139
25310W        W97036  29.117  25.972   3.639
25311W        W97037   4.896  35.069  14.782
25312W        W97038   0.251  38.017  12.984
25313W        W97039   2.358  19.022  11.815
25314W        W97040  42.795  29.688  10.756
25315W        W97041  16.343   1.276  12.518
25316W        W97042  32.280  23.194  13.868
25317W        W97043  18.171   4.018  14.265
25318W        W97044  27.378  40.812   1.710
25319W        W97045  38.582  12.004   4.257
25320W        W97046  30.951  21.162  12.095
25321W        W97047  35.066  36.422  11.613
25322W        W97048   4.147  31.556   2.711
25323W        W97049  32.920   4.178  13.585
25324W        W97050  39.614  19.235  12.459
25325W        W97051   7.534   5.497   2.766
25326W        W97052  17.284  41.100  13.812
25327W        W97053  26.023  15.842   1.354
25328W        W97054  15.121  41.708   3.292
25329W        W97055  14.711  27.952  14.095
25330W        W97056  22.255   0.950   1.900
25331W        W97057  18.574   6.393   3.116
25332W        W97058   0.340  32.011   1.753
25333W        W97059  42.689  40.075   4.541
25334W        W97060  42.018   0.234   4.640
25335W        W97061  11.902  12.634   0.845
25336W        W97062  25.135  38.935  13.149
25337W        W97063  23.129   8.370  12.470
25338W        W97064  21.585  33.157  13.966
25339W        W97065  39.610  32.399   2.942
25340W        W97066  37.312  23.440  13.930
25341W        W97067  34.501   1.492   1.622
25342W        W97068  37.260  34.228  11.216
25343W        W97069  43.299   9.281   1.733
25344W        W97070  32.004  37.934  12.486
25345W        W97071  23.192   8.648   2.488
25346W        W97072  17.627  44.664   3.901
25347W        W97073  39.124  39.849   4.183
25348W        W97074  10.113   5.455   4.523
25349W        W97075  36.898  16.371   4.836
25350W        W97076  42.059   7.580  11.624
25351W        W97077  11.634  22.058   4.658
25352W        W97078  41.837  42.651   0.467
25353W        W97079  37.614  35.477  11.025
25354W        W97080  41.628  27.674  11.991
25355W        W97081   0.402  42.890  14.472
25356W        W97082  28.713  17.947   2.295
25357W        W97083  23.614   8.890   2.313
25358W        W97084   4.424  34.864   3.396
25359W        W97085  25.037  32.118  12.525
25360W        W97086  30.521  41.377   0.362
25361W        W97087   2.526  34.128  11.092
25362W        W97088   7.274   6.717   9.964
25363W        W97089  27.922  43.767  12.469
25364W        W97090  18.057  35.996   2.741
25365W        W97091   4.475  36.613  10.111
25366W        W97092  30.021  10.206   1.869
25367W        W97093  26.743  24.718   2.327
25368W        W97094  35.152  37.951   0.941
25369W        W97095  31.446  40.618   1.728
25370W        W97096   0.268   3.316  13.497
25371W        W97097  44.521   3.193   4.709
25372W        W97098  22.684  14.226   4.209
25373W        W97099  11.608  29.060   2.146
25374W        W97100  12.597  42.417   2.888
25375W        W97101   3.291   7.171   3.252
25376W        W97102  42.866  32.168   1.362
25377W        W97103  22.133  37.334   3.797
25378W        W97104  10.796   1.835   4.036
25379W        W97105  36.248  32.196  13.844
25380W        W97106  10.467  40.042   1.475
25381W        W97107  44.468  16.803   4.632
25382W        W97108  43.771  25.913   2.225
25383W        W97109  17.356  27.947  11.034
25384W        W97110  29.500  25.676  14.261
25385W        W97111  23.343  14.760   9.779
25386W        W97112   8.462   0.318   3.601
25387W        W97113  44.805  34.005   1.425
25388W        W97114  15.650  34.403  10.232
25389W        W97115  44.843  12.925   2.875
25390W        W97116  15.630  11.858   4.552
25391W        W97117  39.798   1.730  13.944
25392W        W97118  37.913  23.500  14.909
25393W        W97119  33.669   8.157  10.455
25394W        W97120  44.175  40.436  12.347
25395W        W97121  16.982   9.031   3.558
25396W        W97122  22.767  13.719   4.336
25397W        W97123  24.010  15.765  14.858
25398W        W97124  17.296   3.183  13.015
25399W        W97125  19.329  38.482  12.863
25400W        W97126  38.136  34.824   2.185
25401W        W97127  30.453  37.984   0.436
25402W        W97128   6.812  42.077  12.122
25403W        W97129  29.684  12.944   4.628
25404W        W97130  30.548  12.576  11.236
25405W        W97131  28.006  39.429   2.296
25406W        W97132   0.921  36.143   5.135
25407W        W97133  11.809   0.819  12.798
25408W        W97134  41.371  25.480   2.136
25409W        W97135   3.459  23.764   0.907
25410W        W97136  38.921  40.596  10.481
25411W        W97137  33.862  12.933   2.114
25412W        W97138   8.200  38.755   1.178
25413W        W97139  31.469  36.035   3.811
25414W        W97140   9.831   2.188  13.989
25415W        W97141   6.902  12.748   9.967
25416W        W97142  35.959   4.472   4.863
25417W        W97143   8.275  39.705   2.709
25418W        W97144  19.989  42.458   2.198
25419W        W97145  24.056   1.812  14.862
25420W        W97146   3.913  35.922   5.040
25421W        W97147  17.829  16.164  14.326
25422W        W97148  44.824  10.191   3.825
25423W        W97149  15.076  19.235   3.395
25424W        W97150  27.823  37.498  11.931
25425W        W97151  25.721  28.294  13.185
25426W        W97152  17.363  40.334   1.141
25427W        W97153   3.383   9.776   4.289
25428W        W97154  41.294   6.320   2.263
25429W        W97155  32.122  38.355  12.758
25430W        W97156  42.375  26.530   0.004
25431W        W97157  14.174   5.493  11.664
25432W        W97158  25.647  29.598   1.736
25433W        W97159  20.069  43.364  12.885
25434W        W97160   4.651  23.052   3.845
25435W        W97161  42.353  30.771  10.702
25436W        W97162   1.038  25.057  14.520
25437W        W97163  38.571   9.801   4.015
25438W        W97164   2.850  38.513  11.199
25439W        W97165  42.157  23.212  14.804
25440W        W97166  37.408   6.467   4.430
25441W        W97167  14.386  28.061   4.628
25442W        W97168  25.066  29.687  10.690
25443W        W97169  25.805  32.975  10.707
25444W        W97170  39.806  30.980   2.943
25445W        W97171   1.213   2.316  13.324
25446W        W97172  26.535   8.341   1.060
25447W        W97173  24.699  24.601   4.540
25448W        W97174  36.332  40.478  12.912
25449W        W97175  24.672  17.151  10.635
25450W        W97176  24.736   4.690   3.791
25451W        W97177  38.074   1.252  11.122
25452W        W97178  19.297  31.176  14.059
25453W        W97179  10.845  23.621   2.747
25454W        W97180  33.130  12.809  13.560
25455W        W97181  21.254   0.753   1.838
25456W        W97182  29.630  22.034  14.904
25457W        W97183  39.454  33.253  12.191
25458W        W97184  34.008  32.878   1.354
25459W        W97185  37.636  22.040  12.542
25460W        W97186  22.645   3.527   4.495
25461W        W97187  28.504  22.221  14.980
25462W        W97188   2.459  34.634   2.232
25463W        W97189  11.782  27.571   3.277
25464W        W97190  22.138  34.393   4.716
25465W        W97191   5.990  27.451   1.748
25466W        W97192  12.192  13.050   1.799
25467W        W97193  13.085  25.737  14.605
25468W        W97194  17.743  40.518  12.466
25469W        W97195  35.813  30.343   2.772
25470W        W97196   3.444   6.306   1.229
25471W        W97197   8.781  32.047   4.559
25472W        W97198  15.319  32.631   4.138
25473W        W97199  14.892  33.502  14.418
25474W        W97200   7.200  35.557   0.966
25475W        W97201  30.146  14.268  12.447
25476W        W97202  28.562  14.721   1.229
25477W        W97203   3.718   8.341   2.561
25478W        W97204   5.418  39.297  14.501
25479W        W97205  31.564  15.605   3.710
25480W        W97206   8.872  31.406   2.894
25481W        W97207  27.362   3.772   0.714
25482W        W97208  38.977  37.760  10.740
25483W        W97209  28.669  12.557  13.347
25484W        W97210  22.580  40.010   4.065
25485W        W97211  32.106  16.677  10.132
25486W        W97212  30.795   4.844   3.742
25487W        W97213   3.783  13.321  11.907
25488W        W97214  36.525  21.249   2.822
25489W        W97215  10.788  43.926  14.806
25490W        W97216  10.171  21.497  14.520
25491W        W97217  30.594  40.319   1.142
25492W        W97218   9.610  29.061  11.129
25493W        W97219  23.787  21.017  11.164
25494W        W97220  29.616  16.270  14.502
25495W        W97221  40.626  26.711   0.975
25496W        W97222  35.896  27.152  14.704
25497W        W97223  29.443  37.358   2.516
25498W        W97224  44.882  26.365   4.362
25499W        W97225  24.392  11.979  14.893
25500W        W97226  26.392   7.962   4.926
25501W        W97227  19.284  11.822  12.095
25502W        W97228  13.574  14.578  11.359
25503W        W97229  39.065  13.932   1.780
25504W        W97230   1.373  32.683  13.085
25505W        W97231  20.768  14.239   3.341
25506W        W97232  20.507  43.889   2.514
25507W        W97233  29.558   1.686  10.750
25508W        W97234  26.965  32.306   4.969
25509W        W97235  10.794  18.302  12.556
25510W        W97236   5.210  30.209   2.695
25511W        W97237  28.038  14.897   1.438
25512W        W97238   7.160   0.893   0.226
25513W        W97239  44.462  28.864   3.777
25514W        W97240  12.259  29.014   1.864
25515W        W97241  29.688  25.692   9.744
25516W        W97242   2.244  36.886   4.602
25517W        W97243  44.585  38.158  12.173
25518W        W97244   7.011  34.203  12.109
25519W        W97245  26.521  38.607  12.795
25520W        W97246   0.024  40.970   2.276
25521W        W97247   6.895  30.948   1.399
25522W        W97248  30.143  43.676   1.348
25523W        W97249  17.066  17.187  13.813
25524W        W97250  39.391  20.490   3.108
25525W        W97251  12.493  26.596   1.997
25526W        W97252  43.390  39.394   3.148
25527W        W97253  32.641  38.268   3.116
25528W        W97254   0.093  33.098  12.049
25529W        W97255   9.763  23.018  10.304
25530W        W97256  36.482  14.191  10.706
25531W        W97257  31.361  13.252  12.083
25532W        W97258   6.327  35.405   0.042
25533W        W97259  35.208  34.583  12.258
25534W        W97260  28.935   4.744   2.415
25535W        W97261  40.059  18.860   1.308
25536W        W97262  38.179  12.658   2.877
25537W        W97263  35.016  25.451   4.850
25538W        W97264   3.367  39.826   3.437
25539W        W97265  28.463  19.678   0.995
25540W        W97266   3.169   5.343   3.631
25541W        W97267  28.122  35.647   9.916
25542W        W97268  22.818   0.245   1.918
25543W        W97269  20.567  33.094   3.629
25544W        W97270   2.976  20.904   4.564
25545W        W97271   3.634  43.329  13.809
25546W        W97272  34.739  34.456  12.504
25547W        W97273   4.301  40.400  13.322
25548W        W97274   5.624  32.550  11.180
25549W        W97275  21.956  41.618   0.565
25550W        W97276  43.280  18.084   2.290
25551W        W97277  26.530  42.931  13.149
25552W        W97278   8.950   4.351  10.912
25553W        W97279  12.907  40.438  14.330
25554W        W97280  26.540  31.410  12.388
25555W        W97281  29.047  30.699  12.587
25556W        W97282  35.142  42.811   4.190
25557W        W97283  30.352  20.880   4.752
25558W        W97284  15.864   9.515   4.200
25559W        W97285  23.913  12.759  13.161
25560W        W97286  43.968  19.485  14.975
25561W        W97287  27.659  22.309   1.837
25562W        W97288   4.504  32.637   4.248
25563W        W97289  38.766  10.293  10.869
25564W        W97290  13.679  44.926   1.203
25565W        W97291  10.505   8.780   4.904
25566W        W97292  44.439  39.637  13.430
25567W        W97293  38.775  21.243   4.152
25568W        W97294  41.118   5.378   2.946
25569W        W97295   9.495   4.926   0.502
25570W        W97296  34.093  32.411  14.854
25571W        W97297  22.896  29.911   2.344
25572W        W97298  17.572  29.421  11.904
25573W        W97299  17.118  38.880   0.829
25574W        W97300  41.772  42.389   3.979
25575W        W97301  16.087  20.446   4.392
25576W        W97302  21.625   6.474  13.496
25577W        W97303  37.390  13.140   2.937
25578W        W97304   9.127  25.612   2.890
25579W        W97305  28.093  37.084   4.386
25580W        W97306   5.755  16.010  14.585
25581W        W97307  37.443   5.955  13.850
25582W        W97308   7.065  13.291   3.420
25583W        W97309  16.408  30.565   3.279
25584W        W97310  14.640  29.782   0.527
25585W        W97311  30.166   7.111   0.748
25586W        W97312  16.718  25.101  13.050
25587W        W97313   0.485  12.651  12.938
25588W        W97314  29.891  43.475  12.761
25589W        W97315  31.418  36.997   2.667
25590W        W97316  31.042  39.856   1.829
25591W        W97317  16.572  32.997  14.854
25592W        W97318  38.617  17.865   4.196
25593W        W97319  14.090  33.368   3.528
25594W        W97320  20.328  26.685  13.854
25595W        W97321  44.797  31.580   2.078
25596W        W97322   3.256  36.085   1.973
25597W        W97323   2.973   9.608  11.196
25598W        W97324   6.471   9.195   4.610
25599W        W97325  36.180  29.247  13.067
25600W        W97326  29.729  19.972   3.676
25601W        W97327  26.999  13.346   0.368
25602W        W97328  42.059  29.845  13.534
25603W        W97329  38.395   2.025  13.013
25604W        W97330  31.896  16.593  14.328
25605W        W97331  10.480  23.018   9.829
25606W        W97332  37.163  25.937   3.288
25607W        W97333  37.159  44.368   0.281
25608W        W97334  11.303  24.630   4.968
25609W        W97335  13.792  15.208  13.593
25610W        W97336  33.590  30.244   0.417
25611W        W97337  44.787   9.685  13.023
25612W        W97338  15.009  32.641   1.399
25613W        W97339  27.593  36.983   4.535
25614W        W97340  35.151  10.235  12.123
25615W        W97341  40.529  34.974  10.974
25616W        W97342   3.023  42.355   4.165
25617W        W97343  30.365  40.524  13.790
25618W        W97344  26.138  44.355  14.074
25619W        W97345  10.062  23.221  12.989
25620W        W97346  26.806  37.892  14.011
25621W        W97347  36.055  38.460  11.054
25622W        W97348  32.339  34.841   3.787
25623W        W97349  34.567  22.537   0.142
25624W        W97350  24.698  39.765   4.222
25625W        W97351  27.599  14.567   0.382
25626W        W97352  22.247  28.554  13.742
25627W        W97353   3.139  18.195   0.348
25628W        W97354   7.111  23.840   2.373
25629W        W97355  44.450  14.037   0.872
25630W        W97356  37.512  15.130   0.676
25631W        W97357  37.134   3.841  14.299
25632W        W97358  38.975  29.473   4.128
25633W        W97359  40.814  10.234   3.843
25634W        W97360  19.109  15.798   3.844
25635W        W97361  21.273  36.480   2.851
25636W        W97362  24.736  22.242  13.929
25637W        W97363   7.911  17.379   1.270
25638W        W97364  16.446  35.346   0.514
25639W        W97365  30.506  14.586   2.790
25640W        W97366   4.781  26.228   0.817
25641W        W97367  22.578  21.534   4.257
25642W        W97368  24.655   8.727   2.806
25643W        W97369  39.933  11.364  13.011
25644W        W97370  10.581   9.700   3.702
25645W        W97371  16.845   4.387  12.009
25646W        W97372  28.575   8.286   4.549
25647W        W97373   9.497  26.650  10.895
25648W        W97374  29.390   8.931   1.404
25649W        W97375   3.459  27.449  14.768
25650W        W97376   9.131  22.624   3.116
25651W        W97377  19.113  39.652   1.025
25652W        W97378  27.249  29.759   1.804
25653W        W97379  17.847  25.563   0.907
25654W        W97380   6.383  42.895  14.253
25655W        W97381  28.066  18.343   4.331
25656W        W97382  12.229   4.995   1.241
25657W        W97383   2.195   6.306  11.180
25658W        W97384  39.834   1.191   2.227
25659W        W97385  12.680  26.526   3.031
25660W        W97386  43.663  19.634  10.669
25661W        W97387  34.038  37.801   3.769
25662W        W97388  28.583  40.056  12.021
25663W        W97389  43.303  17.102  11.728
25664W        W97390  25.607   7.125  14.042
25665W        W97391  37.050  33.913  12.555
25666W        W97392  17.232   0.915   1.185
25667W        W97393   8.225  16.077  14.442
25668W        W97394   1.573  31.479  14.151
25669W        W97395  23.411  27.083   1.607
25670W        W97396  43.098   4.290   1.958
25671W        W97397  26.993  36.591  12.927
25672W        W97398  10.198   5.829  13.732
25673W        W97399  13.843  39.914  13.526
25674W        W97400  41.080  34.991   1.789
25675W        W97401  13.823  15.677  10.614
25676W        W97402  12.866  34.674  11.597
25677W        W97403   4.005  22.889  14.479
25678W        W97404  23.985  23.410   0.280
25679W        W97405  34.412  29.844   3.663
25680W        W97406  23.553   6.694  10.716
25681W        W97407  18.767  27.851   0.017
25682W        W97408  31.346  23.545  11.080
25683W        W97409  21.119  27.532  12.794
25684W        W97410  19.267  18.600  11.493
25685W        W97411  14.623   5.270  10.374
25686W        W97412  27.903  30.993  14.013
25687W        W97413  19.000  41.943   4.643
25688W        W97414  43.921  27.231   1.809
25689W        W97415  24.220  35.333   9.928
25690W        W97416  37.441  17.013  12.133
25691W        W97417  29.119  13.573  13.788
25692W        W97418  20.489  38.539   0.285
25693W        W97419  24.734  44.274   3.644
25694W        W97420  36.838  22.161  12.643
25695W        W97421  15.731  32.129  13.948
25696W        W97422  40.429   9.716   4.125
25697W        W97423  34.376   6.709  13.786
25698W        W97424  16.561  39.859  12.763
25699W        W97425  28.541  38.035  14.699
25700W        W97426  42.622  27.885   2.408
25701W        W97427  14.250   0.513  11.800
25702W        W97428  30.149  31.598  14.942
25703W        W97429  43.407  44.088   3.322
25704W        W97430  13.162   0.232   0.246
25705W        W97431   9.468  33.379   4.204
25706W        W97432  18.071  21.538   0.270
25707W        W97433  11.215  33.466  11.335
25708W        W97434  24.034   8.626  12.051
25709W        W97435  34.533  18.633  13.027
25710W        W97436  17.100  40.398  10.018
25711W        W97437  10.357  16.424   4.547
25712W        W97438  34.881  12.324   3.799
25713W        W97439  22.181  20.761   2.164
25714W        W97440  19.998  22.928   1.660
25715W        W97441  20.738   5.455   1.325
25716W        W97442  34.786   7.686   0.456
25717W        W97443  28.252   6.247  10.131
25718W        W97444  31.943  23.533  13.411
25719W        W97445   2.590   4.969  13.403
25720W        W97446  32.459  23.107  12.513
25721W        W97447   7.560  17.121   0.802
25722W        W97448  10.192  23.728  13.874
25723W        W97449  11.853   6.823  10.473
25724W        W97450  37.019  25.979  10.681
25725W        W97451  21.649  22.165  11.626
25726W        W97452   1.803  10.125   0.522
25727W        W97453  39.520  34.430  10.962
25728W        W97454  24.981  35.695  14.344
25729W        W97455  31.019  37.553   3.674
25730W        W97456   7.203  36.898   2.256
25731W        W97457  19.508  31.001  12.287
25732W        W97458  33.450  44.403   0.094
25733W        W97459   1.548   8.699  10.726
25734W        W97460   4.217   8.125   1.739
25735W        W97461   3.697  10.447  12.520
25736W        W97462   7.798   8.659  14.486
25737W        W97463  21.306  21.705  12.532
25738W        W97464  23.096  12.887   4.599
25739W        W97465  42.947   3.408   4.532
25740W        W97466  25.246  16.770   2.736
25741W        W97467  37.943  26.801   2.006
25742W        W97468  17.349  21.545   2.156
25743W        W97469  28.410  33.176   3.670
25744W        W97470  34.560   2.138   2.963
25745W        W97471  32.530   2.796   4.340
25746W        W97472  40.777  22.327  14.466
25747W        W97473  28.226   1.990   0.847
25748W        W97474  39.768  12.265   3.582
25749W        W97475  13.539  15.227  10.569
25750W        W97476   6.252  41.139  14.300
25751W        W97477  26.198  11.480  12.515
25752W        W97478   2.717   2.353  14.598
25753W        W97479  17.627   0.252   0.561
25754W        W97480  16.255  17.633   0.730
25755W        W97481  36.270  29.559  11.197
25756W        W97482  15.293  22.439   1.333
25757W        W97483  18.132  10.282   4.749
25758W        W97484  29.172  28.626   1.453
25759W        W97485  22.895  35.997   4.613
25760W        W97486  41.050  10.012  10.349
25761W        W97487  26.431  29.057  13.932
25762W        W97488  17.135  32.931  10.159
25763W        W97489  33.618  24.490   1.658
25764W        W97490   4.361  19.921  13.380
25765W        W97491  39.795  41.362  12.931
25766W        W97492  17.333  23.115   3.218
25767W        W97493  35.345  33.597  13.385
25768W        W97494  19.293  19.243  11.120
25769W        W97495   9.597  16.725  11.101
25770W        W97496  16.208   5.245  12.995
25771W        W97497   8.913   1.870  12.133
25772W        W97498   1.057  33.099  11.093
25773W        W97499  12.193  30.434   1.474
25774W        W97500  21.000  15.496   4.247
25775W        W97501   1.675  24.912   0.289
25776W        W97502  17.578   8.844  11.977
25777W        W97503   6.311  43.040  14.756
25778W        W97504  25.115   7.103  13.272
25779W        W97505  12.492  22.958  11.172
25780W        W97506  36.565   8.837  11.886
25781W        W97507  19.575   9.921   1.714
25782W        W97508  43.338  23.558   4.124
25783W        W97509   4.688  38.364   4.232
25784W        W97510  33.961  29.109   3.976
25785W        W97511  33.852   4.938  13.550
25786W        W97512  43.894  34.494  10.867
25787W        W97513  39.788  18.543   4.245
25788W        W97514  29.595  10.583  14.785
25789W        W97515  13.283   5.423   2.263
25790W        W97516   7.914  38.456   2.022
25791W        W97517  20.597   4.054   2.271
25792W        W97518  13.374  36.445  11.344
25793W        W97519  23.693   1.998   4.925
25794W        W97520  17.524  16.659  11.162
25795W        W97521  13.206  19.235   4.996
25796W        W97522   1.537  26.221  13.306
25797W        W97523  39.259  14.220   2.743
25798W        W97524  21.783  14.321   2.980
25799W        W97525  10.588   2.864  11.035
25800W        W97526  14.279  11.221  14.986
25801W        W97527  40.027  39.038   4.875
25802W        W97528  33.411  10.786   3.612
25803W        W97529  20.210   0.405  13.102
25804W        W97530   2.211  14.577  13.371
25805W        W97531  24.752  44.176  13.466
25806W        W97532  13.131   2.231  10.682
25807W        W97533  40.028  42.140  11.110
25808W        W97534  40.994  32.428   1.722
25809W        W97535  42.008  39.309   3.208
25810W        W97536  20.464   7.309   0.999
25811W        W97537  16.120  35.059  14.258
25812W        W97538   8.835  28.095   0.808
25813W        W97539   3.943  29.411  12.414
25814W        W97540   4.495  32.343  12.937
25815W        W97541   8.302  32.020  11.017
25816W        W97542  36.102   2.433   3.289
25817W        W97543   5.106  11.925   4.104
25818W        W97544  22.611  25.211   2.756
25819W        W97545  13.380  15.768  11.884
25820W        W97546  40.981  33.981   0.399
25821W        W97547  28.565  36.359  12.549
25822W        W97548  40.027   1.991  12.070
25823W        W97549  44.279   4.442  10.852
25824W        W97550   8.310   7.755  13.559
25825W        W97551  15.135   6.434   3.154
25826W        W97552  28.192   5.301   1.826
25827W        W97553  27.749  35.453  14.492
25828W        W97554  14.676  43.806  10.912
25829W        W97555   7.475  19.865  14.962
25830W        W97556  24.498  33.856  14.785
25831W        W97557  10.315  36.609   5.614
25832W        W97558  17.227  13.183   4.791
25833W        W97559  37.411  23.268  11.209
25834W        W97560  13.789  22.521   0.448
25835W        W97561  12.582   5.409   1.313
25836W        W97562  35.950  12.139   3.787
25837W        W97563  43.421  10.486  10.311
25838W        W97564   0.456  33.485   3.667
25839W        W97565  14.714  44.428  13.568
25840W        W97566  12.162  38.254   3.640
25841W        W97567  17.730  21.647  11.520
25842W        W97568   9.755  23.509   3.716
25843W        W97569   1.304  29.784   2.186
25844W        W97570  22.674  32.982  10.707
25845W        W97571  30.534  43.790  14.410
25846W        W97572   1.777  43.546  14.807
25847W        W97573  43.563  22.926  14.150
25848W        W97574  22.952  17.089   3.812
25849W        W97575  33.422  35.016  12.091
25850W        W97576   3.551  19.945  14.980
25851W        W97577  39.181  24.699   4.863
25852W        W97578  33.986  42.315   1.363
25853W        W97579  24.138  37.610  11.549
25854W        W97580  25.644  24.101   1.685
25855W        W97581  30.085  39.505  13.473
25856W        W97582  18.933   7.167   1.649
25857W        W97583  35.361  35.044  12.136
25858W        W97584  23.405  34.376   1.448
25859W        W97585  12.381  43.900   0.430
25860W        W97586   6.179  19.588  12.187
25861W        W97587  21.074  36.312  13.883
25862W        W97588  13.908  27.010   2.188
25863W        W97589  17.264   8.451  14.372
25864W        W97590  19.997  32.458  11.049
25865W        W97591  44.445  24.431  10.773
25866W        W97592  43.936  44.023   3.213
25867W        W97593  17.859  36.555   1.479
25868W        W97594  17.645  39.873   3.290
25869W        W97595  18.333  14.765  14.501
25870W        W97596   6.754  23.540  13.361
25871W        W97597  19.306  44.912   1.173
25872W        W97598  30.098  28.770   1.127
25873W        W97599   1.920  10.232   2.332
25874W        W97600  38.062  40.265  14.048
25875W        W97601  25.536  33.400  11.575
25876W        W97602  17.055  11.700   0.770
25877W        W97603  29.601  22.076   1.397
25878W        W97604  44.955   2.261  13.875
25879W        W97605  41.229  28.042   0.283
25880W        W97606  41.270   4.081   4.217
25881W        W97607  38.819  23.586   3.149
25882W        W97608   9.437   5.399  14.631
25883W        W97609  41.399   3.524  12.017
25884W        W97610  15.706  10.816   3.708
25885W        W97611  37.430  44.911   4.557
25886W        W97612   1.498  23.115  11.963
25887W        W97613  40.038  22.209  12.700
25888W        W97614  12.176  31.578  11.848
25889W        W97615  36.372  35.366  11.191
25890W        W97616  10.374  42.107  10.126
25891W        W97617  30.357  43.208   0.194
25892W        W97618  31.796  32.391   0.362
25893W        W97619  38.847  36.713  10.689
25894W        W97620   6.255  17.359  11.164
25895W        W97621  40.885  21.220   2.480
25896W        W97622   7.903  39.886  13.849
25897W        W97623  25.616  36.006  11.141
25898W        W97624   7.796  25.241  13.911
25899W        W97625  26.928  13.600   2.968
25900W        W97626   4.180  25.171  10.902
25901W        W97627   3.866  17.237   1.928
25902W        W97628  13.227  36.014   1.403
25903W        W97629  27.128  44.254   4.637
25904W        W97630  30.562  43.411  11.167
25905W        W97631  28.149   8.132  13.968
25906W        W97632  18.053  28.455   4.080
25907W        W97633  42.588  28.743  12.030
25908W        W97634  13.943  22.843  12.618
25909W        W97635  22.189   5.594  12.887
25910W        W97636  16.365  14.245  10.751
25911W        W97637  37.115  43.356   2.673
25912W        W97638  11.190  20.501   3.747
25913W        W97639   2.760  38.078  10.938
25914W        W97640  18.847  34.471   3.804
25915W        W97641  29.211  34.505  14.229
25916W        W97642  10.711  33.223  14.769
25917W        W97643  35.857  21.752   1.101
25918W        W97644  42.896   7.627   1.850
25919W        W97645  42.551  25.074  13.873
25920W        W97646   8.453  27.175  10.959
25921W        W97647  29.490   2.131  12.908
25922W        W97648  10.384  19.687  11.887
25923W        W97649  27.767  43.515  12.040
25924W        W97650  34.005  25.318  12.028
25925W        W97651  33.619  24.940   1.912
25926W        W97652  27.497  12.769   0.469
25927W        W97653  38.605  21.561  14.290
25928W        W97654   3.515   9.120   4.996
25929W        W97655   1.742   7.334  13.881
25930W        W97656  13.475  16.185  14.442
25931W        W97657  16.039  23.153   4.112
25932W        W97658  25.196  28.662  10.669
25933W        W97659  41.351  42.592   1.648
25934W        W97660  37.897  12.216   4.829
25935W        W97661  17.679  32.083  12.004
25936W        W97662  17.545  12.805  11.150
25937W        W97663  15.624   4.219  10.730
25938W        W97664  33.391  37.392   3.199
25939W        W97665  31.695  19.725  10.654
25940W        W97666  15.712  43.256  13.511
25941W        W97667   7.259  22.799   2.396
25942W        W97668  19.376  22.706   0.780
25943W        W97669  44.069  22.251   3.803
25944W        W97670  42.928   2.524   2.356
25945W        W97671   9.072  43.786  12.380
25946W        W97672  13.339  34.063  14.969
25947W        W97673  12.379  38.666  11.155
25948W        W97674  20.455  20.924  14.668
25949W        W97675  33.403  17.492   4.220
25950W        W97676  21.049   1.340   2.582
25951W        W97677  29.994   9.424  12.596
25952W        W97678  16.007  37.199   2.748
25953W        W97679  19.000  26.270   2.021
25954W        W97680  10.966  27.570  13.603
25955W        W97681   3.389  39.314   1.760
25956W        W97682  26.679  20.960   2.761
25957W        W97683   5.755   1.265  14.847
25958W        W97684   7.434  28.445   2.667
25959W        W97685   5.062  28.880   4.981
25960W        W97686  11.749  13.474  13.446
25961W        W97687  25.139  16.107  14.077
25962W        W97688   7.644  40.101   2.311
25963W        W97689  37.973  30.417  11.127
25964W        W97690  36.035  12.571  12.897
25965W        W97691  38.334  23.020   1.860
25966W        W97692  31.057  42.994  12.898
25967W        W97693  24.132   9.845  12.942
25968W        W97694  19.749  19.668   3.981
25969W        W97695  27.916  19.335  10.241
25970W        W97696  23.115  25.745   3.706
25971W        W97697  31.836   5.994  10.838
25972W        W97698  39.596  19.560  11.543
25973W        W97699  30.687  34.950   1.779
25974W        W97700  20.677  22.749   3.691
25975W        W97701   6.100  41.239  13.436
25976W        W97702   8.280   0.266  14.956
25977W        W97703  22.772  25.812   1.361
25978W        W97704  43.400  40.383   1.688
25979W        W97705  19.763  36.628   0.604
25980W        W97706  26.419   8.352   0.046
25981W        W97707  13.659  18.314   4.291
25982W        W97708   3.418  10.440  12.089
25983W        W97709   0.762  15.062   0.581
25984W        W97710  29.139  41.309  13.015
25985W        W97711  38.889  41.575   2.675
25986W        W97712   4.838  16.571  13.374
25987W        W97713  25.995  12.862  12.977
25988W        W97714   5.397  33.028  13.864
25989W        W97715  18.536  10.560  12.419
25990W        W97716   2.394   0.605   2.819
25991W        W97717  44.982  29.204   4.896
25992W        W97718  12.825  19.629  12.167
25993W        W97719  35.609   0.201  12.600
25994W        W97720  41.842  36.472  13.190
25995W        W97721   2.479   1.703   3.608
25996W        W97722  37.458  11.596  11.890
25997W        W97723   8.709  27.401   3.446
25998W        W97724  26.173  16.639   1.694
25999W        W97725  30.047  13.375  13.960
26000W        W97726   1.245  18.530  12.493
26001W        W97727  23.501   7.343   0.028
26002W        W97728  42.945   6.857  10.565
26003W        W97729  10.277  34.074  13.157
26004W        W97730  28.391  32.528  12.818
26005W        W97731  41.771  14.270  10.193
26006W        W97732  36.421   3.232   3.695
26007W        W97733  42.477   8.968  13.435
26008W        W97734  19.899   8.410   1.091
26009W        W97735   8.013   6.524  11.932
26010W        W97736  15.672  29.632   3.801
26011W        W97737  43.286   4.526  12.105
26012W        W97738  44.896  32.649   1.928
26013W        W97739  30.475  34.928   1.298
26014W        W97740  27.590  37.837   1.841
26015W        W97741  27.019   1.530  10.947
26016W        W97742   9.941   9.137   4.258
26017W        W97743  29.480  27.491   2.719
26018W        W97744  22.219  30.455   0.806
26019W        W97745   2.117  15.613   3.233
26020W        W97746  44.357  28.046   0.429
26021W        W97747  23.786  21.738  13.912
26022W        W97748  35.744  40.337   3.689
26023W        W97749  18.823  19.430  12.369
26024W        W97750   7.736  32.160  14.988
26025W        W97751  17.997   7.973   1.010
26026W        W97752   7.420  23.032   0.007
26027W        W97753  38.761  29.504  14.026
26028W        W97754  36.162  33.076  12.712
26029W        W97755  18.800  20.792   2.014
26030W        W97756  30.384   8.778   4.767
26031W        W97757  19.691  29.663  11.118
26032W        W97758  44.867  12.586   3.808
26033W        W97759  13.432  25.688  13.260
26034W        W97760   9.284   9.562   2.603
26035W        W97761  37.510  14.564   2.814
26036W        W97762  26.074  44.475   2.779
26037W        W97763  27.157  27.957   1.223
26038W        W97764  12.631   9.013  11.622
26039W        W97765  37.300  20.244  13.459
26040W        W97766  24.755  28.669  14.973
26041W        W97767  26.578  19.571  13.360
26042W        W97768   8.031  33.806   2.853
26043W        W97769  29.999  39.042   4.892
26044W        W97770  42.917  44.197  11.150
26045W        W97771  23.117  11.514  11.621
26046W        W97772  39.603   4.880   1.721
26047W        W97773  40.096  28.990   2.822
26048W        W97774  38.154  35.631   4.381
26049W        W97775  29.585  35.396   1.988
26050W        W97776   3.336  27.978  13.000
26051W        W97777  20.752  19.789   4.080
26052W        W97778  44.940  14.286   2.165
26053W        W97779  22.990  33.816   2.630
26054W        W97780   6.941  40.043  12.472
26055W        W97781  14.562  15.675   0.944
26056W        W97782  43.872  26.599   1.788
26057W        W97783  18.302   6.697  11.608
26058W        W97784   3.699  19.597   3.541
26059W        W97785  25.432   6.259  12.279
26060W        W97786  13.738  30.346  11.967
26061W        W97787   1.776  26.427   0.943
26062W        W97788  17.326   9.618  12.869
26063W        W97789  26.928   9.956  13.013
26064W        W97790  21.940  40.471   4.322
26065W        W97791  44.215   5.483   2.106
26066W        W97792  21.231  24.510  11.525
26067W        W97793  23.754  19.465  14.887
26068W        W97794  24.131   4.262   3.691
26069W        W97795  24.517  30.071   1.216
26070W        W97796  14.267  36.818  13.812
26071W        W97797   2.612  13.656   4.391
26072W        W97798  40.587  15.516   1.828
26073W        W97799  36.988  44.881   2.796
26074W        W97800  31.345  14.353  12.932
26075W        W97801  34.004   2.222  14.236
26076W        W97802  22.517  10.695  12.293
26077W        W97803  25.012  19.363   1.351
26078W        W97804   0.252   6.510  13.485
26079W        W97805   2.339  24.165   4.181
26080W        W97806  34.586  21.847   0.781
26081W        W97807  20.978  31.055  11.059
26082W        W97808  38.628  16.536   1.931
26083W        W97809  20.209   0.380  12.031
26084W        W97810  24.157   9.009   0.752
26085W        W97811  42.806  36.468   2.972
26086W        W97812   1.195  27.533  12.849
26087W        W97813  42.681  40.474   2.891
26088W        W97814  31.729  32.937  13.380
26089W        W97815  15.032  15.244   2.760
26090W        W97816  24.771  25.015  14.889
26091W        W97817  14.823  23.757  11.093
26092W        W97818  22.282  28.940   1.735
26093W        W97819  28.399   0.263   3.702
26094W        W97820  15.684  12.394  13.491
26095W        W97821  27.895  41.452   4.938
26096W        W97822  33.558  36.916  12.977
26097W        W97823  22.104   9.865   4.796
26098W        W97824  29.558  20.482   4.780
26099W        W97825  38.747  13.598   4.154
26100W        W97826  24.777  16.707   1.735
26101W        W97827  33.551  29.934  12.948
26102W        W97828  38.385   1.387  11.682
26103W        W97829  26.046  37.081   1.440
26104W        W97830  36.123  13.975   2.656
26105W        W97831  25.014  33.615  13.598
26106W        W97832  32.512  29.684   1.625
26107W        W97833  18.976  25.720   2.017
26108W        W97834  13.448  29.434   1.335
26109W        W97835  41.416   5.284  13.375
26110W        W97836   6.220   0.995  12.132
26111W        W97837  20.739   3.937  11.153
26112W        W97838  36.015  37.463   4.113
26113W        W97839   3.280  12.170   3.717
26114W        W97840   2.518  20.669  11.739
26115W        W97841  13.076  30.825  14.631
26116W        W97842   3.544  24.591   1.449
26117W        W97843  20.223  17.166   3.062
26118W        W97844   4.736   2.173   1.022
26119W        W97845  43.430  24.996  14.265
26120W        W97846  27.169  41.776   0.891
26121W        W97847  28.253   9.830   4.076
26122W        W97848  44.711  14.915   2.773
26123W        W97849  34.516  16.208   4.199
26124W        W97850   5.404  17.081   5.219
26125W        W97851   2.830  33.928   4.473
26126W        W97852  34.975  37.820  11.847
26127W        W97853  12.232  36.123  10.468
26128W        W97854   1.408  33.440   2.818
26129W        W97855  42.515  42.855  13.478
26130W        W97856  16.760  28.978  10.935
26131W        W97857  27.498  39.585  11.070
26132W        W97858   0.772   0.467   0.715
26133W        W97859  16.443  10.778   0.328
26134W        W97860  33.044  19.005   3.316
26135W        W97861  19.510   6.383  13.493
26136W        W97862   6.842  36.324   3.424
26137W        W97863  20.381  28.661  13.053
26138W        W97864   6.757  40.710   1.089
26139W        W97865  17.306  12.225   1.275
26140W        W97866  41.900  19.048   4.411
26141W        W97867   4.852  32.938   2.354
26142W        W97868  41.933  41.091   1.381
26143W        W97869  15.128  23.018   0.721
26144W        W97870  20.630   7.766   4.659
26145W        W97871  17.300   0.133  12.282
26146W        W97872   4.421   9.227  12.917
26147W        W97873  39.938  21.813  11.724
26148W        W97874  14.766  12.201  14.937
26149W        W97875  30.938  28.425   1.019
26150W        W97876  43.182  39.254   4.184
26151W        W97877  39.619  42.430  12.990
26152W        W97878  38.597  43.444  12.989
26153W        W97879  35.616   7.858   4.564
26154W        W97880  35.002  19.576   0.050
26155W        W97881  40.181  41.794   3.717
26156W        W97882   2.691   2.391   0.751
26157W        W97883   0.333  38.537  11.205
26158W        W97884   1.005  36.319   3.419
26159W        W97885  41.963   3.353   3.574
26160W        W97886  25.402  29.797  13.411
26161W        W97887   3.403   1.316  14.814
26162W        W97888  44.373   9.642   2.092
26163W        W97889  40.965  39.010  13.285
26164W        W97890  42.393  26.634   3.893
26165W        W97891   6.686  26.128   4.257
26166W        W97892  26.187   1.121  11.366
26167W        W97893  35.894  10.872   1.023
26168W        W97894  43.748  34.480   1.878
26169W        W97895  43.312  11.795   3.323
26170W        W97896  34.970  27.207  11.872
26171W        W97897   6.238  30.879   0.021
26172W        W97898  22.639  12.657   4.598
26173W        W97899  12.774  29.615   2.792
26174W        W97900   3.360  27.426  12.910
26175W        W97901  32.516  30.905  11.403
26176W        W97902  18.735  24.416   3.224
26177W        W97903  31.495  16.590  14.005
26178W        W97904  40.368  16.532   2.362
26179W        W97905  41.413  16.212  10.629
26180W        W97906  33.537  36.382  14.170
26181W        W97907  13.775  11.069  14.987
26182W        W97908  11.644  38.208   3.593
26183W        W97909  39.779   9.211  14.721
26184W        W97910   9.765   8.285   1.151
26185W        W97911  35.061   9.740  12.140
26186W        W97912   5.933  11.656   3.670
26187W        W97913   5.005  11.222   2.187
26188W        W97914  35.023  37.917   1.827
26189W        W97915  27.383  20.917   1.760
26190W        W97916  39.635   6.031   0.796
26191W        W97917  10.788   4.718  13.846
26192W        W97918   3.992  21.411   2.215
26193W        W97919   3.876  40.471  12.641
26194W        W97920  22.570  41.263   2.872
26195W        W97921  13.055  29.036   1.262
26196W        W97922  33.087  34.352   4.232
26197W        W97923  21.456  27.046   4.912
26198W        W97924   9.253  12.642   2.835
26199W        W97925   7.547   1.918  10.655
26200W        W97926  24.637  33.177   0.484
26201W        W97927  21.560  22.242  14.918
26202W        W97928  26.074  44.855  14.795
26203W        W97929  23.331   5.699  11.169
26204W        W97930  30.451  22.442   0.931
26205W        W97931  14.729  34.646  13.928
26206W        W97932  31.076  25.673   0.698
26207W        W97933  38.844  23.970   2.766
26208W        W97934  38.784  43.909   3.924
26209W        W97935  20.521  34.661  11.882
26210W        W97936  18.505   3.697   0.384
26211W        W97937   9.874  27.455   2.655
26212W        W97938  41.742  31.814   2.286
26213W        W97939  38.859  43.448  12.491
26214W        W97940  31.794  43.069   3.861
26215W        W97941   3.174  20.666  13.575
26216W        W97942  27.403   1.977  12.011
26217W        W97943  30.722  33.605  14.385
26218W        W97944  36.387   1.164  13.869
26219W        W97945  39.015   4.191  12.921
26220W        W97946  23.616  38.868   1.867
26221W        W97947  16.581   7.281   0.768
26222W        W97948  14.399  18.188  12.214
26223W        W97949  41.433  19.163   3.656
26224W        W97950  34.418  25.682  10.757
26225W        W97951  31.306  36.870   4.791
26226W        W97952   0.609  43.046  12.046
26227W        W97953  42.914  12.896  10.617
26228W        W97954   4.712  17.179   3.603
26229W        W97955   5.754  41.301   2.750
26230W        W97956  34.149  35.477   0.920
26231W        W97957  19.820   9.779   4.726
26232W        W97958  26.958   3.374   0.208
26233W        W97959  42.578  43.751   3.373
26234W        W97960  35.093   0.705  11.926
26235W        W97961  43.513  17.985   3.278
26236W        W97962  30.489  21.833   3.642
26237W        W97963  43.696  36.971   0.686
26238W        W97964  38.805  33.301   2.681
26239W        W97965  37.544   4.397  13.604
26240W        W97966  39.485  27.040   1.701
26241W        W97967  12.493  24.215  10.723
26242W        W97968  19.973  39.950   4.624
26243W        W97969   6.397  38.973   3.363
26244W        W97970   0.916  25.265  13.382
26245W        W97971  26.945  24.865  12.897
26246W        W97972  34.405   5.291  13.969
26247W        W97973  38.412  28.728  14.730
26248W        W97974  22.556  27.177  13.949
26249W        W97975   6.405  25.767  12.462
26250W        W97976   4.033  40.634  12.184
26251W        W97977  13.659  38.811  13.134
26252W        W97978   2.221  44.797   3.904
26253W        W97979  10.048  23.114   0.336
26254W        W97980  23.189  25.130  13.833
26255W        W97981  22.068  16.111  13.296
26256W        W97982   7.175   3.231   4.513
26257W        W97983  28.542   2.672   1.249
26258W        W97984  19.274  24.117   2.926
26259W        W97985   3.705  35.075  12.594
26260W        W97986  29.617  25.154  14.383
26261W        W97987   4.530   9.919   5.053
26262W        W97988  29.129  26.366  13.598
26263W        W97989  32.926  35.434   1.275
26264W        W97990  21.069  26.732  13.290
26265W        W97991  19.759  39.070   4.782
26266W        W97992  10.273  25.251  11.113
26267W        W97993  25.043   6.189  11.275
26268W        W97994  37.087  42.240  14.999
26269W        W97995  15.062  15.679  11.518
26270W        W97996  38.025  13.664  13.899
26271W        W97997  27.665  41.002   3.684
26272W        W97998  14.313   3.599  13.108
26273W        W97999  38.130  30.239  13.828
26274W        W98000   1.191  29.116   1.243
26275W        W98001  38.951  34.295   1.845
26276W        W98002  35.541  15.470   2.263
26277W        W98003  40.310  36.085   0.238
26278W        W98004  41.399  40.531  14.358
26279W        W98005  34.932  33.115  13.938
26280W        W98006  32.310  44.901   1.243
26281W        W98007  32.106  21.011  14.804
26282W        W98008  10.813   2.946   3.427
26283W        W98009   7.461  30.516  11.709
26284W        W98010  22.934  27.538  14.891
26285W        W98011  25.217  42.725  11.474
26286W        W98012   1.220   2.847   2.228
26287W        W98013  22.752  26.528   0.252
26288W        W98014  10.397   3.675   1.864
26289W        W98015  17.577   5.709   2.410
26290W        W98016  19.450  44.518  14.528
26291W        W98017  38.844  17.097  12.428
26292W        W98018   0.292  27.727  13.389
26293W        W98019  37.102  32.153   1.939
26294W        W98020  19.223  32.629  12.540
26295W        W98021   3.924  35.908   0.687
26296W        W98022  37.265  16.043   0.755
26297W        W98023   0.206   4.647   3.918
26298W        W98024   9.649   7.908   0.450
26299W        W98025  32.583   3.145   2.918
26300W        W98026  37.347   3.451  11.936
26301W        W98027   6.215  16.065   3.118
26302W        W98028  10.798  14.687  11.712
26303W        W98029   8.374  31.331   3.542
26304W        W98030  35.111   7.205   1.737
26305W        W98031   2.535  26.070   3.549
26306W        W98032  21.199   9.825   4.915
26307W        W98033  17.576  35.699   2.651
26308W        W98034  31.184  14.911  12.606
26309W        W98035  24.959   2.341   3.621
26310W        W98036  10.308  25.241   2.649
26311W        W98037  20.283  10.767  14.594
26312W        W98038  23.969  40.927  10.923
26313W        W98039  31.870  36.518  10.988
26314W        W98040  23.310  12.789  10.449
26315W        W98041  24.016  44.709   2.769
26316W        W98042  23.088  24.559   2.508
26317W        W98043   9.460  18.176   1.386
26318W        W98044  34.362   4.734   1.662
26319W        W98045   5.773  21.233   1.846
26320W        W98046  23.718  41.371  11.485
26321W        W98047  15.044   9.960  12.106
26322W        W98048   2.418  19.592  11.359
26323W        W98049  24.538   8.071   2.410
26324W        W98050  36.787  34.915   2.171
26325W        W98051   2.251  12.058  13.828
26326W        W98052  15.120  19.012  13.789
26327W        W98053  29.228  40.031   0.452
26328W        W98054  40.248  11.183  10.679
26329W        W98055  30.587  14.015   0.001
26330W        W98056  31.032  27.461   4.752
26331W        W98057  15.922  16.598   2.789
26332W        W98058   6.417  35.377   4.084
26333W        W98059  20.546  28.238  13.299
26334W        W98060  23.718  29.965   4.177
26335W        W98061   6.606  35.840   3.239
26336W        W98062  33.404  23.993  12.936
26337W        W98063  33.943  35.611   2.699
26338W        W98064  18.104   5.844  12.072
26339W        W98065  28.757  28.119   0.816
26340W        W98066  31.219  28.500  12.887
26341W        W98067  39.404  26.325   1.272
26342W        W98068   3.534  26.484   1.061
26343W        W98069   1.694  37.974   2.318
26344W        W98070  34.939  27.653   4.543
26345W        W98071  35.986  29.130  11.227
26346W        W98072   2.937   0.008  11.951
26347W        W98073   8.942   8.280   2.326
26348W        W98074  30.270  17.898  10.445
26349W        W98075   5.893  20.798  13.305
26350W        W98076  32.567  44.112   1.603
26351W        W98077  23.518  34.770  14.194
26352W        W98078  40.638  22.817  11.959
26353W        W98079   3.144  33.228   3.191
26354W        W98080  19.090  33.372   2.326
26355W        W98081   5.588  15.653  13.819
26356W        W98082   5.387  29.701   2.815
26357W        W98083   7.366  36.424   1.075
26358W        W98084  21.287   7.358  11.644
26359W        W98085  44.563  32.301  10.465
26360W        W98086  38.817   1.437   4.988
26361W        W98087   9.168  36.659   3.642
26362W        W98088  34.572  24.677   2.667
26363W        W98089  28.975  25.512   4.335
26364W        W98090   4.191  38.473   4.402
26365W        W98091  15.623  33.007   0.902
26366W        W98092  19.217  11.351   3.365
26367W        W98093  15.022  17.737  11.840
26368W        W98094  23.676  27.412   0.658
26369W        W98095   7.728  31.681  12.900
26370W        W98096   1.761   9.586  11.817
26371W        W98097  42.101   6.619  14.686
26372W        W98098  29.404  35.369  12.985
26373W        W98099  29.828  27.553   5.037
26374W        W98100   4.240  32.476   3.051
26375W        W98101   5.946   5.416   1.866
26376W        W98102  19.294  26.946  14.729
26377W        W98103  19.990   1.560  11.255
26378W        W98104  39.005  32.694   3.716
26379W        W98105  10.125  26.199   4.552
26380W        W98106  12.720  30.166  14.582
26381W        W98107  25.599  39.509   4.568
26382W        W98108  36.108  22.168  13.710
26383W        W98109  34.657  21.516  10.240
26384W        W98110  23.538   4.822   2.708
26385W        W98111  14.686   7.184   3.840
26386W        W98112  22.684  17.691  13.070
26387W        W98113   7.546  11.641   5.073
26388W        W98114  44.396  23.373   3.112
26389W        W98115  25.025   9.065  11.034
26390W        W98116  31.162  11.523  14.156
26391W        W98117  27.011  18.101   4.720
26392W        W98118  30.245  43.381  14.242
26393W        W98119  11.866  24.300   1.757
26394W        W98120  17.871   8.833   4.320
26395W        W98121  21.990   5.545   4.719
26396W        W98122  33.151  41.510   1.895
26397W        W98123  41.529   5.260  14.627
26398W        W98124  42.483  13.103  14.267
26399W        W98125  10.944  24.935  10.555
26400W        W98126  35.697  41.305   0.906
26401W        W98127   1.958  24.500  11.924
26402W        W98128  25.491  28.931  12.427
26403W        W98129   0.130  19.293   1.454
26404W        W98130  17.742  29.187   4.366
26405W        W98131  43.761  21.256  14.515
26406W        W98132   5.885  23.067   3.553
26407W        W98133  22.030   7.297   0.519
26408W        W98134  39.825  35.101  14.008
26409W        W98135  17.198  11.884   5.131
26410W        W98136  41.958  20.019   4.577
26411W        W98137  26.071  13.598   0.037
26412W        W98138  36.994  10.142   4.174
26413W        W98139   3.477  26.689  13.366
26414W        W98140  30.110   7.448   1.640
26415W        W98141  31.443  19.496  11.524
26416W        W98142  22.064   4.201   1.324
26417W        W98143   1.329  20.688   2.378
26418W        W98144  13.713   7.363   3.183
26419W        W98145   1.352  12.624  10.787
26420W        W98146  28.834  35.170   2.468
26421W        W98147   5.402  28.453  14.553
26422W        W98148  15.151  23.400   2.563
26423W        W98149  30.694  11.647   4.179
26424W        W98150  30.231  11.845  13.919
26425W        W98151  28.628   0.799  14.288
26426W        W98152  18.131  12.037  14.758
26427W        W98153  10.184  11.670   0.348
26428W        W98154  40.527   7.779  13.564
26429W        W98155   8.146  42.497  13.584
26430W        W98156  23.148  21.111   0.923
26431W        W98157  28.653   3.215   3.795
26432W        W98158  23.483   2.890   1.051
26433W        W98159  35.156   8.999   4.551
26434W        W98160  37.649   6.868   1.784
26435W        W98161  33.685   8.430   3.191
26436W        W98162  29.706  14.398  11.213
26437W        W98163  28.691   0.228  12.889
26438W        W98164  30.777  30.989  13.317
26439W        W98165  13.181  24.960   0.029
26440W        W98166  28.634  35.784   4.697
26441W        W98167   9.749  28.461   2.515
26442W        W98168   8.232  41.735  13.931
26443W        W98169  29.253  39.108  10.279
26444W        W98170  35.543  29.248  11.544
26445W        W98171  17.760  17.387   0.477
26446W        W98172   0.809   1.354   4.666
26447W        W98173  39.752  31.153  14.486
26448W        W98174  17.460  39.026  10.104
26449W        W98175  36.325  44.317   3.113
26450W        W98176  30.582  14.016   2.121
26451W        W98177  14.341  25.001   1.300
26452W        W98178  38.862  18.109   1.510
26453W        W98179   1.428   9.658   1.879
26454W        W98180  38.750  19.515   1.399
26455W        W98181  40.679   6.305  10.259
26456W        W98182  16.609  15.234   3.798
26457W        W98183  44.201  15.771  11.980
26458W        W98184   9.114  32.689  12.018
26459W        W98185  30.958   3.268  11.446
26460W        W98186   8.648  40.721   3.409
26461W        W98187  32.361  36.592  14.943
26462W        W98188  39.805  38.609   3.280
26463W        W98189  33.070  19.818  11.627
26464W        W98190   9.816   4.719   4.774
26465W        W98191  32.085  16.778   0.763
26466W        W98192  35.602  23.716  14.904
26467W        W98193  24.715  19.551   0.931
26468W        W98194   5.954  36.606  12.303
26469W        W98195  39.831  37.592   3.344
26470W        W98196  24.191  36.438   3.680
26471W        W98197  12.703  19.122  13.159
26472W        W98198  23.098  31.525  11.740
26473W        W98199  14.732  19.595   1.216
26474W        W98200  14.091  10.942   3.219
26475W        W98201  20.654  40.328   0.839
26476W        W98202  41.817  26.999  11.555
26477W        W98203  37.566  39.079   2.865
26478W        W98204   5.141  16.773  14.176
26479W        W98205  26.024  19.045   4.192
26480W        W98206  14.740  23.300  13.818
26481W        W98207  32.087  41.014  12.436
26482W        W98208  23.773   1.546   0.228
26483W        W98209  39.920  11.141  12.548
26484W        W98210  30.135   8.295   1.359
26485W        W98211  25.020  10.409   0.420
26486W        W98212  31.969  43.796   2.776
26487W        W98213  23.238  20.654  11.841
26488W        W98214  34.651  27.767   4.109
26489W        W98215  15.806  10.842  10.555
26490W        W98216  37.372  36.145   4.174
26491W        W98217  35.063   6.216  12.031
26492W        W98218  17.839  28.111  12.400
26493W        W98219  14.176  31.637   4.425
26494W        W98220  22.694  39.144   2.961
26495W        W98221  42.347  43.272  11.434
26496W        W98222  27.146  14.023  13.879
26497W        W98223  42.531  42.774  14.898
26498W        W98224   9.257   5.423   3.745
26499W        W98225  11.684  10.370  10.053
26500W        W98226  13.310  18.244  14.457
26501W        W98227  43.842  34.867  12.130
26502W        W98228  37.541  38.840   0.379
26503W        W98229  36.404  38.580  14.720
26504W        W98230  29.460   4.351   3.687
26505W        W98231  31.138  34.726  12.935
26506W        W98232  31.416  25.423  14.870
26507W        W98233  30.806  44.217  14.284
26508W        W98234  22.446  21.313  10.217
26509W        W98235  37.357  20.194   4.270
26510W        W98236  18.118  42.240  14.014
26511W        W98237   8.580  44.852  14.992
26512W        W98238   7.772  19.889   4.094
26513W        W98239  35.219   1.076   4.949
26514W        W98240  26.717  35.825   1.365
26515W        W98241  28.020  29.548  10.667
26516W        W98242  41.294  22.251  14.439
26517W        W98243  19.228  34.116  13.270
26518W        W98244  25.930   4.973  13.988
26519W        W98245  29.762   1.670  12.923
26520W        W98246  19.462  32.277   3.795
26521W        W98247  12.337   2.448  14.037
26522W        W98248  38.142   7.764  11.772
26523W        W98249  43.333   2.776   1.140
26524W        W98250  25.011  42.140  12.398
26525W        W98251  23.059  16.336   0.863
26526W        W98252  34.502  33.404  13.879
26527W        W98253  10.882   9.168   1.281
26528W        W98254   7.870  30.887  11.632
26529W        W98255  24.420  12.858  13.082
26530W        W98256  23.101  36.473   4.592
26531W        W98257  37.888  24.089   1.798
26532W        W98258  25.109  41.789   1.976
26533W        W98259  31.035  40.085   5.085
26534W        W98260   9.684  38.530   3.761
26535W        W98261   3.928  39.149  10.258
26536W        W98262  35.351  10.639  14.462
26537W        W98263   2.283   2.295  11.491
26538W        W98264   6.556  15.946   3.496
26539W        W98265  34.571  38.047  12.616
26540W        W98266   7.768  43.848  11.613
26541W        W98267   4.920  30.892  12.863
26542W        W98268  11.791  18.004   2.258
26543W        W98269  43.237  34.454  14.250
26544W        W98270  10.362  41.710   2.285
26545W        W98271  36.028  40.644  12.470
26546W        W98272   3.992  21.147   1.349
26547W        W98273   5.418   1.039   0.344
26548W        W98274  17.841  28.986   3.451
26549W        W98275  36.563  13.342   0.268
26550W        W98276  20.343   7.175   4.597
26551W        W98277  41.095  17.052   2.658
26552W        W98278  17.635  30.016  11.073
26553W        W98279   2.895  12.423  10.700
26554W        W98280  27.147   9.049   4.846
26555W        W98281  22.545  31.642   3.152
26556W        W98282  23.724  17.930   4.749
26557W        W98283  37.878  11.306  12.803
26558W        W98284  34.381   2.355  12.917
26559W        W98285  17.547  25.287   3.803
26560W        W98286  12.579  12.283   3.665
26561W        W98287   0.803   9.598  12.642
26562W        W98288  41.949  19.729   2.627
26563W        W98289  36.615  33.424  12.006
26564W        W98290  27.221  15.766  13.484
26565W        W98291  41.731  44.503  13.593
26566W        W98292  34.359  17.279  14.394
26567W        W98293  15.753  15.675  12.137
26568W        W98294  27.981   8.886   4.547
26569W        W98295  23.439  40.781   1.191
26570W        W98296  42.017  16.557  11.059
26571W        W98297   5.080  30.927   4.886
26572W        W98298  44.405  34.961  14.400
26573W        W98299  41.018   0.710   0.660
26574W        W98300  35.490  44.021  11.543
26575W        W98301  12.332   6.094   2.263
26576W        W98302   2.237  34.557  11.175
26577W        W98303   6.806  43.005   1.751
26578W        W98304  38.974  10.176   2.252
26579W        W98305  27.966   2.904   2.246
26580W        W98306  31.101   1.945  13.896
26581W        W98307  41.401   2.729  12.488
26582W        W98308  10.330  15.139   2.643
26583W        W98309   2.478  30.923  12.360
26584W        W98310   3.957   8.935  13.613
26585W        W98311  25.585  12.442  12.124
26586W        W98312  41.035  24.715   1.415
26587W        W98313  24.401  41.882  13.589
26588W        W98314  37.627  42.253  14.184
26589W        W98315  32.550   6.149   3.786
26590W        W98316  44.061  40.322  13.340
26591W        W98317  16.807   9.085   0.884
26592W        W98318  15.313  17.283  12.546
26593W        W98319  31.096  23.630  13.871
26594W        W98320   6.924  17.716   0.801
26595W        W98321  25.274   5.371  12.318
26596W        W98322  40.970  37.914  14.235
26597W        W98323  36.497   8.652  13.212
26598W        W98324   5.744   2.401   3.182
26599W        W98325  30.986  11.055   1.676
26600W        W98326  30.249  32.055   3.912
26601W        W98327  42.533  18.653   1.190
26602W        W98328  13.164  12.156  12.462
26603W        W98329  13.630   1.579   4.648
26604W        W98330  38.163  23.978  10.940
26605W        W98331  29.045   6.122  14.911
26606W        W98332  34.081  13.324   0.481
26607W        W98333  21.166  14.853   3.762
26608W        W98334  29.683  15.580   3.575
26609W        W98335  16.489  32.892  12.450
26610W        W98336  18.631  25.696   3.686
26611W        W98337  30.484  23.223   2.606
26612W        W98338  27.891  38.933  14.912
26613W        W98339  32.402  34.552  11.459
26614W        W98340  35.112   2.696  14.817
26615W        W98341   1.953  16.023   2.296
26616W        W98342   6.821   7.219  14.394
26617W        W98343  18.778  18.270   3.270
26618W        W98344  36.729   3.681  11.328
26619W        W98345  14.539   5.762   1.517
26620W        W98346  36.091  18.112  12.453
26621W        W98347  31.329   8.159   3.750
26622W        W98348  14.455   8.586   3.271
26623W        W98349  37.495  43.878   4.523
26624W        W98350   7.852  22.497  12.523
26625W        W98351  30.677  25.105   2.341
26626W        W98352  14.013  10.416   3.360
26627W        W98353  20.510   7.152   3.795
26628W        W98354  21.075   1.464   0.767
26629W        W98355  19.367  42.044  10.988
26630W        W98356  32.952  16.420  12.582
26631W        W98357  23.665  37.928  14.373
26632W        W98358  22.112  23.712   0.987
26633W        W98359  25.001  17.213  13.244
26634W        W98360  20.567  27.251  13.429
26635W        W98361  23.755  16.755   1.757
26636W        W98362  33.632  23.600   5.032
26637W        W98363  33.226   9.581  11.251
26638W        W98364  17.996  40.086  10.156
26639W        W98365  26.939  33.126   3.214
26640W        W98366  39.191  10.768   1.346
26641W        W98367  43.920  22.069   4.268
26642W        W98368  32.544  37.403   1.117
26643W        W98369  30.966  41.310  10.969
26644W        W98370   8.360  28.130   0.591
26645W        W98371  38.778  41.918  12.184
26646W        W98372  25.157   4.389  10.597
26647W        W98373  40.099  39.225  14.819
26648W        W98374  21.521  44.440  14.539
26649W        W98375   5.023  10.360   3.249
26650W        W98376  10.580  34.033   1.310
26651W        W98377  32.503   2.210  12.599
26652W        W98378   4.977  33.809   1.274
26653W        W98379  16.052  43.886  13.937
26654W        W98380  34.330  18.672   3.879
26655W        W98381  35.538  18.024   3.342
26656W        W98382   4.511  11.823  12.331
26657W        W98383  35.437  40.433  13.865
26658W        W98384  44.186  18.547   3.657
26659W        W98385  33.810  22.480  12.729
26660W        W98386  43.474   4.154  11.794
26661W        W98387  28.110   9.719   2.839
26662W        W98388  32.827  20.652   3.609
26663W        W98389  34.595   5.539   2.856
26664W        W98390  42.881  21.187  11.027
26665W        W98391  18.259  26.017  11.660
26666W        W98392   5.734  40.013  14.856
26667W        W98393   7.543  14.587  12.791
26668W        W98394   1.900  40.255   4.064
26669W        W98395   0.570  26.757  14.327
26670W        W98396  35.125   7.973   3.721
26671W        W98397  33.147  13.805   0.763
26672W        W98398   4.451  33.724  11.083
26673W        W98399  18.555  10.947   0.077
26674W        W98400  28.500  21.785  13.528
26675W        W98401   3.314  11.356   4.842
26676W        W98402  16.301   3.824   3.435
26677W        W98403  35.959  28.446  10.713
26678W        W98404  15.086  20.159   2.377
26679W        W98405  26.770  29.632   4.693
26680W        W98406  34.303  14.062  13.327
26681W        W98407  29.187  10.968   2.681
26682W        W98408   4.702  23.638   3.200
26683W        W98409  27.188  22.466   0.981
26684W        W98410  22.719  23.197   4.094
26685W        W98411  23.283  36.466   3.630
26686W        W98412  13.120  16.759   3.684
26687W        W98413  21.557  30.367  10.631
26688W        W98414  34.345   5.297  11.489
26689W        W98415  26.771  14.924   4.049
26690W        W98416  20.360  13.724  10.717
26691W        W98417   3.202   5.232   0.373
26692W        W98418  29.631  31.692   2.783
26693W        W98419  30.998  25.646   1.771
26694W        W98420  12.540  18.732  12.850
26695W        W98421  26.219   0.330   0.567
26696W        W98422  42.998  21.213  14.567
26697W        W98423  40.848  40.641   3.650
26698W        W98424   3.797  13.808   4.879
26699W        W98425  22.536  13.694   2.469
26700W        W98426  42.586  17.326   4.243
26701W        W98427  18.854  26.709   1.772
26702W        W98428   3.550  14.823  10.459
26703W        W98429   1.578  38.141  11.581
26704W        W98430  30.380  32.462   0.085
26705W        W98431  22.529   8.870  11.843
26706W        W98432  26.029  18.304   4.602
26707W        W98433  27.764  39.437  10.652
26708W        W98434  42.881  39.320  13.393
26709W        W98435  18.147  41.710  14.850
26710W        W98436  14.412  12.738  12.305
26711W        W98437  34.005  13.037   3.390
26712W        W98438  19.990  36.979  11.432
26713W        W98439  25.226  39.497   0.347
26714W        W98440  12.322  19.238  13.481
26715W        W98441  11.334  31.596  10.946
26716W        W98442   8.365  29.676  11.062
26717W        W98443  25.907   1.178  13.924
26718W        W98444  12.147  40.486  13.643
26719W        W98445  14.114   5.082   1.477
26720W        W98446  37.946   4.691  14.702
26721W        W98447  14.176  10.738  12.300
26722W        W98448  35.526  34.408  13.913
26723W        W98449  41.735   7.668  12.944
26724W        W98450   1.829  16.989   0.035
26725W        W98451  12.555  25.951   3.190
26726W        W98452  42.363  24.281  11.889
26727W        W98453  39.634   5.363  11.529
26728W        W98454   7.246  15.636  10.480
26729W        W98455  13.727  33.130   0.851
26730W        W98456  36.598  38.987   1.844
26731W        W98457   3.456   9.095  13.710
26732W        W98458  42.282  37.509   3.235
26733W        W98459  20.073  39.674   1.936
26734W        W98460  39.515  40.095   1.309
26735W        W98461  13.352   8.327  11.260
26736W        W98462   8.525   2.435   4.159
26737W        W98463  32.559  25.547   0.965
26738W        W98464  35.713  37.677   1.384
26739W        W98465  32.979  25.940  11.208
26740W        W98466  13.238  15.215   3.648
26741W        W98467  41.292  41.382  11.202
26742W        W98468  41.313  43.591  13.564
26743W        W98469  33.372  40.363   3.949
26744W        W98470  21.116  16.765  10.663
26745W        W98471  12.856  31.018  13.753
26746W        W98472  32.452  18.671   2.783
26747W        W98473  15.774  39.495  11.781
26748W        W98474  33.868  13.825   2.982
26749W        W98475  29.854  17.904  13.521
26750W        W98476  43.692   1.842   2.198
26751W        W98477  37.806  33.411  10.221
26752W        W98478  32.225   5.326   1.287
26753W        W98479  20.750  32.135   3.348
26754W        W98480   0.523  20.060   0.727
26755W        W98481  11.439   6.377   4.386
26756W        W98482  17.342   3.434  13.879
26757W        W98483  18.517  34.528  13.479
26758W        W98484   3.453  13.561   2.587
26759W        W98485  41.188   3.434  11.081
26760W        W98486   8.866  26.608   2.714
26761W        W98487  23.740  40.525   0.823
26762W        W98488  20.586   7.467  12.555
26763W        W98489  27.702  14.723  11.610
26764W        W98490  29.225  30.345   3.733
26765W        W98491  30.514  37.243   4.342
26766W        W98492  25.600   1.712   4.578
26767W        W98493  14.192  40.319  14.291
26768W        W98494  35.298  20.790  14.462
26769W        W98495  32.402  16.410   1.326
26770W        W98496  16.282   2.295  13.584
26771W        W98497  40.951  19.424   1.784
26772W        W98498  35.075  29.893  13.986
26773W        W98499  30.227  24.242   3.742
26774W        W98500  41.232  24.434   1.008
26775W        W98501  14.896  17.358  13.479
26776W        W98502  33.092  30.253   0.991
26777W        W98503  21.597  29.359  11.562
26778W        W98504   0.839  12.422  14.138
26779W        W98505  36.112  24.059  13.764
26780W        W98506   3.992  20.496  11.699
26781W        W98507  26.843  19.501   1.908
26782W        W98508  11.735   6.549  13.538
26783W        W98509  18.069  41.792  11.971
26784W        W98510   2.978  24.154  11.121
26785W        W98511   0.654  44.262   1.337
26786W        W98512  31.209  26.539  11.665
26787W        W98513  42.988  33.028  10.905
26788W        W98514   0.130   2.360   1.305
26789W        W98515  12.886   1.943  14.303
26790W        W98516  31.138  21.906  12.561
26791W        W98517   7.665  35.348  11.698
26792W        W98518  40.185  15.309  13.295
26793W        W98519  19.057  22.739  12.342
26794W        W98520  11.819  44.166  10.514
26795W        W98521  44.067   7.596  14.407
26796W        W98522  15.228  12.998   0.910
26797W        W98523  11.077   4.787  10.901
26798W        W98524  17.975  12.757   0.889
26799W        W98525  27.904  12.458   0.305
26800W        W98526   8.774  20.179   2.674
26801W        W98527  28.707  18.811   3.399
26802W        W98528  23.199  29.490   1.455
26803W        W98529  38.627  33.802   1.486
26804W        W98530  14.206  42.272   3.285
26805W        W98531  14.544  10.274  10.952
26806W        W98532  14.094  10.967   1.729
26807W        W98533   2.563  22.226  12.040
26808W        W98534  14.389  42.330  13.024
26809W        W98535  41.944  14.219   0.878
26810W        W98536  17.535   2.000  13.875
26811W        W98537  34.539  25.444  12.130
26812W        W98538   5.144  10.342  11.509
26813W        W98539  22.129  37.890   1.373
26814W        W98540  23.139  12.109  14.372
26815W        W98541  18.351  13.882   2.768
26816W        W98542   2.224   6.275   4.668
26817W        W98543   6.041  36.335  11.877
26818W        W98544  37.081  20.924   4.730
26819W        W98545  37.119  11.258   0.679
26820W        W98546  27.440  12.113   2.724
26821W        W98547  21.663   2.820  11.313
26822W        W98548  14.965   0.526  13.934
26823W        W98549   3.843  27.125   2.908
26824W        W98550  14.079  19.133   4.040
26825W        W98551  37.852  13.119   2.646
26826W        W98552  34.444  33.915  11.435
26827W        W98553  44.429  13.122  14.291
26828W        W98554  16.865   0.239  11.975
26829W        W98555  42.404  44.682   3.359
26830W        W98556  17.701   2.414  13.565
26831W        W98557  28.484  10.101   1.470
26832W        W98558  22.022  27.187   4.280
26833W        W98559   3.263  25.593  11.668
26834W        W98560  10.251  37.591  10.732
26835W        W98561  34.961  29.055   3.450
26836W        W98562  24.127  10.142   4.740
26837W        W98563  42.986  35.176  14.804
26838W        W98564   7.520  40.648   3.716
26839W        W98565  41.556  22.751  14.297
26840W        W98566  44.237  29.139  12.109
26841W        W98567   1.430  44.427   2.685
26842W        W98568  39.465  23.307   2.747
26843W        W98569   4.945  44.721   0.256
26844W        W98570  40.797  13.522   1.947
26845W        W98571  19.833  17.736  11.656
26846W        W98572   2.355   7.185  12.646
26847W        W98573  35.100  21.927   0.779
26848W        W98574  35.556  37.539   0.001
26849W        W98575  32.588  28.095  11.556
26850W        W98576  44.543  29.998   4.550
26851W        W98577  10.427  29.058   2.286
26852W        W98578  42.430  32.670  12.878
26853W        W98579   0.408  11.263   3.166
26854W        W98580   5.152  10.341  12.559
26855W        W98581  20.010  33.245  14.329
26856W        W98582  38.864  36.971   1.902
26857W        W98583  29.045  41.990  13.445
26858W        W98584  32.199  40.441  11.657
26859W        W98585   2.798  21.432  11.144
26860W        W98586  42.928   0.389  13.998
26861W        W98587  25.903  31.742   2.523
26862W        W98588  44.434   8.975   2.247
26863W        W98589  41.855  14.713   1.040
26864W        W98590  28.525   3.041  14.028
26865W        W98591  36.936  37.574  11.283
26866W        W98592  37.581  23.299   3.088
26867W        W98593  36.469   1.474   3.683
26868W        W98594  31.943  44.689   0.530
26869W        W98595  13.144  12.774  12.943
26870W        W98596  16.967  16.771  12.063
26871W        W98597  25.133  14.805  14.579
26872W        W98598  44.211  40.906  14.917
26873W        W98599  10.750  22.750   0.086
26874W        W98600  29.160  36.526   1.327
26875W        W98601  32.740  25.684  10.366
26876W        W98602   3.906  19.779   2.569
26877W        W98603  20.700  26.386   5.400
26878W        W98604  18.558   5.672   2.783
26879W        W98605  12.232  34.560   2.387
26880W        W98606  24.561  10.596  12.270
26881W        W98607  33.007  20.475  10.772
26882W        W98608  42.677  23.236   4.578
26883W        W98609  23.671  43.946  13.081
26884W        W98610  31.493   4.494  11.604
26885W        W98611  39.084  13.729   2.657
26886W        W98612  18.753  33.650  10.781
26887W        W98613  43.655   8.543  11.734
26888W        W98614  44.429  38.361  11.692
26889W        W98615  36.887   3.688   4.314
26890W        W98616  33.431  12.372   4.567
26891W        W98617   3.692  44.720  11.618
26892W        W98618  26.604  12.858  11.742
26893W        W98619  30.594  38.825  14.501
26894W        W98620   2.710  41.513   2.035
26895W        W98621   4.125  32.949  11.581
26896W        W98622   9.753   4.470   0.729
26897W        W98623  39.553  44.834   4.543
26898W        W98624  11.252  16.474   0.105
26899W        W98625  17.732   3.892   2.027
26900W        W98626  27.598  43.521   3.639
26901W        W98627  15.694  37.319   0.895
26902W        W98628   5.305  27.454   0.755
26903W        W98629  32.875  19.581  11.192
26904W        W98630  16.551  29.105  14.363
26905W        W98631  39.546  39.308  13.881
26906W        W98632   6.795  32.590   1.476
26907W        W98633  15.666   6.932   0.852
26908W        W98634   3.999   7.849   2.194
26909W        W98635  32.507  20.354  10.707
26910W        W98636  33.204  40.342   3.440
26911W        W98637  16.810  39.484  13.000
26912W        W98638  44.285  37.057   2.698
26913W        W98639  43.279  43.259  12.858
26914W        W98640  31.870  30.725  11.271
26915W        W98641   5.158  34.599  11.932
26916W        W98642  24.657  44.917  10.922
26917W        W98643  35.884  24.762  11.980
26918W        W98644  39.824  21.264   0.875
26919W        W98645  37.334  44.006   3.622
26920W        W98646  43.018  12.851  14.007
26921W        W98647   8.844  22.748  12.473
26922W        W98648   4.485  21.258  11.518
26923W        W98649  42.286  13.603   2.377
26924W        W98650   0.749   9.855  10.799
26925W        W98651  19.175  23.101   3.096
26926W        W98652  35.153  39.632   5.283
26927W        W98653  37.504  16.678   3.208
26928W        W98654  36.857  10.396   3.745
26929W        W98655  34.502  33.356  10.526
26930W        W98656  39.578  19.408   1.670
26931W        W98657   3.102  15.422   2.296
26932W        W98658  16.036  36.507  12.428
26933W        W98659  26.023  10.761   0.555
26934W        W98660  11.572  43.543  12.460
26935W        W98661  22.964  28.630  12.794
26936W        W98662  31.602  25.229  11.068
26937W        W98663  33.350   4.364   3.354
26938W        W98664  37.562  40.881  14.241
26939W        W98665  24.806  26.896  14.429
26940W        W98666  44.293  30.094   2.281
26941W        W98667  11.597  37.556  11.184
26942W        W98668  23.705  29.908   3.670
26943W        W98669  25.950  13.775   2.724
26944W        W98670   6.500  28.380   2.720
26945W        W98671  19.715  38.333   3.559
26946W        W98672  21.575  26.080   5.012
26947W        W98673  37.978   9.078   5.427
26948W        W98674  40.338   2.968   4.710
26949W        W98675   5.740  43.063   1.078
26950W        W98676  14.296   0.833   1.951
26951W        W98677  14.179   4.225   0.874
26952W        W98678  27.142  26.238  11.270
26953W        W98679  12.781   2.518   2.224
26954W        W98680  26.399  34.085   0.509
26955W        W98681  23.507  17.135   0.857
26956W        W98682  28.117  21.635  12.341
26957W        W98683  39.385   5.240   3.870
26958W        W98684  20.604  29.526  14.088
26959W        W98685  40.182  13.994   1.353
26960W        W98686   8.100   6.194  13.264
26961W        W98687   3.499  10.864  11.790
26962W        W98688  31.564  40.995   3.599
26963W        W98689  33.607  16.089   4.580
26964W        W98690  11.775   4.908   4.561
26965W        W98691  27.677   0.987  10.114
26966W        W98692  11.105  26.464  12.305
26967W        W98693  26.646  37.940   3.367
26968W        W98694  41.905  15.666   3.296
26969W        W98695  25.924  23.026   0.848
26970W        W98696  26.191   3.722   4.882
26971W        W98697   4.962   5.333   2.801
26972W        W98698  44.420  21.914   3.623
26973W        W98699  23.902  39.469   2.783
26974W        W98700  35.257  42.922  10.781
26975W        W98701   0.018  39.398   0.929
26976W        W98702   6.672  44.325   3.752
26977W        W98703  35.905  13.866   3.536
26978W        W98704  11.129  16.330  10.656
26979W        W98705  36.573  11.602  11.996
26980W        W98706  30.096  35.412  11.012
26981W        W98707   1.198  31.752   2.884
26982W        W98708   2.914  38.950  11.450
26983W        W98709  21.211  13.610   4.145
26984W        W98710  32.709  44.806  12.253
26985W        W98711  22.645  25.977   2.287
26986W        W98712  25.680  28.796  10.193
26987W        W98713  39.566   7.929   3.773
26988W        W98714   8.354   7.928   4.071
26989W        W98715  32.027  15.253   0.020
26990W        W98716  19.661  28.474   4.629
26991W        W98717  35.570   1.411   1.476
26992W        W98718  13.226  38.970  14.895
26993W        W98719   3.419  32.569  14.934
26994W        W98720   2.324  33.626  11.173
26995W        W98721  40.433  28.617  12.132
26996W        W98722  41.918  22.945  13.469
26997W        W98723  30.431  12.871   1.357
26998W        W98724  15.244  29.214  13.318
26999W        W98725  11.255  32.376  14.904
27000W        W98726  34.337  27.098  11.054
27001W        W98727  38.944  41.317  13.358
27002W        W98728  26.325  19.287   4.540
27003W        W98729  12.770  17.888  12.173
27004W        W98730  27.841   3.916   4.164
27005W        W98731  22.615  41.066   0.823
27006W        W98732  20.740  20.798  14.239
27007W        W98733  32.332  34.853   0.940
27008W        W98734  30.537  34.477  14.498
27009W        W98735  28.083  39.406  11.703
27010W        W98736  37.507  22.061   3.260
27011W        W98737  35.309  43.231   0.271
27012W        W98738  23.117  29.009   2.638
27013W        W98739  13.362   5.719  12.868
27014W        W98740  40.931   9.211   4.667
27015W        W98741  28.357  17.817   2.689
27016W        W98742  34.486   2.800  14.841
27017W        W98743  12.809   8.223  11.279
27018W        W98744  34.783  44.291  11.820
27019W        W98745  16.372  25.987   4.204
27020W        W98746  44.810  39.997  10.642
27021W        W98747  41.564  25.502  11.121
27022W        W98748  23.945  24.722  13.601
27023W        W98749   0.430   4.385   3.120
27024W        W98750  19.185   3.770  14.749
27025W        W98751  40.287  15.520   0.374
27026W        W98752  11.278  39.455   2.501
27027W        W98753  23.098  15.358  13.344
27028W        W98754  37.552   7.411  14.599
27029W        W98755  39.430   1.661   4.675
27030W        W98756   0.390  27.461   1.239
27031W        W98757  27.085   9.857   4.172
27032W        W98758  30.994   9.434  10.620
27033W        W98759   0.322  44.295  13.347
27034W        W98760  29.650  36.302   2.232
27035W        W98761  22.619  28.092  14.293
27036W        W98762   3.335  17.717   0.426
27037W        W98763  37.910  12.622   1.721
27038W        W98764   2.332  36.581  14.042
27039W        W98765   8.618  34.398   0.747
27040W        W98766  14.840  35.504  14.451
27041W        W98767   7.774   4.191   3.401
27042W        W98768  28.693  12.105   3.360
27043W        W98769   9.701  18.986   4.584
27044W        W98770  27.962  44.874   2.428
27045W        W98771   5.836   5.481   0.039
27046W        W98772  10.937  17.250   2.816
27047W        W98773  12.964   0.527  12.010
27048W        W98774   5.063  28.487   0.415
27049W        W98775   8.730   0.374   4.456
27050W        W98776  37.895  25.570   3.446
27051W        W98777   0.864  30.735   1.698
27052W        W98778  13.170  13.572   4.522
27053W        W98779  26.523   5.245  11.159
27054W        W98780  43.061  43.289  11.025
27055W        W98781  43.746  14.601  13.673
27056W        W98782   3.057   0.981  13.047
27057W        W98783  38.532  24.487   3.724
27058W        W98784  23.260  15.836   1.803
27059W        W98785  15.195  18.487  11.135
27060W        W98786  14.300  39.252  11.497
27061W        W98787   4.586  10.097  14.711
27062W        W98788   1.611  37.998   4.616
27063W        W98789  37.361  27.817   3.096
27064W        W98790  25.448  14.904   1.995
27065W        W98791  25.041   0.053  10.583
27066W        W98792  13.751  29.565   0.158
27067W        W98793  16.339  25.765  14.844
27068W        W98794  23.562  37.963  12.931
27069W        W98795  35.087   4.793   3.818
27070W        W98796  41.894  38.284  14.457
27071W        W98797   7.180   7.230   0.330
27072W        W98798  29.022   9.672   0.252
27073W        W98799  41.453  23.463   1.470
27074W        W98800  38.462  20.274  12.783
27075W        W98801  41.448  32.694   1.918
27076W        W98802  20.115  10.692   0.969
27077W        W98803  23.547  11.174   3.780
27078W        W98804  37.053  19.668   3.336
27079W        W98805  19.227   7.207  12.398
27080W        W98806  28.550  33.235   1.825
27081W        W98807   1.558  30.191  14.795
27082W        W98808  33.002  43.925  12.277
27083W        W98809  17.024  18.658   1.506
27084W        W98810  43.006   1.065  11.863
27085W        W98811  43.221   0.945   0.324
27086W        W98812  34.772   2.845  14.409
27087W        W98813  23.019  12.158  10.168
27088W        W98814  28.156  34.387   0.921
27089W        W98815  43.870  31.466  13.774
27090W        W98816  18.176  32.118  10.978
27091W        W98817  21.601  18.698  12.752
27092W        W98818  40.360   9.762  11.387
27093W        W98819  20.466  20.396  14.059
27094W        W98820  22.719  18.806   2.635
27095W        W98821  23.212   2.198   0.488
27096W        W98822  16.254  40.922   2.165
27097W        W98823  28.065  20.270  12.007
27098W        W98824  15.731   6.231   1.390
27099W        W98825  13.112  30.462  10.850
27100W        W98826  36.778   9.672   4.202
27101W        W98827   6.906  16.391   3.707
27102W        W98828  10.131  41.792  10.944
27103W        W98829  21.381  31.135   1.173
27104W        W98830  18.228  40.274  13.552
27105W        W98831  18.048  35.015   3.700
27106W        W98832  16.081  11.682  12.113
27107W        W98833  18.295  40.053   1.868
27108W        W98834  29.786  24.982  11.106
27109W        W98835  19.223  25.076  13.722
27110W        W98836  32.050   0.378  14.261
27111W        W98837  44.338   2.686   1.225
27112W        W98838  35.653  17.130  13.651
27113W        W98839   0.258  43.365  12.935
27114W        W98840   7.977  41.265   1.239
27115W        W98841   8.942  27.481  14.327
27116W        W98842   9.423  21.561   2.386
27117W        W98843  24.607  33.322   3.249
27118W        W98844  22.996  43.575  14.491
27119W        W98845  15.106  35.006  13.686
27120W        W98846   9.752  23.772   4.158
27121W        W98847  31.046  28.161   2.012
27122W        W98848  34.324  21.999   4.678
27123W        W98849  22.902  41.274  12.646
27124W        W98850  20.081  18.591  13.260
27125W        W98851  15.814  25.164   3.267
27126W        W98852   6.813  41.592  11.308
27127W        W98853  16.731  37.856   3.353
27128W        W98854   2.196   6.756  12.433
27129W        W98855  32.442  14.396   1.926
27130W        W98856  15.337   2.640  10.679
27131W        W98857  14.408   1.864   2.359
27132W        W98858  26.543   3.483   0.919
27133W        W98859  20.089  27.998   2.925
27134W        W98860  25.923  10.506   3.024
27135W        W98861   3.448   7.391   2.802
27136W        W98862  36.380  22.607   0.832
27137W        W98863   0.330   4.709  12.909
27138W        W98864   5.781  14.670  11.372
27139W        W98865  25.758  33.608  11.983
27140W        W98866  33.401   4.226   4.657
27141W        W98867   4.850   7.045   0.570
27142W        W98868  29.385  18.944   3.589
27143W        W98869   0.677  35.499  11.912
27144W        W98870  40.380   2.579  11.333
27145W        W98871  39.382  34.048  11.911
27146W        W98872  33.599   8.096  13.452
27147W        W98873  31.086  27.709   2.957
27148W        W98874  29.446  25.942  11.009
27149W        W98875  24.579  36.872   1.942
27150W        W98876  16.224  14.820  11.833
27151W        W98877  30.600  20.369  12.058
27152W        W98878  28.888   8.897  13.786
27153W        W98879   9.791  12.099   1.947
27154W        W98880  22.545  30.633   2.818
27155W        W98881  44.407  38.587  10.716
27156W        W98882  33.974  44.508  10.523
27157W        W98883  28.022  18.216  10.713
27158W        W98884  24.258  26.700   0.366
27159W        W98885  11.124  34.163  13.302
27160W        W98886  12.170  27.526  11.542
27161W        W98887  19.781  43.089  12.535
27162W        W98888   8.376  17.562   2.021
27163W        W98889  12.152  41.262   1.907
27164W        W98890   2.378  17.283   2.312
27165W        W98891   5.897  41.098   3.213
27166W        W98892  38.419  28.106   0.814
27167W        W98893  15.341  30.981  11.888
27168W        W98894  39.142   4.236  11.950
27169W        W98895  20.740   3.751   4.687
27170W        W98896   4.815   4.283  12.712
27171W        W98897  28.108   9.699   0.758
27172W        W98898  39.086  23.119   3.282
27173W        W98899  19.077   5.494   3.235
27174W        W98900  25.375   8.119   2.813
27175W        W98901   7.435  25.012  11.071
27176W        W98902   5.367   5.334  14.839
27177W        W98903  15.062  27.167   2.856
27178W        W98904  38.547  14.673   1.282
27179W        W98905  32.401   9.738  11.379
27180W        W98906   0.882   0.854   4.541
27181W        W98907  12.913  13.340   0.318
27182W        W98908  22.035  10.721   4.733
27183W        W98909  15.020  42.029  10.754
27184W        W98910  28.154   1.162  10.330
27185W        W98911  37.573  15.639  12.094
27186W        W98912  40.237  34.528  12.134
27187W        W98913  34.409  38.293   0.364
27188W        W98914  20.270  14.359   1.985
27189W        W98915   0.757   4.509   1.785
27190W        W98916  33.196  36.976   0.721
27191W        W98917  28.111   7.115  11.194
27192W        W98918  29.226   8.333  14.744
27193W        W98919  25.238  38.528   2.639
27194W        W98920  40.402  31.603   4.562
27195W        W98921   5.822  15.090   0.268
27196W        W98922  26.932  14.287  12.475
27197W        W98923   3.531  29.688  11.195
27198W        W98924   1.717  20.991   2.255
27199W        W98925  28.401  42.320  11.958
27200W        W98926  44.290  24.449  14.307
27201W        W98927  14.288   7.146  11.458
27202W        W98928  24.833  10.774   4.421
27203W        W98929   6.612  17.013  14.923
27204W        W98930  30.283  42.263   4.998
27205W        W98931   7.608  44.431  12.087
27206W        W98932  19.619   3.920  10.836
27207W        W98933  41.217  44.391  12.500
27208W        W98934  21.087  30.524   4.285
27209W        W98935  10.750   0.564   0.385
27210W        W98936  13.444  14.595  14.852
27211W        W98937   3.278   9.606   1.223
27212W        W98938  42.769  17.609  13.881
27213W        W98939  23.931  23.328   0.829
27214W        W98940   0.957  11.715   3.575
27215W        W98941  25.480  24.042   2.174
27216W        W98942  10.892   3.364  12.952
27217W        W98943   9.647  22.338   2.269
27218W        W98944   4.872  11.927   4.947
27219W        W98945   6.381  33.632   0.901
27220W        W98946  35.328  35.394  12.887
27221W        W98947  18.531   7.767   1.128
27222W        W98948  33.580  28.469   2.114
27223W        W98949   0.382  43.765   4.150
27224W        W98950  38.895  15.991   1.373
27225W        W98951  10.306  41.190   2.200
27226W        W98952  28.774  40.544  12.125
27227W        W98953  36.364  18.330  10.797
27228W        W98954   6.746   8.855  10.804
27229W        W98955  24.471   0.584   9.790
27230W        W98956  37.878  30.593  13.453
27231W        W98957  21.791  36.233   0.973
27232W        W98958  11.864  10.210   1.336
27233W        W98959  12.668  43.555  10.576
27234W        W98960   9.162  33.538  14.807
27235W        W98961  42.319  33.494   4.551
27236W        W98962  33.413  20.235  10.562
27237W        W98963  14.261  25.442  11.185
27238W        W98964  35.642   7.589  13.547
27239W        W98965  39.016   7.225  11.703
27240W        W98966  42.943   2.289   0.263
27241W        W98967  11.057  44.206   2.347
27242W        W98968  10.745  39.102   2.603
27243W        W98969  35.435   1.246   3.724
27244W        W98970  30.583  25.162   3.679
27245W        W98971   6.268  14.469  10.694
27246W        W98972  10.698   8.694  10.652
27247W        W98973  36.838   8.278  14.061
27248W        W98974  23.074  28.719  14.347
27249W        W98975  17.431   7.685  11.497
27250W        W98976  43.953  44.905   2.336
27251W        W98977   3.081  34.041   1.841
27252W        W98978  15.168  31.783  11.429
27253W        W98979  34.091  25.921   0.803
27254W        W98980  30.119  43.011   4.141
27255W        W98981  14.173   9.816   1.003
27256W        W98982  24.517  16.146   4.573
27257W        W98983  36.939  40.386   2.702
27258W        W98984  13.336  39.769   0.278
27259W        W98985  17.628  10.134  11.588
27260W        W98986  22.513  14.310   0.697
27261W        W98987  14.716   2.771  14.828
27262W        W98988  38.416  28.784   1.407
27263W        W98989  23.725   9.396   2.331
27264W        W98990  36.502  36.333   3.742
27265W        W98991  43.277   8.170   1.229
27266W        W98992  41.456  36.397  11.825
27267W        W98993  24.517  40.187   1.894
27268W        W98994   5.781  37.281   0.535
27269W        W98995  36.407   1.711  12.535
27270W        W98996  20.680  19.893  14.507
27271W        W98997  19.885   7.754   3.683
27272W        W98998  22.674  19.629  10.430
27273W        W98999  42.691  21.976   4.998
27274W        W99000  33.721  22.994  11.646
27275W        W99001   6.971  15.429  12.070
27276W        W99002  30.916  30.698  11.148
27277W        W99003  19.821  32.099   4.424
27278W        W99004  44.027   5.280   1.083
27279W        W99005  35.938  40.789   4.379
27280W        W99006  19.789  13.161  13.698
27281W        W99007  12.399  42.315  11.618
27282W        W99008  18.674  43.805  14.747
27283W        W99009  10.251  22.164  11.462
27284W        W99010  18.756  23.010   3.874
27285W        W99011  10.717  29.998  10.939
27286W        W99012  17.772  20.951  14.010
27287W        W99013   1.132  30.889  12.541
27288W        W99014  15.639  42.314   0.373
27289W        W99015   9.201  37.171   3.636
27290W        W99016  26.909   9.844   3.333
27291W        W99017  35.271   4.373   3.170
27292W        W99018  15.272   0.960   3.373
27293W        W99019  43.622  18.514   0.311
27294W        W99020  31.644  17.362  11.192
27295W        W99021  35.372  37.096   4.050
27296W        W99022  22.243   2.448   4.368
27297W        W99023  24.604  43.238  13.810
27298W        W99024  22.235  14.582  14.484
27299W        W99025  36.576  39.008   0.970
27300W        W99026   9.596   7.578  14.330
27301W        W99027  25.638  11.668  10.665
27302W        W99028  11.090  31.421  14.025
27303W        W99029  25.519  32.067  12.960
27304W        W99030   7.246  18.215   3.571
27305W        W99031  33.655  16.131   3.606
27306W        W99032  22.040  10.229   9.641
27307W        W99033  16.267  12.630   3.718
27308W        W99034   1.426   8.185  11.881
27309W        W99035  22.277   2.733  14.307
27310W        W99036   6.679  11.369  14.256
27311W        W99037  26.760  27.166  13.980
27312W        W99038  30.901  12.283   1.649
27313W        W99039  13.265  19.174   3.982
27314W        W99040   7.765  21.727   1.910
27315W        W99041  20.518  20.768   1.356
27316W        W99042  21.189  25.388   0.746
27317W        W99043  30.646  24.353  13.255
27318W        W99044   2.214  41.312  12.440
27319W        W99045  44.990   0.696  11.982
27320W        W99046  38.827  44.720  14.966
27321W        W99047  39.912   6.758   3.234
27322W        W99048   5.961   1.023   3.176
27323W        W99049  38.330  38.623   1.268
27324W        W99050  31.049  44.988  12.920
27325W        W99051  24.534  33.879  12.405
27326W        W99052  19.248  17.630  11.049
27327W        W99053  20.992  32.805   2.236
27328W        W99054  24.183  28.994   0.752
27329W        W99055  17.750  31.414   1.901
27330W        W99056  41.100   2.696  12.048
27331W        W99057  38.303  33.289  11.437
27332W        W99058  35.692  25.764  13.022
27333W        W99059  37.490   5.703  14.287
27334W        W99060  41.300   4.845  11.174
27335W        W99061  18.959  27.662  14.499
27336W        W99062  31.113  20.486   2.821
27337W        W99063  36.374  39.326   4.784
27338W        W99064  33.381  19.674   4.660
27339W        W99065  28.964   8.812   0.781
27340W        W99066  36.457  17.118  11.921
27341W        W99067  21.543  20.224  14.497
27342W        W99068   8.258  24.593   3.245
27343W        W99069  28.196  31.079  14.432
27344W        W99070   1.210   4.646   0.910
27345W        W99071  42.276  40.215   3.168
27346W        W99072  14.420  12.260   1.312
27347W        W99073  11.098   2.281   0.836
27348W        W99074  25.418  27.957  12.382
27349W        W99075  13.271  31.336   0.388
27350W        W99076  35.435  29.444  12.033
27351W        W99077  22.908  43.725  13.278
27352W        W99078  38.887   5.884   0.477
27353W        W99079  23.217  36.952   1.443
27354W        W99080  31.042  32.026  14.310
27355W        W99081  28.005  27.120  14.960
27356W        W99082   4.187  39.444  11.739
27357W        W99083  16.120  17.771   1.210
27358W        W99084  18.096  21.845  14.799
27359W        W99085  22.977  15.114  14.244
27360W        W99086  19.479  15.351   3.863
27361W        W99087   7.364  40.431  10.760
27362W        W99088  35.579  26.228  13.587
27363W        W99089   4.048  30.532   1.340
27364W        W99090  14.525  35.897  13.542
27365W        W99091  10.971  23.038  13.273
27366W        W99092  18.614  25.248  12.537
27367W        W99093  23.962  43.384  12.089
27368W        W99094  23.645  13.746   3.470
27369W        W99095  20.262  22.487   0.920
27370W        W99096  28.856   8.833   4.748
27371W        W99097  43.003  23.639   4.605
27372W        W99098  15.393  30.948   4.587
27373W        W99099  39.422  13.257   0.361
27374W        W99100  10.750  38.394  11.957
27375W        W99101  12.186  11.702  13.018
27376W        W99102  20.497  26.575  11.041
27377W        W99103   1.375  32.916  11.520
27378W        W99104  29.650  29.632  14.644
27379W        W99105   2.378  10.330   4.572
27380W        W99106  31.780  14.970   5.057
27381W        W99107  20.082  33.178  13.477
27382W        W99108  10.192   0.714  11.597
27383W        W99109  12.669   9.409  13.865
27384W        W99110  27.111  25.033   1.049
27385W        W99111   7.719  13.802   9.644
27386W        W99112  31.501   1.427  10.521
27387W        W99113  38.047  41.368  12.504
27388W        W99114  28.686  34.562   0.276
27389W        W99115  26.453  13.299   3.842
27390W        W99116  11.092   0.500   1.286
27391W        W99117  33.105   5.017   4.400
27392W        W99118  41.226  33.596  14.380
27393W        W99119   3.819  13.752  13.725
27394W        W99120   1.632  34.024  13.525
27395W        W99121  13.289  36.304  10.846
27396W        W99122  35.007   5.263   3.642
27397W        W99123  15.299  25.769   2.776
27398W        W99124  26.664  18.662   4.511
27399W        W99125  24.265  24.607   1.461
27400W        W99126  38.869   5.643  10.624
27401W        W99127   8.416  35.321   4.602
27402W        W99128  25.622  27.938  10.249
27403W        W99129  13.649  12.384   0.246
27404W        W99130   8.262  43.335   4.805
27405W        W99131  11.890  13.372   4.649
27406W        W99132  28.462   2.051   0.382
27407W        W99133  20.642  13.547  12.954
27408W        W99134  31.280  31.519   0.059
27409W        W99135  37.884   6.172  11.962
27410W        W99136  35.828  39.979   1.885
27411W        W99137  37.763   9.678  14.385
27412W        W99138  10.234   4.568   0.504
27413W        W99139   8.800  39.823  12.597
27414W        W99140   5.202  25.468  14.971
27415W        W99141   0.213  24.503  14.322
27416W        W99142  38.923   3.528  14.780
27417W        W99143   6.435  32.355   3.276
27418W        W99144   8.593  12.264  14.946
27419W        W99145   6.180  44.775  14.076
27420W        W99146   2.539  28.936   0.275
27421W        W99147  31.395  27.150   1.196
27422W        W99148  10.128  22.536   5.094
27423W        W99149  28.992  22.762   4.503
27424W        W99150  41.012   9.110   2.260
27425W        W99151  30.878  37.463   2.198
27426W        W99152  38.300   7.045  12.406
27427W        W99153  18.367  25.093   2.257
27428W        W99154  13.567  37.559  13.952
27429W        W99155  21.066  15.840   2.381
27430W        W99156   5.898  24.409   2.814
27431W        W99157  43.328  21.114  12.341
27432W        W99158  16.020  44.217  13.487
27433W        W99159  37.048   6.292  12.471
27434W        W99160  26.534  37.026  12.875
27435W        W99161  38.046   7.679   1.619
27436W        W99162  43.837  22.072  11.958
27437W        W99163  10.714  20.074   3.265
27438W        W99164  26.109  23.014  13.000
27439W        W99165  14.752  28.862  12.166
27440W        W99166  14.989  17.830   4.937
27441W        W99167  37.512  38.620  14.259
27442W        W99168  19.850  14.076   1.884
27443W        W99169  31.151  19.339  13.653
27444W        W99170  25.603  22.309   2.771
27445W        W99171  26.362  15.690   2.592
27446W        W99172  27.611  40.970  14.601
27447W        W99173  42.756  17.333   3.306
27448W        W99174   5.486  11.903  14.039
27449W        W99175  11.780   3.826  12.126
27450W        W99176  40.650  33.590  10.158
27451W        W99177   1.729   3.477   1.434
27452W        W99178   1.322  15.793   0.983
27453W        W99179  18.678  31.670  13.607
27454W        W99180   3.300  30.752   3.550
27455W        W99181  20.435  31.751  10.570
27456W        W99182   6.824  38.352  14.329
27457W        W99183  21.541  38.530   1.411
27458W        W99184  21.081  16.313   2.159
27459W        W99185  17.085  39.878  11.568
27460W        W99186  17.637  38.730  11.450
27461W        W99187  22.738   9.183   1.371
27462W        W99188  42.787  17.720  12.139
27463W        W99189  23.596  25.449  12.651
27464W        W99190  29.964  24.112   4.159
27465W        W99191   3.371  34.091   3.275
27466W        W99192  24.599  41.729  13.131
27467W        W99193  36.240  10.937  14.263
27468W        W99194   6.236  27.428  14.868
27469W        W99195   8.322  40.415  10.809
27470W        W99196   9.587  18.671  14.811
27471W        W99197  16.116  19.523  14.516
27472W        W99198  15.245  44.085   1.663
27473W        W99199  26.597  17.112   1.278
27474W        W99200  43.797   9.209  11.281
27475W        W99201  18.827   9.035   1.709
27476W        W99202  43.028  39.506  11.609
27477W        W99203   5.405  11.721  11.951
27478W        W99204  34.640  31.368  11.996
27479W        W99205  17.711  11.464  12.660
27480W        W99206  13.303  16.486  12.373
27481W        W99207  18.686  38.225   4.508
27482W        W99208  36.097  32.954   1.667
27483W        W99209  16.956   3.133  10.807
27484W        W99210  26.788  32.092   1.711
27485W        W99211  29.664   9.205   1.763
27486W        W99212   3.321   6.127   4.702
27487W        W99213  32.679  38.856   2.098
27488W        W99214  21.129  43.982   0.685
27489W        W99215  44.258  20.275  13.434
27490W        W99216  19.137  37.305  12.818
27491W        W99217   8.863   8.202  11.507
27492W        W99218  15.617  30.227  14.944
27493W        W99219   5.831   7.208  12.573
27494W        W99220  15.765  13.815   1.782
27495W        W99221   8.883   4.650  14.341
27496W        W99222  15.378  30.519   3.352
27497W        W99223   1.521  15.918  13.251
27498W        W99224  13.088   6.666  13.166
27499W        W99225  37.704  39.590   2.861
27500W        W99226  21.738  24.001  12.915
27501W        W99227  16.865  13.792  12.031
27502W        W99228   6.182  34.325   1.983
27503W        W99229  22.133   8.838  13.490
27504W        W99230  27.132  28.976   1.168
27505W        W99231   2.924  26.739  14.843
27506W        W99232  29.045  26.083  11.372
27507W        W99233  10.858   5.709   4.954
27508W        W99234  30.815   4.872  12.398
27509W        W99235  44.016  15.157  12.933
27510W        W99236  17.256  28.819  12.779
27511W        W99237  11.697  20.977   1.950
27512W        W99238  26.463   6.670  12.928
27513W        W99239  13.876  39.066  12.138
27514W        W99240  31.033   2.902   1.038
27515W        W99241  22.994   0.006  10.164
27516W        W99242  31.156  17.722   1.757
27517W        W99243  42.249  44.450  12.604
27518W        W99244  30.653  12.784   2.745
27519W        W99245   1.087  33.884   1.784
27520W        W99246  43.206  29.454   3.613
27521W        W99247   4.369  12.278   0.747
27522W        W99248   6.405  23.736  12.517
27523W        W99249  38.351  13.078   3.309
27524W        W99250  24.471   5.994  11.994
27525W        W99251  29.010  36.381  12.294
27526W        W99252  43.803  28.459  14.787
27527W        W99253   2.874  18.379   1.924
27528W        W99254  27.112  29.817   2.698
27529W        W99255  39.806  27.675  10.999
27530W        W99256  39.125   8.809  13.088
27531W        W99257   9.127   5.748  11.847
27532W        W99258  36.721  32.960  13.579
27533W        W99259  21.646   7.681   4.902
27534W        W99260  10.884  30.114  10.428
27535W        W99261   1.150  24.770  12.312
27536W        W99262  26.863  41.365  11.565
27537W        W99263  33.089  44.851   0.835
27538W        W99264   4.266  23.094  11.227
27539W        W99265  22.951   3.862  10.900
27540W        W99266  21.833  12.686   5.032
27541W        W99267  16.125  25.040   0.467
27542W        W99268   5.452  32.149   2.502
27543W        W99269  11.860  41.593  12.196
27544W        W99270  29.967   4.475   3.593
27545W        W99271  40.405  35.010  11.472
27546W        W99272  29.081  43.851  12.721
27547W        W99273   0.818   1.182  14.971
27548W        W99274  24.498  23.762  12.061
27549W        W99275  42.795  29.758   3.649
27550W        W99276  38.427  15.801   4.548
27551W        W99277  27.824   8.380   1.615
27552W        W99278   4.919   9.838  11.482
27553W        W99279  21.661  14.319  13.276
27554W        W99280   2.530   0.540  13.790
27555W        W99281  15.718  33.990   3.156
27556W        W99282  22.858  32.586   0.360
27557W        W99283  20.674  34.217   0.134
27558W        W99284  31.452  18.706   2.178
27559W        W99285  35.377  16.643  14.854
27560W        W99286  15.388  39.935   4.639
27561W        W99287  41.172  16.745   1.183
27562W        W99288  27.541  43.925   5.357
27563W        W99289  20.505  36.340   3.385
27564W        W99290  38.925  13.882  14.506
27565W        W99291   8.808  42.898   5.188
27566W        W99292  19.487   9.641  10.803
27567W        W99293   7.362  32.081   1.031
27568W        W99294  40.929  41.607  12.571
27569W        W99295  22.540  37.475  10.262
27570W        W99296  22.903   9.722   0.522
27571W        W99297  13.304  20.616   2.860
27572W        W99298  21.605  26.054  10.676
27573W        W99299   8.278  18.612   1.170
27574W        W99300  32.191   7.620  11.784
27575W        W99301  41.226  15.152  14.863
27576W        W99302   7.957   1.521   0.640
27577W        W99303  17.993  15.729   2.820
27578W        W99304  41.399  25.148   4.129
27579W        W99305  34.971  35.433   1.273
27580W        W99306  29.739   9.750   1.876
27581W        W99307  42.005  14.197  13.811
27582W        W99308  14.090  36.126   3.635
27583W        W99309  41.159  36.003   4.507
27584W        W99310  23.969  32.585   3.479
27585W        W99311  42.872  14.183   1.981
27586W        W99312  31.598  17.547   3.692
27587W        W99313  10.772  28.062  13.998
27588W        W99314   1.713   1.456   4.592
27589W        W99315   2.997  39.985   1.883
27590W        W99316  43.364  31.911   4.920
27591W        W99317  11.912  28.340   4.025
27592W        W99318  20.768  31.321  12.426
27593W        W99319  26.240  18.657   2.920
27594W        W99320  26.967  21.284  12.992
27595W        W99321  14.669   2.967  13.444
27596W        W99322  42.865  31.207   3.632
27597W        W99323  33.978   0.551   1.397
27598W        W99324  23.616   3.290   1.704
27599W        W99325  25.446  36.813   1.946
27600W        W99326  42.184   6.379   5.225
27601W        W99327  24.663   8.911  13.039
27602W        W99328   5.977  38.181  10.888
27603W        W99329  42.875   9.871   0.447
27604W        W99330  40.324  43.334   4.542
27605W        W99331  33.118  11.403  13.558
27606W        W99332  10.759  22.181   4.563
27607W        W99333  10.200  11.800   0.872
27608W        W99334  13.287  41.011   2.643
27609W        W99335  30.543  18.690  11.386
27610W        W99336  40.211   8.660   2.203
27611W        W99337  21.189  28.392  10.739
27612W        W99338   6.818   6.830   0.229
27613W        W99339  19.618  24.954  14.024
27614W        W99340  19.227  28.519   3.578
27615W        W99341  37.541  20.112  11.974
27616W        W99342  39.886  37.942   1.429
27617W        W99343  10.718  24.908   2.714
27618W        W99344  29.633   0.901   2.747
27619W        W99345   4.264  23.673   3.512
27620W        W99346  22.050  44.328  12.970
27621W        W99347  16.446   1.743   4.941
27622W        W99348  14.121   1.311  12.951
27623W        W99349  36.602  39.908   0.453
27624W        W99350   5.588  21.735   1.945
27625W        W99351   4.827  39.078  12.704
27626W        W99352  29.410   3.916  11.674
27627W        W99353  17.574  24.620  11.593
27628W        W99354   1.489  17.352   4.149
27629W        W99355  12.881  42.804   3.130
27630W        W99356   4.104  25.752  14.376
27631W        W99357  15.089  42.565   2.327
27632W        W99358  33.025  33.990  14.442
27633W        W99359  30.013  26.293   5.042
27634W        W99360  38.561  20.556  12.366
27635W        W99361  10.726   4.113  14.746
27636W        W99362   5.366  44.262  13.511
27637W        W99363  39.620   8.345   4.086
27638W        W99364   1.613  33.922  12.365
27639W        W99365   1.508  19.458  11.484
27640W        W99366  44.345   3.730   1.222
27641W        W99367  23.194  33.196   1.894
27642W        W99368   4.446  33.681   2.304
27643W        W99369  34.108  42.459   4.233
27644W        W99370  31.742  38.485  14.029
27645W        W99371  20.777  25.660   1.706
27646W        W99372  11.384  17.487   1.807
27647W        W99373  35.420  24.640   2.109
27648W        W99374  42.516  22.005   4.498
27649W        W99375  25.151  10.684   1.400
27650W        W99376  30.164  11.816   0.009
27651W        W99377  26.625   8.357  14.580
27652W        W99378  21.279  12.746   4.182
27653W        W99379  18.086   0.759  13.830
27654W        W99380  32.077  14.134   2.164
27655W        W99381   3.866  39.044  11.477
27656W        W99382  33.283  32.349   0.283
27657W        W99383  11.219  23.447  14.777
27658W        W99384  29.363  42.272  14.620
27659W        W99385   1.761  18.765   3.790
27660W        W99386  36.795  11.844  14.006
27661W        W99387   9.673  18.323  13.917
27662W        W99388  10.572  37.762   4.568
27663W        W99389  23.949   7.885  14.018
27664W        W99390  13.276  40.026  12.899
27665W        W99391  42.137   3.769   0.813
27666W        W99392   1.789   0.969  11.924
27667W        W99393  30.924  17.013  11.925
27668W        W99394  35.174  43.353   4.209
27669W        W99395  22.513  22.260   3.586
27670W        W99396  28.150  40.303  13.402
27671W        W99397  27.418  27.866  13.421
27672W        W99398  37.919   6.431  13.319
27673W        W99399  28.999  21.857   1.761
27674W        W99400  37.241  34.993   2.450
27675W        W99401   6.038  33.500   4.570
27676W        W99402  33.356  13.184   0.070
27677W        W99403   9.166  36.878  10.138
27678W        W99404  16.144   9.004   3.762
27679W        W99405  39.436  37.976   3.219
27680W        W99406  30.267  23.081   1.260
27681W        W99407  15.663  17.143  12.131
27682W        W99408   2.488   6.243  10.762
27683W        W99409  16.858  33.903  11.389
27684W        W99410  35.969   5.215  12.890
27685W        W99411  16.995  12.922   4.375
27686W        W99412  26.107  16.568   4.088
27687W        W99413  10.883   4.987   4.847
27688W        W99414  42.935  27.975  14.416
27689W        W99415   4.177  44.413   4.127
27690W        W99416  12.237  35.251  12.042
27691W        W99417  44.500   4.326  12.045
27692W        W99418  38.442   1.726   0.998
27693W        W99419  36.434  16.090   0.080
27694W        W99420  26.277  11.637   2.150
27695W        W99421  18.638  29.813  11.843
27696W        W99422   0.460   8.824  12.668
27697W        W99423  26.049  14.771   3.575
27698W        W99424  36.143   1.875   3.691
27699W        W99425  22.250  15.777  10.028
27700W        W99426   6.184  27.933  14.978
27701W        W99427  27.145  34.494  14.426
27702W        W99428  27.891  43.861   0.686
27703W        W99429  44.505  33.973  12.073
27704W        W99430  17.223  35.482  14.776
27705W        W99431   5.321  19.455  11.884
27706W        W99432  15.985  39.053   4.093
27707W        W99433  14.719  42.617   1.204
27708W        W99434   0.213   5.411   0.231
27709W        W99435  32.897  41.408   0.424
27710W        W99436  15.317  15.215   4.169
27711W        W99437  10.736  20.177   0.776
27712W        W99438   7.886  34.919  11.471
27713W        W99439  24.114  35.417  14.348
27714W        W99440  31.659   7.371  10.377
27715W        W99441  38.941  11.349   1.993
27716W        W99442  17.654  10.873   2.302
27717W        W99443  35.928   7.754  11.658
27718W        W99444  23.946  38.881  14.606
27719W        W99445  23.506  21.715  12.483
27720W        W99446  14.366  20.970  11.052
27721W        W99447  42.876  30.742  10.645
27722W        W99448  12.720  17.741  11.209
27723W        W99449   6.174  16.096  14.263
27724W        W99450  19.031  23.359  10.380
27725W        W99451  13.548  33.180  11.632
27726W        W99452  18.281  23.599  11.075
27727W        W99453  12.342  15.706   4.665
27728W        W99454  33.907  22.231   1.246
27729W        W99455  11.666  31.422   3.842
27730W        W99456  33.942  16.702  12.427
27731W        W99457  21.919  11.323   0.408
27732W        W99458  25.633  25.634   4.446
27733W        W99459   9.637  34.514   2.251
27734W        W99460   1.274  12.292  13.828
27735W        W99461  18.176  43.323   2.203
27736W        W99462  22.617   5.190  11.206
27737W        W99463  24.950  19.405  10.614
27738W        W99464  12.585  21.220  11.959
27739W        W99465  41.858  14.488   2.251
27740W        W99466  37.323   1.298   1.285
27741W        W99467   3.775   0.972  12.165
27742W        W99468  32.188  11.534   2.264
27743W        W99469  33.342  14.628  12.157
27744W        W99470  27.950  24.885  12.998
27745W        W99471  17.756  26.429  14.189
27746W        W99472  16.771  25.936   3.272
27747W        W99473   1.385  33.554  12.037
27748W        W99474  15.695   1.871  10.961
27749W        W99475  16.547  15.696   3.562
27750W        W99476  29.552  24.670   4.632
27751W        W99477  36.579  43.402   2.769
27752W        W99478  18.866  14.339   3.347
27753W        W99479  25.234  15.917  13.028
27754W        W99480  21.240   3.563   3.385
27755W        W99481  17.295  33.203   4.247
27756W        W99482  38.924  19.289  13.307
27757W        W99483  32.426  28.443   2.223
27758W        W99484  23.583  34.905   2.174
27759W        W99485  11.144  15.784  14.351
27760W        W99486   7.402  34.577  12.544
27761W        W99487  40.833   6.289   4.887
27762W        W99488  19.074   6.363   2.602
27763W        W99489  22.338  15.123  12.636
27764W        W99490  42.474  19.247   3.943
27765W        W99491  16.733  42.467   1.667
27766W        W99492  27.383  21.158  13.281
27767W        W99493  41.405   1.707  12.457
27768W        W99494  14.106   9.522  12.637
27769W        W99495   9.812  28.411  11.692
27770W        W99496  31.474  44.863  14.596
27771W        W99497   2.359   6.138   0.668
27772W        W99498  31.004  29.920  12.941
27773W        W99499  11.186   6.147  11.216
27774W        W99500   0.732  22.164  11.682
27775W        W99501  17.899  23.271  14.353
27776W        W99502   9.561  27.976  11.512
27777W        W99503   5.260  38.484   2.846
27778W        W99504  19.242  32.036  12.807
27779W        W99505  27.588  40.594  10.982
27780W        W99506  14.055   0.007  13.245
27781W        W99507  10.370   6.682  12.040
27782W        W99508  36.065   7.438  13.281
27783W        W99509  32.464  34.883  12.298
27784W        W99510  26.131  43.395   2.464
27785W        W99511  28.274   4.229   0.834
27786W        W99512  29.521   2.023   2.653
27787W        W99513  11.389  28.442  14.575
27788W        W99514  33.415  27.226   4.551
27789W        W99515  24.247  16.202   1.115
27790W        W99516   3.524  42.298  10.786
27791W        W99517  15.155  43.300  12.458
27792W        W99518  39.852  22.676  11.415
27793W        W99519   6.373  41.392   1.507
27794W        W99520  42.843  38.323  10.972
27795W        W99521  10.310  24.445   2.496
27796W        W99522  41.930  44.906  10.660
27797W        W99523   2.685  36.599   2.404
27798W        W99524  17.645  11.021   1.055
27799W        W99525  29.509   4.122  13.087
27800W        W99526  39.436  42.018  11.615
27801W        W99527  24.169  16.528  13.990
27802W        W99528  12.572  20.324  12.060
27803W        W99529  22.024  37.352   0.441
27804W        W99530  11.922  25.588   3.224
27805W        W99531  19.556  22.233   4.587
27806W        W99532  21.022  41.213   1.241
27807W        W99533  33.856  39.362  12.414
27808W        W99534  25.249  38.088   3.777
27809W        W99535  30.628  13.210   1.700
27810W        W99536  35.766  27.675   4.929
27811W        W99537  19.517  29.002  10.664
27812W        W99538  10.818  42.745   0.852
27813W        W99539  26.103  28.580  14.815
27814W        W99540  32.224  14.686  10.458
27815W        W99541   8.792   4.199  14.989
27816W        W99542  32.033  35.084  11.958
27817W        W99543  44.185  42.449   1.731
27818W        W99544  31.863  35.449   3.227
27819W        W99545   0.744  36.112   2.072
27820W        W99546  40.595  42.392   0.940
27821W        W99547  31.824   3.388  12.433
27822W        W99548  31.079  29.995   3.219
27823W        W99549   5.359  20.612  14.032
27824W        W99550  28.927  32.009  11.557
27825W        W99551  20.198  34.922   4.462
27826W        W99552   3.490  24.478  12.843
27827W        W99553  30.054   5.856  14.908
27828W        W99554  28.088  18.944   3.276
27829W        W99555  42.462  10.217  11.272
27830W        W99556   4.252  20.954  11.873
27831W        W99557  43.998   4.927  12.508
27832W        W99558  42.266   6.990   2.804
27833W        W99559  11.541   3.441  13.344
27834W        W99560  38.099  17.935  14.351
27835W        W99561   2.907   0.193  10.831
27836W        W99562  38.409  42.413   1.149
27837W        W99563  11.407   3.503   3.708
27838W        W99564  25.738  36.884  14.011
27839W        W99565  33.985  10.221   1.733
27840W        W99566  26.640  37.400   2.693
27841W        W99567  34.541   6.000   4.010
27842W        W99568  20.813  43.903  12.412
27843W        W99569  20.614  18.574  14.847
27844W        W99570  32.571  31.071  12.406
27845W        W99571   5.680  27.110   0.459
27846W        W99572   8.306  43.027   2.348
27847W        W99573  15.823   1.973   0.321
27848W        W99574  40.536  18.187  10.899
27849W        W99575  44.901  43.825  12.352
27850W        W99576  35.393  43.551   1.336
27851W        W99577  24.114  24.716   0.457
27852W        W99578  37.217  26.676  12.317
27853W        W99579  36.098  11.648   2.757
27854W        W99580  16.374  21.789  14.054
27855W        W99581   2.003  15.081  13.325
27856W        W99582  34.934  29.575   2.155
27857W        W99583   3.971  16.732   1.912
27858W        W99584  29.608   4.375   2.194
27859W        W99585  19.235  16.299   3.883
27860W        W99586  16.584  39.998  13.841
27861W        W99587  16.793   8.377   2.369
27862W        W99588   4.372   0.349  13.196
27863W        W99589   1.333  19.571   3.901
27864W        W99590  41.439  40.917   2.421
27865W        W99591  26.718  12.306   3.230
27866W        W99592  22.048   0.249  12.064
27867W        W99593  33.916   4.709  10.922
27868W        W99594  38.122  26.969  11.028
27869W        W99595   9.647  38.489  10.697
27870W        W99596  21.976  10.843   2.211
27871W        W99597  14.712   0.939  14.225
27872W        W99598  27.993  44.326   3.994
27873W        W99599  25.682  11.152  14.949
27874W        W99600  30.775  23.152   1.142
27875W        W99601   1.893  43.294  13.916
27876W        W99602  35.134  35.365   3.123
27877W        W99603  32.237  35.305  14.977
27878W        W99604   5.222   0.264   4.763
27879W        W99605  24.170  18.658   4.091
27880W        W99606  43.527  24.192  11.668
27881W        W99607  36.699  39.835  11.192
27882W        W99608  44.051   5.714   0.747
27883W        W99609  27.911  20.768  14.872
27884W        W99610  38.475  21.229  11.623
27885W        W99611  38.609  13.049   4.195
27886W        W99612   6.826  36.365  12.460
27887W        W99613  42.353  41.595   1.972
27888W        W99614   1.347   4.741  10.904
27889W        W99615   1.644  25.714   0.394
27890W        W99616  18.181  31.957  11.966
27891W        W99617  27.606  40.353   0.917
27892W        W99618   0.908  25.494   3.467
27893W        W99619  40.129  36.501   4.499
27894W        W99620  17.668  22.312   2.609
27895W        W99621  35.684  40.853   0.562
27896W        W99622  23.716  18.351  11.562
27897W        W99623  14.761  25.347   4.865
27898W        W99624  34.785  20.192   2.679
27899W        W99625  42.338  13.378  13.431
27900W        W99626  34.753  38.384   2.733
27901W        W99627  19.263  17.603   1.961
27902W        W99628  41.326  37.141   0.890
27903W        W99629  42.720   8.094   1.895
27904W        W99630   2.310  24.172  10.700
27905W        W99631   1.959  23.518  10.464
27906W        W99632  20.399  28.257   0.961
27907W        W99633  13.604  33.023  14.092
27908W        W99634  26.171  19.718  11.068
27909W        W99635   8.729  36.812  12.473
27910W        W99636  32.942   7.198  14.848
27911W        W99637  44.246  25.546   3.630
27912W        W99638  32.571  10.137  11.017
27913W        W99639  39.810  16.684  12.424
27914W        W99640  38.252   0.902   4.858
27915W        W99641  44.400  44.556  13.509
27916W        W99642  15.717   5.141   1.347
27917W        W99643   7.401  37.646   3.791
27918W        W99644  23.683  16.606  14.893
27919W        W99645  25.620  34.536  11.951
27920W        W99646  22.939   6.015   1.731
27921W        W99647   7.815   5.226  13.832
27922W        W99648  23.596  42.934   2.133
27923W        W99649  16.234  27.185  12.395
27924W        W99650  39.620  11.126   3.231
27925W        W99651   0.862  18.720  10.805
27926W        W99652   4.802  36.837  11.699
27927W        W99653  14.373  37.890  13.624
27928W        W99654  42.345  28.690   2.792
27929W        W99655  38.017  33.460  13.359
27930W        W99656  33.805  28.978   0.955
27931W        W99657  31.909  14.774   3.284
27932W        W99658   8.419  16.330  12.043
27933W        W99659  28.550  23.725  14.358
27934W        W99660  44.341  17.797   3.687
27935W        W99661  30.612  34.342  11.999
27936W        W99662  40.542  36.122  11.771
27937W        W99663   4.109  15.911   5.652
27938W        W99664  42.961   2.440   4.565
27939W        W99665   8.285  39.369   2.312
27940W        W99666  18.985  41.211  12.593
27941W        W99667  17.574  42.541   0.861
27942W        W99668  43.450  31.411   2.325
27943W        W99669  34.844  17.636   0.535
27944W        W99670  14.563   3.893  12.547
27945W        W99671  10.676  40.488  12.892
27946W        W99672  32.810   9.483  11.566
27947W        W99673   3.215  30.913   1.299
27948W        W99674  44.674  34.052   0.900
27949W        W99675  30.294  23.034   2.151
27950W        W99676   8.440  22.919   9.968
27951W        W99677  13.261  23.545   4.954
27952W        W99678  41.912  10.558   3.166
27953W        W99679  42.887   9.808   1.330
27954W        W99680  36.882  11.661  12.539
27955W        W99681  15.315  19.693   2.518
27956W        W99682   2.795  12.150   3.926
27957W        W99683   3.159  29.284   3.761
27958W        W99684  36.652   4.344  13.323
27959W        W99685  24.407   7.134  11.110
27960W        W99686  12.781  25.195   2.827
27961W        W99687   8.754  20.433  14.963
27962W        W99688  39.907  34.066  14.257
27963W        W99689  31.473  18.221   1.944
27964W        W99690   2.885  21.751  10.724
27965W        W99691  21.662  42.005  10.583
27966W        W99692  15.623  25.905   4.924
27967W        W99693  14.753  21.180   2.307
27968W        W99694  22.683   4.311  10.894
27969W        W99695   6.119  22.209  11.172
27970W        W99696  25.926  22.018  11.257
27971W        W99697   5.501  30.030  12.915
27972W        W99698  23.327  31.661   1.786
27973W        W99699  20.060  17.213  13.927
27974W        W99700   9.448  34.325   5.055
27975W        W99701  24.100   8.965   4.052
27976W        W99702   3.327  42.396   4.915
27977W        W99703   4.823  19.760  11.652
27978W        W99704  20.053  22.486   2.985
27979W        W99705   7.248  14.330   3.560
27980W        W99706  43.669  21.725  10.796
27981W        W99707   4.157  17.675   2.842
27982W        W99708   5.021  28.986   2.675
27983W        W99709   7.412  22.214   0.747
27984W        W99710  40.309  41.358   4.753
27985W        W99711   1.004  43.543  13.324
27986W        W99712  30.935  40.341  12.051
27987W        W99713  35.806  27.981  12.444
27988W        W99714  17.047  15.179   1.877
27989W        W99715  19.034   9.221   3.656
27990W        W99716  14.093  25.079   3.146
27991W        W99717  39.640  28.516   1.798
27992W        W99718  35.820  17.140   2.172
27993W        W99719  34.610   8.164   4.288
27994W        W99720   0.365  21.963   0.489
27995W        W99721  21.507   8.088  11.962
27996W        W99722  25.189   4.669   3.558
27997W        W99723   0.001  35.098  11.198
27998W        W99724  25.756  35.170   4.031
27999W        W99725  27.643   4.827   2.680
28000W        W99726  24.336   8.217   2.864
28001W        W99727  19.108   4.737   0.022
28002W        W99728  30.645  42.440   1.465
28003W        W99729  22.248   5.338   1.596
28004W        W99730  24.198   8.938  11.165
28005W        W99731  18.458  35.381  12.371
28006W        W99732  32.518  27.902   3.627
28007W        W99733  19.263   6.510   0.059
28008W        W99734   1.952  12.803   2.931
28009W        W99735  42.060  30.383   1.581
28010W        W99736  38.543   3.485  13.406
28011W        W99737  19.080  30.076  11.673
28012W        W99738  35.538  16.342   2.709
28013W        W99739  15.583  31.869   4.062
28014W        W99740   9.334  12.788  14.995
28015W        W99741  24.589  17.218   4.889
28016W        W99742  41.851  38.817   3.420
28017W        W99743  13.828  43.473  14.937
28018W        W99744  14.241  17.237  11.053
28019W        W99745  24.049  17.087  12.472
28020W        W99746  27.243  29.578   4.535
28021W        W99747  30.643  28.735  13.411
28022W        W99748  30.314  22.110  11.729
28023W        W99749  15.625  15.699   4.093
28024W        W99750  29.522  26.402   1.755
28025W        W99751  40.770  44.243  13.379
28026W        W99752  10.517   3.481  11.929
28027W        W99753  21.637  32.904  11.454
28028W        W99754  38.385   2.308  14.797
28029W        W99755  36.111  20.492   4.451
28030W        W99756   2.509  28.574   0.914
28031W        W99757   5.822  28.774   2.247
28032W        W99758  34.730   2.341  14.731
28033W        W99759  44.217  30.022  12.146
28034W        W99760  29.438  42.138   0.716
28035W        W99761   3.609  22.614   4.224
28036W        W99762   7.904  41.392  12.988
28037W        W99763  33.610  44.902  10.538
28038W        W99764  34.023  18.190  10.634
28039W        W99765  34.052  19.707  12.615
28040W        W99766  22.107  30.837   3.219
28041W        W99767  14.796  35.357   4.670
28042W        W99768   3.043   4.242  12.020
28043W        W99769  25.038   4.168  13.334
28044W        W99770  26.600  10.872  10.260
28045W        W99771  10.901  21.082   4.310
28046W        W99772   8.867  18.561   1.899
28047W        W99773  24.262  38.419  11.183
28048W        W99774  29.028  30.796  10.990
28049W        W99775   2.974  33.433   0.041
28050W        W99776  16.992   9.452  12.177
28051W        W99777  14.397  27.415  13.023
28052W        W99778  19.820  23.659   0.216
28053W        W99779  18.836  14.636   4.136
28054W        W99780  41.958   9.145  11.289
28055W        W99781  20.258  13.153  12.926
28056W        W99782  41.127  29.731  11.582
28057W        W99783  30.069   9.372   2.030
28058W        W99784   2.867  25.127   3.033
28059W        W99785  31.606  25.494   2.637
28060W        W99786   1.660  29.699   5.058
28061W        W99787  17.710  38.674   5.083
28062W        W99788  25.124  32.409   1.338
28063W        W99789  39.840   9.228   3.728
28064W        W99790  20.156  37.832   1.884
28065W        W99791  30.556  40.953  11.351
28066W        W99792  10.762   1.679  14.042
28067W        W99793   8.377  14.193   3.421
28068W        W99794  32.016  23.744   2.486
28069W        W99795   9.067  43.355  13.544
28070W        W99796  28.958  42.538   1.335
28071W        W99797  44.731   6.687   0.689
28072W        W99798  21.585  34.645  13.733
28073W        W99799   4.177  14.347  11.501
28074W        W99800  19.995  16.740   4.318
28075W        W99801   2.452  33.401   0.723
28076W        W99802  26.399   4.797   1.049
28077W        W99803  24.733   3.428  12.106
28078W        W99804  28.093  27.547  12.269
28079W        W99805  29.211  14.818   1.957
28080W        W99806   5.534  32.310   4.516
28081W        W99807   3.661  14.650  13.800
28082W        W99808   3.416   1.263  13.360
28083W        W99809  44.742  27.780  13.465
28084W        W99810  42.130  17.795  13.434
28085W        W99811   9.278   8.618   2.110
28086W        W99812  32.123  41.186  11.944
28087W        W99813  28.220  41.038  11.628
28088W        W99814  10.107  10.748  10.870
28089W        W99815  39.559  25.680   3.792
28090W        W99816  22.054  17.833   2.603
28091W        W99817  22.946  32.128  13.488
28092W        W99818  36.613  27.450  14.851
28093W        W99819   8.783  23.537  10.728
28094W        W99820  43.405   4.822  13.981
28095W        W99821  16.288  31.416   0.015
28096W        W99822  27.934   4.040  14.663
28097W        W99823  39.499   2.181  13.821
28098W        W99824  35.417  15.104   0.452
28099W        W99825  18.677  25.438   3.240
28100W        W99826  43.937  21.472   1.666
28101W        W99827  13.320  33.409   1.013
28102W        W99828  34.680   6.294   4.434
28103W        W99829  27.676  31.075   0.832
28104W        W99830  14.030  38.864  11.185
28105W        W99831  14.310  17.584   5.032
28106W        W99832   0.351  10.836   0.535
28107W        W99833   6.690  33.777   4.196
28108W        W99834   8.854  15.093   3.343
28109W        W99835  17.688  44.564   2.709
28110W        W99836   4.871   0.354   2.173
28111W        W99837   4.899   7.420  13.009
28112W        W99838  19.102  24.999   0.198
28113W        W99839  27.045   6.402  14.474
28114W        W99840  35.406  21.462   2.337
28115W        W99841   7.780   1.324   4.552
28116W        W99842  41.513  25.196  14.212
28117W        W99843  40.803   1.211   3.359
28118W        W99844  29.987  17.277   0.568
28119W        W99845  29.677  34.374  14.012
28120W        W99846  35.378   2.858   4.265
28121W        W99847   4.948  35.627  13.514
28122W        W99848  24.504  37.396  13.763
28123W        W99849  16.548  31.984  10.287
28124W        W99850  11.430  14.650  14.475
28125W        W99851  40.042  35.981  12.413
28126W        W99852  20.339   6.241   4.586
28127W        W99853  12.642  14.722  14.438
28128W        W99854   0.501   4.156   2.651
28129W        W99855   7.269  26.252  11.137
28130W        W99856  11.414  35.722  11.755
28131W        W99857  30.653  28.532   1.868
28132W        W99858  40.029  40.911  13.098
28133W        W99859  34.973   1.845  14.284
28134W        W99860   3.028  35.359   1.931
28135W        W99861  10.610  16.525  14.305
28136W        W99862  30.206  17.047   4.466
28137W        W99863  15.545  24.559   3.880
28138W        W99864  30.342   1.817   1.499
28139W        W99865  29.707  11.637   0.965
28140W        W99866  44.651  29.365   3.712
28141W        W99867  35.460  39.572  13.482
28142W        W99868  30.342  34.320   3.815
28143W        W99869  16.756   0.022   2.794
28144W        W99870  28.114   9.862  12.951
28145W        W99871  38.589  20.601   2.257
28146W        W99872   2.673  22.441  12.489
28147W        W99873  35.651  36.352   0.231
28148W        W99874  20.153  25.622  14.427
28149W        W99875  41.595  37.972  11.208
28150W        W99876  37.878   7.215   2.594
28151W        W99877  35.344  32.479   1.684
28152W        W99878  39.106  10.841   4.569
28153W        W99879  13.961   4.841   0.267
28154W        W99880   8.800   9.930   4.369
28155W        W99881  12.574  15.206   0.030
28156W        W99882  40.140  21.499  12.111
28157W        W99883  29.053  12.342  14.346
28158W        W99884  11.812  40.445   3.342
28159W        W99885   9.278  37.077  14.979
28160W        W99886  25.322  26.658  12.688
28161W        W99887  24.467  42.388   0.850
28162W        W99888  39.824  25.312   1.445
28163W        W99889  42.304  13.863   1.925
28164W        W99890  28.862  25.650   4.830
28165W        W99891   6.464  14.681  11.119
28166W        W99892  12.797   0.297  10.707
28167W        W99893  27.993  30.504  12.138
28168W        W99894  34.181  20.094   0.248
28169W        W99895  10.956  17.796   1.871
28170W        W99896  43.721   1.380   2.634
28171W        W99897  14.633  23.191   4.665
28172W        W99898   9.899  35.619   3.191
28173W        W99899  13.800  21.997   3.683
28174W        W99900   4.697  31.697   4.567
28175W        W99901   6.813  10.232   0.432
28176W        W99902   7.647  27.006   3.864
28177W        W99903  28.673  16.546   1.844
28178W        W99904  37.006  44.272  13.382
28179W        W99905   5.980  39.021   1.851
28180W        W99906   3.793  32.119   3.067
28181W        W99907  37.742  19.218   0.989
28182W        W99908  40.927  43.531   3.844
28183W        W99909   4.336  22.205   3.164
28184W        W99910  43.810  36.992  10.771
28185W        W99911   7.918  14.887   1.210
28186W        W99912  40.972   1.349   0.353
28187W        W99913   5.724  16.536  14.971
28188W        W99914  23.601  38.659  12.012
28189W        W99915  22.176  15.119   1.480
28190W        W99916  11.178  33.364  12.384
28191W        W99917  32.894  39.214   1.004
28192W        W99918  42.070  32.334  13.006
28193W        W99919  40.413  27.620   4.067
28194W        W99920  37.013  27.402   1.950
28195W        W99921   6.092  42.038  13.815
28196W        W99922  35.793   6.157  13.134
28197W        W99923  23.314   3.939  13.629
28198W        W99924   3.852   4.953  14.425
28199W        W99925  41.220  43.450  12.116
28200W        W99926  32.204  30.444  12.655
28201W        W99927   5.592   7.281  12.117
28202W        W99928  13.273  26.807   3.656
28203W        W99929  25.188  38.714   3.118
28204W        W99930  17.520  23.550   3.712
28205W        W99931  30.535  17.415   2.327
28206W        W99932  13.809  41.305  11.386
28207W        W99933   6.926  22.475  12.485
28208W        W99934  12.313   1.810   0.423
28209W        W99935  10.207  14.499   4.521
28210W        W99936   8.012  13.122   3.124
28211W        W99937   8.866  16.286   3.401
28212W        W99938  29.618   3.719  14.826
28213W        W99939  38.838  32.531  12.029
28214W        W99940  40.536   2.276   0.249
28215W        W99941  20.567  10.812  11.474
28216W        W99942   9.159  14.503  10.673
28217W        W99943  37.225   3.732  14.794
28218W        W99944  12.904  40.961   3.929
28219W        W99945  36.953  31.473   2.649
28220W        W99946  13.639  28.126  13.789
28221W        W99947  20.598  22.869  12.875
28222W        W99948  36.013  24.210   1.409
28223W        W99949  11.673   3.208   2.242
28224W        W99950  26.589  39.381   0.275
28225W        W99951  27.152  33.371  13.001
28226W        W99952  37.269  42.828   4.080
28227W        W99953  43.933  26.165  13.103
28228W        W99954  17.328  17.737  14.579
28229W        W99955   2.391  11.656   0.599
28230W        W99956  10.383  16.814  10.566
28231W        W99957  43.937  42.348  13.564
28232W        W99958  44.894  44.291   0.418
28233W        W99959  25.616  33.110  12.032
28234W        W99960  42.825  10.379   0.521
28235W        W99961   9.923  11.038  10.478
28236W        W99962  43.964  38.307  11.095
28237W        W99963   9.656  25.244   3.319
28238W        W99964  10.333  23.769  14.388
28239W        W99965  12.670   7.191  11.175
28240W        W99966  40.453  36.272  14.328
28241W        W99967  36.887  44.262   3.608
28242W        W99968  33.405  21.722   2.707
28243W        W99969  19.274   0.102  14.287
28244W        W99970  17.156  23.745  12.799
28245W        W99971   3.901  36.167  11.178
28246W        W99972  17.769   5.259  13.349
28247W        W99973  40.523  11.240  14.676
28248W        W99974  35.222  10.738  11.960
28249W        W99975  12.881  19.098  14.984
28250W        W99976   8.181   9.251   0.357
28251W        W99977  12.118  32.024   2.958
28252W        W99978   2.036   4.341   0.865
28253W        W99979  10.731  37.629   2.778
28254W        W99980   1.413  41.346  12.893
28255W        W99981   2.421  38.312   3.579
28256W        W99982  24.021  36.213  13.371
28257W        W99983  27.957  40.519  12.477
28258W        W99984  10.400   5.221   2.213
28259W        W99985  15.529  21.193  13.451
28260W        W99986  17.290  34.158  11.532
28261W        W99987  40.721   4.748  14.274
28262W        W99988  36.077  29.940  11.477
28263W        W99989  10.880  17.559   0.824
28264W        W99990  18.072  33.332   2.038
28265W        W99991   4.724   9.176  13.321
28266W        W99992  25.155  34.952  14.836
28267W        W99993  34.234  22.018  12.081
28268W        W99994   7.737  10.371  12.431
28269W        W99995   8.448  26.803   0.911
28270W        W99996  33.953  29.999  11.676
28271W        W99997   0.020  18.529   4.517
28272W        W99998  38.510  36.997   1.505
28273W        W99999  26.488  14.741  12.116
28274W        W    0   6.717  38.786  13.507
28275W        W    1   8.758  26.111  10.066
28276W        W    2  38.201  44.318  10.270
28277W        W    3   0.885  22.531   1.419
28278W        W    4   9.852  25.637  13.028
28279W        W    5  33.052   9.037   3.063
28280W        W    6  42.202  25.363   2.088
28281W        W    7  29.650  12.825  12.528
28282W        W    8  42.047  22.219   1.235
28283W        W    9  31.499  32.233  11.988
28284W        W   10  43.458   9.292   3.714
28285W        W   11  15.773   6.921  14.496
28286W        W   12  28.946   3.427   0.893
28287W        W   13   0.433  42.371   3.878
28288W        W   14  11.339   0.293  10.637
28289W        W   15  24.124  29.410  12.971
28290W        W   16   0.314  27.524  10.695
28291W        W   17  29.661  11.807  14.868
28292W        W   18  26.939  41.504   4.788
28293W        W   19   3.157  30.095   2.710
28294W        W   20   5.236  36.426   0.258
28295W        W   21  10.590  16.343  10.588
28296W        W   22   7.562  38.944  11.082
28297W        W   23   5.420  41.496  14.321
28298W        W   24  26.087   4.284   2.152
28299W        W   25   9.143  19.596  11.523
28300W        W   26  11.279   9.277   1.622
28301W        W   27  18.107   4.847  11.738
28302W        W   28  29.391  11.769  13.484
28303W        W   29   6.403  39.738  12.524
28304W        W   30  33.362  42.349  14.864
28305W        W   31  41.969  16.150  11.414
28306W        W   32  30.902   5.697   2.020
28307W        W   33  35.459   9.924   4.526
28308W        W   34  37.642  23.153  10.766
28309W        W   35  28.017  18.581   5.031
28310W        W   36  33.292  34.660  10.564
28311W        W   37   7.980  40.144   9.994
28312W        W   38   4.157  20.318  12.402
28313W        W   39  28.399  29.407  14.855
28314W        W   40   3.383  15.089  13.409
28315W        W   41   4.692  25.298   2.145
28316W        W   42  25.091  24.608  11.608
28317W        W   43  17.389  11.610   2.664
28318W        W   44  27.484  35.562  14.918
28319W        W   45  26.629  24.438   2.752
28320W        W   46  26.520  28.218  10.719
28321W        W   47   9.440  43.888  10.639
28322W        W   48   0.774  38.059  12.941
28323W        W   49  43.193  32.540  14.880
28324W        W   50   0.986  11.828   3.056
28325W        W   51  22.796  31.642  11.233
28326W        W   52   3.286  34.556  14.566
28327W        W   53  23.329  37.975  12.463
28328W        W   54  29.900  39.259  13.041
28329W        W   55  30.145  41.623  12.451
28330W        W   56  44.608  18.807  12.074
28331W        W   57  44.964   9.695   4.710
28332W        W   58  35.405  14.208   1.988
28333W        W   59  38.452  19.192  14.716
28334W        W   60  25.455  27.136   3.965
28335W        W   61  42.815  32.493   1.808
28336W        W   62  32.400  25.642  14.845
28337W        W   63  13.039  36.238  11.672
28338W        W   64  21.053  34.686  13.782
28339W        W   65  42.442  14.345  10.743
28340W        W   66  32.647  17.369   0.805
28341W        W   67  24.770  26.654   0.347
28342W        W   68  10.349   4.665   2.190
28343W        W   69  26.041   1.860   2.845
28344W        W   70  10.268  30.672   5.141
28345W        W   71  26.654  30.079   1.957
28346W        W   72  33.873  10.071   0.170
28347W        W   73  33.448  37.909  11.178
28348W        W   74  32.883  37.663  12.961
28349W        W   75  27.989   5.273   0.300
28350W        W   76  26.446  33.707   1.961
28351W        W   77   5.104  30.540   1.333
28352W        W   78   3.530  24.432   2.319
28353W        W   79  24.318   1.516   4.334
28354W        W   80  44.934  22.505   3.228
28355W        W   81  18.093  27.698   2.169
28356W        W   82  42.423  28.861  13.104
28357W        W   83   4.911  22.405   1.311
28358W        W   84  37.477  16.762   0.420
28359W        W   85  29.606  17.777  13.079
28360W        W   86  38.886  30.953  12.044
28361W        W   87  13.926  26.570  14.463
28362W        W   88   1.178  29.797  12.977
28363W        W   89  22.983   5.894   3.364
28364W        W   90  41.271   8.696  12.020
28365W        W   91  35.991  40.060   3.348
28366W        W   92  38.627  42.484  13.299
28367W        W   93  27.653   0.066   9.925
28368W        W   94  29.374  35.339   2.450
28369W        W   95  12.876  35.526   3.580
28370W        W   96  15.697  36.703   4.075
28371W        W   97   5.426  25.465  13.311
28372W        W   98  23.687  20.534  13.069
28373W        W   99  42.929  33.946   0.461
28374W        W  100  30.044   4.893   2.803
28375W        W  101   5.767  40.998   4.637
28376W        W  102  37.155  30.157  13.138
28377W        W  103  44.390  36.396   0.256
28378W        W  104  15.678  36.083  11.603
28379W        W  105  29.890  33.019   2.227
28380W        W  106  36.379  10.457  12.593
28381W        W  107  18.139  14.113   0.581
28382W        W  108   5.161  26.978  14.333
28383W        W  109  12.186  27.142   0.235
28384W        W  110   1.898  24.158  13.933
28385W        W  111   5.887  44.054   4.700
28386W        W  112  14.214   0.637   1.486
28387W        W  113  44.739  12.724  12.608
28388W        W  114  35.994  18.766  14.647
28389W        W  115  39.431  25.209  13.380
28390W        W  116  33.176  13.121   4.963
28391W        W  117  32.032  10.294   1.785
28392W        W  118  38.915  28.121   0.496
28393W        W  119   9.001  12.765  14.264
28394W        W  120  11.014   9.824  12.944
28395W        W  121  40.143  42.410  12.974
28396W        W  122  22.025  20.516  12.038
28397W        W  123  44.213  28.408   3.786
28398W        W  124  21.098  22.315   1.788
28399W        W  125  14.711  39.791  13.026
28400W        W  126   3.576  41.782   1.188
28401W        W  127  35.936  33.594   3.499
28402W        W  128   7.490   0.744   1.229
28403W        W  129   9.050  30.459  11.631
28404W        W  130  42.787  12.096  11.024
28405W        W  131   6.866  11.854   3.134
28406W        W  132  19.674  34.656   5.066
28407W        W  133  12.214  26.552  12.479
28408W        W  134  14.077  28.828   2.914
28409W        W  135   4.150  27.998  14.518
28410W        W  136  41.245  12.667   2.538
28411W        W  137  33.208  13.136  14.102
28412W        W  138  31.816  26.454   4.084
28413W        W  139  16.511  15.311  14.961
28414W        W  140  29.737  34.029  12.655
28415W        W  141  10.754  30.565  13.010
28416W        W  142  29.909  24.963  13.021
28417W        W  143   8.760  22.998  10.762
28418W        W  144  17.162  11.809   2.207
28419W        W  145  39.353  44.237   2.764
28420W        W  146  21.209   6.641   0.160
28421W        W  147  32.133  19.148   4.307
28422W        W  148   1.845   7.065   2.257
28423W        W  149   2.370   1.908   4.099
28424W        W  150  35.837  35.407   4.885
28425W        W  151  19.308  43.985   0.323
28426W        W  152  27.419   8.088   0.346
28427W        W  153  15.802  25.136  14.567
28428W        W  154   4.273  31.126  13.479
28429W        W  155  19.800  40.028   4.130
28430W        W  156  36.930  19.687  12.075
28431W        W  157   1.815  29.968   3.096
28432W        W  158  15.806  39.520  13.360
28433W        W  159   7.276  41.793   3.171
28434W        W  160  44.086  33.187   4.055
28435W        W  161  26.400  31.912  12.344
28436W        W  162  21.943  41.648   4.482
28437W        W  163  42.924  12.555  11.952
28438W        W  164   9.355   1.489  12.044
28439W        W  165  29.349  32.058   0.293
28440W        W  166  43.566  23.620   3.669
28441W        W  167  25.795  37.481   4.149
28442W        W  168   0.013   8.341  10.685
28443W        W  169   6.663  40.102   4.808
28444W        W  170  14.104   5.663   2.357
28445W        W  171  19.537  32.824   3.746
28446W        W  172  41.748   4.838  11.421
28447W        W  173  33.172  37.901  13.342
28448W        W  174  28.476   8.140   2.401
28449W        W  175  19.530   1.665   4.163
28450W        W  176  17.552  11.582   3.673
28451W        W  177   8.252  25.438   1.927
28452W        W  178  38.047  42.899   3.156
28453W        W  179  10.555  12.532   1.120
28454W        W  180  39.836  34.964  14.523
28455W        W  181  25.949   1.986   0.413
28456W        W  182  12.302  28.042   3.816
28457W        W  183  39.282  31.906  10.989
28458W        W  184  34.922  23.424  11.040
28459W        W  185  44.718   3.166   0.277
28460W        W  186   0.914  29.958   3.637
28461W        W  187   2.291  22.525   2.934
28462W        W  188  31.970  18.972  11.983
28463W        W  189   5.621  43.319   3.677
28464W        W  190  36.061  19.485   2.800
28465W        W  191   9.324  16.244   3.765
28466W        W  192  24.027  40.969  11.418
28467W        W  193  11.662   7.223  12.924
28468W        W  194  27.632  26.822  12.526
28469W        W  195  32.821  30.543  11.584
28470W        W  196  26.680  43.959   0.005
28471W        W  197   0.784  31.747   1.711
28472W        W  198  23.551  23.715  12.948
28473W        W  199  20.272  27.135   1.507
28474W        W  200  44.388  26.165  12.839
28475W        W  201  27.936  10.729  13.439
28476W        W  202  23.432  36.010   1.140
28477W        W  203  18.147  24.428   2.433
28478W        W  204  37.427   6.173  11.630
28479W        W  205  33.917  19.457   1.930
28480W        W  206  26.229   4.042   3.184
28481W        W  207  34.852  25.142   5.236
28482W        W  208  22.438  38.948   0.487
28483W        W  209  33.500   3.255   1.468
28484W        W  210  18.659  34.724  14.355
28485W        W  211   3.467  34.283   4.243
28486W        W  212  19.493  31.459  14.454
28487W        W  213  41.202  24.827  14.876
28488W        W  214  20.248  17.991   2.721
28489W        W  215  30.635  18.308   4.233
28490W        W  216  41.415  38.444  13.795
28491W        W  217  42.021  19.468  14.870
28492W        W  218  20.193  16.346  13.374
28493W        W  219  30.600   7.345   0.371
28494W        W  220  16.204  13.152   4.700
28495W        W  221  44.070  22.513   3.360
28496W        W  222   0.247  12.872   0.774
28497W        W  223  44.512   8.495  14.431
28498W        W  224  26.585   1.521  13.541
28499W        W  225  10.127  38.070  12.989
28500W        W  226  12.744  16.299   1.593
28501W        W  227  29.090  28.883  14.711
28502W        W  228   5.495  38.307   1.905
28503W        W  229   8.210  24.885  11.620
28504W        W  230  35.012  16.685   4.251
28505W        W  231  10.322  26.218   4.077
28506W        W  232  12.132   4.142   1.057
28507W        W  233   6.222   2.392   3.367
28508W        W  234   8.298  43.371  13.613
28509W        W  235   1.713  31.642   0.969
28510W        W  236  26.574  44.955  14.458
28511W        W  237  18.065  36.696   2.134
28512W        W  238  37.863  27.149  10.636
28513W        W  239  30.965   6.608  13.002
28514W        W  240  20.507  40.991   1.366
28515W        W  241   3.846  18.273  14.877
28516W        W  242  33.729  37.632  12.597
28517W        W  243  40.319  36.793  14.288
28518W        W  244  33.630  16.269   4.104
28519W        W  245  12.156  40.552  14.161
28520W        W  246  18.835  16.122   1.800
28521W        W  247  21.017  19.806   3.317
28522W        W  248   1.369  29.399   1.649
28523W        W  249  39.806  18.995  14.891
28524W        W  250  26.265   3.382   4.500
28525W        W  251  32.965   2.339  11.592
28526W        W  252  43.592  33.346   4.072
28527W        W  253   9.649  12.927   3.105
28528W        W  254  27.498   5.332  13.399
28529W        W  255  39.872  38.017   4.644
28530W        W  256  28.515  25.693   4.262
28531W        W  257  25.056  11.195  11.890
28532W        W  258  42.210   6.782   1.156
28533W        W  259   1.429  17.806   2.498
28534W        W  260  20.182  27.536   1.213
28535W        W  261  24.676  19.836   1.358
28536W        W  262  11.441   7.693  12.280
28537W        W  263  44.875  34.448  13.821
28538W        W  264  20.707  37.894   4.692
28539W        W  265  19.304  30.750  14.823
28540W        W  266   9.328  22.583   3.601
28541W        W  267   7.683  22.731  14.709
28542W        W  268  15.222  13.408   2.840
28543W        W  269  21.222  34.159   0.224
28544W        W  270  12.754  35.968  12.019
28545W        W  271  26.139   5.246  13.609
28546W        W  272  42.581  25.976   1.371
28547W        W  273  41.316   1.312   2.017
28548W        W  274  43.777  37.176   2.791
28549W        W  275   5.514  36.192   3.799
28550W        W  276   2.879  11.721  14.838
28551W        W  277  27.669   7.821   4.774
28552W        W  278  27.518  35.437   2.187
28553W        W  279  26.468   3.904   2.758
28554W        W  280  35.646  30.974   4.110
28555W        W  281  38.556  38.141  14.951
28556W        W  282  24.466  30.389   1.647
28557W        W  283  21.263  16.820  12.436
28558W        W  284  35.599  30.534  10.966
28559W        W  285  34.063  28.634  10.572
28560W        W  286   0.346  29.050  10.378
28561W        W  287  13.800  17.909   4.732
28562W        W  288  35.679  28.039  11.052
28563W        W  289  35.390  28.958   3.152
28564W        W  290  41.481   5.800  12.616
28565W        W  291  41.250   6.934   1.306
28566W        W  292   2.457  44.927   4.356
28567W        W  293  38.008  13.660   1.702
28568W        W  294  18.989   7.858  13.195
28569W        W  295  33.088  19.718   0.590
28570W        W  296  37.588   8.877   2.194
28571W        W  297  39.590  22.176  11.471
28572W        W  298   6.948   2.973   4.056
28573W        W  299   0.711  41.719   2.691
28574W        W  300   7.841  32.803   1.396
28575W        W  301  10.803  32.823  13.486
28576W        W  302  22.672  31.326   0.708
28577W        W  303   0.495  37.130   0.661
28578W        W  304  37.125  12.310   3.295
28579W        W  305  43.446  22.590   1.208
28580W        W  306   6.120  14.925   2.858
28581W        W  307  43.938  12.799  13.867
28582W        W  308   1.155  22.938   4.211
28583W        W  309   4.875  26.797  11.989
28584W        W  310   0.306  24.978   5.039
28585W        W  311  17.328  10.788  12.461
28586W        W  312  21.010  15.331   3.189
28587W        W  313  16.694  32.313  10.699
28588W        W  314  25.172  38.371   2.149
28589W        W  315  21.465  25.061   3.052
28590W        W  316   3.327  22.656   3.588
28591W        W  317  44.243   9.583   1.593
28592W        W  318  33.339  24.566   2.134
28593W        W  319  34.157  32.939  11.123
28594W        W  320  40.850  12.814  11.898
28595W        W  321   0.829  17.230  10.592
28596W        W  322  12.757  32.942   4.168
28597W        W  323  33.928  16.317  13.353
28598W        W  324   8.224  26.060   4.090
28599W        W  325  13.394  38.612  11.063
28600W        W  326  29.865   8.983   0.873
28601W        W  327  18.239  22.681   4.456
28602W        W  328  42.727   4.956  11.683
28603W        W  329  24.919  20.304   1.929
28604W        W  330  39.206  19.639  14.054
28605W        W  331   2.941  15.885   1.318
28606W        W  332  21.493   0.764  14.867
28607W        W  333  23.997  14.802   1.299
28608W        W  334  21.542  12.719  12.914
28609W        W  335  31.591   7.930   4.143
28610W        W  336  33.431  20.686   4.927
28611W        W  337  42.109  33.695  13.967
28612W        W  338  19.184  39.414   1.976
28613W        W  339  35.832  15.865  12.403
28614W        W  340  17.484  11.603  10.520
28615W        W  341  24.424   1.928   1.714
28616W        W  342  30.219  25.094  11.378
28617W        W  343   4.787  14.095  13.680
28618W        W  344   3.679   8.259  14.100
28619W        W  345   3.351  35.023  12.975
28620W        W  346   4.720  30.630   4.670
28621W        W  347  24.619  18.282   3.641
28622W        W  348  44.861   9.815  11.688
28623W        W  349  11.273  19.804  10.991
28624W        W  350  42.260  44.885   3.797
28625W        W  351  14.092   2.877   4.631
28626W        W  352   2.443  39.138  11.468
28627W        W  353  17.580   3.393  14.329
28628W        W  354  24.760  36.539   2.383
28629W        W  355  14.276  25.270   3.616
28630W        W  356  40.182  26.189  14.945
28631W        W  357  34.295  35.499   0.207
28632W        W  358  42.908  19.745  14.323
28633W        W  359  33.520   1.520   1.836
28634W        W  360  30.585  19.083  10.704
28635W        W  361   0.355   5.650   1.382
28636W        W  362  37.723  13.238  14.874
28637W        W  363  33.341  20.331   1.331
28638W        W  364   6.911  37.545  14.638
28639W        W  365  40.870   0.059  12.027
28640W        W  366   4.253  41.008   0.692
28641W        W  367   8.412  28.622   2.397
28642W        W  368  28.593   6.870   4.744
28643W        W  369  21.663   2.489   0.298
28644W        W  370  25.914  25.015   2.337
28645W        W  371  33.189  17.648   4.748
28646W        W  372  31.831  25.967   2.637
28647W        W  373  24.816  43.829   0.884
28648W        W  374  28.228  19.071   2.309
28649W        W  375   7.842  27.932   2.281
28650W        W  376   0.299  19.750   3.632
28651W        W  377  36.358  10.278  13.099
28652W        W  378  18.133  23.697   3.057
28653W        W  379  32.495  39.298  11.579
28654W        W  380  12.761  39.521  11.544
28655W        W  381  40.438  28.199  10.605
28656W        W  382   4.869  10.723   2.361
28657W        W  383  44.796  17.150  13.669
28658W        W  384  41.643   6.147  10.960
28659W        W  385  27.982  44.217  12.668
28660W        W  386  33.809  21.473  12.014
28661W        W  387  25.131  41.325  12.847
28662W        W  388   5.763  37.916   0.618
28663W        W  389   8.927  42.319  11.460
28664W        W  390  29.406  38.382   4.054
28665W        W  391   7.227  22.608   0.377
28666W        W  392  19.688   0.072  13.115
28667W        W  393  12.593  36.628   3.301
28668W        W  394  34.346   2.268  13.816
28669W        W  395   9.846  27.449   3.602
28670W        W  396  15.806  40.403  10.621
28671W        W  397   9.337   2.806  12.311
28672W        W  398  11.341  19.623  14.731
28673W        W  399   4.009  20.323  13.454
28674W        W  400   6.357  10.973  10.177
28675W        W  401  25.654  16.525  12.403
28676W        W  402  13.287  17.494  12.857
28677W        W  403  28.667  22.577   4.889
28678W        W  404  27.881  11.338  12.999
28679W        W  405  36.903  16.034   0.352
28680W        W  406   6.337  29.317   4.627
28681W        W  407  33.092  32.872   0.951
28682W        W  408  24.061  25.019  10.889
28683W        W  409   6.912   2.849  12.932
28684W        W  410   6.407   2.013  14.408
28685W        W  411  13.805  19.996   0.730
28686W        W  412  43.131  35.777   3.695
28687W        W  413  31.658   6.035   3.685
28688W        W  414  43.998  22.691   1.023
28689W        W  415   0.459  40.159  13.894
28690W        W  416  35.853  43.264   1.444
28691W        W  417  17.171  13.907   4.084
28692W        W  418   3.781   4.678  10.939
28693W        W  419   2.290  38.852   0.909
28694W        W  420   9.024   1.377   2.710
28695W        W  421  31.446  38.243   2.822
28696W        W  422   5.835  42.575   2.354
28697W        W  423  29.498  25.453   4.212
28698W        W  424  12.812   3.010   1.325
28699W        W  425  25.998   9.396   1.869
28700W        W  426  16.027  13.733   0.756
28701W        W  427   9.460  17.330   3.400
28702W        W  428   3.224  21.113  10.499
28703W        W  429   1.914   5.839   1.855
28704W        W  430   6.228   4.364   4.649
28705W        W  431  35.978  29.593   2.154
28706W        W  432   7.846   2.918   4.850
28707W        W  433  41.878  32.128  12.569
28708W        W  434  35.008  20.764  13.586
28709W        W  435  35.762  30.185  10.613
28710W        W  436  44.223  34.457   2.111
28711W        W  437  20.682  11.085  14.799
28712W        W  438  31.550  37.329   0.051
28713W        W  439  32.822  32.492   0.477
28714W        W  440  36.755  26.170   3.042
28715W        W  441  11.136  17.878  12.515
28716W        W  442  24.654  11.631   1.270
28717W        W  443  17.114  18.190  14.720
28718W        W  444  28.655  21.589  13.999
28719W        W  445  25.920  12.236  14.232
28720W        W  446  27.716   5.341   2.856
28721W        W  447  15.573  20.543  12.894
28722W        W  448  32.540  30.316  11.935
28723W        W  449  19.306  19.537  10.695
28724W        W  450   3.683  15.768   3.057
28725W        W  451  13.066  17.346  13.495
28726W        W  452  11.921   2.426   2.700
28727W        W  453  42.689  32.153   3.655
28728W        W  454   0.539  26.639  10.041
28729W        W  455  30.419  13.999   0.569
28730W        W  456  36.243  17.582   0.916
28731W        W  457   0.972   1.320   1.358
28732W        W  458  28.389  19.559   2.748
28733W        W  459  22.624  43.574   4.148
28734W        W  460  32.487  11.109   4.544
28735W        W  461  25.945  33.035   3.094
28736W        W  462  33.004  18.655  14.605
28737W        W  463   3.150  22.541   3.104
28738W        W  464  41.404  10.234   4.703
28739W        W  465   6.162  20.157  13.780
28740W        W  466  43.973  18.606   4.797
28741W        W  467  28.640  11.398   1.694
28742W        W  468  36.273  24.664   1.936
28743W        W  469  18.819   4.180   4.197
28744W        W  470  16.686   8.214  12.974
28745W        W  471   4.695  25.888  13.013
28746W        W  472  23.499  36.477  14.112
28747W        W  473  39.079   3.216   3.679
28748W        W  474  29.128  24.916  14.365
28749W        W  475  13.402  37.479   2.316
28750W        W  476  41.486  18.203   0.382
28751W        W  477  27.601   1.280   3.242
28752W        W  478  39.186  12.728   2.236
28753W        W  479  19.059   5.490   1.256
28754W        W  480  22.113  14.648   4.646
28755W        W  481  39.847  43.369  12.350
28756W        W  482  14.004   7.618   2.247
28757W        W  483   3.760  11.378  11.566
28758W        W  484   8.594   0.991  12.107
28759W        W  485  25.038   3.236  10.063
28760W        W  486  39.117   4.450  14.880
28761W        W  487   0.787   7.168  14.499
28762W        W  488  25.291  18.194  10.967
28763W        W  489  21.992   1.739  11.913
28764W        W  490  41.910  33.125   3.621
28765W        W  491  25.235  28.431  13.292
28766W        W  492  44.558  22.303  14.589
28767W        W  493  40.564  13.150   2.184
28768W        W  494  43.927   4.751   2.357
28769W        W  495  11.706  43.837  13.415
28770W        W  496  12.307  33.047   4.547
28771W        W  497   1.405  30.884   3.664
28772W        W  498  20.234  36.563   4.738
28773W        W  499  16.336  37.330   2.113
28774W        W  500  16.080  42.974   4.668
28775W        W  501  41.385  36.892  12.597
28776W        W  502  25.475   3.383  11.217
28777W        W  503  26.733  15.590  12.914
28778W        W  504  26.109  41.323  11.106
28779W        W  505  28.050  16.367   2.677
28780W        W  506   9.309  30.983   0.838
28781W        W  507  13.859   3.809  14.604
28782W        W  508   1.730  31.004  12.968
28783W        W  509  40.397  34.513  12.624
28784W        W  510  17.679  36.286  10.825
28785W        W  511  12.676  10.425   3.839
28786W        W  512  31.727  14.207   1.205
28787W        W  513  32.647  37.757   3.268
28788W        W  514  37.045  30.758  12.193
28789W        W  515  30.949  20.115  14.738
28790W        W  516   9.159   6.328   1.764
28791W        W  517  24.002  25.963  12.053
28792W        W  518  25.191  11.595   1.197
28793W        W  519   8.839  15.939   0.365
28794W        W  520  38.589  40.855  12.025
28795W        W  521  23.007   8.288   2.175
28796W        W  522  25.153   9.850   2.350
28797W        W  523   5.330   9.925  11.770
28798W        W  524   2.781  27.497  13.510
28799W        W  525  35.893  13.744   2.240
28800W        W  526  21.125  13.064  11.053
28801W        W  527   9.183  33.697   0.729
28802W        W  528  17.685   3.697   3.276
28803W        W  529  33.595  33.883   3.663
28804W        W  530  22.154  44.556   4.749
28805W        W  531  27.414  10.150   1.350
28806W        W  532   5.665  14.404   0.962
28807W        W  533   9.839   8.103  13.486
28808W        W  534  22.650  39.271   4.810
28809W        W  535  11.697  32.961   4.233
28810W        W  536  43.798  43.508   2.521
28811W        W  537  42.508   7.155  12.329
28812W        W  538   7.923   0.077   4.528
28813W        W  539   5.281  39.048  12.978
28814W        W  540  12.429  10.418   0.253
28815W        W  541  10.715  37.301  14.009
28816W        W  542   8.618  39.830   2.325
28817W        W  543  32.091  20.249   3.556
28818W        W  544  41.577  24.842  13.846
28819W        W  545   5.161  41.928   3.948
28820W        W  546   0.757   6.277   2.130
28821W        W  547  37.497  17.335  13.448
28822W        W  548  12.318  14.670   4.640
28823W        W  549  29.483  23.135   4.445
28824W        W  550  34.136  24.210   2.251
28825W        W  551  44.467  23.967  10.517
28826W        W  552   6.786  15.477  14.753
28827W        W  553  13.311  15.156  13.362
28828W        W  554  32.223  15.913   1.287
28829W        W  555   0.572  25.105   2.283
28830W        W  556  37.352  31.573  11.023
28831W        W  557  33.231  19.116   0.814
28832W        W  558   0.399  31.481   3.303
28833W        W  559  32.680  16.214  13.000
28834W        W  560  15.791  23.268   3.669
28835W        W  561  31.906  30.676   2.659
28836W        W  562   5.712   5.855  12.131
28837W        W  563  22.168  36.091  13.342
28838W        W  564  40.827  44.282   0.350
28839W        W  565  32.986  11.875   1.281
28840W        W  566  43.384   4.893  12.477
28841W        W  567  33.246  26.984   1.387
28842W        W  568  38.625  14.843  13.722
28843W        W  569  22.840  17.447  10.964
28844W        W  570   3.441   3.186  11.441
28845W        W  571   1.773  30.201   0.716
28846W        W  572   4.957   4.495  13.587
28847W        W  573   5.288  34.694  12.415
28848W        W  574  29.566  39.110   3.785
28849W        W  575  15.994  11.387   3.308
28850W        W  576  42.143  14.650  11.854
28851W        W  577   1.607  20.968  14.031
28852W        W  578  22.221  24.072   2.717
28853W        W  579  23.623   7.634  10.727
28854W        W  580  21.620  33.441   3.845
28855W        W  581  40.911  18.085   1.383
28856W        W  582  19.947  24.616   0.848
28857W        W  583  23.578  40.547   1.663
28858W        W  584  14.808  39.092   0.913
28859W        W  585  26.863  31.414   2.411
28860W        W  586  25.526  36.935   3.321
28861W        W  587  37.859  36.575   3.064
28862W        W  588  18.705  30.870  12.908
28863W        W  589  14.017  21.651  12.610
28864W        W  590  14.684  44.817  11.850
28865W        W  591  22.967  27.476   4.083
28866W        W  592   0.496  25.774  11.114
28867W        W  593  26.165  12.680  13.458
28868W        W  594  34.013  24.740   3.412
28869W        W  595  18.248  43.839  12.449
28870W        W  596  11.877  30.384   0.596
28871W        W  597  42.066  39.139  12.897
28872W        W  598   4.496  10.808   4.644
28873W        W  599  24.481  42.205   4.089
28874W        W  600  21.049  41.546   3.763
28875W        W  601  19.755  17.873   1.309
28876W        W  602  12.365  26.366  13.804
28877W        W  603  42.054  36.616   1.411
28878W        W  604  43.422   7.693   3.681
28879W        W  605  13.265  27.681   4.797
28880W        W  606  33.505   7.784   3.799
28881W        W  607  36.243  34.746  13.545
28882W        W  608  23.163  36.309  12.028
28883W        W  609  22.250  40.393   4.778
28884W        W  610  28.158  42.890  13.026
28885W        W  611   3.933  33.989  14.906
28886W        W  612   9.376   9.887   1.729
28887W        W  613  38.013   9.702   2.247
28888W        W  614  35.780  34.601   4.174
28889W        W  615  19.767   1.746  12.593
28890W        W  616  42.022  33.875   4.333
28891W        W  617  17.384   9.725  11.409
28892W        W  618  23.101  14.808   5.387
28893W        W  619  27.234   6.883  12.882
28894W        W  620  15.670  34.467  14.683
28895W        W  621   6.437   6.918   4.569
28896W        W  622  13.151   9.477   3.837
28897W        W  623  16.241  18.562  13.099
28898W        W  624   7.162  27.483  14.839
28899W        W  625  14.896  33.613   0.314
28900W        W  626   7.374  34.306  10.927
28901W        W  627   8.660  20.054  12.136
28902W        W  628  11.672  13.586   4.094
28903W        W  629  32.318   3.841  14.345
28904W        W  630   0.339  35.519  13.418
28905W        W  631  20.584   4.383  14.094
28906W        W  632  25.026  37.303  12.640
28907W        W  633   3.370   8.251   0.031
28908W        W  634  30.835  41.023   4.086
28909W        W  635  11.025   0.770   0.815
28910W        W  636  16.092  27.139   2.882
28911W        W  637  18.597  34.377   2.308
28912W        W  638  39.079  22.134  11.397
28913W        W  639  25.099   5.590  14.994
28914W        W  640  27.305  28.787  10.241
28915W        W  641  44.110  18.533  13.506
28916W        W  642   8.307   5.671  11.517
28917W        W  643  42.579   4.111   1.924
28918W        W  644  26.684  15.322  12.459
28919W        W  645  33.954  44.241  10.051
28920W        W  646  18.327  24.483  12.869
28921W        W  647   1.922   6.311  12.400
28922W        W  648  10.926  37.097   2.110
28923W        W  649  34.853  40.521   2.705
28924W        W  650  31.512  28.804   4.162
28925W        W  651  21.467  35.265   1.081
28926W        W  652  40.943   1.773   4.265
28927W        W  653   0.911   2.731  14.009
28928W        W  654   2.701  44.173   3.208
28929W        W  655  24.487  15.273  13.083
28930W        W  656  41.423   9.636   3.909
28931W        W  657  20.909  37.890  14.449
28932W        W  658  35.194  11.203   0.427
28933W        W  659  43.781  38.267   1.276
28934W        W  660   6.389  12.782  10.046
28935W        W  661   9.870   4.113  12.959
28936W        W  662  30.441  20.991   2.402
28937W        W  663  38.745  41.993   2.969
28938W        W  664   5.713  36.306   3.324
28939W        W  665  35.341  17.598   0.403
28940W        W  666  30.839   0.816   1.778
28941W        W  667   4.917   5.609   4.954
28942W        W  668  26.960  27.701  11.677
28943W        W  669   5.979   4.432   0.074
28944W        W  670  10.193  11.484  14.778
28945W        W  671   1.081   5.188  11.978
28946W        W  672   1.969  36.875   1.958
28947W        W  673  42.447  35.671  12.601
28948W        W  674  14.245  30.572   4.033
28949W        W  675  28.339  16.999   2.396
28950W        W  676  32.609  12.142   0.886
28951W        W  677  35.000  17.554   2.477
28952W        W  678  41.425  24.298  13.592
28953W        W  679  39.124  32.742  14.274
28954W        W  680   1.388  32.315  14.718
28955W        W  681  20.204  17.322  10.783
28956W        W  682   3.747  21.975   0.867
28957W        W  683  19.150   0.456  14.945
28958W        W  684  10.560   7.321   0.775
28959W        W  685  35.799   1.274   2.107
28960W        W  686  32.521  30.229   3.154
28961W        W  687  26.059  36.758  12.889
28962W        W  688  18.789  29.397   0.782
28963W        W  689  33.463   0.273   3.272
28964W        W  690  37.658  11.370   4.291
28965W        W  691  30.106  38.791   1.345
28966W        W  692   7.864   7.172   2.262
28967W        W  693  38.470   6.674   3.032
28968W        W  694  18.060  13.768   1.042
28969W        W  695  37.559  17.088  11.647
28970W        W  696  11.503  27.110  12.015
28971W        W  697   6.815  25.607   0.821
28972W        W  698  44.367  26.968  10.442
28973W        W  699  42.528  18.692  12.535
28974W        W  700  42.028   1.846   2.805
28975W        W  701  12.246  40.226   3.503
28976W        W  702   4.265  34.467   0.821
28977W        W  703  38.539  22.227   3.788
28978W        W  704   8.588  31.063  11.253
28979W        W  705  15.273  36.308   2.909
28980W        W  706  40.080  10.868   4.125
28981W        W  707  12.898  21.998  13.485
28982W        W  708   7.799  20.637  13.034
28983W        W  709   6.280  21.681  11.600
28984W        W  710   2.860  19.012  11.965
28985W        W  711   8.030  44.799   0.757
28986W        W  712  24.787  37.903  10.506
28987W        W  713  21.051  17.648   0.258
28988W        W  714   1.127  31.950  11.449
28989W        W  715  20.109  37.966   3.366
28990W        W  716  30.144  42.294   3.625
28991W        W  717  28.535  19.960  12.497
28992W        W  718  13.347  41.286   3.156
28993W        W  719   4.260  24.693   4.554
28994W        W  720  22.560  29.062   3.735
28995W        W  721  20.098  19.224  12.631
28996W        W  722  33.278  17.358   9.815
28997W        W  723  40.481  13.768  11.132
28998W        W  724  14.083  40.797   0.936
28999W        W  725  19.014  22.079  13.849
29000W        W  726  36.022   9.831   1.193
29001W        W  727   4.465  15.130   0.331
29002W        W  728  40.141  19.615   2.388
29003W        W  729  24.194  17.197   4.533
29004W        W  730  43.362  20.677  14.565
29005W        W  731  32.009  29.971   1.340
29006W        W  732  25.521  14.592   1.587
29007W        W  733  29.872  23.610   0.730
29008W        W  734  27.983   1.828  13.044
29009W        W  735   0.119  36.081  12.911
29010W        W  736  12.401  41.037   3.773
29011W        W  737   1.189   1.765   1.518
29012W        W  738  34.091   8.203  12.972
29013W        W  739  43.515  26.985  13.647
29014W        W  740  41.303  29.442  10.702
29015W        W  741  28.222  29.907   4.395
29016W        W  742  39.898  31.630   4.438
29017W        W  743  35.149  40.032  14.032
29018W        W  744  43.315  18.993   1.185
29019W        W  745  41.937  33.916   1.248
29020W        W  746   7.084  23.623  12.948
29021W        W  747  43.046  39.109   2.790
29022W        W  748  30.431  44.996   3.624
29023W        W  749   7.462  12.918   3.730
29024W        W  750   4.844  16.881   4.588
29025W        W  751  36.885   4.428   0.435
29026W        W  752   2.108  18.488   2.811
29027W        W  753  15.760  23.742   3.837
29028W        W  754  24.139   7.950   0.868
29029W        W  755  29.275  25.616   2.311
29030W        W  756  36.410  11.239   4.459
29031W        W  757   4.365  21.262  12.296
29032W        W  758   3.282  22.856   4.861
29033W        W  759  31.947  40.034   3.788
29034W        W  760  27.990  31.157   3.284
29035W        W  761   5.841  40.938  13.100
29036W        W  762   5.491   8.703  14.476
29037W        W  763  16.937   2.383  10.390
29038W        W  764   9.283  29.741   1.776
29039W        W  765   5.406  38.851   0.293
29040W        W  766  12.661   4.659   3.706
29041W        W  767  30.412  25.019  13.892
29042W        W  768  21.683  21.679   3.760
29043W        W  769   9.880  34.294   0.064
29044W        W  770   3.430  39.982   0.272
29045W        W  771   2.347  30.882   3.686
29046W        W  772  32.373   1.842   2.210
29047W        W  773  38.808  43.390   0.291
29048W        W  774  41.818  23.214   3.843
29049W        W  775   5.106   6.475   1.971
29050W        W  776   4.276   5.646  14.532
29051W        W  777  31.967  34.534  13.424
29052W        W  778  41.319  42.443   3.743
29053W        W  779  27.387   9.936   3.212
29054W        W  780  31.195  41.984   2.602
29055W        W  781  33.488  20.958   3.141
29056W        W  782  29.633   9.217   0.460
29057W        W  783  12.775  11.108   2.672
29058W        W  784  12.439   6.025   1.758
29059W        W  785  16.048  10.161  11.662
29060W        W  786  38.517   0.490   3.902
29061W        W  787   0.798   5.677  14.354
29062W        W  788   3.139  38.378  14.530
29063W        W  789  44.599  31.706   4.383
29064W        W  790  29.655   2.977  11.129
29065W        W  791  38.514  39.350  14.474
29066W        W  792  40.325   4.473   0.898
29067W        W  793  15.169  39.615   1.654
29068W        W  794  36.807   5.815   1.369
29069W        W  795  40.417  22.247   3.248
29070W        W  796  16.745  11.662  14.818
29071W        W  797  24.208  14.258  11.657
29072W        W  798   4.026  25.607   3.296
29073W        W  799  35.938  25.961   0.942
29074W        W  800  23.039  30.662   1.772
29075W        W  801  11.224   2.811   4.247
29076W        W  802  33.023   5.482  11.595
29077W        W  803   1.309  32.647  12.043
29078W        W  804  25.575  19.715  14.430
29079W        W  805   1.942  20.644   3.204
29080W        W  806  23.214   5.156  10.595
29081W        W  807  12.384   6.324  14.877
29082W        W  808  35.435   5.004   1.295
29083W        W  809  12.697   4.955   0.437
29084W        W  810   5.343  20.128   3.431
29085W        W  811  28.557   6.451   3.244
29086W        W  812   2.236  15.344   0.311
29087W        W  813  20.501   7.681   2.672
29088W        W  814  14.519   5.294   1.254
29089W        W  815  40.587  22.541   0.802
29090W        W  816  30.932  44.278   3.799
29091W        W  817   5.205   5.730  10.510
29092W        W  818  13.651  13.174   1.793
29093W        W  819  26.537   6.348  13.561
29094W        W  820   2.712  21.470   4.635
29095W        W  821  25.077   8.120   2.322
29096W        W  822   1.457  32.390   3.684
29097W        W  823  15.310   0.707  12.848
29098W        W  824   5.716   8.292   4.826
29099W        W  825  44.348  30.608  13.040
29100W        W  826  38.528  42.944   2.021
29101W        W  827  43.209   4.733   2.808
29102W        W  828  43.845  15.616   0.482
29103W        W  829  35.639  30.101  11.251
29104W        W  830  42.202  39.532   2.714
29105W        W  831   5.207  13.581  11.972
29106W        W  832   8.674  18.598  12.906
29107W        W  833  44.771  26.687   2.822
29108W        W  834  18.077  29.950   1.120
29109W        W  835  10.206  24.460   3.824
29110W        W  836   6.535  18.938   2.721
29111W        W  837  40.217   7.328  12.393
29112W        W  838   7.754  33.534  11.998
29113W        W  839   9.001  19.137   0.197
29114W        W  840  29.658  21.012  13.402
29115W        W  841  32.895  24.654   0.335
29116W        W  842   9.754  10.847   4.575
29117W        W  843  43.345  23.467   0.771
29118W        W  844  29.597  20.747  10.665
29119W        W  845  32.341  10.749  12.843
29120W        W  846  44.448  21.400  12.611
29121W        W  847   7.669  35.144  14.864
29122W        W  848   9.820  30.080   4.151
29123W        W  849  11.312  37.078  10.912
29124W        W  850   9.845  12.827  14.942
29125W        W  851  13.039  35.919   0.517
29126W        W  852  17.821   5.206  14.862
29127W        W  853   4.656  17.536   2.855
29128W        W  854  29.757  16.623  11.856
29129W        W  855  33.501  23.214  10.691
29130W        W  856   6.427  31.818   0.292
29131W        W  857  33.893   4.100  14.822
29132W        W  858   1.527   2.191   3.057
29133W        W  859  11.207  23.799   0.710
29134W        W  860  14.663  12.633   0.322
29135W        W  861  39.033  25.222   4.123
29136W        W  862  26.050   9.615  13.492
29137W        W  863  41.406  29.080  13.922
29138W        W  864  19.212  14.846   3.856
29139W        W  865  20.309  41.991   4.017
29140W        W  866  10.369  42.858  10.675
29141W        W  867  22.519  37.378  10.771
29142W        W  868  19.688  11.156  10.649
29143W        W  869  32.401  43.914   4.580
29144W        W  870  29.626  12.080   0.710
29145W        W  871  11.696   4.855   3.569
29146W        W  872  13.285  17.213  11.738
29147W        W  873   6.714   5.658  13.056
29148W        W  874  39.841  29.187   3.269
29149W        W  875   8.342  38.027   4.097
29150W        W  876  21.597   5.426   2.394
29151W        W  877  40.915  38.547   4.660
29152W        W  878   4.116   4.691   1.021
29153W        W  879  42.160  20.231   0.302
29154W        W  880  24.057  17.769   4.070
29155W        W  881   3.558  44.271   1.961
29156W        W  882  22.610  23.754  14.336
29157W        W  883  39.131   6.932  13.477
29158W        W  884  17.528  43.772   3.172
29159W        W  885   5.911  15.831  10.083
29160W        W  886  22.034  42.926   4.095
29161W        W  887  10.855   1.304  14.721
29162W        W  888  31.216  12.342   3.137
29163W        W  889  31.437  37.453   1.422
29164W        W  890  38.512   4.393  12.752
29165W        W  891  25.247   5.704  11.066
29166W        W  892  13.030  31.894  10.241
29167W        W  893  16.753  22.103  13.912
29168W        W  894  25.201  38.820  10.609
29169W        W  895  11.062  40.409   1.911
29170W        W  896  23.966   8.731  14.294
29171W        W  897  25.490  17.536  14.887
29172W        W  898  44.437  30.237   0.298
29173W        W  899  10.825  10.091   3.935
29174W        W  900  23.504  18.810   4.680
29175W        W  901  37.746  41.943   2.683
29176W        W  902  13.955   6.766   4.828
29177W        W  903   4.004  34.450   2.285
29178W        W  904  36.524  25.461   2.310
29179W        W  905  32.111  20.207   4.091
29180W        W  906  11.864  19.801  12.027
29181W        W  907   4.791   9.746   3.825
29182W        W  908  19.101  22.157  11.555
29183W        W  909  42.077  39.027   2.772
29184W        W  910  28.317  43.277   2.875
29185W        W  911  44.427  42.428   4.164
29186W        W  912  19.581  43.049   2.740
29187W        W  913  16.188   8.619  10.975
29188W        W  914  41.313   8.353  11.210
29189W        W  915  22.059  20.012  11.886
29190W        W  916   8.410  18.738  12.036
29191W        W  917  10.899  32.630  13.966
29192W        W  918   3.339  37.949   2.963
29193W        W  919  23.073  36.624  12.425
29194W        W  920  32.672   9.004   2.722
29195W        W  921   3.265  22.924   2.263
29196W        W  922   3.177  15.213   4.960
29197W        W  923  30.387  18.785   2.148
29198W        W  924  44.917  10.103  11.225
29199W        W  925  23.896  14.796   4.184
29200W        W  926  31.934   8.604  10.787
29201W        W  927   3.670  27.732   4.184
29202W        W  928   6.786  30.537   4.609
29203W        W  929  36.075  26.018   0.240
29204W        W  930   5.458  33.520   0.296
29205W        W  931  38.517  43.658   4.293
29206W        W  932  23.974  34.391  11.202
29207W        W  933  40.885  14.025  11.713
29208W        W  934   7.778  21.065  10.245
29209W        W  935  28.605  18.716   3.908
29210W        W  936  13.541  27.669  11.447
29211W        W  937  20.039  31.104  11.560
29212W        W  938  26.881   1.820   9.926
29213W        W  939   2.841  32.436  13.378
29214W        W  940  14.923   2.016  13.417
29215W        W  941  35.763  23.231   3.696
29216W        W  942  30.585  12.261   2.751
29217W        W  943  26.299  35.852  14.835
29218W        W  944  22.710  13.387   1.292
29219W        W  945   8.247  39.108   1.606
29220W        W  946   8.338  21.329  14.775
29221W        W  947  40.120  29.643   3.281
29222W        W  948  11.864  41.326   2.337
29223W        W  949  12.508  27.562   0.188
29224W        W  950   8.311  40.976  14.890
29225W        W  951  17.607   1.246   4.324
29226W        W  952  20.714  25.547   0.505
29227W        W  953   0.163  17.634   4.040
29228W        W  954  41.812  11.122  14.393
29229W        W  955  31.497  25.959   3.034
29230W        W  956  33.572  11.136   1.298
29231W        W  957  10.104  38.677  14.852
29232W        W  958  42.642   0.478  10.576
29233W        W  959   3.337   5.809   2.414
29234W        W  960  11.433  41.493  12.998
29235W        W  961  40.470  27.697   2.698
29236W        W  962  12.706  24.475  14.384
29237W        W  963  34.782  20.362  12.890
29238W        W  964  24.125  32.133   4.782
29239W        W  965  25.096  22.984  10.713
29240W        W  966  30.970  23.942   4.112
29241W        W  967  31.539  20.453   1.919
29242W        W  968  17.126  34.117   3.656
29243W        W  969   8.503   9.787  12.414
29244W        W  970  13.844  26.665   3.369
29245W        W  971   2.213  42.346  13.883
29246W        W  972  32.229  43.550  13.869
29247W        W  973  26.685   5.710   4.203
29248W        W  974  34.872  25.536   1.285
29249W        W  975  37.829  22.499  14.048
29250W        W  976  43.849  30.427  12.855
29251W        W  977   2.004  13.808  12.213
29252W        W  978  40.788  40.005   0.851
29253W        W  979  39.381  13.999   4.495
29254W        W  980  24.966  40.937   3.921
29255W        W  981  28.510   0.834   4.556
29256W        W  982   8.662  42.004  12.001
29257W        W  983  16.692  33.291   1.743
29258W        W  984  38.580  10.160  11.428
29259W        W  985   4.914  38.011  14.441
29260W        W  986  27.645  23.489   2.729
29261W        W  987  22.397  11.662  12.278
29262W        W  988   8.797  24.221  12.572
29263W        W  989  28.934  11.517   0.283
29264W        W  990  34.978  27.735  10.573
29265W        W  991  20.027  40.644  10.393
29266W        W  992   4.445  20.432  14.203
29267W        W  993   0.991   8.460  14.973
29268W        W  994  32.454  10.191   4.374
29269W        W  995  23.089  29.752   3.187
29270W        W  996   5.077  32.000   2.817
29271W        W  997  18.348  30.489  11.654
29272W        W  998  10.434  25.864  11.714
29273W        W  999  43.081   8.845   2.510
29274W        W 1000  31.544  36.475   1.792
29275W        W 1001  27.049  28.080  13.868
29276W        W 1002  35.442   5.162  13.553
29277W        W 1003   1.426  16.075   2.377
29278W        W 1004   3.461  11.698  11.817
29279W        W 1005  37.411   0.089  11.340
29280W        W 1006  24.281  40.871   2.322
29281W        W 1007  42.442  22.073   0.424
29282W        W 1008   9.434  44.294  11.581
29283W        W 1009  25.836  42.084   0.195
29284W        W 1010  40.474   4.428  10.957
29285W        W 1011  32.964  41.482   5.365
29286W        W 1012  26.403  21.799  11.638
29287W        W 1013  11.385  31.951   0.842
29288W        W 1014  31.961  20.845  11.529
29289W        W 1015  32.801  42.787   1.283
29290W        W 1016  40.005   8.630  11.199
29291W        W 1017   2.947   3.070   1.271
29292W        W 1018   5.700  17.355   0.294
29293W        W 1019  11.899  14.355  14.315
29294W        W 1020   3.962  39.948  14.475
29295W        W 1021  33.858  15.611   0.825
29296W        W 1022  24.243  38.554   5.160
29297W        W 1023  27.705  40.036  12.492
29298W        W 1024  42.589  18.378  10.101
29299W        W 1025   2.167  42.874   0.766
29300W        W 1026  11.989  13.761  12.836
29301W        W 1027  37.547  22.326  10.320
29302W        W 1028  21.052   6.800  13.904
29303W        W 1029  24.928  44.111   0.008
29304W        W 1030  11.213  11.355  12.121
29305W        W 1031  18.099   8.413   2.656
29306W        W 1032  44.007   1.943   4.608
29307W        W 1033  35.630  26.562  11.090
29308W        W 1034  10.768  35.119  11.961
29309W        W 1035  15.742  41.786  13.891
29310W        W 1036  17.443  12.253  11.863
29311W        W 1037  17.226  32.771  13.299
29312W        W 1038  28.073  27.556  14.192
29313W        W 1039   0.399  13.663  10.530
29314W        W 1040  16.334  16.724   4.508
29315W        W 1041  16.062  16.358  12.070
29316W        W 1042  24.779  33.922  13.284
29317W        W 1043  36.077  35.537  13.300
29318W        W 1044  13.168  29.400   3.546
29319W        W 1045  11.321  35.965   1.759
29320W        W 1046  38.755  21.280   1.950
29321W        W 1047  26.880  30.981   1.226
29322W        W 1048  35.816   9.445  12.156
29323W        W 1049   0.619  15.818   0.450
29324W        W 1050   1.016  17.827   1.770
29325W        W 1051  32.039  38.421  10.710
29326W        W 1052  14.798  15.537   4.637
29327W        W 1053  17.025   9.161   0.395
29328W        W 1054   9.176  36.055  12.567
29329W        W 1055  21.235   1.409   1.252
29330W        W 1056  12.732  23.260  10.582
29331W        W 1057   1.007   8.741   2.418
29332W        W 1058  23.132   8.425  13.543
29333W        W 1059   7.810   4.388   1.998
29334W        W 1060  23.188   9.400   3.225
29335W        W 1061  31.462   6.957   2.612
29336W        W 1062  15.027  10.273  10.200
29337W        W 1063  41.016  39.550   1.535
29338W        W 1064  29.073  31.602  10.586
29339W        W 1065  32.982  16.186   0.838
29340W        W 1066  37.013  15.205  11.980
29341W        W 1067  15.763  21.775   4.014
29342W        W 1068  40.106  27.894   3.702
29343W        W 1069  22.617  38.462  13.874
29344W        W 1070  20.575  19.830   2.720
29345W        W 1071  30.321  30.113  12.164
29346W        W 1072  21.516   3.412  11.862
29347W        W 1073  34.669  25.554   2.767
29348W        W 1074  18.327  43.409  11.529
29349W        W 1075  32.510  41.134   0.978
29350W        W 1076  16.763  24.898   3.299
29351W        W 1077  43.473  29.122  14.406
29352W        W 1078   2.876  17.741   1.235
29353W        W 1079   3.827  27.104  11.530
29354W        W 1080  30.108  33.031  14.717
29355W        W 1081  26.964   9.431   4.513
29356W        W 1082  17.804  21.170  14.490
29357W        W 1083  24.657  21.425   4.515
29358W        W 1084  16.361  37.364  12.506
29359W        W 1085   1.965  43.722   4.457
29360W        W 1086  23.314  44.224  10.539
29361W        W 1087  35.977  39.388   4.150
29362W        W 1088  39.050  38.879   2.856
29363W        W 1089   7.231  28.806  13.513
29364W        W 1090  20.547  44.853   4.088
29365W        W 1091   4.639  14.178  11.647
29366W        W 1092  24.024  30.170  11.546
29367W        W 1093  37.015  24.237   4.083
29368W        W 1094   9.801   5.995  14.353
29369W        W 1095   4.297  27.383   3.044
29370W        W 1096   3.712  43.409   1.353
29371W        W 1097   2.962   6.757   1.683
29372W        W 1098  37.575   3.302   4.367
29373W        W 1099  35.372   6.213  13.406
29374W        W 1100  44.086   4.032  11.129
29375W        W 1101   2.508  21.955   4.635
29376W        W 1102  25.631   8.835  10.437
29377W        W 1103  21.108   2.234   4.662
29378W        W 1104  40.638  19.541   4.550
29379W        W 1105  36.838  27.928  14.885
29380W        W 1106  13.391  28.588  13.646
29381W        W 1107  10.270  33.659   9.856
29382W        W 1108   4.859  10.113  11.921
29383W        W 1109   4.038  10.647  12.934
29384W        W 1110  41.695  21.486   2.864
29385W        W 1111  38.182  30.491  14.826
29386W        W 1112  16.056  41.405   0.760
29387W        W 1113  41.798  20.765   0.439
29388W        W 1114  42.140  42.045   3.174
29389W        W 1115   9.701  36.551  12.627
29390W        W 1116   2.766  25.654  12.028
29391W        W 1117  14.952  10.609  11.064
29392W        W 1118  18.483  18.088  13.839
29393W        W 1119  30.564   4.456  10.669
29394W        W 1120  20.308  21.989   4.685
29395W        W 1121  41.735   9.992  11.613
29396W        W 1122  29.270  25.407   9.870
29397W        W 1123   8.002   1.964   1.334
29398W        W 1124   6.611  23.671   2.415
29399W        W 1125  42.445  41.053  13.073
29400W        W 1126  38.473  14.299  11.041
29401W        W 1127  38.001   0.581   3.130
29402W        W 1128  27.129  34.177  13.470
29403W        W 1129  15.561   6.855   4.351
29404W        W 1130   6.148  40.724  13.493
29405W        W 1131  40.452  21.159   5.067
29406W        W 1132   1.326   9.387   4.547
29407W        W 1133   4.857  20.889   4.137
29408W        W 1134   8.275   2.734   3.667
29409W        W 1135  37.095  43.923   1.323
29410W        W 1136  18.237  23.742  12.124
29411W        W 1137  16.576  13.258  10.931
29412W        W 1138  30.549  19.796   3.313
29413W        W 1139   3.971   3.326   1.141
29414W        W 1140  11.281  18.757  14.546
29415W        W 1141  33.225  30.416   0.086
29416W        W 1142  38.832  10.325  10.349
29417W        W 1143  42.413  16.240  11.162
29418W        W 1144  33.488   5.686   3.606
29419W        W 1145  15.285  25.146  10.730
29420W        W 1146  34.708  33.189   2.894
29421W        W 1147  41.962  17.018  11.775
29422W        W 1148  44.826  44.843   4.581
29423W        W 1149  20.610  28.429  11.266
29424W        W 1150  14.055  37.067  13.428
29425W        W 1151  40.159   3.878  14.504
29426W        W 1152  30.995   0.005  10.644
29427W        W 1153  33.477   3.464  14.218
29428W        W 1154  10.675   8.199   4.071
29429W        W 1155   1.778   9.119   4.520
29430W        W 1156  41.508   7.982   0.239
29431W        W 1157  28.660  40.512  14.981
29432W        W 1158  37.797  35.961  11.221
29433W        W 1159   8.367  29.874   3.500
29434W        W 1160  31.072  44.496  13.847
29435W        W 1161  15.214  37.525  13.840
29436W        W 1162  13.937  19.966   2.325
29437W        W 1163  34.558  14.248  13.810
29438W        W 1164   5.055  14.220   5.112
29439W        W 1165  31.093  33.542   1.450
29440W        W 1166   5.355  43.289  11.131
29441W        W 1167   6.832  19.658   4.254
29442W        W 1168  34.050   7.173  12.954
29443W        W 1169  30.768  12.699  13.393
29444W        W 1170  40.866  19.861  11.219
29445W        W 1171  23.897  27.718  14.555
29446W        W 1172  33.352  35.899   0.411
29447W        W 1173  17.719  13.715  11.241
29448W        W 1174  22.249  30.661   1.308
29449W        W 1175  22.036  37.077  14.857
29450W        W 1176  43.227  27.173   2.863
29451W        W 1177  28.498  40.056  14.801
29452W        W 1178  25.334   1.533  11.555
29453W        W 1179  15.637  21.763  11.043
29454W        W 1180  33.549  23.048   4.595
29455W        W 1181  14.322   7.892   0.479
29456W        W 1182   8.165  44.426   1.735
29457W        W 1183   1.412   9.355   1.000
29458W        W 1184  26.009  42.911  11.166
29459W        W 1185  20.061  43.988  13.652
29460W        W 1186  21.583  42.377   0.880
29461W        W 1187  38.936  35.183   2.691
29462W        W 1188  33.594  15.690   1.326
29463W        W 1189  36.986   8.863   3.642
29464W        W 1190  33.788  36.237   4.911
29465W        W 1191  18.714  25.746  14.124
29466W        W 1192  39.851  31.833   0.885
29467W        W 1193  27.911  26.152   1.198
29468W        W 1194  36.037   4.872  11.603
29469W        W 1195  23.615  26.786   1.189
29470W        W 1196  39.808   0.099   4.161
29471W        W 1197  36.907  15.342  11.112
29472W        W 1198   1.361   4.793   0.327
29473W        W 1199  28.129  43.892  12.003
29474W        W 1200  20.487  11.590  14.808
29475W        W 1201  16.493  38.944   2.141
29476W        W 1202  43.397   1.784  12.216
29477W        W 1203  41.787  25.583  14.023
29478W        W 1204  36.552  41.331  14.799
29479W        W 1205  41.912   5.904  10.591
29480W        W 1206  43.343  40.137   3.746
29481W        W 1207  16.580  19.656   0.180
29482W        W 1208   8.834  44.069  12.029
29483W        W 1209  31.647  25.214  14.348
29484W        W 1210  24.550  43.973   9.663
29485W        W 1211  42.085  24.464   0.055
29486W        W 1212   6.907   4.031   3.559
29487W        W 1213  16.184  26.158  13.326
29488W        W 1214   6.017  36.176   3.805
29489W        W 1215  27.469  23.473   1.315
29490W        W 1216  23.012   4.746  10.322
29491W        W 1217  20.159  20.643   0.377
29492W        W 1218  34.298  29.064  11.514
29493W        W 1219  28.040  42.961   4.145
29494W        W 1220  34.935  23.904  13.839
29495W        W 1221  25.369  40.069   2.438
29496W        W 1222  44.496  18.243   3.368
29497W        W 1223  19.627   6.201  11.609
29498W        W 1224   9.852  42.977  11.590
29499W        W 1225  17.020   5.687  12.932
29500W        W 1226  31.077  35.632   0.674
29501W        W 1227  38.007   0.728   0.248
29502W        W 1228  31.097  41.143   1.309
29503W        W 1229  29.426   9.925   1.446
29504W        W 1230  43.945  36.622   0.413
29505W        W 1231  35.381  32.667  10.429
29506W        W 1232  41.237   5.397   4.062
29507W        W 1233  40.877   0.267  14.292
29508W        W 1234  14.361   9.702  13.372
29509W        W 1235  11.532  26.799   0.939
29510W        W 1236  43.738  39.471  12.856
29511W        W 1237  17.659  23.520  13.872
29512W        W 1238  34.134  10.627  14.053
29513W        W 1239  22.331  42.912   3.675
29514W        W 1240  39.376   9.747   2.955
29515W        W 1241   1.665  15.421  11.167
29516W        W 1242  10.322   2.741  11.442
29517W        W 1243  27.838  15.780  12.036
29518W        W 1244  39.409   4.710   3.807
29519W        W 1245  34.873  20.654  12.056
29520W        W 1246  22.298  25.465   4.989
29521W        W 1247  39.350  36.985   2.103
29522W        W 1248  13.617  23.998  14.582
29523W        W 1249  24.806  27.774  14.242
29524W        W 1250  28.718  41.370   0.757
29525W        W 1251  41.538  25.828  12.575
29526W        W 1252   8.952   0.848   5.141
29527W        W 1253  20.770  31.981  10.265
29528W        W 1254  26.510  30.628  13.516
29529W        W 1255  25.280   1.725  11.067
29530W        W 1256  40.837  42.530   4.671
29531W        W 1257   5.199   0.254  12.314
29532W        W 1258  23.440  37.911   2.817
29533W        W 1259   0.856   2.970  12.001
29534W        W 1260  30.331  36.990   3.743
29535W        W 1261  17.469  17.950   2.767
29536W        W 1262   3.750  21.055   2.921
29537W        W 1263  24.095  23.666   1.201
29538W        W 1264  34.454  42.036  11.969
29539W        W 1265  25.447  34.810   1.740
29540W        W 1266  42.597  22.911   3.296
29541W        W 1267  40.816   2.880   1.055
29542W        W 1268  14.120  41.513  14.678
29543W        W 1269   9.977  32.842  10.372
29544W        W 1270  12.641  20.485  10.720
29545W        W 1271  16.548  22.799   3.726
29546W        W 1272  39.514  26.147  11.553
29547W        W 1273   5.917  23.477  11.626
29548W        W 1274  24.622   4.488  10.574
29549W        W 1275  41.557   6.319  12.536
29550W        W 1276  27.502  44.879  14.505
29551W        W 1277   3.333  32.342   0.402
29552W        W 1278  24.969  33.452  13.089
29553W        W 1279   5.887   6.968   9.904
29554W        W 1280  38.292  25.612   4.405
29555W        W 1281  21.543  42.994   1.242
29556W        W 1282  33.683  24.495   4.875
29557W        W 1283   0.842  37.036  11.568
29558W        W 1284  33.010   5.810  11.217
29559W        W 1285  36.005  28.603   2.187
29560W        W 1286  35.731  29.895   2.539
29561W        W 1287   7.096  17.556   5.016
29562W        W 1288  29.186  39.569  12.495
29563W        W 1289  19.566  26.020  11.084
29564W        W 1290  18.495  16.600  12.064
29565W        W 1291  32.546  23.908  11.458
29566W        W 1292  32.115  13.599   2.703
29567W        W 1293  31.961  28.216   0.647
29568W        W 1294  42.066  20.759   4.110
29569W        W 1295   8.496   7.062   5.577
29570W        W 1296  22.711  35.704  14.909
29571W        W 1297  42.309   2.592   3.590
29572W        W 1298   8.071  36.554  14.207
29573W        W 1299  20.517  16.465  14.575
29574W        W 1300   6.472   3.662   4.662
29575W        W 1301  13.541   8.802  11.128
29576W        W 1302  14.219  27.022   0.225
29577W        W 1303   5.291  41.858   1.812
29578W        W 1304  35.692   9.386  11.292
29579W        W 1305  13.640  33.063   3.357
29580W        W 1306  41.623  44.203  14.457
29581W        W 1307  38.873  13.806   3.127
29582W        W 1308  18.125  34.595  14.410
29583W        W 1309  27.119  31.817   2.204
29584W        W 1310  10.795  16.056  12.900
29585W        W 1311   2.354  34.621  13.961
29586W        W 1312  38.283   3.510  13.883
29587W        W 1313  34.999   6.662   0.416
29588W        W 1314   1.319   8.968  13.767
29589W        W 1315  44.217  14.553   4.555
29590W        W 1316  37.843  30.711  12.574
29591W        W 1317  42.385  36.997   1.465
29592W        W 1318   2.536   2.273   1.231
29593W        W 1319  43.222  26.998   4.645
29594W        W 1320  23.878  37.564  12.985
29595W        W 1321  38.210  24.469  11.135
29596W        W 1322  36.973  20.720  13.457
29597W        W 1323  31.394  10.169   3.657
29598W        W 1324  42.919  21.210  14.036
29599W        W 1325  34.974   1.848   2.238
29600W        W 1326  43.264   3.822   4.549
29601W        W 1327  29.754   3.425   9.863
29602W        W 1328  10.743   1.979  10.761
29603W        W 1329  35.438  10.674   2.122
29604W        W 1330  26.942  22.074   2.238
29605W        W 1331  25.702   8.737   2.881
29606W        W 1332  28.502   3.258  12.222
29607W        W 1333  34.976  32.701   2.753
29608W        W 1334  38.662  13.773  10.169
29609W        W 1335   2.118  43.492   3.910
29610W        W 1336  30.167  25.158  10.156
29611W        W 1337  14.716   9.290  13.835
29612W        W 1338  36.987   4.491  13.793
29613W        W 1339  12.281  21.158  11.556
29614W        W 1340  23.580  22.661  14.522
29615W        W 1341  24.036  41.947  12.433
29616W        W 1342  10.862   5.148  14.860
29617W        W 1343  34.819  13.792  14.519
29618W        W 1344  40.287   4.764  12.984
29619W        W 1345   7.414   7.200  11.956
29620W        W 1346  12.156  43.547  12.430
29621W        W 1347  41.893   9.888  13.826
29622W        W 1348  11.273  19.116  14.932
29623W        W 1349  22.778  18.105  13.821
29624W        W 1350   2.890  32.091   0.294
29625W        W 1351   3.247  21.401  10.925
29626W        W 1352  44.463  39.459   2.730
29627W        W 1353  18.658  16.715  12.542
29628W        W 1354  30.559  30.497   2.050
29629W        W 1355  42.523   0.933  14.327
29630W        W 1356  17.166   0.828   1.704
29631W        W 1357   1.297  24.087  14.915
29632W        W 1358  11.216  37.931  14.488
29633W        W 1359  11.647  19.842   1.281
29634W        W 1360  19.600  28.452  13.048
29635W        W 1361  26.132  11.597   1.215
29636W        W 1362  13.753  40.261   2.425
29637W        W 1363  36.426   8.600   3.783
29638W        W 1364  12.862  28.980   4.566
29639W        W 1365  29.061  13.151   4.247
29640W        W 1366  39.507  22.999  13.509
29641W        W 1367  10.739  27.087   4.397
29642W        W 1368  44.879  22.033  14.286
29643W        W 1369  38.456  10.059  13.309
29644W        W 1370   6.884  14.895  12.969
29645W        W 1371  25.488  16.752   3.961
29646W        W 1372   5.153  23.783   3.848
29647W        W 1373  11.561   6.800  14.859
29648W        W 1374  42.787  41.012   2.752
29649W        W 1375  30.718  30.817  10.661
29650W        W 1376  35.637  19.219   2.641
29651W        W 1377  39.812  40.593   1.288
29652W        W 1378  15.872  27.927  11.157
29653W        W 1379  44.866  17.235  14.650
29654W        W 1380  34.722  26.228  13.343
29655W        W 1381   0.788  21.214   4.603
29656W        W 1382  24.474  17.169   2.791
29657W        W 1383  22.290  10.832   3.236
29658W        W 1384  32.259  10.240   0.296
29659W        W 1385  28.856  40.418   1.409
29660W        W 1386  40.806   4.298   1.692
29661W        W 1387   1.422  21.568  14.240
29662W        W 1388  29.872   0.199  13.514
29663W        W 1389  10.078  28.445   3.386
29664W        W 1390  38.805  17.183   2.126
29665W        W 1391   3.909  14.629  14.309
29666W        W 1392  18.943  24.132   0.415
29667W        W 1393  14.131  35.404  13.880
29668W        W 1394  27.505   2.577  12.587
29669W        W 1395  25.033  23.174  12.404
29670W        W 1396  33.081  10.482   2.613
29671W        W 1397  25.360  10.821  12.608
29672W        W 1398  33.558  14.057  13.177
29673W        W 1399  12.261  12.089   1.651
29674W        W 1400  26.439  25.502  14.940
29675W        W 1401   4.448  22.177  11.929
29676W        W 1402  27.750  15.866   5.205
29677W        W 1403  38.232  41.994  10.603
29678W        W 1404   6.141  15.192  14.329
29679W        W 1405  41.215   0.014   2.684
29680W        W 1406  16.061  27.423   1.281
29681W        W 1407  36.541  23.980   2.311
29682W        W 1408  39.210   4.211   2.423
29683W        W 1409  13.641  28.120   0.615
29684W        W 1410  31.405  40.495  12.931
29685W        W 1411  11.655  22.808  12.682
29686W        W 1412  27.570  11.517   2.118
29687W        W 1413  18.501  24.722   2.775
29688W        W 1414   6.446  19.186   0.424
29689W        W 1415   6.579  29.516  14.529
29690W        W 1416  18.962  44.218  13.550
29691W        W 1417  16.995  11.448   4.936
29692W        W 1418  41.385  21.389  14.010
29693W        W 1419  34.909   7.754  10.792
29694W        W 1420  19.175  38.371   4.315
29695W        W 1421  22.637  12.587  14.437
29696W        W 1422  12.357   2.225   2.375
29697W        W 1423  18.203  41.212  14.797
29698W        W 1424  31.493  40.532  10.522
29699W        W 1425  38.023   9.386   3.152
29700W        W 1426  20.112  21.216   5.029
29701W        W 1427  14.783  31.888  11.748
29702W        W 1428  42.092  42.444   0.894
29703W        W 1429   0.988  10.334   3.284
29704W        W 1430  10.491  10.899  11.890
29705W        W 1431  22.108   5.126  11.151
29706W        W 1432  32.316  41.914  12.812
29707W        W 1433  25.344   1.269   5.004
29708W        W 1434  15.247  28.163   2.883
29709W        W 1435  37.013   3.170   3.220
29710W        W 1436  20.697   8.487  10.643
29711W        W 1437  21.173  32.896  14.877
29712W        W 1438  26.154  37.983  11.032
29713W        W 1439  27.850  13.296  10.244
29714W        W 1440  27.592  26.048  14.398
29715W        W 1441  30.872   1.329   2.831
29716W        W 1442  31.595  44.479   4.610
29717W        W 1443   2.839  19.262   1.920
29718W        W 1444  17.869  21.585   0.751
29719W        W 1445  42.023  28.481  13.391
29720W        W 1446  39.491  16.554   1.851
29721W        W 1447  24.913  12.851   1.689
29722W        W 1448   3.353  14.390  12.598
29723W        W 1449  17.339  33.413   1.470
29724W        W 1450   6.753   5.905   2.817
29725W        W 1451  42.009  42.403   2.841
29726W        W 1452  28.038  33.118   2.398
29727W        W 1453  27.063   8.912  12.011
29728W        W 1454  33.828  31.922   2.275
29729W        W 1455  35.483  30.898  12.467
29730W        W 1456  13.293   4.924   4.243
29731W        W 1457  14.878  38.274  12.046
29732W        W 1458   0.950  22.295  11.220
29733W        W 1459  21.812   8.887   1.159
29734W        W 1460   0.916  25.734   2.752
29735W        W 1461   3.650   5.726   4.668
29736W        W 1462  16.307  11.320   2.347
29737W        W 1463   3.713   3.301  10.564
29738W        W 1464  10.351  41.233   3.601
29739W        W 1465  37.656   7.670  11.717
29740W        W 1466  28.560   2.762   2.596
29741W        W 1467  24.479  14.873   0.533
29742W        W 1468  16.763  21.894   0.435
29743W        W 1469  16.989  19.242  11.678
29744W        W 1470  13.298  31.148   1.776
29745W        W 1471  28.895   3.832  11.596
29746W        W 1472  39.403  14.753   2.881
29747W        W 1473  26.708  15.301  11.146
29748W        W 1474  43.532  13.409   1.784
29749W        W 1475   9.120  10.567   3.089
29750W        W 1476  23.426  12.976  11.447
29751W        W 1477   4.684   7.781   4.009
29752W        W 1478  24.672  33.277   1.404
29753W        W 1479  18.355  36.873  12.092
29754W        W 1480  32.668  21.968   1.040
29755W        W 1481  31.613   9.912   4.252
29756W        W 1482  39.379  26.648  13.002
29757W        W 1483  43.284  43.809  11.916
29758W        W 1484  13.084  22.611   0.867
29759W        W 1485  25.028  13.844   2.654
29760W        W 1486   8.830   6.377   2.990
29761W        W 1487  43.879   2.173  14.774
29762W        W 1488  33.699  42.625  12.103
29763W        W 1489  29.144   1.526   0.757
29764W        W 1490  21.482  26.174   1.779
29765W        W 1491   5.870  37.847  11.468
29766W        W 1492  15.844   7.195   1.264
29767W        W 1493   3.035   5.183  11.258
29768W        W 1494   2.346   6.604  13.324
29769W        W 1495  19.177  13.277   4.597
29770W        W 1496  11.155   5.364   1.710
29771W        W 1497   9.235  30.927  14.809
29772W        W 1498  10.236  14.502  11.212
29773W        W 1499  11.899  25.250  14.752
29774W        W 1500  40.084  12.527  11.863
29775W        W 1501  34.053  14.339   2.216
29776W        W 1502  43.967  43.694   4.349
29777W        W 1503  10.672   4.776   2.970
29778W        W 1504  22.234   3.425  13.164
29779W        W 1505  25.355   4.173   0.809
29780W        W 1506  14.299  10.272  14.058
29781W        W 1507   5.509  40.168   2.124
29782W        W 1508   3.394  44.166  14.435
29783W        W 1509  13.064  29.570  14.970
29784W        W 1510  27.427  42.039  12.522
29785W        W 1511  40.958  36.431   2.268
29786W        W 1512  13.734  29.027  12.516
29787W        W 1513   2.542   5.233  12.057
29788W        W 1514  25.529  40.434   0.668
29789W        W 1515  18.911  15.058   2.243
29790W        W 1516  25.154   5.792   4.765
29791W        W 1517  44.318  27.201  11.299
29792W        W 1518  12.738  27.975   0.449
29793W        W 1519   5.411  38.994   1.218
29794W        W 1520  18.063  36.310  10.481
29795W        W 1521  27.556  33.692   0.602
29796W        W 1522  36.339  24.085  10.326
29797W        W 1523  11.919  20.974   0.814
29798W        W 1524  27.547  21.196   2.261
29799W        W 1525  31.052  22.648   2.300
29800W        W 1526  39.338  44.931   0.001
29801W        W 1527  36.954  12.226   2.410
29802W        W 1528  30.027  30.113  13.663
29803W        W 1529  21.673  28.906  13.351
29804W        W 1530  23.274  20.476   2.564
29805W        W 1531  25.525  43.777  10.668
29806W        W 1532  13.850  15.196  14.603
29807W        W 1533   4.631  17.137  10.709
29808W        W 1534  27.991  32.963  14.484
29809W        W 1535  34.854  23.041   4.077
29810W        W 1536   2.720  35.527  11.971
29811W        W 1537  23.701  35.330   1.223
29812W        W 1538  19.554  30.030   1.354
29813W        W 1539  30.418   6.183  13.523
29814W        W 1540  14.977   7.554   3.639
29815W        W 1541  25.841  32.184  14.559
29816W        W 1542  38.771  37.013  13.192
29817W        W 1543  24.781  36.543  12.811
29818W        W 1544  24.192  29.220   3.900
29819W        W 1545  43.067  10.478  14.539
29820W        W 1546  30.126  23.835   1.400
29821W        W 1547  32.411  32.617   4.256
29822W        W 1548  37.979   7.696   4.845
29823W        W 1549  40.674  40.790   1.648
29824W        W 1550  13.207  33.723   3.801
29825W        W 1551  24.995  37.954  11.722
29826W        W 1552  42.674   2.595   4.992
29827W        W 1553  31.477  40.274   3.791
29828W        W 1554  43.549  39.622  13.920
29829W        W 1555  17.506  11.211  12.237
29830W        W 1556  11.655  20.944   4.664
29831W        W 1557  44.198  15.377  13.423
29832W        W 1558  12.837  44.453   1.704
29833W        W 1559  24.602  17.744   3.616
29834W        W 1560   0.780   7.165   3.586
29835W        W 1561  43.454  44.607  14.791
29836W        W 1562  15.727  35.810   0.006
29837W        W 1563  13.044   8.127   2.793
29838W        W 1564  10.771  36.424  14.177
29839W        W 1565  13.904  28.574   0.526
29840W        W 1566  33.817   9.255  14.014
29841W        W 1567  19.286  37.097   3.154
29842W        W 1568   7.360  27.471   1.720
29843W        W 1569   5.971  15.369  10.986
29844W        W 1570   5.206  35.538  12.911
29845W        W 1571  33.075  20.228   3.786
29846W        W 1572   6.771  29.877   3.305
29847W        W 1573  11.611  31.692   4.782
29848W        W 1574   5.401  38.207   0.858
29849W        W 1575  29.771  19.922   0.916
29850W        W 1576  12.677  40.024  13.067
29851W        W 1577  22.904   5.714  13.368
29852W        W 1578  16.784   9.786  14.688
29853W        W 1579   2.485  23.522  10.596
29854W        W 1580  42.797  28.558  12.450
29855W        W 1581   6.151  32.548   3.708
29856W        W 1582  22.015  16.588   3.364
29857W        W 1583  40.888   6.391  13.222
29858W        W 1584  41.601   0.215  12.630
29859W        W 1585  42.463  22.868   4.867
29860W        W 1586  27.117  34.692  13.559
29861W        W 1587  15.523  40.445   0.889
29862W        W 1588   6.382  24.577   1.455
29863W        W 1589  36.131   5.927  11.079
29864W        W 1590  16.047  20.912   4.612
29865W        W 1591  33.122  16.154   4.422
29866W        W 1592  39.072  23.589   3.610
29867W        W 1593  16.228  16.412   3.176
29868W        W 1594  36.783  24.098  14.715
29869W        W 1595  22.182  43.840  11.186
29870W        W 1596  12.128  38.051  11.748
29871W        W 1597  25.467   3.844   2.851
29872W        W 1598  16.848   9.756   2.804
29873W        W 1599  39.031  35.986   0.846
29874W        W 1600   1.911  18.333   3.555
29875W        W 1601  34.083   0.654  11.121
29876W        W 1602  19.205   4.676  13.469
29877W        W 1603  26.412  43.329   3.186
29878W        W 1604  13.851  27.843   3.047
29879W        W 1605  39.360   2.300  14.315
29880W        W 1606  18.294  35.324  13.766
29881W        W 1607  36.030  16.546  14.366
29882W        W 1608   4.395  13.929   1.382
29883W        W 1609  30.821  42.345   2.863
29884W        W 1610  23.474  15.825  12.393
29885W        W 1611  40.663  43.970  11.521
29886W        W 1612  14.722  25.100  12.513
29887W        W 1613  12.307  20.086  13.854
29888W        W 1614  29.275   1.556  11.188
29889W        W 1615   4.748  27.655   4.590
29890W        W 1616   1.568   4.915   4.398
29891W        W 1617  14.905  35.054   3.726
29892W        W 1618   4.606  41.455  12.469
29893W        W 1619  33.912   6.363  12.546
29894W        W 1620   3.016  28.104   5.146
29895W        W 1621  31.069  29.530  10.352
29896W        W 1622   8.789  13.169  11.508
29897W        W 1623  39.572  14.541  10.999
29898W        W 1624  20.175  19.514   2.839
29899W        W 1625   0.562  18.053  11.887
29900W        W 1626  39.087  43.549   4.161
29901W        W 1627   6.679  29.956  11.868
29902W        W 1628  43.790  12.713  11.635
29903W        W 1629  36.181  42.539   0.990
29904W        W 1630  42.394  38.127  14.350
29905W        W 1631  23.269   1.678  12.365
29906W        W 1632  38.904   7.641  12.034
29907W        W 1633   0.027   5.822  11.461
29908W        W 1634  37.084  17.179   2.635
29909W        W 1635  43.417  31.185  14.403
29910W        W 1636  11.312   4.885   1.187
29911W        W 1637  26.431  31.420  11.440
29912W        W 1638  12.469   1.773  11.594
29913W        W 1639  17.170  31.912  12.154
29914W        W 1640  34.775   6.503   3.722
29915W        W 1641  37.324  34.462   4.636
29916W        W 1642  32.363  19.295  11.957
29917W        W 1643   9.905   0.723   2.765
29918W        W 1644  38.845  36.206   4.200
29919W        W 1645  27.228   1.554   4.279
29920W        W 1646  19.084  23.775  12.687
29921W        W 1647  31.134  25.095   0.563
29922W        W 1648  42.473  44.389  12.128
29923W        W 1649  28.272  22.517  12.432
29924W        W 1650  26.693  29.111  10.991
29925W        W 1651  20.780  21.179   3.222
29926W        W 1652   4.777  42.541   4.652
29927W        W 1653   0.904  32.352  10.528
29928W        W 1654  20.103  35.027  13.815
29929W        W 1655   2.226  20.731  12.181
29930W        W 1656  16.589  16.958  13.741
29931W        W 1657  38.919  34.585  11.619
29932W        W 1658   0.937  29.450   3.731
29933W        W 1659  42.050   8.976   5.117
29934W        W 1660  18.845   8.271   2.160
29935W        W 1661   7.761   0.537   0.777
29936W        W 1662  19.219  36.451   0.967
29937W        W 1663  38.085  11.649  13.584
29938W        W 1664  43.169  22.901  13.818
29939W        W 1665  13.358   6.593  14.049
29940W        W 1666  24.223  18.644   5.015
29941W        W 1667   0.714  28.665   0.482
29942W        W 1668  43.199  42.978  14.181
29943W        W 1669  22.571  17.352  14.497
29944W        W 1670  16.802  31.561  14.893
29945W        W 1671   7.957  30.381  11.563
29946W        W 1672  41.559   6.211  11.468
29947W        W 1673  40.986  27.843  14.848
29948W        W 1674  10.858   7.692  11.426
29949W        W 1675  34.477  11.336   1.038
29950W        W 1676  23.502  42.695  13.904
29951W        W 1677  39.908  35.728   4.876
29952W        W 1678  11.326  17.425  11.253
29953W        W 1679  28.007  30.467   1.854
29954W        W 1680  33.941   9.330   0.369
29955W        W 1681  40.602  12.377  14.810
29956W        W 1682  26.000  17.246  12.423
29957W        W 1683  17.242   8.947  10.767
29958W        W 1684  44.811  40.187   0.309
29959W        W 1685  15.107  17.296  11.621
29960W        W 1686  35.394  39.714  14.879
29961W        W 1687  39.793  11.618   3.360
29962W        W 1688  26.735  42.755  11.626
29963W        W 1689  10.630  13.745  12.895
29964W        W 1690  44.727  40.529  14.939
29965W        W 1691  24.337  33.393  12.479
29966W        W 1692   4.324  14.286   2.521
29967W        W 1693   4.969  44.357  11.186
29968W        W 1694  22.578  30.923   1.025
29969W        W 1695  15.708  18.184   4.357
29970W        W 1696  39.002   2.921  11.840
29971W        W 1697  10.790  10.155   1.498
29972W        W 1698  37.561  16.977   2.624
29973W        W 1699  28.185  25.060   4.537
29974W        W 1700  44.865  42.819   5.126
29975W        W 1701  12.402  15.512  10.729
29976W        W 1702  35.073  36.477  13.623
29977W        W 1703   4.993  24.800   0.726
29978W        W 1704  42.841  14.123   3.808
29979W        W 1705  19.298  31.547  11.067
29980W        W 1706  12.340  36.643   0.292
29981W        W 1707  40.722  39.959  13.408
29982W        W 1708  37.834  17.162  13.093
29983W        W 1709  44.879  20.510  14.634
29984W        W 1710  21.197   0.813  13.972
29985W        W 1711  38.509   9.342   2.298
29986W        W 1712   8.332  34.270  12.186
29987W        W 1713  15.804  11.059   4.156
29988W        W 1714  20.221  27.418   4.317
29989W        W 1715  31.075  11.793   4.546
29990W        W 1716   3.915   3.654  10.900
29991W        W 1717  34.326  41.267  12.446
29992W        W 1718  32.468  13.384  13.483
29993W        W 1719   1.367   0.769  14.350
29994W        W 1720   8.131  21.109   0.702
29995W        W 1721   1.467   3.034  13.989
29996W        W 1722  25.282  19.757   0.916
29997W        W 1723  18.107  41.845   2.795
29998W        W 1724  29.969  12.823   0.177
29999W        W 1725  31.614   7.251   0.487
30000W        W 1726  17.710  12.463   2.202
30001W        W 1727  11.940  15.341  11.274
30002W        W 1728  26.979   9.693  12.563
30003W        W 1729  23.605  36.066  12.837
30004W        W 1730  38.562  10.358  14.980
30005W        W 1731  38.413  24.595  10.688
30006W        W 1732  22.625  10.633   4.669
30007W        W 1733   1.760  39.647   3.280
30008W        W 1734  30.211   5.798   3.889
30009W        W 1735  25.644  40.795  14.809
30010W        W 1736  10.221  25.437   4.805
30011W        W 1737   4.770  26.533   3.167
30012W        W 1738  17.686  39.936   5.501
30013W        W 1739  33.851  30.898   3.100
30014W        W 1740  24.124  14.075  14.614
30015W        W 1741  31.870  29.022   3.828
30016W        W 1742  16.627  32.204   1.706
30017W        W 1743   0.028  11.213   1.415
30018W        W 1744  34.924  37.561   0.257
30019W        W 1745  43.087   0.441  13.019
30020W        W 1746  33.920  33.439   3.753
30021W        W 1747  42.559  22.348  11.057
30022W        W 1748  34.374   2.641   4.200
30023W        W 1749  31.426  10.945   4.614
30024W        W 1750   4.498  37.259   4.644
30025W        W 1751  32.506   7.844  12.131
30026W        W 1752  20.695   2.156  12.666
30027W        W 1753  36.354   6.942  14.715
30028W        W 1754   0.226   2.478   2.193
30029W        W 1755  23.580  18.180   0.241
30030W        W 1756  10.568  35.891   0.318
30031W        W 1757  22.625  39.347   4.272
30032W        W 1758   5.201  15.560  11.074
30033W        W 1759  43.767  10.967   4.343
30034W        W 1760  35.056  43.420  13.592
30035W        W 1761  26.389  15.849  11.241
30036W        W 1762  25.992   2.481   0.308
30037W        W 1763  10.115  11.769  12.961
30038W        W 1764  18.833  18.059   4.157
30039W        W 1765  32.345   4.198   3.682
30040W        W 1766  32.509  37.986   4.243
30041W        W 1767  28.507  14.820  10.440
30042W        W 1768  26.910  27.434   3.502
30043W        W 1769  17.318   1.651  10.725
30044W        W 1770   9.416  18.059  12.732
30045W        W 1771  36.820  17.136  12.893
30046W        W 1772  42.239  25.073   4.688
30047W        W 1773  19.688  17.146   4.142
30048W        W 1774  15.075  43.418  14.381
30049W        W 1775  20.288  34.652   2.361
30050W        W 1776   3.917  20.043  10.377
30051W        W 1777  38.459  33.508  14.503
30052W        W 1778  34.891  42.776   1.330
30053W        W 1779  41.382  15.677  13.363
30054W        W 1780  37.183   7.662   3.612
30055W        W 1781  19.105   0.502   2.239
30056W        W 1782  13.906  41.430   0.456
30057W        W 1783  27.020  40.326  14.055
30058W        W 1784  23.143   5.650  10.698
30059W        W 1785  26.526  33.228   0.975
30060W        W 1786  14.275  33.076   1.785
30061W        W 1787  15.607   5.852   0.014
30062W        W 1788   1.296  27.472  14.405
30063W        W 1789  20.509  31.426  12.929
30064W        W 1790   2.691  41.762  12.529
30065W        W 1791  19.852  14.248   3.475
30066W        W 1792  41.042  41.506   4.665
30067W        W 1793  44.801   9.774  14.253
30068W        W 1794  37.055  35.952   4.612
30069W        W 1795  42.203  13.384  11.170
30070W        W 1796  12.897  41.479   3.331
30071W        W 1797  26.141  29.403  12.596
30072W        W 1798  12.201   1.470  13.937
30073W        W 1799   1.953  34.143  12.050
30074W        W 1800  29.484   3.620   3.861
30075W        W 1801  32.984  36.507  11.611
30076W        W 1802  44.982   1.408  10.669
30077W        W 1803  42.843  44.015   1.869
30078W        W 1804  42.793   4.650  12.095
30079W        W 1805  17.088   1.878   2.758
30080W        W 1806   4.181  41.306  12.152
30081W        W 1807  22.625  33.965  12.546
30082W        W 1808   7.968  41.751  12.603
30083W        W 1809   2.496   8.149   4.578
30084W        W 1810   7.781  22.923   5.264
30085W        W 1811  15.698   1.237  13.969
30086W        W 1812  34.505  33.950  13.826
30087W        W 1813   5.846  23.189  12.039
30088W        W 1814  11.262  31.428   1.492
30089W        W 1815  10.306   3.683  10.398
30090W        W 1816  28.148  25.108  12.587
30091W        W 1817   0.324  13.687   4.534
30092W        W 1818  41.344  28.582   2.475
30093W        W 1819   4.395  39.386  14.876
30094W        W 1820   6.451  42.847  12.008
30095W        W 1821   4.637  10.851  13.506
30096W        W 1822  18.629   2.965  14.880
30097W        W 1823   3.950  28.891  12.144
30098W        W 1824  24.902  11.124  14.942
30099W        W 1825   0.307  18.108   0.846
30100W        W 1826  11.309  39.590   4.568
30101W        W 1827  24.173  30.327   2.833
30102W        W 1828  10.543  44.307   4.591
30103W        W 1829   7.884  22.080  13.477
30104W        W 1830  18.287  33.549  10.599
30105W        W 1831   6.793  13.559   1.912
30106W        W 1832  10.114  23.982  12.461
30107W        W 1833  23.926  23.519   2.197
30108W        W 1834  17.687   8.144  13.616
30109W        W 1835  24.158   5.866  10.866
30110W        W 1836  32.462  37.643  10.719
30111W        W 1837  35.483  21.004   4.155
30112W        W 1838  28.192  38.730   0.289
30113W        W 1839  14.481  34.099  12.879
30114W        W 1840  16.601   2.734  14.097
30115W        W 1841  44.622  18.722  13.585
30116W        W 1842  33.550  12.609   5.024
30117W        W 1843  31.226  27.685  12.727
30118W        W 1844   1.887   6.258   0.424
30119W        W 1845   5.294  15.144  12.009
30120W        W 1846  24.638  22.697  13.027
30121W        W 1847  31.883  27.012   5.199
30122W        W 1848   4.813  33.635  10.713
30123W        W 1849   7.633  19.446   2.254
30124W        W 1850  35.035  31.901   3.096
30125W        W 1851  31.162   6.778  13.443
30126W        W 1852  35.179  15.088  13.768
30127W        W 1853  41.320  20.556   0.507
30128W        W 1854   4.397   5.986  14.910
30129W        W 1855  17.155   0.895   2.822
30130W        W 1856   0.658  19.470   0.248
30131W        W 1857  10.387  28.826  13.447
30132W        W 1858   3.793  42.243   1.254
30133W        W 1859  26.686  41.878   3.298
30134W        W 1860  17.699   9.681  12.518
30135W        W 1861  32.667  14.993   4.005
30136W        W 1862  14.531  27.703   1.286
30137W        W 1863  40.453  17.994   0.415
30138W        W 1864  10.625  25.658  10.633
30139W        W 1865  16.227  28.635  11.384
30140W        W 1866   4.812  21.243   1.844
30141W        W 1867  32.490  39.620  11.129
30142W        W 1868   9.213   3.825  14.720
30143W        W 1869   1.014  13.651  12.161
30144W        W 1870  33.689  19.035  13.903
30145W        W 1871  14.041  25.083   1.721
30146W        W 1872  14.604  21.660   2.177
30147W        W 1873  15.976   8.323   0.451
30148W        W 1874  14.602   4.164   0.182
30149W        W 1875   3.221  19.963   1.425
30150W        W 1876  42.071  15.708   0.569
30151W        W 1877   5.703  36.432  13.902
30152W        W 1878  41.318   3.526   1.828
30153W        W 1879   9.312   9.147  14.803
30154W        W 1880  33.456   5.723   1.263
30155W        W 1881  34.502  40.858  12.790
30156W        W 1882  22.174  42.864   2.189
30157W        W 1883  25.847   7.718   4.332
30158W        W 1884  11.683   3.074   4.207
30159W        W 1885  21.616  41.025  12.642
30160W        W 1886  18.270  23.161   3.134
30161W        W 1887  40.329  24.174   1.886
30162W        W 1888  32.426   8.989  13.614
30163W        W 1889  24.777   2.729  13.201
30164W        W 1890   7.889   8.447   4.721
30165W        W 1891  14.684  26.653  11.444
30166W        W 1892  28.899  14.544   1.616
30167W        W 1893   9.086  30.521   2.240
30168W        W 1894   7.129   1.428  12.015
30169W        W 1895  44.351   6.999  11.641
30170W        W 1896  43.142  31.997   3.491
30171W        W 1897   8.358  41.228  13.824
30172W        W 1898  12.795  16.648   3.141
30173W        W 1899   4.236  30.904   4.697
30174W        W 1900  26.621  12.860   2.383
30175W        W 1901  27.652  33.055   1.617
30176W        W 1902  34.054  17.850   2.024
30177W        W 1903  21.583  10.327  14.129
30178W        W 1904  42.576  33.924  12.347
30179W        W 1905  16.157  16.918   3.151
30180W        W 1906  34.169  40.841   1.482
30181W        W 1907  19.118  22.568   3.403
30182W        W 1908  19.713  13.783  14.351
30183W        W 1909  16.696  28.568   4.684
30184W        W 1910   9.977   4.010   1.718
30185W        W 1911   4.382  44.274  13.857
30186W        W 1912  28.411  31.099   0.329
30187W        W 1913  28.537  25.560  14.996
30188W        W 1914  12.133   7.639  14.286
30189W        W 1915  32.073  23.574   0.478
30190W        W 1916   6.000  17.509  11.601
30191W        W 1917  38.734  13.205   0.010
30192W        W 1918  35.649  28.095   3.733
30193W        W 1919  12.729  30.054  10.690
30194W        W 1920  12.374  26.053   1.222
30195W        W 1921   2.799   7.219   1.926
30196W        W 1922  34.297  10.882  11.041
30197W        W 1923   2.585   1.683   0.534
30198W        W 1924  29.431  35.943   3.535
30199W        W 1925   6.214  20.805   0.058
30200W        W 1926  10.205   6.659   0.328
30201W        W 1927   9.783  14.652  11.019
30202W        W 1928  22.432  11.821   2.338
30203W        W 1929  41.389  23.525   3.232
30204W        W 1930  11.559  27.502   4.208
30205W        W 1931  31.243  11.968  12.922
30206W        W 1932  38.860  28.539  14.019
30207W        W 1933  18.049  40.850   4.819
30208W        W 1934   0.896   3.674   3.158
30209W        W 1935  22.657   5.514   0.905
30210W        W 1936  35.155  16.162  14.716
30211W        W 1937  43.460   0.829  11.845
30212W        W 1938   1.238  13.255  13.922
30213W        W 1939  40.244  37.661   4.115
30214W        W 1940  44.196   0.975   0.369
30215W        W 1941  18.732  24.167   4.577
30216W        W 1942  14.690  28.502  13.586
30217W        W 1943  39.531   2.903  13.563
30218W        W 1944  13.330  44.860   4.651
30219W        W 1945   3.948   6.045  10.701
30220W        W 1946  25.279   2.971  10.934
30221W        W 1947  10.612  13.566  14.511
30222W        W 1948  23.742  16.647   2.637
30223W        W 1949  20.642  35.120  12.079
30224W        W 1950  18.316  38.561   4.309
30225W        W 1951  19.082   1.461  11.250
30226W        W 1952  34.544   6.115  12.010
30227W        W 1953  13.107  42.713  14.874
30228W        W 1954  21.030   7.388   4.435
30229W        W 1955  32.445  17.601   3.380
30230W        W 1956   0.699  35.022  14.665
30231W        W 1957   6.852  27.340   1.530
30232W        W 1958  16.056  24.054   3.163
30233W        W 1959  41.086  35.030   0.852
30234W        W 1960  38.001  40.343  11.403
30235W        W 1961  41.551  24.359  12.536
30236W        W 1962  11.297  29.099   1.758
30237W        W 1963  16.055  42.982   2.246
30238W        W 1964  30.568  30.190  13.097
30239W        W 1965  27.763  21.255  13.647
30240W        W 1966  26.020  28.384   4.196
30241W        W 1967  30.207   1.464  13.807
30242W        W 1968  21.915  24.456  14.270
30243W        W 1969  30.175   0.865  14.660
30244W        W 1970  31.591  32.768   3.724
30245W        W 1971  33.496   9.378  10.865
30246W        W 1972  37.950  32.841  10.586
30247W        W 1973  29.903  17.013   4.029
30248W        W 1974  20.061  20.747  11.679
30249W        W 1975  41.898  39.811   3.161
30250W        W 1976  23.665  23.788   0.891
30251W        W 1977  25.116  28.615  14.329
30252W        W 1978  28.125  15.270  14.586
30253W        W 1979  35.918  33.360   0.260
30254W        W 1980  28.837  12.154  14.773
30255W        W 1981   1.030  33.189  14.723
30256W        W 1982  32.482  15.467   0.819
30257W        W 1983   7.605  29.047   4.686
30258W        W 1984  21.612  40.575  14.472
30259W        W 1985  18.429  14.223  14.425
30260W        W 1986  37.967  36.135   2.313
30261W        W 1987  34.895  34.227  12.068
30262W        W 1988  40.086   1.442  13.300
30263W        W 1989  18.737  22.202  14.249
30264W        W 1990   0.510  38.442  13.648
30265W        W 1991  33.392   2.342  10.698
30266W        W 1992  10.654  28.872  11.101
30267W        W 1993  22.151  28.469  12.780
30268W        W 1994  39.676   4.618  12.521
30269W        W 1995  10.007  43.801  14.424
30270W        W 1996  23.004  42.315   4.442
30271W        W 1997  32.435  10.755   3.135
30272W        W 1998  43.326   0.324  13.493
30273W        W 1999   6.807  39.728   1.796
30274W        W 2000  32.407  37.597   4.946
30275W        W 2001  33.202  41.353   4.102
30276W        W 2002  17.033   8.168   1.962
30277W        W 2003  37.979   2.341  11.068
30278W        W 2004  36.120   6.395   4.367
30279W        W 2005  10.549   1.931   2.294
30280W        W 2006  19.484  15.239   1.330
30281W        W 2007  20.885  41.414  13.706
30282W        W 2008  41.750  18.877  12.950
30283W        W 2009  19.019  32.371   2.317
30284W        W 2010  33.773  39.882   0.838
30285W        W 2011   7.214  18.186  11.593
30286W        W 2012   6.743   6.295  10.864
30287W        W 2013   2.357  10.165  10.639
30288W        W 2014   7.704  13.578  14.020
30289W        W 2015  19.690   8.315  14.239
30290W        W 2016  41.418  37.200   3.627
30291W        W 2017  30.495   1.083   4.659
30292W        W 2018   4.442  33.803   1.308
30293W        W 2019  35.168  12.394   4.221
30294W        W 2020  33.881  30.504  11.595
30295W        W 2021  13.554  21.150   3.567
30296W        W 2022  36.611  25.574  11.675
30297W        W 2023  29.776  15.693   0.756
30298W        W 2024   2.778  13.196   1.783
30299W        W 2025  23.017  39.676  13.660
30300W        W 2026   7.352   5.491  13.030
30301W        W 2027  42.191   2.196   3.227
30302W        W 2028  29.701  17.118   4.517
30303W        W 2029  21.057  21.227   0.733
30304W        W 2030  38.634  19.167  11.668
30305W        W 2031  21.147  36.595  11.240
30306W        W 2032  34.428   6.372  12.611
30307W        W 2033   2.322  13.712   4.829
30308W        W 2034  33.809  37.062  10.705
30309W        W 2035  31.244  15.674  10.689
30310W        W 2036  43.324  11.272  14.482
30311W        W 2037   2.978   9.567  11.898
30312W        W 2038  28.593  39.467   1.458
30313W        W 2039  26.396  36.864  11.900
30314W        W 2040  13.662  28.988  11.616
30315W        W 2041  11.812   1.825  14.528
30316W        W 2042  13.006  14.262  12.182
30317W        W 2043  44.269  18.477   4.189
30318W        W 2044   9.870  34.455   3.678
30319W        W 2045  44.940  34.008   0.441
30320W        W 2046  35.348  25.928  12.141
30321W        W 2047  20.340  20.632   1.832
30322W        W 2048  19.650  40.262   3.644
30323W        W 2049   6.474  42.496   2.888
30324W        W 2050  16.209  19.976   4.194
30325W        W 2051  32.520   8.127  14.824
30326W        W 2052   6.794  30.579  14.788
30327W        W 2053  44.034   1.411   1.289
30328W        W 2054  25.196   3.113   0.866
30329W        W 2055  31.544  42.485   1.185
30330W        W 2056  12.797  35.014   0.777
30331W        W 2057  32.961  14.358  10.978
30332W        W 2058  35.994  16.330  13.885
30333W        W 2059  32.101  19.464  10.820
30334W        W 2060   5.269  40.907   4.240
30335W        W 2061  10.328  19.007  10.670
30336W        W 2062  28.576  13.722  12.119
30337W        W 2063   6.275  10.649  12.006
30338W        W 2064   6.878   4.095  11.132
30339W        W 2065   9.407  19.369  12.400
30340W        W 2066  10.254  42.829  11.905
30341W        W 2067  25.845  32.132  12.162
30342W        W 2068  14.055  14.345   3.161
30343W        W 2069  21.648   1.554  12.861
30344W        W 2070  21.219  41.377   5.115
30345W        W 2071  38.840  41.909   3.457
30346W        W 2072  17.079  18.006   1.756
30347W        W 2073  31.479   3.585   0.303
30348W        W 2074  30.406  30.914   2.888
30349W        W 2075  41.260  20.191  12.917
30350W        W 2076  11.162  39.476  12.409
30351W        W 2077  19.105  12.706  13.388
30352W        W 2078   3.058  14.169   9.867
30353W        W 2079  24.188  14.760  11.561
30354W        W 2080  12.190  33.152   4.068
30355W        W 2081  11.677  23.693   3.157
30356W        W 2082  44.205  24.077  13.901
30357W        W 2083   7.907  31.940  13.536
30358W        W 2084  30.119  39.457   1.793
30359W        W 2085  12.097  18.673   0.260
30360W        W 2086  42.584  10.173  14.627
30361W        W 2087  25.160  27.551  10.881
30362W        W 2088  16.370  27.191  14.397
30363W        W 2089  43.331  12.852  13.512
30364W        W 2090  13.800  18.481  11.477
30365W        W 2091  25.123   5.553   0.891
30366W        W 2092   2.846  42.031   0.869
30367W        W 2093  27.117  20.777  11.964
30368W        W 2094  19.292  42.407  12.619
30369W        W 2095  18.115   8.303  14.026
30370W        W 2096  26.268  25.310  14.481
30371W        W 2097  28.434  40.415  11.064
30372W        W 2098  43.751  41.513  14.393
30373W        W 2099  37.845  21.563  13.798
30374W        W 2100   9.161  44.981   1.344
30375W        W 2101  19.046   2.814  13.505
30376W        W 2102  38.995  27.552  14.003
30377W        W 2103  28.183  17.297   5.027
30378W        W 2104  10.306  44.504   2.116
30379W        W 2105  42.546  23.657   4.906
30380W        W 2106  16.759  16.172  13.723
30381W        W 2107  15.851  36.446  13.320
30382W        W 2108  21.713  10.332   1.395
30383W        W 2109   6.145  12.653  14.243
30384W        W 2110  31.083  37.639  11.923
30385W        W 2111  34.705  18.423  12.563
30386W        W 2112  26.636  44.536  10.382
30387W        W 2113   4.150  39.406  13.436
30388W        W 2114  31.227  25.317   5.152
30389W        W 2115   3.466  17.586   1.922
30390W        W 2116  19.492  10.617   0.267
30391W        W 2117  25.890  26.066  13.711
30392W        W 2118   4.726   8.877   2.310
30393W        W 2119  27.937   0.872   1.557
30394W        W 2120  15.626   2.737  14.914
30395W        W 2121  27.893  35.782  12.413
30396W        W 2122  11.864  16.875  13.919
30397W        W 2123  37.988  22.972   2.273
30398W        W 2124   5.399  31.224  12.537
30399W        W 2125   7.094  42.945   1.312
30400W        W 2126  25.151  40.273   1.229
30401W        W 2127  24.554  34.484   0.786
30402W        W 2128  20.735  35.744  13.416
30403W        W 2129  38.857   7.417  13.506
30404W        W 2130  18.398  10.408  11.960
30405W        W 2131  43.417  16.228   1.450
30406W        W 2132  32.455  14.464  11.068
30407W        W 2133  21.210  32.641  10.332
30408W        W 2134  22.910  44.861  13.818
30409W        W 2135  18.303  41.329  11.645
30410W        W 2136  14.977  30.229  14.310
30411W        W 2137  28.952  20.646   3.724
30412W        W 2138  32.264  39.784  12.037
30413W        W 2139  14.615  21.040   1.307
30414W        W 2140  42.998  13.372   1.796
30415W        W 2141   9.821  13.944   4.190
30416W        W 2142  30.554  24.367   0.953
30417W        W 2143  40.757  13.732  12.588
30418W        W 2144  36.640  19.705   3.696
30419W        W 2145   2.855  35.185  13.533
30420W        W 2146  13.755  18.746  12.932
30421W        W 2147   2.418  37.545  12.509
30422W        W 2148  25.068  30.096  12.028
30423W        W 2149  27.881  39.894   0.357
30424W        W 2150   3.259  17.021  12.031
30425W        W 2151  39.802  13.741   1.079
30426W        W 2152   4.174  21.974   2.726
30427W        W 2153  37.042  31.134   2.265
30428W        W 2154  25.732  27.987   4.379
30429W        W 2155  33.973  18.684  12.415
30430W        W 2156   3.777   5.035   4.940
30431W        W 2157  14.605  10.225  11.994
30432W        W 2158  30.215  10.955  12.942
30433W        W 2159  18.227  40.573  13.095
30434W        W 2160  10.702  31.938  12.039
30435W        W 2161  17.293   2.978  11.683
30436W        W 2162  29.024  17.528   4.178
30437W        W 2163  31.292  14.266  10.238
30438W        W 2164   8.893  41.564  14.584
30439W        W 2165  30.977  24.768   1.735
30440W        W 2166   4.721  38.004   1.749
30441W        W 2167  31.876  34.641   0.769
30442W        W 2168  12.292   2.695   2.150
30443W        W 2169  29.400  15.398  11.108
30444W        W 2170  42.930   5.758   3.037
30445W        W 2171  11.164  43.406   2.838
30446W        W 2172   5.619  27.732   3.341
30447W        W 2173   0.462  19.649  14.794
30448W        W 2174  33.012  35.474   0.181
30449W        W 2175  30.125  20.565  11.940
30450W        W 2176   3.353  12.919  13.978
30451W        W 2177  19.183  17.288   2.402
30452W        W 2178   7.019   1.776  13.608
30453W        W 2179  33.356  44.864  14.470
30454W        W 2180  23.508  27.433  14.355
30455W        W 2181  31.922  13.861   3.124
30456W        W 2182  18.296   2.885  12.000
30457W        W 2183  36.346  14.317   1.712
30458W        W 2184  38.153  30.113   4.060
30459W        W 2185  12.829  27.266  11.606
30460W        W 2186  22.470   0.246  11.647
30461W        W 2187  28.044   0.963  12.061
30462W        W 2188  40.866   9.861  13.850
30463W        W 2189  23.698  35.758   4.125
30464W        W 2190  12.630  38.619  13.815
30465W        W 2191   4.439  34.122  12.151
30466W        W 2192  40.572  43.390   3.027
30467W        W 2193  36.756  24.142   3.617
30468W        W 2194  25.950  24.517   3.849
30469W        W 2195  27.336  29.266   1.957
30470W        W 2196  32.957  37.301   4.148
30471W        W 2197   9.281  18.289  11.253
30472W        W 2198  26.963  28.122  14.844
30473W        W 2199  15.433  28.594  12.600
30474W        W 2200  16.101  11.854  13.465
30475W        W 2201  27.631  18.658   4.280
30476W        W 2202  40.825  23.006  13.332
30477W        W 2203  15.620  35.967   4.605
30478W        W 2204  35.708  38.847  11.132
30479W        W 2205   7.887  10.245  13.370
30480W        W 2206  31.412  21.278   3.280
30481W        W 2207  27.061   7.442  13.266
30482W        W 2208  29.679  39.639   3.848
30483W        W 2209  34.469   5.891   0.738
30484W        W 2210  17.474  30.897   2.879
30485W        W 2211  24.829  19.552  12.198
30486W        W 2212  15.808  42.021  14.786
30487W        W 2213  12.458  34.906  13.773
30488W        W 2214   6.976  19.799  14.868
30489W        W 2215  31.523  34.487  11.992
30490W        W 2216  17.801  29.520  10.990
30491W        W 2217  37.376  20.072  12.541
30492W        W 2218  29.908  38.313  11.913
30493W        W 2219  35.947  29.954  13.748
30494W        W 2220   5.457  31.848  13.359
30495W        W 2221  39.484   9.727   4.453
30496W        W 2222   1.787  15.207   1.621
30497W        W 2223  20.143  44.927  13.326
30498W        W 2224  38.514  27.622   2.113
30499W        W 2225  22.499   5.346  11.675
30500W        W 2226   2.181  38.587  14.861
30501W        W 2227  30.332   2.878  12.923
30502W        W 2228  28.698  20.797   3.288
30503W        W 2229   9.567  21.193   2.922
30504W        W 2230  22.967  17.738  14.544
30505W        W 2231  26.974  22.764  14.061
30506W        W 2232  36.863  30.917   0.015
30507W        W 2233  12.270   0.041  13.089
30508W        W 2234  42.827  39.245   4.558
30509W        W 2235  10.725  18.813  11.723
30510W        W 2236   7.406  32.570  14.849
30511W        W 2237  29.181  20.212   0.412
30512W        W 2238   6.761  11.581   0.720
30513W        W 2239   7.668  12.055   4.293
30514W        W 2240   5.732  40.793   2.757
30515W        W 2241   7.629   0.608   1.755
30516W        W 2242  40.017  31.029   1.335
30517W        W 2243  10.773  34.172  13.707
30518W        W 2244  34.390   3.948  11.130
30519W        W 2245   9.159  29.882   4.541
30520W        W 2246  32.825  19.658   1.955
30521W        W 2247   4.150  22.199  13.896
30522W        W 2248  11.906  19.750   2.621
30523W        W 2249  43.857  38.088  11.554
30524W        W 2250  41.375  44.221  14.923
30525W        W 2251   5.694  13.585   3.936
30526W        W 2252  16.302   9.749   1.498
30527W        W 2253  31.112  43.997  12.843
30528W        W 2254  41.868   1.313  11.945
30529W        W 2255  26.697   7.148  11.882
30530W        W 2256  10.039  28.616  14.125
30531W        W 2257   5.225  19.353   1.276
30532W        W 2258   6.375  10.218  10.711
30533W        W 2259   5.344  24.261   1.328
30534W        W 2260  27.922   7.823   1.427
30535W        W 2261  29.893  11.862   3.279
30536W        W 2262   0.013   9.313   0.401
30537W        W 2263   9.073  31.503  13.864
30538W        W 2264  24.050  44.411   0.911
30539W        W 2265   3.455   3.924   3.653
30540W        W 2266   0.922  38.562  12.947
30541W        W 2267   9.101   5.398  13.473
30542W        W 2268  24.029  37.501  10.799
30543W        W 2269  39.072  20.167  13.969
30544W        W 2270  16.598  13.120  14.224
30545W        W 2271   2.971   6.039  14.403
30546W        W 2272  19.348  34.376   1.171
30547W        W 2273  31.657  29.336  14.686
30548W        W 2274  15.582  32.903   1.425
30549W        W 2275  13.693  19.511   0.370
30550W        W 2276   6.190  28.968  12.652
30551W        W 2277  25.607  33.169   1.242
30552W        W 2278  18.350  12.136   3.400
30553W        W 2279   3.281  30.970   2.799
30554W        W 2280  26.574   0.811  11.912
30555W        W 2281  30.410  20.008  11.098
30556W        W 2282  34.547  27.075  10.590
30557W        W 2283  28.037  14.602   1.024
30558W        W 2284   8.639  25.662  10.760
30559W        W 2285  20.133  36.933   2.807
30560W        W 2286  29.865   5.503  14.308
30561W        W 2287   9.833  13.847   2.786
30562W        W 2288  38.954  23.451   1.268
30563W        W 2289  24.211  19.664   1.120
30564W        W 2290  30.506  41.208  14.424
30565W        W 2291   0.239  13.286   2.828
30566W        W 2292  42.011  19.688  13.159
30567W        W 2293  10.162  35.463   3.612
30568W        W 2294  23.144  40.921   0.783
30569W        W 2295  22.696  14.780  10.368
30570W        W 2296  35.945  33.452   3.999
30571W        W 2297  40.898  43.234  11.667
30572W        W 2298  27.204   7.277   3.255
30573W        W 2299  31.444   7.636  11.504
30574W        W 2300  28.145  40.920   4.591
30575W        W 2301  25.589  17.875   0.988
30576W        W 2302   1.054  22.452  14.411
30577W        W 2303  18.950   1.918  11.385
30578W        W 2304  30.535   3.920  10.651
30579W        W 2305  34.851  36.022  10.850
30580W        W 2306  26.278  14.088   3.731
30581W        W 2307  17.752  40.053   1.869
30582W        W 2308  21.221   8.318  10.671
30583W        W 2309  18.831  43.452  11.404
30584W        W 2310  33.305  35.185  10.681
30585W        W 2311  11.691  17.483  13.366
30586W        W 2312  17.967  15.227   3.665
30587W        W 2313  12.264  14.315   1.648
30588W        W 2314  23.999  11.277  12.939
30589W        W 2315   7.658   8.538   4.262
30590W        W 2316  13.688  23.256   4.445
30591W        W 2317  39.898  20.771  13.813
30592W        W 2318  25.522  38.458   4.079
30593W        W 2319  14.458  36.165   4.218
30594W        W 2320  15.233  31.943  14.249
30595W        W 2321  15.679  13.736   3.092
30596W        W 2322   2.954  22.616   1.254
30597W        W 2323  26.267   7.148   0.386
30598W        W 2324  20.785  14.969  12.868
30599W        W 2325  32.397  21.589   4.686
30600W        W 2326  37.991   6.850   0.436
30601W        W 2327   9.360  23.530   4.456
30602W        W 2328  29.747  29.846  13.332
30603W        W 2329  26.700  23.753   1.932
30604W        W 2330  27.427  40.528  13.847
30605W        W 2331  37.780  21.682   4.501
30606W        W 2332   3.429  19.736  11.001
30607W        W 2333   6.212   1.958   3.750
30608W        W 2334  39.929  38.931  10.443
30609W        W 2335  25.138  40.818   4.429
30610W        W 2336  26.056  22.792   0.395
30611W        W 2337  20.790   0.803   0.566
30612W        W 2338  21.279  29.513   2.307
30613W        W 2339  37.511   8.104  11.477
30614W        W 2340   1.223  10.118  10.766
30615W        W 2341   8.510  26.710   3.817
30616W        W 2342  18.321  37.317  12.403
30617W        W 2343  32.350  42.426   1.778
30618W        W 2344  10.963  26.579   3.644
30619W        W 2345  15.699  16.417   0.855
30620W        W 2346  43.478  23.089  12.550
30621W        W 2347   1.251  34.873  10.665
30622W        W 2348  44.834   9.155  13.041
30623W        W 2349  22.628   7.077   2.112
30624W        W 2350   3.473   2.436  14.989
30625W        W 2351  35.936  20.077  11.507
30626W        W 2352  18.228  32.088   1.866
30627W        W 2353  41.126  23.056   3.300
30628W        W 2354  38.869   0.271   1.251
30629W        W 2355  40.049   9.159  13.368
30630W        W 2356  29.763  12.745   2.381
30631W        W 2357  37.539   6.680   0.240
30632W        W 2358  31.607  22.733   2.366
30633W        W 2359   7.382  14.321   1.776
30634W        W 2360   8.745  10.281  14.220
30635W        W 2361   3.376  16.206   0.325
30636W        W 2362  29.871  21.686  12.731
30637W        W 2363   6.870  22.195  12.028
30638W        W 2364  35.086  40.393  14.870
30639W        W 2365  17.904  30.858   4.998
30640W        W 2366   1.680  42.748   0.639
30641W        W 2367  10.812  10.411  12.109
30642W        W 2368  21.004  29.379  13.797
30643W        W 2369  15.564  25.632   2.358
30644W        W 2370  29.610  43.806   0.353
30645W        W 2371  15.998  31.560   4.168
30646W        W 2372  40.154  38.516  13.796
30647W        W 2373  32.656   1.948   3.723
30648W        W 2374  22.326  37.553   3.324
30649W        W 2375  20.194  14.678  14.393
30650W        W 2376  15.892  44.028   0.877
30651W        W 2377  32.850  29.592  11.082
30652W        W 2378  19.748   3.308   2.473
30653W        W 2379  34.392  25.010  11.887
30654W        W 2380  16.542  15.082  12.116
30655W        W 2381  35.171   7.764   1.390
30656W        W 2382  11.122   3.114  13.352
30657W        W 2383   1.374  35.696   4.615
30658W        W 2384  13.812  14.194  11.680
30659W        W 2385  28.675  44.923  13.758
30660W        W 2386  27.980  38.594   0.732
30661W        W 2387  18.423  23.378   0.489
30662W        W 2388  33.128   2.281  13.433
30663W        W 2389   2.246  21.130   3.170
30664W        W 2390  15.218   2.518  14.005
30665W        W 2391   7.146  27.555   3.278
30666W        W 2392  40.074  17.748   1.881
30667W        W 2393  36.636  32.987  10.386
30668W        W 2394  40.047  12.586   3.266
30669W        W 2395  13.065  36.865   3.441
30670W        W 2396  11.282  31.937  12.621
30671W        W 2397  39.963  27.169   1.522
30672W        W 2398  36.369   8.738   1.742
30673W        W 2399  35.573   0.176  13.483
30674W        W 2400  25.285  39.815   4.861
30675W        W 2401  24.503  28.874   1.363
30676W        W 2402   2.793  41.016   3.304
30677W        W 2403  40.242  13.665  12.637
30678W        W 2404  26.706  11.629   3.789
30679W        W 2405  15.483  12.184  11.640
30680W        W 2406  29.640  19.258  13.334
30681W        W 2407  36.629  28.935  14.893
30682W        W 2408  29.960  16.294   4.014
30683W        W 2409   5.549  15.583  11.914
30684W        W 2410  16.612   2.523  12.112
30685W        W 2411  39.117  11.541  11.140
30686W        W 2412  20.572  44.033   4.864
30687W        W 2413   0.380  33.736  12.816
30688W        W 2414  30.478   6.496  13.950
30689W        W 2415  25.751  38.519  12.915
30690W        W 2416  28.408   0.340   2.715
30691W        W 2417   0.311  30.914  12.892
30692W        W 2418  29.003   6.673   2.932
30693W        W 2419  13.507  42.693   4.296
30694W        W 2420   1.400  23.688   4.566
30695W        W 2421  29.061  16.318   4.561
30696W        W 2422  42.936  33.923  14.534
30697W        W 2423  21.167  19.205  10.644
30698W        W 2424   9.388  32.956  13.449
30699W        W 2425  39.878  20.831  13.291
30700W        W 2426  38.609  23.468   1.782
30701W        W 2427  38.176  10.900   0.386
30702W        W 2428   6.878  17.165   3.203
30703W        W 2429   2.551  28.696  11.134
30704W        W 2430   0.986  34.555  14.590
30705W        W 2431  27.029   0.167   3.750
30706W        W 2432  10.411  17.533  14.002
30707W        W 2433  36.050  38.374   3.127
30708W        W 2434  21.117  21.945   4.653
30709W        W 2435  29.634  21.750   3.080
30710W        W 2436   4.183  18.206   0.394
30711W        W 2437  35.499  37.107   2.787
30712W        W 2438  36.628  28.581  14.429
30713W        W 2439  40.560  42.019   0.195
30714W        W 2440  31.329  22.275  13.267
30715W        W 2441  42.820  40.910   3.255
30716W        W 2442  25.484  22.768   3.643
30717W        W 2443   2.833  42.830  14.531
30718W        W 2444  26.107  27.196  14.751
30719W        W 2445  15.992   3.531   2.073
30720W        W 2446  10.527  19.875   1.746
30721W        W 2447  33.943   3.453  12.473
30722W        W 2448  13.335  27.417  12.468
30723W        W 2449   8.112  25.682  14.010
30724W        W 2450  43.327  19.646   1.899
30725W        W 2451  29.197  35.462   0.810
30726W        W 2452  41.294  42.429  14.064
30727W        W 2453   9.128  14.073  13.622
30728W        W 2454  29.098  31.446   0.498
30729W        W 2455  11.039  21.665  14.499
30730W        W 2456  22.229  27.058  11.644
30731W        W 2457  11.820  10.483  12.043
30732W        W 2458   5.165  34.907   1.604
30733W        W 2459   2.963  32.852  12.090
30734W        W 2460  24.585  20.697   1.846
30735W        W 2461  38.356  35.338  13.064
30736W        W 2462  34.058  14.339  13.971
30737W        W 2463   9.835   8.177  11.573
30738W        W 2464  10.531  15.761  11.260
30739W        W 2465  21.679   5.403  11.434
30740W        W 2466  14.221   9.980   0.527
30741W        W 2467  25.560   1.738   2.702
30742W        W 2468  18.238  44.527   0.291
30743W        W 2469  27.615  26.313  12.622
30744W        W 2470  15.230  38.578   3.386
30745W        W 2471  18.696  38.842   2.735
30746W        W 2472  41.014   9.366   1.380
30747W        W 2473   1.948   1.411  12.334
30748W        W 2474  43.506  30.227  10.971
30749W        W 2475   9.856  10.458   2.788
30750W        W 2476  22.173  30.948  14.996
30751W        W 2477   1.570  19.721  11.025
30752W        W 2478  14.328  41.588  11.145
30753W        W 2479  37.161   8.697   4.481
30754W        W 2480  40.414   1.661   3.709
30755W        W 2481  40.593  31.828  14.804
30756W        W 2482  26.428  35.929  13.811
30757W        W 2483  10.280  22.967  14.898
30758W        W 2484   4.370  34.955   1.625
30759W        W 2485  33.358  33.950   1.385
30760W        W 2486   9.918  38.436   0.290
30761W        W 2487   6.266  13.234   4.128
30762W        W 2488  33.448   6.252  10.551
30763W        W 2489  28.661  38.366  10.774
30764W        W 2490  12.210  17.913   1.982
30765W        W 2491  33.356   0.951  13.842
30766W        W 2492  13.531   4.548   0.336
30767W        W 2493   4.930   3.705   4.455
30768W        W 2494  39.935  41.569   1.143
30769W        W 2495  40.039   8.687   1.332
30770W        W 2496  32.841  42.712   3.135
30771W        W 2497  28.032  40.287   3.328
30772W        W 2498  44.404  22.933   5.016
30773W        W 2499  32.497  44.497  12.620
30774W        W 2500  34.843   6.308   0.942
30775W        W 2501  38.431  30.749  10.461
30776W        W 2502  11.095  20.573  11.477
30777W        W 2503  30.878  17.729  13.327
30778W        W 2504  43.015  43.943  14.070
30779W        W 2505  39.027  41.000  11.104
30780W        W 2506  27.133  35.293  11.401
30781W        W 2507  21.601  35.519   4.843
30782W        W 2508  33.374  43.848   2.663
30783W        W 2509   7.647  33.850  14.327
30784W        W 2510  35.251  34.565   4.880
30785W        W 2511  40.018   7.825   1.451
30786W        W 2512   4.392  27.954   1.817
30787W        W 2513  22.296  18.187   3.820
30788W        W 2514  39.052  44.816   4.460
30789W        W 2515   9.196  34.868  12.096
30790W        W 2516  43.991  43.940   2.698
30791W        W 2517  14.790  17.525   3.136
30792W        W 2518   3.546  40.025   4.414
30793W        W 2519  10.839  30.456   4.219
30794W        W 2520   1.819  41.364   4.688
30795W        W 2521  23.929  32.537  10.731
30796W        W 2522  35.478  15.331  14.526
30797W        W 2523   4.303  32.332  14.820
30798W        W 2524  22.566  21.257  14.459
30799W        W 2525  37.097  21.177   0.489
30800W        W 2526  22.612  35.382   1.230
30801W        W 2527   6.493   8.583   1.943
30802W        W 2528  20.550  13.010   0.315
30803W        W 2529  11.881  27.611   4.585
30804W        W 2530  42.732  42.879  13.961
30805W        W 2531  37.839  24.158   2.770
30806W        W 2532  41.993  19.592   1.693
30807W        W 2533  41.833  17.168   1.299
30808W        W 2534  12.037  41.867   0.801
30809W        W 2535  29.656   8.352  13.875
30810W        W 2536  29.012  24.594   5.295
30811W        W 2537  21.299  11.794  13.274
30812W        W 2538  24.772  29.058   1.771
30813W        W 2539  40.232  20.238  11.824
30814W        W 2540  18.184  19.232  13.901
30815W        W 2541  20.111   8.411   2.760
30816W        W 2542  37.413  32.368   0.174
30817W        W 2543  17.323   0.353   4.457
30818W        W 2544  41.451  32.611   4.631
30819W        W 2545  36.646  10.551  12.100
30820W        W 2546   6.279   0.676  14.870
30821W        W 2547   1.253  43.865   1.897
30822W        W 2548  22.471  42.005  14.070
30823W        W 2549  28.005  24.510   1.927
30824W        W 2550  11.615   5.536   0.439
30825W        W 2551   6.362  22.519   2.726
30826W        W 2552  35.524  21.027  11.572
30827W        W 2553   6.954  27.077  11.644
30828W        W 2554  12.069  33.694  10.073
30829W        W 2555   2.340  22.815   4.702
30830W        W 2556   0.946  15.046   1.733
30831W        W 2557  11.944  22.864   0.163
30832W        W 2558  43.984  36.827   3.424
30833W        W 2559  15.238  30.854  12.392
30834W        W 2560   8.767  19.038   4.636
30835W        W 2561  14.924   1.463  13.439
30836W        W 2562  25.152  34.639  13.495
30837W        W 2563  40.315  27.366   2.333
30838W        W 2564  39.811   3.832  13.005
30839W        W 2565  37.987  22.574   0.491
30840W        W 2566  19.710  37.445   0.515
30841W        W 2567  22.158  31.596   4.941
30842W        W 2568  13.960  22.288  11.924
30843W        W 2569   2.518  12.634  11.537
30844W        W 2570  40.083  32.563   2.201
30845W        W 2571  39.447  41.522  11.548
30846W        W 2572  21.227  29.183   3.112
30847W        W 2573   0.325  31.674  11.962
30848W        W 2574  25.275   2.791  13.360
30849W        W 2575  31.083  14.371  11.078
30850W        W 2576  34.235   8.962   4.714
30851W        W 2577  39.353   9.903  13.410
30852W        W 2578  44.007  17.736  12.144
30853W        W 2579  13.640   0.821  13.450
30854W        W 2580  27.571  12.636   1.416
30855W        W 2581   6.792   6.274  11.480
30856W        W 2582  17.591  27.084   1.754
30857W        W 2583   0.591  11.270   0.446
30858W        W 2584  25.251  26.842  14.147
30859W        W 2585  19.135   7.274   2.102
30860W        W 2586   6.147  38.976   4.730
30861W        W 2587  37.380  39.245  11.409
30862W        W 2588   8.280  10.315  10.305
30863W        W 2589   9.256   3.647   2.413
30864W        W 2590   8.794  31.831  11.146
30865W        W 2591  20.145   9.409   0.279
30866W        W 2592  27.736  23.246   1.706
30867W        W 2593   7.222  35.063  12.556
30868W        W 2594   6.385  30.357  11.182
30869W        W 2595  16.779  23.169   1.801
30870W        W 2596  23.620  40.631  10.657
30871W        W 2597   6.399  13.286  10.772
30872W        W 2598  40.069   0.404  13.213
30873W        W 2599  14.906  36.956   4.751
30874W        W 2600  12.584  41.802  14.021
30875W        W 2601   2.625  28.492   1.737
30876W        W 2602  14.541  17.898  11.718
30877W        W 2603   2.423  35.057  12.070
30878W        W 2604  10.108  40.378   1.699
30879W        W 2605   6.511  29.517  10.704
30880W        W 2606  41.610  27.276  11.164
30881W        W 2607  44.055  23.045  12.599
30882W        W 2608   1.472  14.251  14.702
30883W        W 2609  22.119  11.352  12.614
30884W        W 2610  11.855  38.583  11.126
30885W        W 2611   1.908   3.359  11.485
30886W        W 2612  38.970  34.826  14.548
30887W        W 2613   6.089  35.943  13.779
30888W        W 2614  44.990  26.235   2.855
30889W        W 2615   4.876   8.642   4.718
30890W        W 2616  44.775  30.233   1.906
30891W        W 2617  18.776  31.749  12.643
30892W        W 2618   7.501  43.816  12.081
30893W        W 2619  11.354  17.717  12.974
30894W        W 2620  40.432  19.815   4.166
30895W        W 2621  19.428  14.191  14.533
30896W        W 2622  40.534   1.939  13.447
30897W        W 2623  21.370  25.793   1.015
30898W        W 2624   0.814   2.027  13.436
30899W        W 2625  31.380  20.013  12.933
30900W        W 2626   5.970  41.019  13.887
30901W        W 2627  11.083   7.224  12.633
30902W        W 2628   6.383  18.818  12.826
30903W        W 2629  23.536  44.959  10.297
30904W        W 2630  36.550  44.474  13.467
30905W        W 2631  11.055   8.104  14.378
30906W        W 2632  24.157  11.665   1.469
30907W        W 2633  42.419   6.285  14.928
30908W        W 2634  30.764  33.162  13.036
30909W        W 2635  12.275  28.992  14.524
30910W        W 2636  14.124  12.672  13.268
30911W        W 2637  21.316   4.381   3.815
30912W        W 2638   8.657   5.863   2.333
30913W        W 2639  41.224  40.093   1.753
30914W        W 2640  17.975  35.381  12.247
30915W        W 2641   4.029   9.904  11.135
30916W        W 2642  16.704  10.012  12.424
30917W        W 2643  11.399  19.598   1.755
30918W        W 2644  26.696  25.325  12.441
30919W        W 2645  14.104  32.874   3.577
30920W        W 2646  44.593  31.803  13.487
30921W        W 2647  35.579  32.367  12.436
30922W        W 2648  30.458  39.385   1.325
30923W        W 2649   9.605  34.923   3.783
30924W        W 2650  15.413   6.032  13.455
30925W        W 2651   8.269  37.029   3.587
30926W        W 2652   6.451  19.740  13.647
30927W        W 2653  13.926   8.905   2.347
30928W        W 2654  32.738  30.615  14.579
30929W        W 2655  20.228  21.170  10.722
30930W        W 2656  43.750  17.565   3.469
30931W        W 2657   6.559  39.254  11.092
30932W        W 2658   1.508  35.042  13.561
30933W        W 2659   3.950   9.016   0.813
30934W        W 2660  16.727  13.613  13.996
30935W        W 2661  37.521  30.356  12.826
30936W        W 2662  18.156  11.951   2.948
30937W        W 2663  35.855  43.500   5.049
30938W        W 2664  27.095   1.452   1.355
30939W        W 2665  36.906  35.879   2.355
30940W        W 2666  38.399  27.915   4.102
30941W        W 2667  34.447  33.056   3.317
30942W        W 2668  13.142  36.316   0.169
30943W        W 2669  28.135  44.618   1.552
30944W        W 2670  30.139   1.276  14.329
30945W        W 2671  28.557  43.023   4.117
30946W        W 2672  18.328  36.923  14.482
30947W        W 2673  28.209  26.562  10.505
30948W        W 2674  21.317   3.153   4.408
30949W        W 2675  41.352   8.098  13.824
30950W        W 2676  24.134  43.912  12.831
30951W        W 2677   8.904  16.508  13.816
30952W        W 2678  22.652  27.576  12.815
30953W        W 2679  33.109   2.823  10.711
30954W        W 2680   5.709  41.529   2.283
30955W        W 2681  26.026  31.185  12.528
30956W        W 2682   0.691   7.869  10.993
30957W        W 2683  22.758  13.277  13.904
30958W        W 2684  44.496  32.061   9.954
30959W        W 2685  40.826  44.014  12.905
30960W        W 2686   9.132  35.055  13.611
30961W        W 2687  34.965  28.598  12.941
30962W        W 2688   7.390   2.264  14.993
30963W        W 2689   0.705  26.690   2.845
30964W        W 2690  21.117   7.709   4.840
30965W        W 2691  36.932  12.746   1.172
30966W        W 2692  17.515  16.649  14.032
30967W        W 2693   0.197  43.362   2.718
30968W        W 2694   5.894  13.301  11.961
30969W        W 2695  22.659  38.456   3.706
30970W        W 2696  27.513   1.213  11.478
30971W        W 2697  29.151  13.049  13.849
30972W        W 2698  38.446  13.968  12.405
30973W        W 2699  32.953   3.661  13.555
30974W        W 2700   1.846  36.037   4.030
30975W        W 2701  42.269  44.537  10.807
30976W        W 2702  13.440  12.337   3.173
30977W        W 2703  25.763  24.859  13.555
30978W        W 2704  20.820  34.017   0.904
30979W        W 2705  39.323  27.126  12.842
30980W        W 2706  37.000  19.213  11.873
30981W        W 2707  19.685  19.971  14.320
30982W        W 2708  39.545   3.488  11.004
30983W        W 2709  15.824   0.138   4.604
30984W        W 2710  11.638  10.812  14.933
30985W        W 2711   8.489  43.430   2.811
30986W        W 2712  39.977  28.103   3.172
30987W        W 2713  43.189  15.648   2.665
30988W        W 2714  12.731  24.473  12.986
30989W        W 2715  26.726  44.153   2.291
30990W        W 2716  11.564   4.827  11.064
30991W        W 2717  14.771   1.636  11.173
30992W        W 2718   7.270  44.267  14.308
30993W        W 2719  44.487  37.723   4.983
30994W        W 2720  31.098  37.959  12.331
30995W        W 2721  43.318  36.108   0.963
30996W        W 2722   4.484  11.862   4.584
30997W        W 2723  14.915   2.956   0.450
30998W        W 2724   9.550  29.129   1.899
30999W        W 2725  42.090  21.195  14.602
31000W        W 2726  27.215  30.207   0.454
31001W        W 2727  12.297  20.772  12.069
31002W        W 2728  37.616   5.469  13.832
31003W        W 2729  44.927  40.808  14.543
31004W        W 2730   7.765   8.149  14.462
31005W        W 2731  17.124  28.159  11.905
31006W        W 2732  27.588  20.802   3.850
31007W        W 2733  10.833  19.840  14.855
31008W        W 2734  14.033   6.240   4.615
31009W        W 2735   0.742  34.582   3.270
31010W        W 2736   9.251  36.839  13.101
31011W        W 2737  39.766  34.567   0.990
31012W        W 2738  34.679  12.566   4.231
31013W        W 2739   9.381  33.958  11.654
31014W        W 2740  20.752  31.470  10.875
31015W        W 2741  16.070   9.327  11.802
31016W        W 2742   2.477  11.848  13.385
31017W        W 2743  24.776  11.409  13.958
31018W        W 2744   4.976  36.534   4.111
31019W        W 2745  39.678   3.349  11.475
31020W        W 2746  39.771  35.505   0.875
31021W        W 2747  37.813  14.862   1.869
31022W        W 2748   0.895  17.700   0.489
31023W        W 2749  22.756  34.330  11.614
31024W        W 2750  17.592  29.928   1.840
31025W        W 2751  31.442   6.879   3.124
31026W        W 2752  15.747  28.452  11.186
31027W        W 2753  16.409  44.662   1.741
31028W        W 2754  31.472  20.695  11.674
31029W        W 2755  43.251   6.401   2.307
31030W        W 2756   8.107  11.611  10.608
31031W        W 2757  15.230  39.488   3.900
31032W        W 2758  43.918   8.202  12.049
31033W        W 2759  43.886  31.609  14.305
31034W        W 2760  17.169  34.568   0.659
31035W        W 2761  12.285  40.056  14.953
31036W        W 2762   1.394  19.325  10.532
31037W        W 2763   8.788  43.109  14.089
31038W        W 2764  42.766  30.506   2.994
31039W        W 2765   0.983  43.483  11.136
31040W        W 2766  28.315  14.269  10.023
31041W        W 2767  11.959  12.449   4.542
31042W        W 2768  32.689  36.486   2.830
31043W        W 2769  33.915  39.528   4.710
31044W        W 2770  27.540  11.587  13.405
31045W        W 2771  29.256  36.943  10.418
31046W        W 2772  34.464   1.938  14.335
31047W        W 2773  44.873  40.336   2.615
31048W        W 2774  40.349  11.262   0.686
31049W        W 2775  20.835  12.029   0.523
31050W        W 2776  42.216  11.731  10.526
31051W        W 2777  30.386   7.235  14.458
31052W        W 2778   4.951  22.255  12.918
31053W        W 2779  35.235  28.442   3.015
31054W        W 2780  14.091  19.097   3.004
31055W        W 2781  35.156   6.384   1.427
31056W        W 2782   5.686  39.198   4.874
31057W        W 2783  16.752  28.073  14.938
31058W        W 2784  22.008   4.369   2.769
31059W        W 2785  40.795  32.828  12.923
31060W        W 2786  16.043  10.866   3.276
31061W        W 2787  22.682  25.517   0.544
31062W        W 2788   7.430  37.179  11.454
31063W        W 2789  34.324  13.860  10.679
31064W        W 2790  34.639  37.591   2.942
31065W        W 2791   5.576  29.700  14.869
31066W        W 2792   5.392  32.751  14.308
31067W        W 2793  23.095  26.022   2.684
31068W        W 2794   9.707  27.095   1.863
31069W        W 2795   8.130  32.779   2.118
31070W        W 2796  28.895   2.337  13.728
31071W        W 2797  25.937   4.987   2.902
31072W        W 2798   1.112  34.059  12.332
31073W        W 2799   8.258   1.055   0.302
31074W        W 2800   9.566  41.981   4.702
31075W        W 2801  41.263  32.826  12.029
31076W        W 2802   8.844   1.857   1.223
31077W        W 2803  36.547   6.728   2.742
31078W        W 2804  32.607  30.037  13.355
31079W        W 2805  16.088  32.913   1.192
31080W        W 2806  35.502   9.379   4.474
31081W        W 2807   5.440  19.115  11.525
31082W        W 2808  34.001   8.084   0.833
31083W        W 2809  29.216   1.929   2.130
31084W        W 2810  10.376  33.092  11.700
31085W        W 2811  26.485  29.161   2.356
31086W        W 2812  28.449  34.990   2.161
31087W        W 2813  19.315  36.038  14.237
31088W        W 2814  13.903  20.125   3.198
31089W        W 2815  27.587  39.539  12.324
31090W        W 2816  12.709  17.077   2.835
31091W        W 2817   7.321  16.614  11.621
31092W        W 2818  17.176  30.009  10.395
31093W        W 2819  12.785  21.635   2.829
31094W        W 2820  39.375  44.292   1.803
31095W        W 2821  38.525  27.037   1.768
31096W        W 2822   8.248  28.722   4.851
31097W        W 2823  43.374  22.574   3.909
31098W        W 2824  41.786   0.746   4.631
31099W        W 2825   9.283  32.649   2.753
31100W        W 2826  29.659  41.936  11.871
31101W        W 2827  37.561  35.954  10.757
31102W        W 2828  34.958  41.259  11.107
31103W        W 2829  24.140  28.676   3.801
31104W        W 2830  11.886  42.846   0.430
31105W        W 2831   2.766  41.506  11.605
31106W        W 2832  21.833  28.127   1.669
31107W        W 2833  24.473  25.974   4.560
31108W        W 2834  26.103  37.496   0.221
31109W        W 2835   5.136  18.683  10.401
31110W        W 2836  33.762  44.050  10.492
31111W        W 2837   3.971  16.095  14.467
31112W        W 2838  44.304  20.092  13.941
31113W        W 2839   5.644  20.519   3.830
31114W        W 2840  36.558  32.475  13.507
31115W        W 2841  34.640  39.294  10.588
31116W        W 2842  10.314   6.562  14.440
31117W        W 2843  43.546   0.813  12.336
31118W        W 2844   1.737  26.002  13.992
31119W        W 2845  29.896  19.711   2.013
31120W        W 2846  35.764  38.371  13.900
31121W        W 2847  39.248  32.985  13.798
31122W        W 2848  18.697  11.381   2.331
31123W        W 2849  26.661  29.055   1.443
31124W        W 2850  19.140   3.020  10.695
31125W        W 2851  37.307  22.588   4.166
31126W        W 2852   2.228  36.165  12.517
31127W        W 2853  40.054  12.077  12.103
31128W        W 2854  11.308  25.551   1.263
31129W        W 2855   6.654  38.033  12.388
31130W        W 2856  24.191  26.106   1.756
31131W        W 2857   7.452  12.675   2.885
31132W        W 2858  38.319   7.095  11.843
31133W        W 2859  35.997  24.475   3.559
31134W        W 2860  11.815  40.504   1.357
31135W        W 2861   6.547  34.133   3.750
31136W        W 2862   5.387  31.177   2.316
31137W        W 2863  33.526  16.686  14.475
31138W        W 2864  39.898  23.240  13.709
31139W        W 2865  31.079  19.571   3.010
31140W        W 2866  40.072   0.549  12.123
31141W        W 2867  14.540  11.900   2.632
31142W        W 2868  19.712   9.627  14.938
31143W        W 2869   7.370  29.506  11.334
31144W        W 2870  32.950  26.905   3.684
31145W        W 2871   6.887   5.124   3.228
31146W        W 2872  23.747  20.774  13.969
31147W        W 2873  31.465  31.596   0.534
31148W        W 2874  27.306   6.420  14.953
31149W        W 2875  24.212  27.971  12.960
31150W        W 2876  34.221  43.843  10.602
31151W        W 2877  38.424  25.643  13.769
31152W        W 2878  16.298  14.384  11.428
31153W        W 2879  20.406   1.650  14.976
31154W        W 2880  38.426  27.940  13.214
31155W        W 2881  18.285  13.608  12.109
31156W        W 2882   0.235  36.952   2.091
31157W        W 2883  39.285  28.738  13.784
31158W        W 2884   6.812   6.289   4.632
31159W        W 2885  31.043  34.408  13.753
31160W        W 2886  17.845  39.192  12.317
31161W        W 2887  35.083   3.307  11.971
31162W        W 2888   4.813  10.607  11.814
31163W        W 2889   8.582  22.428  10.133
31164W        W 2890   8.700  34.918   3.533
31165W        W 2891  44.536   0.354   9.675
31166W        W 2892   7.935  25.746   2.271
31167W        W 2893  21.714  13.250  13.878
31168W        W 2894   4.538  13.290  13.106
31169W        W 2895  42.861   9.576   1.795
31170W        W 2896   9.761  21.944   0.616
31171W        W 2897  19.704   3.975  11.834
31172W        W 2898   3.896  42.869   4.583
31173W        W 2899  20.311  38.548  13.951
31174W        W 2900  13.187   4.682  10.677
31175W        W 2901   7.147   5.797  14.493
31176W        W 2902  25.435  43.011   0.284
31177W        W 2903  31.179  17.116  12.790
31178W        W 2904   7.408  20.303  13.382
31179W        W 2905   0.674  43.911   3.746
31180W        W 2906  28.471  39.966   3.299
31181W        W 2907  28.411  29.913  10.662
31182W        W 2908  21.084   2.215  13.767
31183W        W 2909  24.766   1.722   0.874
31184W        W 2910  43.250  16.490  14.810
31185W        W 2911  42.742  43.470   1.749
31186W        W 2912  35.779  42.931   3.156
31187W        W 2913   4.735   8.904   0.904
31188W        W 2914  44.250  39.554  12.104
31189W        W 2915   8.815   2.054  10.793
31190W        W 2916  13.672  26.707   4.376
31191W        W 2917  29.032  21.007  10.978
31192W        W 2918  20.568  38.606   1.295
31193W        W 2919  38.695  41.459  11.934
31194W        W 2920  34.327  23.686   2.861
31195W        W 2921  34.040  15.148  12.563
31196W        W 2922  23.714  17.005   2.258
31197W        W 2923  16.198  19.024   1.808
31198W        W 2924   1.018  19.231   4.107
31199W        W 2925  18.111  26.085   3.228
31200W        W 2926  36.982  19.765  13.413
31201W        W 2927  31.635  44.044  11.963
31202W        W 2928   5.277  14.328   2.637
31203W        W 2929  37.386  12.585   1.377
31204W        W 2930  43.284  19.023   2.686
31205W        W 2931  37.969  31.927   2.376
31206W        W 2932  17.328  26.374  12.021
31207W        W 2933   0.012  30.834   3.164
31208W        W 2934  26.204  15.051  12.445
31209W        W 2935  36.321  27.258  11.208
31210W        W 2936  20.076  23.511   4.527
31211W        W 2937  25.970  23.147   3.029
31212W        W 2938  34.071  34.587   3.323
31213W        W 2939  11.202  25.046   0.543
31214W        W 2940   0.878  19.819   3.683
31215W        W 2941  25.720  19.113   4.618
31216W        W 2942  19.778  22.000  14.301
31217W        W 2943  24.744   2.910   1.156
31218W        W 2944  21.280  15.607   1.414
31219W        W 2945   9.249  14.813   3.992
31220W        W 2946  42.465  22.187  11.550
31221W        W 2947  43.279  39.999  11.631
31222W        W 2948   6.680  13.348  14.302
31223W        W 2949  22.728  10.819   1.849
31224W        W 2950  42.319  19.114  14.533
31225W        W 2951  31.964  26.051   4.993
31226W        W 2952  17.138   3.451  11.678
31227W        W 2953   9.886   8.345   2.705
31228W        W 2954  31.511  15.185   1.263
31229W        W 2955  36.588  11.111  13.344
31230W        W 2956  28.394  40.541  13.794
31231W        W 2957   4.761   5.451  10.532
31232W        W 2958   4.707  27.407  11.258
31233W        W 2959   2.783  24.626  14.873
31234W        W 2960  33.390  23.173   0.478
31235W        W 2961  26.888  28.189   0.793
31236W        W 2962  40.236  40.691   5.212
31237W        W 2963  15.335  18.214   0.944
31238W        W 2964  29.438  14.209   0.824
31239W        W 2965  20.998  44.769  10.639
31240W        W 2966  26.554   2.448  11.628
31241W        W 2967  39.366  14.268  10.607
31242W        W 2968   6.290   4.702  14.731
31243W        W 2969  30.039  28.569  11.868
31244W        W 2970  34.005   6.843  12.046
31245W        W 2971  23.570   8.916   4.601
31246W        W 2972  18.696   8.921  10.754
31247W        W 2973  21.958  13.747  13.826
31248W        W 2974  23.098   4.831   2.431
31249W        W 2975  12.713  12.152   4.143
31250W        W 2976  10.195  11.784  10.748
31251W        W 2977  40.706   0.965   3.799
31252W        W 2978  39.566  42.401   4.437
31253W        W 2979  37.411  12.326  11.664
31254W        W 2980  20.143  10.872   0.458
31255W        W 2981  39.196  40.993  10.622
31256W        W 2982  16.777  39.374   2.213
31257W        W 2983  19.692  13.558  13.349
31258W        W 2984   7.606  17.097  12.079
31259W        W 2985  22.247  27.487   0.851
31260W        W 2986  25.143  22.680  12.442
31261W        W 2987  37.402  29.158   0.439
31262W        W 2988  21.676  26.120  11.528
31263W        W 2989  28.920   3.902  13.758
31264W        W 2990  36.390  16.252  14.592
31265W        W 2991  42.420  13.591  14.514
31266W        W 2992   8.698   2.200  13.966
31267W        W 2993  43.383  21.182  10.825
31268W        W 2994  34.061  24.631   4.372
31269W        W 2995  37.397  43.515   1.342
31270W        W 2996  29.750  39.986   0.600
31271W        W 2997  21.102  25.896  13.405
31272W        W 2998  25.113  35.755   4.396
31273W        W 2999  21.986  44.185   1.751
31274W        W 3000  26.163  35.522   1.632
31275W        W 3001  15.786  35.953   2.880
31276W        W 3002  27.032  26.996   1.001
31277W        W 3003  21.279  29.770  13.955
31278W        W 3004  20.731  25.626  13.627
31279W        W 3005   7.801  24.236   0.559
31280W        W 3006  13.361  16.446  13.931
31281W        W 3007  22.232  41.310  14.039
31282W        W 3008  10.378  23.018   2.308
31283W        W 3009  21.516  20.634   0.351
31284W        W 3010   8.742  28.482   1.159
31285W        W 3011  27.731  21.823  12.069
31286W        W 3012  38.946  22.203   3.423
31287W        W 3013   9.930   8.849  13.994
31288W        W 3014  12.131   9.878   4.581
31289W        W 3015  17.313  18.536  11.598
31290W        W 3016  25.010  31.373   0.141
31291W        W 3017  12.241  14.546  11.599
31292W        W 3018  20.535  10.087  13.131
31293W        W 3019   6.697   4.896  10.656
31294W        W 3020  25.916  29.708   3.824
31295W        W 3021   9.705  15.859   3.651
31296W        W 3022   4.179   2.248  13.747
31297W        W 3023  28.312  18.679   1.128
31298W        W 3024   7.893  22.268  14.882
31299W        W 3025  34.890  42.861  14.449
31300W        W 3026  38.527  41.329  14.619
31301W        W 3027   5.289  25.967   0.122
31302W        W 3028   8.928  34.085  14.038
31303W        W 3029  15.227  41.572  14.071
31304W        W 3030  32.579   6.007  11.047
31305W        W 3031  14.669   0.469   3.846
31306W        W 3032  33.977  36.110   2.654
31307W        W 3033  29.499  19.030   0.329
31308W        W 3034  28.819  22.009   2.534
31309W        W 3035  17.570  35.303  13.972
31310W        W 3036  39.995   3.335   2.029
31311W        W 3037  24.809   2.652  10.901
31312W        W 3038  14.547  38.902   9.878
31313W        W 3039  30.604  38.358   2.447
31314W        W 3040  40.479  34.058   0.621
31315W        W 3041   0.659  44.367   2.244
31316W        W 3042   5.988  18.914  13.162
31317W        W 3043  18.484  36.872  11.579
31318W        W 3044   1.872  26.468   2.782
31319W        W 3045  28.729   3.833   0.105
31320W        W 3046  37.293   8.947   4.053
31321W        W 3047  22.021  36.521  10.816
31322W        W 3048  25.824  34.919   0.783
31323W        W 3049  26.161  39.551  10.648
31324W        W 3050  12.192   2.183  13.597
31325W        W 3051   9.990   1.253   2.813
31326W        W 3052  35.548  15.754  13.492
31327W        W 3053  21.108  43.403  12.377
31328W        W 3054  22.250  18.074   4.851
31329W        W 3055  32.348   6.431   1.742
31330W        W 3056   1.433  43.360  13.696
31331W        W 3057  13.858  31.673   3.172
31332W        W 3058  37.046  10.636  11.650
31333W        W 3059  44.924  27.177   3.198
31334W        W 3060  38.498   3.650   0.218
31335W        W 3061  36.139  17.073   0.751
31336W        W 3062  39.211  44.303   4.667
31337W        W 3063  20.980  40.753   1.480
31338W        W 3064  29.131   9.621   1.117
31339W        W 3065  44.601  44.678  13.995
31340W        W 3066   6.639  11.460   4.258
31341W        W 3067   6.199   7.924   4.316
31342W        W 3068  41.953  41.139   3.219
31343W        W 3069   5.365  24.473  11.051
31344W        W 3070  29.509   0.802  13.125
31345W        W 3071   1.890  21.209   4.078
31346W        W 3072  41.732  37.779  12.545
31347W        W 3073  31.528  25.406   0.726
31348W        W 3074   4.896  25.209   3.177
31349W        W 3075   3.835  37.887   3.849
31350W        W 3076  25.746  29.665   4.648
31351W        W 3077   9.419  23.006   3.292
31352W        W 3078  28.896  22.643  14.854
31353W        W 3079  10.707   3.398   4.128
31354W        W 3080  19.154  33.662  14.835
31355W        W 3081  35.381   7.481  12.918
31356W        W 3082   6.752  19.305  12.838
31357W        W 3083  33.007  31.296   2.784
31358W        W 3084  27.216  29.228  14.424
31359W        W 3085  38.765   9.712   3.208
31360W        W 3086  32.547  34.085   4.105
31361W        W 3087  40.752  23.205  13.814
31362W        W 3088  12.828   1.258   3.696
31363W        W 3089  40.092  30.436   0.927
31364W        W 3090  39.252  25.717  11.575
31365W        W 3091   4.250  25.201   2.371
31366W        W 3092  18.654  12.548   4.476
31367W        W 3093   6.224  10.119   4.818
31368W        W 3094  30.519  13.378   4.580
31369W        W 3095  42.350  40.470  14.009
31370W        W 3096  19.612  21.521  12.267
31371W        W 3097   5.902  13.744  14.721
31372W        W 3098  22.130   4.704  11.904
31373W        W 3099  32.047  18.500  11.130
31374W        W 3100  19.102   8.332  14.978
31375W        W 3101  22.438   7.984  14.331
31376W        W 3102  34.504  14.716  11.522
31377W        W 3103  16.002  21.159   4.158
31378W        W 3104  24.740  16.790   0.686
31379W        W 3105  15.799  32.889   1.910
31380W        W 3106   8.603  41.105   3.049
31381W        W 3107  28.367   5.752   9.864
31382W        W 3108  37.305  11.748  14.947
31383W        W 3109  28.531  27.377  12.441
31384W        W 3110  40.513  12.597  11.565
31385W        W 3111   1.745  42.448   3.764
31386W        W 3112  32.982   9.385  13.509
31387W        W 3113  25.347  35.849   1.792
31388W        W 3114   9.325   1.925  14.043
31389W        W 3115   7.044  19.626  12.449
31390W        W 3116  40.058  28.954   3.721
31391W        W 3117  40.808  44.467  11.598
31392W        W 3118  43.713   1.725  10.535
31393W        W 3119  12.950  26.694   2.239
31394W        W 3120  34.213  30.145   2.377
31395W        W 3121   7.842  16.278   0.548
31396W        W 3122  20.093  44.473  12.170
31397W        W 3123   4.858  38.087   1.229
31398W        W 3124  30.048  28.742   4.222
31399W        W 3125  33.674   0.304  13.799
31400W        W 3126  31.843   8.311   2.188
31401W        W 3127  25.772   9.304  10.573
31402W        W 3128  19.743  41.491  11.949
31403W        W 3129  36.874  37.184   2.921
31404W        W 3130  30.965  44.415  11.491
31405W        W 3131  25.234  27.982   4.519
31406W        W 3132  15.526  15.445  14.911
31407W        W 3133  12.696  28.493   4.488
31408W        W 3134  25.620  44.136   4.701
31409W        W 3135   8.818  39.453  10.990
31410W        W 3136  19.637  27.664  13.461
31411W        W 3137  10.309   1.942  13.922
31412W        W 3138  37.461   2.066  14.689
31413W        W 3139  13.341  44.976   0.803
31414W        W 3140  15.276  26.133  12.918
31415W        W 3141   1.032  18.049   2.257
31416W        W 3142  33.350  41.416  10.112
31417W        W 3143  38.711  17.232  14.837
31418W        W 3144  36.298  24.638   3.165
31419W        W 3145  26.247  35.585   2.137
31420W        W 3146  22.240   3.211   1.031
31421W        W 3147  32.074  14.757   2.807
31422W        W 3148  38.575   7.302   2.981
31423W        W 3149   1.192  22.694  14.877
31424W        W 3150   8.394   4.049  12.254
31425W        W 3151  28.034  14.509   0.100
31426W        W 3152   1.480  18.951  11.619
31427W        W 3153  29.050  25.604  14.992
31428W        W 3154  22.785  29.409   4.073
31429W        W 3155  44.394  28.730  11.108
31430W        W 3156   0.623   4.889   4.110
31431W        W 3157  21.256  31.045   2.613
31432W        W 3158  20.752  15.744   4.644
31433W        W 3159   2.728  26.458  10.752
31434W        W 3160  14.077  18.646   4.273
31435W        W 3161  32.901  39.295   0.483
31436W        W 3162  42.182  30.894   2.273
31437W        W 3163  21.948  18.135   3.234
31438W        W 3164  15.788  13.721  13.544
31439W        W 3165   6.106  27.877  10.110
31440W        W 3166  30.154  44.666   1.640
31441W        W 3167   9.027  41.046   3.344
31442W        W 3168  23.147  37.493   2.204
31443W        W 3169  20.721  29.323  11.701
31444W        W 3170  10.095  11.873   4.147
31445W        W 3171  10.635   4.695   4.032
31446W        W 3172  44.846  27.728   0.516
31447W        W 3173  13.273  30.914   2.238
31448W        W 3174  41.895  33.373  10.780
31449W        W 3175  27.888   3.201  13.064
31450W        W 3176  29.686  43.936  13.435
31451W        W 3177   9.609  37.623  14.263
31452W        W 3178  40.879  34.876  13.486
31453W        W 3179  35.388  29.634   2.798
31454W        W 3180  31.831  44.235  11.479
31455W        W 3181  36.063   6.981   2.725
31456W        W 3182   6.270  14.692  12.176
31457W        W 3183  19.614  26.542  14.056
31458W        W 3184   7.760  37.201  14.932
31459W        W 3185  35.309  24.524   3.098
31460W        W 3186  19.605  23.670   4.698
31461W        W 3187  20.296  23.065  13.817
31462W        W 3188  23.984  42.159   4.242
31463W        W 3189  38.104  19.650  12.462
31464W        W 3190   2.780  29.118   2.673
31465W        W 3191  33.080  41.855  13.750
31466W        W 3192   6.810  12.107  13.848
31467W        W 3193   7.276  23.323  11.583
31468W        W 3194  12.848  16.332   4.382
31469W        W 3195  27.328  12.267  14.813
31470W        W 3196  22.095  42.413   0.771
31471W        W 3197  25.761  11.229   0.469
31472W        W 3198  12.825  30.444   4.577
31473W        W 3199   0.443  37.678   5.013
31474W        W 3200   5.636   8.738  12.467
31475W        W 3201  30.492  11.937   1.399
31476W        W 3202  17.981  16.643  12.038
31477W        W 3203  18.549   6.999   4.820
31478W        W 3204   4.156   4.771   3.752
31479W        W 3205  37.636   8.461   3.233
31480W        W 3206  29.493  39.554   1.332
31481W        W 3207  20.401  13.867  14.959
31482W        W 3208  35.461  34.402  10.478
31483W        W 3209   0.503   4.380   2.198
31484W        W 3210  27.047  39.738  12.902
31485W        W 3211  18.584  14.338   2.912
31486W        W 3212  19.417  22.130   2.325
31487W        W 3213  29.784  11.890   5.087
31488W        W 3214  10.441  10.178   3.600
31489W        W 3215   0.752  22.120   3.069
31490W        W 3216   3.411  22.839  13.905
31491W        W 3217  30.763  31.562   0.019
31492W        W 3218  16.841  22.311  13.445
31493W        W 3219   6.167  11.346  14.226
31494W        W 3220  37.032  32.859   5.041
31495W        W 3221  32.626   6.505  11.020
31496W        W 3222  24.312   1.928   1.074
31497W        W 3223  43.293   9.618   0.276
31498W        W 3224  28.578  15.215   4.420
31499W        W 3225  13.179  16.332  13.418
31500W        W 3226   1.612  37.161   4.185
31501W        W 3227  29.151  17.272  12.850
31502W        W 3228  35.439  18.886  12.103
31503W        W 3229   7.367  36.392   4.566
31504W        W 3230   0.980  23.743  12.710
31505W        W 3231   6.282  15.081   0.524
31506W        W 3232   7.221  13.127   2.753
31507W        W 3233   6.369  15.735  10.913
31508W        W 3234  17.615   9.352  12.093
31509W        W 3235   9.653  20.740   3.773
31510W        W 3236   7.509   6.389  14.596
31511W        W 3237  22.974  33.105  14.509
31512W        W 3238   1.732  38.534  14.480
31513W        W 3239  29.505  30.681   4.107
31514W        W 3240  23.764  27.035   9.875
31515W        W 3241  34.632  37.577  14.825
31516W        W 3242  42.007   7.027  10.705
31517W        W 3243  21.841   9.153  10.969
31518W        W 3244  44.867  36.903  12.591
31519W        W 3245  43.008  38.858  14.452
31520W        W 3246  16.583  12.352   2.878
31521W        W 3247   9.291  34.827  13.161
31522W        W 3248  32.980  29.937   1.386
31523W        W 3249  25.097  37.660  13.514
31524W        W 3250  20.034  35.645   1.165
31525W        W 3251   0.501  23.679   0.843
31526W        W 3252  35.273   5.074  12.088
31527W        W 3253  38.712  40.862  13.269
31528W        W 3254  15.589  22.277  14.853
31529W        W 3255  12.279  26.267  12.025
31530W        W 3256  20.322  37.932   4.353
31531W        W 3257   0.804  34.801  13.401
31532W        W 3258  16.166  32.230  14.473
31533W        W 3259  12.730  26.361   3.523
31534W        W 3260  36.439  40.573   2.702
31535W        W 3261  16.031   3.763   1.164
31536W        W 3262  25.914   6.644  11.635
31537W        W 3263  26.109   2.137  14.898
31538W        W 3264   2.837  17.375   0.791
31539W        W 3265  11.641  34.430   2.256
31540W        W 3266  27.543  38.947   2.324
31541W        W 3267  33.118  14.741   4.102
31542W        W 3268  22.858   6.214  11.597
31543W        W 3269  34.459   9.559   4.237
31544W        W 3270  28.350  35.137   1.659
31545W        W 3271   1.636   7.083  13.016
31546W        W 3272   6.115  12.101   0.928
31547W        W 3273  40.037  36.351  11.185
31548W        W 3274  36.319  14.212   4.145
31549W        W 3275   0.505  28.421   2.251
31550W        W 3276   9.177   5.970   0.938
31551W        W 3277  26.036  23.062  14.971
31552W        W 3278  36.611  27.024   3.227
31553W        W 3279  14.252   5.193   4.662
31554W        W 3280   1.534   2.047  11.207
31555W        W 3281  28.473  16.358  13.410
31556W        W 3282  30.578  28.545  14.264
31557W        W 3283  44.943  44.259  14.135
31558W        W 3284  17.251  34.838   2.746
31559W        W 3285  44.267   3.750  14.307
31560W        W 3286  23.248  39.109   0.086
31561W        W 3287  16.216  12.799   3.229
31562W        W 3288   8.351  31.429  12.928
31563W        W 3289  42.808   2.450  11.660
31564W        W 3290  20.148  43.562  11.898
31565W        W 3291  32.003  38.924  14.205
31566W        W 3292  20.157   8.682   0.733
31567W        W 3293  19.739   0.055   1.421
31568W        W 3294  25.589  28.417   1.740
31569W        W 3295   6.804  38.130   2.395
31570W        W 3296  16.027  13.039  12.617
31571W        W 3297  12.732  37.605   0.328
31572W        W 3298  43.982  41.930   1.819
31573W        W 3299  20.026  40.306  14.410
31574W        W 3300  25.021  10.214  12.985
31575W        W 3301   0.467  43.547  11.107
31576W        W 3302  28.554  18.097   4.527
31577W        W 3303  22.467  20.462  10.747
31578W        W 3304   2.345  23.419   1.463
31579W        W 3305   2.253  40.681  14.600
31580W        W 3306   5.506  28.963  11.543
31581W        W 3307  43.811  27.074  11.583
31582W        W 3308  30.504  10.897  14.363
31583W        W 3309  28.463  12.135   1.163
31584W        W 3310  34.530  36.883   3.718
31585W        W 3311  35.576  34.594   3.264
31586W        W 3312  28.904  32.870   2.475
31587W        W 3313   4.298  30.529  13.306
31588W        W 3314  18.182   6.747   2.932
31589W        W 3315  29.621  16.626  14.888
31590W        W 3316  38.431  33.038  12.603
31591W        W 3317  18.616  14.653   2.074
31592W        W 3318   3.346   5.264   4.634
31593W        W 3319  11.526  22.101  11.268
31594W        W 3320  23.723   2.052   2.770
31595W        W 3321  32.658  35.988  12.834
31596W        W 3322  34.608  23.557   2.401
31597W        W 3323  43.967  18.259  10.989
31598W        W 3324  30.434  14.953   0.844
31599W        W 3325  32.174  16.244   0.398
31600W        W 3326   9.924  30.514   3.879
31601W        W 3327  38.050  15.833  12.032
31602W        W 3328  29.513  12.236  11.657
31603W        W 3329  44.876  39.893  13.653
31604W        W 3330  10.456  26.631   2.746
31605W        W 3331   1.853  21.655  13.903
31606W        W 3332  19.949  19.081   3.397
31607W        W 3333  23.242   0.277   1.444
31608W        W 3334  40.046  43.815  10.639
31609W        W 3335   7.831  34.579  12.856
31610W        W 3336  21.124  21.467   0.277
31611W        W 3337   7.105   3.889  10.718
31612W        W 3338  12.651  36.066   3.319
31613W        W 3339  33.618  38.787  11.181
31614W        W 3340  19.557  15.783   5.064
31615W        W 3341  13.894  21.482   3.775
31616W        W 3342   4.726  20.042  12.059
31617W        W 3343  37.313  38.336  13.881
31618W        W 3344  28.141   0.463   3.148
31619W        W 3345  12.030  20.509  14.032
31620W        W 3346  35.553  42.104  11.069
31621W        W 3347   2.181  29.405   4.235
31622W        W 3348   1.543  42.521  14.980
31623W        W 3349  16.382  28.509  12.952
31624W        W 3350  44.567  25.232   3.260
31625W        W 3351   2.740  21.311  14.450
31626W        W 3352  11.788  32.531  13.721
31627W        W 3353  13.116  30.025  11.235
31628W        W 3354   2.688  26.564   4.213
31629W        W 3355  32.150   7.125  10.517
31630W        W 3356  31.643  23.746   4.158
31631W        W 3357  28.202  15.561   2.228
31632W        W 3358  33.010  31.681  10.451
31633W        W 3359  38.378  10.590  13.307
31634W        W 3360  16.391  13.780   2.931
31635W        W 3361   9.416  42.208  14.710
31636W        W 3362   3.282  10.926  10.790
31637W        W 3363  33.370  38.064   4.061
31638W        W 3364  28.100  19.658  12.817
31639W        W 3365  28.458   8.855   3.275
31640W        W 3366  30.498  41.790   0.681
31641W        W 3367  19.972   2.851  12.524
31642W        W 3368  36.406  42.360  13.516
31643W        W 3369  37.905  42.447   3.439
31644W        W 3370   1.762  33.012  13.566
31645W        W 3371  11.855  40.149  13.382
31646W        W 3372  15.266  16.358   0.191
31647W        W 3373  36.458  10.021   0.895
31648W        W 3374  21.639  38.089   2.278
31649W        W 3375  14.135   4.155  13.939
31650W        W 3376   8.160  27.528  11.181
31651W        W 3377  40.638  22.010  14.852
31652W        W 3378  32.665  36.634   4.745
31653W        W 3379  27.949  31.838  13.413
31654W        W 3380   8.549  32.492   2.228
31655W        W 3381  42.781  41.290   0.816
31656W        W 3382  12.816  21.511  10.715
31657W        W 3383  38.028  17.295   1.694
31658W        W 3384   8.288  27.767  12.991
31659W        W 3385  25.579  32.888   3.439
31660W        W 3386  38.780   9.492  10.613
31661W        W 3387   0.898  14.132   1.874
31662W        W 3388  40.963   9.117  14.529
31663W        W 3389  21.317  33.857  14.211
31664W        W 3390   1.058  29.611   3.255
31665W        W 3391   5.406  37.091   4.688
31666W        W 3392   1.902  26.559   3.735
31667W        W 3393  20.294  34.141   2.358
31668W        W 3394  14.264  19.054  13.961
31669W        W 3395  39.853  28.520   2.810
31670W        W 3396  24.238  23.700  10.200
31671W        W 3397  29.919  18.970   3.002
31672W        W 3398  16.146  33.387  13.037
31673W        W 3399  30.289  42.986  10.276
31674W        W 3400  44.610   4.038   4.884
31675W        W 3401  22.134  43.396  10.648
31676W        W 3402  15.365  17.264   2.556
31677W        W 3403   0.761   7.852  10.449
31678W        W 3404  27.660  35.536   4.035
31679W        W 3405  28.678  20.010  13.810
31680W        W 3406  10.826  16.659   0.737
31681W        W 3407  35.927   6.659   0.423
31682W        W 3408  26.128  11.215   0.836
31683W        W 3409  32.159  15.810  10.706
31684W        W 3410  40.711  35.001  14.494
31685W        W 3411   2.802  28.539   4.853
31686W        W 3412  13.854  39.753   4.534
31687W        W 3413   8.228  30.762   4.463
31688W        W 3414   0.969  40.057   3.349
31689W        W 3415   4.179  24.703   3.034
31690W        W 3416  29.794  24.212  13.320
31691W        W 3417   6.868  22.260   1.891
31692W        W 3418   9.255  19.000   0.867
31693W        W 3419  42.427  22.187  14.501
31694W        W 3420  33.744   5.536   3.090
31695W        W 3421  25.528   0.717   0.495
31696W        W 3422   9.741  31.466   2.790
31697W        W 3423  28.076  38.351   3.083
31698W        W 3424   2.927   7.599   0.389
31699W        W 3425  30.437  23.578   3.741
31700W        W 3426   2.328  30.029  12.914
31701W        W 3427  21.701  18.315  10.726
31702W        W 3428  13.851  38.542   5.534
31703W        W 3429   7.286  14.552   4.814
31704W        W 3430  11.335  33.358  14.851
31705W        W 3431  10.094   8.379  11.120
31706W        W 3432  18.732  10.109   2.118
31707W        W 3433   6.705  30.944  12.318
31708W        W 3434   8.783   7.697  11.594
31709W        W 3435  38.059  24.212   3.240
31710W        W 3436  15.349   1.308  12.658
31711W        W 3437  16.687  26.104  13.170
31712W        W 3438   8.747  11.878   1.066
31713W        W 3439  42.104   0.398  10.551
31714W        W 3440   6.370  14.137  10.247
31715W        W 3441  36.121  37.192  13.174
31716W        W 3442  15.220  30.562  14.949
31717W        W 3443  43.285  39.602   2.191
31718W        W 3444  16.917  26.423  12.441
31719W        W 3445  32.246   7.594   2.739
31720W        W 3446  13.144  41.011   1.198
31721W        W 3447  31.183   6.534   4.789
31722W        W 3448   0.427  22.028  14.978
31723W        W 3449  15.799  14.543   1.678
31724W        W 3450   4.022  24.508  12.893
31725W        W 3451  37.856   9.676  13.889
31726W        W 3452  17.329  19.719   4.117
31727W        W 3453  24.245  12.395   5.303
31728W        W 3454  20.164  23.851   4.125
31729W        W 3455   5.497  27.590   1.774
31730W        W 3456  36.546  18.703  14.413
31731W        W 3457  31.568  40.561  11.067
31732W        W 3458  42.796  38.954  13.992
31733W        W 3459  16.532   4.834  13.094
31734W        W 3460   9.688  10.664   2.318
31735W        W 3461  37.687   9.698  12.107
31736W        W 3462  15.765   2.253   4.087
31737W        W 3463   8.960  32.990   4.606
31738W        W 3464   3.875   1.796   0.948
31739W        W 3465  43.528  25.289   0.231
31740W        W 3466  12.108  10.990   0.846
31741W        W 3467  40.362  28.055  12.090
31742W        W 3468   4.375  35.955   1.820
31743W        W 3469  21.237  24.080   0.461
31744W        W 3470   7.411  26.858  11.636
31745W        W 3471  39.912   5.825   3.213
31746W        W 3472  34.192  37.954   0.706
31747W        W 3473  25.482  25.483   1.928
31748W        W 3474  20.735  13.848  11.495
31749W        W 3475  27.658  38.419   4.851
31750W        W 3476  25.636  31.491   1.328
31751W        W 3477  20.057  13.149   4.327
31752W        W 3478  39.809  42.735   2.281
31753W        W 3479  27.174   5.430   1.685
31754W        W 3480  25.014  23.269   2.329
31755W        W 3481  37.816  39.823  13.558
31756W        W 3482   6.258  18.888  13.631
31757W        W 3483  22.720  11.592  10.990
31758W        W 3484  24.259  22.003  13.864
31759W        W 3485  15.784  15.057   0.992
31760W        W 3486  13.835  18.581   1.468
31761W        W 3487  23.945   3.668  11.969
31762W        W 3488  29.455  15.287   2.247
31763W        W 3489  17.421   2.645   4.185
31764W        W 3490  32.637  13.263  11.614
31765W        W 3491  36.326  37.515   1.912
31766W        W 3492  37.881  34.422  14.070
31767W        W 3493  22.352   3.235  14.427
31768W        W 3494  14.578  32.900  14.875
31769W        W 3495  40.944  10.593   0.427
31770W        W 3496  44.716  43.149   2.698
31771W        W 3497  17.799  18.105   0.692
31772W        W 3498  26.485  30.564   1.858
31773W        W 3499  29.437  18.052   1.458
31774W        W 3500  25.281  29.071  12.908
31775W        W 3501  29.828  35.155   3.535
31776W        W 3502  33.295  34.393  11.020
31777W        W 3503  19.547  25.110  14.961
31778W        W 3504  19.151   0.599  14.421
31779W        W 3505  25.452  30.632  11.942
31780W        W 3506  37.924  31.540  13.619
31781W        W 3507  24.448  21.468  13.527
31782W        W 3508  23.756  22.275  11.625
31783W        W 3509  29.922  31.800   1.691
31784W        W 3510  31.807   2.347  13.038
31785W        W 3511   6.669  17.093   0.771
31786W        W 3512  16.281  43.079  12.871
31787W        W 3513   3.733  24.877  10.694
31788W        W 3514  23.433  27.444   3.189
31789W        W 3515  23.682  37.428   4.723
31790W        W 3516  11.926   5.308  12.909
31791W        W 3517  14.073  44.256   1.074
31792W        W 3518  14.032  10.538  11.037
31793W        W 3519  36.336   6.817  10.935
31794W        W 3520  34.580  36.897   2.828
31795W        W 3521  27.141   7.250  10.728
31796W        W 3522  14.517   1.862  13.732
31797W        W 3523  10.617  26.618   4.612
31798W        W 3524  37.254   7.859  13.003
31799W        W 3525  12.115  13.748   0.321
31800W        W 3526  44.807   6.991  12.974
31801W        W 3527  43.875  13.530   0.294
31802W        W 3528  29.122  20.747   0.021
31803W        W 3529  12.860  10.945  12.987
31804W        W 3530  44.515  43.906  14.309
31805W        W 3531   0.929  32.420  12.339
31806W        W 3532  23.546  15.992  14.745
31807W        W 3533  26.199  16.603   0.791
31808W        W 3534   1.229   5.877  12.375
31809W        W 3535  30.158  44.348   4.602
31810W        W 3536  37.466  38.375   1.318
31811W        W 3537  25.644   3.395  10.736
31812W        W 3538  18.493  19.997  12.950
31813W        W 3539  33.237   0.706   5.011
31814W        W 3540   6.220  17.341   4.266
31815W        W 3541  38.080  22.023  13.918
31816W        W 3542  42.930   0.776   1.548
31817W        W 3543  12.365  20.879  14.992
31818W        W 3544  34.748   8.506  12.615
31819W        W 3545  31.697  30.501  10.800
31820W        W 3546  29.057  10.333  14.990
31821W        W 3547  21.035   1.384   4.448
31822W        W 3548  29.537  19.733   4.113
31823W        W 3549  36.891  43.296  14.643
31824W        W 3550  20.140  30.176  14.378
31825W        W 3551  41.508   9.386   0.508
31826W        W 3552  39.619  21.314  11.134
31827W        W 3553   7.593  38.743   3.904
31828W        W 3554  44.011  27.721   0.183
31829W        W 3555  26.441   9.689   5.236
31830W        W 3556  28.696   7.761   2.783
31831W        W 3557  34.335  18.531  13.499
31832W        W 3558  21.070  31.951   2.603
31833W        W 3559  37.490  30.113   1.221
31834W        W 3560  35.426  37.673  12.543
31835W        W 3561   3.405  18.800   0.475
31836W        W 3562  36.874  43.775  14.362
31837W        W 3563  16.397   7.927   0.407
31838W        W 3564  18.718  12.618  12.490
31839W        W 3565  13.950  11.411   4.177
31840W        W 3566   4.685  30.708   2.034
31841W        W 3567  23.136   2.485  12.976
31842W        W 3568  13.107  38.519   2.919
31843W        W 3569  21.024  29.930   3.673
31844W        W 3570  13.926  11.375   1.258
31845W        W 3571  44.910  20.214   2.337
31846W        W 3572  33.072  44.522   2.215
31847W        W 3573  17.188  28.636   9.851
31848W        W 3574  18.956   3.859   1.120
31849W        W 3575   4.383  35.638  11.435
31850W        W 3576  20.786  12.865  11.416
31851W        W 3577  17.372  34.105   3.202
31852W        W 3578  38.964  25.111   1.769
31853W        W 3579  23.669  10.486   2.137
31854W        W 3580  13.114   6.448   1.371
31855W        W 3581  14.691  16.384   2.719
31856W        W 3582  40.310  26.770  12.935
31857W        W 3583  17.450   2.060  11.107
31858W        W 3584  26.447  38.996   1.241
31859W        W 3585  13.388  43.703  13.922
31860W        W 3586  28.457  30.704   1.771
31861W        W 3587  21.723  37.025   1.248
31862W        W 3588  36.668   2.788   3.849
31863W        W 3589  41.541  39.968  13.050
31864W        W 3590  37.315  20.188   2.740
31865W        W 3591  11.596  38.884  13.752
31866W        W 3592  42.303  42.580  13.904
31867W        W 3593  10.880  24.529  11.788
31868W        W 3594   8.248   7.893  14.487
31869W        W 3595  29.599  23.475   2.203
31870W        W 3596  36.654  26.053   4.579
31871W        W 3597  24.276  29.659   2.272
31872W        W 3598   4.728  33.301  11.106
31873W        W 3599  41.378  29.140  14.802
31874W        W 3600  10.268  27.587  14.978
31875W        W 3601  15.202  44.761  12.498
31876W        W 3602  38.995  35.705  10.127
31877W        W 3603  15.413  22.922  12.947
31878W        W 3604  36.833  18.601  11.210
31879W        W 3605  41.612  20.553   0.935
31880W        W 3606  36.335  43.875   2.790
31881W        W 3607  33.647  19.967  10.946
31882W        W 3608   7.625  39.132  13.382
31883W        W 3609  12.195  33.305   0.080
31884W        W 3610  22.119   4.318  12.688
31885W        W 3611  32.539  43.577   0.029
31886W        W 3612  44.388  33.347  12.870
31887W        W 3613  42.963  43.702   4.173
31888W        W 3614  38.353   6.354   3.898
31889W        W 3615  30.708  34.600  11.537
31890W        W 3616  38.319  28.261  14.954
31891W        W 3617  12.019  36.501  12.401
31892W        W 3618  11.106  33.925  11.103
31893W        W 3619   7.107   6.504   3.376
31894W        W 3620  44.912  43.953  14.977
31895W        W 3621  37.351  37.099   1.105
31896W        W 3622  16.309  40.855   3.352
31897W        W 3623  14.266  24.005   0.384
31898W        W 3624   7.985  34.090  13.981
31899W        W 3625  43.066  17.661  12.564
31900W        W 3626  24.403  30.554   4.129
31901W        W 3627  19.271   5.977   2.299
31902W        W 3628  17.410  38.413  13.967
31903W        W 3629   4.252   0.912   1.612
31904W        W 3630  11.547   5.410   4.980
31905W        W 3631  43.040   9.653  10.624
31906W        W 3632  21.190   5.642   0.354
31907W        W 3633  15.505  31.594  13.023
31908W        W 3634  39.755   3.283  12.342
31909W        W 3635   6.186  35.141   2.388
31910W        W 3636   6.668   4.743  10.159
31911W        W 3637  27.254   4.851   3.468
31912W        W 3638   7.450  31.852   4.128
31913W        W 3639  18.452  26.974   5.031
31914W        W 3640  12.188  43.777   2.863
31915W        W 3641   6.736  35.687   1.501
31916W        W 3642   4.762   0.174  11.078
31917W        W 3643  37.388   0.049  14.396
31918W        W 3644  24.519   4.842  12.476
31919W        W 3645  10.711  16.709   0.228
31920W        W 3646  36.045  17.925   3.255
31921W        W 3647   4.505  16.714   2.840
31922W        W 3648   5.468  28.179   2.648
31923W        W 3649  44.963   9.910   3.378
31924W        W 3650   5.908  23.699  14.324
31925W        W 3651  42.857  23.442   4.153
31926W        W 3652   7.396  43.270   4.111
31927W        W 3653  20.693  15.094   3.530
31928W        W 3654   0.998  30.305  10.943
31929W        W 3655  43.757   7.284   2.221
31930W        W 3656  33.599  34.735  10.124
31931W        W 3657  31.034  17.808  11.452
31932W        W 3658   4.709  30.377  13.593
31933W        W 3659  21.172  39.969  10.607
31934W        W 3660  30.745  15.710  11.150
31935W        W 3661  10.873  41.818   1.920
31936W        W 3662  28.096  20.508   2.445
31937W        W 3663  37.027  14.551   0.755
31938W        W 3664  40.407  39.043  10.257
31939W        W 3665  42.936  25.595   2.825
31940W        W 3666  37.495  19.509  11.039
31941W        W 3667  16.128  17.016   1.873
31942W        W 3668   6.798  13.716   3.283
31943W        W 3669  38.461  38.448  11.214
31944W        W 3670   2.785  11.238   0.820
31945W        W 3671  37.659  12.671  13.499
31946W        W 3672  31.340  42.852   3.721
31947W        W 3673  24.942   3.753   3.837
31948W        W 3674  17.833  24.149   2.852
31949W        W 3675  37.550  28.971  12.437
31950W        W 3676  39.465  38.913   1.500
31951W        W 3677  30.648  13.288  14.241
31952W        W 3678   4.424  19.498  14.629
31953W        W 3679  30.963  41.642   1.256
31954W        W 3680  14.310  20.084  14.893
31955W        W 3681  22.448   2.666  12.526
31956W        W 3682   9.400  30.464  14.265
31957W        W 3683  39.228  25.085   0.137
31958W        W 3684  16.746   3.731   4.571
31959W        W 3685  24.363  30.961  11.698
31960W        W 3686  32.087  43.320   2.662
31961W        W 3687  30.197  15.464   0.532
31962W        W 3688  10.517  40.254   3.877
31963W        W 3689  16.602  11.170  10.855
31964W        W 3690   6.469  26.269  12.677
31965W        W 3691   7.551  35.382  13.035
31966W        W 3692  23.719  11.170  13.491
31967W        W 3693  16.802  32.610   4.771
31968W        W 3694  10.614  15.954   3.091
31969W        W 3695  44.126   3.396  13.021
31970W        W 3696  20.564   4.308   4.261
31971W        W 3697  25.291  44.914   3.300
31972W        W 3698  36.383  26.935   1.745
31973W        W 3699  38.796  28.476  14.993
31974W        W 3700  39.802   4.577   4.617
31975W        W 3701  30.263  12.184  12.222
31976W        W 3702  11.032  43.731  12.484
31977W        W 3703  24.233  37.877   3.635
31978W        W 3704   5.285  10.187  14.831
31979W        W 3705  32.422   1.726  14.375
31980W        W 3706  30.153  19.248  13.477
31981W        W 3707  44.704  25.422   2.354
31982W        W 3708  30.104  44.059  12.028
31983W        W 3709  10.805   3.036   2.474
31984W        W 3710  26.818   1.779   5.084
31985W        W 3711  20.321  38.496   2.198
31986W        W 3712  12.622  33.592  13.719
31987W        W 3713  43.357  24.652  10.434
31988W        W 3714   8.880  32.336   1.856
31989W        W 3715  34.005  32.179   4.720
31990W        W 3716  42.862  44.488   2.247
31991W        W 3717  19.031  36.926   2.736
31992W        W 3718  34.979  42.690  11.486
31993W        W 3719  29.624  14.123   2.195
31994W        W 3720  20.541  36.009  13.017
31995W        W 3721   5.841  44.456   4.353
31996W        W 3722  37.914   8.087   2.120
31997W        W 3723   6.920  21.494   4.139
31998W        W 3724  32.872   5.321  13.876
31999W        W 3725  17.388  25.722  14.061
32000W        W 3726  41.970  39.329   0.508
32001W        W 3727  13.351  35.921   0.932
32002W        W 3728  14.202  26.104   3.198
32003W        W 3729  10.577  26.170  10.505
32004W        W 3730  29.947  12.700  12.064
32005W        W 3731  19.613  23.670   3.639
32006W        W 3732  42.035  35.385  10.662
32007W        W 3733  15.289   1.719   4.156
32008W        W 3734  17.985  24.719  11.926
32009W        W 3735  10.061  34.869  12.521
32010W        W 3736  15.667   8.237  10.826
32011W        W 3737   3.711   8.071   1.771
32012W        W 3738   4.833  25.381   4.847
32013W        W 3739   5.823  32.667  10.731
32014W        W 3740  41.389   0.367  14.055
32015W        W 3741  15.572  29.177  12.891
32016W        W 3742  43.017   6.380  10.794
32017W        W 3743   6.957   0.734   1.248
32018W        W 3744   1.688  35.568   3.293
32019W        W 3745  25.511  44.750   2.659
32020W        W 3746  16.860   3.453   1.993
32021W        W 3747   3.517  28.843   0.981
32022W        W 3748  14.328  30.630  13.492
32023W        W 3749   6.825   1.202  13.829
32024W        W 3750  44.775   4.284  14.867
32025W        W 3751  22.491  43.082  13.860
32026W        W 3752  37.946  15.468   1.313
32027W        W 3753  26.877  17.205  10.622
32028W        W 3754  44.939  10.872  11.684
32029W        W 3755  10.288  28.474  12.474
32030W        W 3756  16.179  44.435  11.506
32031W        W 3757   9.573  25.715  11.998
32032W        W 3758  39.292   0.968  13.064
32033W        W 3759  42.473  12.929  11.213
32034W        W 3760   7.442  22.774  10.465
32035W        W 3761   6.380  27.135   1.639
32036W        W 3762   1.926  19.741  11.415
32037W        W 3763  12.570  39.168  11.107
32038W        W 3764   5.039  10.580  13.306
32039W        W 3765   1.180   2.921  11.204
32040W        W 3766  16.885  26.461   3.538
32041W        W 3767   0.766  41.304   1.729
32042W        W 3768  43.885  19.278  10.980
32043W        W 3769  19.568  36.119   3.220
32044W        W 3770  36.190  28.221   4.382
32045W        W 3771  40.960  27.463   3.827
32046W        W 3772  21.088  42.579  13.547
32047W        W 3773   7.462  44.349  13.832
32048W        W 3774  31.330  41.181   3.153
32049W        W 3775  27.587  32.693  14.308
32050W        W 3776   3.714  44.257   4.028
32051W        W 3777  12.556  37.614   2.725
32052W        W 3778  28.904  16.259   3.234
32053W        W 3779   0.122  29.025  11.748
32054W        W 3780  38.092  32.456   2.072
32055W        W 3781  31.140  24.193   3.228
32056W        W 3782  24.995  20.608  14.505
32057W        W 3783  21.721  35.793  10.418
32058W        W 3784  24.497  31.617   0.729
32059W        W 3785  19.634   4.230   2.539
32060W        W 3786   3.254   3.683   2.091
32061W        W 3787  15.746   9.134  12.407
32062W        W 3788  23.480  26.515   4.155
32063W        W 3789  15.457  18.505   4.045
32064W        W 3790   9.156  11.680  11.482
32065W        W 3791  34.307  35.344  11.663
32066W        W 3792  41.438  10.398   0.337
32067W        W 3793   8.138  35.952  10.625
32068W        W 3794  17.759  43.979  12.196
32069W        W 3795  40.512  16.140   1.172
32070W        W 3796   0.030  12.345   4.779
32071W        W 3797  39.663  27.559   0.797
32072W        W 3798  34.613   3.890  13.038
32073W        W 3799  38.426  33.463  13.688
32074W        W 3800  44.986  39.392  11.388
32075W        W 3801  20.247  24.862  13.427
32076W        W 3802   5.912   2.345  11.910
32077W        W 3803  12.684   3.299  10.716
32078W        W 3804  39.976   6.256  10.697
32079W        W 3805  25.668  38.555  13.439
32080W        W 3806  17.728  20.230   0.218
32081W        W 3807  10.905  25.659   3.653
32082W        W 3808   0.930  26.497   3.755
32083W        W 3809  10.141  14.906  12.513
32084W        W 3810   4.037   9.613  12.055
32085W        W 3811  13.521  36.919  11.618
32086W        W 3812  22.975  14.325   0.362
32087W        W 3813  42.455   9.388  11.507
32088W        W 3814  34.468   8.963  12.886
32089W        W 3815  26.331  29.113   3.255
32090W        W 3816  26.037  24.398   3.302
32091W        W 3817  26.187  13.321   2.695
32092W        W 3818  44.492  15.772   3.242
32093W        W 3819  36.008  32.805  14.349
32094W        W 3820  32.892   7.435   1.897
32095W        W 3821   2.535  40.016   2.827
32096W        W 3822  19.370  40.447   2.247
32097W        W 3823  10.174  36.083   0.028
32098W        W 3824  20.694  41.915   3.660
32099W        W 3825   4.477  26.497   3.601
32100W        W 3826  19.231   4.759  12.450
32101W        W 3827  41.882   7.881   0.919
32102W        W 3828  42.845   7.364  12.650
32103W        W 3829  26.684  43.235   4.022
32104W        W 3830  27.670  12.819  10.411
32105W        W 3831  44.416  43.468   1.785
32106W        W 3832   8.185  35.074  10.654
32107W        W 3833  37.264   2.300  12.437
32108W        W 3834  14.927   6.442   0.512
32109W        W 3835  19.750   0.367   1.844
32110W        W 3836  31.703  32.465  11.516
32111W        W 3837  31.615  42.909  13.814
32112W        W 3838   8.400  41.343  10.710
32113W        W 3839   6.359  19.797   4.590
32114W        W 3840  40.379  23.163  10.901
32115W        W 3841  19.947   4.184  12.443
32116W        W 3842   1.456  24.917   2.191
32117W        W 3843   2.958  44.855   2.182
32118W        W 3844  44.004  21.651  12.720
32119W        W 3845  23.598  38.197   1.397
32120W        W 3846  15.039  26.180  12.453
32121W        W 3847   0.646   7.273   2.578
32122W        W 3848  33.107  27.608   1.840
32123W        W 3849   8.847  43.777   0.356
32124W        W 3850  29.673  22.123  13.013
32125W        W 3851  33.458   8.930  10.657
32126W        W 3852  42.269  32.754   2.342
32127W        W 3853  17.959  13.041  13.537
32128W        W 3854  24.479  23.671  14.372
32129W        W 3855   4.824  16.867  11.118
32130W        W 3856  17.861  19.042   4.180
32131W        W 3857  14.089  14.831   1.169
32132W        W 3858  34.108  15.757  12.132
32133W        W 3859  42.005  15.440  10.742
32134W        W 3860  37.291  18.084  13.895
32135W        W 3861  25.812  36.535   2.221
32136W        W 3862  39.868  31.155  11.223
32137W        W 3863  39.288  15.639   3.181
32138W        W 3864  22.171   1.702  14.354
32139W        W 3865  17.254  13.837  11.022
32140W        W 3866  42.174  23.177   2.017
32141W        W 3867   8.764  32.168   3.149
32142W        W 3868  19.787   3.517  11.146
32143W        W 3869  41.801  21.215   2.398
32144W        W 3870  11.321  25.646   0.294
32145W        W 3871   1.500  23.071  14.656
32146W        W 3872  23.556  42.885  10.174
32147W        W 3873  18.733  40.108  13.442
32148W        W 3874   8.734  44.813  14.507
32149W        W 3875  29.976  12.867  11.212
32150W        W 3876  23.161  26.977   2.211
32151W        W 3877  44.069  22.670   4.633
32152W        W 3878  33.949  43.578   0.445
32153W        W 3879  39.756  11.836   2.324
32154W        W 3880   7.650  17.992  10.262
32155W        W 3881  31.886  18.841  13.869
32156W        W 3882   4.754  39.506   4.008
32157W        W 3883  38.974  33.502   3.131
32158W        W 3884  28.065  41.838   3.054
32159W        W 3885   3.918   1.214   2.917
32160W        W 3886  43.454  17.136  14.506
32161W        W 3887  24.384  14.066   3.652
32162W        W 3888  19.664  29.561  10.626
32163W        W 3889  39.325  35.769   1.296
32164W        W 3890  26.248   9.187   2.306
32165W        W 3891  41.715  13.307   3.650
32166W        W 3892  44.941  14.879  14.833
32167W        W 3893  29.621  22.588  10.338
32168W        W 3894   5.870   4.149   9.731
32169W        W 3895  31.113  13.882   2.291
32170W        W 3896   2.194   1.104  14.481
32171W        W 3897  23.625  28.126   0.171
32172W        W 3898  17.177   7.397   0.828
32173W        W 3899   7.157  11.547   4.248
32174W        W 3900  25.468  29.490   3.689
32175W        W 3901  29.083  40.642   4.640
32176W        W 3902  33.248  33.994   2.051
32177W        W 3903  32.114  16.278  13.057
32178W        W 3904   7.062  16.858  12.873
32179W        W 3905   6.590  44.327   0.076
32180W        W 3906  28.178  25.948   0.769
32181W        W 3907   9.988  36.872  13.975
32182W        W 3908   7.550  30.404   4.069
32183W        W 3909  42.520   1.294  13.015
32184W        W 3910  39.408  22.763   1.526
32185W        W 3911  43.855  43.450   1.931
32186W        W 3912  35.999   2.147   2.304
32187W        W 3913   7.341   8.207   4.538
32188W        W 3914  14.318  25.157  14.817
32189W        W 3915  19.947  24.496  11.983
32190W        W 3916   5.414   5.447   4.998
32191W        W 3917  21.027  10.845  10.730
32192W        W 3918  31.619  26.009  13.609
32193W        W 3919  35.047  19.123   0.345
32194W        W 3920  39.413  18.221   2.256
32195W        W 3921  44.682   1.291   3.761
32196W        W 3922  33.524   7.420   0.620
32197W        W 3923   2.672  15.618   3.193
32198W        W 3924  32.497   0.271   3.296
32199W        W 3925  23.846  11.377  14.274
32200W        W 3926  17.811  20.124   3.275
32201W        W 3927  30.866  28.936  12.389
32202W        W 3928  31.880  24.035  10.748
32203W        W 3929   6.400  34.628   1.199
32204W        W 3930  38.935  23.399   4.471
32205W        W 3931  42.265   0.010  13.059
32206W        W 3932   0.860  23.030   3.174
32207W        W 3933  42.570  35.183  12.614
32208W        W 3934  26.029  26.159   0.521
32209W        W 3935   9.068  36.542  14.088
32210W        W 3936  40.058  29.136   4.562
32211W        W 3937   8.359  29.965   4.045
32212W        W 3938  41.283  30.414  14.368
32213W        W 3939  13.785  18.526  14.376
32214W        W 3940  21.649   5.758  14.888
32215W        W 3941   8.251  34.853   1.350
32216W        W 3942  19.025  44.978   2.172
32217W        W 3943  41.279  26.733   1.525
32218W        W 3944  43.872  25.265  13.466
32219W        W 3945  11.243  13.320  12.565
32220W        W 3946   9.701   7.419  12.111
32221W        W 3947   6.254  31.050  10.689
32222W        W 3948  14.628  38.428   4.853
32223W        W 3949  34.482  37.511   0.716
32224W        W 3950  21.661  12.277   2.874
32225W        W 3951  23.124   3.207   4.093
32226W        W 3952  34.157   6.316  14.030
32227W        W 3953   8.235  39.990  11.114
32228W        W 3954  37.052  26.750  14.014
32229W        W 3955  18.541   3.508   1.423
32230W        W 3956  18.631  31.152   3.432
32231W        W 3957  18.179  44.924  11.661
32232W        W 3958  21.637  19.785   2.713
32233W        W 3959   2.134  27.748   0.954
32234W        W 3960  22.561  15.935   4.959
32235W        W 3961  21.607  42.543  13.399
32236W        W 3962  19.769   3.257  10.687
32237W        W 3963  28.027  37.913  14.891
32238W        W 3964  22.591   9.896   0.884
32239W        W 3965  19.791  32.933  14.715
32240W        W 3966  25.227   0.208   3.732
32241W        W 3967  19.741  42.527  11.012
32242W        W 3968   9.315   9.220  13.919
32243W        W 3969  31.529  18.761   4.930
32244W        W 3970  36.316  38.373   3.591
32245W        W 3971  23.566  40.423   2.182
32246W        W 3972  10.112  32.312  13.634
32247W        W 3973  26.051  29.706  13.553
32248W        W 3974  33.047  22.842   4.662
32249W        W 3975  25.784  40.035   0.496
32250W        W 3976  30.636  29.159  13.063
32251W        W 3977  42.388   4.285   1.429
32252W        W 3978   9.076   8.029  11.939
32253W        W 3979  17.565   8.441   2.824
32254W        W 3980  17.681  35.126   0.414
32255W        W 3981  13.711   7.024  12.498
32256W        W 3982  10.186  27.028  11.141
32257W        W 3983   5.845  36.084  12.303
32258W        W 3984   9.347  38.796  11.974
32259W        W 3985  23.144  33.704  11.108
32260W        W 3986   4.466   5.806  12.106
32261W        W 3987  23.416  14.208  14.038
32262W        W 3988  44.814  13.532   1.054
32263W        W 3989  42.941  25.551   1.670
32264W        W 3990   6.433   7.773  10.158
32265W        W 3991   9.400  38.245  14.269
32266W        W 3992  19.511   2.540   3.656
32267W        W 3993   0.746  42.335  13.991
32268W        W 3994  40.522  17.202  13.296
32269W        W 3995  38.419  44.719  12.634
32270W        W 3996  23.120   4.146  14.426
32271W        W 3997   2.730  42.350  13.769
32272W        W 3998  28.455  38.079   1.871
32273W        W 3999   4.014  32.399   4.145
32274W        W 4000  31.994  44.743  10.595
32275W        W 4001  38.551  22.255  12.856
32276W        W 4002   1.501  28.099   1.341
32277W        W 4003  38.128  20.924  13.269
32278W        W 4004  34.477   6.208  13.626
32279W        W 4005  27.943  12.989   0.271
32280W        W 4006  37.405   9.673   3.609
32281W        W 4007  10.242  21.036  12.483
32282W        W 4008   7.967  27.666  12.592
32283W        W 4009  31.911  21.615  11.145
32284W        W 4010  30.623  31.838  13.490
32285W        W 4011   7.423  18.931  12.208
32286W        W 4012  30.037  22.569   0.656
32287W        W 4013  18.885   8.025  13.691
32288W        W 4014  24.933  33.598   2.915
32289W        W 4015  24.192  15.987   3.711
32290W        W 4016  17.252  31.616   1.125
32291W        W 4017  22.610   1.919  14.557
32292W        W 4018  40.079   5.769  14.538
32293W        W 4019  40.940   1.261   2.858
32294W        W 4020  25.165  24.175  13.468
32295W        W 4021  31.432  12.312  13.770
32296W        W 4022  30.100  33.490  11.994
32297W        W 4023  19.161  27.989   1.381
32298W        W 4024  31.021  41.899   5.624
32299W        W 4025  28.437  15.074   2.216
32300W        W 4026  39.642   6.530  12.972
32301W        W 4027   0.379  17.189   2.612
32302W        W 4028  26.103  33.871   4.178
32303W        W 4029  12.896   5.894  14.444
32304W        W 4030  30.954  31.502  14.539
32305W        W 4031  44.823  31.343  14.379
32306W        W 4032  40.509  15.098   1.177
32307W        W 4033  30.346  22.362  12.178
32308W        W 4034  33.015   4.278  11.259
32309W        W 4035  29.238  25.875   5.112
32310W        W 4036  31.915  30.484  13.479
32311W        W 4037  21.252  20.817   2.294
32312W        W 4038  10.534  18.878   1.142
32313W        W 4039  40.323   3.730  12.145
32314W        W 4040  35.260   0.051  11.388
32315W        W 4041  33.756  33.059  11.519
32316W        W 4042   9.360  14.803  14.172
32317W        W 4043  20.191  17.469  12.497
32318W        W 4044  33.849  15.329  13.009
32319W        W 4045  29.917  12.785   1.200
32320W        W 4046  25.970  44.777  13.797
32321W        W 4047  39.319  35.314  10.917
32322W        W 4048  20.486  22.259   3.641
32323W        W 4049  24.678  22.046   1.739
32324W        W 4050  13.112  29.016  13.478
32325W        W 4051   8.820  30.460  12.981
32326W        W 4052   3.673   4.255   1.506
32327W        W 4053  34.100  21.631   3.875
32328W        W 4054   7.311  25.982  10.698
32329W        W 4055  21.097  24.657   4.337
32330W        W 4056  13.552  28.803  11.027
32331W        W 4057  23.498  26.072   0.372
32332W        W 4058  14.797  33.334  12.068
32333W        W 4059   8.684   8.724   3.843
32334W        W 4060  38.141  38.834  11.122
32335W        W 4061  18.434  35.457   3.030
32336W        W 4062   9.810   9.197   2.225
32337W        W 4063  36.963  17.326  12.033
32338W        W 4064  32.189  35.415   4.069
32339W        W 4065  20.513  24.661  14.202
32340W        W 4066  38.413  34.977  10.517
32341W        W 4067  34.631  24.187   4.655
32342W        W 4068  44.903  38.495  10.923
32343W        W 4069  11.614  22.594   0.442
32344W        W 4070  19.390  21.009  12.301
32345W        W 4071  10.425  39.501  12.853
32346W        W 4072   0.869  29.713   4.243
32347W        W 4073   5.213   6.646   3.281
32348W        W 4074  24.302  35.910   4.554
32349W        W 4075  38.074  41.463   1.938
32350W        W 4076  39.119   6.165  11.481
32351W        W 4077  18.167  35.897  12.190
32352W        W 4078  38.968   3.237  11.058
32353W        W 4079   2.772  28.759  13.081
32354W        W 4080  25.069  32.617  13.468
32355W        W 4081  36.362  20.014  12.424
32356W        W 4082   2.341  24.858   0.054
32357W        W 4083  18.134   3.108  11.551
32358W        W 4084  19.432  23.675   5.227
32359W        W 4085   8.301  28.611   1.913
32360W        W 4086  26.650   1.912   0.923
32361W        W 4087   6.740   8.435   4.195
32362W        W 4088  18.060  20.845   1.752
32363W        W 4089  15.616   3.221  11.949
32364W        W 4090  43.308  43.784  11.034
32365W        W 4091  44.915  36.668  12.093
32366W        W 4092  20.315  44.015   1.264
32367W        W 4093  31.901   7.198  11.849
32368W        W 4094  44.227  12.637   3.227
32369W        W 4095  32.055   3.347   1.883
32370W        W 4096   9.384  27.463   2.832
32371W        W 4097  28.072  39.897   4.508
32372W        W 4098  39.011  39.226  13.858
32373W        W 4099  24.557   8.215   1.594
32374W        W 4100  20.322  39.961   4.227
32375W        W 4101  36.448  24.479  14.547
32376W        W 4102   7.279  41.420  11.485
32377W        W 4103  37.120  32.537   4.638
32378W        W 4104  10.310  13.710   4.118
32379W        W 4105  36.512  43.413  14.262
32380W        W 4106  25.473   6.372  14.432
32381W        W 4107  14.230  41.389   2.939
32382W        W 4108  12.143  41.887  10.859
32383W        W 4109  40.376   6.552   0.632
32384W        W 4110   8.861  36.912  14.386
32385W        W 4111  23.725  42.277  12.949
32386W        W 4112  25.644  26.164   4.071
32387W        W 4113  12.317   5.496   1.776
32388W        W 4114  20.617  40.333  11.056
32389W        W 4115   5.805  35.113  10.541
32390W        W 4116  18.657  12.692  14.367
32391W        W 4117   1.335  10.709  11.513
32392W        W 4118  41.601   3.298   2.676
32393W        W 4119   5.287  33.860   2.364
32394W        W 4120  21.267  39.453   2.233
32395W        W 4121  36.019  14.780   4.904
32396W        W 4122  29.745  33.064  12.061
32397W        W 4123  42.776  44.345  12.580
32398W        W 4124  21.105  41.836   3.282
32399W        W 4125  20.120  44.029  14.665
32400W        W 4126  12.110  28.007  13.511
32401W        W 4127  13.193   9.859   4.661
32402W        W 4128  34.916   0.525   0.683
32403W        W 4129   7.934  42.802  10.762
32404W        W 4130  15.673  16.256   2.393
32405W        W 4131  44.821  34.931   4.375
32406W        W 4132   1.888  32.668   3.532
32407W        W 4133   4.175  24.176  10.482
32408W        W 4134  29.069   0.656   0.455
32409W        W 4135   6.094   7.333  10.253
32410W        W 4136   8.684  36.653  10.038
32411W        W 4137  23.792  24.185  12.880
32412W        W 4138   4.053  23.652   1.901
32413W        W 4139  27.521  29.646  11.546
32414W        W 4140  24.225  35.729   3.671
32415W        W 4141  40.851  41.139  10.458
32416W        W 4142  36.358  24.025  12.432
32417W        W 4143   1.474   1.180   0.813
32418W        W 4144  39.555  36.181   1.805
32419W        W 4145  19.629  38.095  14.267
32420W        W 4146  13.895  37.855  13.279
32421W        W 4147  23.969  34.833   3.819
32422W        W 4148  14.330  33.318  12.503
32423W        W 4149  37.366  31.542  11.541
32424W        W 4150  42.776  44.628  14.384
32425W        W 4151  32.930   3.745  12.993
32426W        W 4152  32.360  37.024  14.370
32427W        W 4153  31.784  40.835   4.059
32428W        W 4154  20.100  11.704   0.864
32429W        W 4155  20.175  10.592   1.830
32430W        W 4156  44.915  26.693   0.476
32431W        W 4157   0.735  21.514  10.621
32432W        W 4158  18.793  15.684  13.603
32433W        W 4159  19.717  34.826   3.670
32434W        W 4160  17.767  15.159   0.923
32435W        W 4161  28.415  10.159   2.822
32436W        W 4162  28.417   7.187   3.612
32437W        W 4163  13.018  18.087   1.366
32438W        W 4164  19.277  18.616  12.844
32439W        W 4165  22.187  27.646   3.864
32440W        W 4166  24.580  36.707   1.021
32441W        W 4167  38.608  12.121   3.276
32442W        W 4168  24.158  35.418  13.453
32443W        W 4169  23.220  14.517   3.697
32444W        W 4170   2.269   7.384   5.218
32445W        W 4171   9.134  34.146  11.192
32446W        W 4172  11.316  16.088   1.356
32447W        W 4173  32.127  41.391  14.911
32448W        W 4174  36.206   4.543  10.982
32449W        W 4175   5.694  23.270  13.893
32450W        W 4176  43.982  42.243  14.061
32451W        W 4177  31.397  10.125  13.312
32452W        W 4178  37.523  27.320   3.193
32453W        W 4179  16.174  24.750  12.318
32454W        W 4180   5.101  32.637   3.636
32455W        W 4181  13.266  40.430  14.765
32456W        W 4182  28.153   6.388  11.438
32457W        W 4183  40.495   1.283  14.098
32458W        W 4184  39.869   6.921   1.279
32459W        W 4185  22.933  37.914   2.773
32460W        W 4186   5.764  35.401  11.665
32461W        W 4187  23.269  26.538  14.404
32462W        W 4188  39.745   3.224   0.039
32463W        W 4189  22.910  24.527   3.000
32464W        W 4190  43.698  40.890  12.262
32465W        W 4191  28.973   5.758  13.583
32466W        W 4192   1.698  33.935   3.722
32467W        W 4193  24.956  16.537  14.328
32468W        W 4194  29.936  37.491   1.794
32469W        W 4195   7.335  33.422  11.140
32470W        W 4196   2.250  16.528   3.355
32471W        W 4197  32.627   9.809  11.919
32472W        W 4198   7.674   1.556   4.118
32473W        W 4199  39.684  12.826   0.474
32474W        W 4200  26.740  32.074  11.984
32475W        W 4201   8.691  11.039  11.155
32476W        W 4202   2.927  26.462  10.276
32477W        W 4203  21.766  26.158   1.329
32478W        W 4204  37.524  37.971   2.134
32479W        W 4205   8.450  13.199  12.869
32480W        W 4206   3.783  14.638  11.185
32481W        W 4207   5.531   2.426   0.703
32482W        W 4208  24.606   0.404   2.828
32483W        W 4209   7.928  11.672   0.341
32484W        W 4210  25.306  39.223   5.048
32485W        W 4211  18.215  16.832  13.300
32486W        W 4212   2.812   9.285   2.827
32487W        W 4213  44.955  32.572  13.426
32488W        W 4214  10.116   5.956   4.679
32489W        W 4215  20.727  18.773   1.771
32490W        W 4216  13.807  17.366   4.903
32491W        W 4217  41.456   7.891  13.345
32492W        W 4218  14.249  12.031   0.028
32493W        W 4219  17.494  34.964  13.040
32494W        W 4220  25.690  44.963  10.965
32495W        W 4221  37.065  30.514   3.042
32496W        W 4222  17.589   2.472  14.067
32497W        W 4223  16.739  12.872   0.244
32498W        W 4224  22.358  10.015   2.173
32499W        W 4225  13.347   4.292   4.942
32500W        W 4226  43.387  43.163  10.616
32501W        W 4227  12.339  24.233   4.124
32502W        W 4228  44.739  26.356   2.412
32503W        W 4229   6.573  33.542   4.654
32504W        W 4230  23.597  14.105  14.506
32505W        W 4231  16.502  37.413   4.668
32506W        W 4232   1.356  44.477   0.603
32507W        W 4233  30.557   9.908   3.107
32508W        W 4234   4.190  27.737  12.017
32509W        W 4235  21.124  23.127  10.254
32510W        W 4236  28.465  11.786  13.922
32511W        W 4237  15.106  31.453   1.809
32512W        W 4238   5.366  31.666  14.364
32513W        W 4239   4.130  32.684  12.805
32514W        W 4240   2.759  12.960  12.854
32515W        W 4241   8.614  30.084  11.975
32516W        W 4242  20.518  38.954   2.442
32517W        W 4243  38.475   3.176  11.175
32518W        W 4244   0.740  27.234   0.462
32519W        W 4245  15.126  42.408  12.486
32520W        W 4246   8.952  18.988  10.483
32521W        W 4247  38.749  32.529  10.871
32522W        W 4248   9.511  42.442   0.192
32523W        W 4249  31.852  19.654  14.113
32524W        W 4250  25.252   3.273  14.380
32525W        W 4251  38.816  25.979  14.898
32526W        W 4252  27.394  11.203   2.859
32527W        W 4253  10.228  34.840   2.278
32528W        W 4254  20.533  29.241   2.189
32529W        W 4255  39.862  35.467  12.084
32530W        W 4256  10.218  11.357   4.167
32531W        W 4257  24.375  35.217   3.747
32532W        W 4258  29.188   5.791  12.594
32533W        W 4259   1.227  27.385  13.799
32534W        W 4260  24.808  39.923   4.707
32535W        W 4261   5.089  40.087   5.069
32536W        W 4262  36.116   1.442   1.721
32537W        W 4263   6.642   5.925  14.565
32538W        W 4264  32.109  26.469  10.132
32539W        W 4265  39.499  13.092  12.440
32540W        W 4266  16.885  10.798  10.627
32541W        W 4267   2.945  44.948   0.374
32542W        W 4268  21.217  31.794  13.718
32543W        W 4269  40.484  23.677  11.695
32544W        W 4270  28.725  38.986  11.527
32545W        W 4271  27.049  35.798   2.776
32546W        W 4272  24.480  31.398   2.767
32547W        W 4273  28.341  44.074   4.287
32548W        W 4274   1.701  35.551  11.907
32549W        W 4275  18.252  32.856   3.108
32550W        W 4276   8.198   5.009   4.218
32551W        W 4277  16.576  19.562  11.947
32552W        W 4278  22.179  16.206   2.290
32553W        W 4279  13.885  17.244  13.267
32554W        W 4280   4.382  20.616   2.744
32555W        W 4281  36.393   1.668  13.962
32556W        W 4282  41.721   1.971   3.200
32557W        W 4283   2.280  30.013  10.512
32558W        W 4284  44.418  34.473   4.134
32559W        W 4285  10.195  18.165  11.711
32560W        W 4286  42.039   4.391  12.221
32561W        W 4287   6.414  28.680   0.531
32562W        W 4288   8.059  42.478  11.192
32563W        W 4289  16.205  21.165   0.653
32564W        W 4290  30.126  34.637  13.843
32565W        W 4291  23.241  25.307  14.755
32566W        W 4292  35.904  26.916   4.157
32567W        W 4293  25.485   6.669  12.602
32568W        W 4294  32.950  43.443  11.214
32569W        W 4295  13.046   5.791   3.688
32570W        W 4296  37.488  34.631   3.836
32571W        W 4297  35.640   2.797   3.786
32572W        W 4298  38.357  13.716  12.897
32573W        W 4299  27.258  18.695   0.496
32574W        W 4300  25.428  40.398  13.349
32575W        W 4301  19.718  19.151   0.318
32576W        W 4302  33.080  43.781   1.296
32577W        W 4303   3.598   4.544   0.858
32578W        W 4304   5.773   4.010   5.511
32579W        W 4305  23.542  24.028   1.343
32580W        W 4306  30.614  10.659  13.871
32581W        W 4307   7.848  33.999   2.242
32582W        W 4308  36.984  33.163   1.856
32583W        W 4309  36.446  10.871   0.244
32584W        W 4310  20.972   9.170   1.655
32585W        W 4311  40.495  33.699   1.443
32586W        W 4312  12.800  22.937  14.616
32587W        W 4313   0.496  43.285   0.330
32588W        W 4314  42.471  30.217   4.310
32589W        W 4315  16.195  24.146   3.998
32590W        W 4316  25.036   0.387  13.004
32591W        W 4317   6.962  14.460  11.005
32592W        W 4318  20.679  23.464   2.212
32593W        W 4319  42.997  10.078   1.822
32594W        W 4320  34.505  37.389  12.424
32595W        W 4321  14.868  41.803   4.337
32596W        W 4322  15.772  19.608   1.264
32597W        W 4323  42.258   7.398  12.711
32598W        W 4324  10.200  10.914  13.541
32599W        W 4325  17.353  39.371  14.806
32600W        W 4326  34.079   3.760   1.153
32601W        W 4327  36.344  19.496  13.431
32602W        W 4328  10.033   9.227  12.916
32603W        W 4329   4.869  16.083   2.695
32604W        W 4330  12.552  13.230  10.756
32605W        W 4331  38.641   4.902   4.172
32606W        W 4332   8.880  39.609   0.929
32607W        W 4333  23.442  17.121  12.932
32608W        W 4334   2.712  28.998  14.355
32609W        W 4335  15.227  13.104   1.908
32610W        W 4336  41.033  36.010   1.901
32611W        W 4337  11.129  30.040   4.437
32612W        W 4338  33.037  32.049   3.263
32613W        W 4339  26.017   6.218   0.302
32614W        W 4340  17.201   4.524   0.774
32615W        W 4341  19.721  14.170  13.522
32616W        W 4342  33.039  40.491   0.963
32617W        W 4343   6.210  22.121   4.024
32618W        W 4344  11.785  26.297   2.474
32619W        W 4345  40.106  26.891   3.297
32620W        W 4346  10.833  26.563  10.734
32621W        W 4347  19.469  31.403  11.974
32622W        W 4348  18.490  12.358  13.557
32623W        W 4349  15.637  23.636  12.796
32624W        W 4350  16.591  17.771  12.647
32625W        W 4351  38.628   9.425   2.806
32626W        W 4352  30.945  32.095  11.128
32627W        W 4353   5.784  30.825   2.294
32628W        W 4354  24.621  10.730   0.161
32629W        W 4355  42.526  28.453  13.458
32630W        W 4356  11.565  32.086  13.562
32631W        W 4357  24.153  39.196  13.434
32632W        W 4358   2.840  19.228  13.433
32633W        W 4359  19.065  41.424   4.183
32634W        W 4360  26.897  37.326   1.337
32635W        W 4361  23.707  44.059   1.711
32636W        W 4362  27.854  40.384   2.421
32637W        W 4363  15.395   9.360  11.510
32638W        W 4364  30.893  20.740  14.012
32639W        W 4365   4.818  15.172  12.201
32640W        W 4366  27.983  11.162   3.704
32641W        W 4367  38.492  25.202  14.050
32642W        W 4368  25.713  36.671   1.509
32643W        W 4369  31.960  29.644   3.123
32644W        W 4370  30.542   9.483   2.177
32645W        W 4371  39.481  12.534   1.868
32646W        W 4372  40.499  26.018   2.240
32647W        W 4373   7.445   3.198   5.098
32648W        W 4374  37.314  27.735   0.257
32649W        W 4375  35.033  21.997   2.226
32650W        W 4376   3.709  26.844   0.176
32651W        W 4377   8.564  20.663   3.696
32652W        W 4378  20.935  27.293  10.582
32653W        W 4379  31.126  15.222  11.913
32654W        W 4380  15.598  40.279  11.943
32655W        W 4381  12.301  35.321  11.546
32656W        W 4382  30.662   7.648  11.157
32657W        W 4383  35.503   3.634   4.448
32658W        W 4384  19.628  40.818  13.850
32659W        W 4385  15.010  38.259   4.554
32660W        W 4386  12.783   4.705   4.210
32661W        W 4387   6.911  14.356  10.084
32662W        W 4388   4.930  32.481  13.163
32663W        W 4389  30.595  35.172  10.541
32664W        W 4390  40.037  44.868   0.001
32665W        W 4391  25.527  21.120  11.195
32666W        W 4392  14.769   7.284   2.271
32667W        W 4393   4.467  42.087   0.173
32668W        W 4394   9.239   0.060   0.289
32669W        W 4395  20.172  36.223  11.124
32670W        W 4396   6.321   8.621  13.805
32671W        W 4397  26.385  35.317  14.943
32672W        W 4398  44.605   4.713  11.196
32673W        W 4399  44.750  39.783  14.508
32674W        W 4400   1.094  18.957   2.763
32675W        W 4401   7.359  20.066   2.530
32676W        W 4402   6.749  13.116   9.633
32677W        W 4403   3.872  40.652   3.080
32678W        W 4404  33.158  33.671   0.276
32679W        W 4405  26.374  41.487   0.872
32680W        W 4406  34.550   1.053   0.371
32681W        W 4407  39.370  25.592  13.751
32682W        W 4408  20.115   2.219  10.491
32683W        W 4409  33.512  31.129   1.062
32684W        W 4410  22.083  20.151   4.749
32685W        W 4411  30.130  28.666  13.547
32686W        W 4412  23.704  15.373  12.339
32687W        W 4413   8.772   4.902   3.195
32688W        W 4414  22.284   3.009  12.888
32689W        W 4415  14.182   4.964  10.913
32690W        W 4416  23.325   9.739  11.954
32691W        W 4417  27.030   8.670  12.465
32692W        W 4418  10.405  14.225   3.078
32693W        W 4419   7.801  34.520  11.151
32694W        W 4420  10.626   1.892   0.910
32695W        W 4421  29.897  27.083  12.514
32696W        W 4422  44.402  42.423  13.804
32697W        W 4423  22.744  22.428  13.393
32698W        W 4424  35.781  14.610  12.062
32699W        W 4425  33.345  27.837   3.671
32700W        W 4426  38.049  10.109   0.861
32701W        W 4427  33.684  42.556   0.363
32702W        W 4428  16.452  36.268  12.684
32703W        W 4429  26.575  30.627   3.340
32704W        W 4430  37.353   3.742   1.315
32705W        W 4431  13.249  23.092   4.192
32706W        W 4432  36.750  17.412  11.101
32707W        W 4433  40.458  44.550   4.131
32708W        W 4434  15.412   6.386   0.361
32709W        W 4435  27.936  18.617  12.001
32710W        W 4436  12.338  24.228   2.114
32711W        W 4437  35.582  19.240   0.300
32712W        W 4438  30.418  36.726  10.959
32713W        W 4439  12.318  23.677   0.884
32714W        W 4440  42.926  34.121   3.044
32715W        W 4441  40.875  11.126   4.472
32716W        W 4442  42.478   2.244   0.024
32717W        W 4443  25.133   7.190  12.759
32718W        W 4444  12.115  21.214   1.232
32719W        W 4445  12.622  40.437  13.850
32720W        W 4446  29.426  23.456   3.439
32721W        W 4447  34.436  15.654  11.179
32722W        W 4448  37.950   4.929   3.609
32723W        W 4449  13.314   2.445   4.820
32724W        W 4450  21.563   9.557  11.683
32725W        W 4451  44.531  42.450  10.761
32726W        W 4452  30.365  20.523  11.126
32727W        W 4453   9.822   7.237  14.653
32728W        W 4454  21.210  40.887  10.584
32729W        W 4455  24.093  26.967   1.280
32730W        W 4456  23.462  44.795   2.318
32731W        W 4457  28.656  32.057  14.457
32732W        W 4458   5.276  44.627   4.033
32733W        W 4459   3.591   7.214   4.143
32734W        W 4460  16.276  12.790   5.096
32735W        W 4461  31.085  16.715   0.905
32736W        W 4462   6.372  13.787   2.124
32737W        W 4463  16.133  35.491   0.918
32738W        W 4464  44.256   9.700  12.919
32739W        W 4465   0.920  30.122   4.554
32740W        W 4466  20.771   9.625  13.138
32741W        W 4467  38.540  28.255  13.673
32742W        W 4468   1.908  43.310   1.261
32743W        W 4469  14.431  14.754  12.534
32744W        W 4470  11.139   7.788   2.827
32745W        W 4471  42.588  20.525   2.678
32746W        W 4472   5.336  29.171  12.361
32747W        W 4473  40.002  20.833   1.607
32748W        W 4474   0.860  28.883   4.595
32749W        W 4475  25.142   9.339   0.416
32750W        W 4476  16.750  25.421  14.853
32751W        W 4477  22.117  42.470   3.891
32752W        W 4478   1.772  13.726   3.251
32753W        W 4479  31.005  29.398  12.199
32754W        W 4480  37.747  30.568   1.854
32755W        W 4481  29.121  25.260  11.467
32756W        W 4482  28.311  14.501  10.812
32757W        W 4483  18.209  33.030   4.511
32758W        W 4484   8.207  20.469   0.034
32759W        W 4485  25.028  25.693   0.648
32760W        W 4486   6.259  29.904  11.573
32761W        W 4487  25.229   1.465  10.285
32762W        W 4488  13.476   9.380   4.242
32763W        W 4489  44.740  17.627   0.321
32764W        W 4490  37.269   1.883  14.233
32765W        W 4491  24.354  29.908   3.125
32766W        W 4492  30.535   9.912  11.905
32767W        W 4493  30.340  36.399   3.426
32768W        W 4494   3.853  23.565   2.842
32769W        W 4495  39.500  35.390  13.627
32770W        W 4496  11.753  31.736  12.628
32771W        W 4497  37.477  31.473   3.785
32772W        W 4498  44.153  31.487   4.473
32773W        W 4499  38.444  13.386  13.804
32774W        W 4500   2.767  25.053   3.525
32775W        W 4501  34.316  35.034   2.209
32776W        W 4502  27.117  22.308   0.223
32777W        W 4503  42.486  21.882  14.925
32778W        W 4504  20.023  28.138  12.438
32779W        W 4505  44.477   2.987  13.066
32780W        W 4506  17.967   0.209   2.383
32781W        W 4507  26.815  42.018  13.024
32782W        W 4508  41.692  30.173  12.077
32783W        W 4509  40.713   1.869   2.428
32784W        W 4510   2.978  28.568  10.880
32785W        W 4511  27.483  12.146   0.299
32786W        W 4512  17.655  13.049  14.411
32787W        W 4513   0.912  36.431   1.681
32788W        W 4514  38.502   8.851  14.290
32789W        W 4515  41.967  13.692   0.868
32790W        W 4516   0.820  27.760  13.576
32791W        W 4517   2.907  28.194   0.855
32792W        W 4518  18.384  16.344   0.884
32793W        W 4519  39.907  42.923   4.693
32794W        W 4520  35.367  31.378   1.819
32795W        W 4521   7.888  37.387  10.611
32796W        W 4522  38.509   4.457   4.888
32797W        W 4523  20.324   1.942  11.119
32798W        W 4524  23.034  33.820   0.192
32799W        W 4525  10.280  19.212   3.401
32800W        W 4526  19.553  43.451   2.425
32801W        W 4527  24.675  27.525  13.801
32802W        W 4528   9.129  44.303  13.463
32803W        W 4529  26.284  35.116   3.848
32804W        W 4530  34.494  41.002  11.164
32805W        W 4531  32.608  23.710   5.122
32806W        W 4532  16.810  37.345  11.674
32807W        W 4533  24.012  44.066  14.772
32808W        W 4534  12.665  23.426  14.471
32809W        W 4535  21.974  20.191   2.650
32810W        W 4536  40.062  15.732  13.986
32811W        W 4537   1.890   7.933   0.051
32812W        W 4538  10.372  34.041  12.130
32813W        W 4539  11.631  40.878   3.200
32814W        W 4540  44.761  21.598   4.426
32815W        W 4541  20.074  13.548   1.897
32816W        W 4542  16.981  13.045  11.179
32817W        W 4543  24.604  28.677   2.147
32818W        W 4544  31.743  13.821   4.140
32819W        W 4545   6.898   3.999   9.743
32820W        W 4546  25.453   4.174   4.212
32821W        W 4547  10.726  43.913   1.592
32822W        W 4548  29.964   1.660   3.832
32823W        W 4549   7.066  33.012  11.300
32824W        W 4550  39.904  39.342   0.341
32825W        W 4551  38.296  43.983  13.980
32826W        W 4552  15.638  38.295   9.780
32827W        W 4553  43.790  29.889  14.262
32828W        W 4554   5.965  31.096   2.699
32829W        W 4555   0.267   5.658  12.017
32830W        W 4556  10.911  25.745   3.142
32831W        W 4557  42.239   7.038  14.295
32832W        W 4558   9.356  31.881   0.633
32833W        W 4559   9.409  25.664   4.228
32834W        W 4560  20.681  16.872   1.416
32835W        W 4561  19.701  21.256   4.706
32836W        W 4562  39.151  15.281  12.961
32837W        W 4563  40.470  29.024  14.771
32838W        W 4564   1.818  41.864  11.604
32839W        W 4565  20.098   2.036  14.474
32840W        W 4566  33.201  42.937  13.374
32841W        W 4567  41.799   8.598  14.450
32842W        W 4568  23.850  42.090  11.971
32843W        W 4569   5.168   2.042  13.910
32844W        W 4570  12.386  34.822  11.550
32845W        W 4571   8.431   4.254   5.504
32846W        W 4572  22.992  43.971   3.299
32847W        W 4573  15.865  42.892  11.499
32848W        W 4574  41.957  24.724   3.295
32849W        W 4575  31.400  40.797  13.404
32850W        W 4576  17.588  33.469  12.926
32851W        W 4577  32.849  29.461  12.933
32852W        W 4578  38.613  16.560  13.000
32853W        W 4579  32.881  42.773   2.240
32854W        W 4580  35.565   5.733  13.433
32855W        W 4581  31.097  29.705  10.835
32856W        W 4582  28.453  33.459  13.084
32857W        W 4583  21.623  12.864   9.752
32858W        W 4584  23.640  14.583   4.586
32859W        W 4585  22.080  29.910   1.760
32860W        W 4586   0.983   1.193  12.596
32861W        W 4587   7.801  20.166  11.105
32862W        W 4588  15.360  38.610   4.430
32863W        W 4589  30.075  44.428   4.111
32864W        W 4590  44.476   5.980  14.959
32865W        W 4591  20.095  39.845  13.392
32866W        W 4592  40.526  18.819  14.886
32867W        W 4593  29.199  10.338  14.490
32868W        W 4594  42.556  38.806   4.614
32869W        W 4595  36.371  35.476   0.221
32870W        W 4596   3.248  42.736  12.466
32871W        W 4597   4.287  23.093   1.325
32872W        W 4598  13.431   8.804   2.336
32873W        W 4599  29.474  43.319   3.666
32874W        W 4600  35.564   2.434  14.481
32875W        W 4601  36.343  13.561   4.648
32876W        W 4602  13.970  10.880   4.101
32877W        W 4603  19.839  21.105   4.246
32878W        W 4604  20.126  20.030  13.965
32879W        W 4605  41.776  19.779   4.132
32880W        W 4606  22.611  32.331   0.916
32881W        W 4607   2.786  42.517   3.720
32882W        W 4608  12.509  12.196  11.838
32883W        W 4609  39.716  15.297  11.981
32884W        W 4610  13.044   5.866   2.448
32885W        W 4611   6.686  11.116  14.977
32886W        W 4612  33.487  21.208   3.585
32887W        W 4613  35.037   9.404   4.209
32888W        W 4614  28.177  35.758   3.975
32889W        W 4615   8.944  36.124  11.802
32890W        W 4616  30.652   9.074  14.905
32891W        W 4617  41.475  42.614  10.672
32892W        W 4618  22.640   6.179  14.767
32893W        W 4619  17.216   0.902   0.652
32894W        W 4620  26.180   7.665  12.574
32895W        W 4621  28.146  42.374  13.182
32896W        W 4622  31.268  25.983   4.503
32897W        W 4623  40.802   7.192   1.237
32898W        W 4624  29.058  16.590   2.331
32899W        W 4625   1.684  10.394   1.847
32900W        W 4626   3.199  24.958   4.294
32901W        W 4627  44.279  28.439   2.872
32902W        W 4628  31.538  26.218   5.431
32903W        W 4629  23.736  39.899   4.854
32904W        W 4630   3.774  14.141  14.538
32905W        W 4631  23.277   5.053   0.192
32906W        W 4632  31.370  34.810   0.852
32907W        W 4633   0.694   5.799  10.829
32908W        W 4634  17.593  36.976   4.052
32909W        W 4635  19.557  14.623  13.728
32910W        W 4636   5.336   5.800  12.723
32911W        W 4637  24.218  24.731  11.696
32912W        W 4638   7.633  37.971  14.217
32913W        W 4639   3.572  41.431  13.292
32914W        W 4640  11.759   7.781   0.032
32915W        W 4641  19.991  17.857   4.950
32916W        W 4642  43.232  24.630  13.513
32917W        W 4643   7.300  37.764   0.531
32918W        W 4644  18.844  36.162  10.897
32919W        W 4645  26.316   6.337   0.719
32920W        W 4646   4.275   0.891   1.109
32921W        W 4647  21.171  12.471   2.862
32922W        W 4648  14.873   4.885  12.586
32923W        W 4649  22.810   0.736  12.432
32924W        W 4650   8.445  27.257  13.881
32925W        W 4651  39.312  22.681  13.841
32926W        W 4652  29.718   5.294   2.652
32927W        W 4653  23.274  43.613  13.663
32928W        W 4654  40.463  29.097  12.420
32929W        W 4655  42.455  25.712  11.112
32930W        W 4656  12.312  38.773  12.491
32931W        W 4657  39.317  20.518   3.624
32932W        W 4658  22.755  44.798  14.322
32933W        W 4659  35.063   1.117  12.499
32934W        W 4660  20.204  31.836  14.071
32935W        W 4661  35.574   1.212  12.578
32936W        W 4662   3.970  43.239  12.435
32937W        W 4663  24.668   7.463  12.006
32938W        W 4664  38.506   9.274   3.291
32939W        W 4665   6.634  17.257   1.952
32940W        W 4666  44.397   7.635   3.643
32941W        W 4667  13.269  32.746   4.694
32942W        W 4668  29.422  12.866  14.453
32943W        W 4669  17.816  15.726   4.359
32944W        W 4670   0.472  16.353   3.921
32945W        W 4671  33.089  14.346  12.486
32946W        W 4672  11.214   8.465  11.648
32947W        W 4673  34.744  18.968   3.727
32948W        W 4674   5.322  14.861  11.575
32949W        W 4675   9.311   7.022  11.986
32950W        W 4676  29.653   0.815   3.674
32951W        W 4677   2.069   5.763   0.462
32952W        W 4678  27.362   0.400  11.654
32953W        W 4679   5.969  24.017  14.744
32954W        W 4680   4.816  29.731  14.403
32955W        W 4681  28.433  26.172   1.166
32956W        W 4682  38.976   9.922   4.571
32957W        W 4683  12.670  42.373  10.991
32958W        W 4684  19.609   1.834   2.245
32959W        W 4685  28.949  33.519  12.877
32960W        W 4686  11.441  41.262  12.138
32961W        W 4687   1.261  43.923  11.139
32962W        W 4688  14.838  32.165  13.964
32963W        W 4689  42.326  25.201  11.099
32964W        W 4690  22.825  13.701  12.500
32965W        W 4691  26.174  10.435  12.141
32966W        W 4692  26.902  34.415   0.992
32967W        W 4693  19.639  33.385   0.025
32968W        W 4694   6.325   5.916  12.358
32969W        W 4695  34.938  36.580   0.918
32970W        W 4696  27.179  18.030  10.954
32971W        W 4697  31.494   2.377  10.902
32972W        W 4698  22.044  14.773  12.384
32973W        W 4699  28.647  35.037   0.474
32974W        W 4700  14.801  29.612   2.962
32975W        W 4701  24.460  12.744   1.911
32976W        W 4702   0.501  21.623  14.513
32977W        W 4703  37.283   3.688  11.439
32978W        W 4704  37.350  21.957   4.609
32979W        W 4705   7.389  40.797  14.936
32980W        W 4706  28.599  18.721   0.151
32981W        W 4707  23.324   1.282   0.025
32982W        W 4708  10.444  21.015   4.099
32983W        W 4709  37.563  10.606  11.811
32984W        W 4710  44.590   1.890  13.903
32985W        W 4711  23.543  41.143  10.641
32986W        W 4712  40.772  30.137  11.669
32987W        W 4713  37.041  27.633   4.535
32988W        W 4714  30.187  25.035  11.899
32989W        W 4715  22.256  37.871  10.731
32990W        W 4716  23.577  19.327  10.819
32991W        W 4717  20.077  10.864  13.398
32992W        W 4718  39.504  14.385   0.713
32993W        W 4719   0.966   8.890  11.533
32994W        W 4720  17.263  25.923  10.563
32995W        W 4721  39.479  10.737  10.420
32996W        W 4722  42.297   8.434   2.806
32997W        W 4723   9.332  12.137   2.710
32998W        W 4724  37.927  15.364   1.862
32999W        W 4725  40.470  41.397  14.449
33000W        W 4726  41.416  12.620   1.131
33001W        W 4727  20.716   2.240   1.246
33002W        W 4728  15.320  31.993   4.884
33003W        W 4729   1.303  36.177  11.548
33004W        W 4730  18.189  20.285  14.810
33005W        W 4731  20.224  33.022   1.045
33006W        W 4732  30.639  22.994  11.079
33007W        W 4733  16.053  13.313  13.031
33008W        W 4734  17.273  15.314   3.211
33009W        W 4735  43.497  42.893   3.341
33010W        W 4736  19.032   4.993  12.886
33011W        W 4737  22.267   8.918  12.994
33012W        W 4738  37.998   4.268  13.380
33013W        W 4739   9.717   3.023   1.777
33014W        W 4740  22.893   6.909  12.716
33015W        W 4741  41.322   7.794  14.796
33016W        W 4742  18.341  44.372  12.871
33017W        W 4743   4.383  18.793   3.175
33018W        W 4744   2.674   0.841  14.776
33019W        W 4745  25.974  22.657  14.232
33020W        W 4746  19.716  37.249   4.918
33021W        W 4747  36.059  20.352   3.329
33022W        W 4748  14.618  26.728  10.935
33023W        W 4749  14.473  39.110   4.203
33024W        W 4750  42.362  40.643  14.576
33025W        W 4751  41.803  35.223  10.203
33026W        W 4752  14.747  38.734   3.916
33027W        W 4753   5.421  37.550   4.919
33028W        W 4754  10.665  42.942  10.245
33029W        W 4755  40.300  22.953  13.925
33030W        W 4756  43.037  10.231  10.627
33031W        W 4757  38.583  23.191  11.030
33032W        W 4758  41.941  13.946   1.333
33033W        W 4759  19.716  15.808  12.875
33034W        W 4760  29.433  14.403   1.728
33035W        W 4761  28.042  17.677  14.358
33036W        W 4762  16.119   7.469  14.490
33037W        W 4763  25.676  34.648  11.036
33038W        W 4764   6.220  17.755  14.458
33039W        W 4765  30.597  39.747  12.366
33040W        W 4766   2.477  18.074  11.703
33041W        W 4767  25.324  14.701  12.413
33042W        W 4768  22.187  10.233  10.195
33043W        W 4769  25.611  14.865  13.388
33044W        W 4770  28.203  27.072  11.661
33045W        W 4771  25.698  18.644   2.926
33046W        W 4772   5.828  35.934   0.263
33047W        W 4773  39.109  15.015   4.562
33048W        W 4774   2.797  16.605  10.608
33049W        W 4775  22.747  21.671  11.118
33050W        W 4776   4.831  37.045   0.907
33051W        W 4777  14.857  23.687  14.761
33052W        W 4778  29.289  22.189  13.362
33053W        W 4779  31.928  24.596  11.112
33054W        W 4780  24.123  43.461  13.092
33055W        W 4781  30.110  27.155   1.814
33056W        W 4782  36.417  11.872  12.424
33057W        W 4783   3.203  40.137   0.843
33058W        W 4784   7.919  22.761   4.524
33059W        W 4785  13.877   7.078  11.765
33060W        W 4786  21.554  18.013  11.149
33061W        W 4787   0.549  19.210  11.524
33062W        W 4788  38.573  32.837   2.679
33063W        W 4789   8.932  13.462  12.628
33064W        W 4790  11.099  34.888  12.654
33065W        W 4791  43.743  21.685  12.278
33066W        W 4792   0.738  21.172   2.269
33067W        W 4793   1.197  40.120   2.873
33068W        W 4794   3.152  33.198   1.670
33069W        W 4795   6.121  44.886   2.294
33070W        W 4796  14.553  36.019  12.452
33071W        W 4797  13.575  44.989   3.184
33072W        W 4798  33.935  17.743   1.024
33073W        W 4799   8.287   1.203   2.361
33074W        W 4800  26.600  16.112   0.212
33075W        W 4801   4.447   7.877   0.426
33076W        W 4802   1.718  32.625  10.990
33077W        W 4803  27.516   4.792  12.153
33078W        W 4804  44.136   0.359  11.454
33079W        W 4805  38.563   8.944   1.366
33080W        W 4806  23.714  17.056   1.337
33081W        W 4807  30.084  41.867   0.989
33082W        W 4808  35.242  12.514   0.321
33083W        W 4809   5.562  42.437   0.415
33084W        W 4810   4.292  36.113  10.540
33085W        W 4811  11.676   5.475  11.612
33086W        W 4812  32.064  40.477   2.835
33087W        W 4813  26.978  30.740   1.687
33088W        W 4814  33.939  14.163   4.583
33089W        W 4815  20.529  29.574  13.578
33090W        W 4816  15.608  35.436   0.866
33091W        W 4817  15.007  41.309   0.726
33092W        W 4818  27.973  44.357  12.164
33093W        W 4819  28.316  33.595   2.497
33094W        W 4820  18.258   1.957   0.382
33095W        W 4821  25.071   1.261  11.147
33096W        W 4822   5.023   8.076  12.390
33097W        W 4823   2.133   0.496  11.122
33098W        W 4824  21.744  37.120  12.774
33099W        W 4825  26.154  34.675  14.362
33100W        W 4826  32.435  15.029  13.815
33101W        W 4827  28.673  43.728   4.094
33102W        W 4828  33.589  31.984  10.795
33103W        W 4829  39.030  13.214   3.940
33104W        W 4830  39.391  43.075   3.456
33105W        W 4831  22.742  27.683  14.007
33106W        W 4832   6.345   9.684   3.702
33107W        W 4833  18.898  40.282   0.192
33108W        W 4834  41.064  21.518   1.643
33109W        W 4835  30.998  13.000  14.774
33110W        W 4836   1.406  11.922   0.337
33111W        W 4837   6.814  36.626  11.116
33112W        W 4838   6.344   1.960   2.866
33113W        W 4839  21.544  39.277   1.825
33114W        W 4840  26.969   8.900   0.411
33115W        W 4841  37.493  10.815   1.837
33116W        W 4842  28.908  41.525  11.923
33117W        W 4843  40.173  41.884   4.688
33118W        W 4844   4.533   2.606   0.801
33119W        W 4845  20.664  15.699  11.729
33120W        W 4846  17.073  24.366  11.928
33121W        W 4847  43.207  16.594  12.400
33122W        W 4848  21.077   4.110   3.416
33123W        W 4849  29.028  35.050  12.830
33124W        W 4850  24.368  25.975   5.481
33125W        W 4851   0.773  33.158  10.680
33126W        W 4852  38.487  26.191  10.667
33127W        W 4853  33.615  15.667   4.863
33128W        W 4854  40.574   4.473   2.122
33129W        W 4855   9.629   8.719  10.735
33130W        W 4856  27.216   5.310  12.918
33131W        W 4857  16.146  41.258   1.251
33132W        W 4858  34.478  33.098   1.478
33133W        W 4859  42.005  23.247   0.680
33134W        W 4860   6.236   3.772   2.366
33135W        W 4861  30.667  37.457  13.004
33136W        W 4862  21.130  21.142  14.347
33137W        W 4863  27.558  30.179   4.798
33138W        W 4864  13.861  31.903   0.974
33139W        W 4865  21.570  23.975   0.869
33140W        W 4866   9.211  33.975  14.491
33141W        W 4867  17.633  28.549  12.569
33142W        W 4868  31.743  19.309  12.962
33143W        W 4869  31.684  32.388   4.595
33144W        W 4870  36.363  34.468  10.439
33145W        W 4871  38.285  32.353  14.570
33146W        W 4872  29.124  35.629  10.782
33147W        W 4873  41.914  40.390  14.281
33148W        W 4874  10.867  10.473   2.650
33149W        W 4875  15.839  32.616   4.320
33150W        W 4876  21.652  27.479  12.846
33151W        W 4877  21.206  24.605   0.355
33152W        W 4878  38.901  15.720   3.552
33153W        W 4879  42.798  22.607  12.366
33154W        W 4880   9.787  24.237  12.166
33155W        W 4881  35.042  20.292  13.348
33156W        W 4882  37.817  39.317   3.284
33157W        W 4883   2.206   1.391  14.063
33158W        W 4884   9.799  26.355  10.561
33159W        W 4885   6.320   4.289   5.434
33160W        W 4886  15.997  28.366   3.253
33161W        W 4887  35.001  41.844  12.511
33162W        W 4888  20.332  43.247  14.339
33163W        W 4889  18.548  36.522  10.635
33164W        W 4890   5.883  17.045   3.328
33165W        W 4891   1.364  13.403   4.095
33166W        W 4892   1.253  38.052   4.234
33167W        W 4893  44.277  18.119  10.264
33168W        W 4894  35.098  22.216   1.215
33169W        W 4895  41.500  38.481  12.492
33170W        W 4896  11.687  24.067  10.885
33171W        W 4897  17.412   6.954  14.456
33172W        W 4898  33.018  27.187  10.627
33173W        W 4899  24.536  13.119  10.648
33174W        W 4900  39.821  28.955  12.685
33175W        W 4901  20.814  27.486   0.380
33176W        W 4902  14.184  10.696  13.768
33177W        W 4903  21.786  35.891   0.525
33178W        W 4904   5.769   4.939  10.801
33179W        W 4905  20.139  27.663  11.761
33180W        W 4906   6.770   3.795   2.235
33181W        W 4907  21.697  37.535  12.000
33182W        W 4908  22.591   0.584   4.244
33183W        W 4909   2.544   7.304  13.111
33184W        W 4910   3.103  17.236   0.351
33185W        W 4911   2.492  36.309  13.314
33186W        W 4912  23.488   0.745   2.284
33187W        W 4913  22.720  39.011   0.064
33188W        W 4914  10.963   7.739   4.177
33189W        W 4915  28.913   7.332   2.320
33190W        W 4916  30.870  34.362   4.630
33191W        W 4917   5.326  40.004  10.985
33192W        W 4918  22.438  42.503  12.148
33193W        W 4919  24.764  27.025   5.334
33194W        W 4920  20.798  31.295   0.481
33195W        W 4921   6.652   7.663  10.614
33196W        W 4922  23.752  43.022   1.639
33197W        W 4923  12.329  38.549  13.391
33198W        W 4924   6.831   0.852   3.687
33199W        W 4925   8.633  43.124   1.900
33200W        W 4926  16.820   4.528  11.147
33201W        W 4927   7.282  10.189   3.226
33202W        W 4928  11.343  22.704  13.421
33203W        W 4929  41.386  43.168   4.280
33204W        W 4930  44.387  20.361  12.928
33205W        W 4931  38.015  21.816   3.230
33206W        W 4932  12.216  35.670  14.255
33207W        W 4933  14.942  19.233   1.986
33208W        W 4934  17.257   7.792   0.444
33209W        W 4935   3.376  18.364  13.074
33210W        W 4936   5.840  44.032   0.821
33211W        W 4937  17.011  43.389   0.625
33212W        W 4938  33.425  12.978   5.388
33213W        W 4939   4.218  35.571  14.444
33214W        W 4940  28.684  38.125  13.925
33215W        W 4941  17.274   6.213   3.332
33216W        W 4942  40.362   2.175  11.662
33217W        W 4943  27.511   8.683   4.470
33218W        W 4944   4.409  20.780  12.447
33219W        W 4945   0.807   2.219  12.508
33220W        W 4946  26.458  22.211  13.819
33221W        W 4947  40.283  14.915  11.627
33222W        W 4948  42.218   9.680  12.971
33223W        W 4949  35.898   7.665  12.187
33224W        W 4950   5.360  43.650   2.256
33225W        W 4951  26.657  13.382   2.466
33226W        W 4952  39.582  22.736   3.648
33227W        W 4953   7.843  43.244   3.340
33228W        W 4954  26.005  23.484  11.911
33229W        W 4955   2.755  26.160  12.202
33230W        W 4956  23.347   4.788   3.916
33231W        W 4957   4.941  33.907  12.954
33232W        W 4958  34.862   3.611  12.676
33233W        W 4959  20.997   1.431   4.942
33234W        W 4960   3.347  17.038   0.805
33235W        W 4961  13.861  40.574   1.561
33236W        W 4962  30.708  29.045   0.692
33237W        W 4963  22.972  40.985  13.898
33238W        W 4964   7.677  12.246  12.077
33239W        W 4965  29.934   2.537  10.668
33240W        W 4966   4.236  30.088  11.532
33241W        W 4967  35.663  34.107   2.911
33242W        W 4968  40.709  23.531  10.746
33243W        W 4969  21.624  41.754   0.195
33244W        W 4970  35.299   6.426   3.666
33245W        W 4971  27.640  16.796   2.241
33246W        W 4972  23.457   3.070  10.569
33247W        W 4973  33.152  23.253  14.275
33248W        W 4974  17.138  27.239   4.555
33249W        W 4975  20.249  42.019  11.468
33250W        W 4976   6.263   6.373   0.850
33251W        W 4977  22.345  33.964  14.525
33252W        W 4978  10.649  42.908  12.783
33253W        W 4979  34.813  33.224  12.064
33254W        W 4980  38.477   1.855   3.877
33255W        W 4981  41.719  17.600  10.605
33256W        W 4982   8.959   6.513   0.800
33257W        W 4983   6.627   0.280  11.940
33258W        W 4984  14.693  38.496   1.815
33259W        W 4985   1.919   9.213  14.416
33260W        W 4986  44.518  26.424  10.209
33261W        W 4987  32.612   7.586  14.896
33262W        W 4988  36.915   9.879   3.674
33263W        W 4989  43.375  33.728   4.586
33264W        W 4990  36.553  27.971   1.725
33265W        W 4991  37.133  12.430  12.085
33266W        W 4992  44.547  39.566  10.664
33267W        W 4993  11.650  14.351  12.353
33268W        W 4994  10.645  37.469  12.559
33269W        W 4995  40.979  10.126  12.953
33270W        W 4996   2.998  11.756  12.200
33271W        W 4997  42.457  40.499  11.029
33272W        W 4998  11.905  19.582   0.741
33273W        W 4999  44.986  27.917   4.190
33274W        W 5000  37.007  18.001   0.447
33275W        W 5001  39.142  19.678   2.156
33276W        W 5002   0.918  24.542  10.594
33277W        W 5003  17.391   7.633  10.668
33278W        W 5004   7.665  14.511   2.176
33279W        W 5005  19.135  29.972  12.163
33280W        W 5006  10.702  41.849  12.607
33281W        W 5007   3.317  15.759  14.517
33282W        W 5008   0.996  11.393  13.122
33283W        W 5009  16.743  18.497  14.961
33284W        W 5010  31.681  20.228  10.783
33285W        W 5011  18.114   0.498   1.988
33286W        W 5012  11.737   2.757  12.752
33287W        W 5013  38.283   0.987  13.879
33288W        W 5014  24.431   4.939  10.782
33289W        W 5015  44.757  15.334   3.299
33290W        W 5016  44.448  25.001  12.241
33291W        W 5017  44.163  25.001  12.652
33292W        W 5018  24.382  25.736   4.094
33293W        W 5019  19.488  12.688   4.899
33294W        W 5020  40.988  12.318  11.983
33295W        W 5021  15.037  28.043   2.151
33296W        W 5022  37.760  29.648   0.037
33297W        W 5023  15.025  40.791  14.693
33298W        W 5024  22.153  32.403  12.259
33299W        W 5025  25.740  14.727  10.701
33300W        W 5026  15.140  17.162   4.163
33301W        W 5027  29.472   7.974   2.977
33302W        W 5028  31.572  11.799   4.201
33303W        W 5029  40.195  28.130   2.708
33304W        W 5030  21.369  16.081   1.773
33305W        W 5031  24.403  28.063  11.597
33306W        W 5032  36.967  20.539  11.624
33307W        W 5033   7.585  27.582  14.080
33308W        W 5034  41.671  43.340  13.897
33309W        W 5035  22.461  32.675   3.244
33310W        W 5036  13.123  23.915   3.162
33311W        W 5037  43.554  29.187   1.853
33312W        W 5038  24.522  40.704  13.177
33313W        W 5039  26.454  15.786   4.554
33314W        W 5040   7.793  38.828  13.773
33315W        W 5041  37.858  36.798  10.985
33316W        W 5042  22.789  37.525   3.075
33317W        W 5043  41.926  26.486   4.090
33318W        W 5044  28.228  37.379  14.180
33319W        W 5045  12.289  19.245   2.372
33320W        W 5046  13.134  20.633  10.698
33321W        W 5047   3.386   4.206  14.277
33322W        W 5048   9.678  40.388   4.945
33323W        W 5049  22.161  23.045  12.183
33324W        W 5050  29.526  16.467   3.798
33325W        W 5051  43.244  23.650   2.173
33326W        W 5052  35.150   6.293   5.085
33327W        W 5053  12.929  29.533   1.365
33328W        W 5054  29.223  14.576   4.226
33329W        W 5055  10.797  20.599   2.374
33330W        W 5056  21.983  13.223  12.508
33331W        W 5057  23.375  37.848   4.852
33332W        W 5058  18.722  30.502   5.160
33333W        W 5059  22.727   3.245   2.688
33334W        W 5060  25.657  35.605   1.455
33335W        W 5061  14.711   3.410   3.118
33336W        W 5062  38.896  24.294  11.488
33337W        W 5063  14.559  13.900  12.858
33338W        W 5064   7.888  32.375   3.997
33339W        W 5065  33.071  36.946  12.472
33340W        W 5066   4.687  33.453  12.871
33341W        W 5067   5.843  13.798   4.532
33342W        W 5068  21.777  11.618  14.810
33343W        W 5069  16.329  24.608   0.248
33344W        W 5070  13.259  35.862  12.518
33345W        W 5071  17.247  12.578  12.903
33346W        W 5072  19.156  20.144  14.476
33347W        W 5073  25.154  21.309   1.989
33348W        W 5074  30.506   7.966  13.842
33349W        W 5075   9.898  23.779   0.906
33350W        W 5076  41.950  24.046  14.074
33351W        W 5077  19.672  43.287   1.381
33352W        W 5078   0.597   4.476  13.345
33353W        W 5079   2.209   6.797   1.241
33354W        W 5080  25.569  29.595  12.950
33355W        W 5081  37.831  42.054  12.965
33356W        W 5082  32.033  11.599   3.945
33357W        W 5083  11.008   2.088   2.486
33358W        W 5084  42.211  36.369  14.751
33359W        W 5085  38.911  18.311   1.996
33360W        W 5086  18.433  43.746   3.280
33361W        W 5087   4.951  28.833   3.743
33362W        W 5088   7.275   7.981   3.635
33363W        W 5089  27.064   0.011  13.263
33364W        W 5090  15.775   2.570   1.728
33365W        W 5091  42.945  27.078  10.685
33366W        W 5092  28.593  28.772   1.520
33367W        W 5093  40.856  12.184   0.269
33368W        W 5094  19.476  20.829  14.987
33369W        W 5095  12.834  37.448   4.085
33370W        W 5096  28.404  42.769  13.475
33371W        W 5097   6.624   2.382   4.703
33372W        W 5098   7.739  43.310  11.587
33373W        W 5099  20.230   9.216  12.100
33374W        W 5100  34.579  18.777   2.393
33375W        W 5101   7.112  20.939  11.916
33376W        W 5102  13.794  13.590  12.512
33377W        W 5103  41.579  17.618  12.823
33378W        W 5104  17.500  24.047  10.794
33379W        W 5105   3.926  22.705  12.184
33380W        W 5106   0.793  42.643  14.726
33381W        W 5107  10.688   1.061   2.345
33382W        W 5108  21.054  12.163  12.435
33383W        W 5109   2.937  17.521  13.350
33384W        W 5110  22.847  38.373  11.396
33385W        W 5111  12.267  12.550  12.666
33386W        W 5112  35.843  13.226   1.437
33387W        W 5113   9.777  20.777   0.386
33388W        W 5114  13.743  29.455   0.678
33389W        W 5115  23.571   3.923   4.214
33390W        W 5116  41.410  19.270  13.736
33391W        W 5117  38.535  34.417  12.602
33392W        W 5118   5.891  38.066   3.344
33393W        W 5119  29.637  40.976   1.379
33394W        W 5120  20.258   5.256   1.469
33395W        W 5121   6.095  20.780   1.428
33396W        W 5122  32.381  34.500   1.633
33397W        W 5123  32.289  33.311  14.023
33398W        W 5124  29.732   2.616   4.187
33399W        W 5125  15.354   6.210   2.716
33400W        W 5126  44.961  28.687   4.809
33401W        W 5127  11.573  41.904  10.683
33402W        W 5128  26.554  36.384   4.896
33403W        W 5129  41.915  39.684   2.304
33404W        W 5130  10.854  18.444  14.442
33405W        W 5131  34.635   4.212  14.284
33406W        W 5132   5.204  27.921   4.561
33407W        W 5133  29.428  29.745   3.903
33408W        W 5134   8.753  14.568  11.433
33409W        W 5135  23.230  15.103  10.190
33410W        W 5136  16.739  38.233   1.834
33411W        W 5137  30.527   2.376   0.156
33412W        W 5138  34.356  16.615  14.847
33413W        W 5139   0.898  37.984  10.484
33414W        W 5140  25.071  35.866   2.853
33415W        W 5141  13.314   1.764  11.937
33416W        W 5142  29.366  23.930  10.428
33417W        W 5143  37.063  17.767   4.974
33418W        W 5144   9.630   5.041   3.782
33419W        W 5145   2.185  30.435   3.885
33420W        W 5146  17.812  30.403   1.770
33421W        W 5147  13.368  40.856  12.060
33422W        W 5148   3.417  35.524  13.103
33423W        W 5149  13.756  43.844  13.587
33424W        W 5150   9.664  37.370   5.435
33425W        W 5151  18.133  30.237  11.200
33426W        W 5152  15.101  29.681   0.301
33427W        W 5153  14.207  32.026   3.660
33428W        W 5154  38.844  31.788  14.378
33429W        W 5155  18.593  18.813   2.696
33430W        W 5156  22.069  14.186  13.544
33431W        W 5157  35.025  18.735  11.525
33432W        W 5158  18.293  22.169   4.286
33433W        W 5159   1.450   8.254   4.715
33434W        W 5160  26.938   9.877  11.595
33435W        W 5161  15.343  29.054  14.825
33436W        W 5162  11.677  38.421  14.017
33437W        W 5163  20.522  40.134  12.498
33438W        W 5164  18.500  12.960  12.029
33439W        W 5165   6.781  23.575   4.658
33440W        W 5166  38.388   9.530  13.311
33441W        W 5167  11.118  20.207  11.918
33442W        W 5168  34.924  30.569  13.259
33443W        W 5169  27.524  39.429  12.846
33444W        W 5170   0.703  17.376  11.060
33445W        W 5171  15.341  41.314   0.296
33446W        W 5172  35.920  33.214   3.127
33447W        W 5173  44.899  24.621  10.602
33448W        W 5174  19.206  40.520  14.008
33449W        W 5175  40.278   4.993   3.331
33450W        W 5176  37.587   3.941  13.361
33451W        W 5177  15.088  37.024   9.782
33452W        W 5178  14.062   5.140  12.648
33453W        W 5179  24.703  17.550   1.168
33454W        W 5180  13.547  34.942  14.959
33455W        W 5181  28.457  34.106  11.526
33456W        W 5182   5.962   8.201   3.845
33457W        W 5183  22.908  30.837   0.293
33458W        W 5184  39.305  29.249   3.232
33459W        W 5185  30.898  41.610  14.419
33460W        W 5186  29.500  44.051   3.144
33461W        W 5187   3.437  24.104   1.309
33462W        W 5188   9.991  33.821  14.864
33463W        W 5189   1.564  18.073  13.579
33464W        W 5190  28.440  28.695  13.395
33465W        W 5191   1.683  11.469  11.629
33466W        W 5192  19.823  29.015   0.684
33467W        W 5193  10.443  42.814   1.189
33468W        W 5194   3.738  13.617  12.849
33469W        W 5195   4.664   9.663  13.085
33470W        W 5196   9.373  43.018  11.343
33471W        W 5197  10.334   8.582   0.325
33472W        W 5198  37.294  10.787   3.228
33473W        W 5199   9.109  16.914  11.091
33474W        W 5200  25.066  28.978   0.757
33475W        W 5201   3.852  12.711  14.016
33476W        W 5202  44.500  29.997  12.584
33477W        W 5203  42.362  15.587  11.933
33478W        W 5204   5.078   8.478   3.413
33479W        W 5205  32.974  44.297   4.022
33480W        W 5206   9.753   5.812   1.748
33481W        W 5207  17.255  16.829  11.638
33482W        W 5208  26.400  22.843   2.268
33483W        W 5209  31.435   5.675   4.501
33484W        W 5210   9.699  11.381  14.965
33485W        W 5211  36.569  12.673  10.373
33486W        W 5212  22.930   0.438  11.025
33487W        W 5213   7.814  44.024   2.695
33488W        W 5214  32.965  42.510  13.538
33489W        W 5215  18.417  22.669   3.117
33490W        W 5216   7.812  40.538  14.415
33491W        W 5217   6.866  38.523  14.830
33492W        W 5218  15.192  23.404  12.921
33493W        W 5219  11.405   3.432  14.283
33494W        W 5220  34.905   4.661   3.351
33495W        W 5221   7.093  10.675   0.316
33496W        W 5222  35.345  27.700   0.324
33497W        W 5223  16.670   2.681   0.788
33498W        W 5224  31.242  10.922   4.113
33499W        W 5225   6.795   2.061   4.332
33500W        W 5226  34.496  24.489  11.893
33501W        W 5227  25.772  33.027   4.436
33502W        W 5228  33.207  16.217   2.452
33503W        W 5229  22.019  23.552  12.965
33504W        W 5230  41.257  22.426  13.928
33505W        W 5231  29.737  17.756   2.868
33506W        W 5232  16.863  44.284  13.929
33507W        W 5233  42.054   3.275  10.433
33508W        W 5234  16.411  34.017  10.533
33509W        W 5235  31.632  26.945   2.468
33510W        W 5236  16.731  44.802  13.825
33511W        W 5237  18.211  25.693  14.239
33512W        W 5238  15.554  11.902  12.088
33513W        W 5239  33.955  27.632   1.286
33514W        W 5240  21.961  36.641   3.390
33515W        W 5241   4.245   0.741  13.504
33516W        W 5242  29.114  12.959   3.053
33517W        W 5243   0.159  16.477  11.550
33518W        W 5244  36.709  18.091  11.174
33519W        W 5245  42.220  35.955  11.684
33520W        W 5246  27.513  11.794  13.919
33521W        W 5247  24.075  21.795   0.799
33522W        W 5248  36.879   9.613  11.595
33523W        W 5249   3.411  44.935   2.444
33524W        W 5250  22.156  16.129   1.312
33525W        W 5251  37.845  39.309  10.595
33526W        W 5252  27.959  13.799   3.198
33527W        W 5253   6.688  29.616  13.113
33528W        W 5254  42.594  14.599   3.717
33529W        W 5255   4.275  28.342   0.484
33530W        W 5256  44.899  23.203   0.443
33531W        W 5257   6.636  30.746   4.151
33532W        W 5258  34.495  18.735   4.896
33533W        W 5259  43.917  20.258   2.285
33534W        W 5260   2.451  30.021   3.756
33535W        W 5261  26.568   6.404   2.748
33536W        W 5262  24.311   3.160  12.814
33537W        W 5263  27.804  30.647  10.667
33538W        W 5264  20.642  36.171   2.839
33539W        W 5265  39.295  39.946  10.768
33540W        W 5266  33.962   6.954   2.361
33541W        W 5267  40.896  24.980   4.693
33542W        W 5268   6.457  25.237  14.583
33543W        W 5269  44.421   5.876  14.453
33544W        W 5270   8.586  12.385   4.136
33545W        W 5271  11.114  13.625   0.422
33546W        W 5272  38.543  15.998  12.084
33547W        W 5273   1.391  18.814   1.469
33548W        W 5274  26.008  34.975  13.921
33549W        W 5275  22.856  28.198   0.821
33550W        W 5276  23.051  28.623  13.298
33551W        W 5277  35.613  34.017  13.307
33552W        W 5278  30.640  15.289   0.278
33553W        W 5279  30.829  19.248  14.946
33554W        W 5280  35.179  31.627  12.794
33555W        W 5281  25.934  33.488  10.788
33556W        W 5282  40.744  19.308   0.204
33557W        W 5283   4.314  26.056   0.440
33558W        W 5284   8.301  10.216  13.964
33559W        W 5285  32.149  18.268   2.738
33560W        W 5286  21.246  44.220   5.143
33561W        W 5287  12.298   5.176   3.233
33562W        W 5288  11.428  17.704   4.571
33563W        W 5289  39.607   2.658  14.011
33564W        W 5290  19.181   2.857  13.005
33565W        W 5291  43.897  40.996  14.494
33566W        W 5292  22.625  26.406   0.738
33567W        W 5293   0.756  42.287   1.950
33568W        W 5294  31.116  39.530  13.496
33569W        W 5295  32.190  30.628  12.170
33570W        W 5296  21.678  25.636   2.264
33571W        W 5297  26.607  33.974  11.780
33572W        W 5298  33.187   3.481   0.889
33573W        W 5299  24.509  21.096   2.337
33574W        W 5300  23.766  21.291   1.932
33575W        W 5301  27.599  27.978  11.199
33576W        W 5302  14.359   6.955  14.324
33577W        W 5303  42.140   6.677  13.306
33578W        W 5304  41.919  15.992   2.448
33579W        W 5305  34.543  32.919   0.986
33580W        W 5306   8.391  20.814  11.095
33581W        W 5307  42.486  24.215  12.815
33582W        W 5308  27.547  34.592  11.439
33583W        W 5309  39.307  13.893  11.990
33584W        W 5310  38.363  21.622  12.520
33585W        W 5311  39.343  26.342   1.793
33586W        W 5312  41.057   7.730   2.803
33587W        W 5313  13.188  34.527  10.627
33588W        W 5314  27.719  14.075   2.281
33589W        W 5315  28.660  32.564  14.290
33590W        W 5316  26.602  43.887  11.584
33591W        W 5317  39.323   0.855   3.626
33592W        W 5318   8.127  14.871  13.950
33593W        W 5319  17.724  35.035  12.583
33594W        W 5320  23.734  12.564  10.259
33595W        W 5321  25.736  11.180  11.626
33596W        W 5322  33.598  14.504   1.962
33597W        W 5323  38.867  27.032  14.007
33598W        W 5324  26.660  32.382   0.702
33599W        W 5325  27.589  15.045   2.564
33600W        W 5326   2.360  22.693   2.428
33601W        W 5327  23.235   3.418  12.144
33602W        W 5328  44.650  14.862   4.514
33603W        W 5329  13.077  12.075   2.410
33604W        W 5330  21.203  16.758   1.905
33605W        W 5331  23.963  17.239   1.871
33606W        W 5332  12.671  19.781   3.462
33607W        W 5333  26.991  25.536  14.923
33608W        W 5334  25.011   3.382  11.024
33609W        W 5335   5.779  43.489   0.745
33610W        W 5336   5.240  39.910  12.502
33611W        W 5337  32.583  19.736   0.772
33612W        W 5338   1.930  11.163   2.203
33613W        W 5339  19.631  21.801   1.794
33614W        W 5340  32.980  16.272  11.114
33615W        W 5341  10.216  26.095   3.580
33616W        W 5342  38.427  26.965  12.811
33617W        W 5343  34.483  20.608   4.670
33618W        W 5344   2.578  27.191  14.402
33619W        W 5345  43.311  33.500   1.936
33620W        W 5346  29.049  25.983  13.233
33621W        W 5347  40.423  13.127   4.368
33622W        W 5348  20.028   3.012   2.153
33623W        W 5349  21.503  14.533  14.973
33624W        W 5350  35.404  18.489  11.199
33625W        W 5351  40.060   6.857   3.739
33626W        W 5352  33.505  10.229  11.878
33627W        W 5353   7.223   6.919   5.011
33628W        W 5354  10.689  24.935   0.439
33629W        W 5355  34.049   2.228   2.832
33630W        W 5356  21.528  28.593   2.412
33631W        W 5357   8.105  29.048   1.673
33632W        W 5358   9.313  40.762   2.599
33633W        W 5359   2.234  41.956  14.791
33634W        W 5360  36.429  17.039  14.097
33635W        W 5361  32.829  10.575  11.173
33636W        W 5362  34.440  40.605   3.016
33637W        W 5363  39.037  27.570   2.153
33638W        W 5364  37.844   6.274   3.172
33639W        W 5365  42.315   3.024  14.582
33640W        W 5366  35.281  33.800  14.854
33641W        W 5367  42.607  21.623   1.229
33642W        W 5368  33.602  30.275  11.976
33643W        W 5369  21.172  37.508  11.198
33644W        W 5370  19.731  42.609   0.336
33645W        W 5371  22.074  27.971   2.111
33646W        W 5372  22.018  11.997   2.641
33647W        W 5373  16.228  12.105   3.723
33648W        W 5374  38.844   2.874   2.329
33649W        W 5375  18.021  42.326   3.008
33650W        W 5376  26.799  38.844   2.795
33651W        W 5377   7.760  39.533   3.206
33652W        W 5378  32.529  36.978   2.933
33653W        W 5379  23.399   4.790  11.621
33654W        W 5380  39.041  26.003   2.251
33655W        W 5381  41.789  26.965  14.023
33656W        W 5382  30.443   3.609  14.440
33657W        W 5383  40.259  25.625   4.365
33658W        W 5384  31.172  28.494  13.401
33659W        W 5385  11.769  29.490   0.185
33660W        W 5386  24.206  39.407   1.739
33661W        W 5387   5.634  25.693  13.742
33662W        W 5388  23.674  37.491  11.711
33663W        W 5389  30.603  38.915   0.009
33664W        W 5390  16.622   3.234  14.945
33665W        W 5391  13.154  13.355   2.778
33666W        W 5392  30.336  43.902   2.219
33667W        W 5393  27.549  11.313   0.737
33668W        W 5394  42.276  31.481  13.022
33669W        W 5395  33.733   4.252   3.744
33670W        W 5396  32.978  38.774   0.432
33671W        W 5397  32.509  36.849  13.916
33672W        W 5398  38.175  17.551   4.159
33673W        W 5399  37.400  38.948  13.820
33674W        W 5400  18.262  11.830  12.009
33675W        W 5401  35.945  25.114  13.288
33676W        W 5402  31.521  43.881  13.493
33677W        W 5403   7.874   9.369  13.739
33678W        W 5404   7.500  21.103  11.602
33679W        W 5405  22.725   8.012   3.733
33680W        W 5406  37.422   7.883   3.157
33681W        W 5407  42.783  14.687   1.838
33682W        W 5408   6.435   3.939  12.076
33683W        W 5409  23.536  36.146  12.339
33684W        W 5410  27.907   6.808  12.492
33685W        W 5411  41.467  28.608  14.817
33686W        W 5412   2.516  19.850  12.912
33687W        W 5413  39.537  14.214   1.203
33688W        W 5414  17.288  35.628   2.200
33689W        W 5415   2.488  10.796   0.703
33690W        W 5416  13.805   9.209   4.618
33691W        W 5417  12.291  11.647   1.920
33692W        W 5418  36.890  34.864   0.654
33693W        W 5419   9.272  32.823   5.003
33694W        W 5420  35.433  22.676  14.806
33695W        W 5421  21.084   2.338  11.402
33696W        W 5422  32.057  16.280   0.950
33697W        W 5423   3.331  14.575   3.763
33698W        W 5424  13.800   3.261  14.788
33699W        W 5425  30.459  19.116  12.644
33700W        W 5426   5.231  23.191  10.772
33701W        W 5427  28.394  31.614  14.328
33702W        W 5428  41.319  39.079  10.679
33703W        W 5429  26.011  36.057   2.893
33704W        W 5430  14.169  23.306   9.667
33705W        W 5431  17.352  24.222  10.333
33706W        W 5432  20.725  14.071   1.326
33707W        W 5433   3.232   2.432  10.490
33708W        W 5434  43.865  14.351   1.664
33709W        W 5435  13.072  14.179   4.210
33710W        W 5436  31.477  24.903   1.762
33711W        W 5437   2.379  12.052   1.327
33712W        W 5438  11.202  16.327  13.081
33713W        W 5439  31.828  21.553  13.075
33714W        W 5440  14.069  33.825   3.760
33715W        W 5441  36.785  33.399   2.741
33716W        W 5442  37.944  30.030  14.725
33717W        W 5443  25.204  10.366   2.282
33718W        W 5444   9.088  15.183  11.156
33719W        W 5445  38.962   3.198   3.168
33720W        W 5446  41.034  43.245   0.988
33721W        W 5447  16.891  26.735  13.721
33722W        W 5448   4.558  35.540   4.134
33723W        W 5449  21.616  21.058  13.090
33724W        W 5450  23.293   2.470  13.800
33725W        W 5451   1.959  19.248   3.378
33726W        W 5452   8.848  38.373  11.982
33727W        W 5453  29.972  15.457   4.583
33728W        W 5454  17.052  22.654   3.645
33729W        W 5455  40.713  26.669  13.245
33730W        W 5456  35.213  29.969   2.414
33731W        W 5457   9.282  21.169  12.259
33732W        W 5458  23.839  36.999  10.722
33733W        W 5459  14.877  42.317   3.734
33734W        W 5460  35.798   1.771   1.978
33735W        W 5461  28.917  34.445  13.815
33736W        W 5462   3.747  12.348   3.558
33737W        W 5463   6.896   1.246   1.303
33738W        W 5464  37.211  17.728  14.300
33739W        W 5465  27.034   1.123  10.607
33740W        W 5466   9.397   1.460   1.238
33741W        W 5467  40.566  15.334  11.547
33742W        W 5468  13.710  37.513  14.724
33743W        W 5469  44.808  42.237   2.896
33744W        W 5470  10.848   6.941   2.267
33745W        W 5471  20.796  33.443  10.688
33746W        W 5472  44.129  19.801   4.484
33747W        W 5473  19.652  26.280  12.028
33748W        W 5474  18.826  19.038   1.844
33749W        W 5475  29.201  38.708   1.736
33750W        W 5476  42.490   5.275   0.786
33751W        W 5477  36.072  20.598   3.942
33752W        W 5478  22.571  38.897  13.616
33753W        W 5479  11.956  37.594  12.941
33754W        W 5480  17.118   3.918  12.950
33755W        W 5481   6.338   2.925   1.169
33756W        W 5482  39.265  34.387   3.675
33757W        W 5483  14.723  43.854  11.404
33758W        W 5484   7.319   9.806  10.446
33759W        W 5485   0.739  14.399  12.866
33760W        W 5486  41.943  33.945  13.510
33761W        W 5487   7.411   2.735   2.252
33762W        W 5488  16.049  18.963  11.180
33763W        W 5489   6.182  32.833   1.569
33764W        W 5490  27.454  37.652  13.426
33765W        W 5491  34.719   0.963   3.561
33766W        W 5492   5.496  24.042  14.959
33767W        W 5493  36.581   2.532  13.474
33768W        W 5494   1.163  26.197  12.341
33769W        W 5495  23.803  17.051  12.036
33770W        W 5496  27.589  20.787  13.581
33771W        W 5497  12.461  44.767  14.365
33772W        W 5498  16.482   4.057  13.768
33773W        W 5499  34.009  14.592   4.287
33774W        W 5500  32.456  33.728  10.832
33775W        W 5501   6.666   4.995   0.853
33776W        W 5502  11.600   7.982  11.060
33777W        W 5503  30.347   2.023   4.402
33778W        W 5504  24.337  38.524   2.790
33779W        W 5505   1.529  16.603   3.062
33780W        W 5506  11.353   8.833   2.397
33781W        W 5507  23.717   1.085   3.544
33782W        W 5508   8.747  26.575  10.460
33783W        W 5509  27.416   9.754  13.759
33784W        W 5510   2.005  40.977   4.355
33785W        W 5511   3.163  29.589  13.136
33786W        W 5512  35.558  17.139   1.718
33787W        W 5513  23.325   4.808  13.516
33788W        W 5514  14.584  30.074  11.191
33789W        W 5515   8.487  40.988   0.884
33790W        W 5516  31.675  41.566  11.228
33791W        W 5517  21.093  43.644  11.903
33792W        W 5518  24.554   3.957  12.720
33793W        W 5519  13.164  11.949  13.251
33794W        W 5520  25.409   6.225   4.183
33795W        W 5521  33.114  10.666  14.167
33796W        W 5522  37.644  39.450  14.573
33797W        W 5523  22.921  27.660   2.307
33798W        W 5524   7.820   9.891  14.796
33799W        W 5525  17.452   6.990  12.774
33800W        W 5526  37.881  43.142  11.564
33801W        W 5527   4.923  34.927   3.410
33802W        W 5528  28.058  23.539   0.529
33803W        W 5529   8.117  25.282  13.008
33804W        W 5530  26.388  10.248  11.005
33805W        W 5531  16.602  19.501  13.796
33806W        W 5532  16.687   0.902  12.829
33807W        W 5533  15.516  26.880  14.219
33808W        W 5534  16.146  42.118   4.038
33809W        W 5535   1.768  11.776  13.823
33810W        W 5536  42.861  26.362   1.991
33811W        W 5537  24.921   2.820   3.027
33812W        W 5538  23.569  12.207  12.121
33813W        W 5539  13.680  13.689  11.692
33814W        W 5540  40.718   8.637  11.103
33815W        W 5541  19.869  42.593  13.287
33816W        W 5542  40.734  44.337  10.807
33817W        W 5543   1.073  38.338   2.765
33818W        W 5544  16.544  38.082  11.200
33819W        W 5545  13.747   8.310   1.257
33820W        W 5546   6.666  25.114   0.059
33821W        W 5547  14.963   7.915  10.685
33822W        W 5548  20.276   4.377   3.727
33823W        W 5549  14.864  32.387  14.871
33824W        W 5550  22.675   8.439  11.574
33825W        W 5551   8.303  35.879  10.135
33826W        W 5552  34.450  15.331   4.443
33827W        W 5553   0.366   1.462   0.007
33828W        W 5554  43.687  19.717   4.747
33829W        W 5555   8.826  16.819  14.259
33830W        W 5556  43.708   7.816  10.699
33831W        W 5557  29.739   4.251  14.070
33832W        W 5558  40.279   1.661   2.276
33833W        W 5559  28.695  37.880   0.179
33834W        W 5560  27.373  32.634  12.008
33835W        W 5561  27.993  25.047  14.495
33836W        W 5562  40.161  40.010  12.793
33837W        W 5563  29.878   0.175  12.628
33838W        W 5564  14.281   9.573   1.438
33839W        W 5565  38.919   4.512  14.387
33840W        W 5566  14.197  30.494  13.024
33841W        W 5567   5.348  35.180   1.207
33842W        W 5568  38.422  32.489   1.653
33843W        W 5569  28.726  40.371  12.970
33844W        W 5570   1.991  16.758   2.882
33845W        W 5571  13.765  37.077  13.888
33846W        W 5572  25.560   9.015  10.951
33847W        W 5573   6.443  22.215  14.797
33848W        W 5574  11.137  36.171   2.215
33849W        W 5575  25.505   3.967   1.253
33850W        W 5576  14.297  44.541  13.912
33851W        W 5577  30.146   5.442  12.479
33852W        W 5578  18.931  27.719   3.699
33853W        W 5579  37.461   0.376  13.977
33854W        W 5580  35.053  31.903  14.977
33855W        W 5581  20.039   2.332   2.827
33856W        W 5582  35.615  25.064  12.420
33857W        W 5583   0.779  18.780  13.560
33858W        W 5584   1.831  30.980  11.709
33859W        W 5585   5.025  13.710   3.323
33860W        W 5586  21.506  35.598   2.367
33861W        W 5587   4.133  13.685  11.005
33862W        W 5588  18.026  37.448  13.314
33863W        W 5589   9.855  39.168  14.982
33864W        W 5590  23.525  20.732   2.948
33865W        W 5591   6.210   0.131   3.165
33866W        W 5592  40.524  41.197   1.354
33867W        W 5593  16.645  14.134  13.939
33868W        W 5594  29.556  13.060  10.463
33869W        W 5595  27.378   4.045   1.987
33870W        W 5596  38.618  27.552   4.698
33871W        W 5597  24.946  28.634  12.902
33872W        W 5598   1.795  29.610  12.401
33873W        W 5599  21.518  22.558   2.279
33874W        W 5600  26.039  22.245  13.510
33875W        W 5601  30.362  30.664   3.330
33876W        W 5602  44.191   5.702  11.089
33877W        W 5603  41.703  13.208  14.848
33878W        W 5604   0.359   5.360   3.215
33879W        W 5605  23.742  13.366  11.410
33880W        W 5606  30.606   7.373   2.330
33881W        W 5607  43.449  41.249  11.112
33882W        W 5608  41.658  40.053   3.531
33883W        W 5609  19.094  32.103   0.459
33884W        W 5610  37.821  38.403  13.860
33885W        W 5611   5.854   0.599  13.511
33886W        W 5612  25.335  33.828  13.245
33887W        W 5613  12.619  32.312  10.737
33888W        W 5614  38.896  40.532  14.117
33889W        W 5615  37.927  29.449  13.020
33890W        W 5616  33.692   7.024  11.641
33891W        W 5617  14.875   6.970  14.285
33892W        W 5618  20.233  41.541  11.672
33893W        W 5619  11.756   2.026   3.075
33894W        W 5620  33.208  41.008  10.484
33895W        W 5621  17.282  43.007   0.124
33896W        W 5622  31.003  44.493   9.924
33897W        W 5623  21.004  40.814   3.230
33898W        W 5624  29.276  24.042   4.228
33899W        W 5625  28.649   7.956   4.935
33900W        W 5626   9.839  44.355   2.338
33901W        W 5627  11.362  15.839  13.107
33902W        W 5628  15.348   9.253   3.383
33903W        W 5629  28.937  30.886   1.213
33904W        W 5630  35.563  23.631   2.240
33905W        W 5631  23.808  10.314   0.686
33906W        W 5632   5.222  26.618  13.918
33907W        W 5633  31.378  23.712  11.958
33908W        W 5634   0.435   3.430   2.365
33909W        W 5635  12.750  19.035  13.662
33910W        W 5636  37.558   2.483  13.444
33911W        W 5637   3.437   0.626   2.024
33912W        W 5638  23.753  20.939  13.424
33913W        W 5639  25.126   3.643  13.386
33914W        W 5640  10.601  43.531   1.260
33915W        W 5641   4.355  21.766   2.263
33916W        W 5642  37.245  32.182   4.197
33917W        W 5643  41.088  38.015   3.915
33918W        W 5644  40.522   1.463  13.607
33919W        W 5645   6.795   0.353   3.781
33920W        W 5646  19.628  35.343   1.105
33921W        W 5647  13.356  34.478  10.125
33922W        W 5648  25.217  10.876   2.310
33923W        W 5649  17.170  36.016   4.641
33924W        W 5650   0.997  11.729   0.773
33925W        W 5651  22.241  39.860   0.856
33926W        W 5652  39.129  22.691   1.951
33927W        W 5653  40.477  15.295  14.356
33928W        W 5654   6.474   4.912   9.714
33929W        W 5655   9.321  24.964   4.134
33930W        W 5656  43.402  40.844  12.672
33931W        W 5657  33.041   6.992   3.725
33932W        W 5658   8.143  29.235  10.931
33933W        W 5659  31.199  30.605  10.728
33934W        W 5660  15.599  14.252   3.245
33935W        W 5661  44.430  20.210   4.569
33936W        W 5662  34.821  30.991  11.555
33937W        W 5663  15.738  41.969  12.794
33938W        W 5664  39.318   1.985  13.079
33939W        W 5665  11.319  22.399   0.880
33940W        W 5666   6.236  20.208  14.875
33941W        W 5667  22.419  12.204   4.618
33942W        W 5668  44.976  44.923   3.542
33943W        W 5669  42.862  21.618   4.611
33944W        W 5670  19.625  21.849   0.931
33945W        W 5671  23.965  44.887   2.261
33946W        W 5672  31.523  19.281   2.899
33947W        W 5673  39.379  25.221  11.526
33948W        W 5674  34.190  34.025   1.990
33949W        W 5675  24.666   4.862  13.836
33950W        W 5676   5.496   7.264  11.143
33951W        W 5677  44.791   7.671   4.932
33952W        W 5678  30.159   1.393   1.283
33953W        W 5679  29.290  25.026  11.017
33954W        W 5680  26.545  44.924  14.969
33955W        W 5681  35.431  28.275  13.921
33956W        W 5682  25.177  21.562  11.155
33957W        W 5683  30.143   1.912  12.068
33958W        W 5684  14.646  19.912  10.449
33959W        W 5685   5.427  23.664  11.636
33960W        W 5686   0.436  22.665  11.625
33961W        W 5687  30.572  22.669   1.933
33962W        W 5688  43.046   3.037   2.367
33963W        W 5689  27.233   9.880   0.543
33964W        W 5690  42.347  41.887   1.181
33965W        W 5691  23.129  29.542  13.792
33966W        W 5692  28.555   6.357  12.151
33967W        W 5693  42.936   6.813  14.348
33968W        W 5694  17.704  34.413  11.381
33969W        W 5695  26.645   1.490   1.813
33970W        W 5696  19.301  43.158   3.575
33971W        W 5697  26.577  34.041  14.829
33972W        W 5698  32.672  30.064   0.717
33973W        W 5699   5.421  31.447  10.672
33974W        W 5700  10.806  34.871  14.512
33975W        W 5701   0.155  43.911   3.688
33976W        W 5702  27.622   5.430  11.494
33977W        W 5703  42.055  25.902   1.412
33978W        W 5704  28.558  28.736  14.472
33979W        W 5705  28.174  28.146  11.873
33980W        W 5706  10.165  11.773  11.605
33981W        W 5707   0.569   6.752  14.760
33982W        W 5708  44.008  16.100   2.754
33983W        W 5709   6.664  30.850   1.869
33984W        W 5710  23.503  39.521   4.227
33985W        W 5711  40.298  17.225  10.797
33986W        W 5712  14.204  34.500   4.543
33987W        W 5713  39.285  29.945   1.621
33988W        W 5714  16.098  33.524   4.714
33989W        W 5715   4.401   1.491  10.733
33990W        W 5716  41.053   5.880   4.601
33991W        W 5717  37.536   6.123  12.532
33992W        W 5718  11.095  25.075   4.318
33993W        W 5719  21.994   9.691  11.458
33994W        W 5720  20.509   3.876  11.602
33995W        W 5721   7.694  13.548   0.899
33996W        W 5722   3.979  12.208  13.919
33997W        W 5723  44.807   4.901   3.687
33998W        W 5724  12.430  16.670  10.806
33999W        W 5725  27.916  30.308   0.759
34000W        W 5726  33.571  35.489  12.580
34001W        W 5727  10.646  26.293   0.169
34002W        W 5728   0.035  32.055  13.467
34003W        W 5729  39.864  43.037   1.880
34004W        W 5730  38.416  23.193  14.947
34005W        W 5731  36.252   6.650   2.322
34006W        W 5732  41.513   9.911   0.543
34007W        W 5733  34.540   9.834  12.959
34008W        W 5734  20.595  29.637   3.712
34009W        W 5735  30.170  44.937   4.061
34010W        W 5736  16.130  18.155  11.503
34011W        W 5737  12.612  18.716   1.656
34012W        W 5738   7.963  32.061  11.416
34013W        W 5739  24.348  24.085   3.564
34014W        W 5740  43.605  16.054  13.129
34015W        W 5741  36.934  25.107  14.806
34016W        W 5742  37.615  12.002  14.085
34017W        W 5743  30.873  17.284   1.060
34018W        W 5744  40.174   0.559   0.826
34019W        W 5745  23.474   5.695   0.815
34020W        W 5746  21.165   9.285   0.437
34021W        W 5747   7.787   0.769  12.420
34022W        W 5748   6.112  42.406   1.942
34023W        W 5749   4.941   9.325   3.572
34024W        W 5750  10.926  24.088  14.236
34025W        W 5751  23.019  31.481   0.322
34026W        W 5752   9.420  19.013  14.416
34027W        W 5753  36.306  43.256  10.586
34028W        W 5754   9.699  41.305   0.745
34029W        W 5755  19.046  18.168  11.675
34030W        W 5756  12.405  29.669  14.323
34031W        W 5757  31.465  33.119   0.106
34032W        W 5758   6.454  15.464   3.620
34033W        W 5759  16.986  30.485  10.514
34034W        W 5760  41.310  44.491   0.376
34035W        W 5761  38.981  12.711   4.041
34036W        W 5762   3.416  26.736   2.864
34037W        W 5763  26.162  36.322  14.017
34038W        W 5764  39.522  21.481   2.363
34039W        W 5765  24.737  41.133   1.608
34040W        W 5766  21.734   9.313  12.162
34041W        W 5767  38.912  18.871  14.067
34042W        W 5768  19.588  25.780  11.942
34043W        W 5769  26.550   9.913  12.345
34044W        W 5770  27.427  39.454   2.324
34045W        W 5771  30.122  31.875   2.951
34046W        W 5772  19.108  15.026  10.934
34047W        W 5773  21.632  26.471   4.234
34048W        W 5774  19.028  32.496  13.860
34049W        W 5775  34.473  26.927   2.838
34050W        W 5776  19.838  34.870   2.390
34051W        W 5777  23.760  22.544  14.987
34052W        W 5778  14.986  34.008  12.790
34053W        W 5779  22.230   0.476  13.860
34054W        W 5780  20.125  27.626  12.633
34055W        W 5781  31.382  19.354  12.414
34056W        W 5782   0.651  10.124  13.926
34057W        W 5783  26.014   3.764  10.673
34058W        W 5784   2.233   5.405  14.056
34059W        W 5785  18.131  34.101   0.968
34060W        W 5786  22.663  25.685  12.532
34061W        W 5787   1.740   5.378   4.537
34062W        W 5788  10.747  44.196  12.582
34063W        W 5789   0.875  15.705   3.452
34064W        W 5790   7.308  30.582  12.989
34065W        W 5791  22.209  42.717  11.714
34066W        W 5792  15.587  31.593  11.642
34067W        W 5793  18.795  37.349  10.238
34068W        W 5794  31.093  29.376   0.708
34069W        W 5795  36.890  30.061   2.861
34070W        W 5796  27.369  41.302   0.910
34071W        W 5797  33.513  24.264  12.506
34072W        W 5798  21.079  19.715   2.707
34073W        W 5799  41.864   5.316  13.664
34074W        W 5800   6.815  30.174  11.416
34075W        W 5801  41.971  14.265   1.784
34076W        W 5802  41.860   8.094  14.437
34077W        W 5803  43.528  29.914   3.311
34078W        W 5804   0.846  28.757   1.360
34079W        W 5805   3.037  43.673  10.706
34080W        W 5806   9.748  10.509   1.530
34081W        W 5807   4.933  22.614  12.482
34082W        W 5808   0.050  28.850   1.232
34083W        W 5809  43.540  31.634  12.813
34084W        W 5810  28.019   5.435  11.813
34085W        W 5811   9.957   8.796  12.571
34086W        W 5812   4.227  13.067  11.155
34087W        W 5813  12.479  14.296  12.081
34088W        W 5814  18.788  29.862   3.911
34089W        W 5815  21.255  26.800  13.877
34090W        W 5816  21.536   5.968  13.570
34091W        W 5817   8.368   7.620  14.946
34092W        W 5818   6.347  17.557  11.972
34093W        W 5819  30.301  42.232  14.254
34094W        W 5820   7.807   3.976  14.439
34095W        W 5821  17.319  17.613  12.080
34096W        W 5822  23.257   3.684   3.240
34097W        W 5823   8.242   2.699   4.560
34098W        W 5824   7.528  41.841  11.656
34099W        W 5825  35.936  42.265   3.906
34100W        W 5826  33.664   2.314   1.323
34101W        W 5827   6.874  22.655   3.650
34102W        W 5828  20.656  30.542  13.701
34103W        W 5829  31.083   6.256  11.231
34104W        W 5830  32.193  10.480   2.232
34105W        W 5831   8.481  42.284   0.401
34106W        W 5832  41.921  15.014   2.547
34107W        W 5833  18.061  42.031  10.503
34108W        W 5834  18.016  41.592  12.969
34109W        W 5835  44.763  38.312   1.183
34110W        W 5836  20.594  44.769  14.487
34111W        W 5837   1.934   2.734  10.434
34112W        W 5838  41.553  29.738   4.225
34113W        W 5839  22.962   6.339   1.203
34114W        W 5840  28.973  31.657  12.646
34115W        W 5841   4.909  43.256  10.872
34116W        W 5842   5.947  36.533   1.336
34117W        W 5843  40.358  39.432  10.595
34118W        W 5844  34.455  31.313   4.611
34119W        W 5845   0.539  18.706  13.066
34120W        W 5846  26.335  43.710   4.687
34121W        W 5847  25.895  23.702  12.348
34122W        W 5848   9.689  27.463   4.111
34123W        W 5849  18.282   8.363   1.302
34124W        W 5850  26.462   4.520  12.753
34125W        W 5851   0.938  42.350   4.131
34126W        W 5852  21.176   1.335  12.704
34127W        W 5853   8.878   8.951   0.387
34128W        W 5854   5.878  40.452  13.881
34129W        W 5855  41.486   7.906  11.046
34130W        W 5856  17.271   5.388  12.579
34131W        W 5857   6.467  31.650  12.286
34132W        W 5858  39.800  39.860  10.613
34133W        W 5859  22.449  24.125  10.037
34134W        W 5860  33.291  13.225   2.844
34135W        W 5861  32.008  11.653   4.455
34136W        W 5862   5.911  30.881  11.499
34137W        W 5863  10.428  39.605  14.047
34138W        W 5864  10.940  42.830  10.715
34139W        W 5865  35.131  11.615  10.737
34140W        W 5866  16.549   3.310   2.844
34141W        W 5867  39.406  24.285   2.803
34142W        W 5868  13.530   5.100   0.926
34143W        W 5869   2.560  39.494   2.874
34144W        W 5870  18.962  31.064  10.721
34145W        W 5871  28.999   0.902  13.949
34146W        W 5872   3.001  25.747  12.465
34147W        W 5873  14.242   1.060   0.972
34148W        W 5874  35.980  31.196   2.298
34149W        W 5875   2.658  40.119   4.148
34150W        W 5876  12.871  27.530   2.117
34151W        W 5877  25.737  28.067  12.012
34152W        W 5878  10.679  25.012  13.291
34153W        W 5879  33.286  44.844  13.184
34154W        W 5880  24.703  11.553   2.456
34155W        W 5881  16.626  15.824   1.378
34156W        W 5882  15.953  29.516   4.650
34157W        W 5883  31.609  16.553   0.901
34158W        W 5884  43.762   6.829   4.500
34159W        W 5885   1.072   0.568   3.186
34160W        W 5886  29.646  44.810   1.661
34161W        W 5887  37.075  24.899   0.897
34162W        W 5888   2.356  22.697  11.980
34163W        W 5889  41.396  25.078   4.660
34164W        W 5890  38.953   1.473  12.507
34165W        W 5891  34.167   8.372   4.091
34166W        W 5892  37.281  27.661  11.658
34167W        W 5893  13.238   2.812  13.364
34168W        W 5894  29.985  23.757  10.631
34169W        W 5895  36.859   1.961  12.453
34170W        W 5896  33.307  41.828   2.299
34171W        W 5897  17.580  42.840   4.687
34172W        W 5898  17.264   9.320  11.725
34173W        W 5899  18.276   0.808   1.242
34174W        W 5900  22.003  37.995  11.171
34175W        W 5901  36.618  35.065   2.664
34176W        W 5902  14.787  39.756   3.715
34177W        W 5903  22.869   2.077   4.691
34178W        W 5904   8.121  40.414  13.654
34179W        W 5905   8.660  36.713  10.972
34180W        W 5906  21.110  30.995   0.750
34181W        W 5907  28.138  12.720  14.869
34182W        W 5908   4.930  23.046   4.596
34183W        W 5909  37.848  24.102  11.700
34184W        W 5910  40.245  37.901  11.154
34185W        W 5911  17.064   1.277   4.619
34186W        W 5912  13.793   2.262  13.702
34187W        W 5913  19.685  38.076   3.114
34188W        W 5914  17.352  14.311  13.384
34189W        W 5915  11.890  27.513  13.506
34190W        W 5916  23.724  12.221   9.604
34191W        W 5917   1.550  25.695  11.553
34192W        W 5918  29.674  15.577   1.773
34193W        W 5919  10.603  25.588   2.379
34194W        W 5920  17.813   9.349   0.777
34195W        W 5921  34.415  38.995   1.546
34196W        W 5922  32.531  14.221  12.105
34197W        W 5923  10.068  18.679  13.919
34198W        W 5924  28.182  10.124   1.903
34199W        W 5925  43.474  26.270   2.624
34200W        W 5926   5.925  11.906   3.211
34201W        W 5927   6.815  29.981  12.359
34202W        W 5928   6.986  40.062  13.868
34203W        W 5929   5.377   3.767   2.242
34204W        W 5930  43.597  37.430  12.906
34205W        W 5931  30.225  40.065  14.701
34206W        W 5932  36.337  22.255   3.809
34207W        W 5933   7.326  33.300  12.186
34208W        W 5934  23.538   5.139   3.579
34209W        W 5935  26.453   5.039  12.488
34210W        W 5936  32.727   0.755   4.217
34211W        W 5937  23.758  42.833  12.456
34212W        W 5938  21.553  34.136   2.678
34213W        W 5939  31.979   9.097  14.485
34214W        W 5940  40.105   9.338   3.253
34215W        W 5941  24.144  26.689  10.599
34216W        W 5942  26.966  30.089   4.889
34217W        W 5943  43.236  44.977   1.784
34218W        W 5944  14.045  17.237   1.344
34219W        W 5945  42.002  37.943  13.484
34220W        W 5946   2.732  29.351   4.217
34221W        W 5947  40.345   8.898   4.124
34222W        W 5948  35.847  25.043   5.095
34223W        W 5949  16.140  23.518  13.458
34224W        W 5950  41.892  28.692  14.346
34225W        W 5951   3.942   9.122  11.933
34226W        W 5952  21.179  28.676  14.883
34227W        W 5953  34.471  23.352   3.891
34228W        W 5954   5.486   8.449  10.613
34229W        W 5955   1.508   5.597  11.179
34230W        W 5956  44.493  38.996   2.393
34231W        W 5957  12.988   6.891   2.811
34232W        W 5958  44.923   1.191  14.874
34233W        W 5959  33.537  44.467  11.251
34234W        W 5960  44.391   6.080   4.571
34235W        W 5961   2.184  13.693  10.991
34236W        W 5962  29.596  27.893  14.035
34237W        W 5963  44.579  44.475   2.926
34238W        W 5964  33.428  18.957   2.389
34239W        W 5965  11.123  32.418   0.823
34240W        W 5966  30.121  44.366   9.932
34241W        W 5967  15.102  20.723  11.568
34242W        W 5968  19.168  34.037   1.837
34243W        W 5969  40.818  31.574  13.433
34244W        W 5970  27.028  41.859   2.210
34245W        W 5971  35.296  42.938  13.512
34246W        W 5972  43.073  31.576  14.991
34247W        W 5973  40.846  20.775   3.746
34248W        W 5974  30.495  16.419   1.982
34249W        W 5975  41.677  27.899  13.932
34250W        W 5976  42.268  22.819  12.883
34251W        W 5977  41.383  37.798   4.284
34252W        W 5978  20.631  12.827  13.935
34253W        W 5979   8.178   3.488  14.895
34254W        W 5980  12.832  25.666  11.575
34255W        W 5981   3.923  21.780  10.607
34256W        W 5982  21.511  38.832  12.749
34257W        W 5983  22.281  20.807  13.616
34258W        W 5984  11.572   9.566   1.959
34259W        W 5985  33.507  43.468   0.189
34260W        W 5986  21.056  37.849   5.051
34261W        W 5987   2.146  11.263  11.493
34262W        W 5988  42.508  24.866   3.214
34263W        W 5989  27.171  36.841   0.333
34264W        W 5990   5.485  30.591  11.484
34265W        W 5991  37.319  33.000   4.594
34266W        W 5992  16.120  38.744   1.179
34267W        W 5993  43.747  11.537   0.238
34268W        W 5994   1.298   4.301   3.274
34269W        W 5995  44.698  14.737   2.270
34270W        W 5996   8.276  36.442  10.765
34271W        W 5997  34.199   9.991   2.150
34272W        W 5998  38.606  16.018  13.007
34273W        W 5999  39.798  39.605   0.788
34274W        W 6000  40.283  21.716  12.577
34275W        W 6001  36.604  31.558   1.800
34276W        W 6002  13.396  31.200  11.871
34277W        W 6003  30.620  35.822   0.760
34278W        W 6004  33.856  30.345   1.675
34279W        W 6005  14.025   5.441   1.845
34280W        W 6006   9.301  28.962   0.763
34281W        W 6007  11.342  16.162  11.108
34282W        W 6008  39.525  34.663   4.034
34283W        W 6009  32.034   4.981  13.795
34284W        W 6010  39.440  42.457   2.537
34285W        W 6011  29.606  19.539   0.561
34286W        W 6012   0.275  33.269   1.102
34287W        W 6013  40.185  37.149   4.236
34288W        W 6014  38.682   1.041  14.795
34289W        W 6015  43.706  10.771  11.084
34290W        W 6016  25.568  34.319  13.392
34291W        W 6017  35.570  26.005   2.865
34292W        W 6018  15.152   3.788   1.826
34293W        W 6019  18.614  29.209  14.038
34294W        W 6020   0.423  41.893   0.061
34295W        W 6021   3.279   4.304  13.349
34296W        W 6022  13.663   6.619  11.652
34297W        W 6023  15.688  26.891   5.032
34298W        W 6024  16.535  11.333  13.862
34299W        W 6025   4.133  29.074  10.767
34300W        W 6026  37.589  32.516  13.771
34301W        W 6027  39.488  11.221   1.202
34302W        W 6028  12.883  10.085  13.498
34303W        W 6029  31.193  18.331   4.246
34304W        W 6030   6.722  31.386   3.218
34305W        W 6031  30.065  44.024   0.441
34306W        W 6032  34.587  26.402   2.880
34307W        W 6033  12.428  23.091  12.105
34308W        W 6034  29.293  26.107   0.752
34309W        W 6035  25.837  40.715  14.302
34310W        W 6036  38.786  36.682  12.819
34311W        W 6037  27.994  40.568  11.642
34312W        W 6038  41.306  38.605   0.082
34313W        W 6039  11.305   7.185   3.365
34314W        W 6040  20.708  16.253   2.700
34315W        W 6041  24.864  34.990   3.889
34316W        W 6042  26.950  29.716  13.434
34317W        W 6043  17.824  10.588   1.858
34318W        W 6044  23.489   2.694  12.029
34319W        W 6045   9.442   6.479   0.999
34320W        W 6046  34.318  34.607   2.476
34321W        W 6047  36.415   2.204  12.431
34322W        W 6048  32.387  21.523   2.216
34323W        W 6049   6.702  33.098  14.869
34324W        W 6050  34.793  21.495  11.711
34325W        W 6051  31.426  23.244   9.451
34326W        W 6052  43.185  32.949  12.263
34327W        W 6053  35.979  29.535  13.446
34328W        W 6054  42.192  23.591   0.143
34329W        W 6055   2.511  12.185  12.996
34330W        W 6056  28.305  18.578  14.765
34331W        W 6057   1.815   8.830  12.359
34332W        W 6058   2.417  25.558  11.123
34333W        W 6059  18.281  10.118   3.404
34334W        W 6060  19.531  36.684   2.335
34335W        W 6061  28.229   4.480  13.027
34336W        W 6062  13.635  20.575   3.843
34337W        W 6063  31.024   6.431   1.344
34338W        W 6064  15.837  36.372   1.343
34339W        W 6065  40.184   4.537  12.542
34340W        W 6066  18.834  13.844  11.047
34341W        W 6067   6.968  26.076  14.036
34342W        W 6068  26.046   2.381   2.223
34343W        W 6069  38.838  42.524   0.885
34344W        W 6070   6.010   8.364  12.439
34345W        W 6071  21.033  42.708  10.632
34346W        W 6072   2.288   0.717   2.309
34347W        W 6073  38.038   3.441  10.316
34348W        W 6074  36.905  27.121  12.227
34349W        W 6075   5.652  37.071   1.424
34350W        W 6076  27.585  17.175  13.217
34351W        W 6077  29.340  38.472   1.264
34352W        W 6078  34.369  41.294  11.557
34353W        W 6079  16.988  11.292  14.185
34354W        W 6080  13.299  10.082   0.096
34355W        W 6081  28.500  42.454   4.704
34356W        W 6082  31.039   0.666  14.463
34357W        W 6083  10.010  44.762   2.926
34358W        W 6084  29.501  18.631   2.266
34359W        W 6085  42.991   7.856  13.663
34360W        W 6086  41.584  22.194  13.452
34361W        W 6087  34.932  31.522  12.381
34362W        W 6088  26.897   2.915   3.280
34363W        W 6089  24.706  11.179   0.865
34364W        W 6090  30.449  19.712  13.523
34365W        W 6091  18.105  36.917  13.440
34366W        W 6092  17.468  12.295   4.050
34367W        W 6093  37.303  13.484  14.990
34368W        W 6094   6.162  24.575  12.312
34369W        W 6095  21.561  11.104  14.848
34370W        W 6096  34.962  43.573   1.000
34371W        W 6097  24.020  23.990   3.146
34372W        W 6098  36.413   9.156   4.654
34373W        W 6099  30.927  10.228   4.292
34374W        W 6100  25.202  22.918  11.970
34375W        W 6101  27.615  28.717   4.975
34376W        W 6102  15.923  21.543  14.204
34377W        W 6103   3.077   2.400   1.825
34378W        W 6104  35.127  21.700   3.831
34379W        W 6105  12.174  23.306  13.987
34380W        W 6106  27.400   2.916   3.087
34381W        W 6107  40.230   1.273   1.445
34382W        W 6108   5.788  20.712  11.867
34383W        W 6109   6.781  35.741  14.505
34384W        W 6110  10.320  11.133   2.831
34385W        W 6111   6.245  17.988   3.262
34386W        W 6112  36.537  13.067   2.359
34387W        W 6113  31.849  26.681  14.551
34388W        W 6114  17.238   0.329  13.788
34389W        W 6115  35.418   1.035   0.251
34390W        W 6116   4.626  20.025  13.929
34391W        W 6117  44.875  39.827   0.678
34392W        W 6118  26.862  17.090  12.413
34393W        W 6119  14.308  27.132   1.842
34394W        W 6120  34.373  23.168  13.927
34395W        W 6121  34.928  13.288   0.587
34396W        W 6122   5.232  40.373  13.243
34397W        W 6123  23.849  26.550   4.521
34398W        W 6124  34.163  10.060   0.883
34399W        W 6125  16.160  30.593   3.779
34400W        W 6126  26.774   6.471  14.920
34401W        W 6127  12.123  20.200   2.766
34402W        W 6128  20.926   4.349  13.225
34403W        W 6129  21.974   8.895  14.390
34404W        W 6130  12.832  40.943   3.425
34405W        W 6131  16.628  37.595  12.107
34406W        W 6132  36.659  17.357   3.701
34407W        W 6133  31.902  25.191  14.878
34408W        W 6134   7.234   8.031  13.245
34409W        W 6135   8.731   0.784  14.503
34410W        W 6136  31.495  18.692   2.705
34411W        W 6137  43.029   5.155  14.991
34412W        W 6138  42.813   8.126   3.631
34413W        W 6139   1.596  26.456  12.515
34414W        W 6140  16.804  37.315   1.845
34415W        W 6141  28.045  27.036  14.418
34416W        W 6142  24.703  18.480   4.136
34417W        W 6143  37.030  24.594  14.693
34418W        W 6144   2.898   1.501  13.910
34419W        W 6145  33.041  14.804   0.403
34420W        W 6146  31.796  37.075  14.439
34421W        W 6147  17.900   1.590  13.050
34422W        W 6148  44.349  18.825  11.524
34423W        W 6149  16.102  34.811   4.142
34424W        W 6150  26.039  22.807  11.460
34425W        W 6151  32.822  18.289  12.409
34426W        W 6152  40.051  31.337   0.874
34427W        W 6153  19.161   2.719  11.144
34428W        W 6154  14.691  22.098  10.917
34429W        W 6155  10.812  33.585   1.417
34430W        W 6156   4.339  41.942   0.662
34431W        W 6157  26.693  31.114   3.423
34432W        W 6158  31.039  31.017   5.025
34433W        W 6159  34.426   2.633   2.781
34434W        W 6160  13.789   8.494  13.430
34435W        W 6161  30.827  12.717   3.305
34436W        W 6162  35.996  27.211   1.213
34437W        W 6163  23.602   7.375   4.640
34438W        W 6164  40.960  16.535  13.734
34439W        W 6165  26.138  38.429  14.105
34440W        W 6166  37.129   1.415  10.871
34441W        W 6167  12.667  15.728   9.936
34442W        W 6168  17.056  14.893  14.534
34443W        W 6169  40.089  22.830   0.931
34444W        W 6170  18.488  30.418  13.057
34445W        W 6171  11.767   8.872  13.937
34446W        W 6172  10.219   7.091   3.467
34447W        W 6173  35.964  15.189   4.453
34448W        W 6174   3.050  12.851  12.420
34449W        W 6175  40.290   5.783  13.656
34450W        W 6176   5.306  16.898   2.610
34451W        W 6177   5.237  26.049   0.630
34452W        W 6178  11.464   2.876  14.976
34453W        W 6179  11.261  25.155   5.596
34454W        W 6180  34.597   1.195   1.206
34455W        W 6181  11.747  34.462  13.918
34456W        W 6182  44.764  19.212  13.808
34457W        W 6183  13.294  25.307  10.381
34458W        W 6184   8.732  13.348   2.601
34459W        W 6185  43.580  12.850   2.360
34460W        W 6186  24.630   6.400   1.868
34461W        W 6187  40.201  14.584  12.470
34462W        W 6188  17.805  14.909   0.461
34463W        W 6189  19.674  31.695  14.007
34464W        W 6190  10.333  12.903  13.473
34465W        W 6191  41.750  28.066   1.315
34466W        W 6192   6.903  14.343   0.446
34467W        W 6193   3.504  44.744   0.511
34468W        W 6194  25.863  19.064  14.850
34469W        W 6195   1.990  17.207   5.040
34470W        W 6196   7.128   4.675  10.890
34471W        W 6197  36.409  32.107   0.172
34472W        W 6198   4.735  40.223   3.116
34473W        W 6199  44.372  37.518  12.152
34474W        W 6200   4.672  25.067   3.640
34475W        W 6201   6.688  34.855   1.626
34476W        W 6202  31.446   9.799   1.219
34477W        W 6203  34.992   4.149  14.648
34478W        W 6204  34.334  20.646  14.329
34479W        W 6205  41.750  20.133  13.065
34480W        W 6206  43.557  44.896  11.080
34481W        W 6207  42.290  13.598   2.937
34482W        W 6208  35.865  43.729  12.566
34483W        W 6209  32.642  13.808  13.954
34484W        W 6210  11.369   2.741   1.804
34485W        W 6211  33.117  32.377   3.709
34486W        W 6212  31.481   7.226   1.504
34487W        W 6213  26.719  34.890   1.193
34488W        W 6214   1.578  43.802   4.899
34489W        W 6215   4.757  26.745  13.269
34490W        W 6216   8.670   5.348   2.447
34491W        W 6217  37.300  16.173   3.249
34492W        W 6218  18.564  28.411   2.411
34493W        W 6219  24.793  30.236   0.789
34494W        W 6220  28.908  30.552  13.111
34495W        W 6221  40.110  30.820  14.368
34496W        W 6222   8.198   3.718  13.543
34497W        W 6223  16.259  33.676   0.055
34498W        W 6224  11.419  22.919  12.013
34499W        W 6225  37.011  30.761  14.002
34500W        W 6226  26.990   9.148  13.512
34501W        W 6227  42.280  17.485  14.769
34502W        W 6228  27.156   9.821   2.340
34503W        W 6229  39.115  30.476  14.417
34504W        W 6230  44.959   4.022  14.426
34505W        W 6231   0.006  41.266   5.070
34506W        W 6232  18.786  21.528   4.727
34507W        W 6233  19.510  18.656   0.167
34508W        W 6234  15.235  38.319   5.021
34509W        W 6235  21.153  29.074  11.542
34510W        W 6236  44.356  30.378   2.791
34511W        W 6237   7.748  11.825   3.389
34512W        W 6238  19.136  16.459  14.539
34513W        W 6239  16.791  40.419  14.050
34514W        W 6240  16.138   4.882  10.122
34515W        W 6241  15.396  25.064   1.261
34516W        W 6242  16.067  21.727   2.633
34517W        W 6243  29.410  26.556  11.131
34518W        W 6244  17.131  21.663  12.896
34519W        W 6245  38.199  21.371  12.046
34520W        W 6246  44.676  21.516  10.745
34521W        W 6247  34.355  26.805  11.472
34522W        W 6248   7.832  20.939   4.104
34523W        W 6249  17.366  14.922  12.419
34524W        W 6250  13.236  34.773   3.175
34525W        W 6251   5.922   0.046  12.163
34526W        W 6252   2.371  24.765   3.362
34527W        W 6253   4.491  28.611  12.359
34528W        W 6254  41.380   2.011  10.751
34529W        W 6255   1.785  40.841  11.500
34530W        W 6256  16.407  27.634   2.761
34531W        W 6257   7.712  31.443  13.390
34532W        W 6258   4.932   9.171  13.787
34533W        W 6259  39.355  15.743   1.361
34534W        W 6260  39.075   2.311   4.912
34535W        W 6261  38.870   0.815  12.817
34536W        W 6262  44.256  44.154  11.134
34537W        W 6263  37.688  27.385  11.774
34538W        W 6264   3.868  33.438  13.436
34539W        W 6265   9.839  42.508   3.601
34540W        W 6266  10.562  23.231   0.277
34541W        W 6267  17.859   4.215   0.237
34542W        W 6268  27.479  43.531  12.603
34543W        W 6269  12.951   9.190   3.026
34544W        W 6270   4.740  14.097   4.141
34545W        W 6271  30.026   5.470  11.043
34546W        W 6272  44.736  17.291   3.281
34547W        W 6273  40.090   4.597   2.412
34548W        W 6274  24.991   8.181   0.228
34549W        W 6275  29.280   9.820  12.438
34550W        W 6276  38.343  28.120   2.191
34551W        W 6277  34.737  21.702   3.358
34552W        W 6278  18.410  16.052   4.886
34553W        W 6279   2.951  28.295  13.033
34554W        W 6280  15.169  19.508  11.158
34555W        W 6281   4.924  44.727  13.064
34556W        W 6282  18.151  36.788  14.949
34557W        W 6283  14.989  41.055   9.696
34558W        W 6284  21.691  25.249   2.605
34559W        W 6285  18.730  24.790  14.281
34560W        W 6286  39.393  34.897  13.751
34561W        W 6287  22.767   2.922  14.394
34562W        W 6288  41.642   2.293  14.757
34563W        W 6289  33.441  41.129  12.571
34564W        W 6290  15.212  33.379  13.970
34565W        W 6291  33.126  17.585   1.340
34566W        W 6292   1.348  28.895  13.976
34567W        W 6293   5.965  21.746   2.892
34568W        W 6294  29.743   0.638   2.316
34569W        W 6295  19.565  11.387   0.538
34570W        W 6296  19.059  21.090  14.822
34571W        W 6297  27.904  31.592  10.811
34572W        W 6298   1.407  34.499   2.437
34573W        W 6299  20.303  38.861   3.658
34574W        W 6300   6.462   9.488   0.032
34575W        W 6301  38.913  13.358   1.794
34576W        W 6302  13.168  20.230  13.457
34577W        W 6303  25.183  10.356  10.668
34578W        W 6304  36.370  32.543  12.146
34579W        W 6305  37.857  20.112  12.412
34580W        W 6306   0.502   8.254   1.845
34581W        W 6307  12.584  11.354  12.806
34582W        W 6308  39.092  24.156   2.335
34583W        W 6309  10.400  30.873   2.750
34584W        W 6310   6.704  35.040  12.591
34585W        W 6311  26.010  17.021  13.957
34586W        W 6312  15.582  25.069   1.745
34587W        W 6313  15.619  31.354   1.824
34588W        W 6314   3.832  34.103   3.022
34589W        W 6315  23.703  37.930  11.493
34590W        W 6316  19.792   4.726   1.310
34591W        W 6317   3.366  13.066  11.073
34592W        W 6318   7.936  20.120  11.628
34593W        W 6319  19.609  32.420  12.218
34594W        W 6320  38.767  17.262   1.612
34595W        W 6321  44.225  20.466  14.794
34596W        W 6322  32.732   2.200   3.128
34597W        W 6323  34.492  34.903   4.721
34598W        W 6324  17.211  17.123   0.727
34599W        W 6325  42.158   5.703  13.403
34600W        W 6326  23.211  10.738   0.983
34601W        W 6327  41.370  37.784  12.989
34602W        W 6328  21.118   7.174   0.347
34603W        W 6329   9.784  21.029   4.178
34604W        W 6330  26.037  42.028  13.524
34605W        W 6331  23.857   7.146   4.243
34606W        W 6332  19.146   0.387   4.382
34607W        W 6333  30.856   5.262  14.363
34608W        W 6334  25.742  18.258   2.385
34609W        W 6335  10.499   5.998   2.821
34610W        W 6336  40.560   5.334   2.720
34611W        W 6337   9.827   3.720  11.147
34612W        W 6338  22.966   0.412  12.902
34613W        W 6339  44.768  25.194  13.912
34614W        W 6340   4.870  19.325   4.125
34615W        W 6341  41.806  18.625  10.761
34616W        W 6342  16.111   3.023   4.509
34617W        W 6343  32.642  33.427   2.328
34618W        W 6344  29.009  32.505  13.856
34619W        W 6345  43.288  23.754   2.696
34620W        W 6346  14.112  33.620  13.546
34621W        W 6347   6.256  23.001  12.922
34622W        W 6348  28.443  13.799  13.955
34623W        W 6349   7.627  41.543  11.126
34624W        W 6350  34.984  29.391   0.721
34625W        W 6351  12.792  39.345  13.430
34626W        W 6352   7.169  31.724   1.368
34627W        W 6353  43.467  17.005  12.223
34628W        W 6354   9.675  41.368   0.212
34629W        W 6355  33.424  18.648   0.687
34630W        W 6356  19.953  32.031  11.313
34631W        W 6357  17.122  24.545  10.676
34632W        W 6358  18.052  10.352  12.923
34633W        W 6359  27.672  28.000   0.318
34634W        W 6360   3.876   7.682  11.789
34635W        W 6361   3.807  28.193   0.287
34636W        W 6362  29.004  43.354  12.957
34637W        W 6363  24.326  33.886   3.783
34638W        W 6364  32.098  17.880  14.075
34639W        W 6365  33.685  22.464  12.222
34640W        W 6366  30.418  43.974  12.448
34641W        W 6367   2.367  29.919  13.887
34642W        W 6368   9.846  41.426   2.266
34643W        W 6369  28.388  21.752   4.186
34644W        W 6370  21.545  25.210  13.249
34645W        W 6371  26.048  26.499  14.048
34646W        W 6372  22.722  40.131  12.946
34647W        W 6373  36.466   4.242   1.561
34648W        W 6374   1.393  27.258  14.931
34649W        W 6375   3.778  12.767  11.140
34650W        W 6376  20.294   0.265   0.132
34651W        W 6377  19.333  29.449   0.757
34652W        W 6378  43.847  24.498   2.585
34653W        W 6379  21.442  33.020  10.999
34654W        W 6380  26.138  25.195   4.613
34655W        W 6381  42.148  37.313  13.690
34656W        W 6382  27.424  11.600  12.127
34657W        W 6383  24.091  39.640  10.718
34658W        W 6384  27.163  21.312   4.937
34659W        W 6385  21.017   2.908  13.022
34660W        W 6386   5.692   7.956   9.644
34661W        W 6387  33.032  44.306   4.937
34662W        W 6388  38.479  11.731  12.272
34663W        W 6389  20.235  34.292   0.440
34664W        W 6390  28.076  19.770  14.482
34665W        W 6391  24.454  22.779  11.207
34666W        W 6392  41.199  35.966   3.995
34667W        W 6393  35.993   7.301   2.303
34668W        W 6394  24.160  19.755  15.000
34669W        W 6395  16.072   8.812  11.469
34670W        W 6396  36.382  40.436   0.250
34671W        W 6397   2.317  39.666   3.302
34672W        W 6398  37.133   0.379  11.666
34673W        W 6399  31.204  41.330  11.438
34674W        W 6400  12.342  30.098  13.763
34675W        W 6401  30.509   7.143  11.249
34676W        W 6402   3.967  40.845   2.551
34677W        W 6403  41.021  20.303   4.554
34678W        W 6404   1.168  31.457  13.848
34679W        W 6405  33.122  42.788   4.937
34680W        W 6406  21.750  36.379   3.776
34681W        W 6407   5.621  33.612   1.385
34682W        W 6408  40.560  28.253  12.522
34683W        W 6409  42.306  16.505  14.813
34684W        W 6410  34.016  29.378  12.463
34685W        W 6411  39.721  38.443   1.480
34686W        W 6412  25.463  17.554   3.157
34687W        W 6413  19.603  29.881   4.849
34688W        W 6414   1.406   3.412  12.671
34689W        W 6415  33.597  31.127  14.581
34690W        W 6416  14.703   6.309  13.719
34691W        W 6417  24.432   1.375  10.721
34692W        W 6418  37.919  34.902   4.186
34693W        W 6419   5.251  32.387   3.213
34694W        W 6420  25.143  17.290  11.378
34695W        W 6421  19.043  39.700  10.790
34696W        W 6422  32.076  23.153   3.330
34697W        W 6423  31.658  41.727   9.839
34698W        W 6424  24.763   1.801   3.063
34699W        W 6425  41.082   8.656  12.947
34700W        W 6426  37.450  10.788  14.240
34701W        W 6427  28.949  30.847   2.904
34702W        W 6428   6.671  43.949   2.695
34703W        W 6429  26.254  44.483   0.619
34704W        W 6430  40.339  41.989  10.679
34705W        W 6431  20.996  16.701   4.618
34706W        W 6432   0.515  15.111  11.565
34707W        W 6433  13.806   1.320  13.394
34708W        W 6434  26.776  18.044   3.155
34709W        W 6435  25.043   8.038   1.764
34710W        W 6436  28.075   5.811  12.154
34711W        W 6437   6.826  23.020  11.607
34712W        W 6438  10.357  20.677   2.625
34713W        W 6439  11.791  17.544   9.752
34714W        W 6440  31.958  29.782   0.866
34715W        W 6441  32.925  43.959  13.319
34716W        W 6442  30.169  34.784   0.278
34717W        W 6443  18.103   6.410   3.886
34718W        W 6444  24.208   6.633  11.223
34719W        W 6445   6.708   2.923  14.789
34720W        W 6446  44.590  26.077  14.385
34721W        W 6447   3.670  17.718  12.964
34722W        W 6448  37.597  27.933  10.378
34723W        W 6449  44.412  21.956   4.154
34724W        W 6450   8.624  11.137   4.637
34725W        W 6451  42.280  42.291   3.917
34726W        W 6452  15.788  28.715  14.906
34727W        W 6453  13.097  18.314  12.543
34728W        W 6454  29.025  35.470   2.106
34729W        W 6455  29.664   5.342  10.676
34730W        W 6456  41.819   9.430   3.612
34731W        W 6457  13.411  41.256   0.403
34732W        W 6458  13.581  41.840  12.966
34733W        W 6459  44.338  43.901  10.681
34734W        W 6460   3.373  27.707   4.619
34735W        W 6461  17.022  30.302   5.045
34736W        W 6462   1.789   9.722  12.315
34737W        W 6463  18.087  17.743   4.533
34738W        W 6464  15.146  12.639   1.692
34739W        W 6465  31.907   6.465   2.027
34740W        W 6466   1.896  25.509  10.846
34741W        W 6467  38.802   2.407  12.634
34742W        W 6468  42.376  10.801   2.187
34743W        W 6469  38.858   2.718   4.654
34744W        W 6470  14.112  38.044  11.965
34745W        W 6471  35.348  41.421  12.414
34746W        W 6472   8.704  19.848  13.460
34747W        W 6473  36.621   1.713   4.593
34748W        W 6474  32.992  31.809   2.788
34749W        W 6475   6.957  27.282   2.877
34750W        W 6476  15.287   8.692  14.898
34751W        W 6477  34.581   7.207   1.712
34752W        W 6478  15.753   3.646  13.375
34753W        W 6479  41.750  36.733   0.840
34754W        W 6480  13.853  27.451   1.906
34755W        W 6481  30.111  10.554  10.726
34756W        W 6482   2.659  18.282   0.964
34757W        W 6483  34.835   0.239  11.071
34758W        W 6484  24.530  32.597  13.614
34759W        W 6485  21.974  21.308  11.891
34760W        W 6486  15.761  16.753  10.692
34761W        W 6487  41.865   4.814  12.492
34762W        W 6488  15.294   1.217   2.695
34763W        W 6489  33.490  20.717   0.405
34764W        W 6490  41.929  27.210   2.286
34765W        W 6491  13.499  13.730  12.918
34766W        W 6492  10.225  30.203  14.074
34767W        W 6493  34.311  32.156  11.228
34768W        W 6494  43.417  29.451  12.017
34769W        W 6495  23.735  33.577  14.803
34770W        W 6496  39.302   1.882  14.925
34771W        W 6497  44.499   4.239  14.328
34772W        W 6498  28.054  31.905   2.643
34773W        W 6499   0.704  31.669  11.130
34774W        W 6500  38.516   4.498  13.740
34775W        W 6501  43.412  42.498  11.413
34776W        W 6502  32.265  27.438  13.405
34777W        W 6503  26.662  43.016   0.958
34778W        W 6504  42.091   0.661  14.371
34779W        W 6505  13.390  30.651   4.068
34780W        W 6506  28.495  41.954  13.153
34781W        W 6507  11.846   0.797   3.116
34782W        W 6508  30.434  19.622   4.327
34783W        W 6509  20.027  29.562  12.825
34784W        W 6510   7.404  16.661   1.773
34785W        W 6511  39.219  39.840   2.648
34786W        W 6512  30.589   9.575  12.882
34787W        W 6513  40.256  10.253  10.630
34788W        W 6514  12.196  35.366  14.678
34789W        W 6515  11.932   6.102  13.378
34790W        W 6516  31.599  25.113   4.361
34791W        W 6517   2.905  18.681   0.321
34792W        W 6518  14.166   9.124   0.054
34793W        W 6519  12.887  29.870  12.957
34794W        W 6520  39.093  21.952   4.417
34795W        W 6521  25.250  43.074  12.537
34796W        W 6522  19.084   7.722  12.694
34797W        W 6523  31.975  25.177   2.443
34798W        W 6524  37.825  25.442  14.927
34799W        W 6525  19.524  16.767  14.436
34800W        W 6526  28.402  38.729   3.284
34801W        W 6527  19.774   7.808  11.584
34802W        W 6528  13.601  43.006  14.825
34803W        W 6529  25.278   1.921  10.594
34804W        W 6530   8.401  35.976  13.063
34805W        W 6531  40.366  14.182   0.189
34806W        W 6532  34.080   0.900   0.580
34807W        W 6533   1.047  20.431   0.443
34808W        W 6534  30.173  20.161  13.522
34809W        W 6535   5.171  31.430   0.408
34810W        W 6536   4.397  44.367   4.581
34811W        W 6537   6.260  39.171  11.678
34812W        W 6538   1.378  12.083  11.523
34813W        W 6539  28.589  16.149  11.504
34814W        W 6540  42.794  13.781   4.205
34815W        W 6541  19.107  14.680   4.782
34816W        W 6542  38.550  37.317  12.844
34817W        W 6543  24.145  15.682   4.952
34818W        W 6544  25.261  32.880   1.614
34819W        W 6545  20.007  19.317   2.374
34820W        W 6546   1.620   7.849  12.837
34821W        W 6547  25.051  16.087   1.898
34822W        W 6548   7.724   5.825  13.189
34823W        W 6549   0.402  44.322   3.448
34824W        W 6550   8.823   4.357  10.381
34825W        W 6551  36.848  13.540  14.177
34826W        W 6552  42.249   8.770  14.289
34827W        W 6553  41.418  22.555   0.207
34828W        W 6554  17.088  25.033  12.439
34829W        W 6555  30.186  34.902   2.610
34830W        W 6556  40.404  19.662  14.452
34831W        W 6557  21.043   8.683  13.976
34832W        W 6558  28.955   5.786   1.848
34833W        W 6559  32.055  13.150  11.351
34834W        W 6560  42.286  32.543  13.804
34835W        W 6561  17.621  29.426   3.218
34836W        W 6562  11.241  26.519  12.804
34837W        W 6563  33.501  19.827  12.467
34838W        W 6564  17.726   2.246   4.006
34839W        W 6565  42.490   0.847   1.303
34840W        W 6566   7.241  16.669   4.876
34841W        W 6567  13.204  28.696  14.886
34842W        W 6568  33.618   6.763  14.506
34843W        W 6569  39.007  34.144   4.792
34844W        W 6570  16.690  40.088   0.412
34845W        W 6571  13.331  41.383  14.486
34846W        W 6572  11.357  40.659   2.820
34847W        W 6573  44.066   6.772  14.828
34848W        W 6574   9.253  32.100  10.257
34849W        W 6575  12.426  31.962  10.426
34850W        W 6576  32.584   1.909   4.590
34851W        W 6577   1.962  41.946  14.361
34852W        W 6578  31.172  11.599   0.828
34853W        W 6579   0.870   1.538  13.559
34854W        W 6580  17.329  37.940   0.123
34855W        W 6581  28.411   1.358   1.921
34856W        W 6582  28.820  20.083  12.076
34857W        W 6583  32.609  35.942  11.075
34858W        W 6584  33.949   8.807  12.994
34859W        W 6585  22.769  43.426  11.481
34860W        W 6586  40.770  11.107  10.725
34861W        W 6587  34.376   0.381  10.791
34862W        W 6588  30.760  16.798  10.937
34863W        W 6589  25.291  20.119   4.249
34864W        W 6590  29.483  39.562   0.453
34865W        W 6591  27.143  38.066   3.610
34866W        W 6592   4.348  18.082  14.910
34867W        W 6593  38.145  44.080   1.251
34868W        W 6594  32.551  37.457  14.573
34869W        W 6595  18.856  19.676   4.128
34870W        W 6596  15.600  35.891   3.797
34871W        W 6597   9.223  15.803   4.382
34872W        W 6598  21.969  43.481  14.543
34873W        W 6599  38.014  28.445  14.567
34874W        W 6600  36.095  37.970   4.265
34875W        W 6601  13.568  16.135  10.587
34876W        W 6602  16.675  21.998   4.769
34877W        W 6603  38.306  41.732  12.093
34878W        W 6604  36.145  38.402   0.791
34879W        W 6605  18.579  41.354  11.205
34880W        W 6606  21.783  41.315  11.713
34881W        W 6607   0.272  29.907  12.993
34882W        W 6608  29.542  33.437   2.170
34883W        W 6609   7.253  14.838   2.252
34884W        W 6610   4.677  39.534  13.513
34885W        W 6611  44.964  20.329   4.615
34886W        W 6612  40.512  31.533   2.718
34887W        W 6613  27.066  35.418  10.380
34888W        W 6614   3.995   2.328   4.483
34889W        W 6615  39.349  18.237  11.115
34890W        W 6616  32.048  42.463  13.437
34891W        W 6617  10.199  20.416  14.861
34892W        W 6618  38.460   4.299   1.433
34893W        W 6619  39.329  21.762   3.619
34894W        W 6620  26.055   3.477  11.996
34895W        W 6621  25.033  44.311   0.834
34896W        W 6622  33.856  27.200  12.677
34897W        W 6623  24.685   9.146   0.572
34898W        W 6624  32.919   8.283   2.442
34899W        W 6625  33.829  41.534  14.219
34900W        W 6626  13.771  18.810  11.862
34901W        W 6627  10.183  32.335   1.689
34902W        W 6628  35.397   5.903   1.292
34903W        W 6629  30.258  29.415   3.334
34904W        W 6630   0.073  33.833  12.393
34905W        W 6631  21.741  23.196  11.436
34906W        W 6632  44.452   1.470   4.587
34907W        W 6633  11.281   3.848  13.982
34908W        W 6634  16.063  33.318   0.873
34909W        W 6635   5.691  35.850   4.137
34910W        W 6636  35.605  39.802  11.909
34911W        W 6637  31.685  11.620   1.426
34912W        W 6638  25.697  28.488  13.651
34913W        W 6639  27.944  15.018   4.006
34914W        W 6640  24.367  32.268   3.225
34915W        W 6641  16.727  43.456  13.083
34916W        W 6642  29.058  25.249  12.544
34917W        W 6643  25.965  13.191  14.216
34918W        W 6644   0.906  26.057  10.702
34919W        W 6645  20.473   5.801  12.922
34920W        W 6646  41.947  32.149  14.692
34921W        W 6647   6.349  38.600  14.584
34922W        W 6648  18.605  21.066  10.609
34923W        W 6649   4.285  24.266   2.752
34924W        W 6650   3.809  13.622  12.335
34925W        W 6651  18.553  16.191  12.403
34926W        W 6652  20.640   5.942  10.750
34927W        W 6653  14.084  24.559  12.543
34928W        W 6654  13.263  44.756  13.056
34929W        W 6655   6.688  11.330   2.374
34930W        W 6656  37.172  10.897  12.075
34931W        W 6657  28.262   9.560   3.617
34932W        W 6658  40.890  15.615  12.635
34933W        W 6659  37.039  19.595   0.608
34934W        W 6660  43.606  14.265  13.170
34935W        W 6661  12.624  42.350   3.886
34936W        W 6662  14.067  17.157  13.728
34937W        W 6663  25.022  18.061  13.562
34938W        W 6664  37.507  35.661   0.785
34939W        W 6665  35.272  12.058  11.521
34940W        W 6666  38.774  35.553  12.100
34941W        W 6667  42.800  23.620  14.381
34942W        W 6668  44.987   4.910  13.922
34943W        W 6669  20.166  35.273   0.297
34944W        W 6670  27.836  16.780  12.976
34945W        W 6671  26.549  19.976   5.141
34946W        W 6672  38.764  14.127  11.936
34947W        W 6673  43.432   3.088   3.264
34948W        W 6674   6.578   7.437   5.465
34949W        W 6675  12.680  39.490  14.286
34950W        W 6676  32.337  31.170   3.159
34951W        W 6677  19.887  29.063   3.786
34952W        W 6678  25.785  24.908  11.206
34953W        W 6679  29.688  25.151   4.721
34954W        W 6680  20.593  42.811   3.175
34955W        W 6681  39.112  37.900  14.063
34956W        W 6682  22.791  39.377   0.525
34957W        W 6683  14.051   5.697  14.914
34958W        W 6684  13.120   9.133   1.336
34959W        W 6685   9.649  25.782  14.211
34960W        W 6686   2.816  19.828   1.043
34961W        W 6687  28.652  30.674   3.851
34962W        W 6688  33.596  18.740  14.785
34963W        W 6689  29.804   4.264  14.896
34964W        W 6690  31.176  18.604   3.399
34965W        W 6691  22.033   0.001  12.525
34966W        W 6692  14.626  19.550   0.319
34967W        W 6693   6.860  24.511  10.624
34968W        W 6694   4.242  33.111   4.269
34969W        W 6695  24.705  33.462  12.117
34970W        W 6696   9.326  24.779   1.163
34971W        W 6697  41.873  41.540  12.435
34972W        W 6698  37.056  39.018   2.785
34973W        W 6699  33.948   8.487  13.419
34974W        W 6700   3.884  20.153  12.990
34975W        W 6701  13.119  10.679  11.407
34976W        W 6702   7.528  15.789   3.693
34977W        W 6703  30.663  24.769  12.018
34978W        W 6704  17.366  24.141  11.559
34979W        W 6705  14.442  38.748  11.516
34980W        W 6706  14.587  38.869   2.232
34981W        W 6707  38.247  23.129   3.716
34982W        W 6708   8.704   9.235  12.416
34983W        W 6709  12.180  19.713   4.733
34984W        W 6710  18.151  29.559   1.935
34985W        W 6711  16.554  39.941   1.405
34986W        W 6712  41.063   0.398   2.348
34987W        W 6713  33.904  11.959   2.400
34988W        W 6714  38.041  19.983  14.866
34989W        W 6715  39.597   9.344  11.694
34990W        W 6716  24.883  42.628   3.201
34991W        W 6717  42.806  10.235  12.613
34992W        W 6718  36.526  17.090   4.542
34993W        W 6719  44.233  19.730  11.581
34994W        W 6720   8.698  18.885   0.890
34995W        W 6721  36.944  28.707  10.626
34996W        W 6722  36.346  18.643   3.865
34997W        W 6723  19.790   7.038  11.224
34998W        W 6724  14.930  25.423   2.864
34999W        W 6725  16.570  23.220   2.275
35000W        W 6726  27.615  20.552  12.116
35001W        W 6727  36.491  18.194  14.291
35002W        W 6728  21.014  10.610   3.200
35003W        W 6729  14.138  25.076   2.629
35004W        W 6730  17.561   0.812  14.455
35005W        W 6731  11.068  19.846   2.081
35006W        W 6732  34.683  12.904  13.054
35007W        W 6733  14.871  42.700   0.270
35008W        W 6734  26.164  33.010  12.548
35009W        W 6735  34.447  31.190  14.257
35010W        W 6736  42.059  26.081  11.156
35011W        W 6737  40.030   0.463  10.501
35012W        W 6738  14.192  18.667  12.111
35013W        W 6739  27.888  43.281   2.202
35014W        W 6740  33.149  31.187   0.257
35015W        W 6741   0.431   2.342  11.900
35016W        W 6742   3.681   3.771   1.275
35017W        W 6743  25.424  24.428   5.167
35018W        W 6744  19.518  20.531  12.208
35019W        W 6745   2.336  30.038  11.488
35020W        W 6746  29.059  17.193  10.901
35021W        W 6747  18.192  18.233  12.819
35022W        W 6748  13.457   7.780  10.761
35023W        W 6749  18.211   2.878   2.932
35024W        W 6750  23.979  32.710   1.882
35025W        W 6751  38.757   5.764  13.445
35026W        W 6752  31.593  25.596  10.236
35027W        W 6753  40.101  32.276  14.544
35028W        W 6754  29.208  30.611   0.221
35029W        W 6755  30.525  13.082   0.041
35030W        W 6756  25.000  18.331   4.751
35031W        W 6757  19.815  24.225   1.817
35032W        W 6758   4.834  44.392  12.210
35033W        W 6759  38.736  44.327   5.092
35034W        W 6760  38.392   6.224   1.802
35035W        W 6761  33.927  15.877   1.736
35036W        W 6762  18.095  43.908  11.496
35037W        W 6763  39.173   8.558  11.427
35038W        W 6764  39.531  25.092   1.094
35039W        W 6765  24.795  26.588   5.061
35040W        W 6766  25.632  24.914   5.093
35041W        W 6767  23.418  39.904  13.383
35042W        W 6768  13.539  17.841  11.128
35043W        W 6769   2.230  36.428   0.535
35044W        W 6770  22.476   2.315  11.516
35045W        W 6771  41.289  31.282   0.269
35046W        W 6772  24.704  28.482  10.675
35047W        W 6773  36.344  17.071  10.964
35048W        W 6774   4.551  39.510  12.125
35049W        W 6775   9.560  33.842  12.661
35050W        W 6776  28.736  13.191   4.655
35051W        W 6777  40.780  22.689  13.906
35052W        W 6778  13.839  36.931  10.657
35053W        W 6779  34.356   6.238   3.579
35054W        W 6780  28.951  13.608   1.375
35055W        W 6781  15.605  12.161   0.417
35056W        W 6782  27.079  14.125   3.078
35057W        W 6783  30.581  27.919   5.100
35058W        W 6784   2.338  14.933  12.371
35059W        W 6785  16.541  34.413   3.269
35060W        W 6786  38.077  41.443   4.778
35061W        W 6787  40.997  38.417   3.295
35062W        W 6788  35.191   8.565   0.518
35063W        W 6789   3.940  38.303   3.546
35064W        W 6790  38.065  13.918  10.800
35065W        W 6791  25.813  34.902   3.034
35066W        W 6792  25.599  19.270   5.121
35067W        W 6793  39.115   9.856   1.282
35068W        W 6794  10.651  18.485  13.063
35069W        W 6795   0.270   5.662   2.780
35070W        W 6796  26.115  22.792  12.501
35071W        W 6797  35.367  32.639  12.908
35072W        W 6798  29.855   0.791   4.146
35073W        W 6799  20.629  35.247   4.887
35074W        W 6800  29.888   8.818  13.903
35075W        W 6801  30.608  42.472   0.050
35076W        W 6802  31.451  43.714   2.835
35077W        W 6803  27.228  22.241   3.567
35078W        W 6804   8.622  21.710   3.903
35079W        W 6805  18.069  17.154  11.914
35080W        W 6806  41.204  36.401  13.820
35081W        W 6807  36.567  40.298   0.791
35082W        W 6808  10.423   9.841  14.307
35083W        W 6809  29.180   9.318  14.032
35084W        W 6810  33.352  19.198  14.870
35085W        W 6811  24.923   3.172  13.455
35086W        W 6812  18.592   4.778   1.881
35087W        W 6813  38.259  39.029  11.617
35088W        W 6814  42.525  18.619   1.705
35089W        W 6815   4.266  17.557   4.655
35090W        W 6816   0.147   7.474  11.531
35091W        W 6817   5.897  30.838  13.338
35092W        W 6818   8.107   0.870   1.961
35093W        W 6819  13.671  19.416   4.150
35094W        W 6820  12.288  37.758  12.135
35095W        W 6821   8.565   7.431   4.287
35096W        W 6822  38.450  28.245  10.608
35097W        W 6823  23.526  43.860   3.302
35098W        W 6824   9.117   8.560   5.105
35099W        W 6825  30.972   6.774   2.645
35100W        W 6826  37.353  14.203   0.142
35101W        W 6827   8.211  40.916   3.592
35102W        W 6828  35.359  24.085   0.901
35103W        W 6829  12.129  31.395   3.277
35104W        W 6830  20.523  40.974   2.908
35105W        W 6831  10.328  40.477  14.690
35106W        W 6832  31.591  17.542   2.771
35107W        W 6833   3.958  15.675  10.472
35108W        W 6834  25.140  22.046   0.363
35109W        W 6835  20.685  26.487  12.985
35110W        W 6836  15.832  22.760  11.054
35111W        W 6837  42.746  33.495  14.289
35112W        W 6838   3.927  44.542   2.767
35113W        W 6839  22.499  28.097   9.797
35114W        W 6840   3.738  12.939  13.557
35115W        W 6841  35.635  20.151  11.939
35116W        W 6842  24.922  10.712  11.740
35117W        W 6843  12.280  22.520   0.669
35118W        W 6844  14.450   7.320   0.116
35119W        W 6845  22.814  38.408  12.806
35120W        W 6846   1.446   6.447  14.417
35121W        W 6847  39.503  35.679   0.428
35122W        W 6848  38.919  43.786  10.249
35123W        W 6849  34.502  27.877  13.276
35124W        W 6850  31.083  23.151  11.256
35125W        W 6851  29.635  21.666   2.169
35126W        W 6852   3.486   6.216  13.248
35127W        W 6853  13.269  30.059  13.805
35128W        W 6854  29.854   1.091  13.727
35129W        W 6855  19.630  26.089   3.861
35130W        W 6856  19.001  12.358   0.453
35131W        W 6857  12.686  23.128  14.014
35132W        W 6858   8.618  38.950   0.041
35133W        W 6859  38.698  44.278  10.058
35134W        W 6860   3.884  19.119   3.731
35135W        W 6861  41.925   1.608  13.426
35136W        W 6862  36.625   3.380   0.636
35137W        W 6863   7.868  44.320  12.526
35138W        W 6864  16.057  41.377  13.820
35139W        W 6865  21.278   7.848   1.528
35140W        W 6866  35.865  11.220   1.434
35141W        W 6867   0.007   8.685  14.887
35142W        W 6868   7.802   6.372  10.580
35143W        W 6869  20.084  23.331   2.668
35144W        W 6870  15.893  17.053   0.329
35145W        W 6871  36.448  19.052  13.166
35146W        W 6872  16.309  42.259   2.783
35147W        W 6873  32.981  34.828  12.456
35148W        W 6874   9.925   3.501   1.835
35149W        W 6875  15.543  34.505  11.167
35150W        W 6876  22.071  12.773  12.934
35151W        W 6877  35.956  17.994   4.089
35152W        W 6878   7.892  42.007   4.875
35153W        W 6879  23.159  11.880   3.149
35154W        W 6880  19.277   6.859   1.390
35155W        W 6881  27.576   5.737   3.833
35156W        W 6882  15.580   8.147  13.434
35157W        W 6883  38.485   9.483  11.988
35158W        W 6884  40.297   0.821  13.852
35159W        W 6885  25.769  29.685  14.297
35160W        W 6886  26.470   5.815  12.906
35161W        W 6887  30.276  35.414  13.448
35162W        W 6888  16.988  41.493   1.787
35163W        W 6889  12.304  33.925  11.382
35164W        W 6890  22.496   7.956  11.612
35165W        W 6891  28.975  31.361   2.897
35166W        W 6892  30.380   4.807   1.509
35167W        W 6893  26.683   7.878  10.649
35168W        W 6894   8.387  36.966   0.885
35169W        W 6895  42.833  25.181  12.005
35170W        W 6896  18.766  37.854  12.947
35171W        W 6897  31.012  35.447   4.525
35172W        W 6898  29.011  15.676   0.508
35173W        W 6899  43.969  43.924   2.166
35174W        W 6900  41.809   3.766  14.495
35175W        W 6901  12.699  11.286  13.333
35176W        W 6902   1.812  20.126   1.275
35177W        W 6903  41.993  18.218  12.111
35178W        W 6904  17.730  33.020  11.173
35179W        W 6905  42.046  34.205  13.960
35180W        W 6906  41.091  33.443   0.407
35181W        W 6907   4.414  35.380  14.003
35182W        W 6908  20.815  38.942   3.687
35183W        W 6909   9.884  39.963   4.094
35184W        W 6910  29.542   3.240   1.661
35185W        W 6911   7.630  25.624   2.698
35186W        W 6912  20.987  36.045   4.543
35187W        W 6913  41.961  37.042   1.748
35188W        W 6914  34.553  11.918   1.654
35189W        W 6915  44.068  17.760  13.416
35190W        W 6916   4.385  43.346   3.239
35191W        W 6917  16.730  30.970   2.391
35192W        W 6918   8.289   7.088  14.994
35193W        W 6919  17.739  30.953  12.762
35194W        W 6920  39.749  34.817  13.356
35195W        W 6921   9.792   7.360   2.259
35196W        W 6922   1.804  39.070   0.944
35197W        W 6923  38.646  41.007   0.433
35198W        W 6924   1.978  31.980  13.657
35199W        W 6925   2.487  17.545  13.599
35200W        W 6926  27.720  35.154   4.412
35201W        W 6927  29.407  11.134   4.052
35202W        W 6928  29.410  26.610   0.842
35203W        W 6929   8.030  24.532  14.256
35204W        W 6930  12.340  25.351   0.041
35205W        W 6931   2.497  20.180  10.725
35206W        W 6932   5.374  20.978   1.065
35207W        W 6933   4.400  27.014   0.722
35208W        W 6934  40.810  36.843   0.200
35209W        W 6935  42.084  25.972  12.857
35210W        W 6936  21.072  19.368   4.289
35211W        W 6937  31.196   6.416   0.368
35212W        W 6938  15.097  34.486  14.836
35213W        W 6939  37.646   9.295   5.048
35214W        W 6940   1.903  26.219   2.307
35215W        W 6941  29.679  34.923   0.342
35216W        W 6942  22.217  13.657  14.271
35217W        W 6943  12.064  31.369   1.271
35218W        W 6944   5.814  16.596   4.312
35219W        W 6945   9.435  37.908  13.882
35220W        W 6946   8.479  28.956  13.406
35221W        W 6947  40.918  33.418   4.486
35222W        W 6948  16.777   0.004   4.282
35223W        W 6949  30.619  11.547   2.285
35224W        W 6950   5.409  44.049  10.672
35225W        W 6951  12.603  24.109  14.004
35226W        W 6952   9.272  23.503  14.432
35227W        W 6953  11.649  18.514  13.251
35228W        W 6954  15.164   8.366  13.753
35229W        W 6955   5.785  32.876   0.805
35230W        W 6956  30.636  31.327  13.669
35231W        W 6957   3.972  43.329  10.678
35232W        W 6958   2.802  44.322  11.620
35233W        W 6959  26.744  21.161   3.699
35234W        W 6960   7.273  39.244  12.417
35235W        W 6961  28.441  16.311   0.177
35236W        W 6962  13.410  28.251  11.049
35237W        W 6963  33.107  13.575  13.811
35238W        W 6964   3.246  21.512   4.533
35239W        W 6965   4.617  18.419   5.097
35240W        W 6966  29.616  42.455  12.827
35241W        W 6967  23.155  29.067  13.016
35242W        W 6968  32.953  40.042   1.208
35243W        W 6969   6.520  44.990  10.745
35244W        W 6970  28.807  26.359   2.763
35245W        W 6971  16.730  16.875  11.603
35246W        W 6972  33.431  20.974  13.034
35247W        W 6973  19.568  37.488   4.467
35248W        W 6974  15.565  33.321   1.793
35249W        W 6975   9.357   7.949  13.403
35250W        W 6976  36.372   8.211  10.968
35251W        W 6977  44.521  24.297   3.237
35252W        W 6978  20.698   2.343  12.191
35253W        W 6979  12.650  40.971  11.553
35254W        W 6980  21.078   5.539   4.426
35255W        W 6981  21.552  25.190   1.741
35256W        W 6982   3.917  28.141  11.328
35257W        W 6983  10.840  29.550  11.616
35258W        W 6984  43.410  22.084  12.585
35259W        W 6985  37.814  28.127  14.956
35260W        W 6986   8.580  17.167  10.553
35261W        W 6987  29.683  23.706   4.225
35262W        W 6988   2.806  25.961   2.446
35263W        W 6989   3.424   2.088   2.269
35264W        W 6990  16.024  26.445   2.319
35265W        W 6991  40.255  42.938  10.653
35266W        W 6992  14.649  13.817   2.299
35267W        W 6993  19.218   5.642  11.004
35268W        W 6994  44.341  32.840  12.734
35269W        W 6995  15.167  14.656  10.637
35270W        W 6996   4.896  29.544  13.023
35271W        W 6997  36.640  15.053  13.754
35272W        W 6998  11.113   3.510   1.358
35273W        W 6999  20.651  23.979  11.874
35274W        W 7000  41.853  13.421   1.286
35275W        W 7001  22.542  25.125   0.237
35276W        W 7002  29.132   7.347   4.077
35277W        W 7003   3.757  17.223  11.106
35278W        W 7004  27.018   5.357  14.355
35279W        W 7005  15.637  13.025  11.022
35280W        W 7006  25.006  35.440  14.792
35281W        W 7007  17.710  41.561  13.424
35282W        W 7008  39.586  38.853   0.965
35283W        W 7009  19.335  33.083   4.168
35284W        W 7010   9.319  38.362   3.384
35285W        W 7011   9.338  33.327  13.801
35286W        W 7012  42.825  11.633   4.521
35287W        W 7013  18.063  22.598   0.279
35288W        W 7014  15.058   8.348   1.475
35289W        W 7015  33.054  32.685  14.930
35290W        W 7016  36.881   0.260   3.880
35291W        W 7017  23.613  37.068  12.945
35292W        W 7018  28.966  33.556   4.185
35293W        W 7019  21.727  15.701  12.214
35294W        W 7020  21.558   4.906   1.692
35295W        W 7021  20.998  30.575   2.426
35296W        W 7022  29.541   0.385   4.241
35297W        W 7023  26.510  17.246   2.179
35298W        W 7024  23.049  18.164  11.006
35299W        W 7025  24.526  32.563  13.093
35300W        W 7026   1.052  33.027   4.241
35301W        W 7027   0.880  39.378  11.406
35302W        W 7028  44.393   9.427   3.515
35303W        W 7029  18.765  43.370   3.457
35304W        W 7030  17.013  31.664   3.003
35305W        W 7031   5.144   2.029   4.043
35306W        W 7032   9.723  11.683  14.523
35307W        W 7033  28.153  12.777   3.187
35308W        W 7034  28.919  29.952  10.738
35309W        W 7035  27.128  10.975  11.391
35310W        W 7036  27.887   3.840  13.830
35311W        W 7037  37.436  12.412   4.596
35312W        W 7038  13.661  33.432   3.834
35313W        W 7039  14.266  22.472  13.887
35314W        W 7040  15.115   6.802  10.581
35315W        W 7041  39.342  33.925   3.138
35316W        W 7042  30.959  17.648   3.157
35317W        W 7043   5.425  10.531   2.313
35318W        W 7044   1.437  38.595  10.708
35319W        W 7045  24.894  34.390  14.061
35320W        W 7046  21.248  10.859   0.840
35321W        W 7047   7.366  18.854  13.213
35322W        W 7048   9.750   7.683  11.649
35323W        W 7049  39.626  17.227  11.186
35324W        W 7050   0.554  30.423  10.676
35325W        W 7051   4.885  20.620   2.891
35326W        W 7052   4.177  18.328   3.305
35327W        W 7053  27.502  13.859   1.343
35328W        W 7054  44.986  19.126  12.447
35329W        W 7055  27.494  35.559   3.517
35330W        W 7056  23.442  12.963   0.212
35331W        W 7057   4.817  35.993  10.590
35332W        W 7058  42.864  43.231  13.514
35333W        W 7059  32.190  31.422  14.456
35334W        W 7060  31.303  28.985   3.734
35335W        W 7061  12.495   1.386  13.138
35336W        W 7062  29.178   8.649  12.007
35337W        W 7063  38.147  14.384  12.777
35338W        W 7064   2.999  11.507   1.410
35339W        W 7065  37.899  20.294  11.133
35340W        W 7066  33.248  37.563   2.741
35341W        W 7067   9.852  22.593   3.652
35342W        W 7068  17.626  10.299   1.460
35343W        W 7069  25.987  18.918  10.714
35344W        W 7070  26.152  17.407   1.247
35345W        W 7071   6.629  40.409  13.174
35346W        W 7072  39.060  42.307  13.525
35347W        W 7073   2.824   8.979  12.023
35348W        W 7074  33.903  21.243   0.834
35349W        W 7075  26.882   4.118   3.728
35350W        W 7076  23.978  11.663  10.005
35351W        W 7077  13.847  35.268  11.636
35352W        W 7078  26.446  38.287   3.683
35353W        W 7079   5.667  37.924  13.292
35354W        W 7080  29.633  28.635   4.572
35355W        W 7081  27.152  38.135  12.153
35356W        W 7082  15.248  42.646   1.425
35357W        W 7083   6.900  39.530  10.792
35358W        W 7084   4.175  28.688   1.474
35359W        W 7085  36.452  34.164   0.857
35360W        W 7086  31.659  15.188  12.696
35361W        W 7087  42.307  44.930  12.081
35362W        W 7088  41.535   2.167  11.223
35363W        W 7089   0.889  23.294  12.990
35364W        W 7090  43.248  42.076  10.665
35365W        W 7091  36.911  25.586  13.869
35366W        W 7092  20.098  30.143   2.601
35367W        W 7093  17.819  30.469   4.693
35368W        W 7094  32.474  10.583   0.640
35369W        W 7095  32.143  42.037   2.891
35370W        W 7096  36.960  30.412   1.914
35371W        W 7097  38.954  34.108  12.188
35372W        W 7098  32.921   9.567  14.401
35373W        W 7099  18.068   7.468   1.131
35374W        W 7100  16.781  29.879   2.200
35375W        W 7101   6.907   7.955   4.258
35376W        W 7102  44.457   2.980  12.189
35377W        W 7103  11.807  12.335  12.574
35378W        W 7104  13.776  34.371  11.993
35379W        W 7105  26.979   1.000   3.405
35380W        W 7106   0.875  18.237   2.756
35381W        W 7107   6.356  12.593  13.288
35382W        W 7108  39.836  44.108  13.102
35383W        W 7109  11.627  41.287   1.875
35384W        W 7110   6.086  32.248   5.036
35385W        W 7111  17.363  28.725   0.799
35386W        W 7112  10.502  25.700   9.695
35387W        W 7113  35.105   0.706   3.098
35388W        W 7114   4.508  15.856   2.377
35389W        W 7115  10.023  42.952   4.258
35390W        W 7116   8.208  34.291  12.675
35391W        W 7117  37.616   6.900  12.965
35392W        W 7118  25.198  20.848   2.304
35393W        W 7119  37.163  35.507  12.317
35394W        W 7120  11.665  27.570   1.958
35395W        W 7121  25.379  24.309  13.969
35396W        W 7122   3.347  13.371  10.656
35397W        W 7123  19.242  41.783   2.342
35398W        W 7124  21.196   6.186   5.176
35399W        W 7125  10.918   7.197  11.661
35400W        W 7126  10.830  12.204   3.262
35401W        W 7127  14.798   8.083  14.614
35402W        W 7128  23.584   5.195   1.217
35403W        W 7129  11.155  41.525   0.320
35404W        W 7130   6.242   1.153   4.900
35405W        W 7131  31.479  20.327  14.619
35406W        W 7132  32.531  16.538  14.945
35407W        W 7133  17.352  25.287  13.796
35408W        W 7134  23.713  19.292  12.599
35409W        W 7135  44.996  16.696   0.957
35410W        W 7136   5.385  18.202  13.943
35411W        W 7137  39.536   8.744  14.575
35412W        W 7138   7.696  37.559  12.119
35413W        W 7139  10.333  12.932  11.006
35414W        W 7140  37.346  23.610  10.824
35415W        W 7141  33.498   2.383  12.914
35416W        W 7142  26.380  15.084   1.934
35417W        W 7143   5.436   2.478   4.055
35418W        W 7144  33.470  40.857   4.119
35419W        W 7145  22.695  33.208   4.066
35420W        W 7146  43.805   9.821   1.384
35421W        W 7147  42.727   5.415  12.571
35422W        W 7148  14.129   6.170  11.689
35423W        W 7149   1.720  41.033   0.852
35424W        W 7150  35.864  41.737   4.682
35425W        W 7151  41.859   5.145   2.184
35426W        W 7152   3.317  23.592   1.407
35427W        W 7153  39.128  14.766   2.090
35428W        W 7154  40.955  18.024  14.999
35429W        W 7155  40.435   7.480  10.649
35430W        W 7156  13.174  36.970   2.935
35431W        W 7157  19.594  35.842   0.923
35432W        W 7158  10.286  40.374  12.029
35433W        W 7159  18.962   2.932  12.535
35434W        W 7160  11.760  43.511  13.863
35435W        W 7161  18.796  13.339  11.152
35436W        W 7162  33.575   5.502   9.846
35437W        W 7163  37.979  29.546   1.828
35438W        W 7164  38.819  15.669   4.166
35439W        W 7165   6.243   9.615  13.989
35440W        W 7166  18.121  14.329   2.662
35441W        W 7167  28.412  17.580   3.162
35442W        W 7168  34.675  27.202  11.425
35443W        W 7169  43.695  13.726  12.418
35444W        W 7170   7.690  31.516   0.771
35445W        W 7171  34.552  17.355   2.639
35446W        W 7172  16.417  34.152  14.743
35447W        W 7173   2.747  26.433  11.765
35448W        W 7174  41.245  24.232  14.472
35449W        W 7175  39.537  24.016  13.510
35450W        W 7176   9.972  33.616   4.096
35451W        W 7177  24.017  21.498   3.173
35452W        W 7178   7.426  40.112  13.609
35453W        W 7179  25.112   9.353  12.390
35454W        W 7180  18.240  38.779  14.413
35455W        W 7181  28.211  18.966  11.167
35456W        W 7182   1.642  26.449  13.769
35457W        W 7183  37.789  43.919  13.919
35458W        W 7184  11.325   9.145  13.944
35459W        W 7185  26.093  44.035   4.346
35460W        W 7186  24.514  10.903   4.819
35461W        W 7187  25.951   4.777  13.447
35462W        W 7188  14.604  28.409   1.729
35463W        W 7189  26.638  32.468   0.185
35464W        W 7190  25.089  28.133   2.532
35465W        W 7191  20.776  12.593  12.541
35466W        W 7192  13.074  29.529  11.140
35467W        W 7193  22.145  34.088  11.203
35468W        W 7194  37.111  34.473   4.168
35469W        W 7195  14.583  35.118  13.785
35470W        W 7196   5.769  17.261  11.039
35471W        W 7197  35.353   3.448   2.137
35472W        W 7198  14.118  44.210   3.261
35473W        W 7199  34.936  26.171  14.374
35474W        W 7200  33.626  16.665   3.763
35475W        W 7201  16.367  26.637  13.297
35476W        W 7202  39.784  32.462  12.032
35477W        W 7203  39.570  37.688  13.024
35478W        W 7204   0.344  24.506  12.607
35479W        W 7205  38.856   3.968  10.670
35480W        W 7206  44.315   8.464   0.424
35481W        W 7207  27.382  26.356  11.743
35482W        W 7208  39.569  40.015   3.976
35483W        W 7209   3.720  25.436  14.956
35484W        W 7210   6.749  14.294  10.563
35485W        W 7211   9.544  27.794  13.880
35486W        W 7212  34.888  21.633   4.366
35487W        W 7213  10.129  13.377  11.544
35488W        W 7214  25.460  43.714   3.621
35489W        W 7215  17.127  33.160  12.930
35490W        W 7216  26.177  31.039  10.690
35491W        W 7217  35.029  34.990  11.209
35492W        W 7218  29.118  27.338   0.586
35493W        W 7219  26.077  29.491   2.362
35494W        W 7220  36.329  32.918   3.298
35495W        W 7221  34.073   8.106   1.738
35496W        W 7222   2.419  18.202  11.209
35497W        W 7223  38.118  16.743   1.448
35498W        W 7224  32.711   5.452   1.027
35499W        W 7225  38.874  15.521   0.299
35500W        W 7226  42.370  10.135  13.892
35501W        W 7227  17.212  36.606  13.864
35502W        W 7228   2.253   7.147  10.732
35503W        W 7229  20.201  10.384  10.681
35504W        W 7230   1.950  20.304  14.464
35505W        W 7231  19.349  34.511   2.802
35506W        W 7232   0.013  16.322  12.665
35507W        W 7233   1.393  40.294   0.895
35508W        W 7234  17.684  14.348   4.749
35509W        W 7235  11.160  20.626  14.327
35510W        W 7236  13.635  24.277  11.909
35511W        W 7237  10.248  15.467   0.232
35512W        W 7238   9.005   5.045   0.315
35513W        W 7239  30.181   7.286  12.815
35514W        W 7240  39.771  40.277   1.738
35515W        W 7241  35.443  23.720   3.635
35516W        W 7242  29.041   1.542  10.709
35517W        W 7243  40.695  44.919   2.757
35518W        W 7244  19.999  32.193  14.390
35519W        W 7245  20.060  21.501   2.419
35520W        W 7246  36.838  28.475   1.907
35521W        W 7247  33.118  36.028   0.867
35522W        W 7248  38.591  15.866  11.544
35523W        W 7249   2.937   4.809   1.414
35524W        W 7250  42.556  38.887   3.733
35525W        W 7251  25.580  12.383  14.588
35526W        W 7252   9.888  18.598   4.240
35527W        W 7253  21.743  24.030  12.036
35528W        W 7254  13.721   6.681  12.914
35529W        W 7255  13.800   7.393  10.755
35530W        W 7256  42.870  24.603   2.458
35531W        W 7257  38.779  39.960  13.405
35532W        W 7258  32.299  33.088   4.068
35533W        W 7259  34.617   1.863   4.696
35534W        W 7260  41.644   5.747  13.397
35535W        W 7261  41.722  25.582  13.006
35536W        W 7262  14.933   9.756  14.716
35537W        W 7263  23.753  32.889  13.005
35538W        W 7264  12.754  20.032   1.882
35539W        W 7265  16.890  11.695  12.548
35540W        W 7266  33.459  36.293  11.626
35541W        W 7267   1.209  26.593  13.470
35542W        W 7268  17.962  21.899   2.923
35543W        W 7269  32.591  27.624   1.792
35544W        W 7270  10.027  25.587  11.576
35545W        W 7271  25.237  33.648   3.910
35546W        W 7272  33.295  15.124  12.158
35547W        W 7273  37.386   3.907  12.879
35548W        W 7274  21.390   2.347  13.379
35549W        W 7275  40.607  23.650   3.683
35550W        W 7276   6.747  37.189   2.806
35551W        W 7277  26.125  42.927   2.206
35552W        W 7278  25.324  38.104  12.199
35553W        W 7279  20.740  21.224  13.437
35554W        W 7280   8.952  11.554  13.868
35555W        W 7281  42.745  27.148   3.363
35556W        W 7282   8.560  33.928  12.511
35557W        W 7283  44.481  16.423   9.847
35558W        W 7284  29.758   9.668   4.285
35559W        W 7285   9.414  44.247   1.742
35560W        W 7286  20.836  39.893   1.292
35561W        W 7287  19.098  36.832   4.456
35562W        W 7288  17.322  21.202  13.948
35563W        W 7289  43.210  25.656   0.846
35564W        W 7290   3.237  20.004  14.080
35565W        W 7291   5.713  20.725   1.986
35566W        W 7292  20.749  38.422   3.788
35567W        W 7293   2.799  39.829   4.582
35568W        W 7294  36.967  19.042   4.404
35569W        W 7295  15.824  40.151  14.370
35570W        W 7296  24.177  38.860   4.307
35571W        W 7297  26.782  21.667  11.249
35572W        W 7298  14.270   1.748  14.438
35573W        W 7299   3.388  15.754  10.570
35574W        W 7300  33.398  39.530   2.249
35575W        W 7301  14.812  10.721   3.726
35576W        W 7302   1.722  11.738   1.315
35577W        W 7303  42.552  39.374  14.771
35578W        W 7304  10.697  15.518  14.253
35579W        W 7305  28.423   3.917   4.217
35580W        W 7306  39.603  28.888  13.385
35581W        W 7307  31.133   2.738   4.192
35582W        W 7308   3.995   6.533   3.698
35583W        W 7309  27.641  35.658   2.704
35584W        W 7310  38.985   7.986   2.841
35585W        W 7311  12.806  17.520   0.798
35586W        W 7312  18.013  11.035   4.009
35587W        W 7313   9.532  25.725   3.196
35588W        W 7314   6.778  12.286  13.369
35589W        W 7315  32.448   0.860   2.170
35590W        W 7316  18.814  14.815   3.123
35591W        W 7317  22.673  33.984   2.270
35592W        W 7318  11.231  44.478  13.318
35593W        W 7319   4.965  26.431   1.340
35594W        W 7320  34.063  40.970   3.739
35595W        W 7321  21.269  10.830   2.738
35596W        W 7322  35.512  44.730  12.381
35597W        W 7323  42.959  36.817  13.915
35598W        W 7324  38.401  10.345   2.921
35599W        W 7325  39.304  17.261   3.306
35600W        W 7326  28.029  34.370  11.482
35601W        W 7327  39.958  12.094  10.410
35602W        W 7328  22.431  17.220   1.730
35603W        W 7329   1.894  40.758   3.905
35604W        W 7330   0.745  36.443   4.688
35605W        W 7331  38.982  26.338  12.948
35606W        W 7332   6.559  35.414  12.981
35607W        W 7333  35.989  35.399  14.682
35608W        W 7334   4.900   5.391   1.957
35609W        W 7335  33.982  36.921   4.890
35610W        W 7336  13.995  33.133   2.215
35611W        W 7337  42.874  42.939   4.558
35612W        W 7338  14.956  31.016  14.972
35613W        W 7339  39.417  30.927   2.606
35614W        W 7340   9.066  43.535   3.674
35615W        W 7341   5.760  28.081  12.969
35616W        W 7342  37.123  25.092  13.981
35617W        W 7343  42.418  24.665  12.565
35618W        W 7344  16.591   3.232   4.628
35619W        W 7345  16.042  29.556   0.272
35620W        W 7346  34.992  16.342  12.402
35621W        W 7347  26.879  32.684   1.784
35622W        W 7348  11.561  10.874  10.161
35623W        W 7349   6.227  12.607   1.011
35624W        W 7350  32.298  43.054   3.720
35625W        W 7351  13.075  28.204   2.693
35626W        W 7352  36.311   9.142  13.058
35627W        W 7353  19.578  36.432  11.607
35628W        W 7354  14.201  44.731  12.070
35629W        W 7355  16.617   4.849   3.762
35630W        W 7356  14.620  14.864  14.289
35631W        W 7357  33.121  20.571   1.775
35632W        W 7358  19.172  28.811  14.699
35633W        W 7359  15.072   5.293  10.630
35634W        W 7360  29.072  11.720   1.803
35635W        W 7361  36.276   8.171   2.409
35636W        W 7362  27.194  38.593   3.018
35637W        W 7363  26.548  27.437  11.110
35638W        W 7364  31.935  18.073  11.393
35639W        W 7365  24.094  20.999  14.681
35640W        W 7366  13.596  20.355   1.047
35641W        W 7367  25.166  29.328   2.498
35642W        W 7368  36.931   8.661   0.924
35643W        W 7369  13.221   2.741   3.139
35644W        W 7370  30.671   6.382   3.622
35645W        W 7371  35.462  16.704  13.862
35646W        W 7372  17.342  30.530   1.613
35647W        W 7373  18.591  40.894  11.593
35648W        W 7374  15.383  41.982  12.361
35649W        W 7375  37.894  41.024   0.883
35650W        W 7376  15.947   8.874  11.991
35651W        W 7377  16.458  37.180   5.145
35652W        W 7378   2.347  33.126   1.384
35653W        W 7379  42.319   7.727   1.185
35654W        W 7380  20.723  17.793  14.312
35655W        W 7381   0.127  18.295  11.703
35656W        W 7382  40.323  41.074  14.877
35657W        W 7383  29.267  44.493   3.276
35658W        W 7384  19.640   8.194   2.796
35659W        W 7385  18.061  12.905   3.632
35660W        W 7386  12.132  18.682   4.620
35661W        W 7387  16.044  17.008  10.272
35662W        W 7388   2.761  27.394  12.072
35663W        W 7389   8.243   0.050   1.405
35664W        W 7390   9.980  26.525  10.092
35665W        W 7391   7.126  44.281   2.806
35666W        W 7392   9.199  24.257  12.894
35667W        W 7393  14.249  32.053   1.737
35668W        W 7394  37.637  16.295  12.581
35669W        W 7395   1.942  27.720  12.368
35670W        W 7396  31.342  20.736   2.308
35671W        W 7397   7.596  30.500  13.435
35672W        W 7398  19.849  33.879   2.378
35673W        W 7399  17.653  34.822   4.867
35674W        W 7400  14.685  40.240  11.114
35675W        W 7401  44.801  37.164   2.405
35676W        W 7402  20.971   9.095  11.103
35677W        W 7403   3.795  32.158  14.849
35678W        W 7404  11.274  23.821  11.063
35679W        W 7405  23.025  43.689  11.866
35680W        W 7406   9.258  20.299  13.861
35681W        W 7407   7.582  27.429   4.177
35682W        W 7408  38.028  38.201   2.144
35683W        W 7409   7.071  10.567  10.686
35684W        W 7410  26.609  25.891   1.815
35685W        W 7411   9.643  18.666   1.179
35686W        W 7412   2.762  15.377   4.151
35687W        W 7413  15.006  32.587  11.176
35688W        W 7414  41.592   0.902   1.819
35689W        W 7415   3.021  21.600  11.624
35690W        W 7416  27.712  34.777   0.485
35691W        W 7417  14.787  33.057   4.724
35692W        W 7418  38.354   6.940  14.127
35693W        W 7419  23.243   1.160   4.250
35694W        W 7420  39.475  34.652   1.950
35695W        W 7421  29.590   4.929  10.336
35696W        W 7422  39.724  35.064  10.696
35697W        W 7423  36.846  18.365   2.774
35698W        W 7424  18.094  40.876  11.441
35699W        W 7425  28.478  32.549   1.200
35700W        W 7426  27.009   9.805   2.834
35701W        W 7427  11.032   8.322  10.540
35702W        W 7428   1.958  14.483  10.749
35703W        W 7429  12.729   1.302  14.873
35704W        W 7430  17.606  26.270  10.346
35705W        W 7431   4.331  40.464   2.888
35706W        W 7432  34.772  28.710  13.404
35707W        W 7433   3.518  24.568  13.972
35708W        W 7434  36.943   0.309  12.973
35709W        W 7435  23.538  21.852  10.820
35710W        W 7436  33.045  15.240   4.310
35711W        W 7437  38.569  15.564  10.675
35712W        W 7438  12.338  18.078  10.676
35713W        W 7439   8.267  27.189   2.641
35714W        W 7440  34.242  43.420   4.555
35715W        W 7441  16.045  28.014  10.340
35716W        W 7442   4.313   8.947   4.801
35717W        W 7443  24.159  26.588   4.947
35718W        W 7444   6.414  11.903  12.669
35719W        W 7445  33.936  23.401   3.663
35720W        W 7446  34.816   0.977  11.585
35721W        W 7447   9.048  23.060  14.346
35722W        W 7448  31.468  24.918  14.719
35723W        W 7449   8.832  43.412   1.513
35724W        W 7450  27.481  35.005  14.590
35725W        W 7451  20.158  13.330   1.350
35726W        W 7452  19.117  31.591  14.782
35727W        W 7453  38.333  36.535   4.418
35728W        W 7454   4.611  22.211   0.913
35729W        W 7455  43.968   9.831   0.735
35730W        W 7456   3.876  41.918  12.004
35731W        W 7457  24.053  44.086  10.619
35732W        W 7458  24.972  34.886  13.911
35733W        W 7459  38.288   0.560   1.228
35734W        W 7460  41.829   2.707   1.888
35735W        W 7461  36.378  44.202  10.743
35736W        W 7462  22.642  41.935  11.570
35737W        W 7463  40.010  14.184   3.220
35738W        W 7464   8.143  33.092   1.700
35739W        W 7465  27.754   7.171   1.884
35740W        W 7466   5.347  32.256   5.015
35741W        W 7467  43.338   1.535   1.838
35742W        W 7468  16.389   6.762  13.957
35743W        W 7469  21.058  17.178  14.894
35744W        W 7470   6.372  13.071  13.986
35745W        W 7471   8.485   4.460  13.996
35746W        W 7472  16.587  18.036   3.651
35747W        W 7473  28.684  44.911  11.555
35748W        W 7474   9.351  21.175  13.186
35749W        W 7475  41.054   8.354   4.120
35750W        W 7476  24.528  30.844   1.918
35751W        W 7477  41.306  27.038   4.585
35752W        W 7478   1.745  35.109   1.860
35753W        W 7479  10.159  40.070   0.714
35754W        W 7480  14.734  15.878  10.307
35755W        W 7481  12.802  14.571  12.837
35756W        W 7482   4.213  11.045   3.602
35757W        W 7483  25.621   6.383   2.695
35758W        W 7484  15.014  35.973  13.421
35759W        W 7485  39.348   0.891  12.564
35760W        W 7486  23.224  44.122  13.321
35761W        W 7487   2.803  32.409   1.089
35762W        W 7488  40.850   6.774   3.133
35763W        W 7489  16.577  15.611  14.527
35764W        W 7490  40.311   8.249   1.380
35765W        W 7491  26.958  16.394   3.818
35766W        W 7492  15.324  38.920  10.209
35767W        W 7493  31.127  36.669   3.969
35768W        W 7494  39.696  34.485   4.487
35769W        W 7495  10.080  25.046  11.564
35770W        W 7496  41.739  41.521   0.786
35771W        W 7497  35.264  33.523   1.269
35772W        W 7498  20.654   3.651  14.920
35773W        W 7499  24.547  28.966   3.594
35774W        W 7500  18.232  33.549   4.365
35775W        W 7501  29.112  33.020   0.007
35776W        W 7502   7.817  43.216   2.347
35777W        W 7503   3.280   7.740   3.148
35778W        W 7504  32.333  21.265  10.815
35779W        W 7505  30.025   2.942   3.817
35780W        W 7506  36.389  38.582   4.088
35781W        W 7507  34.888  35.902   3.065
35782W        W 7508  38.298   4.905   3.198
35783W        W 7509  29.572  15.179  13.231
35784W        W 7510  37.338   6.695  11.690
35785W        W 7511  29.338  34.008   4.896
35786W        W 7512  33.609  32.519  13.449
35787W        W 7513  24.675  22.072   3.700
35788W        W 7514   2.822  34.392   0.962
35789W        W 7515  19.261  39.897   1.794
35790W        W 7516  36.983  42.542  10.693
35791W        W 7517  15.419  43.793   0.791
35792W        W 7518  12.617  28.427  12.963
35793W        W 7519   7.264  20.094   0.737
35794W        W 7520   0.600  24.711   3.948
35795W        W 7521  21.102  40.165  11.893
35796W        W 7522  23.836  41.336   1.320
35797W        W 7523  38.228  20.204   0.821
35798W        W 7524   3.957  23.503   0.835
35799W        W 7525  32.015  22.474   2.676
35800W        W 7526   6.530  31.349   1.874
35801W        W 7527   3.273   8.731  11.357
35802W        W 7528  16.252  38.755  13.384
35803W        W 7529  30.957   9.810   0.395
35804W        W 7530  17.620  41.520   4.991
35805W        W 7531  13.381  41.506   1.310
35806W        W 7532  37.401  15.176  10.471
35807W        W 7533  44.874  39.835   2.536
35808W        W 7534   0.487  44.781  10.147
35809W        W 7535  24.782   2.813   1.696
35810W        W 7536  25.064  43.974  11.548
35811W        W 7537   1.562  19.028   4.627
35812W        W 7538  34.617  43.548  12.964
35813W        W 7539  37.359   0.035  10.852
35814W        W 7540  19.995  35.483  14.832
35815W        W 7541   3.045  27.005  11.871
35816W        W 7542  35.501  20.148  10.624
35817W        W 7543  15.217  37.453   0.193
35818W        W 7544   4.036  40.462  14.579
35819W        W 7545  28.676  41.046   2.385
35820W        W 7546  22.308  11.816   3.118
35821W        W 7547  11.985  14.287  11.971
35822W        W 7548  10.655  24.092  14.676
35823W        W 7549  32.996  12.006   3.970
35824W        W 7550  32.826  30.423   1.471
35825W        W 7551  19.454  24.560   0.726
35826W        W 7552  16.108  10.314  13.656
35827W        W 7553  32.035  34.097  14.305
35828W        W 7554   1.816  37.035  13.486
35829W        W 7555  37.632  32.703   4.879
35830W        W 7556   0.323  30.941  13.825
35831W        W 7557   6.150  26.809   0.698
35832W        W 7558   5.203  21.127  10.613
35833W        W 7559  14.773  12.586   4.215
35834W        W 7560   9.175   2.443   0.851
35835W        W 7561  21.279  34.665   0.227
35836W        W 7562   2.996  14.671   1.868
35837W        W 7563  36.390  10.942  10.788
35838W        W 7564   9.717  31.983  11.967
35839W        W 7565  29.914  35.826  10.742
35840W        W 7566  11.060  39.954  14.943
35841W        W 7567  25.008  36.522   1.893
35842W        W 7568  27.793  25.831   1.625
35843W        W 7569   9.120  13.900  14.214
35844W        W 7570  39.114  19.712   5.076
35845W        W 7571  33.943  18.107  11.529
35846W        W 7572  39.333   7.326   0.294
35847W        W 7573  39.763  17.972   4.090
35848W        W 7574  38.776  14.806  14.232
35849W        W 7575  39.267  22.986   2.375
35850W        W 7576  33.229  12.232   0.321
35851W        W 7577  19.263  29.534   2.556
35852W        W 7578  42.289   8.388   0.443
35853W        W 7579  23.000  39.457   1.400
35854W        W 7580  34.401  15.775  14.058
35855W        W 7581  30.931  42.528   1.001
35856W        W 7582  27.559   6.691   2.776
35857W        W 7583  22.950  34.396  13.766
35858W        W 7584  38.901   2.987  14.755
35859W        W 7585   0.312  17.153  10.790
35860W        W 7586   9.353  26.903  12.383
35861W        W 7587  25.209  24.371   0.337
35862W        W 7588  38.589  25.403   3.716
35863W        W 7589  35.533  30.073   1.065
35864W        W 7590  43.532  17.862  12.453
35865W        W 7591  33.061  20.256   2.224
35866W        W 7592  16.629  27.078   4.681
35867W        W 7593  41.703  20.554   2.859
35868W        W 7594   6.083  21.637   1.817
35869W        W 7595  32.350  24.388  14.890
35870W        W 7596   9.310  39.726   3.894
35871W        W 7597  10.009  24.976  10.674
35872W        W 7598  25.701  40.016   4.590
35873W        W 7599  43.460  23.713   0.275
35874W        W 7600  19.595   5.692   9.939
35875W        W 7601  31.744  33.297   0.879
35876W        W 7602  19.302  41.594   3.745
35877W        W 7603  12.696  30.708  13.376
35878W        W 7604  29.666  24.107   0.846
35879W        W 7605  41.083   2.394  12.923
35880W        W 7606   4.187  43.419   0.515
35881W        W 7607  22.735  40.420  10.760
35882W        W 7608   8.825  16.217  14.943
35883W        W 7609  11.841  21.170   5.079
35884W        W 7610  23.467  31.481  13.027
35885W        W 7611  12.184   6.407   2.731
35886W        W 7612  31.409  30.873  11.123
35887W        W 7613  34.820  14.662  14.478
35888W        W 7614  12.680  23.364   0.264
35889W        W 7615  36.579  20.050  10.376
35890W        W 7616  43.494  10.338   1.807
35891W        W 7617  35.136  35.606   1.761
35892W        W 7618  22.752  10.620  11.858
35893W        W 7619  33.932  31.401  13.432
35894W        W 7620  40.106  21.087  11.104
35895W        W 7621  12.818  28.476  12.055
35896W        W 7622  18.632   2.452  14.863
35897W        W 7623  35.169  36.374   3.780
35898W        W 7624  27.938  36.208   2.673
35899W        W 7625  11.526  36.144  12.094
35900W        W 7626  25.619  22.093  11.684
35901W        W 7627  15.421  39.868   3.133
35902W        W 7628  18.501  24.156  13.519
35903W        W 7629  23.602   7.395  12.849
35904W        W 7630  35.635  27.527  12.659
35905W        W 7631  20.931  40.731  11.091
35906W        W 7632   0.438  44.271  11.886
35907W        W 7633  24.598   3.677   1.896
35908W        W 7634   2.430  41.446  12.004
35909W        W 7635  13.791   6.272   3.595
35910W        W 7636  41.903  12.318  14.425
35911W        W 7637   6.230  32.812  14.887
35912W        W 7638  38.427   0.804  11.001
35913W        W 7639   5.863   1.810  12.476
35914W        W 7640  36.921   3.049  14.154
35915W        W 7641  19.682  34.081   1.921
35916W        W 7642  28.968  17.106   2.277
35917W        W 7643  12.250  26.224  11.040
35918W        W 7644  33.446  31.198  14.105
35919W        W 7645  34.357  42.970  11.170
35920W        W 7646   9.638   4.393  11.611
35921W        W 7647  14.078  24.534   3.275
35922W        W 7648   4.887  23.158  12.578
35923W        W 7649  11.250  16.286  13.574
35924W        W 7650  35.755  33.963  14.760
35925W        W 7651  11.837  11.759   3.882
35926W        W 7652  11.602  39.223  12.433
35927W        W 7653  17.766  36.871  13.038
35928W        W 7654  24.734  32.850   4.163
35929W        W 7655  33.462  34.435   3.051
35930W        W 7656  16.611  26.449   4.070
35931W        W 7657   8.294  10.668   3.344
35932W        W 7658  29.997  20.347   1.192
35933W        W 7659  25.094  39.337  10.638
35934W        W 7660  33.505  34.370  14.028
35935W        W 7661   1.887   8.363  12.968
35936W        W 7662  28.721  23.424  12.376
35937W        W 7663  26.070  44.490   4.061
35938W        W 7664  35.999  27.165  12.771
35939W        W 7665  42.837  43.285  14.932
35940W        W 7666   2.278  10.227  14.393
35941W        W 7667  13.158   2.867  11.170
35942W        W 7668   8.117  36.068   3.213
35943W        W 7669  16.816  14.217  13.365
35944W        W 7670  33.642  36.898  12.464
35945W        W 7671   1.152  36.467   2.123
35946W        W 7672  40.424  11.289   4.856
35947W        W 7673  41.849  12.636   4.522
35948W        W 7674  12.613  16.039   3.413
35949W        W 7675  13.165  15.990   4.136
35950W        W 7676  15.618  23.199  11.431
35951W        W 7677  12.688  22.614   3.721
35952W        W 7678  34.836   8.855   3.582
35953W        W 7679  26.443  23.379   2.158
35954W        W 7680   9.225  27.656  13.051
35955W        W 7681  44.217   6.749  14.305
35956W        W 7682  31.673   0.969  11.176
35957W        W 7683  16.057  31.068  13.378
35958W        W 7684   3.853  36.046   4.524
35959W        W 7685  13.840  24.496   1.761
35960W        W 7686  36.884   6.502   1.806
35961W        W 7687  12.573  17.112   0.424
35962W        W 7688  18.538  42.428  13.795
35963W        W 7689  26.103  44.817  14.291
35964W        W 7690  15.167  40.580  12.830
35965W        W 7691  36.974   8.480   1.406
35966W        W 7692  26.931  33.048  14.437
35967W        W 7693  30.139  24.958   4.527
35968W        W 7694   5.350  40.011   1.236
35969W        W 7695  35.003   7.377   4.963
35970W        W 7696   6.541  30.346  12.654
35971W        W 7697  13.246  36.816   4.500
35972W        W 7698   2.489  21.020  11.155
35973W        W 7699  23.232  22.703   1.392
35974W        W 7700   1.299   6.580  12.160
35975W        W 7701  26.603   3.173  13.067
35976W        W 7702  17.798   4.258   4.146
35977W        W 7703   0.886   8.259   2.224
35978W        W 7704  22.229   6.729  12.209
35979W        W 7705  20.981  37.424  13.146
35980W        W 7706   6.955  18.641   2.214
35981W        W 7707  37.114   6.679   4.820
35982W        W 7708  37.552  41.702  13.998
35983W        W 7709   3.261   9.845   2.100
35984W        W 7710   6.183   7.366   3.249
35985W        W 7711  25.528  21.199   4.560
35986W        W 7712  27.366  29.908   0.038
35987W        W 7713  31.626  15.243   3.303
35988W        W 7714  10.801  17.151   0.492
35989W        W 7715  25.470  14.014   2.440
35990W        W 7716  25.003  16.795  11.414
35991W        W 7717  12.332  23.030  14.381
35992W        W 7718  32.465  12.247  14.140
35993W        W 7719  29.911  10.304   4.907
35994W        W 7720  18.959  12.833  11.160
35995W        W 7721  42.637  39.456  13.904
35996W        W 7722  35.893  39.843  13.427
35997W        W 7723  22.013  20.498   3.482
35998W        W 7724  21.203  40.497  13.287
35999W        W 7725  14.160  36.020   1.411
36000W        W 7726   1.186  24.571   1.892
36001W        W 7727   7.280  39.896  10.786
36002W        W 7728  37.511   4.236   2.933
36003W        W 7729  31.535  14.897   4.198
36004W        W 7730  17.592  34.298   2.289
36005W        W 7731  33.390   9.362  10.353
36006W        W 7732  10.686   9.974  10.906
36007W        W 7733  38.820   7.361   3.497
36008W        W 7734   7.340  40.344   0.215
36009W        W 7735  22.983  15.662   4.100
36010W        W 7736  36.038  39.152   0.252
36011W        W 7737   7.788  27.988  11.206
36012W        W 7738   8.221  23.193   5.140
36013W        W 7739  38.079  17.237   4.595
36014W        W 7740  15.148  17.592   1.440
36015W        W 7741  34.960   5.706   4.124
36016W        W 7742   3.270  36.966  10.685
36017W        W 7743  21.836  15.181  12.835
36018W        W 7744  19.645  29.212   1.140
36019W        W 7745  40.469  29.102  10.444
36020W        W 7746  28.991   7.930   3.190
36021W        W 7747  43.376  31.234  12.103
36022W        W 7748  13.276  39.876  14.783
36023W        W 7749  36.740  17.781  14.502
36024W        W 7750   0.263  42.860   0.492
36025W        W 7751   2.837  19.232   4.852
36026W        W 7752  24.158  31.938   2.266
36027W        W 7753  43.807  19.902   3.169
36028W        W 7754  20.796   4.294   3.806
36029W        W 7755   4.454   5.615   0.899
36030W        W 7756  35.885  20.840   4.744
36031W        W 7757  21.649  32.028   0.581
36032W        W 7758  41.036   7.624   4.911
36033W        W 7759  22.819  21.526   0.320
36034W        W 7760  28.586  19.023   1.634
36035W        W 7761  24.170  36.040  12.103
36036W        W 7762   0.624  32.285   3.335
36037W        W 7763  12.313  34.937   4.726
36038W        W 7764  35.063  27.439   4.097
36039W        W 7765  17.700  27.175   2.704
36040W        W 7766  35.763  31.940  12.047
36041W        W 7767  14.111  31.958  12.484
36042W        W 7768  37.277   4.795  10.752
36043W        W 7769  21.542   2.888  13.057
36044W        W 7770  28.872  18.727   4.744
36045W        W 7771  29.482  42.917  13.340
36046W        W 7772  43.032  34.461   4.644
36047W        W 7773  32.829   4.093  11.699
36048W        W 7774  19.406  23.278  13.387
36049W        W 7775  20.971  44.248   1.745
36050W        W 7776  21.094  18.546   2.856
36051W        W 7777   8.791  19.618   0.265
36052W        W 7778  26.456  15.805   3.531
36053W        W 7779  25.559  16.462  13.890
36054W        W 7780  23.116  42.662  11.644
36055W        W 7781  42.856  25.425  12.878
36056W        W 7782  43.277  14.829   1.871
36057W        W 7783  35.510  37.596   4.046
36058W        W 7784  10.383   0.251   4.689
36059W        W 7785  32.581  11.573  12.521
36060W        W 7786  20.075   9.605   3.862
36061W        W 7787  28.449  27.924  14.900
36062W        W 7788   1.867  17.689  11.642
36063W        W 7789  44.937  25.832   2.028
36064W        W 7790  12.740  27.607   3.298
36065W        W 7791  37.571  42.737   3.173
36066W        W 7792  23.167  22.023   2.736
36067W        W 7793  26.765  14.393  13.957
36068W        W 7794  32.358  39.896   1.633
36069W        W 7795  26.620  30.432  13.032
36070W        W 7796  44.457  26.698   4.152
36071W        W 7797  25.701  29.957   4.216
36072W        W 7798  20.549  43.999  13.877
36073W        W 7799  34.306  13.901  14.380
36074W        W 7800  43.681  11.820   2.966
36075W        W 7801  10.428  14.205  12.902
36076W        W 7802   3.981  11.791  12.428
36077W        W 7803  10.621  25.266   3.075
36078W        W 7804  29.258  17.432   2.598
36079W        W 7805  26.384  26.181  13.833
36080W        W 7806  35.394  32.857  13.859
36081W        W 7807  16.904  43.231  14.862
36082W        W 7808  39.725   9.351   1.817
36083W        W 7809   3.702  32.511  11.452
36084W        W 7810  15.882  19.813  14.021
36085W        W 7811  41.445  22.097   0.471
36086W        W 7812  27.441   3.223   4.255
36087W        W 7813  26.549   3.517  14.944
36088W        W 7814  33.260   7.674  12.581
36089W        W 7815  16.944   3.639  10.680
36090W        W 7816  36.850  23.243  12.111
36091W        W 7817  18.268  19.642  11.536
36092W        W 7818  28.445  23.788   4.206
36093W        W 7819  23.110  21.095   1.775
36094W        W 7820   5.177   1.224   2.306
36095W        W 7821  26.469   4.113   4.060
36096W        W 7822  43.464  13.211   0.360
36097W        W 7823  15.928  41.455  11.680
36098W        W 7824  42.006  21.639   3.342
36099W        W 7825  39.383  39.590  12.944
36100W        W 7826  40.274  26.950   4.854
36101W        W 7827  10.655  32.967   4.285
36102W        W 7828  40.856  13.581  13.866
36103W        W 7829  18.507   6.785  14.496
36104W        W 7830  43.391  33.005  14.793
36105W        W 7831   9.745  27.940   2.519
36106W        W 7832  17.566   6.053  12.186
36107W        W 7833  32.445  23.324   1.722
36108W        W 7834  21.835  36.394   1.986
36109W        W 7835  39.499  31.184   2.134
36110W        W 7836  32.676   0.798  14.464
36111W        W 7837  16.044  44.303   3.245
36112W        W 7838  36.837  43.245  13.422
36113W        W 7839  10.381  15.337  10.932
36114W        W 7840   4.760  33.570   3.785
36115W        W 7841  25.973  36.382  12.088
36116W        W 7842  32.617  34.371   0.248
36117W        W 7843  40.487  44.114   0.754
36118W        W 7844  25.596   3.725   1.699
36119W        W 7845  18.061  22.064   0.270
36120W        W 7846  25.469  38.950  11.689
36121W        W 7847  13.350  35.376  14.779
36122W        W 7848  35.840   2.306   3.724
36123W        W 7849  42.304  29.488   0.414
36124W        W 7850   1.788  10.921  10.719
36125W        W 7851  18.666  35.391  11.515
36126W        W 7852   9.310  28.088   0.515
36127W        W 7853  43.370  14.076   3.751
36128W        W 7854  25.018   5.133   2.721
36129W        W 7855  32.838   6.848  12.745
36130W        W 7856   6.587   0.514   3.337
36131W        W 7857  35.926  14.559   4.045
36132W        W 7858  39.558  18.561   0.039
36133W        W 7859  11.963  27.798   4.100
36134W        W 7860  42.212   6.794  11.107
36135W        W 7861   4.764  43.821   0.060
36136W        W 7862  12.316   2.439   3.345
36137W        W 7863   5.695  44.431  10.400
36138W        W 7864   9.746  41.065   3.869
36139W        W 7865  19.016  37.854   2.646
36140W        W 7866  13.352  32.092  11.869
36141W        W 7867  17.098  28.531  13.488
36142W        W 7868  27.100  38.412  10.664
36143W        W 7869  28.327  33.669  10.328
36144W        W 7870  23.981   7.116   1.944
36145W        W 7871  38.135   1.201  13.417
36146W        W 7872  13.924   5.921   2.788
36147W        W 7873   7.889  33.082  12.962
36148W        W 7874   0.881  26.590  10.737
36149W        W 7875  14.276  38.132   5.092
36150W        W 7876  16.165  24.243  12.166
36151W        W 7877  13.158  33.845   1.254
36152W        W 7878  36.039  13.247   2.290
36153W        W 7879  32.625  34.062  11.202
36154W        W 7880  32.950  26.940   4.571
36155W        W 7881  30.396  38.479  12.049
36156W        W 7882  11.797  38.439  12.013
36157W        W 7883   3.879  19.349  10.734
36158W        W 7884  15.849   9.304   1.931
36159W        W 7885  32.915  13.889  11.168
36160W        W 7886  21.097  32.989   3.241
36161W        W 7887  20.168  20.092   3.376
36162W        W 7888  40.323  25.047  14.288
36163W        W 7889  26.502  40.594   5.050
36164W        W 7890  12.584  28.788   1.099
36165W        W 7891  37.451  22.369   0.536
36166W        W 7892  30.390  32.968   2.448
36167W        W 7893  37.407  22.739  14.271
36168W        W 7894   1.843   9.215   0.398
36169W        W 7895  27.735  40.131   3.720
36170W        W 7896   6.982  32.541  11.461
36171W        W 7897  41.989  12.897  11.622
36172W        W 7898  28.124   1.316   3.292
36173W        W 7899  31.930  27.973   1.934
36174W        W 7900  32.882  22.308   1.352
36175W        W 7901  21.277  31.490   0.496
36176W        W 7902   8.651  37.667   4.278
36177W        W 7903  11.624  11.948  13.550
36178W        W 7904  17.020  39.861   4.979
36179W        W 7905  34.327  29.584  13.307
36180W        W 7906  20.911   2.705   1.333
36181W        W 7907  10.119  29.092   1.032
36182W        W 7908  39.120  14.516   1.148
36183W        W 7909  34.486  37.334  14.346
36184W        W 7910  44.765   1.366   2.741
36185W        W 7911  27.460   4.903  13.097
36186W        W 7912  26.595   3.381   4.902
36187W        W 7913   1.786  29.097   3.096
36188W        W 7914   7.124  16.191  10.582
36189W        W 7915   2.285  40.342   5.060
36190W        W 7916  20.684  44.869   4.576
36191W        W 7917   5.590   7.854   0.976
36192W        W 7918  31.531  30.004  10.966
36193W        W 7919  16.985   4.634   4.238
36194W        W 7920  31.070  17.478  13.739
36195W        W 7921   3.741  19.604   1.329
36196W        W 7922  30.645  27.751   0.175
36197W        W 7923   0.389  43.248   1.960
36198W        W 7924  32.543  43.970  10.002
36199W        W 7925  24.045  19.358   3.089
36200W        W 7926  15.339  17.217   1.105
36201W        W 7927  42.998  31.574   2.626
36202W        W 7928  10.649  35.042   4.291
36203W        W 7929  33.996  35.963   4.534
36204W        W 7930   7.132  36.476  12.864
36205W        W 7931  32.881  14.554  12.932
36206W        W 7932  27.502  24.230   4.700
36207W        W 7933  12.826   2.197  14.811
36208W        W 7934   0.304  14.315  11.150
36209W        W 7935  31.405  27.676   1.207
36210W        W 7936   9.015  44.681   0.930
36211W        W 7937  16.700  17.912   0.830
36212W        W 7938   7.767  33.604  13.897
36213W        W 7939  40.013   2.913   3.837
36214W        W 7940  14.690   1.999  14.272
36215W        W 7941  38.811  14.153  14.931
36216W        W 7942  41.008  16.084  15.000
36217W        W 7943   2.480  35.127   4.120
36218W        W 7944  33.457  12.663   9.831
36219W        W 7945   7.735  32.036   2.448
36220W        W 7946   8.601  16.193  12.499
36221W        W 7947   3.216  29.578   4.192
36222W        W 7948  22.097  35.526  10.673
36223W        W 7949  12.295  21.050   4.118
36224W        W 7950  44.808   5.491   3.756
36225W        W 7951  12.368  12.263   0.261
36226W        W 7952  34.071  12.585  14.791
36227W        W 7953  19.549  36.889   1.833
36228W        W 7954  16.498  28.273   3.232
36229W        W 7955  11.731  35.308  13.503
36230W        W 7956  35.864  31.391  14.999
36231W        W 7957  31.586  38.515  12.840
36232W        W 7958   1.428   8.594   0.754
36233W        W 7959  17.822  18.332   2.784
36234W        W 7960   0.773  33.049   4.675
36235W        W 7961   8.245  21.277  10.412
36236W        W 7962  26.970  13.542  13.912
36237W        W 7963  26.058   1.521  10.010
36238W        W 7964   9.644  25.341  10.668
36239W        W 7965   2.730   9.661   1.918
36240W        W 7966  42.063   3.531   2.646
36241W        W 7967   2.389   8.802  10.252
36242W        W 7968   2.057   8.128  10.755
36243W        W 7969  42.016  32.459   0.539
36244W        W 7970  39.703  26.521  13.377
36245W        W 7971  16.359  41.111   1.709
36246W        W 7972   7.942  39.360   4.495
36247W        W 7973  23.667  26.861   2.184
36248W        W 7974  31.928  39.801   1.947
36249W        W 7975  37.752  40.016   0.891
36250W        W 7976  31.281  26.545   2.337
36251W        W 7977   4.982  42.235   5.074
36252W        W 7978  43.911  30.484   3.984
36253W        W 7979  17.216  26.146   9.991
36254W        W 7980  16.116  25.349  11.012
36255W        W 7981   7.151   0.516  13.478
36256W        W 7982  28.463  37.402   1.106
36257W        W 7983  14.194  37.593   2.797
36258W        W 7984  25.591  30.622   1.433
36259W        W 7985  42.928  34.598   2.639
36260W        W 7986   2.650  39.367  13.813
36261W        W 7987  38.640  24.212  11.001
36262W        W 7988   3.242  11.845  13.894
36263W        W 7989  29.082  11.117   1.765
36264W        W 7990  14.630  20.507  12.529
36265W        W 7991  20.077   6.737  14.746
36266W        W 7992   6.253   9.171   0.394
36267W        W 7993  43.992  10.742   3.932
36268W        W 7994  20.977  33.141   1.302
36269W        W 7995  18.195  42.982  14.693
36270W        W 7996  27.408  41.395  14.826
36271W        W 7997   5.648   3.403  12.964
36272W        W 7998  39.589  37.530   1.483
36273W        W 7999  16.611  24.115   2.169
36274W        W 8000  27.636  13.792  12.682
36275W        W 8001   1.022  10.237   4.200
36276W        W 8002  22.782   0.287   3.858
36277W        W 8003   4.664   8.422  12.807
36278W        W 8004   8.464  42.769  11.362
36279W        W 8005  21.156  11.643  14.225
36280W        W 8006  12.217  41.671   2.949
36281W        W 8007   7.933  35.079  12.837
36282W        W 8008  12.944  22.118   3.240
36283W        W 8009  38.397  32.204   2.406
36284W        W 8010  36.253  25.246   1.425
36285W        W 8011  18.687  36.292  12.153
36286W        W 8012  25.692  39.872  13.091
36287W        W 8013  23.811   9.184   0.185
36288W        W 8014  37.331  40.692  13.813
36289W        W 8015  27.486   3.513  12.953
36290W        W 8016  42.037   9.621   4.863
36291W        W 8017  19.140  10.206   3.759
36292W        W 8018   3.249  15.647   0.468
36293W        W 8019  41.000  30.601   0.618
36294W        W 8020  40.808  12.133   0.786
36295W        W 8021  27.974  33.162  13.507
36296W        W 8022  38.539  10.766  10.829
36297W        W 8023  31.903  42.495  14.454
36298W        W 8024  36.513  35.892  12.781
36299W        W 8025   6.933  34.668  12.330
36300W        W 8026  28.717  25.822   1.440
36301W        W 8027  18.003  34.004  10.640
36302W        W 8028  11.254  33.485  14.022
36303W        W 8029  39.965  16.718  14.710
36304W        W 8030   2.865   4.515  11.605
36305W        W 8031  32.365  20.271  11.195
36306W        W 8032   4.770  43.929  10.212
36307W        W 8033  35.161  19.097   2.434
36308W        W 8034  44.482  25.117   2.012
36309W        W 8035  32.743  21.652  10.714
36310W        W 8036  28.989  23.276   4.587
36311W        W 8037  13.501   8.188  14.476
36312W        W 8038  37.497   5.447   4.558
36313W        W 8039  16.173  40.930  14.071
36314W        W 8040  28.131   2.766   3.578
36315W        W 8041   7.187  25.918  13.533
36316W        W 8042  30.652  39.057  13.322
36317W        W 8043  11.743  23.818   1.617
36318W        W 8044  38.782  12.378   2.274
36319W        W 8045  22.029  16.105  14.833
36320W        W 8046   8.642  41.610   1.822
36321W        W 8047   4.202  20.647  14.642
36322W        W 8048  37.202  33.693  13.099
36323W        W 8049  19.646  11.726  13.010
36324W        W 8050  40.501  41.270   0.467
36325W        W 8051   0.886  21.633  14.052
36326W        W 8052   0.341  44.983  11.516
36327W        W 8053  37.287  36.968   2.549
36328W        W 8054   4.269  31.484  13.018
36329W        W 8055  44.747   5.370  13.970
36330W        W 8056  42.860  13.224   0.848
36331W        W 8057  25.435  12.108  11.681
36332W        W 8058  33.891  19.172   3.281
36333W        W 8059  26.476  16.197  13.359
36334W        W 8060  41.014  25.408   1.755
36335W        W 8061  22.618   2.693   3.567
36336W        W 8062  33.860  44.868   4.900
36337W        W 8063  17.056  25.161   2.903
36338W        W 8064  13.358  41.011   2.087
36339W        W 8065  12.179   8.016  12.969
36340W        W 8066  27.175   1.892   0.878
36341W        W 8067  23.456  19.085  14.737
36342W        W 8068  15.157  38.056  13.827
36343W        W 8069  28.959  30.739  14.779
36344W        W 8070  44.048  42.971   3.207
36345W        W 8071  33.948  17.919   3.399
36346W        W 8072  19.500  10.923  12.518
36347W        W 8073  38.849  15.054  10.639
36348W        W 8074   1.447  25.176  11.556
36349W        W 8075   1.237  32.977   0.468
36350W        W 8076  39.641   0.010  11.200
36351W        W 8077  20.702   6.025   4.105
36352W        W 8078  30.200   6.519   1.849
36353W        W 8079  39.009  33.174   1.192
36354W        W 8080  29.137   1.266  14.323
36355W        W 8081  15.258  20.483  12.015
36356W        W 8082  10.628  14.556   4.833
36357W        W 8083  28.077  13.489   4.178
36358W        W 8084   0.314  40.537   2.331
36359W        W 8085  16.227  27.504  12.806
36360W        W 8086   1.946  17.743   4.819
36361W        W 8087  30.446  16.885   1.773
36362W        W 8088   7.313  15.408   4.573
36363W        W 8089  22.700  19.004  12.102
36364W        W 8090  28.396   7.267   2.705
36365W        W 8091   7.204  42.402  13.769
36366W        W 8092   8.340  16.790  14.685
36367W        W 8093   6.132  16.993   4.644
36368W        W 8094  36.123   3.385   3.307
36369W        W 8095  32.114  30.487  10.431
36370W        W 8096  16.071  16.562   2.305
36371W        W 8097   4.921  38.327  10.574
36372W        W 8098  42.664   6.570   3.581
36373W        W 8099   4.492   5.915  13.022
36374W        W 8100  31.396   7.413   3.408
36375W        W 8101  42.530  13.738   4.663
36376W        W 8102  31.702  32.990  11.511
36377W        W 8103  39.373  31.973  13.489
36378W        W 8104  41.954  20.251   1.168
36379W        W 8105   3.980  27.184   0.980
36380W        W 8106  44.683  33.908   3.412
36381W        W 8107  16.524  41.801  10.767
36382W        W 8108   7.951  44.906   2.442
36383W        W 8109   1.793   4.409   1.851
36384W        W 8110  33.565  34.076  10.714
36385W        W 8111  40.012  38.523   4.707
36386W        W 8112  29.193  32.580  12.344
36387W        W 8113  19.413  39.105   3.171
36388W        W 8114   6.262  42.258  11.158
36389W        W 8115  21.540  39.028   2.334
36390W        W 8116  15.300  17.705   0.945
36391W        W 8117  16.653  38.678   0.971
36392W        W 8118   9.890  12.178   0.414
36393W        W 8119  11.609  37.386   3.643
36394W        W 8120   2.980   0.749  11.607
36395W        W 8121  32.968  20.076   0.984
36396W        W 8122  23.293  11.111   4.296
36397W        W 8123  15.793  11.274   0.961
36398W        W 8124  17.092  25.916   0.838
36399W        W 8125  19.563  19.847  13.506
36400W        W 8126  33.906   3.539  13.929
36401W        W 8127  38.760  44.301   3.183
36402W        W 8128   5.304  27.454  13.495
36403W        W 8129  36.050  13.749   0.751
36404W        W 8130  28.250  42.243  11.155
36405W        W 8131  44.050   0.762  13.592
36406W        W 8132  39.461  20.070  14.284
36407W        W 8133  23.949  20.531  14.448
36408W        W 8134  24.159   4.248   4.670
36409W        W 8135  20.618  31.181   0.980
36410W        W 8136  33.387  13.642  10.752
36411W        W 8137  43.900  13.671   4.737
36412W        W 8138  43.938  29.877  14.798
36413W        W 8139  30.518  19.597   3.802
36414W        W 8140  29.783   9.490   0.905
36415W        W 8141  24.942  13.108   5.144
36416W        W 8142   8.672  18.692  13.810
36417W        W 8143  44.746  11.314   2.391
36418W        W 8144   1.912   8.980  10.998
36419W        W 8145  14.227  41.381  12.186
36420W        W 8146  31.539  42.938  11.098
36421W        W 8147  17.097  27.021   1.514
36422W        W 8148   5.674  22.128   3.956
36423W        W 8149   4.809  41.613   1.840
36424W        W 8150  20.559   9.717   2.830
36425W        W 8151  30.938   9.316  12.349
36426W        W 8152  18.016  20.228  12.928
36427W        W 8153   8.228  34.599   2.635
36428W        W 8154   9.820  17.138   2.820
36429W        W 8155   1.450  35.005   2.287
36430W        W 8156  32.304  19.158  14.895
36431W        W 8157  32.489  18.607  12.639
36432W        W 8158   0.361  24.190   4.671
36433W        W 8159   5.732  32.232   1.274
36434W        W 8160   6.141  28.498   1.842
36435W        W 8161   4.462  25.471  14.067
36436W        W 8162  29.876   2.824  13.903
36437W        W 8163  28.089   1.893  13.549
36438W        W 8164  18.658  10.566  11.525
36439W        W 8165  14.314  16.297   1.127
36440W        W 8166   2.688  14.127  11.859
36441W        W 8167  25.631  37.947   2.188
36442W        W 8168  35.082  28.121   0.400
36443W        W 8169  28.124   0.758  11.197
36444W        W 8170   7.657  29.674   3.427
36445W        W 8171  12.980  33.767  12.487
36446W        W 8172  36.785  28.309  13.993
36447W        W 8173  16.779  30.868  14.280
36448W        W 8174  40.828  11.682   2.735
36449W        W 8175  15.084  22.484  13.095
36450W        W 8176  35.157  11.293  11.204
36451W        W 8177  43.030  36.391  13.613
36452W        W 8178  18.668   7.682   4.212
36453W        W 8179   9.791  25.534  14.644
36454W        W 8180   1.533  18.150  14.470
36455W        W 8181  28.749  19.818  11.378
36456W        W 8182   2.756   6.306  14.015
36457W        W 8183  44.009  41.430  10.690
36458W        W 8184  26.509  31.123  10.296
36459W        W 8185  18.564   4.805   3.603
36460W        W 8186  16.699  30.191  13.916
36461W        W 8187  30.885   5.622   3.431
36462W        W 8188  33.189  27.448  14.353
36463W        W 8189  15.101  15.273  12.364
36464W        W 8190  21.918  38.994   0.442
36465W        W 8191   4.290  15.235   2.872
36466W        W 8192  37.928  43.940   3.133
36467W        W 8193   8.380  33.506   1.469
36468W        W 8194   2.676  23.031  10.657
36469W        W 8195   0.429  15.662  14.948
36470W        W 8196   2.222  17.222   2.789
36471W        W 8197  33.851  35.999  14.302
36472W        W 8198  23.751   6.293   3.254
36473W        W 8199  23.483  40.259   2.664
36474W        W 8200  39.439   2.774   0.512
36475W        W 8201  16.228  14.914   4.148
36476W        W 8202  14.703  13.178  12.165
36477W        W 8203  42.606  27.447  10.814
36478W        W 8204  15.559  36.738  14.240
36479W        W 8205  15.962  18.118   2.424
36480W        W 8206  13.724  40.454  13.528
36481W        W 8207  25.569  39.394   3.554
36482W        W 8208  26.094  11.603  10.948
36483W        W 8209  33.045  13.557  12.938
36484W        W 8210   4.280  28.839   0.310
36485W        W 8211  30.510   5.916  10.654
36486W        W 8212  29.255  43.725  11.246
36487W        W 8213  33.580  12.880  11.730
36488W        W 8214  13.166  10.262   2.086
36489W        W 8215   9.823  14.488   4.167
36490W        W 8216   2.446  43.834  13.537
36491W        W 8217  24.541  31.492   4.153
36492W        W 8218  14.336  39.000   1.214
36493W        W 8219  37.917  18.150   3.342
36494W        W 8220   9.162  27.040   2.623
36495W        W 8221   7.355  17.741  13.975
36496W        W 8222  37.401  37.386  11.958
36497W        W 8223  10.300   1.515   2.468
36498W        W 8224   4.756  36.332   0.516
36499W        W 8225  26.645  41.861  11.777
36500W        W 8226  25.110  22.821   0.745
36501W        W 8227  26.859   8.677  14.937
36502W        W 8228   4.279  21.478   4.686
36503W        W 8229  40.737   8.178   3.204
36504W        W 8230  23.322   2.847   1.638
36505W        W 8231   1.551   4.311  11.760
36506W        W 8232  41.461  12.324   2.880
36507W        W 8233   1.947  19.496   2.135
36508W        W 8234  39.830   1.879   0.867
36509W        W 8235   9.646  38.495   1.350
36510W        W 8236   8.388  26.511  10.121
36511W        W 8237   2.643  20.565   4.819
36512W        W 8238  39.136  38.090  13.389
36513W        W 8239  38.060   1.834  11.061
36514W        W 8240  11.991  34.815  11.908
36515W        W 8241  27.735   7.915  10.760
36516W        W 8242  44.649   1.831  10.688
36517W        W 8243  29.470   9.122   3.845
36518W        W 8244   7.629  18.116   1.777
36519W        W 8245  42.340   2.590   1.895
36520W        W 8246  32.473  21.733   2.886
36521W        W 8247  39.185   7.341   0.796
36522W        W 8248  37.585  37.845   2.643
36523W        W 8249   7.416  18.121  12.590
36524W        W 8250  24.320  22.510  14.007
36525W        W 8251  37.532   4.021   1.758
36526W        W 8252  31.373  14.685  14.943
36527W        W 8253   4.725  18.039   1.334
36528W        W 8254   5.184   7.019   4.125
36529W        W 8255   2.315  33.552   1.719
36530W        W 8256   7.777  26.103  11.655
36531W        W 8257   7.463  29.405  10.326
36532W        W 8258  38.825  23.148   3.750
36533W        W 8259  14.081   2.242  13.278
36534W        W 8260   9.742  24.938   1.447
36535W        W 8261  44.310  18.030  11.841
36536W        W 8262  43.383  31.011   3.607
36537W        W 8263  18.582  13.609  13.965
36538W        W 8264  21.782  40.504  11.122
36539W        W 8265   2.730   4.667   2.831
36540W        W 8266  35.761  21.761  14.785
36541W        W 8267   5.639  43.303  11.743
36542W        W 8268  39.863  15.592   3.103
36543W        W 8269  25.371  27.667  13.981
36544W        W 8270  13.758  13.276  14.936
36545W        W 8271  22.067  44.247  11.970
36546W        W 8272  36.525  37.166  11.927
36547W        W 8273  37.045   8.719  10.682
36548W        W 8274  43.961   2.398   4.380
36549W        W 8275  30.353   8.519  11.215
36550W        W 8276  25.764  33.535   0.778
36551W        W 8277  29.645  17.661   2.332
36552W        W 8278  13.222  25.453  14.082
36553W        W 8279  41.346   2.846   4.901
36554W        W 8280  42.017  43.339  14.388
36555W        W 8281  20.775  33.073   4.110
36556W        W 8282  44.859  14.334   0.753
36557W        W 8283  37.353  43.219   3.154
36558W        W 8284  33.881  20.637  13.051
36559W        W 8285   8.835  28.898   2.232
36560W        W 8286  13.683   9.450  12.379
36561W        W 8287   6.256  10.343   0.417
36562W        W 8288  30.928  31.265  11.753
36563W        W 8289  12.673  38.977  11.568
36564W        W 8290  33.497  30.879  12.803
36565W        W 8291  40.592   4.709   1.309
36566W        W 8292   3.482   7.860  14.397
36567W        W 8293  43.200  41.506   1.282
36568W        W 8294  25.688  11.538   3.710
36569W        W 8295  41.618  42.986   0.160
36570W        W 8296  38.555  31.354   4.912
36571W        W 8297   6.189  29.489  11.082
36572W        W 8298   1.525  22.596  14.466
36573W        W 8299  30.941  19.751   2.215
36574W        W 8300  30.661   1.289  13.599
36575W        W 8301  32.558   3.894  13.337
36576W        W 8302  21.061  30.515  14.026
36577W        W 8303  38.712  16.218   0.887
36578W        W 8304   2.285  11.534  12.377
36579W        W 8305  30.338   3.289  12.600
36580W        W 8306  41.875  26.032  11.637
36581W        W 8307  28.051   0.225   4.109
36582W        W 8308  14.689  41.323  10.837
36583W        W 8309   3.245  23.464  11.393
36584W        W 8310  19.853  33.837  11.568
36585W        W 8311  34.584  16.114  11.026
36586W        W 8312   7.719  22.014  14.395
36587W        W 8313  27.468  13.769   0.025
36588W        W 8314   8.834   0.932  11.642
36589W        W 8315  23.538  39.284  11.512
36590W        W 8316   5.812  34.051   1.171
36591W        W 8317   9.423  25.196   9.847
36592W        W 8318  18.759  17.822  14.398
36593W        W 8319  18.290  15.820  12.665
36594W        W 8320  17.466  44.877  14.420
36595W        W 8321  19.077  20.584   2.898
36596W        W 8322  36.956  40.782   1.732
36597W        W 8323   5.345   4.253  13.894
36598W        W 8324  36.938   7.935   4.003
36599W        W 8325  15.103  30.961  10.475
36600W        W 8326  35.289   9.613   3.150
36601W        W 8327  18.791  41.532   3.755
36602W        W 8328   5.361  16.363   5.318
36603W        W 8329  27.213  36.019  14.994
36604W        W 8330  25.999  25.459  12.032
36605W        W 8331  43.664   4.439  13.358
36606W        W 8332   3.711  18.202   1.288
36607W        W 8333  14.902   5.382   1.581
36608W        W 8334  20.901  37.862  11.869
36609W        W 8335   6.794  10.709   3.800
36610W        W 8336  23.484  18.978  12.969
36611W        W 8337  12.544  11.229  11.984
36612W        W 8338  44.312   0.994   4.400
36613W        W 8339  31.589  20.695   0.942
36614W        W 8340  39.055  26.601  14.906
36615W        W 8341  37.335  26.184  11.533
36616W        W 8342  26.120  20.528  12.543
36617W        W 8343  41.865  11.167  11.920
36618W        W 8344  44.944  14.381  13.905
36619W        W 8345   6.416  12.562   3.413
36620W        W 8346  38.970  20.721  13.583
36621W        W 8347   8.610  39.090  14.524
36622W        W 8348  36.970  11.918  12.084
36623W        W 8349  10.828  19.568  11.219
36624W        W 8350  37.098  26.527  14.871
36625W        W 8351  12.042   8.764   1.818
36626W        W 8352   8.355  10.365   1.928
36627W        W 8353   1.478  24.410   2.288
36628W        W 8354  24.231  30.039  10.761
36629W        W 8355  29.198  27.805   0.795
36630W        W 8356  30.384  19.617  12.595
36631W        W 8357  17.862  35.995  12.656
36632W        W 8358  25.992  33.415  11.296
36633W        W 8359  18.286  29.698  13.031
36634W        W 8360  18.075  23.726   4.634
36635W        W 8361  24.238  43.027  12.375
36636W        W 8362  38.099  18.483  10.735
36637W        W 8363  23.642   2.409   0.241
36638W        W 8364  22.693  34.082  12.060
36639W        W 8365   7.208  38.934  14.975
36640W        W 8366  10.669   4.479   1.772
36641W        W 8367  38.159  23.463  11.149
36642W        W 8368   8.917  19.532  12.471
36643W        W 8369  28.429   0.187  11.909
36644W        W 8370  34.527  42.419  12.968
36645W        W 8371  29.314  23.862   9.904
36646W        W 8372  22.991   0.035  12.561
36647W        W 8373  30.025   3.208   4.267
36648W        W 8374  39.090   7.755   3.770
36649W        W 8375  31.106  34.921  13.985
36650W        W 8376  43.684  16.545   4.211
36651W        W 8377  24.728  37.433   2.171
36652W        W 8378  12.033  39.028   4.991
36653W        W 8379   2.792   1.694   4.296
36654W        W 8380  40.015  37.159   0.757
36655W        W 8381  38.495  20.867   3.973
36656W        W 8382  43.349  12.322   3.276
36657W        W 8383  24.918  44.595  14.836
36658W        W 8384  43.333  21.065   9.730
36659W        W 8385  21.569   6.774  13.904
36660W        W 8386  42.359  19.756   4.777
36661W        W 8387   9.776   4.472  13.353
36662W        W 8388  17.517  14.237  14.961
36663W        W 8389   1.374  16.045   2.932
36664W        W 8390   4.123  44.778   3.224
36665W        W 8391   6.993  38.534  13.158
36666W        W 8392  22.167   5.238   3.742
36667W        W 8393  15.769  30.493   1.868
36668W        W 8394  20.614  27.636  11.564
36669W        W 8395   6.003  16.078   4.420
36670W        W 8396  38.288  35.314  12.222
36671W        W 8397  23.004  28.559  11.811
36672W        W 8398  15.552   7.826   0.718
36673W        W 8399  12.123  13.836  14.374
36674W        W 8400  30.384  27.023   1.308
36675W        W 8401  17.215  21.733  14.813
36676W        W 8402  11.683  11.124   1.112
36677W        W 8403  18.483  40.788   4.161
36678W        W 8404  37.684  34.883  11.645
36679W        W 8405  15.644  30.632  12.598
36680W        W 8406  35.533  40.616   4.682
36681W        W 8407  37.446  28.597  13.406
36682W        W 8408   3.477  25.736   1.912
36683W        W 8409  40.323  27.881  14.243
36684W        W 8410  16.660  42.081  12.782
36685W        W 8411  44.519  31.611  12.998
36686W        W 8412   1.584   2.452   2.225
36687W        W 8413  41.507  38.040   2.438
36688W        W 8414  43.909  12.979  12.050
36689W        W 8415  38.137  44.388   0.792
36690W        W 8416  36.944  12.926   4.912
36691W        W 8417  38.537  10.249  14.064
36692W        W 8418   7.671  33.232   4.207
36693W        W 8419  12.842  13.295   2.136
36694W        W 8420  41.255  11.706   4.079
36695W        W 8421  18.325  41.948   1.866
36696W        W 8422   2.349  29.987   3.214
36697W        W 8423  17.731  12.579  11.553
36698W        W 8424  40.989  42.174   1.667
36699W        W 8425  37.778   1.495  12.450
36700W        W 8426   9.211  28.718  11.191
36701W        W 8427   6.517  35.411   0.536
36702W        W 8428  12.170  22.034   4.230
36703W        W 8429   7.872   1.901   0.246
36704W        W 8430   1.650   4.319   1.361
36705W        W 8431   6.122  29.118  10.278
36706W        W 8432  30.383  22.634  13.839
36707W        W 8433  12.317  36.751  12.001
36708W        W 8434  38.066  42.205  14.444
36709W        W 8435  29.000  21.531   2.430
36710W        W 8436   5.658  24.234  12.933
36711W        W 8437  17.879  13.451   2.255
36712W        W 8438   0.993  16.157   4.697
36713W        W 8439   6.604  36.817   4.175
36714W        W 8440   1.875  20.192   0.341
36715W        W 8441  41.406  36.389  10.333
36716W        W 8442  21.054  39.987  13.388
36717W        W 8443   8.761  12.596   3.580
36718W        W 8444  33.382  15.709  13.840
36719W        W 8445  34.898  33.376  13.481
36720W        W 8446  32.532   6.757  12.294
36721W        W 8447  17.029  38.578  13.059
36722W        W 8448   8.497  32.614   3.411
36723W        W 8449   5.831  39.783  11.726
36724W        W 8450  38.907  19.647  11.969
36725W        W 8451  40.310  21.604  14.840
36726W        W 8452  28.091  28.872  14.783
36727W        W 8453  28.131  13.939  11.904
36728W        W 8454   6.630  21.571  10.854
36729W        W 8455  12.757   7.013  11.687
36730W        W 8456  13.142  22.483   1.859
36731W        W 8457  35.051  29.982  12.534
36732W        W 8458   3.161  22.993  11.620
36733W        W 8459  18.077  17.042  13.741
36734W        W 8460  12.052  35.604   0.553
36735W        W 8461  42.921  22.050  11.751
36736W        W 8462   6.909  31.847   4.963
36737W        W 8463  27.487   8.843  12.311
36738W        W 8464  21.740  10.711   1.773
36739W        W 8465   6.086  30.334  12.428
36740W        W 8466   0.273   6.776   0.731
36741W        W 8467  11.861  15.630   2.577
36742W        W 8468  32.412  32.397  11.985
36743W        W 8469   0.268   5.367   2.260
36744W        W 8470  21.146  19.262  12.562
36745W        W 8471  44.468   8.185  12.074
36746W        W 8472  13.648  38.404   9.720
36747W        W 8473  37.022  14.324  12.069
36748W        W 8474  29.916  18.679  13.891
36749W        W 8475   0.887  22.733  13.994
36750W        W 8476  44.256  22.734  13.787
36751W        W 8477   8.377  11.192  10.766
36752W        W 8478   6.224   6.907   0.911
36753W        W 8479  14.122  23.730  12.614
36754W        W 8480  40.783  10.687   3.613
36755W        W 8481  34.712   2.586   2.133
36756W        W 8482  21.244   6.290  11.566
36757W        W 8483  14.495  27.748   0.385
36758W        W 8484  35.140   8.169   0.839
36759W        W 8485  27.117  16.040   0.047
36760W        W 8486   2.282  10.300  13.852
36761W        W 8487  21.067  43.239  10.593
36762W        W 8488  13.230  33.224   4.061
36763W        W 8489  26.537   0.488   4.039
36764W        W 8490   0.122  43.406   1.276
36765W        W 8491   4.004  26.928   3.351
36766W        W 8492  30.201  26.758   3.652
36767W        W 8493  39.990  36.896  14.710
36768W        W 8494  12.663  38.068  11.913
36769W        W 8495  30.680  26.515  11.670
36770W        W 8496  15.396  20.701  13.855
36771W        W 8497  18.306  20.338  11.068
36772W        W 8498  44.778  40.513   4.555
36773W        W 8499  16.613  10.848  14.030
36774W        W 8500  32.172   5.797  14.084
36775W        W 8501  25.325  29.140   1.754
36776W        W 8502  26.222  27.470   1.160
36777W        W 8503   6.683  19.157   0.891
36778W        W 8504  15.203  13.304  12.064
36779W        W 8505  31.398   2.270  10.411
36780W        W 8506  23.509   2.951  13.388
36781W        W 8507   9.655   6.864  11.119
36782W        W 8508  20.633  26.734  12.525
36783W        W 8509  43.513   1.934   3.728
36784W        W 8510   7.234  19.905   2.999
36785W        W 8511   3.020  30.498  11.357
36786W        W 8512   4.948  21.414   4.098
36787W        W 8513  19.493  24.414  11.762
36788W        W 8514  22.648  38.051   1.437
36789W        W 8515  36.593  19.056   4.039
36790W        W 8516   6.044   5.236   3.660
36791W        W 8517   5.626  15.207  14.241
36792W        W 8518  41.362  34.973   1.282
36793W        W 8519  42.564  34.478  10.449
36794W        W 8520  29.516  37.926  13.991
36795W        W 8521  18.616  41.391  10.332
36796W        W 8522  31.136  13.166   1.843
36797W        W 8523  15.516   4.482   0.650
36798W        W 8524   0.473  32.128  11.219
36799W        W 8525  12.415  13.338   0.547
36800W        W 8526  35.994   3.859  11.323
36801W        W 8527  17.022  15.281  14.880
36802W        W 8528  23.970  19.156  13.043
36803W        W 8529  28.127  32.478  10.635
36804W        W 8530  14.181  13.082   4.614
36805W        W 8531  35.973  12.820   0.765
36806W        W 8532  40.884  22.208  10.800
36807W        W 8533  11.908  20.511  14.861
36808W        W 8534   1.996  33.295   2.301
36809W        W 8535   9.877  30.917   2.686
36810W        W 8536  14.489  21.261   2.783
36811W        W 8537  20.571  19.515  12.562
36812W        W 8538   2.972  18.040  12.439
36813W        W 8539  13.324  13.574  14.906
36814W        W 8540  27.777  34.605   2.303
36815W        W 8541  12.095  27.222  14.736
36816W        W 8542  21.179   0.466  13.510
36817W        W 8543   7.856  16.226   0.041
36818W        W 8544  22.745  13.717  13.344
36819W        W 8545  40.597  19.713  14.929
36820W        W 8546  20.353  43.988   0.103
36821W        W 8547  44.147  20.621  10.722
36822W        W 8548  35.449  17.153  11.509
36823W        W 8549  42.542  34.142  13.774
36824W        W 8550  25.753  26.685   0.892
36825W        W 8551  18.090  29.370   2.921
36826W        W 8552   1.939   1.582   4.159
36827W        W 8553  34.643   7.767   1.315
36828W        W 8554  18.682  15.746   3.586
36829W        W 8555  44.439  35.613  13.738
36830W        W 8556  22.030  35.823  12.388
36831W        W 8557   9.007  30.020  12.801
36832W        W 8558   0.792  26.514   0.954
36833W        W 8559   4.855  13.735   5.096
36834W        W 8560  30.905  37.417   5.137
36835W        W 8561  21.606  18.374   1.343
36836W        W 8562  23.541  36.571  12.641
36837W        W 8563  16.144  26.910   1.228
36838W        W 8564  29.549  23.015  10.674
36839W        W 8565  27.835  36.537   0.953
36840W        W 8566   5.282   5.872  13.241
36841W        W 8567  42.212  15.206   4.802
36842W        W 8568  38.496  34.903   4.651
36843W        W 8569  43.948  25.510   2.767
36844W        W 8570  18.324  16.256   1.806
36845W        W 8571   3.007  41.149  11.013
36846W        W 8572  44.918  21.596   3.418
36847W        W 8573  20.587  25.298   3.274
36848W        W 8574  17.285  39.385  13.617
36849W        W 8575  24.958  12.167  12.842
36850W        W 8576  37.445   9.091  13.304
36851W        W 8577   7.158   3.969  13.781
36852W        W 8578   7.188  34.596   0.758
36853W        W 8579  30.008  17.148  11.543
36854W        W 8580  34.887  13.237   3.711
36855W        W 8581  43.486  36.762   4.596
36856W        W 8582  19.798  14.183   1.362
36857W        W 8583  34.620  25.280  11.518
36858W        W 8584  32.961  19.857   5.020
36859W        W 8585   5.322  39.517   3.651
36860W        W 8586  20.590   4.544   1.995
36861W        W 8587   3.779  29.102   3.132
36862W        W 8588   0.366  27.428   2.425
36863W        W 8589  13.181   6.731  10.637
36864W        W 8590  15.835  29.115   0.765
36865W        W 8591  36.047  42.527  11.938
36866W        W 8592  24.916  44.520   3.211
36867W        W 8593  40.941  26.418   0.177
36868W        W 8594   6.149  11.198  12.785
36869W        W 8595   5.161  22.493   2.190
36870W        W 8596  24.411   3.310   1.050
36871W        W 8597  16.551  28.981  12.140
36872W        W 8598  23.975  19.107   1.226
36873W        W 8599  12.790   5.394   4.895
36874W        W 8600  38.287  31.457  12.578
36875W        W 8601  37.919   0.950   1.631
36876W        W 8602  16.237  25.002  13.309
36877W        W 8603  12.374  10.668   3.245
36878W        W 8604  18.571  19.342   2.536
36879W        W 8605  15.762  38.262   3.839
36880W        W 8606  34.765  22.230   2.856
36881W        W 8607  35.141  22.667   1.483
36882W        W 8608   8.580  10.692   0.460
36883W        W 8609  10.442  25.139   0.041
36884W        W 8610  28.638  24.380  12.012
36885W        W 8611   4.691  34.883  11.148
36886W        W 8612   5.666  33.234   3.660
36887W        W 8613  38.533  11.422  12.683
36888W        W 8614  29.233  27.146   1.933
36889W        W 8615  29.440  29.587  14.159
36890W        W 8616  17.236  44.847  13.958
36891W        W 8617  15.714  27.954  13.541
36892W        W 8618   0.268  15.395  11.203
36893W        W 8619  33.421   7.031   4.679
36894W        W 8620  21.075  20.306  12.409
36895W        W 8621  38.954   4.410  13.425
36896W        W 8622   9.401  27.983   2.920
36897W        W 8623  41.114  22.805   2.861
36898W        W 8624  18.966  20.323   1.793
36899W        W 8625  11.366  28.963  14.613
36900W        W 8626  15.339  29.601   1.180
36901W        W 8627   6.564  36.605   0.520
36902W        W 8628  31.184  14.279  11.559
36903W        W 8629  18.212  41.224  13.890
36904W        W 8630  18.601  25.561   2.360
36905W        W 8631  36.559   8.313  11.834
36906W        W 8632  29.125   2.752  13.512
36907W        W 8633  18.585   5.700  14.998
36908W        W 8634  18.089   3.264   1.470
36909W        W 8635  29.415  31.675   1.822
36910W        W 8636   0.672  15.941   2.174
36911W        W 8637  22.235  21.234   3.126
36912W        W 8638  33.346  44.933   0.369
36913W        W 8639   4.359  27.894   4.309
36914W        W 8640  12.649   4.079  12.085
36915W        W 8641  32.885  23.459   1.980
36916W        W 8642  22.167  36.061  10.590
36917W        W 8643   5.829  21.244   4.203
36918W        W 8644   8.167  26.212   2.386
36919W        W 8645  37.635  13.162  13.412
36920W        W 8646  21.065  29.893  12.008
36921W        W 8647   6.716   7.063   4.151
36922W        W 8648  34.099  18.883  12.989
36923W        W 8649  43.883  37.671   2.923
36924W        W 8650   8.733  34.766   1.186
36925W        W 8651  24.669  19.679  14.918
36926W        W 8652   3.680   2.384   3.233
36927W        W 8653   3.826   8.171   3.039
36928W        W 8654  30.515  28.953   4.538
36929W        W 8655  17.820  16.613  13.611
36930W        W 8656   3.758  30.566  14.061
36931W        W 8657   3.733   7.667  11.278
36932W        W 8658   5.245  39.454  11.018
36933W        W 8659  21.965  29.550  12.338
36934W        W 8660  20.660  38.076   2.201
36935W        W 8661  13.149   8.427   3.697
36936W        W 8662   9.467  14.259  11.001
36937W        W 8663  27.392  26.106   1.246
36938W        W 8664  38.253  12.638  10.186
36939W        W 8665  17.190  28.457   2.368
36940W        W 8666  35.574   3.231  14.428
36941W        W 8667  36.087  36.332  11.566
36942W        W 8668  22.659  12.340  10.514
36943W        W 8669  36.657  41.904  12.206
36944W        W 8670  10.345   6.455  11.556
36945W        W 8671  10.304  24.531  10.090
36946W        W 8672  13.303  12.222  10.779
36947W        W 8673   9.781  23.894  13.530
36948W        W 8674  37.631  38.025  13.011
36949W        W 8675  12.920   0.070   2.422
36950W        W 8676  31.338  31.971   4.750
36951W        W 8677   6.018  11.777  10.017
36952W        W 8678  44.001  24.387  11.629
36953W        W 8679   6.909  15.143   9.734
36954W        W 8680   9.184  21.530   4.573
36955W        W 8681  23.507  19.338  11.683
36956W        W 8682  44.978  18.285   3.587
36957W        W 8683  36.585  25.630   0.616
36958W        W 8684   0.887  34.836  11.350
36959W        W 8685  26.879  30.068   0.063
36960W        W 8686  16.130  29.570  13.526
36961W        W 8687   5.276  40.811   4.764
36962W        W 8688  12.332  29.480   3.056
36963W        W 8689  19.830   8.436   2.317
36964W        W 8690  26.557  27.238  14.967
36965W        W 8691  31.105  41.939   3.616
36966W        W 8692  29.571  26.196   2.877
36967W        W 8693  21.533  17.830   0.309
36968W        W 8694  24.041  16.548  10.443
36969W        W 8695  43.264  38.475  13.803
36970W        W 8696  14.809  11.288  14.947
36971W        W 8697  17.045   8.455   2.815
36972W        W 8698  24.606  21.162  10.689
36973W        W 8699  14.716  32.149   3.647
36974W        W 8700  21.166  40.877  12.411
36975W        W 8701  36.969  20.542   2.863
36976W        W 8702  20.712  35.635  12.029
36977W        W 8703  24.108   5.922   2.625
36978W        W 8704   4.366  23.675  12.848
36979W        W 8705  34.889  18.747   9.696
36980W        W 8706  40.323  29.525  14.936
36981W        W 8707  31.921   6.092   1.016
36982W        W 8708  37.924  29.962   1.436
36983W        W 8709   9.209  40.886  11.414
36984W        W 8710  41.316  10.720   3.623
36985W        W 8711  42.404   2.747  11.211
36986W        W 8712  35.832   4.807  10.639
36987W        W 8713  14.624   2.822   1.932
36988W        W 8714  22.044  37.130   3.318
36989W        W 8715  19.328  39.484  14.929
36990W        W 8716   8.733   8.396   1.425
36991W        W 8717  25.981  24.163   2.313
36992W        W 8718  12.848  41.478   1.304
36993W        W 8719  36.398  34.924  10.727
36994W        W 8720  36.246  28.177  12.682
36995W        W 8721   9.944  32.829   4.555
36996W        W 8722  23.897  12.668   9.787
36997W        W 8723  18.265  11.530  11.187
36998W        W 8724  29.930  11.364  14.891
36999W        W 8725  13.472  41.608   5.149
37000W        W 8726  44.265  36.791   0.779
37001W        W 8727   6.391  14.805   0.960
37002W        W 8728  42.946  25.563  12.369
37003W        W 8729  34.335  12.441  14.364
37004W        W 8730  33.944   4.219  11.724
37005W        W 8731  23.335  15.422  13.901
37006W        W 8732  32.438   4.483   3.262
37007W        W 8733   0.922  20.149  13.485
37008W        W 8734  42.261  27.897  11.710
37009W        W 8735  40.677  42.033   2.807
37010W        W 8736  36.118  25.616  11.498
37011W        W 8737  16.925  18.060   2.679
37012W        W 8738  15.523  25.281  10.269
37013W        W 8739  25.635   3.445   3.642
37014W        W 8740  27.455  27.148  11.183
37015W        W 8741  27.248  33.466   3.525
37016W        W 8742  37.072  31.293   4.077
37017W        W 8743  13.859  34.063   3.172
37018W        W 8744  40.944  34.470   2.880
37019W        W 8745  15.632  42.308   3.182
37020W        W 8746  25.575  34.465   0.661
37021W        W 8747  22.189  22.109   4.799
37022W        W 8748  43.385  37.762   0.830
37023W        W 8749  23.049  17.290  12.635
37024W        W 8750  25.671   5.368  13.778
37025W        W 8751  11.219  12.838  13.419
37026W        W 8752  25.667   1.795   1.665
37027W        W 8753  40.502  19.191   3.598
37028W        W 8754   3.750  21.019   0.092
37029W        W 8755  30.720  38.879  11.936
37030W        W 8756  36.875  43.373  10.546
37031W        W 8757  32.715  34.846   3.420
37032W        W 8758  11.694  18.138   3.279
37033W        W 8759  32.449   5.833   1.246
37034W        W 8760  40.067   5.768   2.268
37035W        W 8761  27.702  10.543   1.102
37036W        W 8762  17.481  32.637  12.567
37037W        W 8763  12.471  32.174   4.859
37038W        W 8764   8.467  21.343  12.876
37039W        W 8765  21.922  36.429  11.317
37040W        W 8766  34.919  25.472  13.915
37041W        W 8767  33.615  15.030   1.894
37042W        W 8768  28.683   0.345  14.704
37043W        W 8769  40.322   1.930   4.175
37044W        W 8770  30.612  18.591   1.692
37045W        W 8771  27.623   4.015  13.012
37046W        W 8772   9.669  12.868   2.595
37047W        W 8773  39.287   3.643   4.605
37048W        W 8774  11.660  23.477   4.147
37049W        W 8775   0.340   2.888   1.403
37050W        W 8776  20.591  43.126   0.463
37051W        W 8777  33.023  31.057   3.793
37052W        W 8778  28.118  37.008   0.927
37053W        W 8779  27.886  36.707   3.568
37054W        W 8780  10.275  22.628   0.293
37055W        W 8781  14.735  27.953  13.569
37056W        W 8782   3.976  36.603   4.414
37057W        W 8783  31.039  31.984   1.773
37058W        W 8784  36.761  29.103  14.437
37059W        W 8785  33.033  30.334   3.065
37060W        W 8786  29.157  12.761  11.582
37061W        W 8787  14.255  26.965  11.629
37062W        W 8788   5.312  28.471   3.686
37063W        W 8789  11.303  22.056  12.328
37064W        W 8790   7.836  28.553   4.579
37065W        W 8791  30.376  20.112   2.828
37066W        W 8792  18.224  23.119  12.822
37067W        W 8793   6.385   7.406  11.527
37068W        W 8794   8.102  35.897   2.278
37069W        W 8795  23.615  31.422  11.670
37070W        W 8796   1.349   1.417  12.934
37071W        W 8797  20.245   0.752  11.057
37072W        W 8798  44.871   5.865   4.640
37073W        W 8799   5.413  12.531  12.966
37074W        W 8800  18.960  15.286   1.363
37075W        W 8801   2.320  41.274   4.847
37076W        W 8802   1.225  13.912   4.112
37077W        W 8803  29.516  26.708  13.438
37078W        W 8804  23.471  23.208  11.190
37079W        W 8805  43.893  13.987  12.025
37080W        W 8806   2.775  17.518  14.409
37081W        W 8807   0.071   2.209  12.937
37082W        W 8808  42.885  12.826  11.511
37083W        W 8809  25.332  44.344   2.254
37084W        W 8810  41.478  19.492   2.746
37085W        W 8811  39.843  41.245  14.749
37086W        W 8812  35.986  43.916   3.192
37087W        W 8813   5.342  39.857  13.503
37088W        W 8814  31.429  43.273   4.234
37089W        W 8815  29.361  35.350   3.410
37090W        W 8816  32.458  40.901  11.650
37091W        W 8817  14.709  27.433  12.362
37092W        W 8818  42.895  33.098  11.409
37093W        W 8819   2.944  30.964  12.159
37094W        W 8820   1.416  16.743   3.547
37095W        W 8821   6.668  33.548  14.002
37096W        W 8822   5.042  24.690  12.929
37097W        W 8823  14.553  27.757  14.569
37098W        W 8824  40.530   9.364  13.498
37099W        W 8825   5.073  11.057   0.463
37100W        W 8826   7.466  26.036  12.063
37101W        W 8827  30.034  41.788  11.569
37102W        W 8828  27.975  19.272  11.529
37103W        W 8829  18.106  38.187   2.339
37104W        W 8830  34.960   4.984  11.691
37105W        W 8831  36.445  21.614  12.062
37106W        W 8832  22.502  34.576  12.005
37107W        W 8833  37.135  32.387   1.014
37108W        W 8834  41.754  21.422   0.987
37109W        W 8835  21.110  27.913   0.395
37110W        W 8836  26.991  19.345   4.039
37111W        W 8837  11.815  10.860  11.130
37112W        W 8838  31.900  31.573   3.575
37113W        W 8839  12.605  11.831   4.524
37114W        W 8840  21.469  24.468  12.009
37115W        W 8841  26.614  22.008   2.623
37116W        W 8842  19.269  32.597  14.786
37117W        W 8843  24.096   1.211   0.588
37118W        W 8844  19.027  25.484   0.406
37119W        W 8845  33.468  43.353   0.709
37120W        W 8846  11.222  26.137   0.447
37121W        W 8847  32.853  14.787  12.046
37122W        W 8848  14.755  37.793  11.576
37123W        W 8849  19.627   5.760  10.662
37124W        W 8850  44.875  26.954  13.637
37125W        W 8851  31.509  13.860  11.651
37126W        W 8852  17.071   2.197  14.932
37127W        W 8853  33.682  33.503  14.293
37128W        W 8854  21.051   0.579   1.397
37129W        W 8855  43.557   5.337   3.649
37130W        W 8856   7.915  28.488   2.275
37131W        W 8857  32.497   6.638   3.681
37132W        W 8858  23.833   3.233  13.686
37133W        W 8859   1.799  21.869   1.599
37134W        W 8860  41.289  40.373   0.268
37135W        W 8861  14.736   0.426  10.644
37136W        W 8862  24.462  11.353  11.127
37137W        W 8863  42.392  12.923   0.804
37138W        W 8864  10.301  44.855  11.188
37139W        W 8865  37.606  44.509   0.527
37140W        W 8866  22.813  15.881  13.000
37141W        W 8867  30.758  37.433  14.692
37142W        W 8868  17.134   8.358  14.880
37143W        W 8869  17.335  16.803  13.534
37144W        W 8870  38.494  30.165  12.991
37145W        W 8871  37.458  22.524  12.420
37146W        W 8872  41.253  28.063   1.499
37147W        W 8873  16.227  41.397   4.593
37148W        W 8874   9.373  16.239  13.528
37149W        W 8875   8.400   6.843  11.149
37150W        W 8876  14.376  37.858  12.361
37151W        W 8877   9.674  29.423  11.496
37152W        W 8878  43.321  40.976  10.680
37153W        W 8879   9.941  33.509   0.295
37154W        W 8880   1.635  34.458  12.997
37155W        W 8881  40.195  28.241   0.167
37156W        W 8882  20.215  31.672   2.270
37157W        W 8883  15.934  12.759  14.849
37158W        W 8884  30.123  16.366  11.154
37159W        W 8885  26.044  18.658   2.453
37160W        W 8886  25.403  12.045   1.360
37161W        W 8887  15.227  31.485   0.896
37162W        W 8888  29.043  20.232   1.220
37163W        W 8889  43.319  42.971   2.374
37164W        W 8890  36.971  30.955   2.782
37165W        W 8891  37.814  25.402   4.335
37166W        W 8892  35.917   6.008   4.649
37167W        W 8893  15.300  20.347   3.344
37168W        W 8894  15.202  36.615  14.880
37169W        W 8895  41.756  28.178  14.374
37170W        W 8896  20.172  36.820  13.779
37171W        W 8897  11.840  22.606   3.664
37172W        W 8898  35.296  12.615  10.735
37173W        W 8899  35.811  38.356   1.717
37174W        W 8900  16.127  36.797   4.382
37175W        W 8901  14.129  30.126   3.242
37176W        W 8902  15.169  30.813   3.799
37177W        W 8903  36.994  18.508  13.931
37178W        W 8904   2.524  34.583  14.956
37179W        W 8905  14.398  29.014   0.922
37180W        W 8906  29.516  32.535   3.855
37181W        W 8907  41.754  37.582   4.960
37182W        W 8908  12.701  30.336  11.125
37183W        W 8909  41.466  22.143   2.921
37184W        W 8910  33.600  23.515   0.125
37185W        W 8911   9.455   0.276   3.810
37186W        W 8912  26.225  26.673   1.664
37187W        W 8913  25.130  33.421  11.218
37188W        W 8914  37.387  40.384  14.231
37189W        W 8915  44.541  22.478   3.658
37190W        W 8916  18.117  19.830   4.544
37191W        W 8917  31.413  28.231  14.458
37192W        W 8918  17.137  28.585  12.326
37193W        W 8919   7.280   8.040   3.122
37194W        W 8920   3.622  17.561   2.742
37195W        W 8921   8.084  37.349  11.200
37196W        W 8922  31.648  16.354   4.057
37197W        W 8923  15.223  16.281   4.208
37198W        W 8924   2.748  22.046  13.824
37199W        W 8925  31.414  11.145   0.575
37200W        W 8926  16.965  29.236  12.982
37201W        W 8927   1.088  18.864   3.297
37202W        W 8928  37.125  37.310   4.231
37203W        W 8929   0.964  25.081   3.906
37204W        W 8930   4.907   4.627  12.294
37205W        W 8931  36.415  10.121   3.701
37206W        W 8932   6.432  17.124  14.456
37207W        W 8933  28.456  10.318  14.026
37208W        W 8934  14.539  37.520   0.385
37209W        W 8935   7.220  12.323   4.415
37210W        W 8936   8.365  41.052   4.145
37211W        W 8937  39.600  22.781  11.849
37212W        W 8938  19.081  44.488   1.978
37213W        W 8939  44.908   2.573  13.393
37214W        W 8940  11.407  19.799  12.406
37215W        W 8941  18.187   6.932  10.846
37216W        W 8942  38.281  38.115   4.587
37217W        W 8943   3.897  44.222   2.382
37218W        W 8944   7.134  40.461  13.372
37219W        W 8945  17.839  29.681  14.280
37220W        W 8946  26.519  30.510   4.238
37221W        W 8947  20.717  15.750  11.189
37222W        W 8948   6.786  36.848  12.053
37223W        W 8949  22.739  22.350  12.534
37224W        W 8950  35.605   4.963   3.823
37225W        W 8951   0.180   5.845  10.907
37226W        W 8952  19.943  31.122   0.330
37227W        W 8953  18.158  36.998  13.987
37228W        W 8954  28.002  24.738   1.463
37229W        W 8955  43.798  26.553  13.463
37230W        W 8956  24.642  11.257   4.366
37231W        W 8957  16.394  16.577   1.899
37232W        W 8958  21.945  12.794   1.357
37233W        W 8959  36.432  28.743   0.318
37234W        W 8960  33.362  26.650   3.173
37235W        W 8961   9.616   9.613   1.379
37236W        W 8962  44.955   3.756  14.870
37237W        W 8963  22.167  42.231  11.553
37238W        W 8964  29.269  41.740   3.843
37239W        W 8965  21.066   8.867  10.656
37240W        W 8966  42.069  27.102  12.401
37241W        W 8967  43.057  11.725   2.298
37242W        W 8968  13.160  24.825   2.737
37243W        W 8969   1.875  24.223   3.810
37244W        W 8970  41.386  24.899   0.785
37245W        W 8971   4.415  34.767   2.118
37246W        W 8972  19.260  38.917   1.822
37247W        W 8973  35.656   6.108  11.090
37248W        W 8974   0.381  21.462  14.009
37249W        W 8975  30.385   1.749  14.341
37250W        W 8976  23.512  10.012   2.246
37251W        W 8977  26.591  18.832   0.767
37252W        W 8978  28.596  36.526   3.721
37253W        W 8979  44.369  15.638   1.747
37254W        W 8980  37.492  24.523  11.508
37255W        W 8981  11.663   6.218  14.488
37256W        W 8982  27.214   0.469  11.179
37257W        W 8983   1.871  42.849   4.052
37258W        W 8984   9.950  13.636   1.330
37259W        W 8985  29.123   5.250  14.454
37260W        W 8986  35.897  15.896   3.248
37261W        W 8987   2.559   3.132  14.460
37262W        W 8988  30.180  16.533   0.770
37263W        W 8989  37.863  30.897   3.108
37264W        W 8990  23.017  14.563   3.219
37265W        W 8991  29.378  38.106  12.642
37266W        W 8992  29.166   7.250  13.109
37267W        W 8993   2.851  31.667  14.944
37268W        W 8994  17.039  34.552   3.375
37269W        W 8995  25.144  16.758   4.369
37270W        W 8996  26.233   6.845   2.686
37271W        W 8997  31.600  35.109   2.175
37272W        W 8998   6.177  24.920  14.891
37273W        W 8999   2.713  21.141   1.732
37274W        W 9000  18.617  22.696  13.076
37275W        W 9001  13.770  40.674   4.248
37276W        W 9002  33.477  16.356  11.618
37277W        W 9003  42.331  26.135   1.806
37278W        W 9004  21.566  13.330   2.739
37279W        W 9005   5.029   8.307  11.395
37280W        W 9006  21.361  15.197  11.551
37281W        W 9007  34.941   5.204   2.654
37282W        W 9008  24.880  27.032  10.646
37283W        W 9009   0.011   4.933  10.963
37284W        W 9010  16.038  10.299  14.678
37285W        W 9011  16.131  17.079  12.865
37286W        W 9012   5.354  19.016   1.636
37287W        W 9013  17.616  42.916  11.619
37288W        W 9014  17.275  14.683   2.741
37289W        W 9015  11.160  15.157   1.072
37290W        W 9016  39.459  25.823   1.329
37291W        W 9017  13.395  25.020  13.193
37292W        W 9018   7.829  23.588   1.957
37293W        W 9019  29.565  35.390   2.931
37294W        W 9020  44.206  38.337  13.006
37295W        W 9021  27.901  23.959  14.876
37296W        W 9022  36.080  44.655  11.229
37297W        W 9023  17.994  18.777  14.044
37298W        W 9024  38.056  29.089   2.672
37299W        W 9025  20.522  31.146   4.540
37300W        W 9026  24.084  20.497  11.062
37301W        W 9027   3.018  14.868  14.382
37302W        W 9028  16.228  24.440  14.340
37303W        W 9029   4.831  12.817  10.067
37304W        W 9030   8.829   6.566  10.554
37305W        W 9031  16.007  14.058  11.073
37306W        W 9032  40.697  13.324  14.827
37307W        W 9033  42.558  38.973  13.158
37308W        W 9034  28.506  32.625  13.773
37309W        W 9035  17.825  22.141  12.854
37310W        W 9036   3.791  12.281  12.451
37311W        W 9037  31.399  16.454   1.719
37312W        W 9038  39.911  15.609  12.342
37313W        W 9039  22.465  10.904   2.272
37314W        W 9040  23.361  32.601  14.266
37315W        W 9041  40.573   0.559   4.172
37316W        W 9042  34.959  23.029   1.833
37317W        W 9043  28.607  42.473  12.392
37318W        W 9044  27.227  15.821   0.507
37319W        W 9045   3.704  39.550   2.107
37320W        W 9046  34.753  29.845   1.318
37321W        W 9047  20.164   5.908  14.006
37322W        W 9048  11.046  34.086   9.737
37323W        W 9049  13.261   1.414  13.968
37324W        W 9050   7.453  19.163   1.393
37325W        W 9051  21.998   2.956  13.320
37326W        W 9052  18.832  22.151  11.103
37327W        W 9053  42.195  10.071   5.077
37328W        W 9054  18.818  34.426   1.372
37329W        W 9055  35.078  29.516  11.685
37330W        W 9056  31.446  35.151  14.829
37331W        W 9057  35.827  22.271   3.820
37332W        W 9058   2.002  34.040   3.276
37333W        W 9059  12.856   9.664   2.277
37334W        W 9060  31.612  40.026  11.272
37335W        W 9061  20.731  10.944  11.969
37336W        W 9062   5.196  41.226  13.884
37337W        W 9063   3.898   8.312   0.054
37338W        W 9064  26.178  36.436   0.349
37339W        W 9065   3.976  35.612   1.775
37340W        W 9066   0.973   2.377  11.162
37341W        W 9067  20.977   8.760   3.206
37342W        W 9068  38.657  41.817   4.704
37343W        W 9069  13.655  24.474   3.559
37344W        W 9070  22.540   6.750   3.390
37345W        W 9071  44.332   6.054   0.461
37346W        W 9072  12.054  29.973   0.343
37347W        W 9073  37.457  25.463  11.895
37348W        W 9074  32.607   1.706  11.681
37349W        W 9075  12.170   3.723   4.901
37350W        W 9076   5.950  13.981   0.454
37351W        W 9077   9.402   0.698  13.312
37352W        W 9078  27.430  36.461  14.671
37353W        W 9079  30.147  29.415  10.992
37354W        W 9080  27.681  31.607   1.993
37355W        W 9081  14.199  14.074  14.809
37356W        W 9082   2.633  44.799  11.588
37357W        W 9083  27.971   9.158   3.672
37358W        W 9084  39.828  37.832   3.810
37359W        W 9085   3.411  20.767   2.689
37360W        W 9086  15.730  40.263   1.348
37361W        W 9087   4.691  36.493  13.805
37362W        W 9088  20.476  41.996   2.671
37363W        W 9089   9.748  40.407  12.989
37364W        W 9090  25.761  33.873  11.535
37365W        W 9091  16.591  31.902   0.227
37366W        W 9092  24.073  12.162   1.798
37367W        W 9093  41.209   6.948  11.186
37368W        W 9094  23.041  30.556   4.001
37369W        W 9095  43.675   7.471  14.721
37370W        W 9096  23.425  20.641  11.099
37371W        W 9097  28.641  37.900  13.022
37372W        W 9098  32.873  14.180   1.010
37373W        W 9099  25.398  36.086   4.103
37374W        W 9100  13.790  22.229  13.773
37375W        W 9101  40.083  38.794   2.723
37376W        W 9102  24.621  36.119   2.681
37377W        W 9103  27.397  25.635  12.995
37378W        W 9104  11.290   2.406  12.908
37379W        W 9105  43.731  12.033   3.545
37380W        W 9106   2.098  43.702   4.979
37381W        W 9107  38.951   0.465  12.462
37382W        W 9108  37.531   8.272   4.474
37383W        W 9109  18.500  32.395   2.305
37384W        W 9110  22.871  32.204  11.099
37385W        W 9111  29.995  22.138  11.004
37386W        W 9112  26.616  14.304   2.887
37387W        W 9113   0.465   5.939   0.935
37388W        W 9114  18.360  38.928   1.637
37389W        W 9115   2.785  33.727  10.881
37390W        W 9116  16.226   3.696   1.634
37391W        W 9117  13.856   0.524  14.834
37392W        W 9118  19.537   0.907  10.639
37393W        W 9119   3.825  15.364  13.410
37394W        W 9120   6.258  20.020   1.869
37395W        W 9121  37.889  44.731  11.977
37396W        W 9122  10.369  30.618   0.282
37397W        W 9123  43.779  43.141  11.585
37398W        W 9124   0.862  38.548   3.650
37399W        W 9125   4.322  33.875  12.750
37400W        W 9126  39.715   2.901   1.815
37401W        W 9127  17.634  15.681   2.436
37402W        W 9128   5.392  16.837   0.910
37403W        W 9129  32.380   2.013  14.816
37404W        W 9130  19.683   7.930   3.239
37405W        W 9131  21.513  23.082   2.649
37406W        W 9132  10.914   5.222   3.246
37407W        W 9133  28.032  36.109   1.665
37408W        W 9134  23.766  10.650  10.909
37409W        W 9135  32.613   7.656   1.152
37410W        W 9136   0.699  38.918  10.570
37411W        W 9137  36.023  30.775   1.375
37412W        W 9138  10.558   3.358  10.719
37413W        W 9139  40.338  10.678  13.517
37414W        W 9140   5.332  44.697   2.750
37415W        W 9141  12.436  15.691  13.797
37416W        W 9142  32.111   7.427   3.644
37417W        W 9143  42.448   4.688  13.830
37418W        W 9144  28.938  12.813   0.663
37419W        W 9145  37.795  12.416   0.338
37420W        W 9146  35.357  15.735  12.578
37421W        W 9147  33.007  14.577   4.593
37422W        W 9148   1.013   5.643   3.284
37423W        W 9149  23.323  37.903  13.892
37424W        W 9150  17.221  29.593   0.683
37425W        W 9151  29.691  11.678   4.248
37426W        W 9152   0.620  34.522   2.730
37427W        W 9153  26.142  37.689  13.490
37428W        W 9154  33.459   2.147  12.434
37429W        W 9155   8.834  37.608  10.786
37430W        W 9156  42.453   3.350   2.340
37431W        W 9157  37.603  37.873  11.958
37432W        W 9158   6.155  14.195  12.160
37433W        W 9159  10.614  14.316  10.815
37434W        W 9160  42.152   2.002   4.112
37435W        W 9161  25.008  12.312  11.899
37436W        W 9162  34.791  25.761  11.509
37437W        W 9163  23.198  26.094  13.794
37438W        W 9164  19.671  42.006  13.340
37439W        W 9165  16.756  34.597   0.971
37440W        W 9166  37.967  27.124   1.071
37441W        W 9167  26.969   9.883   1.525
37442W        W 9168   2.593  23.482   2.787
37443W        W 9169  11.177   8.687   4.719
37444W        W 9170   5.416  21.905  12.958
37445W        W 9171  41.817  10.871   3.613
37446W        W 9172   7.240  15.679  13.334
37447W        W 9173  13.470  34.912  10.403
37448W        W 9174  32.185  30.132   3.941
37449W        W 9175  34.581  32.644  12.392
37450W        W 9176   9.620  22.420   5.056
37451W        W 9177  36.026  38.912  12.776
37452W        W 9178  36.546  20.305   0.419
37453W        W 9179  15.676  39.447  13.984
37454W        W 9180  34.060  30.446   4.198
37455W        W 9181  38.446  44.176   4.305
37456W        W 9182  11.884  28.930  11.685
37457W        W 9183  25.615   0.684  11.532
37458W        W 9184  42.729  18.512  13.812
37459W        W 9185  24.605  15.178   3.639
37460W        W 9186  27.516  40.516  14.366
37461W        W 9187  43.660  25.425   2.301
37462W        W 9188  44.912  35.822   2.748
37463W        W 9189  20.112  27.406  10.756
37464W        W 9190  19.363  26.576   4.598
37465W        W 9191  38.785  19.523  10.716
37466W        W 9192   2.693   8.772  13.792
37467W        W 9193  42.484  17.024  14.935
37468W        W 9194  19.158  43.689   3.564
37469W        W 9195  10.166  32.243   3.859
37470W        W 9196  23.745  17.589  12.984
37471W        W 9197   0.422  38.623  14.313
37472W        W 9198  31.119  40.855  11.256
37473W        W 9199  21.075   8.598   3.689
37474W        W 9200  31.644  12.411   3.420
37475W        W 9201  21.899  28.959  13.822
37476W        W 9202   3.871  14.764   5.037
37477W        W 9203  25.560  22.885   0.519
37478W        W 9204   8.154  34.898   5.322
37479W        W 9205  42.998  25.175   3.135
37480W        W 9206  43.733  39.591  12.361
37481W        W 9207  37.720  44.738  11.065
37482W        W 9208  20.070  36.417  12.173
37483W        W 9209   1.391   4.177  14.480
37484W        W 9210  30.469  27.554   4.753
37485W        W 9211  27.575  31.958   1.373
37486W        W 9212  21.931  22.543   0.340
37487W        W 9213   5.285  12.966  12.691
37488W        W 9214  15.435   3.256  14.103
37489W        W 9215  20.501  38.285  14.814
37490W        W 9216   8.610   1.320   3.318
37491W        W 9217  21.613   3.962  14.384
37492W        W 9218   7.931  15.782   0.326
37493W        W 9219  37.902  33.322   2.257
37494W        W 9220  43.281  41.015  14.954
37495W        W 9221  32.039  30.392   4.762
37496W        W 9222   0.333  22.288  13.440
37497W        W 9223  39.554  15.596  13.112
37498W        W 9224   7.987  13.949  12.436
37499W        W 9225  23.511  15.186   0.845
37500W        W 9226  34.733  20.885   3.825
37501W        W 9227   1.938  27.061   4.684
37502W        W 9228  40.794  43.482   4.350
37503W        W 9229  40.412   8.289  13.352
37504W        W 9230  18.872  17.128  10.596
37505W        W 9231  24.158  23.198  12.474
37506W        W 9232  30.137  17.458   2.717
37507W        W 9233  15.669  29.543   2.317
37508W        W 9234  38.366   4.773   0.021
37509W        W 9235  17.065  44.244  14.871
37510W        W 9236  22.118  32.588   0.994
37511W        W 9237  27.233  11.572   3.860
37512W        W 9238  32.031  17.264  12.916
37513W        W 9239  35.087   8.433   3.405
37514W        W 9240  40.736  39.906   1.806
37515W        W 9241   9.286  25.046  12.612
37516W        W 9242   6.856   2.322  10.554
37517W        W 9243  39.002  27.001  11.914
37518W        W 9244  15.255   0.955  14.840
37519W        W 9245  29.629  31.906  14.894
37520W        W 9246  18.854  37.373   0.951
37521W        W 9247  43.458  27.477   3.226
37522W        W 9248   8.100  39.860   2.229
37523W        W 9249  23.993   6.307   2.264
37524W        W 9250   9.230  14.047  11.927
37525W        W 9251  44.114  37.610  12.606
37526W        W 9252  16.426  12.901  14.802
37527W        W 9253  39.880   5.354   1.916
37528W        W 9254  27.610  26.606  13.040
37529W        W 9255  35.830  20.793   0.815
37530W        W 9256   4.386  44.526   0.884
37531W        W 9257  31.382  12.298   4.315
37532W        W 9258  22.471  32.903   1.754
37533W        W 9259   7.688  11.113  11.882
37534W        W 9260  43.845   8.702   0.494
37535W        W 9261  35.234   3.735   0.447
37536W        W 9262  35.103  25.159  12.382
37537W        W 9263  43.958  40.760  12.675
37538W        W 9264  16.955  33.933  10.412
37539W        W 9265  21.003  21.257  12.479
37540W        W 9266  26.925  25.940   4.572
37541W        W 9267   5.405   8.047  10.090
37542W        W 9268   2.399  34.949  13.025
37543W        W 9269  23.280  44.247  12.425
37544W        W 9270  12.097  15.107  10.849
37545W        W 9271  11.041  11.770   1.251
37546W        W 9272  39.096   3.657   3.331
37547W        W 9273  25.480  11.994   3.572
37548W        W 9274  35.440  34.114   1.206
37549W        W 9275  25.996  31.897  10.921
37550W        W 9276  26.463  43.266   1.373
37551W        W 9277  22.612  15.561   0.784
37552W        W 9278  41.869  23.514  13.369
37553W        W 9279  29.582  30.103  11.151
37554W        W 9280  27.720  14.987  14.412
37555W        W 9281   4.820   9.251   4.068
37556W        W 9282  43.753  31.968   1.380
37557W        W 9283   8.812  23.245   4.278
37558W        W 9284  32.492  27.376   0.404
37559W        W 9285  13.422  24.236  13.620
37560W        W 9286  20.806  41.912  13.902
37561W        W 9287   6.522  40.463  11.688
37562W        W 9288  39.577   8.284   0.755
37563W        W 9289   0.543  13.857  10.999
37564W        W 9290  39.211  31.437  11.186
37565W        W 9291  18.166  21.312  13.792
37566W        W 9292  26.576  18.025   4.413
37567W        W 9293   5.501   7.765  12.352
37568W        W 9294  41.550  13.303  12.447
37569W        W 9295  43.738  14.493   3.633
37570W        W 9296  31.951  41.350   5.123
37571W        W 9297  44.324   5.179   0.210
37572W        W 9298   1.168  34.569   4.246
37573W        W 9299  16.573  23.296  11.110
37574W        W 9300  33.471  43.072   2.756
37575W        W 9301  27.603  19.857   4.816
37576W        W 9302  11.642  33.077  14.514
37577W        W 9303   4.919  25.769  11.141
37578W        W 9304  23.515  24.535  10.634
37579W        W 9305  42.120  34.490  10.736
37580W        W 9306   4.966  31.011  11.139
37581W        W 9307  19.482  37.011  11.371
37582W        W 9308   5.815   6.157   3.383
37583W        W 9309  44.007   5.924  13.816
37584W        W 9310  39.927  23.824  14.861
37585W        W 9311  41.410  21.575   0.590
37586W        W 9312  42.977  21.922   4.209
37587W        W 9313   2.041  37.856   3.824
37588W        W 9314  25.030   0.760   0.598
37589W        W 9315   6.990  18.078  14.856
37590W        W 9316  36.599  27.705   2.192
37591W        W 9317   3.603  15.262   2.294
37592W        W 9318   8.645  43.446  13.253
37593W        W 9319  15.849  16.013  11.254
37594W        W 9320  34.360  42.965  11.922
37595W        W 9321   4.221  13.465   1.194
37596W        W 9322   1.309   2.462   2.677
37597W        W 9323  20.562  35.516  10.755
37598W        W 9324  12.252   8.157  12.482
37599W        W 9325  26.539  43.471  12.165
37600W        W 9326  34.775  38.351  13.993
37601W        W 9327   3.842   0.198  11.584
37602W        W 9328  22.506  12.083   1.409
37603W        W 9329  28.148   1.138  11.589
37604W        W 9330  18.977  11.381  11.905
37605W        W 9331  42.378  18.183  14.440
37606W        W 9332  22.802   5.909  12.435
37607W        W 9333  24.507   6.201  14.466
37608W        W 9334  26.427  20.600  11.914
37609W        W 9335  24.158  41.434  11.177
37610W        W 9336   0.973   8.426   0.956
37611W        W 9337  19.938  44.265   4.496
37612W        W 9338  22.007  23.318   0.692
37613W        W 9339  15.277  39.132   0.698
37614W        W 9340  40.825   1.973  13.869
37615W        W 9341  31.096  43.453   0.569
37616W        W 9342  23.975  24.935   3.214
37617W        W 9343   5.980   0.567   3.427
37618W        W 9344  38.380   7.913   1.952
37619W        W 9345  14.290  20.292   5.012
37620W        W 9346   7.613   5.807   3.182
37621W        W 9347  37.407   0.495  13.086
37622W        W 9348  14.724  42.003   0.742
37623W        W 9349  19.563  40.563   0.834
37624W        W 9350  20.274  40.345  13.527
37625W        W 9351  34.805  35.487   2.760
37626W        W 9352  29.121  19.969   4.309
37627W        W 9353  32.159  19.450  12.691
37628W        W 9354  34.602  38.049  11.581
37629W        W 9355   3.959  35.423   0.419
37630W        W 9356  40.970   2.181   2.773
37631W        W 9357  41.988   8.452  10.583
37632W        W 9358  31.889  24.077  14.184
37633W        W 9359  32.140  19.210   4.839
37634W        W 9360  38.720   9.281  14.475
37635W        W 9361  14.222   4.690   1.148
37636W        W 9362   8.354  28.537   4.379
37637W        W 9363   0.726  15.414   4.293
37638W        W 9364   3.702  15.356   3.740
37639W        W 9365   0.673  14.851   1.314
37640W        W 9366  43.496   2.452  12.975
37641W        W 9367  11.740  23.195  12.364
37642W        W 9368  16.616  27.079  13.399
37643W        W 9369  37.463   8.152   4.975
37644W        W 9370  11.351  23.708  14.301
37645W        W 9371   3.190  18.615  12.021
37646W        W 9372  34.272  14.747  12.024
37647W        W 9373  25.236  16.745   0.848
37648W        W 9374  15.102  38.814   5.019
37649W        W 9375  42.865  39.619   1.091
37650W        W 9376   6.818  35.428  13.523
37651W        W 9377  16.276  15.128  10.930
37652W        W 9378  42.040  37.241   2.396
37653W        W 9379  27.073  26.125  14.377
37654W        W 9380   7.245  27.438   0.702
37655W        W 9381  13.771   7.880  12.118
37656W        W 9382  44.947   9.207  12.534
37657W        W 9383  35.336  36.962   3.267
37658W        W 9384  27.430  15.789  14.237
37659W        W 9385  14.847  13.666   4.480
37660W        W 9386  20.992  26.733  10.682
37661W        W 9387  23.657  42.979  14.318
37662W        W 9388   7.889  30.364  13.863
37663W        W 9389  43.826  22.565   4.153
37664W        W 9390  42.182  43.074   3.382
37665W        W 9391   0.376  43.921   2.122
37666W        W 9392  41.061   9.878   3.512
37667W        W 9393  33.111  38.317   3.664
37668W        W 9394   0.265  28.507  11.113
37669W        W 9395  18.975   7.679  14.425
37670W        W 9396   0.812  15.170  12.032
37671W        W 9397  26.574   4.036   0.024
37672W        W 9398  23.243   3.238  11.642
37673W        W 9399  12.237  40.582  11.560
37674W        W 9400   7.726  39.546   4.070
37675W        W 9401  14.449  41.757   5.005
37676W        W 9402  14.376   7.176   2.856
37677W        W 9403  11.376  23.775   1.227
37678W        W 9404  35.754  29.594  11.212
37679W        W 9405  20.745  16.779  10.283
37680W        W 9406  28.882  34.005   3.896
37681W        W 9407  26.183  10.753   3.953
37682W        W 9408  17.297  38.252   2.840
37683W        W 9409   0.793  41.634  10.083
37684W        W 9410  25.760  32.910   1.831
37685W        W 9411  24.186  17.544  12.680
37686W        W 9412  24.270   4.537  13.789
37687W        W 9413   9.308  30.180   4.121
37688W        W 9414  22.060  25.723   9.793
37689W        W 9415  17.510   5.744  13.081
37690W        W 9416  43.919   6.842  13.374
37691W        W 9417  10.648  12.227   1.904
37692W        W 9418  38.415  13.143   4.659
37693W        W 9419  14.583  44.402   1.857
37694W        W 9420  27.377  43.790   4.574
37695W        W 9421   5.739  16.936   2.336
37696W        W 9422  33.914  34.535   2.807
37697W        W 9423  20.095   3.232  12.896
37698W        W 9424  43.981  13.366  13.904
37699W        W 9425   1.250  32.531   4.146
37700W        W 9426  31.442  34.626  14.851
37701W        W 9427  17.415  36.675   2.334
37702W        W 9428  23.021  15.303   5.503
37703W        W 9429  27.932  15.738  14.442
37704W        W 9430  26.415   1.843   0.190
37705W        W 9431  14.815  19.756   1.689
37706W        W 9432  16.061  20.851  10.096
37707W        W 9433  27.267  19.304  12.900
37708W        W 9434   8.182   6.381  11.203
37709W        W 9435  27.592   3.447  13.458
37710W        W 9436  35.637  24.466   0.700
37711W        W 9437  39.484  21.717  10.689
37712W        W 9438  22.179  23.226  14.326
37713W        W 9439  13.897  42.021   3.641
37714W        W 9440  18.079  39.854   1.396
37715W        W 9441   3.976  16.059  11.780
37716W        W 9442   7.443  43.301  12.001
37717W        W 9443  27.129  14.514   0.943
37718W        W 9444  26.564  14.853   3.552
37719W        W 9445  34.919  43.304   1.451
37720W        W 9446   2.781   6.503  14.508
37721W        W 9447  37.383  32.588   2.877
37722W        W 9448  25.460  33.975   0.814
37723W        W 9449  20.420   9.139   4.223
37724W        W 9450  26.055   2.887  14.473
37725W        W 9451  16.087  41.149   4.157
37726W        W 9452  11.410  33.943  12.937
37727W        W 9453  29.429  39.521  10.992
37728W        W 9454  44.728  14.594   3.673
37729W        W 9455  30.368  37.154  14.513
37730W        W 9456  26.231  15.241   2.829
37731W        W 9457  44.441  41.586  10.999
37732W        W 9458  31.504  27.074  10.275
37733W        W 9459  31.405  31.064   0.678
37734W        W 9460  18.020  39.951  11.500
37735W        W 9461   5.390  14.374  11.607
37736W        W 9462   0.599  34.030   1.854
37737W        W 9463  15.195   5.700   1.850
37738W        W 9464  14.809  35.908   0.732
37739W        W 9465  25.436  12.265  12.609
37740W        W 9466  21.883  21.342   0.808
37741W        W 9467  37.729  27.216   2.396
37742W        W 9468  20.995  12.783   0.443
37743W        W 9469   5.584  32.552  13.840
37744W        W 9470  30.393   1.591   4.650
37745W        W 9471   7.945  20.221   1.306
37746W        W 9472  11.338  16.079   3.733
37747W        W 9473  30.968  39.565   1.419
37748W        W 9474  19.126   8.616   1.894
37749W        W 9475  39.187  21.211  12.784
37750W        W 9476  21.651  31.665   1.986
37751W        W 9477  36.678   5.935  12.536
37752W        W 9478  27.478  12.122   1.274
37753W        W 9479   2.604   3.059   2.829
37754W        W 9480  13.144   8.798   5.112
37755W        W 9481   6.853  26.631   2.298
37756W        W 9482  19.055  16.947   3.353
37757W        W 9483  16.635  30.333  10.862
37758W        W 9484  35.913  41.753  11.159
37759W        W 9485  13.812  23.723  13.747
37760W        W 9486  34.054  35.937   4.037
37761W        W 9487  19.307  32.833  10.719
37762W        W 9488   8.376  12.002  13.547
37763W        W 9489  29.576  37.483  12.978
37764W        W 9490  29.467  32.198  11.118
37765W        W 9491  28.741   9.572   3.739
37766W        W 9492  23.670  39.096  12.333
37767W        W 9493  25.414  13.298  12.394
37768W        W 9494  30.964   3.466  10.972
37769W        W 9495  32.649  17.842  10.428
37770W        W 9496   0.239   8.732   1.900
37771W        W 9497  10.185   0.406   4.225
37772W        W 9498   1.284  41.901  10.650
37773W        W 9499  42.272  30.497   0.195
37774W        W 9500  13.320   0.292  14.765
37775W        W 9501  12.796  25.972  11.997
37776W        W 9502  38.360   5.764  10.657
37777W        W 9503  27.568  42.545  13.989
37778W        W 9504  17.718  25.699  12.119
37779W        W 9505  31.943  19.378   1.272
37780W        W 9506  43.982  24.473   4.511
37781W        W 9507   5.772  38.424  13.381
37782W        W 9508  34.134  37.635   2.355
37783W        W 9509  43.351  20.713   2.004
37784W        W 9510   2.733  44.577  12.568
37785W        W 9511   2.044  16.984   0.509
37786W        W 9512  10.734  44.342   0.915
37787W        W 9513  34.003  40.339  12.708
37788W        W 9514  14.211   6.358   2.868
37789W        W 9515  17.143  41.592  13.879
37790W        W 9516  33.059  28.959   0.412
37791W        W 9517  31.994  13.702  14.543
37792W        W 9518  39.134   9.192  11.526
37793W        W 9519  16.575  38.922  14.827
37794W        W 9520  24.558  10.701  10.951
37795W        W 9521  20.585  13.525   0.318
37796W        W 9522  19.487  11.616   1.382
37797W        W 9523  32.568  22.698   1.227
37798W        W 9524   6.403  29.831  12.723
37799W        W 9525  25.520  21.084   0.160
37800W        W 9526   6.304  16.352  12.495
37801W        W 9527  14.691  10.285   5.091
37802W        W 9528   9.567  43.547   3.579
37803W        W 9529   8.336  30.841   3.691
37804W        W 9530  21.016  25.192   1.794
37805W        W 9531  36.834  38.556   2.743
37806W        W 9532   0.413   3.871   3.301
37807W        W 9533  22.185  13.584   1.374
37808W        W 9534  42.798  37.897  10.647
37809W        W 9535  42.104  23.253   3.279
37810W        W 9536  35.313  14.234  13.310
37811W        W 9537  33.505  12.749  12.405
37812W        W 9538  37.345  39.834   3.204
37813W        W 9539  31.571   3.861  14.811
37814W        W 9540  12.699  24.089  11.675
37815W        W 9541  14.762  15.196  13.306
37816W        W 9542   2.313   3.272   4.790
37817W        W 9543  31.496   3.561   3.626
37818W        W 9544  26.537  36.189   1.033
37819W        W 9545   1.529   1.681   0.220
37820W        W 9546  43.664   8.876  12.145
37821W        W 9547  32.170   9.809   1.744
37822W        W 9548  42.016   7.001   4.135
37823W        W 9549   7.438  34.491   9.801
37824W        W 9550  13.013  34.553  11.107
37825W        W 9551  26.070  41.784   4.672
37826W        W 9552  41.828  24.953   4.382
37827W        W 9553  33.641  30.860   2.397
37828W        W 9554   5.809  12.386  11.933
37829W        W 9555  29.429  29.982   2.409
37830W        W 9556  10.109  27.323   0.398
37831W        W 9557   6.920  14.373   4.507
37832W        W 9558  32.174  44.774  10.111
37833W        W 9559  19.814  24.952   4.764
37834W        W 9560  40.581  23.749   1.764
37835W        W 9561   6.370  39.433   3.640
37836W        W 9562   2.456  42.088  14.264
37837W        W 9563   4.005  36.825   0.565
37838W        W 9564  34.106   0.525  11.661
37839W        W 9565   7.891  41.036  11.089
37840W        W 9566  35.475  35.003  11.650
37841W        W 9567  16.282  29.444   1.642
37842W        W 9568  16.170  16.046   2.182
37843W        W 9569  38.322  44.844   4.664
37844W        W 9570  19.114  26.414   0.426
37845W        W 9571   2.856  42.497  13.245
37846W        W 9572  43.966  34.501  11.355
37847W        W 9573  31.987  39.574   4.746
37848W        W 9574  41.799  44.335  10.813
37849W        W 9575  24.709  28.485  13.991
37850W        W 9576  22.577   3.930   4.067
37851W        W 9577  43.988  28.969   2.692
37852W        W 9578  30.475  28.125  10.736
37853W        W 9579  20.850   5.166  13.478
37854W        W 9580  24.983  41.831  12.818
37855W        W 9581   3.007  27.835  12.171
37856W        W 9582   4.932  44.885   1.450
37857W        W 9583  25.381  38.750  13.861
37858W        W 9584  28.213  16.151  12.963
37859W        W 9585  16.331  40.276  12.591
37860W        W 9586  22.060   0.614  11.555
37861W        W 9587  29.309  31.452  13.741
37862W        W 9588  41.947  34.896  13.376
37863W        W 9589  20.917  22.671   4.184
37864W        W 9590  10.122  17.733   4.089
37865W        W 9591  15.168  43.808  11.141
37866W        W 9592  23.175  31.156   4.690
37867W        W 9593  30.966  28.644  11.925
37868W        W 9594  28.342  22.743   2.334
37869W        W 9595   5.695  39.241   0.505
37870W        W 9596  35.689   9.625   2.128
37871W        W 9597  16.307   6.031  14.411
37872W        W 9598   8.363   9.511  13.595
37873W        W 9599  38.467   7.940   1.432
37874W        W 9600   5.215  19.147   4.920
37875W        W 9601  37.183  23.227   3.505
37876W        W 9602  41.072  43.710  11.671
37877W        W 9603   8.888  15.217   2.422
37878W        W 9604  41.381  15.798   1.171
37879W        W 9605  31.348   0.196  11.214
37880W        W 9606  21.307  25.604   2.604
37881W        W 9607  33.762  22.726   1.341
37882W        W 9608  14.127   1.323  13.806
37883W        W 9609  27.685  38.622   2.793
37884W        W 9610  34.176  20.554  10.636
37885W        W 9611   1.244  12.181   2.743
37886W        W 9612  26.770  21.399   4.582
37887W        W 9613  17.977  36.006   3.297
37888W        W 9614  30.768  27.439   3.928
37889W        W 9615  19.115  35.569  14.338
37890W        W 9616   4.778   5.851  13.452
37891W        W 9617  30.471  29.055  14.791
37892W        W 9618  35.378  29.141   0.432
37893W        W 9619  12.616  39.048   2.770
37894W        W 9620  44.015  29.516  11.236
37895W        W 9621   5.291  22.876  12.801
37896W        W 9622  39.949  22.620   4.449
37897W        W 9623  40.394   2.678   1.431
37898W        W 9624   4.989  34.965  14.268
37899W        W 9625   2.040  34.336  11.578
37900W        W 9626  32.488  33.852   0.680
37901W        W 9627  32.014   9.373  13.073
37902W        W 9628  19.615  25.999   4.925
37903W        W 9629   2.218   7.477   0.916
37904W        W 9630  33.951  44.409   5.133
37905W        W 9631   8.136  22.710   1.545
37906W        W 9632  23.177  17.749   4.064
37907W        W 9633  20.222  41.555   2.567
37908W        W 9634   8.769  11.576  12.379
37909W        W 9635  31.840   3.343   2.381
37910W        W 9636  19.627  21.525   2.733
37911W        W 9637  14.426  26.448  14.473
37912W        W 9638  42.926  10.226   2.812
37913W        W 9639  26.056  37.290   4.573
37914W        W 9640  17.002  26.054   2.358
37915W        W 9641  37.324  41.043   3.759
37916W        W 9642   7.192   5.728  13.938
37917W        W 9643  22.277  42.861  12.656
37918W        W 9644  15.895  17.066   2.421
37919W        W 9645   5.185  39.853   4.628
37920W        W 9646   3.364   4.428   2.443
37921W        W 9647  36.948  29.319  14.011
37922W        W 9648   4.479  38.020  11.112
37923W        W 9649  22.655  26.092  13.821
37924W        W 9650  21.880  35.941   2.275
37925W        W 9651   5.799  18.185   1.468
37926W        W 9652  44.926   4.161   0.372
37927W        W 9653   1.668  26.192  14.474
37928W        W 9654  18.207   9.246  14.039
37929W        W 9655  22.639  21.307   1.929
37930W        W 9656   4.275  41.060   1.576
37931W        W 9657  26.005  14.560  13.486
37932W        W 9658  20.018  28.451   1.239
37933W        W 9659  38.901   6.950   3.184
37934W        W 9660   1.023  29.853   2.640
37935W        W 9661  22.675  14.564  11.233
37936W        W 9662  29.928  19.925   5.083
37937W        W 9663  31.679  29.286   4.236
37938W        W 9664  36.308   9.951  10.793
37939W        W 9665  43.772   0.415  11.063
37940W        W 9666  17.510  43.496   1.925
37941W        W 9667  31.839   6.140   3.203
37942W        W 9668  17.828  40.342   0.071
37943W        W 9669  34.698   5.198  13.558
37944W        W 9670  27.200  12.368   1.652
37945W        W 9671  23.283   6.449  13.954
37946W        W 9672  22.479  32.503  10.897
37947W        W 9673  37.485  39.258  12.349
37948W        W 9674  31.590  17.200   3.244
37949W        W 9675  40.058  11.925  11.082
37950W        W 9676   7.176  11.544  14.383
37951W        W 9677  23.625   6.238   4.218
37952W        W 9678  24.477  44.757   1.506
37953W        W 9679  22.776  28.600   3.672
37954W        W 9680  36.366   6.469   0.679
37955W        W 9681  41.401  18.695   0.165
37956W        W 9682  29.169  39.927  14.006
37957W        W 9683  40.388  20.577  13.965
37958W        W 9684  29.432  29.893  10.701
37959W        W 9685  36.988  22.902  11.241
37960W        W 9686  18.491  22.341   0.465
37961W        W 9687  39.561  21.202  13.138
37962W        W 9688  37.032  30.739  10.731
37963W        W 9689  19.349   2.414  13.307
37964W        W 9690  33.083  28.137  11.409
37965W        W 9691  19.202  43.209   0.808
37966W        W 9692  22.606  21.078   0.460
37967W        W 9693  24.038  27.485  13.055
37968W        W 9694  33.477  40.067   1.295
37969W        W 9695   8.282  27.977  10.977
37970W        W 9696  19.194  38.567   0.304
37971W        W 9697   5.194  29.571   0.829
37972W        W 9698   0.947  40.457  11.638
37973W        W 9699  21.156  10.113  11.192
37974W        W 9700  26.045   5.666  10.388
37975W        W 9701  41.427   1.498  10.641
37976W        W 9702  13.974  27.792   1.322
37977W        W 9703  13.813  32.808   1.799
37978W        W 9704   5.176   9.730   2.209
37979W        W 9705  41.469   2.278  13.848
37980W        W 9706   4.996   8.816  13.039
37981W        W 9707  20.182  26.440   5.070
37982W        W 9708  13.307   6.127   3.351
37983W        W 9709  16.419   6.062  10.417
37984W        W 9710   6.759  25.550   4.612
37985W        W 9711  34.567  13.109   3.310
37986W        W 9712  26.513  12.066   0.336
37987W        W 9713   6.728   8.953   4.234
37988W        W 9714  26.624   7.442   1.300
37989W        W 9715  21.173  29.103   2.593
37990W        W 9716  43.542   4.699  10.574
37991W        W 9717  29.919  21.555   1.755
37992W        W 9718  34.392  13.677  11.162
37993W        W 9719   7.181  28.371  13.248
37994W        W 9720   2.147  26.418  13.888
37995W        W 9721  39.066  29.654  10.788
37996W        W 9722  18.535  16.586   4.021
37997W        W 9723  22.730   4.409   3.923
37998W        W 9724   9.800   6.325   2.430
37999W        W 9725  15.619  22.775  13.908
38000W        W 9726  18.709   6.415  12.977
38001W        W 9727  37.858  36.482  14.412
38002W        W 9728  37.119   3.432   0.439
38003W        W 9729  35.510  31.162   3.635
38004W        W 9730  36.373  17.871  11.605
38005W        W 9731  10.728   3.870  10.684
38006W        W 9732   4.466  22.426   2.698
38007W        W 9733  35.808  29.083   1.318
38008W        W 9734  12.419  28.091  14.978
38009W        W 9735  35.800  10.092   4.174
38010W        W 9736  33.582  12.811   2.862
38011W        W 9737  12.695  17.587   3.476
38012W        W 9738   2.896  18.979   3.008
38013W        W 9739  15.869  37.818  13.353
38014W        W 9740  32.587  37.069   2.436
38015W        W 9741  32.895  29.995   4.603
38016W        W 9742  39.476  14.748   1.451
38017W        W 9743  21.416  12.903  10.666
38018W        W 9744  12.497  41.462  11.458
38019W        W 9745  21.981   0.094  11.580
38020W        W 9746  23.208  24.490  14.426
38021W        W 9747  31.701   7.440   4.375
38022W        W 9748  25.481  13.878  13.596
38023W        W 9749  37.327  14.836   4.345
38024W        W 9750  18.782  18.871  12.535
38025W        W 9751  39.758  43.800   4.090
38026W        W 9752  23.927  25.745   0.473
38027W        W 9753   7.701  13.546   3.221
38028W        W 9754  18.979  43.388   3.940
38029W        W 9755   4.414   7.666  14.308
38030W        W 9756  25.894  11.031  12.546
38031W        W 9757  15.207  40.818   4.229
38032W        W 9758  16.573  44.040  14.935
38033W        W 9759   6.329   3.306  11.309
38034W        W 9760   9.594  29.697  12.803
38035W        W 9761  37.924   5.847  14.045
38036W        W 9762  19.301  36.049  10.639
38037W        W 9763  20.611  37.574   0.366
38038W        W 9764  28.100  40.563   2.870
38039W        W 9765  41.261  14.124   0.029
38040W        W 9766   5.531  42.330  12.034
38041W        W 9767   3.651  33.377  12.936
38042W        W 9768  34.140  41.487   5.142
38043W        W 9769  25.935  36.431  14.898
38044W        W 9770  27.453   8.822  10.948
38045W        W 9771  15.202   4.236  13.067
38046W        W 9772  15.965  29.779  14.398
38047W        W 9773   6.280   5.207  11.594
38048W        W 9774  27.612  12.076  12.015
38049W        W 9775  20.452  15.354  11.393
38050W        W 9776  13.517  23.546  14.800
38051W        W 9777  44.847  15.762   4.380
38052W        W 9778   6.782  39.977   0.771
38053W        W 9779  30.505  38.876   1.038
38054W        W 9780  42.000  26.445  13.557
38055W        W 9781  20.154  19.554   4.273
38056W        W 9782   9.559  13.589   0.401
38057W        W 9783  10.417   6.304  12.424
38058W        W 9784  44.365   5.130  13.419
38059W        W 9785  21.226  24.087   2.768
38060W        W 9786  20.324  17.653  13.994
38061W        W 9787  12.057   1.027  11.412
38062W        W 9788  33.606  30.122  14.874
38063W        W 9789  26.965  30.731  13.270
38064W        W 9790  43.753  17.602   0.284
38065W        W 9791  19.345  20.110  14.947
38066W        W 9792  13.268  43.802   4.590
38067W        W 9793   2.711  31.877  12.115
38068W        W 9794  27.078  35.618  12.715
38069W        W 9795  22.452  12.659   1.384
38070W        W 9796  11.048  30.074   0.507
38071W        W 9797   0.218   6.908  10.747
38072W        W 9798  34.362  43.000   0.262
38073W        W 9799   4.839  15.232  14.976
38074W        W 9800  37.485  32.978  12.806
38075W        W 9801  42.460  20.178   2.281
38076W        W 9802  26.643  26.219   2.217
38077W        W 9803  11.845  23.415  14.401
38078W        W 9804  15.586  23.485   0.485
38079W        W 9805  21.696  19.654  14.141
38080W        W 9806  29.983  43.807   1.838
38081W        W 9807  28.859  39.571   4.538
38082W        W 9808  22.546  32.745  14.960
38083W        W 9809  32.346  42.507  11.548
38084W        W 9810  39.465  33.400   1.269
38085W        W 9811  42.775  26.659  10.925
38086W        W 9812   4.398  15.799  14.947
38087W        W 9813  33.319  25.769   1.781
38088W        W 9814  32.201   5.604   2.257
38089W        W 9815   9.723   1.414   2.325
38090W        W 9816  35.948   3.192   1.452
38091W        W 9817   3.161  44.358   3.212
38092W        W 9818  32.536  31.340  12.862
38093W        W 9819  33.878  37.887  11.449
38094W        W 9820  17.672   9.785   1.457
38095W        W 9821  44.773  43.457  14.804
38096W        W 9822  20.023  40.516   4.180
38097W        W 9823  35.895   1.976   4.139
38098W        W 9824   7.430  22.358  11.395
38099W        W 9825  40.505  12.692   1.172
38100W        W 9826  18.634  21.225   9.951
38101W        W 9827  24.265  27.160   9.860
38102W        W 9828  31.484  16.068   0.228
38103W        W 9829   9.625  42.704   3.162
38104W        W 9830   7.798  27.591  14.997
38105W        W 9831   5.769  42.347  11.001
38106W        W 9832  26.464  24.519   0.821
38107W        W 9833   8.559   0.983  11.180
38108W        W 9834  17.554  24.527   1.788
38109W        W 9835   6.969  18.640  10.953
38110W        W 9836  13.769  13.394   4.426
38111W        W 9837   4.019  22.633   2.831
38112W        W 9838  12.804  27.207  12.475
38113W        W 9839  16.870   6.865   5.012
38114W        W 9840   7.974  35.977  11.599
38115W        W 9841   7.979   9.948   2.146
38116W        W 9842  12.793  20.268   2.333
38117W        W 9843  42.424  25.640   3.547
38118W        W 9844  42.220  13.058   2.243
38119W        W 9845  21.061  22.304  13.781
38120W        W 9846  27.444  14.156  11.066
38121W        W 9847  35.586  38.137  12.665
38122W        W 9848   4.498  17.188  11.578
38123W        W 9849  10.411  36.065   0.961
38124W        W 9850  30.134  41.052   2.730
38125W        W 9851  39.787  34.125   2.268
38126W        W 9852  17.710  19.590  10.720
38127W        W 9853  41.914  22.243   0.723
38128W        W 9854   9.793  22.454   0.404
38129W        W 9855  31.601  13.580   2.820
38130W        W 9856  13.658  43.960  12.603
38131W        W 9857  38.977  44.462  10.981
38132W        W 9858   5.435  35.447   1.726
38133W        W 9859  44.719   7.414  10.462
38134W        W 9860  31.987  37.419  13.307
38135W        W 9861  44.312   5.470  14.776
38136W        W 9862  25.251   3.834  11.103
38137W        W 9863  42.455   9.847   3.742
38138W        W 9864  32.858  19.815   1.458
38139W        W 9865  19.833  41.293   4.598
38140W        W 9866   0.236   3.199  10.912
38141W        W 9867  44.860  43.011   4.157
38142W        W 9868  11.828  29.064  14.857
38143W        W 9869  40.043  29.892   2.143
38144W        W 9870   0.979   7.722  12.487
38145W        W 9871  14.187   3.875   0.011
38146W        W 9872  18.394  10.736  10.693
38147W        W 9873   2.594  27.541   0.036
38148W        W 9874   8.184   8.787   2.572
38149W        W 9875   1.327  17.257   1.336
38150W        W 9876  28.139   2.246   3.087
38151W        W 9877  25.200   0.968   4.206
38152W        W 9878  12.789  35.038   3.365
38153W        W 9879  19.731  36.504   2.880
38154W        W 9880   3.185  19.738   0.669
38155W        W 9881  24.188  32.100  10.653
38156W        W 9882  19.480  17.205  14.711
38157W        W 9883   9.134  16.714   4.512
38158W        W 9884  43.347  42.846  10.997
38159W        W 9885  35.443   9.854  14.941
38160W        W 9886  13.684  35.053   3.124
38161W        W 9887  44.510  19.304  11.606
38162W        W 9888  40.512  41.029  12.960
38163W        W 9889  10.615   5.452  14.464
38164W        W 9890  36.474   4.832   3.555
38165W        W 9891  18.957  24.482   2.742
38166W        W 9892  30.648  34.583   0.368
38167W        W 9893   1.009  19.051   1.148
38168W        W 9894  16.846  17.707   3.342
38169W        W 9895  22.566  22.764   4.330
38170W        W 9896  44.951  30.632   1.594
38171W        W 9897  32.477  32.530  13.851
38172W        W 9898  12.453   7.804  12.081
38173W        W 9899  41.117  28.894  13.538
38174W        W 9900  31.006  22.802  10.399
38175W        W 9901  16.249   6.036   2.548
38176W        W 9902  41.358  27.452   0.552
38177W        W 9903  41.527  25.763  13.493
38178W        W 9904   6.394  33.361   4.206
38179W        W 9905  40.011  11.233   4.525
38180W        W 9906  10.594   1.303  13.323
38181W        W 9907   5.905   8.356  12.945
38182W        W 9908  30.891  27.044   1.186
38183W        W 9909   9.655  40.335   3.332
38184W        W 9910  44.527  28.514   1.219
38185W        W 9911  41.773   0.006  11.481
38186W        W 9912  23.896  29.346   4.811
38187W        W 9913  15.613  14.776  13.460
38188W        W 9914   5.130  25.070  10.633
38189W        W 9915  17.774  27.279   2.198
38190W        W 9916  42.094  26.555  11.536
38191W        W 9917  41.909  41.520  13.770
38192W        W 9918  26.973  33.912   3.554
38193W        W 9919  24.113  38.973   2.015
38194W        W 9920   4.315  30.436   2.400
38195W        W 9921   3.800  26.397   4.997
38196W        W 9922  10.928  30.937   4.376
38197W        W 9923   6.717  37.122   0.483
38198W        W 9924   4.410  38.979   2.631
38199W        W 9925   3.766  38.357  10.660
38200W        W 9926  35.752   6.779   2.264
38201W        W 9927   1.435  26.083   2.728
38202W        W 9928  20.559  18.795  10.963
38203W        W 9929  42.908  12.047   3.138
38204W        W 9930   1.242   6.808   0.419
38205W        W 9931  11.251  28.496   2.778
38206W        W 9932  16.242  28.171  12.451
38207W        W 9933  37.957  21.074  11.589
38208W        W 9934  20.562   2.641  14.775
38209W        W 9935  30.098  40.345   0.467
38210W        W 9936  41.793   2.853   0.988
38211W        W 9937  12.158  30.116   3.711
38212W        W 9938   4.411  35.894  11.884
38213W        W 9939  43.685  25.461   0.974
38214W        W 9940  38.143  28.149   2.693
38215W        W 9941  12.330  42.973   2.243
38216W        W 9942  12.528  33.614  12.248
38217W        W 9943  33.419  41.721   5.458
38218W        W 9944  10.858   5.780   1.852
38219W        W 9945   1.311   2.372   0.909
38220W        W 9946  26.656  33.946  13.384
38221W        W 9947  22.091   8.494  11.593
38222W        W 9948  17.920  30.476   2.251
38223W        W 9949  15.401  22.310   2.018
38224W        W 9950  23.492   6.909   3.703
38225W        W 9951  17.139  27.004  13.354
38226W        W 9952  27.432  17.467  14.991
38227W        W 9953  12.338  17.357  11.181
38228W        W 9954  21.218  41.434   0.179
38229W        W 9955  26.916  37.032  12.000
38230W        W 9956  29.440   7.233   3.660
38231W        W 9957  37.455  43.731   3.169
38232W        W 9958  22.447  31.591  12.128
38233W        W 9959  42.494   7.258   4.141
38234W        W 9960  14.483  39.535   2.843
38235W        W 9961  33.351  13.389   4.541
38236W        W 9962  37.556   2.890  14.269
38237W        W 9963  19.829  19.960  14.848
38238W        W 9964  14.018   2.353   1.229
38239W        W 9965  44.794  23.336   1.461
38240W        W 9966  11.641  29.192  10.271
38241W        W 9967  34.418   1.373   4.634
38242W        W 9968  21.247   6.316  10.645
38243W        W 9969   5.519   7.097   2.396
38244W        W 9970   4.613  23.072  11.698
38245W        W 9971   4.343  40.981   4.195
38246W        W 9972   3.737  26.595  11.631
38247W        W 9973  37.025  16.878   0.821
38248W        W 9974  25.149   8.325  14.249
38249W        W 9975   1.744  36.395  13.834
38250W        W 9976  33.368  32.070  14.186
38251W        W 9977  11.873  42.884   3.270
38252W        W 9978   3.218   7.684  11.216
38253W        W 9979  15.572  15.064   0.270
38254W        W 9980  13.071  21.333  11.112
38255W        W 9981  14.286   5.893  12.137
38256W        W 9982  20.275  25.169   4.591
38257W        W 9983  24.244   4.001   2.221
38258W        W 9984  28.997  39.679   2.168
38259W        W 9985  18.725  10.822  12.009
38260W        W 9986  36.304   4.639   1.243
38261W        W 9987  26.406  26.012   4.591
38262W        W 9988  17.728  20.703   4.385
38263W        W 9989   3.831  12.265  14.410
38264W        W 9990  10.823  29.391   2.624
38265W        W 9991   9.263  17.721  11.437
38266W        W 9992   7.801  18.830   0.449
38267W        W 9993  43.127  22.180   2.438
38268W        W 9994  19.761  25.047   3.834
38269W        W 9995  38.966  25.487   0.366
38270W        W 9996   5.234  40.254   1.685
38271W        W 9997  30.572  43.440  10.272
38272W        W 9998  12.349  44.054  12.670
38273W        W 9999  10.452  27.038   0.745
38274W        W10000  31.190  41.501  13.492
38275W        W10001  16.591  12.137   4.222
38276W        W10002  35.976  39.093  11.547
38277W        W10003  19.815  22.231   2.009
38278W        W10004  24.487  44.266  13.032
38279W        W10005  28.445  32.133   4.635
38280W        W10006  36.925  13.811  14.621
38281W        W10007  14.552  30.625  11.887
38282W        W10008  38.567  43.698   1.992
38283W        W10009   8.282  34.638  10.340
38284W        W10010  35.422  41.030  11.093
38285W        W10011  17.177  13.826  12.455
38286W        W10012   7.605  30.039  12.001
38287W        W10013   7.705   2.852  11.965
38288W        W10014  19.954  21.921  12.028
38289W        W10015   5.432  29.860   2.349
38290W        W10016  44.774  43.989  10.016
38291W        W10017  28.538   8.552   2.068
38292W        W10018  35.648   6.484   4.544
38293W        W10019  44.273  13.164  11.060
38294W        W10020  18.266   7.353  10.524
38295W        W10021   6.631   9.774   4.962
38296W        W10022  11.287  18.188   1.906
38297W        W10023  22.345  35.478   2.016
38298W        W10024  14.773   9.386  13.329
38299W        W10025  39.810  15.315   0.445
38300W        W10026  13.030  25.147  10.800
38301W        W10027   1.454  18.259   1.495
38302W        W10028  34.202  28.978  14.492
38303W        W10029  10.558  12.736   4.098
38304W        W10030  30.974   4.221   0.456
38305W        W10031   1.684   0.243   0.890
38306W        W10032  10.909  23.462  11.066
38307W        W10033   7.900  40.843   0.341
38308W        W10034  10.514  21.575   0.464
38309W        W10035   7.648  27.064  13.531
38310W        W10036  37.412  21.829   2.790
38311W        W10037  23.184   0.861  13.808
38312W        W10038   7.724   8.928   2.753
38313W        W10039  36.587  33.748  14.767
38314W        W10040  26.173  19.594  14.842
38315W        W10041  20.998  18.038   3.846
38316W        W10042  34.898  37.762  12.345
38317W        W10043  26.536   8.855   0.743
38318W        W10044   2.762  23.317   3.233
38319W        W10045   8.000   2.451   2.753
38320W        W10046  14.718   2.740  11.125
38321W        W10047  19.667   2.190  14.766
38322W        W10048  41.874  35.070   1.296
38323W        W10049  12.638   7.816   0.001
38324W        W10050  27.121  26.999  12.439
38325W        W10051  19.873  34.438   2.672
38326W        W10052  13.547  18.118   2.208
38327W        W10053  32.114  29.628  12.217
38328W        W10054  28.919  32.010   2.113
38329W        W10055  36.559  36.117  14.831
38330W        W10056  37.127   0.801   4.671
38331W        W10057   6.117  27.435  13.532
38332W        W10058  19.651  31.553   3.602
38333W        W10059  38.118  35.472   3.395
38334W        W10060  15.120  21.096   1.485
38335W        W10061  31.865  12.225   0.423
38336W        W10062   6.340   0.786  11.157
38337W        W10063  38.428  29.419  11.693
38338W        W10064  44.473  44.027   1.857
38339W        W10065  29.977  11.949   2.271
38340W        W10066   0.278  32.999   4.493
38341W        W10067  44.344  16.146   1.899
38342W        W10068  31.995  35.599  11.981
38343W        W10069  35.103  44.277   2.822
38344W        W10070  34.689   3.764   1.820
38345W        W10071  12.620  18.144  14.050
38346W        W10072   4.446  40.546   3.425
38347W        W10073   9.555   2.893   4.958
38348W        W10074  22.974   2.701  12.538
38349W        W10075  10.734  43.245   0.854
38350W        W10076  22.417  35.458   2.761
38351W        W10077   6.635   6.548   4.226
38352W        W10078  42.528  44.504   4.520
38353W        W10079  15.185  30.156  13.038
38354W        W10080  12.674  29.217   0.397
38355W        W10081  14.578  22.651   4.672
38356W        W10082  19.622  38.467   0.989
38357W        W10083  19.816  39.453  10.802
38358W        W10084  43.446  34.766   4.541
38359W        W10085   4.418  28.315   3.238
38360W        W10086   0.901   1.651  10.754
38361W        W10087  20.546  23.051  10.970
38362W        W10088  33.192   6.897   1.493
38363W        W10089  27.867   4.252   3.777
38364W        W10090  33.551   9.889  13.067
38365W        W10091   5.852  44.151   3.420
38366W        W10092  30.282  11.047  10.609
38367W        W10093  41.310  12.805   4.494
38368W        W10094   1.977  25.150  13.614
38369W        W10095  29.412   5.448   0.373
38370W        W10096  28.180  35.167  10.146
38371W        W10097   9.325  16.272  13.018
38372W        W10098  13.408  13.910  12.182
38373W        W10099  26.615   7.668   3.379
38374W        W10100  25.194  35.804   1.266
38375W        W10101  40.432  39.598  14.676
38376W        W10102  22.577  33.060   0.369
38377W        W10103  39.258  32.984  13.281
38378W        W10104   2.147  16.190   0.509
38379W        W10105  31.738  19.299   3.357
38380W        W10106  10.688  42.321   1.890
38381W        W10107   8.431   2.007  13.108
38382W        W10108  21.769  10.391  13.576
38383W        W10109  43.960  22.909   0.490
38384W        W10110  27.408  25.870   3.734
38385W        W10111   5.911  39.845  14.402
38386W        W10112  11.271   2.471  11.170
38387W        W10113  26.624  41.222   4.486
38388W        W10114  40.863  18.973   1.584
38389W        W10115  40.581  15.540   5.011
38390W        W10116  17.352   1.850   3.241
38391W        W10117  25.754  29.870  11.061
38392W        W10118  40.626  27.132  11.203
38393W        W10119  28.252   9.848  12.422
38394W        W10120  37.937   3.210  11.996
38395W        W10121  30.557   7.703  14.327
38396W        W10122  26.224  44.041   3.600
38397W        W10123   0.325   1.536   4.582
38398W        W10124  12.767  43.302   4.775
38399W        W10125  28.424   4.796  11.833
38400W        W10126  39.378  29.634  12.112
38401W        W10127  36.564  19.526  10.207
38402W        W10128  31.530  17.753  14.473
38403W        W10129  34.777  26.432  14.787
38404W        W10130  29.487  20.471   2.764
38405W        W10131  43.590  29.208  11.220
38406W        W10132  13.731  33.044  10.780
38407W        W10133  14.243  23.638   3.432
38408W        W10134  11.658   0.301  14.474
38409W        W10135  16.215  36.566   3.389
38410W        W10136  37.038  14.550   1.283
38411W        W10137   8.870  29.635  12.021
38412W        W10138  29.573  31.187   3.616
38413W        W10139  38.381  27.436   4.273
38414W        W10140  26.971  33.339   2.199
38415W        W10141  10.217   0.799   1.636
38416W        W10142   6.738  44.779   1.478
38417W        W10143   4.007  44.878   0.503
38418W        W10144  10.118   5.765   1.265
38419W        W10145   5.455   2.931   3.237
38420W        W10146  20.229   2.465  11.974
38421W        W10147  11.570  29.913   1.266
38422W        W10148  44.410  38.547  12.585
38423W        W10149  39.788  38.836  14.989
38424W        W10150  40.374  16.292   3.801
38425W        W10151  26.125  25.632   4.299
38426W        W10152  42.876  17.127   1.300
38427W        W10153  13.755  25.503  11.271
38428W        W10154  10.140  41.633   0.083
38429W        W10155  32.745   7.336  13.830
38430W        W10156  25.693  36.517  11.637
38431W        W10157  31.011  34.440   0.694
38432W        W10158  43.912   2.396   4.897
38433W        W10159  27.208  16.651  13.611
38434W        W10160  37.302  12.302   2.775
38435W        W10161   6.830  28.688  14.883
38436W        W10162  42.025  29.944  13.027
38437W        W10163  22.640  37.839   4.542
38438W        W10164  27.653  14.773  14.876
38439W        W10165  13.394  33.359  12.866
38440W        W10166   6.161  10.229  11.657
38441W        W10167  10.389   6.688   1.335
38442W        W10168   2.995  19.589  13.818
38443W        W10169  44.718  24.003  13.900
38444W        W10170   7.963  23.988   5.397
38445W        W10171  38.488  20.220  14.662
38446W        W10172   3.817  13.404  13.323
38447W        W10173  30.585  17.580   3.715
38448W        W10174  11.101  16.265   0.905
38449W        W10175  21.771   4.941  14.522
38450W        W10176  19.486  28.514   2.329
38451W        W10177  10.799  44.091   0.299
38452W        W10178  28.547  29.531   4.261
38453W        W10179  36.589  21.480  13.346
38454W        W10180  16.610  44.210  10.715
38455W        W10181  11.128  28.203   3.602
38456W        W10182  37.815   5.803   2.395
38457W        W10183  13.882  33.047  11.274
38458W        W10184  17.762  27.265  14.536
38459W        W10185  31.571   8.261   2.815
38460W        W10186  35.428  32.102   1.267
38461W        W10187  17.510  35.448  10.965
38462W        W10188  23.322   3.525   4.445
38463W        W10189  39.031   8.415  13.400
38464W        W10190  21.877  24.018   1.311
38465W        W10191  22.932  31.490  12.236
38466W        W10192  29.430   3.480   0.734
38467W        W10193  10.129   7.491  13.799
38468W        W10194  19.510  27.419  14.742
38469W        W10195  16.239  30.516   0.265
38470W        W10196  27.241  21.136  13.788
38471W        W10197  41.943  30.389   2.105
38472W        W10198   8.762  28.464   1.687
38473W        W10199  41.593  35.088   1.734
38474W        W10200  30.122  43.089   2.803
38475W        W10201  23.817  31.022  13.579
38476W        W10202  31.697  44.817  12.410
38477W        W10203  33.632  40.987   1.492
38478W        W10204  12.087  19.598  13.772
38479W        W10205   9.872  41.936   2.336
38480W        W10206  40.969   7.019   4.127
38481W        W10207  33.977  33.796  10.991
38482W        W10208   8.879  38.489   0.122
38483W        W10209  15.055  43.026   1.105
38484W        W10210  39.563  28.282   4.614
38485W        W10211   0.043   3.279  12.241
38486W        W10212  44.192  16.591   2.860
38487W        W10213  25.598  28.653  14.136
38488W        W10214  10.822   8.342   4.917
38489W        W10215   3.992  23.216   0.361
38490W        W10216  16.131  19.338  14.031
38491W        W10217  43.941  18.100   3.546
38492W        W10218  11.580  27.596   1.366
38493W        W10219  12.426   4.973  12.553
38494W        W10220  15.833  42.555   3.994
38495W        W10221  37.878  32.035  14.544
38496W        W10222  12.108  42.027  12.364
38497W        W10223   0.033  25.691   1.517
38498W        W10224   5.272  11.667  14.466
38499W        W10225  33.148  31.517   4.102
38500W        W10226  26.855  12.637   1.938
38501W        W10227  27.396   1.469   2.806
38502W        W10228  16.427  10.314   0.035
38503W        W10229  43.658  40.412  12.421
38504W        W10230   9.922   0.513   3.789
38505W        W10231  13.368   7.433  11.117
38506W        W10232  25.896  39.867  14.884
38507W        W10233  29.043   7.862  14.501
38508W        W10234  35.517  30.564  11.467
38509W        W10235  11.781  33.980  13.702
38510W        W10236  26.810  14.561   1.935
38511W        W10237  28.174  18.160  14.448
38512W        W10238  30.537   2.395  13.389
38513W        W10239  19.068  34.861  13.903
38514W        W10240  41.346  23.013   3.769
38515W        W10241  32.061  12.170   4.569
38516W        W10242  31.118   5.695  12.613
38517W        W10243  44.891  32.350  11.534
38518W        W10244   0.557   9.675   2.178
38519W        W10245  16.533  41.558   1.503
38520W        W10246  20.690   0.444  11.836
38521W        W10247   0.762  36.760   4.261
38522W        W10248   7.794  27.387   1.404
38523W        W10249  43.293  36.153  13.981
38524W        W10250  32.113  22.752   2.210
38525W        W10251  42.319   1.762  13.160
38526W        W10252  40.806  30.675   2.237
38527W        W10253  44.366   6.368  14.619
38528W        W10254   0.156  21.895   1.445
38529W        W10255  36.918  42.466   3.709
38530W        W10256  30.892  32.607   4.153
38531W        W10257  29.687  12.396   0.299
38532W        W10258  30.803  37.037   4.822
38533W        W10259  40.136   8.882  12.960
38534W        W10260  35.498  41.805   0.805
38535W        W10261  30.597  14.237  14.476
38536W        W10262  21.044   0.539  11.078
38537W        W10263  26.915  33.427  13.832
38538W        W10264  20.435   5.413  12.049
38539W        W10265  10.403  23.232  14.389
38540W        W10266  11.614  37.350  12.609
38541W        W10267  31.394   9.088   1.767
38542W        W10268  40.318  32.890   0.297
38543W        W10269  19.715  10.856   1.865
38544W        W10270  27.164  30.983   0.774
38545W        W10271   1.670  20.027  14.845
38546W        W10272  16.885  16.555   1.719
38547W        W10273  15.885  12.565  12.429
38548W        W10274  11.108  25.422  10.542
38549W        W10275  27.099   1.288  12.385
38550W        W10276  14.162  15.095   2.522
38551W        W10277  11.156  23.239  11.678
38552W        W10278  26.152  26.093   4.050
38553W        W10279  20.213   6.743   3.901
38554W        W10280  29.221  10.790  10.821
38555W        W10281   9.122  38.789  11.507
38556W        W10282  20.511   8.684  13.937
38557W        W10283  33.068  22.261   4.180
38558W        W10284   3.290  34.903   3.582
38559W        W10285  13.510   8.776  12.895
38560W        W10286  33.222   8.802  11.121
38561W        W10287  41.013  36.033  13.534
38562W        W10288  38.500  33.778  14.078
38563W        W10289  42.846  26.587  12.561
38564W        W10290  17.275  20.780  13.069
38565W        W10291  34.944  30.019  13.123
38566W        W10292   4.897  14.671  12.338
38567W        W10293   3.344   2.822   1.593
38568W        W10294  41.023  39.226  11.083
38569W        W10295  19.694  24.262   2.652
38570W        W10296  20.563  13.645   3.530
38571W        W10297  29.957  18.992  11.582
38572W        W10298  41.628  40.309   2.889
38573W        W10299  43.975  23.161  13.951
38574W        W10300  21.740  27.509   1.060
38575W        W10301   3.828   4.420   4.132
38576W        W10302   4.655  31.214   1.820
38577W        W10303  37.910   6.680   1.366
38578W        W10304   2.429  29.784   2.217
38579W        W10305  16.604  24.683   3.756
38580W        W10306  36.402   1.991   3.256
38581W        W10307  33.967  43.328  10.615
38582W        W10308  25.646  13.490  11.995
38583W        W10309  18.630  26.360  10.181
38584W        W10310  38.204   3.247  12.496
38585W        W10311  29.409   6.934  14.896
38586W        W10312  40.337  24.727   0.742
38587W        W10313   2.979  17.932   0.762
38588W        W10314  19.544  37.558   1.403
38589W        W10315  23.125   3.556  12.964
38590W        W10316  19.551  24.544   3.849
38591W        W10317  15.891  36.189   4.149
38592W        W10318  31.583  12.289   0.859
38593W        W10319   8.580  33.146   0.330
38594W        W10320   2.856  12.850  11.178
38595W        W10321  21.092  19.026  13.998
38596W        W10322  12.338   6.796  11.931
38597W        W10323  26.511  36.362  12.101
38598W        W10324  36.491  40.767   3.261
38599W        W10325  18.591  33.706  14.415
38600W        W10326  10.592  41.397   1.779
38601W        W10327   4.535   9.322   3.253
38602W        W10328  15.882   5.741   1.318
38603W        W10329  10.184  34.113  10.655
38604W        W10330  36.151  35.890   1.869
38605W        W10331  14.754  26.933   1.672
38606W        W10332  27.711  23.836  11.671
38607W        W10333  32.941  36.017   3.713
38608W        W10334  24.829  37.979   0.861
38609W        W10335   5.353  33.903   1.854
38610W        W10336  24.092   4.354   4.187
38611W        W10337   2.350   7.674  10.696
38612W        W10338  43.366   2.022   0.460
38613W        W10339   7.404  21.620  14.501
38614W        W10340  31.346  30.698   4.175
38615W        W10341  31.546   8.437   4.195
38616W        W10342  17.054  35.670  11.101
38617W        W10343  30.291  39.772   2.257
38618W        W10344  44.235  30.101   4.129
38619W        W10345  13.587  22.290   1.716
38620W        W10346  19.246  34.518  14.277
38621W        W10347   5.245  41.869   3.442
38622W        W10348   9.390   4.212  12.030
38623W        W10349  40.053  35.949   0.880
38624W        W10350   1.112  10.840  14.231
38625W        W10351  23.132   7.224   0.884
38626W        W10352  10.788  28.241   0.389
38627W        W10353   2.863   6.276   1.936
38628W        W10354  18.048  13.885  14.577
38629W        W10355  16.515  36.940   0.819
38630W        W10356  30.008  38.102   3.000
38631W        W10357  32.128  32.943   2.645
38632W        W10358  39.229  20.163   0.896
38633W        W10359  17.813  19.540  14.464
38634W        W10360  38.016  28.125  12.911
38635W        W10361   8.074  42.433  14.479
38636W        W10362  18.196  18.359   0.000
38637W        W10363  37.592  35.538  13.932
38638W        W10364   7.274  12.326   2.066
38639W        W10365   7.740  40.033  14.320
38640W        W10366  30.459   5.416  12.949
38641W        W10367  32.366  41.963  11.485
38642W        W10368  15.610  18.620  14.354
38643W        W10369   3.312  10.169   2.945
38644W        W10370   6.323  16.859  12.431
38645W        W10371   9.733   4.003   3.035
38646W        W10372  37.361   2.025   2.755
38647W        W10373   9.702  37.265  13.330
38648W        W10374  26.268  15.094   3.943
38649W        W10375  16.608   6.871   2.306
38650W        W10376  39.289   1.413  11.086
38651W        W10377  18.441  41.929   2.384
38652W        W10378  32.000  43.920   1.643
38653W        W10379   4.234   6.982   4.996
38654W        W10380  29.000  31.329   4.597
38655W        W10381  38.768   8.845   3.159
38656W        W10382   1.818  41.321   0.356
38657W        W10383  11.869   9.292   0.691
38658W        W10384  32.128  29.344  14.433
38659W        W10385  17.804  23.548  10.725
38660W        W10386  34.183  19.242  11.845
38661W        W10387  11.905  13.701  11.183
38662W        W10388  35.401  35.688   1.141
38663W        W10389  20.275  10.786   3.591
38664W        W10390  33.810  31.937   1.732
38665W        W10391  15.671   3.770   2.681
38666W        W10392   9.317   6.198  11.582
38667W        W10393  42.853  43.490  13.060
38668W        W10394  16.442  31.019   1.451
38669W        W10395  33.507  16.090  11.151
38670W        W10396  43.008  33.482  10.626
38671W        W10397   3.865  16.982  13.995
38672W        W10398  44.238  25.654  13.476
38673W        W10399  36.513  21.309   1.420
38674W        W10400   7.811  26.626  14.858
38675W        W10401   8.461  34.380  14.920
38676W        W10402  17.347   6.056  14.185
38677W        W10403  38.471   6.201  11.487
38678W        W10404  41.401   0.460   1.603
38679W        W10405  42.839  35.946  13.806
38680W        W10406  38.466  17.660   0.079
38681W        W10407  44.368  39.952  12.439
38682W        W10408  33.091  28.470   0.193
38683W        W10409  27.687  31.859  12.971
38684W        W10410  38.531   6.096  11.004
38685W        W10411  14.207  31.617   1.450
38686W        W10412  15.099  10.764   3.230
38687W        W10413  22.432  44.859   3.786
38688W        W10414  11.663  28.994  10.746
38689W        W10415  10.435   4.429   0.986
38690W        W10416   5.085  20.157   4.344
38691W        W10417  20.115   7.823   4.757
38692W        W10418  32.980  44.830   4.073
38693W        W10419  34.377  21.470   2.502
38694W        W10420  36.957  33.066  11.637
38695W        W10421  44.362   6.468   0.141
38696W        W10422  21.524  33.449   0.893
38697W        W10423  14.588  25.528   1.440
38698W        W10424  26.171   0.296  14.517
38699W        W10425   4.417  44.512   2.892
38700W        W10426  31.990  15.196  14.042
38701W        W10427  31.135  27.341  12.344
38702W        W10428  39.869  10.644  12.089
38703W        W10429  27.180   6.303   1.716
38704W        W10430  13.769  41.434  13.902
38705W        W10431  34.433  28.462  14.439
38706W        W10432  27.282  42.692  14.814
38707W        W10433  35.561  24.886   4.155
38708W        W10434   5.388   0.355   2.100
38709W        W10435   9.140  34.929  10.655
38710W        W10436   9.171  11.380  14.799
38711W        W10437  10.610   3.389   1.280
38712W        W10438  40.628  38.569  14.472
38713W        W10439   4.885  42.396   3.730
38714W        W10440  17.575  25.034   2.841
38715W        W10441  41.292  35.838   1.426
38716W        W10442  34.428  32.958   4.865
38717W        W10443  23.594  44.333   4.240
38718W        W10444  25.146  18.296  14.524
38719W        W10445  17.096  17.668   0.040
38720W        W10446   9.632  20.107  12.925
38721W        W10447  41.986  40.064  14.789
38722W        W10448  42.328  11.811  14.978
38723W        W10449  39.495   3.152  14.197
38724W        W10450  43.497  39.351   2.614
38725W        W10451  36.513  11.891   0.890
38726W        W10452  36.194  24.655  13.116
38727W        W10453  23.736   3.291  14.189
38728W        W10454  30.827   7.663   4.513
38729W        W10455  21.247  20.100  13.760
38730W        W10456  28.722  44.019  14.917
38731W        W10457  23.394   6.937  12.488
38732W        W10458  10.699  34.111   5.429
38733W        W10459   0.249  30.872   2.607
38734W        W10460  20.130  31.843   4.074
38735W        W10461   3.340  32.895   4.025
38736W        W10462  31.168  34.830   2.899
38737W        W10463  36.376  32.484   3.010
38738W        W10464  21.720  21.654  12.829
38739W        W10465  30.472   4.333  13.408
38740W        W10466   5.350   1.785  11.765
38741W        W10467  10.416  35.041   0.994
38742W        W10468  38.171  43.750  12.999
38743W        W10469   3.041  42.384  11.779
38744W        W10470  26.992  42.817   4.066
38745W        W10471  35.837   2.434  13.986
38746W        W10472  26.086  18.052  11.627
38747W        W10473  24.203  12.171  14.438
38748W        W10474   9.211  11.112  13.919
38749W        W10475  18.942   0.854  13.987
38750W        W10476   9.468  13.352  12.551
38751W        W10477  13.831   8.345  13.938
38752W        W10478  24.439  24.672   2.689
38753W        W10479  36.266  14.637   4.456
38754W        W10480  32.379  37.291   3.319
38755W        W10481  16.517  31.966   3.787
38756W        W10482  35.653  12.223   3.361
38757W        W10483  16.550  39.060  11.192
38758W        W10484  12.061   5.610   3.026
38759W        W10485  27.263   9.725   3.695
38760W        W10486  12.655  12.314   1.910
38761W        W10487  29.531  22.539   4.567
38762W        W10488   5.367  13.288  10.628
38763W        W10489  38.069  10.916   4.889
38764W        W10490  34.527  22.172   3.295
38765W        W10491  16.527  43.372   3.296
38766W        W10492  13.351  26.783   0.914
38767W        W10493   4.228  33.519  13.812
38768W        W10494   0.467  36.380   3.400
38769W        W10495  44.965  25.336   1.873
38770W        W10496  30.629   8.390   1.500
38771W        W10497  40.254  32.026  13.497
38772W        W10498  19.097  42.484   1.457
38773W        W10499   7.840  23.019  12.564
38774W        W10500  22.540  19.450  13.927
38775W        W10501  22.309   4.835  13.453
38776W        W10502  40.587  12.456   5.089
38777W        W10503  44.269   9.862   0.274
38778W        W10504   5.011  24.777   4.136
38779W        W10505  13.362   3.280   3.870
38780W        W10506  11.239  43.028   0.731
38781W        W10507   1.548  22.138  12.069
38782W        W10508  10.765   8.134  14.831
38783W        W10509  43.976  23.055   4.273
38784W        W10510  33.934  42.418  10.702
38785W        W10511  29.067  17.591   2.154
38786W        W10512   9.959  25.030  12.415
38787W        W10513  29.051  25.649  12.137
38788W        W10514  19.081  41.459  11.192
38789W        W10515  11.726  25.962   2.903
38790W        W10516   8.732   9.802   0.980
38791W        W10517  41.347   6.722   1.802
38792W        W10518  34.968   2.308   0.176
38793W        W10519  33.666  10.796  13.380
38794W        W10520  39.133  13.247   2.226
38795W        W10521  11.621   7.825  13.994
38796W        W10522  13.587  13.650   3.239
38797W        W10523  39.642  29.701  13.790
38798W        W10524  14.387  44.046   0.374
38799W        W10525   9.151  10.050  12.789
38800W        W10526  12.445  40.463  13.196
38801W        W10527  13.557   1.317   0.437
38802W        W10528  42.291  29.246  14.044
38803W        W10529  43.976  12.450   2.255
38804W        W10530   6.781   6.788   2.894
38805W        W10531  14.605  38.876   5.147
38806W        W10532  30.949   0.809  11.860
38807W        W10533  37.043   0.974  10.610
38808W        W10534  24.114  44.502  14.491
38809W        W10535   6.183   5.522  12.889
38810W        W10536  34.417  11.275   1.536
38811W        W10537  14.547  30.423   5.012
38812W        W10538   1.832  30.894   4.759
38813W        W10539  14.096  12.770  11.019
38814W        W10540   7.227  38.127   3.790
38815W        W10541  29.471  40.075  11.955
38816W        W10542  20.327   6.356  13.778
38817W        W10543  29.036  43.924  11.678
38818W        W10544  16.654  23.332  14.061
38819W        W10545  37.054  14.783   2.967
38820W        W10546  23.585   7.626  13.364
38821W        W10547   0.462  34.952   3.833
38822W        W10548  12.170  12.737   0.389
38823W        W10549  12.742  41.891   0.589
38824W        W10550  41.768   8.830  13.974
38825W        W10551  29.655  36.302   0.386
38826W        W10552  34.243  16.097  11.412
38827W        W10553  23.926  22.802  10.119
38828W        W10554  24.180  33.534   0.088
38829W        W10555  43.303   9.795  11.440
38830W        W10556  41.100  39.984   2.228
38831W        W10557  22.517  41.688  12.730
38832W        W10558  32.802   1.682   3.262
38833W        W10559  25.543   1.387   1.350
38834W        W10560  19.374  28.164   1.952
38835W        W10561  19.216   4.499   4.091
38836W        W10562  32.942  40.453  13.922
38837W        W10563  43.242  13.367  13.579
38838W        W10564  15.551  30.564   0.875
38839W        W10565  41.014  31.403   4.481
38840W        W10566  14.177  38.432  13.732
38841W        W10567  26.148  40.628   2.958
38842W        W10568  39.568  10.718   4.298
38843W        W10569  12.726  22.146  12.473
38844W        W10570   4.903  18.836   3.271
38845W        W10571  25.791   2.901  10.863
38846W        W10572  43.946  18.699   1.794
38847W        W10573  12.108   1.771   4.420
38848W        W10574  38.098   6.245   2.255
38849W        W10575  20.760   3.729  12.479
38850W        W10576   1.188  18.348  10.680
38851W        W10577  21.432   9.203  11.305
38852W        W10578   3.366  35.990   0.895
38853W        W10579  17.267  22.630  14.394
38854W        W10580  22.996  13.298  13.437
38855W        W10581  39.373  42.768   3.025
38856W        W10582  14.216   3.246  10.989
38857W        W10583   4.652  44.798  12.603
38858W        W10584  32.128   6.339   0.372
38859W        W10585  31.725   6.800   1.673
38860W        W10586  15.801  26.003  10.583
38861W        W10587  24.996  42.463  13.999
38862W        W10588  28.437  43.729  10.665
38863W        W10589  40.335  29.937   1.699
38864W        W10590  20.115  41.195   2.203
38865W        W10591  21.438  17.218   3.535
38866W        W10592  20.751  34.407   2.326
38867W        W10593  15.818   2.516  14.466
38868W        W10594  40.572  31.601   1.786
38869W        W10595  43.880  15.218  14.417
38870W        W10596   0.955  35.981   4.628
38871W        W10597  39.913  44.661  14.519
38872W        W10598  38.646  22.647  14.884
38873W        W10599   1.163  12.139  13.291
38874W        W10600   4.694  16.567  12.060
38875W        W10601  11.380   1.697   3.308
38876W        W10602  32.930  21.974   2.628
38877W        W10603  26.360  17.162  10.583
38878W        W10604   7.238  31.403  13.605
38879W        W10605  35.119   1.198  14.281
38880W        W10606  34.859  32.439  12.933
38881W        W10607  23.115  15.625   2.291
38882W        W10608  28.154  17.043  10.713
38883W        W10609   7.169  43.377   1.812
38884W        W10610  12.086   5.856   3.647
38885W        W10611  21.494   0.492  10.824
38886W        W10612   2.381  39.224   0.053
38887W        W10613  38.906   5.367   4.097
38888W        W10614  31.892  18.790   3.594
38889W        W10615   8.433   7.403   0.782
38890W        W10616  33.017  35.173   1.765
38891W        W10617  37.615  16.695  13.100
38892W        W10618  16.122  12.285  14.331
38893W        W10619  10.132  40.866   2.654
38894W        W10620  25.789   3.324  13.148
38895W        W10621  11.595  44.870   4.132
38896W        W10622  28.272  19.698  13.985
38897W        W10623  42.653  13.219  14.845
38898W        W10624  20.627  17.257  13.387
38899W        W10625  15.366  22.758  14.818
38900W        W10626  12.835   7.868  11.730
38901W        W10627  20.648   9.612   0.753
38902W        W10628  11.205  25.588  12.841
38903W        W10629  40.896  12.834  14.797
38904W        W10630  25.564   5.723   4.073
38905W        W10631  33.015  21.833  12.549
38906W        W10632  14.589   0.199  13.044
38907W        W10633  30.457  14.929   4.892
38908W        W10634   4.442  33.588   4.224
38909W        W10635  41.539  23.647   4.556
38910W        W10636  40.084  18.967   4.228
38911W        W10637  32.605  36.231   0.753
38912W        W10638   3.448  36.314  11.748
38913W        W10639  37.303  32.612  11.954
38914W        W10640  31.085   5.449   1.611
38915W        W10641  31.857  37.237  11.428
38916W        W10642  24.127  42.791  14.478
38917W        W10643  23.178  20.792  14.788
38918W        W10644  32.626  27.036   2.278
38919W        W10645  30.891  38.543   1.120
38920W        W10646   7.044  31.304   4.925
38921W        W10647   5.363  35.264  13.333
38922W        W10648   9.594   1.472  12.483
38923W        W10649   1.872   6.154  11.540
38924W        W10650  11.574  41.454  14.801
38925W        W10651  29.675   1.689   2.192
38926W        W10652  24.654  28.312  12.529
38927W        W10653  31.886  20.392   1.288
38928W        W10654  29.133  41.560  12.463
38929W        W10655  29.100   7.257  13.636
38930W        W10656  35.355  13.211   0.869
38931W        W10657  14.524  24.057  14.502
38932W        W10658  27.148  43.179  14.864
38933W        W10659  27.815  43.327   3.176
38934W        W10660  29.488  20.223  11.322
38935W        W10661  14.795  31.000  12.162
38936W        W10662   6.799  41.570  12.154
38937W        W10663   7.188  27.933   3.989
38938W        W10664   9.643  36.318   4.552
38939W        W10665  26.233  12.160  13.292
38940W        W10666  27.453  32.836  11.032
38941W        W10667  34.895  10.472  12.505
38942W        W10668  24.544   1.246  11.198
38943W        W10669   8.904  41.791   1.310
38944W        W10670   7.205  23.588  12.033
38945W        W10671  44.142  24.943   2.400
38946W        W10672   6.899  36.300   3.930
38947W        W10673  15.717  20.523   3.649
38948W        W10674  27.459  27.613  12.969
38949W        W10675   1.080  15.802   4.301
38950W        W10676   1.294  28.403   1.801
38951W        W10677   1.746  14.925  10.994
38952W        W10678   4.647  18.767  14.446
38953W        W10679  36.546  10.977  13.846
38954W        W10680  22.653  27.947  11.276
38955W        W10681   8.603  40.845   1.352
38956W        W10682   8.173  26.650  14.036
38957W        W10683  15.887  35.585  11.546
38958W        W10684   4.507  24.113  11.483
38959W        W10685  34.039  39.043   4.585
38960W        W10686  34.616  10.672  13.777
38961W        W10687  33.338  21.073  14.255
38962W        W10688  20.101  23.338   4.048
38963W        W10689  13.574  27.299   5.030
38964W        W10690  15.508   4.221  12.552
38965W        W10691  24.110  15.584   3.376
38966W        W10692  16.032  26.523  14.870
38967W        W10693  40.564  33.625   4.160
38968W        W10694  43.822  20.935  13.324
38969W        W10695  17.621   3.857   1.010
38970W        W10696  44.818  10.951  13.221
38971W        W10697   1.685  24.490   2.789
38972W        W10698  36.280  17.472  11.320
38973W        W10699  43.600   0.393  12.899
38974W        W10700  31.982  41.626  14.121
38975W        W10701  27.723   3.336   4.682
38976W        W10702  44.790   9.154  13.989
38977W        W10703  40.812  26.051   3.576
38978W        W10704  16.096   6.641  14.803
38979W        W10705  15.718   9.980  14.360
38980W        W10706  16.006  22.701  12.436
38981W        W10707  23.923  14.686   5.502
38982W        W10708  26.552   8.903  11.412
38983W        W10709   0.259  30.680  11.012
38984W        W10710  18.149  22.522   3.955
38985W        W10711  30.058   0.365   4.335
38986W        W10712  35.536  31.764  14.855
38987W        W10713  26.560  29.493   2.726
38988W        W10714  42.269   6.765   3.282
38989W        W10715   2.762  37.164  10.516
38990W        W10716  10.733  25.933  14.802
38991W        W10717  33.831  25.951   2.776
38992W        W10718  15.369  16.760   4.433
38993W        W10719  16.681  41.374   4.891
38994W        W10720  42.174  12.801   4.153
38995W        W10721   5.389  24.657   1.647
38996W        W10722  32.028   7.937  14.864
38997W        W10723   6.138  22.678   4.177
38998W        W10724  25.364  30.215  11.604
38999W        W10725  12.298  36.805   4.164
39000W        W10726  44.486  29.900  13.454
39001W        W10727  36.353   5.423   1.468
39002W        W10728  14.755  11.240   3.732
39003W        W10729  40.040  32.804  14.441
39004W        W10730   9.324   4.299  14.909
39005W        W10731   3.489  30.449   1.357
39006W        W10732  24.003  37.657  13.481
39007W        W10733  23.100  12.814   0.590
39008W        W10734  21.304  43.573  13.299
39009W        W10735  34.409  33.608   1.685
39010W        W10736  24.985  19.062   2.953
39011W        W10737  34.583  35.495  10.706
39012W        W10738  23.592  35.441   3.306
39013W        W10739  17.556  17.584  13.559
39014W        W10740   8.238  30.648  11.190
39015W        W10741   9.016  33.792   9.853
39016W        W10742  40.978  17.034  13.901
39017W        W10743  15.534  26.609  12.906
39018W        W10744  41.073  35.919   0.948
39019W        W10745  19.291  12.246   3.822
39020W        W10746   7.876  13.140  13.698
39021W        W10747   3.298  25.734  10.706
39022W        W10748   8.299  16.581  11.595
39023W        W10749  16.097  17.591  12.757
39024W        W10750  30.436  20.472  13.097
39025W        W10751   0.876  11.648  12.071
39026W        W10752  37.034  26.261  11.113
39027W        W10753   5.697  27.175  11.063
39028W        W10754  21.205  33.648   3.574
39029W        W10755  34.468  34.233  13.360
39030W        W10756   7.665  11.920  14.975
39031W        W10757  24.253  17.752  13.154
39032W        W10758   0.301  35.841   2.090
39033W        W10759  44.352   3.173  11.147
39034W        W10760  13.372  18.170  10.728
39035W        W10761  11.883  39.471   2.437
39036W        W10762  28.760  11.204  12.037
39037W        W10763   1.827  16.365   4.216
39038W        W10764  35.842  16.036  11.085
39039W        W10765  42.056   6.375  13.796
39040W        W10766  43.263  43.259  14.651
39041W        W10767  36.449  37.779   2.383
39042W        W10768  15.077   4.964  11.017
39043W        W10769  25.620  22.693   0.047
39044W        W10770  17.555   7.858   3.122
39045W        W10771  30.764   1.653   3.220
39046W        W10772  40.651  25.212  13.924
39047W        W10773  24.744  39.859  13.437
39048W        W10774  20.833  35.351   3.142
39049W        W10775  25.992  30.629  11.969
39050W        W10776  13.641   3.311   2.108
39051W        W10777  40.018  36.573   1.380
39052W        W10778   5.596  19.681   3.572
39053W        W10779  17.276  11.997   1.732
39054W        W10780  14.765  24.591   1.457
39055W        W10781   7.803  22.757   0.242
39056W        W10782  14.088   0.960  11.585
39057W        W10783   9.800  22.826  11.525
39058W        W10784  15.608   0.974  14.427
39059W        W10785  11.882  16.512  14.795
39060W        W10786  24.675  23.683  14.831
39061W        W10787  40.576  19.801   1.830
39062W        W10788  36.045   9.294   3.778
39063W        W10789  41.978  22.083  14.735
39064W        W10790  33.450   8.824  11.599
39065W        W10791  19.589  22.279   0.485
39066W        W10792   4.337  27.549  10.939
39067W        W10793   2.508  21.618  11.527
39068W        W10794  15.819  16.301  13.501
39069W        W10795   2.012   4.734  14.210
39070W        W10796  40.393  29.780  12.019
39071W        W10797  20.574  39.376   3.818
39072W        W10798  30.172  13.227  14.441
39073W        W10799  20.431  39.437   4.310
39074W        W10800  10.876  25.822   1.392
39075W        W10801   5.827  43.079  12.940
39076W        W10802  11.140  31.359   0.007
39077W        W10803  27.403   8.295  13.538
39078W        W10804  33.171   6.190   4.699
39079W        W10805  27.628  31.586   2.811
39080W        W10806  44.253   1.886   1.382
39081W        W10807   7.621   8.382  11.644
39082W        W10808   2.176   1.927  12.460
39083W        W10809  28.686  34.677   2.616
39084W        W10810  25.627   8.767   1.743
39085W        W10811  41.545  36.161  13.500
39086W        W10812  38.717  24.517  13.504
39087W        W10813  14.649   9.322  10.977
39088W        W10814  10.208  42.490  13.844
39089W        W10815  11.894  22.140  11.617
39090W        W10816  34.049  19.519   2.436
39091W        W10817   9.200  24.623  11.496
39092W        W10818   9.211  11.204  11.708
39093W        W10819  24.120  17.193  11.655
39094W        W10820  44.467  20.498  14.286
39095W        W10821  42.513  27.132  12.096
39096W        W10822  13.382  14.435  10.900
39097W        W10823  40.498   3.909   4.638
39098W        W10824  27.632  20.736  13.074
39099W        W10825   0.882  13.805  13.000
39100W        W10826   8.357  14.746  13.481
39101W        W10827  16.116  43.303  12.398
39102W        W10828  25.558  23.792   0.548
39103W        W10829  42.452  39.873  14.858
39104W        W10830  18.000  41.894   4.931
39105W        W10831  43.992   3.340   2.355
39106W        W10832  21.626  39.113  12.324
39107W        W10833  25.043  37.338  10.715
39108W        W10834  10.244  16.596   1.633
39109W        W10835  11.079  16.274   2.345
39110W        W10836  11.418  10.178   0.405
39111W        W10837  43.522  12.617  12.090
39112W        W10838  26.362  11.326   2.834
39113W        W10839  20.758   0.786  13.637
39114W        W10840   2.102   7.986  12.692
39115W        W10841  21.073  36.463   0.869
39116W        W10842   5.330   6.774   0.733
39117W        W10843  15.761   8.024  14.321
39118W        W10844   7.383  36.353   1.572
39119W        W10845  25.186  35.327   3.605
39120W        W10846   8.087  12.305   4.573
39121W        W10847   3.985   7.049   3.787
39122W        W10848  12.344  32.419   2.738
39123W        W10849   5.226  40.726   0.855
39124W        W10850  35.449  34.829  14.867
39125W        W10851  33.153  38.487  12.605
39126W        W10852  38.433  42.114   4.185
39127W        W10853   9.587  30.530   2.364
39128W        W10854  18.684  39.858   3.223
39129W        W10855   1.643  42.560   1.918
39130W        W10856  22.655  13.819  10.738
39131W        W10857  24.798  30.672  10.511
39132W        W10858  31.156  37.871   4.477
39133W        W10859  43.596  24.132   2.936
39134W        W10860  37.354  35.531   2.693
39135W        W10861  33.444   1.356  12.805
39136W        W10862   4.575  30.619   1.378
39137W        W10863  12.172  22.056   0.982
39138W        W10864   3.711  32.421   1.281
39139W        W10865  25.843  44.049  11.168
39140W        W10866  43.499  23.046   3.152
39141W        W10867  17.730   0.036  14.013
39142W        W10868  14.372  36.515   3.832
39143W        W10869  10.124  18.736   1.441
39144W        W10870  23.172  23.961  14.537
39145W        W10871  11.192  26.816   4.101
39146W        W10872  41.058  27.957  11.175
39147W        W10873  13.802  13.823  13.831
39148W        W10874  12.732  27.985   2.355
39149W        W10875  44.551  21.104   1.422
39150W        W10876  14.776  17.988  10.596
39151W        W10877  38.463  27.936   1.713
39152W        W10878  21.735   6.686  12.324
39153W        W10879  30.698   0.604   4.593
39154W        W10880  29.350  18.060  10.392
39155W        W10881  11.982  42.983  10.694
39156W        W10882  43.159  43.393   4.566
39157W        W10883  36.540   4.087   0.180
39158W        W10884  24.177   7.452   1.289
39159W        W10885   0.342  10.551  11.604
39160W        W10886  24.512  44.156   3.170
39161W        W10887  23.073  27.408  11.583
39162W        W10888   2.927  20.297   0.772
39163W        W10889   1.248  32.375  14.014
39164W        W10890  19.532  15.888  14.156
39165W        W10891  12.942   2.910  12.961
39166W        W10892   1.982   7.902  13.203
39167W        W10893   1.432  23.560   0.810
39168W        W10894  19.317  20.248  11.067
39169W        W10895  17.374  12.810  12.452
39170W        W10896  20.039  12.676   4.129
39171W        W10897  24.690  19.143  11.016
39172W        W10898  33.991  29.166  10.656
39173W        W10899  19.801   6.841   3.595
39174W        W10900  40.243   0.078  12.203
39175W        W10901  40.011   8.712  11.706
39176W        W10902   5.127  25.768  14.537
39177W        W10903  20.735  39.833  14.048
39178W        W10904  43.870  39.286  14.769
39179W        W10905  38.600  42.266   3.727
39180W        W10906  37.410  17.730   3.142
39181W        W10907  31.624  43.974  10.295
39182W        W10908   7.427   8.151   1.286
39183W        W10909   7.392  18.707   1.150
39184W        W10910  12.291  34.411   2.890
39185W        W10911   6.692  23.148  10.719
39186W        W10912   5.161  29.201   4.151
39187W        W10913  24.234  41.572   2.864
39188W        W10914  16.792   4.912  13.522
39189W        W10915  27.901   8.290  13.548
39190W        W10916  37.923  39.780  14.076
39191W        W10917  10.219  39.971  12.348
39192W        W10918  17.291  13.199   0.952
39193W        W10919   6.029  31.484   1.779
39194W        W10920   5.392   7.179   9.997
39195W        W10921  14.224  23.255   0.941
39196W        W10922   0.623  39.066  10.058
39197W        W10923  11.414   3.183  12.914
39198W        W10924  37.135  44.357   4.089
39199W        W10925  40.087  23.520   2.736
39200W        W10926  39.416  40.563   2.037
39201W        W10927  26.501  23.976  13.811
39202W        W10928  32.087  10.383  14.837
39203W        W10929   6.782   5.722  12.165
39204W        W10930  11.694  29.931  10.954
39205W        W10931  42.226  41.928  12.471
39206W        W10932  37.884   2.709   4.710
39207W        W10933  20.473  41.113   0.215
39208W        W10934   7.832  24.606   1.880
39209W        W10935  15.264  18.675   2.195
39210W        W10936   9.197  22.066   9.829
39211W        W10937  21.585  34.314   1.208
39212W        W10938  15.792  15.150   4.304
39213W        W10939  16.182  12.987   1.770
39214W        W10940  12.765  20.617   2.735
39215W        W10941  15.606  14.568  12.987
39216W        W10942  21.195  12.422   3.782
39217W        W10943  20.746  14.366  12.294
39218W        W10944  28.615  22.802  12.128
39219W        W10945  23.302  43.011   4.653
39220W        W10946  20.860   7.857  13.454
39221W        W10947  28.460  14.226   0.369
39222W        W10948   4.696   7.723  13.469
39223W        W10949   6.780  25.016  13.599
39224W        W10950   0.768  14.205   0.271
39225W        W10951  43.716  35.843   3.275
39226W        W10952  16.186  19.551   1.851
39227W        W10953  15.694  37.611  11.151
39228W        W10954  26.928  12.170   2.745
39229W        W10955  16.244   0.695   1.869
39230W        W10956  36.342  36.798  13.420
39231W        W10957  20.855  22.371  14.243
39232W        W10958  15.110  16.402   4.701
39233W        W10959  20.241  15.763   4.612
39234W        W10960   3.882  40.394   3.566
39235W        W10961  32.020   3.519   4.081
39236W        W10962  31.477  27.717  12.256
39237W        W10963  41.735  44.980   2.775
39238W        W10964  19.382  13.698   4.395
39239W        W10965  34.393  18.673   4.398
39240W        W10966  35.979  24.175  11.811
39241W        W10967   5.217  14.729   3.353
39242W        W10968  15.020   5.836  14.739
39243W        W10969   2.337  40.325   3.754
39244W        W10970   6.844   8.854   0.672
39245W        W10971  40.544  25.033   3.183
39246W        W10972  29.542  15.596  13.527
39247W        W10973   0.396  17.730   3.571
39248W        W10974   7.247   3.526  11.606
39249W        W10975  43.347  25.235   2.711
39250W        W10976  25.218  37.634   2.155
39251W        W10977   2.806  36.446  12.103
39252W        W10978  28.593  40.542   0.532
39253W        W10979   6.701  23.095   4.828
39254W        W10980  30.491  30.494   4.715
39255W        W10981  27.052  20.705   0.413
39256W        W10982  36.072  37.045  12.117
39257W        W10983  18.641  14.822  10.755
39258W        W10984  29.938  41.520  11.983
39259W        W10985  14.694  30.704   0.677
39260W        W10986  10.222  10.809  14.542
39261W        W10987  30.643  33.782   0.853
39262W        W10988  16.771  33.861  12.478
39263W        W10989   5.871  33.845   3.089
39264W        W10990   7.070   2.187  11.035
39265W        W10991  40.625  23.140   4.174
39266W        W10992  31.522   3.759  13.853
39267W        W10993   4.344  36.894  10.906
39268W        W10994  28.521  23.668  10.690
39269W        W10995  14.328  24.426  11.580
39270W        W10996  21.593  27.140   2.366
39271W        W10997  43.200  30.917   2.299
39272W        W10998  26.207  22.390   1.729
39273W        W10999  23.237   3.172  14.319
39274W        W11000  27.290  35.779  11.095
39275W        W11001   7.167  43.290   0.871
39276W        W11002  23.655  35.057  13.218
39277W        W11003  31.109  17.961  10.820
39278W        W11004   6.655  34.399   2.849
39279W        W11005  14.645  22.944   0.917
39280W        W11006   9.223  31.961   3.730
39281W        W11007   0.411  39.444  13.622
39282W        W11008  18.181  25.035  13.569
39283W        W11009  11.845  44.919   3.183
39284W        W11010  13.133   1.311   1.753
39285W        W11011  21.818   6.419   4.691
39286W        W11012   8.170  13.135   1.227
39287W        W11013  16.341  35.834   4.132
39288W        W11014  27.223  39.018   1.353
39289W        W11015  25.142   8.625  11.287
39290W        W11016  35.350  20.174  12.442
39291W        W11017  12.389  40.976   0.328
39292W        W11018  44.848  28.985   3.395
39293W        W11019  30.144  22.040   0.815
39294W        W11020   2.407  43.717  12.645
39295W        W11021   4.159  44.447  14.866
39296W        W11022  21.434  44.735  14.093
39297W        W11023  40.535  28.001  11.078
39298W        W11024  28.319  25.070  11.215
39299W        W11025  15.665  24.600   2.452
39300W        W11026  25.639  36.857  14.915
39301W        W11027  30.524  30.203  11.218
39302W        W11028  20.164  38.251  14.351
39303W        W11029  27.555   9.265  12.611
39304W        W11030  27.917  24.957   1.006
39305W        W11031   9.959  42.103   1.363
39306W        W11032  28.623  23.101  11.410
39307W        W11033  40.532  38.245   4.906
39308W        W11034   2.932  16.589  14.152
39309W        W11035  40.588  28.980   2.679
39310W        W11036  19.593   7.292   3.837
39311W        W11037   7.849  40.110  13.340
39312W        W11038  25.536   7.742   3.401
39313W        W11039   8.952   3.437   4.594
39314W        W11040  40.906   5.301   1.853
39315W        W11041  33.764   8.286  14.815
39316W        W11042   5.123  42.779   2.804
39317W        W11043  25.429   8.292   1.524
39318W        W11044  27.205  30.606   3.670
39319W        W11045  34.118   0.419   4.569
39320W        W11046  33.545  19.525  13.862
39321W        W11047  36.051  24.950  10.635
39322W        W11048  30.087  33.444  10.294
39323W        W11049  29.061  39.486  14.272
39324W        W11050  17.731  15.698  13.565
39325W        W11051  14.559  11.763   1.218
39326W        W11052   6.302   8.722   5.378
39327W        W11053  15.237  40.096   1.431
39328W        W11054  40.684   4.163  12.063
39329W        W11055  20.473   3.911  12.914
39330W        W11056  34.804   6.748   4.195
39331W        W11057   3.820  43.423   2.775
39332W        W11058   4.248  30.339  13.851
39333W        W11059  25.549   3.479   2.184
39334W        W11060  14.137  44.478   2.355
39335W        W11061  21.829  25.784   1.817
39336W        W11062  18.781   6.293   0.864
39337W        W11063   5.260  11.937   2.714
39338W        W11064   5.216  21.974   2.225
39339W        W11065  35.052   3.175  12.496
39340W        W11066  12.847  37.423  14.477
39341W        W11067  44.406   2.917  14.943
39342W        W11068   5.644  42.683   1.868
39343W        W11069  30.551  27.515   1.169
39344W        W11070  14.748  27.581   3.294
39345W        W11071  27.563  17.575  14.493
39346W        W11072  26.120  31.854  11.401
39347W        W11073  17.671  25.076   1.016
39348W        W11074  24.241   3.711  11.036
39349W        W11075  22.523  31.157  11.152
39350W        W11076  40.058   4.870   1.973
39351W        W11077  17.714   7.127   0.947
39352W        W11078  19.456  44.892   3.755
39353W        W11079  33.516  43.600  10.491
39354W        W11080  17.485  29.220   0.940
39355W        W11081  34.847  30.463  11.550
39356W        W11082  37.421   6.656  12.554
39357W        W11083  23.023  28.784   4.601
39358W        W11084  34.666  26.212   4.886
39359W        W11085   3.835  40.777   1.634
39360W        W11086  27.130   5.940  11.155
39361W        W11087  26.698   7.684   2.370
39362W        W11088  25.054  41.596   3.342
39363W        W11089  19.614   5.338  11.172
39364W        W11090   5.563  30.769   3.564
39365W        W11091  22.733  39.042   1.641
39366W        W11092  10.416  40.161  11.559
39367W        W11093  10.360  23.979   4.199
39368W        W11094  15.805   3.424  12.898
39369W        W11095  16.504  27.082   0.342
39370W        W11096  33.514  30.123  13.903
39371W        W11097   5.206  15.206   2.336
39372W        W11098  27.064  15.923  11.650
39373W        W11099   4.457  37.765  14.554
39374W        W11100  34.598   6.123   1.744
39375W        W11101  15.106   0.347   2.143
39376W        W11102  13.304  15.657   4.571
39377W        W11103  34.606  13.679   0.635
39378W        W11104  13.723  19.339  11.204
39379W        W11105  35.458  18.269  12.870
39380W        W11106  20.175   2.741  13.003
39381W        W11107  40.341  28.513  13.400
39382W        W11108  32.346   7.699   4.472
39383W        W11109  35.411   4.619  11.187
39384W        W11110  16.337   6.287   4.419
39385W        W11111  44.819  35.870   1.801
39386W        W11112  23.234   1.364   3.683
39387W        W11113  36.060  12.205   0.374
39388W        W11114   4.524  16.281  13.076
39389W        W11115  25.107  21.777  14.911
39390W        W11116   4.350  43.577   2.781
39391W        W11117   8.182  18.757  12.906
39392W        W11118  24.577   4.616  13.359
39393W        W11119  30.438  34.518   1.958
39394W        W11120  22.764  33.106   2.632
39395W        W11121  39.102  30.491   0.898
39396W        W11122   9.879   4.862  11.644
39397W        W11123  19.789  20.173  11.935
39398W        W11124  38.930  15.300   0.785
39399W        W11125   5.713  36.996  14.540
39400W        W11126  25.921  19.179   1.720
39401W        W11127   3.907   4.388  11.550
39402W        W11128   3.394  32.417  12.494
39403W        W11129  25.727  27.809  14.362
39404W        W11130  24.463  44.953  13.780
39405W        W11131  15.271   0.220  11.203
39406W        W11132  39.425   5.416  11.065
39407W        W11133  18.993  36.941   0.256
39408W        W11134  35.462  18.613   1.874
39409W        W11135   9.379   4.685  14.546
39410W        W11136  16.250  19.242   2.275
39411W        W11137  19.753  35.834  13.395
39412W        W11138  31.334  34.120   3.216
39413W        W11139  11.617  13.111   4.290
39414W        W11140  44.020  15.895  14.830
39415W        W11141  11.311  39.080   0.045
39416W        W11142  40.499  27.117  13.326
39417W        W11143  19.396  14.926   2.376
39418W        W11144   3.007  13.662   1.763
39419W        W11145  25.729  19.248  11.860
39420W        W11146  11.234  26.051  14.930
39421W        W11147  15.285  11.397  11.235
39422W        W11148  24.172  22.951  12.935
39423W        W11149   0.641  38.586   2.217
39424W        W11150  44.529   2.755   1.695
39425W        W11151  34.036  42.047  12.277
39426W        W11152  24.895   5.007  11.527
39427W        W11153  30.535  16.051   2.805
39428W        W11154  31.626  41.637   0.798
39429W        W11155  12.202   9.441  12.574
39430W        W11156   7.376  38.505   0.241
39431W        W11157   9.811   6.745  14.391
39432W        W11158  15.305  18.955   4.349
39433W        W11159  44.362  30.659  13.910
39434W        W11160  11.127  21.035   1.250
39435W        W11161   9.927   4.885   0.211
39436W        W11162   0.487  20.664  10.773
39437W        W11163  34.578   2.836  13.022
39438W        W11164  35.751   5.338  11.514
39439W        W11165  39.807  38.356   2.818
39440W        W11166  33.465  42.423   4.792
39441W        W11167  40.329  29.164   4.114
39442W        W11168  18.695   7.806   1.669
39443W        W11169  33.589  28.435   4.162
39444W        W11170  28.402  28.071   3.623
39445W        W11171  28.662  26.376   1.591
39446W        W11172  11.694  42.030   2.323
39447W        W11173  18.956   4.163  14.446
39448W        W11174   6.251  22.581  10.790
39449W        W11175  40.407  38.213  12.974
39450W        W11176  11.267  12.793  12.451
39451W        W11177  18.172  43.259  11.061
39452W        W11178  34.832  38.498   4.104
39453W        W11179  36.590   6.222   4.460
39454W        W11180  42.940  26.853   1.926
39455W        W11181  20.505  18.180  12.956
39456W        W11182  42.690  13.554  11.155
39457W        W11183  21.006  13.133   1.541
39458W        W11184   4.195   8.321  14.091
39459W        W11185  42.773  17.552   0.474
39460W        W11186  14.842  14.531  13.966
39461W        W11187   3.532  11.243   9.810
39462W        W11188  41.774   2.827  10.753
39463W        W11189   2.381  37.376   0.025
39464W        W11190  37.318  25.516  10.634
39465W        W11191  44.575  19.375  13.323
39466W        W11192   1.957   1.901  10.859
39467W        W11193  30.012  23.304   2.852
39468W        W11194  29.099   7.287  11.616
39469W        W11195   0.453   9.751   3.404
39470W        W11196   7.420  39.589  13.277
39471W        W11197  39.808  17.862  13.536
39472W        W11198  26.121  26.430   4.799
39473W        W11199  12.666   3.862   4.894
39474W        W11200   4.540  40.351  11.271
39475W        W11201  25.259  36.505  12.516
39476W        W11202   2.135   9.391  12.940
39477W        W11203  20.818  17.457  11.587
39478W        W11204   6.423  18.627   2.192
39479W        W11205   7.610  24.633  10.141
39480W        W11206  43.142   7.024  13.370
39481W        W11207   8.160  30.565  14.526
39482W        W11208  43.012  30.232  10.844
39483W        W11209  26.964  18.181  12.063
39484W        W11210  38.689  25.616  10.750
39485W        W11211  43.044  42.769   1.004
39486W        W11212  39.872  17.778  14.401
39487W        W11213  21.555   1.055  12.977
39488W        W11214  17.789  12.705   4.083
39489W        W11215  15.718  34.223  13.931
39490W        W11216  16.901  20.719   2.248
39491W        W11217   7.633   8.668  12.998
39492W        W11218   9.791  33.903  13.280
39493W        W11219  11.266  29.969   0.048
39494W        W11220  22.153   7.231   1.994
39495W        W11221   9.240  16.291   0.295
39496W        W11222  36.437  44.314  13.948
39497W        W11223  25.125  12.557   4.301
39498W        W11224  20.242  23.467  10.764
39499W        W11225  38.904  19.754   0.817
39500W        W11226  15.140   8.393   0.963
39501W        W11227  42.410  29.426   1.323
39502W        W11228  24.458   7.406  14.687
39503W        W11229  26.491  32.668  10.919
39504W        W11230  21.976  39.375  11.552
39505W        W11231  26.534  10.191  14.980
39506W        W11232   2.191  14.657   3.372
39507W        W11233  34.969  42.946   3.709
39508W        W11234  20.538  23.131  14.893
39509W        W11235  14.879  17.233   1.718
39510W        W11236  43.586  21.012   1.638
39511W        W11237  25.467  42.795  13.875
39512W        W11238  31.812  44.705   9.743
39513W        W11239  17.742  33.550  12.401
39514W        W11240   7.502  30.401   0.220
39515W        W11241  43.728  44.454  14.366
39516W        W11242  36.249  41.513  13.951
39517W        W11243  34.423  26.202  13.772
39518W        W11244  14.235  27.087   0.895
39519W        W11245   1.164  38.532   4.071
39520W        W11246  37.560  19.935   1.457
39521W        W11247  25.110  16.976   3.648
39522W        W11248  37.453  44.400   4.488
39523W        W11249  40.950  15.226  11.225
39524W        W11250   8.162  20.796  10.587
39525W        W11251  35.616   3.010   2.303
39526W        W11252  33.527  33.305   0.458
39527W        W11253   5.393  22.981   0.876
39528W        W11254  31.686  30.381   3.965
39529W        W11255  23.475  33.109  14.348
39530W        W11256  37.511  12.883  12.557
39531W        W11257  12.321   6.631   2.268
39532W        W11258   6.512  12.394   2.364
39533W        W11259  44.865  25.684  10.565
39534W        W11260  29.518  39.896  12.771
39535W        W11261  22.247  36.008   4.083
39536W        W11262  34.906  26.444   1.189
39537W        W11263  20.217  13.786  14.470
39538W        W11264  18.702  41.820   4.213
39539W        W11265  44.938  33.416  13.884
39540W        W11266  16.824  38.169   4.297
39541W        W11267  34.085  11.934  13.895
39542W        W11268  24.715  13.772  12.940
39543W        W11269  37.051  25.429   0.788
39544W        W11270  36.378  25.525   3.318
39545W        W11271  15.648  10.663   0.896
39546W        W11272  41.560  39.072   3.087
39547W        W11273  36.858  17.083   4.097
39548W        W11274   5.463  35.629   4.540
39549W        W11275  30.424  19.195  11.596
39550W        W11276  15.630  33.344  13.332
39551W        W11277  10.848  32.059   2.283
39552W        W11278   2.725  39.888   2.344
39553W        W11279   4.505  21.614  11.149
39554W        W11280  42.046  12.671   1.119
39555W        W11281  20.157   5.734   2.248
39556W        W11282  39.536  27.053  11.917
39557W        W11283   9.209  10.425   0.787
39558W        W11284  12.076  42.563  12.011
39559W        W11285   0.046   4.319  12.102
39560W        W11286  36.680  42.342   2.412
39561W        W11287  33.527  41.523  11.393
39562W        W11288  43.508  33.183  11.032
39563W        W11289  16.194  16.165   2.702
39564W        W11290  22.458  42.893  14.936
39565W        W11291  13.171  21.858  14.446
39566W        W11292  42.876  14.079   3.293
39567W        W11293  39.984  28.671  14.035
39568W        W11294   6.766  38.612   2.234
39569W        W11295  12.614   4.239  12.557
39570W        W11296  17.743  34.589   2.725
39571W        W11297  16.103  16.352   1.166
39572W        W11298  25.085  11.879  14.432
39573W        W11299  20.788   2.058  10.397
39574W        W11300  26.000  26.704  14.870
39575W        W11301  18.006  20.178   1.973
39576W        W11302  27.005  17.600   4.492
39577W        W11303  30.607  22.464   2.881
39578W        W11304   5.155  12.544  10.933
39579W        W11305  31.566   8.278  14.982
39580W        W11306  41.937   8.388   3.663
39581W        W11307  11.416  33.017  12.094
39582W        W11308  18.357  35.942   4.272
39583W        W11309   7.320  10.771   4.510
39584W        W11310  12.301  18.601   4.124
39585W        W11311  23.415  18.493  11.177
39586W        W11312   1.964  32.371   0.519
39587W        W11313  13.610   0.878  12.444
39588W        W11314  32.524   7.397   0.690
39589W        W11315  41.181  31.055  11.608
39590W        W11316  21.031  24.637  14.287
39591W        W11317  28.918  33.432  11.827
39592W        W11318  27.746   3.414  12.516
39593W        W11319  35.932   4.954  12.445
39594W        W11320  24.708   4.129   2.492
39595W        W11321   7.274  28.870   3.857
39596W        W11322  16.094  43.879  14.970
39597W        W11323  18.770  26.231   3.717
39598W        W11324  32.520   4.448  11.915
39599W        W11325  30.964  28.172  14.176
39600W        W11326  33.678   0.966  10.985
39601W        W11327  37.219  23.933  14.964
39602W        W11328   7.825  17.667  14.854
39603W        W11329  36.786  37.651  13.186
39604W        W11330   6.372   6.405  12.577
39605W        W11331   9.205  25.447  12.321
39606W        W11332  32.500  33.140  12.415
39607W        W11333  14.715  24.052  11.632
39608W        W11334  41.563   1.013  14.432
39609W        W11335  20.230   4.416   2.369
39610W        W11336  41.930  11.534   2.202
39611W        W11337   6.941  22.221   1.001
39612W        W11338  41.100   8.378   1.023
39613W        W11339  35.495   5.802   4.301
39614W        W11340  43.803   9.822  14.319
39615W        W11341   2.318  39.614  11.544
39616W        W11342  40.050  24.815   2.336
39617W        W11343  23.192  22.969  14.287
39618W        W11344  12.188  29.140  12.636
39619W        W11345  29.860  43.760   0.875
39620W        W11346   8.407   3.001  13.873
39621W        W11347   0.991  13.814   2.330
39622W        W11348   0.843  40.496  13.777
39623W        W11349  40.185  14.440  13.423
39624W        W11350  44.408   8.451   3.106
39625W        W11351   0.291  33.835   1.484
39626W        W11352  16.304  11.319   1.296
39627W        W11353  22.648   4.900   4.667
39628W        W11354  26.016  36.291  13.115
39629W        W11355  29.708  20.771   0.890
39630W        W11356  28.127  34.889   2.617
39631W        W11357   8.698  22.505  13.322
39632W        W11358  18.103   4.290   4.562
39633W        W11359  43.872  32.479   1.319
39634W        W11360  27.208  31.464   4.371
39635W        W11361  40.084  27.755   4.807
39636W        W11362  37.269   2.286   4.232
39637W        W11363  27.982  11.861  14.205
39638W        W11364   4.931   4.791   0.571
39639W        W11365  21.380   6.711  10.946
39640W        W11366   3.768   4.451  13.486
39641W        W11367  32.407  28.465   4.682
39642W        W11368   8.758  17.213   3.693
39643W        W11369  26.721  32.766   5.151
39644W        W11370   4.760  24.250  14.883
39645W        W11371  13.507  26.323   4.704
39646W        W11372  14.691  29.741  11.988
39647W        W11373  25.972  19.444  10.679
39648W        W11374   4.434  16.206   1.243
39649W        W11375  20.474  36.547   4.276
39650W        W11376  14.596  11.314   1.945
39651W        W11377  36.140   0.233  13.348
39652W        W11378  31.387  23.735   3.231
39653W        W11379  34.147   1.717  11.140
39654W        W11380   4.726   4.863   2.826
39655W        W11381  18.648  31.308   0.961
39656W        W11382   2.011  35.561   1.836
39657W        W11383  34.792   5.998  11.495
39658W        W11384   1.347  34.881   3.352
39659W        W11385   3.713  12.715  13.086
39660W        W11386  23.038   4.031   0.377
39661W        W11387  18.540   9.536  13.757
39662W        W11388  28.865   0.833   1.222
39663W        W11389   6.947  21.965  12.489
39664W        W11390   6.449  10.453  10.258
39665W        W11391  10.989  18.649   1.208
39666W        W11392  24.676  35.473   0.993
39667W        W11393  27.577  34.648   4.564
39668W        W11394  18.029   1.118   4.961
39669W        W11395  44.517  20.985  10.965
39670W        W11396  10.640   1.469  11.599
39671W        W11397   7.512  33.913   0.194
39672W        W11398  18.660  13.904   3.183
39673W        W11399  10.712  23.430   3.262
39674W        W11400  36.027  11.677  11.180
39675W        W11401  42.218   0.874  13.042
39676W        W11402   2.458  29.670  11.142
39677W        W11403   8.181  24.561  12.619
39678W        W11404  34.196  19.837   1.749
39679W        W11405  44.691  18.705   3.619
39680W        W11406  17.701   5.040  12.048
39681W        W11407   9.679  11.892   0.854
39682W        W11408  21.149  32.131   1.276
39683W        W11409  20.525  37.855  11.021
39684W        W11410   2.341   9.912   2.163
39685W        W11411  39.862  37.513  11.077
39686W        W11412  23.091  13.593  10.478
39687W        W11413  32.892  24.051   0.710
39688W        W11414  13.165   5.452   2.768
39689W        W11415  26.707  19.537   3.346
39690W        W11416  16.643  33.642  12.915
39691W        W11417  23.568  43.933   2.369
39692W        W11418  16.715  10.779  13.027
39693W        W11419  22.098  17.377  12.378
39694W        W11420  18.847   5.250   3.655
39695W        W11421   0.518  10.843  11.164
39696W        W11422   8.769  33.146   3.253
39697W        W11423  42.393  40.519  12.973
39698W        W11424  20.335  19.632  10.771
39699W        W11425  15.777  29.017   2.227
39700W        W11426  11.738  28.454   0.440
39701W        W11427  34.887  17.122  10.777
39702W        W11428   8.991  40.225  13.386
39703W        W11429   6.014   0.933   1.130
39704W        W11430  39.091   2.475  14.782
39705W        W11431  26.196   7.509  10.677
39706W        W11432  37.898  18.053   0.461
39707W        W11433  41.535   7.306  12.101
39708W        W11434  36.200  28.973   1.619
39709W        W11435  11.611   3.669   1.409
39710W        W11436  24.582  20.298   2.912
39711W        W11437  20.903  44.007  14.249
39712W        W11438  26.122  14.774   3.067
39713W        W11439  35.492  35.781   5.086
39714W        W11440  24.718  18.301  13.932
39715W        W11441  31.554  44.132   3.129
39716W        W11442  23.205  26.223   0.779
39717W        W11443  19.706  33.071   2.894
39718W        W11444  31.507  27.620   4.628
39719W        W11445  34.527  29.980  13.918
39720W        W11446  14.546  40.597   0.933
39721W        W11447  24.234  40.542   3.707
39722W        W11448  33.510  17.734  14.754
39723W        W11449   9.593  43.608   1.251
39724W        W11450  32.618  13.396   0.297
39725W        W11451   3.140   1.435  11.158
39726W        W11452  15.279   9.841  11.622
39727W        W11453  40.360  34.612   1.864
39728W        W11454  32.636  33.506   4.063
39729W        W11455  34.368  38.846   0.406
39730W        W11456  10.502  26.733   1.942
39731W        W11457  40.907  21.735   1.192
39732W        W11458   1.783  22.259   4.306
39733W        W11459  32.470   9.123   0.232
39734W        W11460  12.791  26.188   2.196
39735W        W11461  17.618  15.851  10.388
39736W        W11462  35.388  44.313  11.948
39737W        W11463  20.412  14.647  12.616
39738W        W11464   7.891  37.603   1.765
39739W        W11465   6.370  12.677  11.534
39740W        W11466  31.833  18.549  10.654
39741W        W11467  42.223  13.075  12.084
39742W        W11468  23.170  23.705   1.493
39743W        W11469  16.651  12.359   4.682
39744W        W11470  36.267  43.885   0.929
39745W        W11471  32.392  40.746   1.352
39746W        W11472  35.497  35.118  14.464
39747W        W11473  25.206  26.451   1.806
39748W        W11474  17.178   2.174   1.682
39749W        W11475  30.548  34.296   0.875
39750W        W11476  14.595  19.169  13.001
39751W        W11477  34.921  31.660   1.858
39752W        W11478   4.239  40.583   3.900
39753W        W11479  27.030  27.369  14.832
39754W        W11480  43.784  26.634   9.708
39755W        W11481  10.806  40.240   4.293
39756W        W11482  44.939   5.600   1.885
39757W        W11483  12.211  36.303   5.043
39758W        W11484  31.147  18.155  14.419
39759W        W11485  44.303  22.196  12.157
39760W        W11486  18.198  32.632   0.970
39761W        W11487  22.237  41.929   0.898
39762W        W11488  12.457   0.245   4.888
39763W        W11489  26.661  16.550   2.196
39764W        W11490  28.127  28.538  13.799
39765W        W11491  18.565  26.981   2.129
39766W        W11492  44.322   3.855  13.166
39767W        W11493  20.511  22.028   0.924
39768W        W11494  32.420  32.956   2.223
39769W        W11495  21.148  41.222  12.839
39770W        W11496  39.633   2.223   1.234
39771W        W11497   8.755   5.747   1.782
39772W        W11498  30.557  27.364   1.680
39773W        W11499  18.694   9.227  12.898
39774W        W11500   2.319  10.283   1.408
39775W        W11501  23.473   3.481   3.824
39776W        W11502  29.138  13.352  10.614
39777W        W11503  40.362  30.898   0.229
39778W        W11504   9.654  40.556   1.865
39779W        W11505  25.152  36.951  11.079
39780W        W11506  39.707  14.489  13.618
39781W        W11507  27.640  18.203  11.115
39782W        W11508  14.604  40.368   2.212
39783W        W11509   2.934   1.915  14.250
39784W        W11510   0.951  31.470  11.562
39785W        W11511  42.675  31.491  11.144
39786W        W11512  22.177  38.093   0.028
39787W        W11513  32.668  22.518  13.466
39788W        W11514  13.292  10.699  10.240
39789W        W11515  28.427  42.539  14.757
39790W        W11516  27.918  20.927  11.214
39791W        W11517  28.456  11.363   4.401
39792W        W11518  16.786   5.608   1.470
39793W        W11519  34.396  10.445   3.832
39794W        W11520  33.507  18.370  11.579
39795W        W11521  41.970  23.986  14.876
39796W        W11522  37.063   7.357  10.982
39797W        W11523  40.528  22.158  12.527
39798W        W11524  28.150  30.624  12.637
39799W        W11525  13.910  28.556  12.422
39800W        W11526   3.449  13.418   2.043
39801W        W11527   8.774  12.567  13.846
39802W        W11528  34.862  41.910   2.759
39803W        W11529  31.341  37.783   0.276
39804W        W11530  38.955  37.938   2.416
39805W        W11531   4.283   1.724   2.195
39806W        W11532   6.173  21.974  10.112
39807W        W11533  43.849  35.682   1.846
39808W        W11534   3.670   8.770   4.177
39809W        W11535  15.652  44.637  14.905
39810W        W11536   7.742  29.483  12.498
39811W        W11537   5.310  12.349   1.511
39812W        W11538   2.773   4.740  12.066
39813W        W11539  25.820  34.742   2.552
39814W        W11540   5.376   1.873  12.264
39815W        W11541  42.317  11.031  14.460
39816W        W11542  26.210  30.072  14.814
39817W        W11543  34.195   5.307  13.412
39818W        W11544  32.327  43.913  10.660
39819W        W11545  18.174  33.464   4.853
39820W        W11546  27.793  37.956  11.698
39821W        W11547  39.922  37.992  10.318
39822W        W11548   1.018  10.715   3.642
39823W        W11549  28.515   7.898   0.945
39824W        W11550  18.263   1.229  13.013
39825W        W11551  42.769  33.481  11.077
39826W        W11552  42.156   9.180   3.273
39827W        W11553  13.370  41.260  13.608
39828W        W11554  29.590  41.979   1.189
39829W        W11555  25.915  30.799  12.843
39830W        W11556  11.841  25.769  13.012
39831W        W11557  35.402  24.680   4.620
39832W        W11558  28.983  28.532  14.252
39833W        W11559   4.781  23.897  11.087
39834W        W11560   6.899  44.189  14.686
39835W        W11561  18.572  22.191  11.550
39836W        W11562  10.902  30.037  11.414
39837W        W11563   7.753  38.882   0.243
39838W        W11564   5.742  24.795  12.091
39839W        W11565  28.768  22.544  12.572
39840W        W11566   1.328  38.387   0.238
39841W        W11567  18.624  42.919  14.988
39842W        W11568  36.609  39.986  14.053
39843W        W11569  11.076  18.174   2.852
39844W        W11570   6.637  16.310  10.770
39845W        W11571  44.223  26.722  12.152
39846W        W11572  39.394  24.976  11.085
39847W        W11573  34.959   3.636  14.976
39848W        W11574  26.155  35.163  14.494
39849W        W11575  14.308  19.313   1.190
39850W        W11576  10.732  33.149  12.544
39851W        W11577   1.488  11.404   0.457
39852W        W11578  16.092  16.117   4.568
39853W        W11579  41.892   7.727   3.196
39854W        W11580  19.303  40.121   0.935
39855W        W11581  22.679  24.001  14.788
39856W        W11582  14.733  34.372   3.268
39857W        W11583   4.668  26.900  12.783
39858W        W11584  24.075  34.578   3.357
39859W        W11585  27.013  39.298  13.823
39860W        W11586  12.346  24.789   4.256
39861W        W11587   4.988  29.991  12.011
39862W        W11588  22.619  31.160  12.513
39863W        W11589   7.250  25.201   1.864
39864W        W11590  11.669  11.277  13.808
39865W        W11591   9.421  21.313  10.987
39866W        W11592  36.347  42.932  14.452
39867W        W11593  39.302  13.632  12.432
39868W        W11594  22.639  43.425  14.869
39869W        W11595  44.583  31.787   1.133
39870W        W11596  40.509   9.165   0.484
39871W        W11597  14.760  30.217  10.728
39872W        W11598   4.072  15.122  14.397
39873W        W11599  29.223  40.258  11.025
39874W        W11600  15.281  38.955  12.273
39875W        W11601  41.750  22.018  14.279
39876W        W11602  41.882  43.545  11.469
39877W        W11603  15.267  22.205  12.689
39878W        W11604  28.643  28.838   2.047
39879W        W11605  43.232  22.884  12.992
39880W        W11606  21.305  15.051   2.852
39881W        W11607  38.475   7.956   2.968
39882W        W11608   8.663  39.745   1.390
39883W        W11609  14.631   5.911  14.052
39884W        W11610  11.312  43.832  11.678
39885W        W11611   5.212   1.036   3.991
39886W        W11612  32.612   5.784  10.569
39887W        W11613   5.593   9.492   3.142
39888W        W11614  27.479  17.798   4.458
39889W        W11615  17.382  42.920  13.613
39890W        W11616  36.058   2.540  12.569
39891W        W11617  30.348  24.692  10.229
39892W        W11618  39.792  35.872  11.154
39893W        W11619  31.157  42.470   4.526
39894W        W11620   7.202   2.354   4.469
39895W        W11621  37.491   9.660   0.004
39896W        W11622   7.458  12.588  14.296
39897W        W11623   2.499   7.037   3.772
39898W        W11624  32.472  38.358  12.037
39899W        W11625  18.276   5.496   4.130
39900W        W11626  13.595  24.707   4.564
39901W        W11627  15.625  29.616   2.842
39902W        W11628  24.660  28.427   0.427
39903W        W11629   5.260  26.451  11.922
39904W        W11630  35.515  10.922   1.651
39905W        W11631  35.063  43.761   3.211
39906W        W11632  27.424  40.520   3.906
39907W        W11633  20.282  30.998   3.146
39908W        W11634   0.845  44.331   4.183
39909W        W11635  10.110  24.293   2.948
39910W        W11636  23.736  28.520  10.924
39911W        W11637  43.964  19.119   4.737
39912W        W11638   1.975   8.264  11.549
39913W        W11639  30.399   0.544  14.989
39914W        W11640  18.027  42.723   2.676
39915W        W11641  21.988  24.185   3.196
39916W        W11642  27.025  41.444  12.039
39917W        W11643  43.255   1.275  11.473
39918W        W11644  18.774  31.486   2.517
39919W        W11645  42.144  26.146   0.261
39920W        W11646  24.589  31.988   4.008
39921W        W11647  28.342  40.121  14.072
39922W        W11648  26.795  40.158  11.178
39923W        W11649  27.577  13.797   3.583
39924W        W11650  31.112  39.394  10.534
39925W        W11651  21.738  32.003  12.941
39926W        W11652  41.481  15.929  13.817
39927W        W11653  35.534  37.562   0.900
39928W        W11654   5.473   1.293   2.771
39929W        W11655  30.628  30.838  14.391
39930W        W11656  14.196   4.391  11.503
39931W        W11657  42.047  35.492  11.505
39932W        W11658  26.556   1.013   0.866
39933W        W11659  31.413  34.077  10.594
39934W        W11660  25.058  33.630   3.420
39935W        W11661  40.217   2.485  12.066
39936W        W11662  31.983  24.198  13.660
39937W        W11663  37.429   3.815  12.375
39938W        W11664  40.364  40.497   3.752
39939W        W11665  23.254   0.578  13.316
39940W        W11666  30.495  44.820  10.590
39941W        W11667  32.319  40.190   0.404
39942W        W11668  33.446  40.864   1.956
39943W        W11669  44.007   4.906   4.265
39944W        W11670   3.519  26.486   4.539
39945W        W11671  43.901  24.929   0.139
39946W        W11672  42.294  33.936  11.429
39947W        W11673   6.581  30.028   1.207
39948W        W11674  43.693  24.134  13.865
39949W        W11675  30.016  13.792  12.515
39950W        W11676  20.591  13.120   3.602
39951W        W11677   3.781  23.580   2.334
39952W        W11678  15.294  28.238   3.747
39953W        W11679  36.557  30.654  12.893
39954W        W11680  41.903   6.659  14.215
39955W        W11681  41.524  28.285   3.757
39956W        W11682  34.954   7.408   3.147
39957W        W11683  28.939  18.333   1.764
39958W        W11684   5.506   8.228  12.610
39959W        W11685   9.794  17.756   1.313
39960W        W11686   8.800  20.196   2.168
39961W        W11687  37.806  38.575   3.708
39962W        W11688   6.938   6.804   4.572
39963W        W11689  23.150  33.155   4.768
39964W        W11690  41.462  28.001   2.401
39965W        W11691   2.431  27.463  13.110
39966W        W11692  18.717  36.552  12.596
39967W        W11693  41.406  12.660  13.778
39968W        W11694  32.932  11.145  13.122
39969W        W11695  10.773  36.563  11.623
39970W        W11696  17.218  27.487   1.717
39971W        W11697  41.470   2.045   2.702
39972W        W11698  29.690  29.131  12.962
39973W        W11699   8.899  22.741   5.370
39974W        W11700  26.697  19.172  11.981
39975W        W11701  38.863  25.191   0.769
39976W        W11702  14.820  22.670  13.534
39977W        W11703  38.116  12.938  13.399
39978W        W11704  42.309  17.794  11.175
39979W        W11705   4.753  19.999   0.149
39980W        W11706  34.765  35.341   0.361
39981W        W11707  42.318  13.319   3.402
39982W        W11708  26.847  16.143   4.714
39983W        W11709  21.199   6.680   3.155
39984W        W11710   0.616   0.497  14.429
39985W        W11711  37.310   1.174   2.265
39986W        W11712  31.027   3.756  13.724
39987W        W11713   3.939  27.293  14.972
39988W        W11714   4.648  39.820  13.086
39989W        W11715  28.590   2.270  11.862
39990W        W11716  39.228   9.388   1.793
39991W        W11717   9.640  32.104  14.400
39992W        W11718  14.581  36.961  14.395
39993W        W11719  18.733  37.518   2.342
39994W        W11720   6.682  26.397  12.170
39995W        W11721  25.524   0.222  13.012
39996W        W11722  40.135   7.603   4.716
39997W        W11723   3.165  18.167  13.521
39998W        W11724   1.809   8.089   1.284
39999W        W11725   9.141  39.893   2.296
40000W        W11726   4.554  41.965  13.980
40001W        W11727  32.289  29.082  11.500
40002W        W11728   0.953  33.710   2.832
40003W        W11729   9.837  10.192  13.293
40004W        W11730  35.125  13.073   2.375
40005W        W11731  20.316   6.692  13.385
40006W        W11732  44.806   4.181   1.729
40007W        W11733  35.549  44.371   4.294
40008W        W11734  43.092  37.092  14.911
40009W        W11735  13.094   6.612   1.900
40010W        W11736  26.110   1.590  11.587
40011W        W11737  25.021  27.301  14.153
40012W        W11738  28.676  41.383  13.977
40013W        W11739  34.566   8.384   3.363
40014W        W11740  28.547  23.007  12.625
40015W        W11741  16.378  11.816   2.284
40016W        W11742  34.618  44.401   4.479
40017W        W11743  40.097  26.704  11.601
40018W        W11744  34.395  39.490   3.191
40019W        W11745  24.535  13.738  13.942
40020W        W11746  31.714  28.621  14.376
40021W        W11747  37.858  25.028   0.265
40022W        W11748  39.271  21.041  14.084
40023W        W11749  19.125  17.201  13.356
40024W        W11750  15.725   5.860   4.100
40025W        W11751  40.001  35.544   4.384
40026W        W11752  28.580  17.032   1.954
40027W        W11753  39.106  19.733  13.560
40028W        W11754  16.991  16.668   2.734
40029W        W11755  19.584  15.405  11.659
40030W        W11756  40.560  21.691   1.851
40031W        W11757   3.865  35.190  13.068
40032W        W11758  35.037  10.212   4.664
40033W        W11759   5.186  19.712  13.576
40034W        W11760  28.101   1.761  14.579
40035W        W11761  12.244  41.385  13.559
40036W        W11762   0.479  31.982  13.739
40037W        W11763  30.152   8.666   4.103
40038W        W11764   0.380  10.154  14.770
40039W        W11765   9.330   9.079   2.381
40040W        W11766  19.267  19.342   1.779
40041W        W11767  20.574  40.769   4.430
40042W        W11768  12.769  11.600   4.058
40043W        W11769  20.646  43.552   0.147
40044W        W11770  21.241   0.318   4.538
40045W        W11771  40.864  29.124  10.778
40046W        W11772   0.369  28.083  10.696
40047W        W11773  18.217  44.123  11.991
40048W        W11774  14.309  30.156   1.345
40049W        W11775  25.023  30.191   3.872
40050W        W11776   2.453  40.826  12.547
40051W        W11777  34.329  35.947   2.310
40052W        W11778  16.344  35.992   0.817
40053W        W11779   3.544  11.172   2.257
40054W        W11780   5.955  25.158  11.228
40055W        W11781  15.095  22.358  12.228
40056W        W11782  44.417  23.440   1.815
40057W        W11783  35.594   3.315  10.718
40058W        W11784  19.012  32.106   4.711
40059W        W11785  26.519  43.905  12.487
40060W        W11786  39.377  22.757   0.688
40061W        W11787  17.668  41.231   0.507
40062W        W11788  27.797  15.075   3.071
40063W        W11789  21.961  17.371  10.971
40064W        W11790   0.000  42.918  12.868
40065W        W11791  38.101  16.605  12.900
40066W        W11792  40.451   1.205  11.646
40067W        W11793  33.886  34.026   0.973
40068W        W11794  10.002   0.744  14.983
40069W        W11795  27.015  29.355   2.910
40070W        W11796   5.381   4.830  14.963
40071W        W11797  36.617  17.120  12.411
40072W        W11798  33.795  24.817  14.813
40073W        W11799  38.807   7.607   2.109
40074W        W11800  23.436   3.914  12.203
40075W        W11801  26.697   4.993  13.419
40076W        W11802  12.257  23.552   1.368
40077W        W11803  33.519  40.087   0.309
40078W        W11804  43.234   9.627  13.681
40079W        W11805  24.160  32.300  12.817
40080W        W11806  24.468  35.404   4.557
40081W        W11807  25.059  34.446  14.922
40082W        W11808  27.129  12.515   3.885
40083W        W11809  31.337   4.804  12.420
40084W        W11810   3.182  26.371   4.161
40085W        W11811  31.535  37.983   4.124
40086W        W11812  44.606   1.944  12.948
40087W        W11813  23.950  14.816  12.897
40088W        W11814  18.460  22.015   3.818
40089W        W11815   8.469   3.519   4.189
40090W        W11816  13.638  16.210  12.106
40091W        W11817  36.617  25.036   3.346
40092W        W11818  43.233  10.357   4.496
40093W        W11819  10.538  35.629  10.250
40094W        W11820  35.890  30.948   0.722
40095W        W11821   9.813  36.025  11.916
40096W        W11822  40.439  32.702   0.800
40097W        W11823  41.029   6.648  14.260
40098W        W11824   8.683   1.870  11.655
40099W        W11825   6.754  13.354  11.611
40100W        W11826  41.788  38.521  14.913
40101W        W11827  27.144  43.829  13.806
40102W        W11828  27.340  19.193   3.668
40103W        W11829  38.972   5.826  11.103
40104W        W11830  24.686  33.094  13.793
40105W        W11831   4.375  42.196  11.927
40106W        W11832  15.090   4.647   2.325
40107W        W11833   0.891  16.678   1.012
40108W        W11834   9.130  42.493   1.185
40109W        W11835  33.415  41.012  11.558
40110W        W11836   1.420  28.095   0.426
40111W        W11837  12.101   0.822   1.408
40112W        W11838  21.157  25.797  10.668
40113W        W11839  42.550   3.770  11.128
40114W        W11840   5.152  23.960   2.854
40115W        W11841   8.802  24.907   1.184
40116W        W11842  29.553   7.690  14.396
40117W        W11843   0.374  35.436   3.659
40118W        W11844  36.373  43.464   4.882
40119W        W11845  35.791  35.959  12.508
40120W        W11846  30.483  20.238   1.392
40121W        W11847   9.335  16.298  14.022
40122W        W11848  31.434  22.875  13.372
40123W        W11849  20.725  19.282  10.897
40124W        W11850  30.171   7.844  11.135
40125W        W11851  32.501  23.821   1.829
40126W        W11852  26.191  33.640  11.712
40127W        W11853  38.854  27.505   0.279
40128W        W11854  15.655  16.173   2.891
40129W        W11855  39.039  16.847   1.790
40130W        W11856  16.838   0.521   4.210
40131W        W11857  21.813  36.686  13.069
40132W        W11858  12.226  34.417  12.606
40133W        W11859  36.516  23.251  13.003
40134W        W11860  18.520  42.437  13.264
40135W        W11861  18.234   4.888  10.733
40136W        W11862  14.848  27.934   1.664
40137W        W11863  28.021   2.187   1.733
40138W        W11864   3.026  42.757   4.624
40139W        W11865  38.858   2.010  10.452
40140W        W11866   7.135  30.860  14.298
40141W        W11867   9.572  13.286   0.825
40142W        W11868   0.997  18.986  12.479
40143W        W11869   7.752  36.109  11.066
40144W        W11870  44.411   6.095  13.515
40145W        W11871  10.749   1.825  14.927
40146W        W11872  30.325  17.392  11.240
40147W        W11873  13.982  43.227  14.442
40148W        W11874  24.816   9.200   1.514
40149W        W11875  27.598   6.902   0.017
40150W        W11876  16.847  23.642   1.497
40151W        W11877   9.264  23.047   4.183
40152W        W11878  16.750   1.048   4.207
40153W        W11879  21.087   3.610   4.317
40154W        W11880  36.556   2.457   3.008
40155W        W11881  29.182  30.440  10.653
40156W        W11882  41.867  13.603   3.251
40157W        W11883  15.165   8.407  10.696
40158W        W11884  35.736  29.605   1.247
40159W        W11885  19.392  17.767   4.940
40160W        W11886  42.454  36.312   3.772
40161W        W11887  20.741   3.483  14.438
40162W        W11888  39.487  22.512  13.299
40163W        W11889  15.750   4.232   2.388
40164W        W11890  23.783  34.111  13.549
40165W        W11891  41.114  26.620  13.545
40166W        W11892  42.455   7.579   4.721
40167W        W11893  22.043  23.070   2.651
40168W        W11894  17.103   6.448   3.760
40169W        W11895   3.298  27.026  11.399
40170W        W11896   9.954  23.789  12.972
40171W        W11897  44.076  29.629  13.311
40172W        W11898   0.809  35.439   3.342
40173W        W11899  27.965  42.519  12.129
40174W        W11900  41.259  38.945   2.155
40175W        W11901   4.864  34.353  11.571
40176W        W11902   8.660  32.336   5.102
40177W        W11903  24.533   1.401   3.300
40178W        W11904  27.445  28.377  13.410
40179W        W11905  35.017  33.637   0.834
40180W        W11906  13.218   1.379  11.223
40181W        W11907   5.598  19.095   2.647
40182W        W11908   9.804  19.121  12.162
40183W        W11909  30.119  21.695   3.250
40184W        W11910  16.163  36.533   0.941
40185W        W11911  32.203  44.853  12.407
40186W        W11912   0.697   3.915  12.710
40187W        W11913  17.700  37.543  14.441
40188W        W11914  18.601  42.567   0.397
40189W        W11915  28.258  13.191  13.990
40190W        W11916  24.002   9.618  13.406
40191W        W11917   9.280  30.490   0.659
40192W        W11918  22.006   2.452  11.128
40193W        W11919   8.523  37.432   4.725
40194W        W11920  22.774   8.816   2.769
40195W        W11921  41.780   8.737   9.766
40196W        W11922  26.611  44.926  13.467
40197W        W11923   5.884  21.612  12.381
40198W        W11924  16.257  24.441   1.223
40199W        W11925   7.173  25.963   2.885
40200W        W11926  41.841  19.421   3.128
40201W        W11927  29.510   9.377  11.539
40202W        W11928  14.938  26.982  10.565
40203W        W11929   6.879  20.005   3.869
40204W        W11930  15.663  39.202   1.141
40205W        W11931  36.016  22.583   4.642
40206W        W11932  20.787  22.149  13.353
40207W        W11933  44.724  38.428  12.995
40208W        W11934  13.638  33.047   1.349
40209W        W11935  44.467  16.420   0.337
40210W        W11936  36.307  39.035  14.476
40211W        W11937   5.424  35.049  11.924
40212W        W11938  41.277  20.198  11.381
40213W        W11939  18.757  35.810   0.858
40214W        W11940  36.724   0.746   3.743
40215W        W11941  32.043  26.947  11.890
40216W        W11942  21.714  22.962  14.031
40217W        W11943  16.815  37.548   5.118
40218W        W11944  37.906  34.445  11.805
40219W        W11945  12.858  16.823  11.672
40220W        W11946  30.598  40.185   3.614
40221W        W11947  44.957   3.357   2.114
40222W        W11948  32.621   4.751   4.355
40223W        W11949  21.057   5.197  12.698
40224W        W11950   6.529   7.945   2.704
40225W        W11951  44.012   2.399  12.955
40226W        W11952  22.896   0.889  14.295
40227W        W11953  38.364  20.871  12.021
40228W        W11954  16.555  43.087   2.364
40229W        W11955  36.536  33.348  11.512
40230W        W11956   7.820   0.822   3.499
40231W        W11957  32.690   8.714   0.418
40232W        W11958  24.119  23.221   3.566
40233W        W11959  28.941  37.236  13.852
40234W        W11960   5.690  22.514  14.447
40235W        W11961  32.792  12.750  14.579
40236W        W11962  27.076  33.646   4.492
40237W        W11963  27.026  29.475   1.011
40238W        W11964  14.491  11.525  10.332
40239W        W11965  35.938  38.591  11.532
40240W        W11966  21.621  16.866  14.475
40241W        W11967  25.015  21.522  12.591
40242W        W11968  11.635  44.330  11.533
40243W        W11969  29.577  24.956   2.115
40244W        W11970  27.430  16.325  10.732
40245W        W11971  20.567  19.284   4.118
40246W        W11972  27.926   8.885  11.139
40247W        W11973   9.097  26.178   2.870
40248W        W11974  32.626  14.336  13.523
40249W        W11975  16.144  28.722  14.325
40250W        W11976  17.545  28.810  14.568
40251W        W11977  42.682  15.688  14.769
40252W        W11978  39.673  28.613   3.739
40253W        W11979  40.572  13.196   1.282
40254W        W11980  28.512  37.435   3.727
40255W        W11981  26.858  11.675   4.699
40256W        W11982   9.164  27.262  13.442
40257W        W11983   9.100  24.231   4.542
40258W        W11984   2.776  36.876   4.618
40259W        W11985   3.252  26.428  12.933
40260W        W11986  18.639  40.093  14.323
40261W        W11987  35.240  39.919  11.546
40262W        W11988   3.400   0.390   1.234
40263W        W11989   6.396   0.719  14.041
40264W        W11990  35.978  19.832  13.811
40265W        W11991  36.424  21.709   2.628
40266W        W11992  42.833  28.956   1.581
40267W        W11993   9.866   5.175  11.214
40268W        W11994  34.846  15.844  12.436
40269W        W11995  21.529  26.816   2.877
40270W        W11996  14.850  24.142  10.743
40271W        W11997  13.765  37.092   2.308
40272W        W11998   7.491  14.089  12.552
40273W        W11999  39.072  36.023   1.691
40274W        W12000  17.814  11.751  14.019
40275W        W12001  36.999  44.871  11.525
40276W        W12002   1.664  42.808  13.871
40277W        W12003   3.231  31.368  14.459
40278W        W12004  34.197  39.984  13.880
40279W        W12005  22.574   0.746  11.610
40280W        W12006  18.344  41.102   1.709
40281W        W12007  25.209   7.298   1.452
40282W        W12008  14.638  15.605   2.792
40283W        W12009  30.449  20.524   3.722
40284W        W12010  13.028  15.056   2.577
40285W        W12011   6.434  42.818  10.703
40286W        W12012  41.507  38.108  13.407
40287W        W12013  33.521   5.332  10.896
40288W        W12014   8.427  37.589   1.774
40289W        W12015  18.106  13.595   0.549
40290W        W12016  32.941  21.472   2.714
40291W        W12017   3.157  41.910  10.731
40292W        W12018   1.658   0.710  11.208
40293W        W12019   2.931  16.831   3.624
40294W        W12020  11.531  38.722  12.337
40295W        W12021   3.010  38.082  12.488
40296W        W12022  34.973   2.441  11.390
40297W        W12023  42.126  35.263   2.414
40298W        W12024  27.058  38.313   2.101
40299W        W12025  20.108  36.471  14.923
40300W        W12026  20.123   6.129   1.890
40301W        W12027  26.524  21.457  13.499
40302W        W12028  18.569  19.068   4.381
40303W        W12029  30.596   0.398  14.487
40304W        W12030   5.558   7.399   5.426
40305W        W12031  37.248  11.464  10.505
40306W        W12032  25.428   5.714  12.997
40307W        W12033   0.926  21.203  12.485
40308W        W12034  38.494  38.092   4.106
40309W        W12035  44.321  23.480  12.595
40310W        W12036  44.372  13.488   0.779
40311W        W12037  10.337   1.708  12.871
40312W        W12038  31.884   3.182  11.931
40313W        W12039   7.173  30.179   4.586
40314W        W12040   0.241  42.932  12.417
40315W        W12041   6.670  37.825  11.928
40316W        W12042   6.338  34.592  14.714
40317W        W12043   0.846  38.806  13.425
40318W        W12044  14.208  19.832  12.612
40319W        W12045  25.668  38.095  12.620
40320W        W12046  10.943   7.676  12.366
40321W        W12047  38.872  19.239  11.167
40322W        W12048  10.313  14.905   4.174
40323W        W12049  43.120  33.562   4.147
40324W        W12050  18.717  20.060   3.754
40325W        W12051  23.215  14.315   2.760
40326W        W12052  22.051  16.849   2.915
40327W        W12053  13.864   0.972   2.207
40328W        W12054  32.485   0.829  13.536
40329W        W12055  40.078  28.743   0.124
40330W        W12056  11.750  22.582  12.218
40331W        W12057  10.885  17.543  12.814
40332W        W12058  23.658  28.089  12.284
40333W        W12059  24.365  20.804   1.382
40334W        W12060  14.525  43.797  12.993
40335W        W12061   3.837  41.821   4.609
40336W        W12062  27.159  42.811   3.576
40337W        W12063   6.320  38.585   5.029
40338W        W12064   9.212  26.163   1.780
40339W        W12065  32.233  30.874  13.410
40340W        W12066  37.161  28.668  14.454
40341W        W12067  33.976  20.074   2.147
40342W        W12068  20.098  17.023  11.175
40343W        W12069  15.595  27.600  11.931
40344W        W12070  23.224  21.170  12.575
40345W        W12071  32.309  18.712  10.743
40346W        W12072  42.524   5.836   2.379
40347W        W12073   7.090  37.997   2.857
40348W        W12074  19.188  30.878  13.087
40349W        W12075   4.982  33.298   0.397
40350W        W12076  29.967  41.891  14.526
40351W        W12077  44.360  23.446  10.699
40352W        W12078  26.742   7.152  11.366
40353W        W12079  17.299  35.892  13.546
40354W        W12080  33.696  12.264  13.777
40355W        W12081   4.003   5.662   1.887
40356W        W12082  14.501  34.421  13.489
40357W        W12083   8.952  39.077   0.977
40358W        W12084  10.403   9.086   4.475
40359W        W12085   9.426  20.387  12.541
40360W        W12086  23.512  23.724   2.486
40361W        W12087   2.869  32.957  13.323
40362W        W12088  37.001  29.107  10.956
40363W        W12089  14.335  24.670   1.756
40364W        W12090  15.658  11.359  14.121
40365W        W12091  23.731  23.283   2.700
40366W        W12092   4.728   2.948  14.814
40367W        W12093  26.947  14.948  12.115
40368W        W12094  11.619  16.143  12.771
40369W        W12095   9.248  15.795  13.824
40370W        W12096  34.980   1.678  12.446
40371W        W12097  27.431   8.979   3.171
40372W        W12098  16.992  20.144  10.699
40373W        W12099  27.528   8.085  12.612
40374W        W12100   5.423   0.570  10.903
40375W        W12101  10.991   3.867   2.221
40376W        W12102  32.890  12.320  11.683
40377W        W12103   5.826  14.712  14.365
40378W        W12104  38.638   0.231  13.444
40379W        W12105  32.854  23.648   1.503
40380W        W12106   2.695   1.347  12.860
40381W        W12107  18.799  41.654  10.808
40382W        W12108  34.079  38.330  11.564
40383W        W12109  43.668  41.139  14.011
40384W        W12110  32.661  37.942  13.343
40385W        W12111  19.390   9.022   1.748
40386W        W12112  11.374  24.606   0.773
40387W        W12113  22.218  17.987  13.587
40388W        W12114  15.867  19.119  10.648
40389W        W12115  19.019  15.620   1.799
40390W        W12116  40.397  19.256  13.125
40391W        W12117  12.115   4.781   2.419
40392W        W12118   6.921  43.492   2.715
40393W        W12119  43.320  40.878   3.390
40394W        W12120   6.219  14.172   3.802
40395W        W12121  15.785  28.199   2.804
40396W        W12122   4.220   3.397  14.269
40397W        W12123  37.637  40.230   4.848
40398W        W12124  21.975  39.105  11.088
40399W        W12125  11.869  18.095  11.574
40400W        W12126  13.575  37.425   1.330
40401W        W12127  25.679   4.604   0.697
40402W        W12128  33.415  25.108  11.157
40403W        W12129  40.922  31.883   2.879
40404W        W12130  31.215  19.101   0.913
40405W        W12131  31.292  26.603  11.170
40406W        W12132   3.907  35.953  14.681
40407W        W12133   6.880  37.656   0.234
40408W        W12134  34.754  37.316   3.568
40409W        W12135  30.852  35.153  12.861
40410W        W12136  16.219  27.588  10.576
40411W        W12137  23.597  15.343   5.490
40412W        W12138  36.991  36.560   1.912
40413W        W12139   1.364  16.692  14.732
40414W        W12140   5.329  23.391  12.046
40415W        W12141  37.214  29.665   4.586
40416W        W12142   3.780  41.364   0.259
40417W        W12143  32.406  22.776   3.505
40418W        W12144  42.125  30.008  10.686
40419W        W12145  12.781  42.673  10.584
40420W        W12146  33.059  37.957  12.494
40421W        W12147  33.403  12.349   1.198
40422W        W12148   3.945  31.439   3.951
40423W        W12149  41.129  20.527  11.959
40424W        W12150  12.198  34.447   0.915
40425W        W12151  40.459  38.428   4.421
40426W        W12152  31.043   6.128   0.825
40427W        W12153  12.562  34.997  14.712
40428W        W12154   2.528  23.073  13.502
40429W        W12155  34.178   3.420  11.975
40430W        W12156  22.967   2.793   2.738
40431W        W12157   6.889  30.049  13.365
40432W        W12158   1.733   7.168   3.944
40433W        W12159   0.614  13.267   4.530
40434W        W12160  19.670   0.011  12.613
40435W        W12161   6.327  31.687   2.231
40436W        W12162  23.674  24.910   0.244
40437W        W12163  21.400  17.207   1.728
40438W        W12164  38.127  31.129  10.617
40439W        W12165   6.467  10.657  11.534
40440W        W12166  26.476  31.944   1.310
40441W        W12167   4.923  41.885  14.965
40442W        W12168  15.292  32.977   2.084
40443W        W12169   8.446  28.067  14.277
40444W        W12170  29.063  12.311   4.639
40445W        W12171  28.978   3.380   2.544
40446W        W12172  19.695  27.793  12.022
40447W        W12173  17.067  36.128  12.891
40448W        W12174  14.418  12.328  12.988
40449W        W12175  24.059  43.803   4.691
40450W        W12176   6.988  39.446  14.836
40451W        W12177  14.287  36.391  11.552
40452W        W12178  17.975   0.990   3.432
40453W        W12179  40.723   1.259   1.358
40454W        W12180  23.487  38.101   4.060
40455W        W12181   3.274  10.761  13.283
40456W        W12182  33.920  41.445   2.389
40457W        W12183  23.048  38.378  14.774
40458W        W12184  22.621  43.304   4.593
40459W        W12185  41.396  14.814   1.294
40460W        W12186  23.619  32.796  11.918
40461W        W12187  28.895  32.408   1.748
40462W        W12188   2.451  12.467   2.298
40463W        W12189  17.237   6.764  10.439
40464W        W12190  30.177  43.430   4.840
40465W        W12191  13.723   3.865  13.068
40466W        W12192  36.954  21.924  11.060
40467W        W12193   7.417  17.530  11.124
40468W        W12194  19.716   5.727   1.315
40469W        W12195   8.917  19.328   0.674
40470W        W12196  32.199  10.839  13.907
40471W        W12197  33.605   8.407  13.017
40472W        W12198  36.090  10.715  11.483
40473W        W12199  20.735  29.618  14.991
40474W        W12200  29.407   7.712  12.970
40475W        W12201  44.482  15.730  12.468
40476W        W12202  12.358  34.119   4.251
40477W        W12203  18.988  39.044   2.316
40478W        W12204  24.476  19.297   1.374
40479W        W12205  19.338  14.313   5.159
40480W        W12206  29.199  10.861  14.942
40481W        W12207  43.485  38.512   3.195
40482W        W12208  32.144   2.181  14.377
40483W        W12209  28.466  36.298   0.336
40484W        W12210  17.632  39.227  10.556
40485W        W12211   2.845  23.612  11.118
40486W        W12212  42.248  44.450   4.100
40487W        W12213   0.082  15.848  13.384
40488W        W12214  30.845  33.444   3.712
40489W        W12215  41.328  37.836   4.797
40490W        W12216  35.490  33.172  12.807
40491W        W12217  43.316  38.924  10.751
40492W        W12218  20.673  20.687  11.004
40493W        W12219  33.675   6.186   4.543
40494W        W12220  29.019  35.658   3.682
40495W        W12221  30.054  12.192  11.720
40496W        W12222  43.577  16.308   0.435
40497W        W12223   9.180  31.899   1.847
40498W        W12224  19.193   0.049  12.440
40499W        W12225  16.164  40.794  11.564
40500W        W12226  14.392  15.852  11.996
40501W        W12227   5.862  29.389  12.421
40502W        W12228   3.181  31.679  11.199
40503W        W12229  18.506  32.469  13.931
40504W        W12230  29.369  17.623   1.733
40505W        W12231  21.806   5.879  12.723
40506W        W12232  19.143  21.533   3.298
40507W        W12233  23.748  22.866  12.592
40508W        W12234   8.452  31.077  14.218
40509W        W12235  20.329  33.625   2.368
40510W        W12236  39.495  14.231   3.206
40511W        W12237  10.416  28.422  13.832
40512W        W12238  23.248  43.960  10.997
40513W        W12239  12.108  12.238  11.491
40514W        W12240  17.730   3.473  13.015
40515W        W12241  13.065  14.319   0.995
40516W        W12242  15.283  12.488   2.828
40517W        W12243  10.192  43.883   3.415
40518W        W12244  42.264  42.862   1.403
40519W        W12245   1.594  18.505  11.217
40520W        W12246  25.528  30.976   3.456
40521W        W12247  15.705  39.931   1.747
40522W        W12248  27.198   7.890  12.999
40523W        W12249  27.974   2.926  11.125
40524W        W12250  39.420   8.752  10.581
40525W        W12251  36.502  22.289   3.330
40526W        W12252  35.722   4.847  12.007
40527W        W12253  11.824  27.068   1.817
40528W        W12254  17.744   5.823   1.349
40529W        W12255  22.504  23.054  11.488
40530W        W12256  15.482   9.033  14.509
40531W        W12257  37.457  12.851   1.845
40532W        W12258  39.132  14.437   1.680
40533W        W12259  13.182  40.745  11.582
40534W        W12260  10.718  11.988   4.604
40535W        W12261   0.563  26.845   3.788
40536W        W12262  29.925  41.030  11.917
40537W        W12263  29.677  26.594  12.488
40538W        W12264   8.096   3.940  13.990
40539W        W12265  26.537   6.610  14.472
40540W        W12266   3.922   7.359   0.472
40541W        W12267   3.069   0.723   3.381
40542W        W12268  39.940  43.637  11.911
40543W        W12269  17.059  30.847  13.383
40544W        W12270  29.637  29.574   2.706
40545W        W12271  36.171  25.761   1.369
40546W        W12272   7.920  36.296   2.750
40547W        W12273  22.645   0.335   1.413
40548W        W12274   6.739   5.879   0.581
40549W        W12275  37.984   2.963   1.214
40550W        W12276  36.329  41.011  13.869
40551W        W12277  33.109  16.614  13.027
40552W        W12278  20.221  44.161   3.678
40553W        W12279   5.165  28.673   1.205
40554W        W12280  25.674  13.598  14.000
40555W        W12281  16.542  18.657  12.140
40556W        W12282  10.064  22.843  14.443
40557W        W12283  38.947  40.594   2.762
40558W        W12284   4.811   3.376  11.534
40559W        W12285  21.564  17.074  14.976
40560W        W12286  42.010   8.685   0.065
40561W        W12287  35.067  12.043   0.685
40562W        W12288  38.971  30.921  12.960
40563W        W12289  42.383   6.437  11.935
40564W        W12290   1.622   4.402  13.964
40565W        W12291  11.151   4.782   3.405
40566W        W12292  42.811  42.737  11.734
40567W        W12293  35.974  37.905  10.500
40568W        W12294  16.198   4.256   3.149
40569W        W12295  29.053  21.182  14.056
40570W        W12296  42.241   2.979   4.382
40571W        W12297  19.142  38.395  14.824
40572W        W12298  40.596  26.727  11.545
40573W        W12299  21.126  36.620  14.837
40574W        W12300  41.452   8.675   3.008
40575W        W12301  29.165  26.021   2.613
40576W        W12302  29.676  16.725   0.762
40577W        W12303   3.496  23.225   1.789
40578W        W12304  25.532  20.517   1.881
40579W        W12305  33.651  15.761   2.773
40580W        W12306   2.050  30.412   3.249
40581W        W12307  35.554   0.472  11.671
40582W        W12308  33.520  16.860  10.714
40583W        W12309  10.975  10.302   2.172
40584W        W12310  17.796   4.686   2.366
40585W        W12311  34.628  26.491  11.178
40586W        W12312  34.456  33.667  13.399
40587W        W12313   7.442   1.861   3.168
40588W        W12314  16.101   1.368   3.244
40589W        W12315  41.405  34.649   0.070
40590W        W12316  22.325  43.361   2.873
40591W        W12317  27.696  18.585   3.242
40592W        W12318  40.332  34.988   5.151
40593W        W12319  36.896  10.230   2.778
40594W        W12320  23.502  23.562  12.115
40595W        W12321  10.225  44.458  12.429
40596W        W12322  40.365   6.758   4.180
40597W        W12323  29.361   6.352   3.613
40598W        W12324  27.704  27.178  11.648
40599W        W12325   1.630  34.990   1.365
40600W        W12326  16.832  12.010   1.190
40601W        W12327   6.810  30.497  13.072
40602W        W12328  13.462  37.598  11.558
40603W        W12329   2.635  13.148  13.423
40604W        W12330  39.886  16.435  13.227
40605W        W12331   6.907   4.400  13.570
40606W        W12332  18.447  20.453   1.818
40607W        W12333  44.018   1.456   2.196
40608W        W12334  20.717  34.941   2.308
40609W        W12335  18.668   1.809   5.076
40610W        W12336  14.726  43.984   1.533
40611W        W12337  24.481  40.713  14.123
40612W        W12338  33.604  20.671  11.514
40613W        W12339  28.776  25.769   2.389
40614W        W12340  25.928  15.099  15.000
40615W        W12341  32.465  28.319   0.530
40616W        W12342  43.816   2.751   2.707
40617W        W12343  30.682  24.906   1.340
40618W        W12344   1.941  34.509   0.721
40619W        W12345   8.883   2.881   1.018
40620W        W12346  20.152  12.894  14.645
40621W        W12347   1.735  33.077  13.050
40622W        W12348  19.292  13.115   3.605
40623W        W12349  16.525   2.989   4.170
40624W        W12350   7.400  33.995   4.639
40625W        W12351  13.719  13.641   0.700
40626W        W12352   5.014  36.095   3.804
40627W        W12353  10.554  28.657  12.059
40628W        W12354  28.617  42.772  10.402
40629W        W12355  12.857  38.895   3.199
40630W        W12356  30.077  11.761  12.018
40631W        W12357  23.110   9.352  13.862
40632W        W12358  11.768  38.572   0.386
40633W        W12359  22.710  10.711  10.666
40634W        W12360  17.113  23.114   2.252
40635W        W12361  11.700  12.136   4.209
40636W        W12362  43.449  15.581   4.398
40637W        W12363  21.202  43.735  13.942
40638W        W12364  36.099  41.449   2.313
40639W        W12365  19.925   9.634  14.054
40640W        W12366  39.989   8.995   4.533
40641W        W12367  13.299  11.606  10.721
40642W        W12368  10.453   0.727  14.338
40643W        W12369  16.330  44.415   3.672
40644W        W12370   3.986  43.851   1.395
40645W        W12371   5.266  17.486  10.209
40646W        W12372   8.904   9.324   2.233
40647W        W12373   9.664  12.603  12.885
40648W        W12374  36.088  39.145  10.228
40649W        W12375  40.401  11.597  11.449
40650W        W12376  44.972  21.333  14.850
40651W        W12377   2.266  24.429  14.736
40652W        W12378   6.912   4.362  14.573
40653W        W12379  26.741  13.917   4.246
40654W        W12380  44.566  36.084   3.790
40655W        W12381  17.146  13.819  14.235
40656W        W12382  30.909  33.339  14.801
40657W        W12383  14.864  29.213  10.817
40658W        W12384  25.578   3.437   3.131
40659W        W12385  44.793  33.635   1.916
40660W        W12386   6.175  10.752  11.103
40661W        W12387  37.447  41.896   4.196
40662W        W12388  21.539  37.975  13.379
40663W        W12389   4.209  26.102  11.022
40664W        W12390  30.897  23.432   4.678
40665W        W12391  17.143   5.217  12.095
40666W        W12392  33.672  29.124  12.966
40667W        W12393  29.557   8.899  10.614
40668W        W12394  12.152  11.633   3.383
40669W        W12395  26.697  17.628   4.082
40670W        W12396  31.017   2.540  13.376
40671W        W12397  34.411  44.015  14.296
40672W        W12398  42.371  31.550  13.567
40673W        W12399  43.736   8.908  14.298
40674W        W12400  19.442  24.708   2.675
40675W        W12401  21.839  18.224   4.076
40676W        W12402   1.360  24.262  10.651
40677W        W12403  17.107  19.627   4.574
40678W        W12404   7.025  38.120   4.270
40679W        W12405  25.129   3.337  12.455
40680W        W12406  23.964  44.762  12.525
40681W        W12407  28.446  42.445   1.413
40682W        W12408   4.406  44.671  12.064
40683W        W12409  33.603   9.231  11.342
40684W        W12410  32.029  40.071   2.394
40685W        W12411  22.070  32.042  13.858
40686W        W12412   4.855  16.385  14.364
40687W        W12413   4.474  22.956   2.837
40688W        W12414  43.118  24.232   5.101
40689W        W12415  27.434   4.129  14.280
40690W        W12416   4.772  10.678   4.189
40691W        W12417   2.351  34.470  12.045
40692W        W12418  20.689  21.654   4.519
40693W        W12419  43.501  15.244   0.678
40694W        W12420  22.991  29.571  12.894
40695W        W12421  26.593  34.698   4.338
40696W        W12422  28.711  29.057   0.682
40697W        W12423  26.553  30.114   1.001
40698W        W12424  13.262  25.963  11.550
40699W        W12425   0.775   8.592   3.681
40700W        W12426  30.892  17.615   0.657
40701W        W12427   0.873  34.402   2.175
40702W        W12428  30.987  31.081  14.922
40703W        W12429   2.403   6.850  14.326
40704W        W12430  26.883  29.083   3.331
40705W        W12431  25.008  31.089   3.749
40706W        W12432  24.081  28.327  11.253
40707W        W12433  26.957   1.214   2.720
40708W        W12434   3.957  19.476  12.557
40709W        W12435  43.937  36.084  14.488
40710W        W12436   5.240   1.235   4.479
40711W        W12437   7.802   6.285  14.993
40712W        W12438  31.302  41.987  12.930
40713W        W12439  44.143  24.665  12.031
40714W        W12440  26.265   7.220  12.856
40715W        W12441  21.298  25.734  12.408
40716W        W12442  29.472  28.067  13.159
40717W        W12443   7.166   3.636  12.395
40718W        W12444   3.787  31.937   4.093
40719W        W12445  19.297  19.766   2.364
40720W        W12446  11.543  39.565   1.534
40721W        W12447  23.066   9.740  11.520
40722W        W12448   7.102  40.923  10.676
40723W        W12449  35.731  34.558  12.480
40724W        W12450  25.709   8.272   4.179
40725W        W12451   6.679  22.011  13.480
40726W        W12452  28.446  39.436   1.944
40727W        W12453  42.620  31.204  10.731
40728W        W12454  42.347   5.228  13.429
40729W        W12455  35.134  21.185   1.331
40730W        W12456   5.069  32.619  13.943
40731W        W12457   1.354  40.241  14.901
40732W        W12458  37.896  42.428  10.623
40733W        W12459  17.605   5.577  11.215
40734W        W12460  33.689  25.438  12.451
40735W        W12461  42.788  21.907  11.242
40736W        W12462  32.016   0.549   2.178
40737W        W12463  41.275  43.403   2.108
40738W        W12464  13.417  29.667  11.536
40739W        W12465  36.816  14.325   3.163
40740W        W12466  12.851  27.455  14.766
40741W        W12467  23.509  26.187  10.056
40742W        W12468  12.772   4.731  13.725
40743W        W12469  41.347  30.996   3.397
40744W        W12470  38.342  20.727  11.543
40745W        W12471  16.021  32.858   2.381
40746W        W12472  30.918  24.707   4.846
40747W        W12473  38.460  35.130   1.920
40748W        W12474  22.006  19.186   2.274
40749W        W12475  24.813  35.607  11.346
40750W        W12476  19.238  18.452  10.745
40751W        W12477  28.523  42.233   4.197
40752W        W12478  44.698   7.258   4.605
40753W        W12479  27.433  30.241   3.972
40754W        W12480  11.635   9.295   2.402
40755W        W12481  10.214  27.126  10.644
40756W        W12482  25.440  42.014  12.633
40757W        W12483   2.500   7.588  11.535
40758W        W12484   0.740  30.112  12.923
40759W        W12485  36.844  12.145   0.333
40760W        W12486  22.987  28.727  12.290
40761W        W12487  14.262  42.111   2.455
40762W        W12488   4.967  20.250  11.544
40763W        W12489  40.147  38.424  14.385
40764W        W12490   3.780   9.910   3.399
40765W        W12491   8.288  37.925   4.608
40766W        W12492   3.485   5.675   3.403
40767W        W12493  19.939   2.936   3.722
40768W        W12494   7.786  19.505  11.216
40769W        W12495  17.180  28.861  10.660
40770W        W12496  37.777  34.943  11.085
40771W        W12497  29.658  18.541   0.274
40772W        W12498  39.046  35.739   2.590
40773W        W12499  38.551  26.522  11.878
40774W        W12500  22.942  14.468  12.006
40775W        W12501  37.874   3.757  10.685
40776W        W12502  14.570  40.379  11.985
40777W        W12503  21.366  29.459   4.155
40778W        W12504  40.740  38.540   3.729
40779W        W12505  36.564  31.921  11.550
40780W        W12506  22.794  25.657  11.548
40781W        W12507  27.124   0.480   0.534
40782W        W12508   2.655   9.594  12.864
40783W        W12509  32.223  24.366   3.988
40784W        W12510  23.103  23.045   3.635
40785W        W12511  17.793  26.224   3.619
40786W        W12512  13.681   0.532   2.424
40787W        W12513  14.868  36.163   2.599
40788W        W12514  30.643   1.184   2.168
40789W        W12515  11.110  11.269   2.347
40790W        W12516  20.766  35.586   4.009
40791W        W12517  17.225  29.597  14.860
40792W        W12518  27.541  12.069  14.387
40793W        W12519   5.878   5.410  11.339
40794W        W12520  10.464  43.748  10.743
40795W        W12521  32.478  27.698  13.796
40796W        W12522   8.812  16.718  14.918
40797W        W12523  20.463  22.260   1.377
40798W        W12524  18.312  44.164   2.350
40799W        W12525  13.045  19.280  11.836
40800W        W12526  43.463  41.054   1.337
40801W        W12527   8.776  38.549   0.626
40802W        W12528  42.476  38.950  12.652
40803W        W12529  39.952  41.090   4.488
40804W        W12530  15.281  40.874   0.721
40805W        W12531  25.104  42.034   2.411
40806W        W12532  38.172  23.933  14.023
40807W        W12533  30.628  10.242   1.191
40808W        W12534  12.485  30.631   4.960
40809W        W12535  30.026  40.983  11.111
40810W        W12536  41.994  34.155   2.618
40811W        W12537  22.452  15.069   0.674
40812W        W12538  28.988  36.893  12.359
40813W        W12539  34.565  28.219   3.362
40814W        W12540  43.291  43.532  13.313
40815W        W12541   7.976  32.160   0.484
40816W        W12542   9.706  42.885  14.982
40817W        W12543   9.850   8.955  12.060
40818W        W12544   7.861  40.584  14.919
40819W        W12545  31.116  37.483  13.838
40820W        W12546  17.032  20.168  13.891
40821W        W12547  21.271   2.818   1.721
40822W        W12548  28.425  40.932  10.731
40823W        W12549   1.028  39.284   2.728
40824W        W12550  23.479  42.446  11.937
40825W        W12551  20.989  23.986   3.311
40826W        W12552  34.385  14.129   0.748
40827W        W12553   8.322  31.100  11.694
40828W        W12554  14.543  24.151   4.587
40829W        W12555   6.312   8.953   2.285
40830W        W12556  17.236  27.459  12.468
40831W        W12557  29.094  41.797   2.012
40832W        W12558  29.434  40.828   0.462
40833W        W12559  37.492  29.713   1.713
40834W        W12560  20.310  34.979  13.327
40835W        W12561  21.823  19.120  14.534
40836W        W12562  17.468  27.299   1.287
40837W        W12563  40.629  38.859  11.102
40838W        W12564   5.934  37.341   2.446
40839W        W12565   6.129   8.075  12.008
40840W        W12566  10.479  22.675   1.651
40841W        W12567  28.199   4.593   0.024
40842W        W12568  14.167  28.923  11.567
40843W        W12569  40.565  28.448   1.910
40844W        W12570  26.136   3.130   4.937
40845W        W12571  22.157  33.959  13.675
40846W        W12572  21.614   1.805  11.552
40847W        W12573  13.319  14.613   3.836
40848W        W12574  12.199  36.085   0.255
40849W        W12575  15.555  27.718   2.809
40850W        W12576  43.326  36.636   2.773
40851W        W12577  27.147   1.376  13.397
40852W        W12578   8.049  21.537  11.583
40853W        W12579  39.076  24.206  11.961
40854W        W12580  37.861  36.406   0.850
40855W        W12581  27.121  12.451  11.195
40856W        W12582  39.791  33.083   3.738
40857W        W12583  26.339   1.487   0.935
40858W        W12584  10.776  34.960  13.067
40859W        W12585  22.042   1.938   4.327
40860W        W12586  26.070  39.450   2.352
40861W        W12587  32.505  29.683  14.756
40862W        W12588   5.840  16.097  12.508
40863W        W12589  38.786  33.113  13.969
40864W        W12590  29.990  25.547   4.050
40865W        W12591   5.120  11.371   3.409
40866W        W12592  39.139   0.908  11.181
40867W        W12593  20.682  27.089   2.328
40868W        W12594   2.613  11.939  12.531
40869W        W12595  31.680  15.772  11.500
40870W        W12596   3.206  32.444   1.403
40871W        W12597  16.532   1.536   4.120
40872W        W12598  12.594  29.539  14.783
40873W        W12599  43.382   4.088  12.339
40874W        W12600  10.209  27.077   1.671
40875W        W12601  14.217  28.955   4.329
40876W        W12602   0.772   5.022   0.989
40877W        W12603  17.092  29.579  11.698
40878W        W12604  42.691  40.809  13.874
40879W        W12605  18.534  26.932  12.536
40880W        W12606  40.321  23.882  10.897
40881W        W12607  41.269  23.476  13.938
40882W        W12608   6.028   6.976  14.817
40883W        W12609  26.582  21.614   0.677
40884W        W12610  26.512   8.608   3.291
40885W        W12611  44.236  23.076  14.935
40886W        W12612  26.564   2.235   2.307
40887W        W12613  10.056  32.646  14.406
40888W        W12614  15.703  22.248  13.934
40889W        W12615  14.634  13.144   4.293
40890W        W12616  21.582   6.005   0.347
40891W        W12617   3.430  26.919  14.735
40892W        W12618  40.009  16.203  14.579
40893W        W12619   5.551  23.726  12.982
40894W        W12620  34.685  11.234   0.582
40895W        W12621  14.735  12.324   4.710
40896W        W12622  26.948  41.296   2.888
40897W        W12623  37.044  36.919  12.559
40898W        W12624   8.535  29.704  14.924
40899W        W12625  40.469  29.489   4.503
40900W        W12626   0.201   5.152   2.746
40901W        W12627  31.000  39.081   0.321
40902W        W12628  41.438  18.097  10.608
40903W        W12629  11.130  36.501  14.541
40904W        W12630  16.444   5.323  12.520
40905W        W12631  17.527  39.912   2.333
40906W        W12632  10.828  16.075   4.624
40907W        W12633   9.843  34.017  10.207
40908W        W12634  14.642  15.585   1.915
40909W        W12635  33.212  23.038  12.969
40910W        W12636  12.015  29.388   2.136
40911W        W12637  22.710  11.635   1.275
40912W        W12638  31.055  12.252  13.384
40913W        W12639  21.535  37.845  11.354
40914W        W12640  30.966  32.943   4.584
40915W        W12641  28.976   4.958   1.524
40916W        W12642  33.080  19.212   0.328
40917W        W12643  30.948   1.930  11.633
40918W        W12644  38.779  44.076  14.082
40919W        W12645  24.162  42.559  13.165
40920W        W12646  42.300  10.379  12.666
40921W        W12647  13.861   6.766  14.263
40922W        W12648  12.563  20.336   4.601
40923W        W12649  19.857  33.595  13.981
40924W        W12650  39.768   2.286   2.236
40925W        W12651  12.654   9.214   2.606
40926W        W12652  34.654  41.800   3.810
40927W        W12653   0.428  15.224   2.221
40928W        W12654  31.042  23.366   5.167
40929W        W12655  11.563  20.481   1.857
40930W        W12656  39.851  17.021   1.168
40931W        W12657  25.641  27.081  11.339
40932W        W12658  14.111   1.193   3.189
40933W        W12659  36.982  44.802  13.469
40934W        W12660  41.275  16.605  14.296
40935W        W12661  26.894  13.677  11.632
40936W        W12662   7.797  32.872  14.367
40937W        W12663  28.404  13.404  11.519
40938W        W12664  13.138  31.550   2.266
40939W        W12665  15.209  10.989   4.563
40940W        W12666  18.314  19.070  13.427
40941W        W12667   6.480  18.622  11.085
40942W        W12668  36.078  23.774   0.357
40943W        W12669   7.770  10.124  10.285
40944W        W12670  35.152   4.821   0.091
40945W        W12671  28.757  21.645  14.914
40946W        W12672  21.662  26.166   0.817
40947W        W12673  25.427  10.561   1.843
40948W        W12674  15.896  37.776   0.877
40949W        W12675  21.028  28.236   4.938
40950W        W12676  35.345  43.044   1.303
40951W        W12677  16.751  14.098   3.281
40952W        W12678   7.331  36.426   2.061
40953W        W12679   1.793  23.461  13.360
40954W        W12680  35.846  27.207  10.997
40955W        W12681  19.616  11.487   3.657
40956W        W12682   9.098  18.800  14.802
40957W        W12683  15.368   6.722   2.775
40958W        W12684   4.625  16.180   1.716
40959W        W12685  13.576  33.080  14.969
40960W        W12686  42.795  28.488   4.416
40961W        W12687   2.796   5.446   4.596
40962W        W12688   5.334  29.146   1.651
40963W        W12689  39.779  25.202   3.669
40964W        W12690  15.274  13.394   0.585
40965W        W12691  11.333  19.107  13.847
40966W        W12692  39.497  14.295  14.051
40967W        W12693  16.209  13.087  10.648
40968W        W12694  11.607  27.099   3.408
40969W        W12695   8.434  24.661   0.064
40970W        W12696  21.222  17.620   2.405
40971W        W12697  24.090  43.575  14.873
40972W        W12698  44.155   3.077   0.928
40973W        W12699  17.150  30.719   0.767
40974W        W12700  22.580  13.528  11.187
40975W        W12701  20.938  41.345  10.549
40976W        W12702  18.561  37.133  11.118
40977W        W12703  39.107  42.338   3.625
40978W        W12704  22.980  40.769   0.294
40979W        W12705   9.673  41.031  14.823
40980W        W12706   1.197  17.224   3.648
40981W        W12707  44.897   7.731   2.870
40982W        W12708  37.479  42.214   0.346
40983W        W12709  22.065  30.423  10.731
40984W        W12710   0.745  39.933  13.126
40985W        W12711   3.050  26.928   2.453
40986W        W12712  18.764  38.757   4.499
40987W        W12713  23.111   7.008   2.628
40988W        W12714   4.008  11.286  11.134
40989W        W12715  27.820   2.950   4.001
40990W        W12716   9.250  17.552  11.959
40991W        W12717  24.877  15.263  10.662
40992W        W12718  12.896  43.934   0.409
40993W        W12719   9.853   2.381  10.981
40994W        W12720  27.574  27.037   2.868
40995W        W12721  34.746   8.482   1.783
40996W        W12722   9.655  33.691  14.466
40997W        W12723  36.723  32.016  13.699
40998W        W12724  40.429  44.309  13.770
40999W        W12725   9.861  38.438  11.165
41000W        W12726   1.756   6.326   1.874
41001W        W12727  35.901  33.336   2.612
41002W        W12728   4.963  29.070  13.291
41003W        W12729  32.873  34.129   1.497
41004W        W12730  17.817  42.996  12.995
41005W        W12731  19.669  36.413  14.149
41006W        W12732  37.770  24.033   3.661
41007W        W12733  11.332  28.155  11.580
41008W        W12734   1.406  15.302  14.383
41009W        W12735  34.885  29.979   4.386
41010W        W12736  24.223  15.353   1.162
41011W        W12737  28.202  43.971  13.823
41012W        W12738  10.861  13.358   3.605
41013W        W12739   3.882  19.290   1.744
41014W        W12740  18.789  36.304   0.262
41015W        W12741   3.709  35.987  12.412
41016W        W12742   0.350  22.949   0.349
41017W        W12743   6.936  17.066   2.308
41018W        W12744  11.942  39.791  13.735
41019W        W12745  44.449  22.601  14.999
41020W        W12746   1.993  34.104   2.615
41021W        W12747   3.417  26.063  14.802
41022W        W12748  20.970  10.252   1.401
41023W        W12749  21.380  19.522   3.090
41024W        W12750   6.460  37.300  13.720
41025W        W12751   2.926  18.693  11.551
41026W        W12752  21.058  18.712  10.787
41027W        W12753   8.097  33.575   4.997
41028W        W12754  35.581   3.406  13.349
41029W        W12755   2.647  18.680   2.272
41030W        W12756  13.438  38.492  14.922
41031W        W12757   4.420  24.850   2.041
41032W        W12758  42.918  39.391  14.338
41033W        W12759  14.981  14.184  12.012
41034W        W12760   7.295  41.254  12.011
41035W        W12761   7.652  44.541   1.674
41036W        W12762  26.712  16.837   4.546
41037W        W12763  38.112  16.108  12.481
41038W        W12764   0.230  24.550  10.993
41039W        W12765   8.284  12.532  10.438
41040W        W12766  19.050  43.048   2.702
41041W        W12767  16.363   3.953  14.259
41042W        W12768  24.421   1.835  12.965
41043W        W12769   2.202  24.146  12.940
41044W        W12770  17.857  27.161  12.027
41045W        W12771   3.289  41.404  14.044
41046W        W12772  34.300  30.804  13.959
41047W        W12773  28.193   2.003   2.197
41048W        W12774   3.813  15.488   1.836
41049W        W12775  20.516  36.982  12.190
41050W        W12776  24.562  35.485   0.509
41051W        W12777   3.630  33.899  10.856
41052W        W12778  39.216  22.402  11.802
41053W        W12779   3.695  10.336   1.470
41054W        W12780  43.499   9.369  11.671
41055W        W12781  27.462  43.404   2.486
41056W        W12782   5.915  41.990   0.020
41057W        W12783  28.274   9.331   3.137
41058W        W12784   7.322  25.858  11.587
41059W        W12785  36.175  32.474   1.467
41060W        W12786  29.672  31.931   0.705
41061W        W12787  15.382  18.068   1.438
41062W        W12788  44.767  34.545  14.367
41063W        W12789  26.075  25.490   1.164
41064W        W12790   7.653  13.643   5.108
41065W        W12791  44.257   3.566   0.236
41066W        W12792  42.736  30.184  14.034
41067W        W12793  13.762   3.444   1.638
41068W        W12794  27.576  20.894  14.085
41069W        W12795   6.150   6.275   1.776
41070W        W12796  40.722   7.429  12.487
41071W        W12797  35.621  22.023   4.241
41072W        W12798  38.987   3.222  14.303
41073W        W12799   8.618  35.593   0.848
41074W        W12800   7.647  38.019   0.258
41075W        W12801  37.107  21.078  14.086
41076W        W12802   4.912  11.601  12.067
41077W        W12803   2.374  13.592  13.346
41078W        W12804   8.945  26.704   4.108
41079W        W12805  32.539  21.206   1.817
41080W        W12806  23.778  26.649  10.241
41081W        W12807   0.808  20.704  14.175
41082W        W12808   0.726  23.420   2.791
41083W        W12809  12.670  13.297   2.622
41084W        W12810   8.243  33.625   1.945
41085W        W12811   6.681  12.222   3.734
41086W        W12812  33.224  37.225  13.857
41087W        W12813  27.716   5.206   0.783
41088W        W12814  43.965  10.734  13.701
41089W        W12815  28.161   2.452  12.075
41090W        W12816  27.750  28.975   1.833
41091W        W12817   2.519  36.592  12.508
41092W        W12818  15.817  19.544   2.234
41093W        W12819  22.120  20.355  11.515
41094W        W12820  35.426  31.593   2.927
41095W        W12821  41.757  15.513   3.968
41096W        W12822  11.686  13.296  14.888
41097W        W12823  19.606  31.437  13.488
41098W        W12824  36.670  42.499   0.824
41099W        W12825  17.202   9.447  13.345
41100W        W12826   2.285  26.675  11.615
41101W        W12827  27.390  30.600   2.370
41102W        W12828  30.082  23.749  11.579
41103W        W12829   2.613  32.061   0.724
41104W        W12830  14.086  26.903   5.092
41105W        W12831  41.457  18.245   1.325
41106W        W12832  17.767  42.006  13.725
41107W        W12833  19.740  10.065  14.371
41108W        W12834  26.495  39.691   2.626
41109W        W12835  44.720  27.959   1.438
41110W        W12836   9.277  18.340   3.610
41111W        W12837  16.358   9.679  12.594
41112W        W12838  23.701  44.520  13.453
41113W        W12839  39.063  39.786   2.163
41114W        W12840  38.455   4.486  13.242
41115W        W12841  26.863  26.995  11.958
41116W        W12842  29.064  28.008  14.246
41117W        W12843  25.386  41.342  11.516
41118W        W12844  40.868  13.220   4.617
41119W        W12845  29.986  29.051  13.873
41120W        W12846  13.583  35.910   0.288
41121W        W12847   4.550  17.640  11.355
41122W        W12848  25.235  26.131   0.070
41123W        W12849   2.244  10.630  10.814
41124W        W12850  42.004  10.160  13.027
41125W        W12851  29.080  33.345   0.411
41126W        W12852  39.751  39.082   2.338
41127W        W12853  39.291  27.638  10.935
41128W        W12854   0.660   1.021   1.903
41129W        W12855   9.413  18.499  14.359
41130W        W12856   1.107  43.478   1.539
41131W        W12857  43.428   8.337   4.784
41132W        W12858   2.896   3.656  14.791
41133W        W12859  37.416  40.480   2.931
41134W        W12860  29.096  23.771  12.531
41135W        W12861  32.375  35.949  13.784
41136W        W12862  37.993  26.201   3.843
41137W        W12863  30.114  36.002  13.579
41138W        W12864   6.662  26.103   0.900
41139W        W12865  31.899  39.090   4.638
41140W        W12866  14.577   6.720  13.419
41141W        W12867  29.749  25.166  12.151
41142W        W12868  21.744  23.063   2.193
41143W        W12869   3.363  18.075  11.140
41144W        W12870  11.435   7.899   4.337
41145W        W12871  24.152   1.216   2.721
41146W        W12872   3.456  44.998  11.950
41147W        W12873  37.111   7.156  11.905
41148W        W12874  36.363   0.794  14.229
41149W        W12875   6.587  23.549   3.813
41150W        W12876  26.278   1.360   4.028
41151W        W12877   7.386  33.420   0.137
41152W        W12878  17.815   9.929  11.151
41153W        W12879  43.182   9.911  12.814
41154W        W12880  30.704  27.988   3.259
41155W        W12881   6.599  38.298  12.854
41156W        W12882  21.026   4.287   2.040
41157W        W12883  44.168  13.704   1.747
41158W        W12884  23.574  14.105  13.554
41159W        W12885  22.006   3.810  11.357
41160W        W12886  43.867  40.251  14.930
41161W        W12887  26.435  32.938   3.211
41162W        W12888  43.824  41.247  12.629
41163W        W12889  21.233  15.726  12.018
41164W        W12890   7.254  23.605  13.449
41165W        W12891  29.610  32.958  13.993
41166W        W12892  25.023  41.601  13.820
41167W        W12893  28.106  23.521   5.007
41168W        W12894  32.108   1.382   4.160
41169W        W12895   6.835  34.398   1.415
41170W        W12896  39.389  21.001   3.230
41171W        W12897  27.998  13.899  14.266
41172W        W12898   3.005   0.602  14.019
41173W        W12899  19.576  28.178   0.207
41174W        W12900  30.413  10.884   4.486
41175W        W12901  44.631  20.758   4.051
41176W        W12902  30.137  12.355   3.907
41177W        W12903   4.315  22.199  11.440
41178W        W12904  18.949  42.916   1.191
41179W        W12905  29.965  16.673  12.864
41180W        W12906  41.543  12.472  11.277
41181W        W12907   3.882   5.327   5.554
41182W        W12908  43.427  38.244  11.114
41183W        W12909  32.563  34.976   2.940
41184W        W12910  30.652  19.210   2.376
41185W        W12911  20.280  30.160   4.904
41186W        W12912  11.861  17.826   3.683
41187W        W12913   0.830   7.727   2.860
41188W        W12914  44.705  41.054  14.939
41189W        W12915  37.121   2.007  12.886
41190W        W12916  33.582  20.238  13.354
41191W        W12917  13.621  23.725  12.731
41192W        W12918  27.688  20.524   4.812
41193W        W12919  23.516  18.619   0.522
41194W        W12920  16.685  29.684   3.512
41195W        W12921  39.374  25.032   2.101
41196W        W12922  32.644  19.093  12.791
41197W        W12923  42.842  32.446   4.383
41198W        W12924   2.768   9.933   3.680
41199W        W12925  33.246  12.206   1.688
41200W        W12926  42.529  33.368   4.099
41201W        W12927   8.575  42.001   4.467
41202W        W12928  18.520  29.236   0.327
41203W        W12929   8.740  32.441   2.713
41204W        W12930  28.626  19.304   0.244
41205W        W12931  15.929  38.055   0.440
41206W        W12932   2.339  26.190   2.567
41207W        W12933  22.727   1.850  13.478
41208W        W12934  19.979  14.222  11.998
41209W        W12935  12.164   6.500   1.300
41210W        W12936  29.171  12.865   4.692
41211W        W12937  44.165  12.270  11.567
41212W        W12938  26.528   2.067   4.271
41213W        W12939  30.675  25.081   0.304
41214W        W12940  22.109   6.708   2.142
41215W        W12941  12.890   0.340   2.899
41216W        W12942  16.523  34.346  12.528
41217W        W12943  41.915  44.065  11.588
41218W        W12944   8.136   1.384  12.079
41219W        W12945  44.951  16.143   3.808
41220W        W12946  38.391  22.205   3.306
41221W        W12947  40.793   7.688  10.960
41222W        W12948  34.433  35.128  14.323
41223W        W12949  38.432  25.789   2.836
41224W        W12950  30.644  32.563   4.702
41225W        W12951  33.467  35.688  10.772
41226W        W12952   6.978  43.572   4.182
41227W        W12953   1.279  14.273   0.165
41228W        W12954  15.704  14.203  11.463
41229W        W12955  43.208  25.368  14.556
41230W        W12956  37.922  27.161  12.771
41231W        W12957  25.012  42.760  14.470
41232W        W12958  37.985   9.841  13.420
41233W        W12959  33.796   7.692   1.895
41234W        W12960  29.918  36.093   3.656
41235W        W12961  32.855   0.379   2.876
41236W        W12962  44.337  12.333   3.909
41237W        W12963  43.812   0.838   1.922
41238W        W12964  41.896  17.515  11.088
41239W        W12965  12.222   5.187  14.274
41240W        W12966  19.061  22.068   4.652
41241W        W12967  38.811  11.129  14.436
41242W        W12968  30.999  35.028  12.381
41243W        W12969  39.827  22.542  10.895
41244W        W12970  40.927  24.880  10.642
41245W        W12971   1.137  39.369  14.922
41246W        W12972  41.539  44.017  13.784
41247W        W12973  23.648  10.696  14.391
41248W        W12974  12.821  14.765   4.712
41249W        W12975  21.457  33.936   3.139
41250W        W12976  36.337  12.671  14.561
41251W        W12977  31.149   1.182   1.304
41252W        W12978  16.612  32.724  13.886
41253W        W12979  10.911  36.593   1.815
41254W        W12980  25.448  15.667  10.919
41255W        W12981  38.886   9.281  11.080
41256W        W12982  13.267  40.225  11.497
41257W        W12983  18.744  28.244   2.882
41258W        W12984   7.605  15.459   5.104
41259W        W12985  18.729  14.379   1.314
41260W        W12986  30.623  39.856  12.854
41261W        W12987   3.301  32.035  14.961
41262W        W12988   0.778  32.616   0.589
41263W        W12989  44.253   0.721  12.507
41264W        W12990   7.897  38.516  13.383
41265W        W12991  34.943   7.019   4.605
41266W        W12992   6.864  43.845  11.422
41267W        W12993  41.797  42.607   1.353
41268W        W12994   8.246  32.620   4.958
41269W        W12995  12.923  40.371  13.412
41270W        W12996  37.088  43.400   0.926
41271W        W12997   9.753  34.939  12.934
41272W        W12998  18.382  33.974  12.859
41273W        W12999  44.259   3.217  14.414
41274W        W13000   7.116  19.013   3.318
41275W        W13001   5.909  35.988  13.295
41276W        W13002  13.116   3.332   2.209
41277W        W13003  12.739   2.916  13.458
41278W        W13004  26.781  26.502  12.446
41279W        W13005   0.449  34.065   0.563
41280W        W13006  23.265  12.676   5.048
41281W        W13007  28.949  31.068  13.831
41282W        W13008  40.030  26.088  13.137
41283W        W13009   3.795   8.711   0.406
41284W        W13010  36.516   8.596  10.599
41285W        W13011  38.534  34.562  14.497
41286W        W13012  20.020   5.436  13.848
41287W        W13013  24.199  40.984   1.778
41288W        W13014  41.661  39.047  14.848
41289W        W13015  18.958  16.271   4.766
41290W        W13016   5.267   0.355  13.381
41291W        W13017   0.717  40.560   0.609
41292W        W13018  12.264   4.614   0.888
41293W        W13019  38.052  26.840   2.524
41294W        W13020  15.817   6.946   1.749
41295W        W13021  11.241  31.099   0.771
41296W        W13022  16.327  25.533   1.200
41297W        W13023  22.479  34.578  11.038
41298W        W13024   7.634   2.971  14.362
41299W        W13025   6.181  33.583  10.274
41300W        W13026  42.014  38.441   1.842
41301W        W13027  15.728  36.807  14.838
41302W        W13028  25.684   7.983  11.158
41303W        W13029  13.516   1.229  14.407
41304W        W13030   6.722   9.264  13.371
41305W        W13031  36.858   6.797   3.152
41306W        W13032   1.315  22.957  12.393
41307W        W13033  33.412  41.325   2.323
41308W        W13034  14.717  39.284  13.005
41309W        W13035  43.491   2.183  14.069
41310W        W13036  13.193   4.787  12.847
41311W        W13037  22.549   9.980   3.993
41312W        W13038  31.938  39.034   1.416
41313W        W13039  29.081  27.399  13.457
41314W        W13040  29.597  35.297  12.072
41315W        W13041  27.227   8.421  12.892
41316W        W13042  21.955  24.567  12.893
41317W        W13043  29.508  16.296   4.296
41318W        W13044   4.709  25.555  11.572
41319W        W13045  20.736   3.431  12.996
41320W        W13046  30.577  30.727  14.929
41321W        W13047  17.582  33.347   3.523
41322W        W13048  36.610  18.354   1.554
41323W        W13049  16.674  17.990  14.905
41324W        W13050  31.005  21.622   3.249
41325W        W13051  34.233  26.197   3.251
41326W        W13052   3.313   8.203   2.885
41327W        W13053  41.535  31.314   2.103
41328W        W13054  28.440   5.478   2.265
41329W        W13055  25.465  31.104   0.253
41330W        W13056  40.649   8.878   4.904
41331W        W13057  23.707  44.790  11.244
41332W        W13058  42.322  10.463  10.374
41333W        W13059  15.888  27.780   4.509
41334W        W13060  19.176  36.054   0.656
41335W        W13061  28.660  32.565  10.717
41336W        W13062  40.734  13.316  12.071
41337W        W13063  12.120  16.298  12.982
41338W        W13064  14.468   5.065   4.207
41339W        W13065  17.054  41.980   2.303
41340W        W13066  31.560  33.405  13.257
41341W        W13067  23.523   7.713  11.217
41342W        W13068  24.200  28.601  11.668
41343W        W13069  22.928  38.036  12.118
41344W        W13070  31.834  18.486  12.029
41345W        W13071  28.551  39.382  14.290
41346W        W13072   3.648  42.080  12.973
41347W        W13073  13.851   4.822  13.598
41348W        W13074   8.298  25.172   1.313
41349W        W13075  18.008  37.349   3.409
41350W        W13076  15.776  23.778   0.866
41351W        W13077  33.450  28.470  11.521
41352W        W13078   9.775  15.325   3.825
41353W        W13079  21.575  15.644  11.170
41354W        W13080  43.482   3.742   2.843
41355W        W13081  42.425   1.463   0.443
41356W        W13082  32.421   9.668  14.280
41357W        W13083  22.766   0.726   2.795
41358W        W13084  13.187  20.370   3.623
41359W        W13085  15.590  21.415  12.945
41360W        W13086  34.151  32.014   0.179
41361W        W13087  25.533   5.215   2.627
41362W        W13088  29.979  32.438  12.837
41363W        W13089  16.136  43.784  10.749
41364W        W13090  29.944  15.124   2.315
41365W        W13091  35.626  23.757  11.078
41366W        W13092  42.727  26.965   2.861
41367W        W13093  23.303   8.431   0.365
41368W        W13094  17.002   0.919  14.333
41369W        W13095  14.781  22.671   0.473
41370W        W13096  11.250  11.056   1.382
41371W        W13097   3.710  16.346   3.804
41372W        W13098  11.213  22.084  14.241
41373W        W13099  11.619  10.166   5.567
41374W        W13100   4.688  34.507  14.453
41375W        W13101  42.781  14.570  14.559
41376W        W13102  41.398  10.571  13.588
41377W        W13103  17.795  17.059   0.014
41378W        W13104  16.188  27.608  10.031
41379W        W13105  36.103  19.915  12.876
41380W        W13106   8.052   2.428   4.961
41381W        W13107  40.809  39.062   0.914
41382W        W13108   2.405  27.194  11.249
41383W        W13109  17.920  39.980   3.717
41384W        W13110  31.033   3.184   5.229
41385W        W13111  24.587  23.741   3.231
41386W        W13112  37.160  37.764  11.690
41387W        W13113  31.070  33.642   4.123
41388W        W13114  25.271   4.272   2.639
41389W        W13115  25.627  14.325  11.492
41390W        W13116  29.294  11.121  11.231
41391W        W13117  44.304   9.808  14.358
41392W        W13118  43.415  44.393  13.937
41393W        W13119  14.533  38.963   1.712
41394W        W13120  41.405  11.340   0.743
41395W        W13121  24.256  27.021   4.291
41396W        W13122  12.718  15.194  11.672
41397W        W13123  11.655  38.476   4.544
41398W        W13124  26.489  25.113  12.859
41399W        W13125  35.313  10.235   3.923
41400W        W13126  20.688  25.196   0.870
41401W        W13127  22.858  44.355  14.072
41402W        W13128   9.678   8.457  12.023
41403W        W13129   0.441  31.571  10.663
41404W        W13130   7.662  36.799   4.177
41405W        W13131  34.056  11.069  14.927
41406W        W13132  23.675   6.706   1.542
41407W        W13133  36.887  43.481  13.910
41408W        W13134   2.758  34.611  12.329
41409W        W13135  27.365  17.431  11.495
41410W        W13136  22.924  19.562   0.885
41411W        W13137  13.118  32.982  14.281
41412W        W13138  10.720  15.778   1.118
41413W        W13139  39.991  34.102   0.838
41414W        W13140  22.703  21.956   2.299
41415W        W13141  26.665  36.641   0.354
41416W        W13142  30.165  25.200   0.239
41417W        W13143  42.815  10.264  13.565
41418W        W13144   8.364  32.235  10.096
41419W        W13145  36.128  27.597  14.554
41420W        W13146  41.959   2.488  13.910
41421W        W13147  35.163  17.255  12.786
41422W        W13148  42.854  28.708   2.907
41423W        W13149  42.183  44.744  11.632
41424W        W13150  16.309  10.295   4.248
41425W        W13151  39.866  26.259   4.765
41426W        W13152  15.115  22.742  10.499
41427W        W13153  43.064  11.662  12.166
41428W        W13154  22.556  29.689   1.669
41429W        W13155  12.137  19.604   1.208
41430W        W13156  20.197   4.845   2.775
41431W        W13157  18.293  10.132   4.251
41432W        W13158  34.817   1.049   2.836
41433W        W13159  40.369   3.708   0.348
41434W        W13160   1.810  14.634   0.937
41435W        W13161   0.376  36.067   4.702
41436W        W13162  36.408  44.536   3.568
41437W        W13163  20.326   0.783   4.218
41438W        W13164  16.096  23.067   1.338
41439W        W13165  15.124  37.014   2.241
41440W        W13166  32.925   9.249   0.451
41441W        W13167  11.329   7.131   4.788
41442W        W13168   9.940  19.572   3.285
41443W        W13169  25.834   6.111  10.552
41444W        W13170  20.684  39.897  13.021
41445W        W13171   1.544  19.691  12.863
41446W        W13172  12.350  12.601   1.589
41447W        W13173  32.004   8.074  10.742
41448W        W13174   7.681  33.529   4.653
41449W        W13175   4.983  29.656  11.626
41450W        W13176   4.590   4.164   5.199
41451W        W13177  38.530  32.982   0.771
41452W        W13178   8.376  22.199  10.978
41453W        W13179  14.143  23.744  14.381
41454W        W13180  44.084  28.651   4.751
41455W        W13181  25.907  22.049  14.872
41456W        W13182  26.737  34.617  12.629
41457W        W13183   3.400  35.005   1.970
41458W        W13184  28.988  12.176   1.453
41459W        W13185  34.412  19.625   3.892
41460W        W13186  17.305  39.849   0.975
41461W        W13187  38.368  11.570   4.052
41462W        W13188   0.981   7.180  11.980
41463W        W13189   0.218  17.549  10.478
41464W        W13190  26.409   0.293  11.513
41465W        W13191  13.757  34.564  14.018
41466W        W13192  42.972  39.912   2.466
41467W        W13193  12.780  16.303   3.878
41468W        W13194  20.004  12.380  13.331
41469W        W13195  40.849  32.185   1.259
41470W        W13196  38.992  15.681  14.806
41471W        W13197   7.954  11.237   3.988
41472W        W13198  37.253  41.215   1.712
41473W        W13199   1.688  21.218  11.597
41474W        W13200  32.621   5.211  11.465
41475W        W13201  11.016  36.529   4.046
41476W        W13202  18.555  39.618  10.624
41477W        W13203   3.078  18.094   2.796
41478W        W13204  25.957  35.956  12.400
41479W        W13205  29.473  30.393   4.518
41480W        W13206  26.505   2.928  12.576
41481W        W13207   9.576  24.081   4.530
41482W        W13208  44.818   3.758   4.485
41483W        W13209  33.201   7.139  14.023
41484W        W13210  12.383  26.528   3.887
41485W        W13211  15.203  14.357   1.239
41486W        W13212  13.373  23.151  12.138
41487W        W13213   9.897  31.906  11.199
41488W        W13214  13.880  43.512  13.988
41489W        W13215  17.621   4.707   1.045
41490W        W13216   4.212  36.494  13.182
41491W        W13217   1.343  43.550  14.177
41492W        W13218   6.346  32.014   4.108
41493W        W13219  33.372  28.104  12.662
41494W        W13220  11.404  36.967  14.437
41495W        W13221  31.029  30.550   2.287
41496W        W13222  44.753   9.615  11.225
41497W        W13223  43.469   4.062   0.639
41498W        W13224  43.441  23.072   0.437
41499W        W13225   3.671  18.490   0.807
41500W        W13226  33.971   4.236   0.943
41501W        W13227  32.034  33.222   1.300
41502W        W13228  25.512  23.807  13.579
41503W        W13229  34.223  27.494  12.029
41504W        W13230  27.140  26.570  13.277
41505W        W13231  34.168   0.309   2.688
41506W        W13232  30.945  22.290   3.248
41507W        W13233  24.545  37.279  11.667
41508W        W13234  11.767   6.910  12.064
41509W        W13235   3.767  26.646  14.329
41510W        W13236  39.554  19.755  12.390
41511W        W13237  12.796  28.194   3.823
41512W        W13238  25.252  29.159  12.016
41513W        W13239   7.567  39.444  11.810
41514W        W13240  16.198  33.862  13.241
41515W        W13241  20.172  25.909  14.866
41516W        W13242  44.601  23.274  14.624
41517W        W13243   3.361  35.980   0.366
41518W        W13244  41.348  27.366  10.703
41519W        W13245  33.556  39.750  10.276
41520W        W13246  31.965  19.880   1.335
41521W        W13247  21.059  34.963   4.823
41522W        W13248   9.964  32.208   2.153
41523W        W13249  22.983   1.635   3.238
41524W        W13250  22.513  11.119  11.933
41525W        W13251  43.773   6.412   2.350
41526W        W13252  43.262  11.117  11.371
41527W        W13253  25.657   5.028  14.755
41528W        W13254  19.424  32.981   2.413
41529W        W13255  40.424  10.911   2.698
41530W        W13256  10.186  30.066   0.898
41531W        W13257  10.309   0.343  12.518
41532W        W13258  10.402  13.565  12.130
41533W        W13259  10.393   3.734  12.414
41534W        W13260  32.105  23.941  14.661
41535W        W13261  19.588   9.312   3.697
41536W        W13262  32.573  39.733   0.394
41537W        W13263  34.102  14.783   3.805
41538W        W13264  38.352  42.863   2.508
41539W        W13265   6.455  26.788   3.760
41540W        W13266  38.043  39.459  13.250
41541W        W13267  41.313  43.390   1.419
41542W        W13268  34.673  37.508  10.465
41543W        W13269  42.977   9.438  14.383
41544W        W13270   5.661  39.164  14.990
41545W        W13271   5.719  16.354   4.757
41546W        W13272  26.548  23.051  13.884
41547W        W13273  26.241  14.981  14.280
41548W        W13274  44.659  10.420  13.313
41549W        W13275   4.226  16.315   2.262
41550W        W13276   4.866  33.067   0.861
41551W        W13277  24.934  22.782  14.312
41552W        W13278  18.821  15.027   0.918
41553W        W13279  37.232   4.889   1.302
41554W        W13280   2.397  23.677  12.896
41555W        W13281  15.648  38.028  12.429
41556W        W13282  12.693  21.762   1.897
41557W        W13283  28.455   7.260  12.410
41558W        W13284  32.102  37.482  14.304
41559W        W13285  42.099  10.879  14.030
41560W        W13286  25.360  28.914  11.193
41561W        W13287  28.668  19.525   1.461
41562W        W13288  29.182   4.687   3.397
41563W        W13289  15.669   9.703   2.317
41564W        W13290  42.355  19.044   0.483
41565W        W13291  13.987  40.779  10.632
41566W        W13292  29.565  37.385   1.320
41567W        W13293  44.775  20.640   1.047
41568W        W13294  43.861  30.429  13.813
41569W        W13295  41.394  12.167   1.916
41570W        W13296   2.886  32.701  12.553
41571W        W13297  22.431  20.023   5.150
41572W        W13298  41.749  16.578   1.047
41573W        W13299  41.302  29.141  12.009
41574W        W13300  44.735   9.157  14.884
41575W        W13301   3.855  36.087   1.648
41576W        W13302  38.600  38.935   3.683
41577W        W13303   3.240  40.364  10.764
41578W        W13304  42.038  34.894   4.606
41579W        W13305  43.987   4.877  13.764
41580W        W13306  16.520  42.810  10.788
41581W        W13307  12.672  28.189  13.865
41582W        W13308  35.303  32.113  12.974
41583W        W13309  24.148   0.175   9.798
41584W        W13310  41.698  11.868   2.742
41585W        W13311  31.751  39.679  12.137
41586W        W13312  43.323  41.355   1.746
41587W        W13313   9.648  39.936  12.054
41588W        W13314  41.309   8.677   2.117
41589W        W13315   9.684  15.194  12.411
41590W        W13316  39.241  27.432   2.644
41591W        W13317  41.518  39.473   3.410
41592W        W13318  11.868  19.076  13.698
41593W        W13319  34.170  41.048  10.771
41594W        W13320  17.677  40.976  12.034
41595W        W13321  38.264  22.062  11.941
41596W        W13322  32.421  16.031  14.937
41597W        W13323  42.007  22.980  14.370
41598W        W13324  10.322   6.200   0.051
41599W        W13325  39.122   5.816   4.279
41600W        W13326   7.677  42.344   2.559
41601W        W13327  42.442  19.793   1.904
41602W        W13328   0.786   4.773  12.116
41603W        W13329  43.226  14.772   1.332
41604W        W13330  18.307  30.422   4.816
41605W        W13331  24.797  35.528   1.477
41606W        W13332  13.291  10.391  14.652
41607W        W13333  24.373  15.147  10.702
41608W        W13334  43.297  10.944  13.438
41609W        W13335  11.366  43.187   2.408
41610W        W13336  27.224  42.365   4.289
41611W        W13337  31.699  38.677  10.424
41612W        W13338  44.999   3.477  11.737
41613W        W13339  26.732  38.919  13.544
41614W        W13340  26.136  11.335  13.902
41615W        W13341  42.986   1.586  11.162
41616W        W13342  34.703  16.022  13.726
41617W        W13343  27.367  31.729   0.924
41618W        W13344  26.262   8.251  12.873
41619W        W13345  26.445  44.985  13.950
41620W        W13346  18.013  24.228   4.839
41621W        W13347  10.766   8.572   2.519
41622W        W13348  10.773   6.333  14.391
41623W        W13349  24.674  15.612   1.303
41624W        W13350  43.336   3.021  11.411
41625W        W13351  35.099  21.238  13.357
41626W        W13352  10.552  27.164  14.845
41627W        W13353  15.780  43.871   0.395
41628W        W13354  40.565  23.949   2.280
41629W        W13355   5.284  42.365  12.996
41630W        W13356  17.121   1.786  13.227
41631W        W13357   3.928   3.652  14.817
41632W        W13358  43.870  41.512   3.333
41633W        W13359  37.263  29.600   0.220
41634W        W13360  15.199   9.047   2.207
41635W        W13361  15.051  42.973   4.598
41636W        W13362  26.014  21.035  10.467
41637W        W13363  42.469  12.177   3.415
41638W        W13364  43.968  31.873   0.938
41639W        W13365  31.505   5.318   0.734
41640W        W13366  12.509  41.512   4.303
41641W        W13367  34.931  19.179  11.193
41642W        W13368  22.246  22.062   2.689
41643W        W13369  44.378  40.733   4.821
41644W        W13370  44.000  44.993   1.344
41645W        W13371  25.644  10.247   4.357
41646W        W13372  32.097  13.771   4.511
41647W        W13373  26.672  11.426   1.633
41648W        W13374  20.029  26.725  11.372
41649W        W13375  11.362  13.460   2.831
41650W        W13376  36.100  43.246  12.538
41651W        W13377  15.197  10.482   4.717
41652W        W13378  30.152  19.696  14.884
41653W        W13379  18.789   6.213   4.990
41654W        W13380   4.406  28.630  11.852
41655W        W13381  39.352   9.155   0.951
41656W        W13382  34.438  25.085   2.965
41657W        W13383   8.244  20.355  13.033
41658W        W13384  14.868  31.028  11.651
41659W        W13385  17.446  40.469  14.710
41660W        W13386  36.339   0.858  14.748
41661W        W13387  27.461   3.948  14.789
41662W        W13388   8.786  34.124  12.960
41663W        W13389  34.064  24.808  13.933
41664W        W13390  39.404  33.883   4.526
41665W        W13391  22.540  28.410  10.598
41666W        W13392   1.807  23.453   0.474
41667W        W13393  32.011  39.966  12.481
41668W        W13394  11.661   0.810   4.461
41669W        W13395  41.892   3.263  14.411
41670W        W13396  37.723  19.459  11.491
41671W        W13397  11.099  38.007   3.767
41672W        W13398  22.703  21.315   2.901
41673W        W13399  29.941  10.639   3.164
41674W        W13400  17.554  31.054   0.280
41675W        W13401   4.296  13.189   2.124
41676W        W13402   9.280  18.099  13.645
41677W        W13403  23.609  25.877  12.986
41678W        W13404   2.644  30.026   2.676
41679W        W13405  30.977  24.803   5.346
41680W        W13406  16.403  35.323  13.460
41681W        W13407   6.069  36.822   0.469
41682W        W13408  44.412  35.752   2.948
41683W        W13409  14.799  38.616  11.158
41684W        W13410  15.735  31.885  10.425
41685W        W13411  22.050  18.959   0.868
41686W        W13412  44.515  32.565   2.896
41687W        W13413   9.137  11.640   0.294
41688W        W13414  28.267  21.122   3.304
41689W        W13415  33.050  16.603  14.100
41690W        W13416  13.606  38.371  12.483
41691W        W13417   4.615  29.144  12.895
41692W        W13418  21.474   9.358  13.429
41693W        W13419  36.797  44.328   1.240
41694W        W13420   9.373  39.989   0.412
41695W        W13421  38.097  10.108  14.976
41696W        W13422  24.915  19.196  11.499
41697W        W13423   1.378   6.979   2.480
41698W        W13424   8.765   6.677   1.716
41699W        W13425  10.382  18.789   4.184
41700W        W13426   0.929  31.474   3.255
41701W        W13427  31.541  36.840  12.191
41702W        W13428  41.333  40.531   4.290
41703W        W13429  22.635  24.683  14.485
41704W        W13430  25.454  15.388   2.215
41705W        W13431  33.245  16.091   0.392
41706W        W13432  22.293  25.093   4.647
41707W        W13433  44.914  38.010   1.993
41708W        W13434  33.497  39.913   3.199
41709W        W13435   1.178  13.108  13.412
41710W        W13436  33.726  19.349  11.669
41711W        W13437  31.565   3.365   0.768
41712W        W13438  27.664  19.474  10.701
41713W        W13439  17.455  30.010  13.931
41714W        W13440  37.845  14.583   3.733
41715W        W13441  23.209  26.637  13.386
41716W        W13442  40.316  16.782   2.816
41717W        W13443  22.049  29.081   3.621
41718W        W13444   8.911  11.861  13.411
41719W        W13445  35.660  20.412  14.538
41720W        W13446   1.811  23.465   3.284
41721W        W13447   5.760  32.322  13.397
41722W        W13448  25.794  34.986  12.135
41723W        W13449  38.764  12.584  10.319
41724W        W13450  30.609  23.741   0.211
41725W        W13451  43.013  36.351   0.284
41726W        W13452  23.822  37.976  13.880
41727W        W13453  24.511  41.317   3.242
41728W        W13454  19.763  17.078   4.653
41729W        W13455  28.449  16.027   3.401
41730W        W13456  36.037  12.750  11.567
41731W        W13457  38.289  36.319  12.920
41732W        W13458   6.617  15.362  11.682
41733W        W13459  19.017  44.254  14.940
41734W        W13460  27.977   9.252   1.677
41735W        W13461   3.431  44.381   3.635
41736W        W13462  25.030  43.910  13.807
41737W        W13463  22.126   3.197   1.543
41738W        W13464  34.550  40.095   0.247
41739W        W13465   0.662  41.076   4.593
41740W        W13466  20.568  19.557  13.479
41741W        W13467  24.070  26.758   2.840
41742W        W13468  26.576  34.646   1.878
41743W        W13469  21.020  18.625   0.192
41744W        W13470  44.287   7.269   2.341
41745W        W13471  35.538  14.142  10.943
41746W        W13472   2.267   5.362   4.550
41747W        W13473   7.146  10.791  12.864
41748W        W13474  21.577  44.348  11.866
41749W        W13475  32.398  15.404  11.407
41750W        W13476   3.299  11.300   4.226
41751W        W13477  41.164  38.986   3.418
41752W        W13478   8.568  36.066  10.988
41753W        W13479  38.334  39.670  12.865
41754W        W13480   8.739  14.062   1.791
41755W        W13481  33.834  19.512   3.696
41756W        W13482  34.348  22.082   3.756
41757W        W13483  17.189  32.693  14.302
41758W        W13484  26.067  39.014   3.532
41759W        W13485  31.043  19.042   1.637
41760W        W13486  22.043   8.248   1.753
41761W        W13487   4.248  42.405   1.412
41762W        W13488   9.990  42.655   1.383
41763W        W13489  29.578  23.890   2.545
41764W        W13490   3.621  25.104   5.091
41765W        W13491  29.005  16.402  12.509
41766W        W13492  20.333  18.206  10.255
41767W        W13493  11.621   0.655   1.287
41768W        W13494  35.323  24.414   4.188
41769W        W13495  37.017  30.108  11.686
41770W        W13496   0.484   6.882   2.250
41771W        W13497  43.431  26.472  10.320
41772W        W13498  39.969  26.120  14.132
41773W        W13499  27.250   0.105  10.536
41774W        W13500  22.958  19.519  14.218
41775W        W13501  28.952  32.987  12.562
41776W        W13502   4.144  11.744  13.749
41777W        W13503   8.902  14.573   4.735
41778W        W13504  40.105  41.242   3.691
41779W        W13505  15.683  18.231  14.725
41780W        W13506  28.619  28.104  10.235
41781W        W13507  39.258  10.320  10.779
41782W        W13508   4.888  13.296  12.711
41783W        W13509  13.798  37.129   0.058
41784W        W13510  33.993   4.976   3.166
41785W        W13511  41.548  23.333  12.594
41786W        W13512  27.645  13.539  13.170
41787W        W13513   5.600  14.088  14.984
41788W        W13514  24.499  14.800   1.784
41789W        W13515  28.594  23.943  12.374
41790W        W13516  37.715  14.055  11.622
41791W        W13517  32.592   8.203  13.082
41792W        W13518   5.930  10.372   2.586
41793W        W13519   1.276  27.644   4.446
41794W        W13520  21.900  39.779  14.404
41795W        W13521  29.930  15.438   2.771
41796W        W13522   6.239   0.273  13.390
41797W        W13523  43.697   8.014  14.295
41798W        W13524  43.275   8.150  12.907
41799W        W13525   4.446   7.358   0.432
41800W        W13526   4.683  41.337  11.111
41801W        W13527  42.912  14.613   3.294
41802W        W13528  22.198   4.961   2.842
41803W        W13529  26.015   6.431  14.459
41804W        W13530  28.403  11.244  12.983
41805W        W13531  42.781  24.097   4.712
41806W        W13532  33.889  42.914  10.945
41807W        W13533  12.858  43.942  12.823
41808W        W13534   7.471  44.770  10.732
41809W        W13535   4.156   1.601   4.139
41810W        W13536  32.932  15.163  13.843
41811W        W13537  32.481  35.140  13.677
41812W        W13538   2.285  31.975  12.373
41813W        W13539  23.443   0.821   9.972
41814W        W13540  12.832  20.089   3.865
41815W        W13541  38.141  18.189  12.627
41816W        W13542  27.177  17.581   0.499
41817W        W13543  24.495  12.173  13.609
41818W        W13544  39.686  41.909   2.781
41819W        W13545   7.280  13.836   1.897
41820W        W13546  17.721   1.380   2.298
41821W        W13547  17.764  16.949   2.881
41822W        W13548  22.280  30.048  13.985
41823W        W13549  43.293  14.768   5.018
41824W        W13550  44.031  10.263   4.145
41825W        W13551  28.780  35.584  14.521
41826W        W13552  35.596  22.628   2.749
41827W        W13553  33.943   6.936   3.199
41828W        W13554  21.229  33.606  11.421
41829W        W13555  35.013  33.989  11.601
41830W        W13556  33.033  13.847   2.335
41831W        W13557  38.917  18.108  12.538
41832W        W13558   9.826  35.584   2.141
41833W        W13559  32.660  24.636   4.165
41834W        W13560   3.523  26.993   0.810
41835W        W13561  39.032  19.018   3.421
41836W        W13562  18.846  38.327  13.173
41837W        W13563  25.505  31.172   4.506
41838W        W13564   5.260  23.295   1.265
41839W        W13565   1.792   2.293  11.578
41840W        W13566  21.272  27.419   9.773
41841W        W13567  26.140  40.313   0.034
41842W        W13568  37.914  18.507   4.312
41843W        W13569  33.690   5.258  14.326
41844W        W13570  22.739  18.449   2.167
41845W        W13571   2.266   9.033  14.733
41846W        W13572  39.512   4.104   4.618
41847W        W13573  15.628  42.484   0.887
41848W        W13574  21.103  15.180  13.450
41849W        W13575  30.145   7.644  11.938
41850W        W13576   4.507  39.813   1.019
41851W        W13577  19.482   7.696  14.533
41852W        W13578   1.518  11.792   0.830
41853W        W13579  28.821  15.853   4.571
41854W        W13580  35.781  44.973  13.032
41855W        W13581  12.073  18.322  11.141
41856W        W13582   4.304  30.683   0.917
41857W        W13583  11.970  36.129  14.347
41858W        W13584  41.242  36.854   2.243
41859W        W13585  29.687   7.613   2.645
41860W        W13586  20.714  27.714  12.513
41861W        W13587  36.597  15.643  14.888
41862W        W13588  24.187  13.742  12.013
41863W        W13589  32.839   4.328   3.593
41864W        W13590  11.652   9.203  11.491
41865W        W13591  43.973  41.747  12.648
41866W        W13592  40.303   7.365  13.773
41867W        W13593   6.140   1.040   4.100
41868W        W13594  44.650  40.880  12.135
41869W        W13595  10.821  21.544  13.579
41870W        W13596   4.933  34.070  14.742
41871W        W13597  40.804  44.569   1.162
41872W        W13598  18.535   7.128  13.837
41873W        W13599  14.911  13.825   2.769
41874W        W13600  32.193   2.849   0.262
41875W        W13601  36.114   1.871   4.604
41876W        W13602   8.837  36.073   2.777
41877W        W13603  14.165  35.640   1.769
41878W        W13604   5.763  43.926   2.965
41879W        W13605  14.212  15.613  11.564
41880W        W13606  43.594  42.151   2.104
41881W        W13607  40.024  35.679   0.413
41882W        W13608  40.306  32.030  10.949
41883W        W13609  17.327  27.152  14.247
41884W        W13610   9.282   6.215   3.196
41885W        W13611  30.100  41.261  13.264
41886W        W13612  21.145  34.999  13.002
41887W        W13613  21.342  19.985  11.184
41888W        W13614  18.588  10.229   4.972
41889W        W13615  14.040   6.801  13.375
41890W        W13616  43.332   4.296  14.221
41891W        W13617  25.552  28.744   2.141
41892W        W13618  29.131   0.649  11.618
41893W        W13619  15.450  35.837  12.497
41894W        W13620   4.756   1.000  11.446
41895W        W13621  16.663   1.057   2.750
41896W        W13622  31.670  32.030  10.701
41897W        W13623  13.199  32.501   2.435
41898W        W13624   3.206  36.485   1.647
41899W        W13625  37.915  10.426   1.264
41900W        W13626   8.210  43.764   4.496
41901W        W13627   9.702  41.931   0.052
41902W        W13628  36.163  27.172   2.347
41903W        W13629  24.598  35.978   0.352
41904W        W13630  31.465  39.394   2.238
41905W        W13631  18.658  15.528   0.919
41906W        W13632  31.336   3.263   2.615
41907W        W13633  32.856  43.508  13.064
41908W        W13634  35.483  43.196  11.843
41909W        W13635  31.885   3.350  10.451
41910W        W13636  37.893  10.210   2.880
41911W        W13637   9.034  15.416   1.948
41912W        W13638  35.121  42.767   0.437
41913W        W13639  32.073   3.978  11.666
41914W        W13640  16.654   6.020   0.270
41915W        W13641  15.738  38.057  10.219
41916W        W13642  10.797  13.237  10.380
41917W        W13643  39.061  10.136   3.173
41918W        W13644   3.655   2.905   2.386
41919W        W13645  32.845  37.143  12.956
41920W        W13646  27.932  44.535  13.576
41921W        W13647  24.609  44.767  11.423
41922W        W13648  21.823  23.686  11.589
41923W        W13649  32.610   2.941   2.405
41924W        W13650  17.252  41.989  13.561
41925W        W13651  44.785  37.085   4.181
41926W        W13652   6.347  17.483   1.603
41927W        W13653  42.162  42.861   2.311
41928W        W13654  20.542  44.396  13.517
41929W        W13655  41.163  14.508  11.595
41930W        W13656   3.940   2.840   0.905
41931W        W13657  39.838  36.123   2.253
41932W        W13658  30.935   8.846   2.817
41933W        W13659   8.593  22.633  12.037
41934W        W13660  43.916  13.303   4.335
41935W        W13661   7.461  33.165   1.289
41936W        W13662  23.068  16.771  12.768
41937W        W13663  11.685  28.646   4.517
41938W        W13664  12.156   1.272   4.202
41939W        W13665  41.753  22.577  13.855
41940W        W13666   5.164  26.031   4.432
41941W        W13667  33.630  41.256  14.816
41942W        W13668  14.078  15.702  14.731
41943W        W13669  26.516   0.956   2.643
41944W        W13670  17.319  39.414   1.349
41945W        W13671  33.846  32.419   0.357
41946W        W13672  23.638  10.935   1.870
41947W        W13673  39.443  12.665   0.023
41948W        W13674   7.178   4.041  13.268
41949W        W13675  32.836  13.760   1.383
41950W        W13676  24.986   6.388   1.184
41951W        W13677  14.546  42.971  10.646
41952W        W13678  17.549  27.393  13.829
41953W        W13679  35.093  40.973  10.700
41954W        W13680  16.230   0.885   4.565
41955W        W13681  26.596   0.684   3.562
41956W        W13682  27.897  13.814  10.143
41957W        W13683   9.401  24.713  12.975
41958W        W13684  32.718  16.312  12.118
41959W        W13685  21.600  14.573   2.149
41960W        W13686   7.289   3.277   0.151
41961W        W13687  38.518  33.949  11.932
41962W        W13688   9.859   9.668  10.752
41963W        W13689   6.550   5.156  12.982
41964W        W13690  27.690  29.959  11.135
41965W        W13691  33.605  20.294  14.396
41966W        W13692   9.616  17.978   4.904
41967W        W13693   6.976  20.300  13.103
41968W        W13694   2.822  26.063   0.879
41969W        W13695   0.940  14.392  14.782
41970W        W13696   9.267  16.810   2.534
41971W        W13697  28.511  37.873  10.632
41972W        W13698   6.812  23.580   3.349
41973W        W13699  14.053  15.750   4.179
41974W        W13700  33.661   7.611  14.627
41975W        W13701  23.806  10.299  14.653
41976W        W13702  21.436  36.722   2.156
41977W        W13703  28.910   8.160  13.469
41978W        W13704  15.115  35.309  11.226
41979W        W13705   3.901  32.107  14.322
41980W        W13706  19.936   5.467  12.114
41981W        W13707  41.008   8.402   3.579
41982W        W13708  14.698  30.288  12.883
41983W        W13709  26.602  10.202   4.043
41984W        W13710  15.707  14.480   4.932
41985W        W13711  10.151  20.747   0.737
41986W        W13712  44.842  28.597  11.882
41987W        W13713  28.998  20.317   2.715
41988W        W13714  23.214  16.755  11.558
41989W        W13715  37.126  14.781   4.838
41990W        W13716  18.155  28.678   2.217
41991W        W13717  18.005  24.265   1.640
41992W        W13718   5.145   4.290  10.265
41993W        W13719  18.070  37.294  14.810
41994W        W13720  38.750  22.010   2.985
41995W        W13721  44.058  23.747  12.191
41996W        W13722  10.847   9.267   3.639
41997W        W13723  39.267  10.697   2.427
41998W        W13724  35.085  41.585  12.016
41999W        W13725  32.632  22.670  11.302
42000W        W13726  14.726   7.445  10.744
42001W        W13727   5.799  25.144   2.430
42002W        W13728  33.881  14.247  14.469
42003W        W13729   8.733  16.759   1.310
42004W        W13730  40.904  21.613  13.946
42005W        W13731  18.443   4.026  11.411
42006W        W13732  12.557  25.129   4.603
42007W        W13733   4.807   2.646  13.370
42008W        W13734  28.398  41.342   1.729
42009W        W13735  20.601  29.973  14.472
42010W        W13736  35.867  35.146  13.580
42011W        W13737  16.138   8.413  12.158
42012W        W13738  22.199  27.982  11.519
42013W        W13739  35.530  28.030   3.238
42014W        W13740  34.963   5.162   4.171
42015W        W13741  26.908  15.641  14.417
42016W        W13742   8.149  28.068  11.575
42017W        W13743  24.473  28.444  13.000
42018W        W13744  19.847   6.673  12.462
42019W        W13745  21.683  20.529   4.600
42020W        W13746   6.235   5.405   2.292
42021W        W13747  31.454   6.982   4.619
42022W        W13748  24.010  18.994  14.879
42023W        W13749   5.774   4.364  10.965
42024W        W13750  18.003  44.984   0.345
42025W        W13751  26.159  39.487  12.540
42026W        W13752  41.866  36.157  12.020
42027W        W13753  26.443  40.030  11.516
42028W        W13754   8.403  16.165   1.424
42029W        W13755  28.517  40.886  11.225
42030W        W13756  27.627  18.156   4.096
42031W        W13757  38.619   2.527   1.019
42032W        W13758  32.908  25.219   4.059
42033W        W13759  28.538  24.587  13.946
42034W        W13760  26.185  43.125  12.434
42035W        W13761  21.261  29.424  10.720
42036W        W13762  40.461  12.654  13.080
42037W        W13763  40.615  35.939   3.223
42038W        W13764  21.207  16.669   0.318
42039W        W13765  34.335  44.507   0.253
42040W        W13766  26.456  25.414   1.689
42041W        W13767  43.242  10.123  13.858
42042W        W13768  24.503  26.777   2.124
42043W        W13769  17.978  28.037   0.990
42044W        W13770   5.805  40.338  14.400
42045W        W13771  25.664   4.765   3.306
42046W        W13772  29.477   1.937  14.336
42047W        W13773  33.953   2.632  14.795
42048W        W13774  42.889  43.435  13.990
42049W        W13775  15.304  37.445  12.007
42050W        W13776  14.085  43.349   2.714
42051W        W13777  30.184   1.023  10.952
42052W        W13778  41.961  33.598   1.690
42053W        W13779  30.530  39.105   1.758
42054W        W13780  43.763  29.665   2.837
42055W        W13781   1.863   6.823   1.706
42056W        W13782   7.859  20.978   2.375
42057W        W13783   5.181   8.991  12.359
42058W        W13784   1.719   2.838  11.414
42059W        W13785  18.837  28.546  14.412
42060W        W13786  23.242  40.431  12.156
42061W        W13787  14.839  14.687  14.982
42062W        W13788   0.040  29.032  12.517
42063W        W13789   2.732  13.791  11.031
42064W        W13790   0.081  37.655  11.463
42065W        W13791  10.895  33.015   0.214
42066W        W13792  41.424   7.416   1.215
42067W        W13793  19.282  25.193   4.444
42068W        W13794   2.287  19.793  13.631
42069W        W13795  22.367  33.075   4.897
42070W        W13796  36.116   7.171   0.333
42071W        W13797  11.242  39.580   3.685
42072W        W13798   6.515  14.120  12.930
42073W        W13799  27.135  30.395  12.374
42074W        W13800  36.159  28.116  13.523
42075W        W13801   6.817  36.893   1.851
42076W        W13802  41.013  10.978  12.427
42077W        W13803  28.539  21.778  14.462
42078W        W13804   9.406  30.973   2.155
42079W        W13805  17.543  19.460   1.024
42080W        W13806  30.748  29.038  14.326
42081W        W13807   1.418  25.456   4.126
42082W        W13808  13.593  27.352   2.396
42083W        W13809  31.985  10.669   0.464
42084W        W13810   7.681   0.086   1.657
42085W        W13811  18.998  27.023   1.354
42086W        W13812  30.856   2.367  12.166
42087W        W13813  24.821  42.872  13.476
42088W        W13814  26.002  16.194  12.108
42089W        W13815  41.354   2.541  10.888
42090W        W13816  35.542  40.676  10.725
42091W        W13817  44.046  23.448   4.635
42092W        W13818  25.504  15.166  12.994
42093W        W13819   4.906  18.145  14.949
42094W        W13820  24.925  41.093  12.426
42095W        W13821  34.348   5.397  14.934
42096W        W13822  29.113  24.634   4.324
42097W        W13823  12.497  26.450   0.880
42098W        W13824  36.350   8.725  12.729
42099W        W13825  39.207  26.395  13.452
42100W        W13826  34.649   3.498  11.705
42101W        W13827  35.470  42.089   4.069
42102W        W13828  41.053  25.975   0.411
42103W        W13829   2.221   8.954  13.754
42104W        W13830  26.134  40.666   3.482
42105W        W13831   9.169  40.763  11.931
42106W        W13832  31.484  43.462  11.108
42107W        W13833  15.154   2.487  14.843
42108W        W13834  28.557  10.206   0.907
42109W        W13835  26.191   3.531  12.901
42110W        W13836  16.257  13.693  13.760
42111W        W13837  41.534  35.895  10.714
42112W        W13838  22.656  10.157   2.651
42113W        W13839   2.339  37.670  14.539
42114W        W13840  25.235   2.952   1.363
42115W        W13841  22.701  38.856   4.496
42116W        W13842  21.074   6.377   1.843
42117W        W13843   3.398   5.398   0.838
42118W        W13844  27.411  38.785  14.721
42119W        W13845   2.922  37.922  14.365
42120W        W13846   5.869  28.872  13.342
42121W        W13847  20.239  30.160  11.611
42122W        W13848  15.903  37.148   0.211
42123W        W13849   2.982   2.058   0.495
42124W        W13850   4.523  24.964   0.854
42125W        W13851   4.418  34.304   4.693
42126W        W13852  23.466  14.298   3.205
42127W        W13853  34.588  22.089  13.602
42128W        W13854  35.349  42.958  14.240
42129W        W13855  33.032  19.645  12.578
42130W        W13856   6.309  39.919   3.877
42131W        W13857  11.899   1.290   3.756
42132W        W13858  26.692  40.608  10.924
42133W        W13859   5.367  34.113   1.392
42134W        W13860  14.129  31.639  12.967
42135W        W13861  26.616  14.877   2.912
42136W        W13862  11.244  41.354  11.625
42137W        W13863  34.582   9.167   3.912
42138W        W13864  22.811  26.553  13.014
42139W        W13865   7.428  24.260   2.425
42140W        W13866   9.985  38.988  14.418
42141W        W13867  30.645  19.670   2.691
42142W        W13868  22.817  24.697  11.633
42143W        W13869  19.008  32.960  14.350
42144W        W13870   0.331  28.158  14.823
42145W        W13871   7.885  21.955   4.113
42146W        W13872  26.183  12.304   3.275
42147W        W13873  15.542  16.762   1.219
42148W        W13874  26.482  29.343   3.714
42149W        W13875   4.668   8.494   1.798
42150W        W13876  41.674  24.982   1.261
42151W        W13877  12.670  36.606  14.282
42152W        W13878  19.071  33.123  13.426
42153W        W13879  33.495   4.737   4.650
42154W        W13880   5.662  33.647  14.387
42155W        W13881  19.154  39.076   0.379
42156W        W13882   3.334   5.275   3.128
42157W        W13883  33.131  29.021  13.004
42158W        W13884   1.281  18.786  12.057
42159W        W13885  41.333  37.130   3.070
42160W        W13886  23.214  23.719  11.674
42161W        W13887  24.096  42.504  14.048
42162W        W13888  21.634  44.024   0.497
42163W        W13889  11.151  23.375  13.920
42164W        W13890  38.427  23.538   4.565
42165W        W13891   8.778   4.293   1.031
42166W        W13892  35.890   8.775  14.431
42167W        W13893  31.326  27.727  14.467
42168W        W13894  37.153  34.503   2.179
42169W        W13895   1.016  10.227  12.129
42170W        W13896  33.985  33.308   1.645
42171W        W13897  36.054  31.904   2.880
42172W        W13898   0.955  35.163   2.158
42173W        W13899  10.441   0.094   2.267
42174W        W13900  10.528   6.404   1.767
42175W        W13901  27.749  27.213  14.016
42176W        W13902  42.088  16.859   2.301
42177W        W13903   1.314   4.757   3.011
42178W        W13904  44.473  10.887  11.516
42179W        W13905  11.858  16.714   0.738
42180W        W13906  39.030   2.711  14.325
42181W        W13907  26.697  31.465   1.345
42182W        W13908  19.105   2.768  14.903
42183W        W13909  23.239  19.012  11.131
42184W        W13910  43.146   8.059  14.227
42185W        W13911  30.080  21.849  13.154
42186W        W13912  14.156  43.379   4.154
42187W        W13913  27.034   1.385  11.447
42188W        W13914  13.086   2.511  12.016
42189W        W13915  10.255   3.821   4.615
42190W        W13916  15.952   0.549   1.439
42191W        W13917  37.322  18.587   2.708
42192W        W13918   4.669   7.186  13.421
42193W        W13919  22.781   3.595   1.192
42194W        W13920   3.393  36.041   1.449
42195W        W13921  42.208  15.657   3.727
42196W        W13922  37.950  22.069  14.411
42197W        W13923  41.907  39.504   4.198
42198W        W13924   4.027  21.428  10.985
42199W        W13925   9.182  32.436  11.582
42200W        W13926  32.011  37.894  10.672
42201W        W13927  33.041   7.245  10.546
42202W        W13928  18.265  10.808  12.789
42203W        W13929  34.014  28.479   2.847
42204W        W13930  19.145  32.053   0.970
42205W        W13931  43.907  16.110   2.238
42206W        W13932  10.884  19.758  11.692
42207W        W13933  22.052  36.457   4.200
42208W        W13934   7.908  40.340  12.684
42209W        W13935  13.334  18.518  13.995
42210W        W13936  25.640   1.900   1.115
42211W        W13937  19.963   7.235  11.677
42212W        W13938  17.837  38.978   9.698
42213W        W13939  35.450  33.645   2.616
42214W        W13940  16.580  24.481   2.994
42215W        W13941  41.857   3.284  12.851
42216W        W13942  42.299  29.900   1.467
42217W        W13943   0.276  38.734   2.527
42218W        W13944  23.736  11.312   2.209
42219W        W13945  38.967   4.454   3.634
42220W        W13946  14.212  28.031  13.868
42221W        W13947  23.014  10.564   0.510
42222W        W13948  14.669  33.637   4.909
42223W        W13949  29.003  15.969  14.743
42224W        W13950  35.405   2.437  10.626
42225W        W13951  12.732   0.247  12.395
42226W        W13952  11.347  41.043   3.632
42227W        W13953   0.236  18.992   1.865
42228W        W13954  20.040  23.961  10.659
42229W        W13955  44.989  28.078  11.081
42230W        W13956   5.861  21.298   1.332
42231W        W13957   1.889  38.474   0.389
42232W        W13958  19.803   7.827   1.869
42233W        W13959  19.319   3.258  14.870
42234W        W13960  33.986  30.589   2.668
42235W        W13961  26.297  38.154   1.534
42236W        W13962   8.684  30.558   2.932
42237W        W13963  32.625  10.310  14.917
42238W        W13964  19.196  37.938   0.185
42239W        W13965  31.051  40.572   4.468
42240W        W13966  21.586  20.554   3.190
42241W        W13967  30.493  43.264   3.913
42242W        W13968   6.516  26.478   0.525
42243W        W13969  38.915  25.494  13.541
42244W        W13970  30.565  37.658  10.528
42245W        W13971  12.032   1.888   2.649
42246W        W13972  13.630   2.222  10.676
42247W        W13973  20.824  21.274   2.687
42248W        W13974  33.168   9.882  11.653
42249W        W13975  44.470  44.405   0.134
42250W        W13976   6.775   0.267   1.351
42251W        W13977  21.409   4.932   4.958
42252W        W13978  44.057  28.928  14.382
42253W        W13979  11.835  24.804   4.246
42254W        W13980  37.998  38.415   4.891
42255W        W13981  34.832   1.679   1.201
42256W        W13982  27.079  16.597   4.277
42257W        W13983  28.719  20.243  10.995
42258W        W13984  37.394  37.509   0.731
42259W        W13985  18.397  14.539   3.357
42260W        W13986   4.238  43.356   4.610
42261W        W13987  34.408  20.344   2.223
42262W        W13988  39.743  35.658  10.687
42263W        W13989  11.720   0.001  10.829
42264W        W13990   6.035  27.699   4.946
42265W        W13991  23.140   9.299   4.150
42266W        W13992  42.216   3.899   4.577
42267W        W13993   6.252  31.787   4.871
42268W        W13994   3.380   4.954  13.782
42269W        W13995   1.735   3.801  14.236
42270W        W13996  19.682   6.601   2.675
42271W        W13997  26.654  38.253  11.006
42272W        W13998   7.035  44.002  12.587
42273W        W13999  21.018  24.004   4.676
42274W        W14000   4.112  32.570  14.349
42275W        W14001  40.845  13.263  13.429
42276W        W14002  25.418  19.090   1.634
42277W        W14003  41.903  30.468  10.610
42278W        W14004   9.213  33.513   4.621
42279W        W14005  38.188  10.874   1.300
42280W        W14006  34.507  44.977   1.982
42281W        W14007  17.740  35.877   2.203
42282W        W14008  14.094   6.651   2.135
42283W        W14009   5.891   8.296  13.799
42284W        W14010  37.530  22.343  10.830
42285W        W14011  43.357   8.988  13.183
42286W        W14012   2.987   8.640   3.707
42287W        W14013  14.512  20.361  10.676
42288W        W14014  40.347  32.366   0.390
42289W        W14015  11.203  30.254  11.789
42290W        W14016  17.988  38.037  11.105
42291W        W14017  19.591  25.455   1.235
42292W        W14018  37.932   4.751  10.188
42293W        W14019  16.409  44.385  12.167
42294W        W14020  16.812  21.570  13.841
42295W        W14021  12.650  25.956  11.189
42296W        W14022  11.438  14.345   1.947
42297W        W14023   2.057  20.464  10.838
42298W        W14024   1.593  16.635  14.259
42299W        W14025  26.439  40.595   0.822
42300W        W14026  11.080  23.395   5.390
42301W        W14027  40.691   5.311   3.228
42302W        W14028   5.446  10.299   2.887
42303W        W14029  12.474  15.848  12.879
42304W        W14030   5.470  12.293   4.114
42305W        W14031  32.362   5.558   4.324
42306W        W14032  23.259  18.061  14.066
42307W        W14033   1.816  41.881  10.715
42308W        W14034  43.933  12.125   2.633
42309W        W14035  20.788  37.008  14.818
42310W        W14036  21.944   7.852  14.410
42311W        W14037  29.969  30.979   1.246
42312W        W14038  43.381   2.228  12.481
42313W        W14039  42.891  34.561   4.144
42314W        W14040  21.142   5.805  10.741
42315W        W14041  26.639  16.712  10.704
42316W        W14042   6.400  43.418  14.378
42317W        W14043   6.524   4.663  12.840
42318W        W14044  27.429  34.313   4.150
42319W        W14045  39.814  44.537   2.742
42320W        W14046  11.334  31.483  12.375
42321W        W14047  43.248  23.192   4.496
42322W        W14048  22.640   5.260  14.042
42323W        W14049  26.236  15.801  13.071
42324W        W14050   5.187  44.260  10.255
42325W        W14051  29.171   1.001   0.854
42326W        W14052  20.880   8.813   0.389
42327W        W14053  21.473  18.198   3.661
42328W        W14054   7.867  34.832  14.453
42329W        W14055  31.483  35.642   1.215
42330W        W14056   6.330  18.698   0.239
42331W        W14057  40.615  20.069   3.736
42332W        W14058  24.142   8.939   1.266
42333W        W14059  12.140  10.195  10.680
42334W        W14060  16.294   1.913  11.660
42335W        W14061  20.199  29.044  13.335
42336W        W14062   6.365   7.283  12.453
42337W        W14063   9.867  23.945   1.418
42338W        W14064  24.196  14.185  12.669
42339W        W14065  44.978  29.427  11.147
42340W        W14066  33.412  26.565   2.252
42341W        W14067   6.002  29.021   3.824
42342W        W14068  12.839  10.958   3.969
42343W        W14069  24.248  17.966  12.381
42344W        W14070  16.320  37.697   5.063
42345W        W14071  41.840   1.829  11.572
42346W        W14072  30.798  17.112   4.520
42347W        W14073  27.510  33.661  14.547
42348W        W14074  42.224  43.975   0.333
42349W        W14075  37.037  35.332   0.808
42350W        W14076  11.581   9.908  10.987
42351W        W14077  28.149  32.506   2.278
42352W        W14078  44.548  24.329  10.165
42353W        W14079  25.381  20.245  14.881
42354W        W14080   9.954  26.997  12.941
42355W        W14081  43.907  22.161  10.918
42356W        W14082  42.354  29.430  11.486
42357W        W14083  40.885  30.488   3.176
42358W        W14084  30.235  25.462  10.574
42359W        W14085  35.962  15.337  11.599
42360W        W14086   6.224  15.124   4.676
42361W        W14087  37.187  30.626   2.329
42362W        W14088   4.938  35.967   0.886
42363W        W14089  35.549  31.489  11.869
42364W        W14090  41.534  38.853  10.245
42365W        W14091  37.505  36.604   3.823
42366W        W14092  17.154  33.329   2.497
42367W        W14093  37.560  15.386  14.813
42368W        W14094  24.487  21.550  14.440
42369W        W14095   3.353  16.717   1.253
42370W        W14096   4.324  26.450   0.900
42371W        W14097  32.007   2.006  12.655
42372W        W14098  21.569  25.534  12.821
42373W        W14099  27.663  14.389  13.585
42374W        W14100  21.260  12.321   0.685
42375W        W14101  33.164  18.445  10.759
42376W        W14102  37.048  44.235  11.478
42377W        W14103  19.556  21.257   1.726
42378W        W14104  35.406  41.904  10.616
42379W        W14105  16.637   8.196  14.808
42380W        W14106  34.818  16.974  11.598
42381W        W14107  32.486   5.167   3.561
42382W        W14108   4.056  12.971   1.146
42383W        W14109   7.667  21.566   1.336
42384W        W14110  10.638  25.284   4.548
42385W        W14111  26.345  12.760   1.913
42386W        W14112  17.238   4.220   1.699
42387W        W14113   5.059  18.622  14.734
42388W        W14114   6.965  34.681   2.532
42389W        W14115  18.317  33.031   0.010
42390W        W14116  16.632  32.366  12.481
42391W        W14117   8.529  11.164   3.720
42392W        W14118  22.012  12.413   3.670
42393W        W14119  32.094  14.931  12.559
42394W        W14120  42.770  31.084   4.604
42395W        W14121  24.265  41.483   0.129
42396W        W14122   2.671  32.430   2.117
42397W        W14123  43.163  40.973  14.009
42398W        W14124  35.461   7.304   1.382
42399W        W14125  41.280  44.456  10.810
42400W        W14126   7.100  20.815  10.755
42401W        W14127   2.393   1.957   3.148
42402W        W14128  33.503  42.325  12.951
42403W        W14129  16.021  22.226   4.114
42404W        W14130  26.186  15.443  14.063
42405W        W14131  19.194  20.611   4.414
42406W        W14132  22.471  29.002  14.934
42407W        W14133  26.159  30.197   2.865
42408W        W14134  14.331  29.906  12.437
42409W        W14135  33.394  31.386   3.641
42410W        W14136  23.278  18.805  13.636
42411W        W14137  39.803  14.590  13.113
42412W        W14138  40.117  33.402  12.874
42413W        W14139  43.779   2.594  12.537
42414W        W14140  16.836   1.758   4.568
42415W        W14141  15.590  17.156  14.535
42416W        W14142   3.931  28.596  11.705
42417W        W14143  34.235  40.866  14.093
42418W        W14144   4.837  31.009   0.228
42419W        W14145  11.170  22.737  12.902
42420W        W14146  11.820   1.703   1.273
42421W        W14147  41.342  18.064  12.932
42422W        W14148  34.611  27.705   3.279
42423W        W14149  12.582   5.630   3.798
42424W        W14150  21.715  16.084   0.760
42425W        W14151  40.835   2.143  10.721
42426W        W14152  40.936  38.389  12.591
42427W        W14153  10.352  34.501  10.998
42428W        W14154  36.087  38.007   2.708
42429W        W14155   8.804  36.345   3.262
42430W        W14156   4.802  23.789   1.693
42431W        W14157  44.545  10.139  12.890
42432W        W14158  15.880  12.257  14.987
42433W        W14159   8.795  43.020   3.341
42434W        W14160   2.990  17.584  13.873
42435W        W14161  28.874  20.293   0.016
42436W        W14162  33.605   9.531  13.610
42437W        W14163  18.987  41.821  14.343
42438W        W14164  35.808  19.624   4.161
42439W        W14165  11.827  44.736   2.350
42440W        W14166   0.546  28.541  14.109
42441W        W14167  10.257  32.131   5.095
42442W        W14168  27.072  25.228  11.548
42443W        W14169  25.666  21.188  13.677
42444W        W14170   6.254  20.922  12.061
42445W        W14171   0.344   1.214  12.862
42446W        W14172  38.136   0.486  10.727
42447W        W14173  35.548  22.661  11.195
42448W        W14174   2.364   6.109   1.972
42449W        W14175  33.841  25.150  14.232
42450W        W14176  22.997  34.658  14.744
42451W        W14177  40.524  36.492   0.484
42452W        W14178  39.248  12.460   4.814
42453W        W14179  33.914  23.843  14.821
42454W        W14180  17.714   6.942   4.386
42455W        W14181  39.496  12.096   4.534
42456W        W14182  44.932  16.326   0.104
42457W        W14183  37.257   8.920  14.409
42458W        W14184  14.222  31.344  12.548
42459W        W14185   0.689   1.847   1.378
42460W        W14186  32.862  32.631  13.035
42461W        W14187  15.668   3.119  13.309
42462W        W14188  12.900   5.001  12.022
42463W        W14189  33.000  22.449   3.697
42464W        W14190  33.786  15.923  11.544
42465W        W14191   1.761  34.074  14.969
42466W        W14192   8.728  23.660   3.313
42467W        W14193  19.610   7.633   2.824
42468W        W14194  34.447  10.190  14.925
42469W        W14195  33.110  10.393   0.118
42470W        W14196   0.434   1.455  10.935
42471W        W14197  19.068  40.066   1.372
42472W        W14198   9.390  11.412   0.715
42473W        W14199  10.146  33.000   0.292
42474W        W14200  33.671  13.644  12.390
42475W        W14201  11.037  20.154   2.489
42476W        W14202  10.593  20.100  13.263
42477W        W14203  18.522   0.065  13.503
42478W        W14204  22.602   3.224   1.867
42479W        W14205  27.510  42.359  11.586
42480W        W14206  35.108  27.388  13.970
42481W        W14207   5.173   9.591   1.299
42482W        W14208   5.370  33.247  14.327
42483W        W14209  40.430  14.471  11.195
42484W        W14210   1.540   1.255   4.090
42485W        W14211  44.959  30.848  14.311
42486W        W14212   8.662  15.734   2.107
42487W        W14213   4.842  15.199   1.771
42488W        W14214  10.326  17.423  11.177
42489W        W14215  38.861   2.272  10.897
42490W        W14216  13.119   6.795   4.692
42491W        W14217  26.593   1.171   3.095
42492W        W14218   0.388  25.420  10.750
42493W        W14219  28.243   2.536   0.482
42494W        W14220  36.410  26.727  12.611
42495W        W14221  27.663  11.839   4.929
42496W        W14222   2.529  10.328   3.159
42497W        W14223   2.294   3.183   0.272
42498W        W14224   7.845  36.629   4.674
42499W        W14225  17.727  25.520   4.276
42500W        W14226  26.713   8.156   3.178
42501W        W14227   5.197  28.280  11.068
42502W        W14228   4.925   6.021   9.568
42503W        W14229  21.725   1.732   1.892
42504W        W14230   1.461  11.711  13.389
42505W        W14231   1.869  26.185  12.165
42506W        W14232  44.006  38.048  12.361
42507W        W14233  40.852  23.162   2.606
42508W        W14234  20.073  37.824   2.878
42509W        W14235  11.235   9.373   0.724
42510W        W14236  18.519  21.626   0.035
42511W        W14237  31.077   4.830  14.217
42512W        W14238   7.276  11.106   0.017
42513W        W14239  22.115  37.082   0.909
42514W        W14240  25.000   7.902  13.995
42515W        W14241  31.371  27.108  11.133
42516W        W14242  19.002   3.869   3.736
42517W        W14243  11.312  27.118   0.343
42518W        W14244  10.093   7.129  11.037
42519W        W14245  11.382  15.829   0.894
42520W        W14246  14.730   0.455   1.798
42521W        W14247   7.729  41.296  12.507
42522W        W14248  25.206  27.641  10.387
42523W        W14249  16.617  20.765   0.898
42524W        W14250  33.964   3.447   4.070
42525W        W14251  18.766  16.114   4.034
42526W        W14252  44.430  21.511  13.967
42527W        W14253   1.831  26.118   4.159
42528W        W14254   7.001  35.635   0.485
42529W        W14255   1.430   2.729   4.505
42530W        W14256  44.793  29.443  14.826
42531W        W14257  30.130   1.510  10.781
42532W        W14258  31.447  31.521   4.492
42533W        W14259  26.541  44.428  13.285
42534W        W14260  16.558  18.681   1.296
42535W        W14261  11.818  21.976   2.717
42536W        W14262  44.811  20.641  12.013
42537W        W14263  40.092   9.226  12.396
42538W        W14264  20.601  13.775   4.747
42539W        W14265   0.890   4.003  14.323
42540W        W14266   5.511  15.856  10.609
42541W        W14267  25.825   1.395   9.570
42542W        W14268   5.296  37.317   1.834
42543W        W14269   4.496  38.351  14.743
42544W        W14270  34.888   1.403   2.487
42545W        W14271   2.309  22.348   4.954
42546W        W14272  38.100  35.573  11.092
42547W        W14273  24.275   9.464   2.353
42548W        W14274  31.328   4.983   1.737
42549W        W14275  26.505  17.770  11.676
42550W        W14276  35.388  37.956  11.577
42551W        W14277  43.584  27.252  12.097
42552W        W14278  12.293  15.673   2.256
42553W        W14279  24.740  43.033  12.500
42554W        W14280  30.672  15.941   0.733
42555W        W14281  34.553  43.870   3.132
42556W        W14282  23.791  33.526  14.209
42557W        W14283  34.355   4.436  13.910
42558W        W14284  13.860   9.731  10.531
42559W        W14285  40.253  14.581   0.507
42560W        W14286  43.371  40.145  13.848
42561W        W14287  39.410   0.472  11.218
42562W        W14288   0.419  44.549  14.328
42563W        W14289  28.094  24.059  12.520
42564W        W14290   5.408  39.927   2.803
42565W        W14291  24.502   4.095  13.255
42566W        W14292   4.144  31.656  11.952
42567W        W14293  34.148  36.317   3.698
42568W        W14294   9.626  31.089  12.134
42569W        W14295   2.383  40.848   3.693
42570W        W14296  27.534   7.321   0.952
42571W        W14297  25.642   2.406   3.934
42572W        W14298  39.316  42.887  14.718
42573W        W14299  25.091  40.459   4.071
42574W        W14300  15.652   7.939  12.887
42575W        W14301  32.905  26.638   4.992
42576W        W14302  44.443   7.835   3.105
42577W        W14303  24.783  40.372  12.873
42578W        W14304  41.437  33.405  11.176
42579W        W14305  39.833   6.479   0.674
42580W        W14306   0.406   1.038   4.784
42581W        W14307  17.227  44.811   2.732
42582W        W14308   9.791  37.861   2.724
42583W        W14309  38.890  19.994   1.284
42584W        W14310  32.027  10.617   1.347
42585W        W14311   1.366   4.575  14.865
42586W        W14312  39.508  20.084  10.628
42587W        W14313  14.023  42.433   2.825
42588W        W14314  26.376  24.255  14.626
42589W        W14315  22.683  17.658   1.899
42590W        W14316  32.495   2.256   5.098
42591W        W14317  43.955  29.160   2.214
42592W        W14318  32.331  13.131   4.497
42593W        W14319  44.023  39.548  10.587
42594W        W14320  24.459  44.851  14.735
42595W        W14321   1.109   1.928   2.834
42596W        W14322  43.288  41.985  11.544
42597W        W14323  10.749  24.146   0.173
42598W        W14324  28.454  44.926   4.618
42599W        W14325  18.756  22.716   1.345
42600W        W14326   5.850   0.229  10.661
42601W        W14327  36.965   1.213  13.138
42602W        W14328  16.762   6.013  11.197
42603W        W14329  12.297  27.874  14.000
42604W        W14330  39.466   1.388  12.409
42605W        W14331  38.399  19.233  13.331
42606W        W14332  21.171  37.556  12.235
42607W        W14333  26.678   3.685  14.449
42608W        W14334  36.832  10.391   1.609
42609W        W14335  30.780  33.464   4.531
42610W        W14336  35.294  42.296  11.555
42611W        W14337  28.618   6.400  11.650
42612W        W14338  23.340  41.396  12.366
42613W        W14339  20.225   0.464   1.048
42614W        W14340  14.623  28.214  11.535
42615W        W14341  32.028  40.379   4.170
42616W        W14342  10.318  43.559  13.933
42617W        W14343   7.254  25.489   1.148
42618W        W14344  10.645  38.074  12.929
42619W        W14345  28.466   2.851  10.992
42620W        W14346  36.020  16.229   0.356
42621W        W14347   8.653   0.423   0.686
42622W        W14348  33.463  42.850  13.826
42623W        W14349  24.203   0.036  11.590
42624W        W14350  10.849  22.283  12.552
42625W        W14351  21.484   8.550   3.231
42626W        W14352  36.131  32.059   5.081
42627W        W14353  10.641   4.045  14.254
42628W        W14354  43.483  16.299   0.940
42629W        W14355  22.406  38.627   1.752
42630W        W14356  11.629  30.518  11.652
42631W        W14357  17.506  39.770  13.894
42632W        W14358  40.799  27.130   4.782
42633W        W14359   6.265  36.987   2.745
42634W        W14360   1.657  24.578  12.341
42635W        W14361  23.251  41.244   0.399
42636W        W14362  26.482  22.728  11.671
42637W        W14363  35.524  42.404   0.496
42638W        W14364   1.467  37.637  11.573
42639W        W14365  23.420  13.672   2.491
42640W        W14366  38.340   6.925  14.751
42641W        W14367   2.334  16.715  12.945
42642W        W14368  24.321   9.202   2.856
42643W        W14369  10.873  11.741   2.237
42644W        W14370  36.529  17.964  10.462
42645W        W14371  19.622  30.636  12.640
42646W        W14372   7.609  31.287  11.373
42647W        W14373  38.013   0.984   4.348
42648W        W14374  37.025  21.479   3.207
42649W        W14375  37.835  11.658   3.159
42650W        W14376  38.836  35.914   2.138
42651W        W14377  19.542  19.537  14.970
42652W        W14378  37.218  31.102  11.808
42653W        W14379  37.660   4.768   4.037
42654W        W14380   4.503   6.299  13.385
42655W        W14381   8.345   0.066   0.434
42656W        W14382  18.768   8.106   3.177
42657W        W14383  23.215  35.029  12.431
42658W        W14384  19.681  29.989   4.322
42659W        W14385   8.341  44.567   0.360
42660W        W14386   3.130  39.240  13.539
42661W        W14387   5.891  31.353   2.256
42662W        W14388  33.927   2.980   2.215
42663W        W14389   0.992   6.431   0.653
42664W        W14390  30.536   0.186   4.354
42665W        W14391  21.082   6.605  14.635
42666W        W14392  40.887   8.721   0.283
42667W        W14393  31.823  42.860   0.355
42668W        W14394  34.888  10.459   4.166
42669W        W14395  40.971  31.809   3.689
42670W        W14396  38.287  13.197  12.953
42671W        W14397  32.906   0.679  10.816
42672W        W14398  34.577   5.318  10.473
42673W        W14399  38.521  21.583   3.216
42674W        W14400   7.199  34.649  14.338
42675W        W14401  32.375  42.834   2.229
42676W        W14402  36.794  27.700   0.332
42677W        W14403  23.086  39.254   3.977
42678W        W14404  37.535   9.903   4.249
42679W        W14405  15.637  13.712   0.376
42680W        W14406  36.961   4.650   2.346
42681W        W14407  42.366  28.419  14.470
42682W        W14408   3.277  19.313  14.196
42683W        W14409  26.602  10.405  12.416
42684W        W14410  25.363   9.900  11.728
42685W        W14411   9.871  43.653  11.122
42686W        W14412  41.571  40.328  12.460
42687W        W14413  34.147   4.379   2.422
42688W        W14414  43.464  23.399  12.983
42689W        W14415  35.178  16.456   3.790
42690W        W14416  12.514  36.492  12.614
42691W        W14417  19.065  32.009  11.181
42692W        W14418  25.477   0.781   9.830
42693W        W14419   5.749   4.219   4.129
42694W        W14420  18.582  22.220   1.351
42695W        W14421   0.021  17.031   1.913
42696W        W14422  43.482  38.574   3.735
42697W        W14423  10.622  38.529  14.759
42698W        W14424  25.952  24.545   0.755
42699W        W14425   3.468  21.298  13.727
42700W        W14426   8.518  44.805   0.873
42701W        W14427   8.774  23.044   0.615
42702W        W14428  33.979  42.875   4.537
42703W        W14429  22.068  10.884  12.384
42704W        W14430  26.722  34.785   3.077
42705W        W14431   6.929  44.294  13.836
42706W        W14432  25.681  44.256  13.842
42707W        W14433  42.542  16.144   1.951
42708W        W14434  17.660  15.194  13.359
42709W        W14435  38.350  19.202  12.472
42710W        W14436  27.648   6.223  12.189
42711W        W14437   9.398  35.513   4.478
42712W        W14438  14.749   7.393   1.188
42713W        W14439  27.692  37.428   2.583
42714W        W14440   3.362  18.115   4.326
42715W        W14441  12.128  10.834   4.618
42716W        W14442   9.013  41.643  11.962
42717W        W14443  19.909  21.674  14.956
42718W        W14444   1.917   4.234  10.947
42719W        W14445  20.355  17.407  14.434
42720W        W14446  31.645  13.302   1.796
42721W        W14447  18.274   0.424  11.749
42722W        W14448  42.718  19.551  11.399
42723W        W14449   7.939  32.437  10.794
42724W        W14450  35.045  28.722  11.039
42725W        W14451  23.964  30.066   2.339
42726W        W14452   2.743  19.744  13.371
42727W        W14453  14.729   6.893  10.915
42728W        W14454   0.223  44.240   4.943
42729W        W14455  21.270  38.591  10.171
42730W        W14456  43.706  22.595   3.007
42731W        W14457  42.303  36.642  12.434
42732W        W14458  30.714   6.589   1.775
42733W        W14459   8.691  26.260   4.088
42734W        W14460  12.301  24.061   2.598
42735W        W14461   0.495  17.366   0.395
42736W        W14462  43.717  21.615  10.283
42737W        W14463  14.365  34.049  10.649
42738W        W14464  25.379  18.977  12.131
42739W        W14465  11.268  28.982   4.539
42740W        W14466  33.016   9.820  13.009
42741W        W14467  16.596  24.616  11.987
42742W        W14468  20.577  13.028   1.270
42743W        W14469  10.785  44.333   1.907
42744W        W14470  25.491  40.826   0.328
42745W        W14471  28.678   7.821  10.736
42746W        W14472  19.457  27.612   2.712
42747W        W14473  31.916  13.048   4.191
42748W        W14474  22.218  39.253  10.643
42749W        W14475  30.023  11.651   1.399
42750W        W14476  39.020  41.303   1.338
42751W        W14477  35.623  38.994  12.435
42752W        W14478  41.702  28.361  12.251
42753W        W14479  24.012  15.491   9.893
42754W        W14480  19.567  43.312   1.885
42755W        W14481  43.536  14.573  14.878
42756W        W14482  19.199  29.121   4.257
42757W        W14483  37.321  22.467  13.830
42758W        W14484   8.426  20.276  13.495
42759W        W14485  36.820  19.859   4.958
42760W        W14486   3.727  38.779   0.237
42761W        W14487   8.826  40.423   3.788
42762W        W14488   2.973  29.206   1.760
42763W        W14489  34.659  20.060   1.867
42764W        W14490   7.740  42.242   1.355
42765W        W14491   9.806  41.627  12.371
42766W        W14492  25.417  33.531   5.097
42767W        W14493  16.891   0.758  11.882
42768W        W14494   8.175  13.717   3.283
42769W        W14495   9.924  32.262   1.197
42770W        W14496  15.536  39.050  13.102
42771W        W14497  18.006  37.026   0.791
42772W        W14498  15.847   4.933   1.793
42773W        W14499   1.026  39.178   0.579
42774W        W14500  27.107  23.151  12.016
42775W        W14501  16.134  30.883  12.452
42776W        W14502  17.543  18.527  12.145
42777W        W14503  44.457  27.680   4.017
42778W        W14504  42.942   6.180   4.508
42779W        W14505  28.682  23.259  13.068
42780W        W14506  35.019  20.181   1.163
42781W        W14507  26.632  29.955   2.927
42782W        W14508  36.711  35.095  13.927
42783W        W14509  14.280  12.113  14.505
42784W        W14510   9.700  21.491  11.931
42785W        W14511  10.860  37.508  14.951
42786W        W14512  32.092  43.235   0.723
42787W        W14513  21.077  39.874   4.571
42788W        W14514  25.049   7.815  11.928
42789W        W14515   2.823   8.961  14.366
42790W        W14516  29.198  32.474  11.498
42791W        W14517   9.505  30.534  13.769
42792W        W14518  15.898   5.169  10.634
42793W        W14519  36.972  20.357   4.827
42794W        W14520  11.927  16.713  10.691
42795W        W14521  42.522  33.715   1.937
42796W        W14522   5.806  34.866  11.527
42797W        W14523  32.306  26.500   4.177
42798W        W14524   5.452  29.961   3.251
42799W        W14525  20.729  24.350  12.835
42800W        W14526  24.695  25.723  10.351
42801W        W14527  17.003  13.628   2.354
42802W        W14528   2.715  44.955   3.781
42803W        W14529  17.414   6.564  13.996
42804W        W14530  33.040  28.425   4.413
42805W        W14531  20.611   9.224  12.873
42806W        W14532  11.356  19.744   4.884
42807W        W14533  16.126  37.874  11.027
42808W        W14534  30.660  12.925  12.444
42809W        W14535   3.051  20.098  13.598
42810W        W14536   7.379  22.273  12.335
42811W        W14537  20.362   4.079  14.445
42812W        W14538   8.013  16.612   3.020
42813W        W14539  14.724  23.217   1.358
42814W        W14540  41.246  44.015  13.266
42815W        W14541  12.401  39.447  11.916
42816W        W14542  17.063  14.128  10.029
42817W        W14543  24.088  31.437  13.391
42818W        W14544  34.424  27.410   3.780
42819W        W14545  43.820  40.960  10.901
42820W        W14546  23.254  24.788  12.490
42821W        W14547  18.603  36.720  13.968
42822W        W14548  10.272  43.098   5.359
42823W        W14549  10.532  35.616   2.680
42824W        W14550  31.933  22.077  12.311
42825W        W14551  28.884  13.937   2.880
42826W        W14552  24.924  43.791   4.953
42827W        W14553  33.474   3.202  12.423
42828W        W14554  33.358  12.564   3.286
42829W        W14555  15.099  20.264  13.963
42830W        W14556  21.867   3.033  14.532
42831W        W14557  36.016  34.067  11.639
42832W        W14558  21.317  13.527   1.449
42833W        W14559  30.174  17.319  14.536
42834W        W14560  41.664  17.030  13.376
42835W        W14561  18.184  12.378  10.692
42836W        W14562  22.976  12.241   2.818
42837W        W14563  44.617  20.081  14.814
42838W        W14564  10.227  14.606   3.778
42839W        W14565  18.431  18.095  10.605
42840W        W14566  38.528   5.988   2.254
42841W        W14567  27.275  20.035   0.841
42842W        W14568  21.105  39.298  13.971
42843W        W14569  25.261  27.520   0.016
42844W        W14570  23.544  36.904   1.035
42845W        W14571   7.408  33.580   2.477
42846W        W14572  23.430  14.143   2.300
42847W        W14573  12.287  43.073  11.930
42848W        W14574   5.451  31.657   2.838
42849W        W14575  16.792   8.661  13.883
42850W        W14576  30.559  19.554  11.274
42851W        W14577  41.309  12.079   1.421
42852W        W14578  15.079   9.208  14.205
42853W        W14579   9.929   1.925   3.487
42854W        W14580  14.515  14.328   1.777
42855W        W14581  11.879  27.656   2.444
42856W        W14582   9.621   0.081  11.178
42857W        W14583   7.123   7.720   4.661
42858W        W14584  17.284   4.317  11.107
42859W        W14585   8.256  26.574  14.560
42860W        W14586  29.648  41.488   3.577
42861W        W14587  18.908  11.154  14.267
42862W        W14588  20.655  12.600   2.796
42863W        W14589   3.924  27.571  12.466
42864W        W14590  29.726  29.555   4.677
42865W        W14591   1.278  33.612  14.139
42866W        W14592  10.303  20.511   2.128
42867W        W14593  29.134   6.621  11.075
42868W        W14594  44.401  27.472   1.763
42869W        W14595  21.200  14.270   4.563
42870W        W14596   5.436   0.563   0.062
42871W        W14597  37.518  29.837  12.867
42872W        W14598  17.467  16.654  12.085
42873W        W14599  31.999   2.708   3.700
42874W        W14600  14.639  35.102  11.237
42875W        W14601  43.301  19.596   0.920
42876W        W14602  38.954  17.057   4.525
42877W        W14603   0.899  43.902  12.953
42878W        W14604   8.367  24.086  12.860
42879W        W14605   1.154  34.428  11.195
42880W        W14606   9.223   5.834   0.415
42881W        W14607  12.934  44.395  11.585
42882W        W14608  13.065  27.165  12.905
42883W        W14609  20.226  35.652  12.834
42884W        W14610  41.764  19.522   0.764
42885W        W14611   2.470   1.840  14.005
42886W        W14612  25.038  40.325   1.782
42887W        W14613  13.573  34.032   3.601
42888W        W14614  16.011  15.092   0.527
42889W        W14615   2.833  29.208  11.538
42890W        W14616  20.670  13.320   3.130
42891W        W14617   8.958  15.319   1.365
42892W        W14618  15.383  23.428   0.978
42893W        W14619   5.550   6.262  13.486
42894W        W14620  34.537  15.500  13.618
42895W        W14621  37.416   8.198   0.995
42896W        W14622  10.731  41.293  12.488
42897W        W14623  40.883   8.803   0.801
42898W        W14624  41.269   0.851  11.727
42899W        W14625  22.744  10.289  13.501
42900W        W14626  13.278   0.464  11.517
42901W        W14627  11.357  24.033   3.396
42902W        W14628  33.032   8.636   2.778
42903W        W14629  22.599  41.283   1.583
42904W        W14630  37.102   7.981   1.339
42905W        W14631   5.190  43.966   1.668
42906W        W14632   6.900  19.652  13.902
42907W        W14633  41.708   0.920  12.999
42908W        W14634  29.389   1.188  10.815
42909W        W14635  27.584  33.093   2.127
42910W        W14636  26.580  28.474  14.492
42911W        W14637   0.227  23.106   1.305
42912W        W14638  41.588  40.866  14.025
42913W        W14639  10.131   1.040   2.374
42914W        W14640   2.717  35.658  13.332
42915W        W14641  14.300  40.219   1.808
42916W        W14642   2.949  24.019   1.438
42917W        W14643  15.036  34.598   4.829
42918W        W14644  31.860  31.914   4.700
42919W        W14645  14.219  40.777  11.477
42920W        W14646  30.412  40.994  13.599
42921W        W14647   2.477   2.340  10.992
42922W        W14648  11.704  22.602  11.712
42923W        W14649  13.171  34.833  12.458
42924W        W14650  16.148   7.257   3.288
42925W        W14651  41.696  43.044  10.139
42926W        W14652  43.485  13.307  12.644
42927W        W14653   5.244  21.177  12.478
42928W        W14654  23.535  22.070  12.097
42929W        W14655  41.346  21.445   2.467
42930W        W14656   4.915  41.805   2.324
42931W        W14657  26.105  27.059   0.248
42932W        W14658  29.964   3.489   3.749
42933W        W14659  43.307   3.422  13.480
42934W        W14660  44.777  27.979  14.524
42935W        W14661  22.630   3.781  13.134
42936W        W14662  14.370   0.550   0.004
42937W        W14663  23.256  15.068  14.709
42938W        W14664   0.970  26.236   2.891
42939W        W14665  35.001  26.177  12.413
42940W        W14666  23.874  21.539   1.219
42941W        W14667  35.290  20.142   2.854
42942W        W14668  18.277  10.226   2.375
42943W        W14669  14.866  18.790   3.163
42944W        W14670  39.006  23.480  10.989
42945W        W14671  26.120  22.458  11.096
42946W        W14672  26.938   3.269  11.886
42947W        W14673  31.714  36.455  13.870
42948W        W14674   4.646   7.310   5.126
42949W        W14675  28.386   9.199   0.338
42950W        W14676  22.746   8.962   4.029
42951W        W14677  29.565  14.688  13.419
42952W        W14678   9.590  42.645  11.097
42953W        W14679   3.810  27.032  11.021
42954W        W14680  34.034  44.751   1.832
42955W        W14681  37.951  13.160  13.831
42956W        W14682   0.289  35.881  12.461
42957W        W14683  43.165  27.908  11.368
42958W        W14684  41.023  13.899  14.216
42959W        W14685  26.585  33.430  13.444
42960W        W14686  28.952  36.188   0.087
42961W        W14687   3.872  10.890  11.450
42962W        W14688  16.835   6.548  11.240
42963W        W14689   4.339  43.964  14.785
42964W        W14690  42.726  21.307   4.996
42965W        W14691  28.625   4.275  11.655
42966W        W14692   0.962   3.484  12.447
42967W        W14693   6.646  14.412  11.946
42968W        W14694  18.524   5.457   2.329
42969W        W14695  21.092   5.662  14.862
42970W        W14696  41.232  25.590   3.397
42971W        W14697  31.618  14.295   3.268
42972W        W14698   9.237  30.891   0.319
42973W        W14699  24.650  40.465   0.449
42974W        W14700  17.190  37.135  13.798
42975W        W14701  34.980  28.114   1.850
42976W        W14702   4.915  26.478   4.259
42977W        W14703  41.937  26.672   2.272
42978W        W14704  35.037   5.558  14.370
42979W        W14705   6.272  24.802   1.913
42980W        W14706   0.758  29.529  14.883
42981W        W14707  20.772  38.583  13.215
42982W        W14708  33.089  15.318   0.215
42983W        W14709   8.839  12.132   0.400
42984W        W14710   6.758  34.570   3.888
42985W        W14711  34.850  10.499  14.455
42986W        W14712   1.735   2.936   2.145
42987W        W14713  21.129  32.726  11.341
42988W        W14714  24.609  29.596  13.007
42989W        W14715  12.988  29.371  12.811
42990W        W14716  19.531   8.169  14.730
42991W        W14717  33.369  38.078   2.723
42992W        W14718  13.355  19.660  11.575
42993W        W14719  43.390   7.988  11.108
42994W        W14720  44.406   5.278   0.728
42995W        W14721  28.701   7.463  14.532
42996W        W14722  13.221   1.066   0.732
42997W        W14723  10.899  37.621  13.054
42998W        W14724  27.657  10.762  13.891
42999W        W14725  43.476  11.308  10.951
43000W        W14726  41.456  25.757   1.700
43001W        W14727  12.399  24.727  10.799
43002W        W14728  23.855   3.656  14.555
43003W        W14729   3.991  34.681   1.435
43004W        W14730  17.245   6.616  14.836
43005W        W14731  43.391   6.274  13.284
43006W        W14732  39.768  39.800   3.555
43007W        W14733  44.787  16.230   1.633
43008W        W14734  31.112   4.604  11.996
43009W        W14735  16.621   2.487   4.159
43010W        W14736  44.962   2.289   0.375
43011W        W14737   9.884  16.808  10.685
43012W        W14738   1.758   3.567   4.115
43013W        W14739   6.694  23.403  11.167
43014W        W14740  27.996   7.188  12.154
43015W        W14741  29.017   1.412  14.917
43016W        W14742  23.869  17.716  13.489
43017W        W14743  33.300   7.972  11.707
43018W        W14744   9.654  24.561   2.829
43019W        W14745  27.148  19.786   2.232
43020W        W14746  31.153  42.521   1.509
43021W        W14747  34.052  14.399   1.679
43022W        W14748   8.703  36.498   2.370
43023W        W14749   3.921  25.640   4.354
43024W        W14750   2.456  33.887  14.340
43025W        W14751  34.640  21.911   1.323
43026W        W14752  28.472  43.215  10.620
43027W        W14753  15.616  28.030   3.279
43028W        W14754  11.536  44.889   2.768
43029W        W14755  16.090   0.775  14.569
43030W        W14756  30.114  38.850   3.813
43031W        W14757  34.330  32.368  12.961
43032W        W14758  29.248  40.489   1.806
43033W        W14759  38.523  33.593   3.429
43034W        W14760  28.238  37.538   5.017
43035W        W14761  34.304  17.547  12.119
43036W        W14762  22.731  43.932   4.504
43037W        W14763  16.898  17.040  10.627
43038W        W14764  33.434  35.569  12.098
43039W        W14765  10.535  25.439   5.221
43040W        W14766  15.599   8.696   2.319
43041W        W14767  27.995  20.553   4.140
43042W        W14768  19.360  30.994   0.927
43043W        W14769   4.188   4.132  13.590
43044W        W14770  16.112  30.770   5.185
43045W        W14771  35.488  27.666   4.463
43046W        W14772  37.155  33.610   3.768
43047W        W14773  21.450   1.249   4.764
43048W        W14774  36.874  35.516  11.283
43049W        W14775  35.173  20.584  11.615
43050W        W14776  39.252  15.782  14.366
43051W        W14777  33.980  41.399   3.419
43052W        W14778  40.740  43.048  13.498
43053W        W14779  20.669   6.396   0.971
43054W        W14780  15.660   7.653  10.330
43055W        W14781  15.605  19.158   3.405
43056W        W14782  32.451  41.512  10.222
43057W        W14783  15.086  18.269  13.415
43058W        W14784  13.719  38.951   5.234
43059W        W14785  22.970  41.746   0.371
43060W        W14786  12.133  44.343   2.340
43061W        W14787  38.235   1.428   4.160
43062W        W14788  25.359  26.605  13.702
43063W        W14789   6.885  20.542  14.495
43064W        W14790   7.879  14.369   1.225
43065W        W14791  15.974  12.632  11.047
43066W        W14792  26.329  39.426  11.489
43067W        W14793   5.793  12.242  12.771
43068W        W14794  22.222  35.017  13.332
43069W        W14795  19.977  27.114  12.588
43070W        W14796  13.143   5.639  12.412
43071W        W14797  18.481   7.166  14.837
43072W        W14798   6.168  40.896  10.404
43073W        W14799  39.592  26.971   3.328
43074W        W14800  26.998  28.316   4.450
43075W        W14801  13.326  44.480   4.274
43076W        W14802   2.233  15.017   2.420
43077W        W14803  35.346  17.792   1.297
43078W        W14804  42.094  21.946  13.474
43079W        W14805  27.238  33.146   4.542
43080W        W14806  43.906  21.121   1.236
43081W        W14807  43.574   9.138   0.347
43082W        W14808  26.390  35.494  12.037
43083W        W14809  21.296  21.464  13.049
43084W        W14810  39.540   8.835   3.635
43085W        W14811  15.623   0.148   0.778
43086W        W14812  15.272   8.069   2.411
43087W        W14813  36.985  37.155   4.709
43088W        W14814   2.953  16.918   1.519
43089W        W14815  20.047  31.024   3.612
43090W        W14816  19.156  31.156   0.098
43091W        W14817  11.301  37.565   2.089
43092W        W14818   8.802  33.669  14.446
43093W        W14819  27.248  17.369   3.775
43094W        W14820  33.926  25.560  10.589
43095W        W14821  14.211  20.718  12.294
43096W        W14822  29.791  17.752  10.606
43097W        W14823  44.065   6.374   1.849
43098W        W14824  38.994  17.671  14.773
43099W        W14825  44.602   3.449  12.073
43100W        W14826  24.268  26.810  14.404
43101W        W14827  17.808   6.698  12.562
43102W        W14828  41.401  16.720   4.449
43103W        W14829  23.421  20.340  10.662
43104W        W14830  25.959  24.041   0.745
43105W        W14831  20.085  12.279   0.307
43106W        W14832  39.560  18.526   3.525
43107W        W14833  29.793  26.279   0.888
43108W        W14834  12.097   1.973  14.088
43109W        W14835  17.237   5.765  10.907
43110W        W14836  41.017   5.280  11.127
43111W        W14837  39.861  42.365  13.987
43112W        W14838  26.489  44.153   4.037
43113W        W14839  32.373  23.393   0.847
43114W        W14840  15.701  14.221  14.276
43115W        W14841  26.276  41.557   3.384
43116W        W14842  32.201   9.836  13.359
43117W        W14843  39.566  44.026   1.392
43118W        W14844  21.337  27.067   5.417
43119W        W14845  41.994  17.922  12.934
43120W        W14846  32.415  38.596   4.058
43121W        W14847  12.347   6.722   0.732
43122W        W14848  15.823  42.832   3.179
43123W        W14849  36.959  42.597  12.593
43124W        W14850  33.937  12.852   0.279
43125W        W14851   4.134   4.132   2.774
43126W        W14852  26.604  11.290   2.372
43127W        W14853   1.862   7.680   5.038
43128W        W14854  32.950   2.338   2.655
43129W        W14855  36.358  21.353   3.661
43130W        W14856  13.149   6.279   3.831
43131W        W14857  30.502  24.294  14.065
43132W        W14858  20.216  24.267   2.759
43133W        W14859  29.570   6.042  14.720
43134W        W14860  24.760   6.442  11.650
43135W        W14861  16.520  14.585  12.573
43136W        W14862  20.718   5.821  12.000
43137W        W14863  27.909   7.550  14.811
43138W        W14864   7.419  34.535   4.229
43139W        W14865  21.983  20.769  11.183
43140W        W14866  11.923  18.465   1.348
43141W        W14867  38.130  22.507   1.834
43142W        W14868  24.534  18.989   4.238
43143W        W14869  10.346  13.155   0.364
43144W        W14870  18.404  31.661   2.832
43145W        W14871   1.367  39.760  14.342
43146W        W14872  25.099  37.637  12.105
43147W        W14873  35.207  18.192   2.326
43148W        W14874  11.858   3.257   3.750
43149W        W14875   2.940  24.522  12.832
43150W        W14876  39.368  32.521  13.483
43151W        W14877   4.273   6.658   3.248
43152W        W14878  40.450  28.839  11.651
43153W        W14879   5.811  16.579   5.204
43154W        W14880   3.042   2.872  12.234
43155W        W14881  28.952   5.682  11.122
43156W        W14882  43.749  25.354  12.875
43157W        W14883  24.036  26.170   3.728
43158W        W14884   2.107  16.649  14.284
43159W        W14885  24.363  28.808   2.608
43160W        W14886  19.600  11.114   3.139
43161W        W14887  41.772  20.826   3.286
43162W        W14888  19.167   2.053   2.437
43163W        W14889  27.936  37.832  11.235
43164W        W14890  16.772   7.700  14.733
43165W        W14891  30.399   1.339   1.733
43166W        W14892   7.900  19.424   3.160
43167W        W14893  16.149  44.770  12.444
43168W        W14894  39.959  11.094   2.855
43169W        W14895  23.172  22.454  14.281
43170W        W14896   5.679  29.062   4.221
43171W        W14897   1.852  12.107  11.711
43172W        W14898  37.101  15.598  14.936
43173W        W14899   0.683  30.990   1.279
43174W        W14900   0.131   4.490  14.520
43175W        W14901  23.206   4.543   0.371
43176W        W14902  29.052  36.370  14.455
43177W        W14903  14.085   2.438  10.555
43178W        W14904  30.030  18.722  14.413
43179W        W14905   3.299  39.570   4.608
43180W        W14906  12.837  17.201  13.940
43181W        W14907   5.206   7.942   4.160
43182W        W14908   8.614  22.729   1.318
43183W        W14909  15.364  35.601  11.580
43184W        W14910  11.259  44.371  11.867
43185W        W14911   7.475  35.925   1.277
43186W        W14912  43.405  43.667  14.957
43187W        W14913  18.139   7.446  11.009
43188W        W14914  36.657  10.053  10.336
43189W        W14915  26.168  41.141   3.662
43190W        W14916  17.650  41.951  12.304
43191W        W14917  37.268  18.854  14.879
43192W        W14918   5.210  11.081  13.172
43193W        W14919   2.276  33.020   3.624
43194W        W14920  24.635   6.182  13.326
43195W        W14921  43.999  10.703  14.225
43196W        W14922  39.075  28.728  11.627
43197W        W14923  38.517  25.550  12.765
43198W        W14924  42.277  13.734   4.209
43199W        W14925  13.758  27.390  13.346
43200W        W14926   8.250   3.289   2.117
43201W        W14927  41.977  20.147  14.800
43202W        W14928  42.977  44.049   3.747
43203W        W14929  27.928  40.827  10.677
43204W        W14930  22.567  12.651   9.779
43205W        W14931  21.184  41.943  11.774
43206W        W14932  25.698  37.114   5.039
43207W        W14933  39.058  18.502   3.241
43208W        W14934  22.571  25.480   2.326
43209W        W14935  35.955  15.529  11.124
43210W        W14936   0.819  24.071   3.376
43211W        W14937  18.868  16.444   2.225
43212W        W14938  27.235   3.544  10.980
43213W        W14939  11.899  30.645  12.114
43214W        W14940  42.065  13.689   3.734
43215W        W14941  22.767   3.296  11.811
43216W        W14942  27.219  14.264  13.372
43217W        W14943  20.308  20.992  12.074
43218W        W14944   3.393  16.552  14.888
43219W        W14945   5.224  35.508   3.175
43220W        W14946  18.187  25.914   4.835
43221W        W14947   1.995  30.432  10.684
43222W        W14948  36.249  17.616   1.464
43223W        W14949   7.261  22.290   2.244
43224W        W14950   0.336  36.395  14.494
43225W        W14951  17.162  42.773   1.058
43226W        W14952   6.924  34.543   4.362
43227W        W14953  34.925   9.353   2.114
43228W        W14954   4.434  37.914   0.918
43229W        W14955  38.179   2.470   1.312
43230W        W14956  18.566  15.139  12.514
43231W        W14957  43.889  27.906  13.067
43232W        W14958  10.778  26.541   2.334
43233W        W14959  37.041  35.882  10.681
43234W        W14960   8.246   9.756   2.575
43235W        W14961  10.097  36.535  14.780
43236W        W14962  43.711  44.889   0.145
43237W        W14963  36.053  16.504  14.903
43238W        W14964  42.322  41.558  10.735
43239W        W14965   8.656   5.281  14.407
43240W        W14966  13.612  44.309   0.272
43241W        W14967  38.906  15.989   3.104
43242W        W14968   0.738  14.579   2.784
43243W        W14969  41.468   7.778   2.255
43244W        W14970  38.830  14.862  12.882
43245W        W14971  35.484  16.100   4.037
43246W        W14972   0.116   4.627   1.798
43247W        W14973   1.787  35.009   4.141
43248W        W14974  30.261   9.906  12.640
43249W        W14975  16.089  20.057   0.381
43250W        W14976  23.543  12.892   1.208
43251W        W14977   7.114  41.381   0.843
43252W        W14978  16.310  13.740  14.270
43253W        W14979  14.484  35.106  14.482
43254W        W14980  42.178  16.783   1.276
43255W        W14981  43.354  39.835   0.327
43256W        W14982  34.236   5.759   0.291
43257W        W14983  12.816  42.281  12.945
43258W        W14984  15.147  20.010  11.188
43259W        W14985  21.480  36.562   1.209
43260W        W14986  21.145  19.752   4.669
43261W        W14987   0.286  34.394  10.914
43262W        W14988  27.029  44.703   2.799
43263W        W14989  25.109  16.416  12.969
43264W        W14990  34.983  20.524   1.905
43265W        W14991  10.250  16.959   1.255
43266W        W14992  23.562  11.016   1.363
43267W        W14993  10.415  26.719  13.965
43268W        W14994  41.504  26.947   2.370
43269W        W14995  42.432  31.393   0.933
43270W        W14996  20.737  17.005   4.953
43271W        W14997  33.827  32.193  12.099
43272W        W14998  25.442  16.574   4.785
43273W        W14999  20.173  19.006   2.906
43274W        W15000  25.555  10.187   3.199
43275W        W15001  38.933  12.709   0.067
43276W        W15002  36.201  17.789  14.485
43277W        W15003  38.789  17.504   3.271
43278W        W15004  10.738  19.052   0.694
43279W        W15005  12.030  21.911  13.906
43280W        W15006  32.402   8.067  11.658
43281W        W15007   1.863  10.152  11.974
43282W        W15008  15.004  14.801   4.265
43283W        W15009  13.166  24.677  11.144
43284W        W15010  35.339  23.576  13.817
43285W        W15011   0.973  26.023   4.616
43286W        W15012  34.425   8.153  10.986
43287W        W15013  30.106  35.803  13.122
43288W        W15014  42.695  23.223   1.878
43289W        W15015   3.308  23.975   4.506
43290W        W15016   3.361  10.703   2.372
43291W        W15017  38.438   9.301   4.115
43292W        W15018   8.436   6.440   4.090
43293W        W15019  11.651  36.429   4.575
43294W        W15020   0.375  39.624   4.513
43295W        W15021  16.108  38.076  10.576
43296W        W15022  16.636  37.486  13.592
43297W        W15023  29.532  33.846  13.978
43298W        W15024   6.589  35.914   0.782
43299W        W15025  41.574  29.151  12.490
43300W        W15026  40.524  21.840  12.110
43301W        W15027  37.000  38.527   1.473
43302W        W15028  35.950   2.000  12.524
43303W        W15029   9.028   9.663   3.562
43304W        W15030   9.191  18.139  14.689
43305W        W15031   2.212  27.746   3.253
43306W        W15032   5.320  40.043   3.741
43307W        W15033   2.490  28.232   3.223
43308W        W15034  35.046  12.563   1.122
43309W        W15035   1.678  24.051   4.851
43310W        W15036  25.152  29.379  13.692
43311W        W15037  40.828  39.915  14.842
43312W        W15038  30.780   9.116   0.745
43313W        W15039  30.351  13.095  12.034
43314W        W15040  18.358   1.826   4.122
43315W        W15041  42.619   9.155   0.820
43316W        W15042  24.717  39.465  12.610
43317W        W15043  36.062  32.092  12.450
43318W        W15044   6.674  33.880  11.360
43319W        W15045   1.263  31.205   2.679
43320W        W15046  10.199  36.421  11.414
43321W        W15047  44.904  14.808   3.238
43322W        W15048  13.708  36.444  12.115
43323W        W15049  16.342   4.769  13.752
43324W        W15050  27.110   8.142  11.557
43325W        W15051  28.431  30.196  13.446
43326W        W15052  43.343   7.608  14.372
43327W        W15053   8.344  43.942   2.706
43328W        W15054  29.525  28.893   4.140
43329W        W15055  19.047  17.795  14.886
43330W        W15056  29.544  33.205   2.880
43331W        W15057  23.674  36.603   1.480
43332W        W15058   9.652  24.085   2.990
43333W        W15059  25.211   0.949   3.200
43334W        W15060  27.014  31.906   2.760
43335W        W15061   3.853  35.864   0.179
43336W        W15062   0.930  25.545  10.670
43337W        W15063  37.309   4.942  12.072
43338W        W15064  38.616   1.581  12.097
43339W        W15065  41.401  23.401   4.113
43340W        W15066  19.165  10.340  10.800
43341W        W15067  29.706  36.537   4.149
43342W        W15068   5.434  37.371   2.324
43343W        W15069  18.207  38.947  13.888
43344W        W15070  19.271  42.586   5.013
43345W        W15071  10.462  10.352   2.292
43346W        W15072   0.848  13.344   4.990
43347W        W15073  12.725   6.720  14.828
43348W        W15074  44.694  21.494  13.486
43349W        W15075  39.800  44.246   4.501
43350W        W15076   6.403  11.571   4.861
43351W        W15077   7.456  14.363  11.193
43352W        W15078  21.059  38.314   4.796
43353W        W15079  22.126  20.069   3.177
43354W        W15080  12.263  18.106  14.446
43355W        W15081  42.927   9.748  12.391
43356W        W15082  17.163  18.115   3.173
43357W        W15083  43.938  38.872  11.998
43358W        W15084  43.688  20.979   0.325
43359W        W15085   7.604  36.826   1.300
43360W        W15086  15.092   0.319   0.921
43361W        W15087  36.466  12.884   3.884
43362W        W15088  39.266  33.142   3.859
43363W        W15089   5.519  10.738  13.390
43364W        W15090  39.525   8.797  14.068
43365W        W15091   2.396  29.168  11.291
43366W        W15092  23.067   1.727  10.856
43367W        W15093   0.095  24.963   4.129
43368W        W15094   9.276  35.318   4.009
43369W        W15095   5.848  15.540   5.141
43370W        W15096  14.159  10.239   0.066
43371W        W15097  40.772  22.621   4.093
43372W        W15098  43.741  30.569   2.792
43373W        W15099  41.965  10.085   2.237
43374W        W15100   2.926  30.947  13.580
43375W        W15101  32.177   7.049   4.236
43376W        W15102  22.347  25.731   1.893
43377W        W15103  19.334  21.105   2.665
43378W        W15104  14.208   5.438  13.425
43379W        W15105   1.356  14.351   0.664
43380W        W15106   7.880  40.243  11.405
43381W        W15107  41.520  24.070  10.667
43382W        W15108   4.618  21.828   9.988
43383W        W15109  17.113  40.318  12.146
43384W        W15110  12.713  44.375   2.230
43385W        W15111  17.255   5.375   0.340
43386W        W15112  14.959  13.784  11.182
43387W        W15113   1.433  23.832  13.437
43388W        W15114  37.863  10.876   4.145
43389W        W15115  29.375  27.085   1.433
43390W        W15116   6.161   9.891   1.273
43391W        W15117   1.724  28.482   0.255
43392W        W15118  11.301   7.910  14.797
43393W        W15119  10.624  26.922  10.393
43394W        W15120  17.505  14.833   2.313
43395W        W15121  25.237  12.301   0.343
43396W        W15122   5.118   7.471  12.176
43397W        W15123  33.374   1.394   4.617
43398W        W15124   3.985  32.086  11.730
43399W        W15125  33.944   2.937   4.120
43400W        W15126  41.571  24.025  13.137
43401W        W15127  41.939  13.388  11.665
43402W        W15128  22.067  39.088  13.565
43403W        W15129  33.474  13.212   1.941
43404W        W15130   9.813  41.510  14.706
43405W        W15131  15.710  42.340   1.403
43406W        W15132  39.096  13.271  13.318
43407W        W15133  30.176  27.720  10.862
43408W        W15134  22.011  36.055   4.553
43409W        W15135  26.140  16.080   4.244
43410W        W15136   9.707  21.253   1.551
43411W        W15137  21.962  24.428  14.803
43412W        W15138  38.493  38.119   3.579
43413W        W15139  33.399  20.481  12.918
43414W        W15140   3.290  36.305   4.014
43415W        W15141   9.667  40.549   3.967
43416W        W15142  42.380  40.931  12.564
43417W        W15143  24.472   0.277  11.234
43418W        W15144   3.724  29.987  11.575
43419W        W15145  30.118  39.082   4.375
43420W        W15146   3.966  44.476  12.938
43421W        W15147   3.167  20.992  14.003
43422W        W15148  11.789  20.843   1.448
43423W        W15149   3.001  30.054   4.255
43424W        W15150   6.181  38.473   3.158
43425W        W15151  37.783   8.341  13.824
43426W        W15152  37.823  13.766  12.068
43427W        W15153  13.375   1.853   2.198
43428W        W15154   5.104  21.714   1.766
43429W        W15155  22.793  24.008  13.818
43430W        W15156  32.450  21.252   2.655
43431W        W15157  26.004   5.140   2.375
43432W        W15158  27.008  42.908  12.063
43433W        W15159  34.141  10.653  13.531
43434W        W15160  31.066  20.614   4.293
43435W        W15161   7.236  17.313   2.654
43436W        W15162   9.125  44.667   4.776
43437W        W15163   9.511  15.583   2.097
43438W        W15164  33.580  22.345   1.909
43439W        W15165  10.829  23.522  11.941
43440W        W15166  24.797  33.967   4.581
43441W        W15167   9.012   6.202  12.020
43442W        W15168   7.787  23.576  13.559
43443W        W15169  40.068  20.112   3.704
43444W        W15170  36.401  36.088   3.272
43445W        W15171  37.819  39.200   2.407
43446W        W15172  26.097   5.409   0.550
43447W        W15173   9.574  37.817  12.071
43448W        W15174  31.444  31.308   3.617
43449W        W15175  20.076  13.777   3.704
43450W        W15176  37.193  28.059  13.526
43451W        W15177  20.308  43.102   0.046
43452W        W15178  20.123  41.093  14.827
43453W        W15179  13.308  34.424  11.515
43454W        W15180   5.810  19.267   1.774
43455W        W15181   6.809   6.336  14.924
43456W        W15182  42.272  19.240  11.332
43457W        W15183  28.093   2.173  11.635
43458W        W15184  38.959  43.724  12.051
43459W        W15185  21.056  19.524   0.666
43460W        W15186  12.602  22.424  13.300
43461W        W15187  34.587   0.703   3.150
43462W        W15188  15.477  12.560  10.882
43463W        W15189  26.065   6.851   3.359
43464W        W15190  27.533  40.104  11.058
43465W        W15191  37.622   1.164   0.860
43466W        W15192  12.701  44.816  11.435
43467W        W15193  25.944   3.342  13.625
43468W        W15194  33.557  22.750   5.051
43469W        W15195  13.712   0.989   1.274
43470W        W15196  29.343   9.172   0.901
43471W        W15197  17.438  11.474  14.398
43472W        W15198  14.567   1.321   0.329
43473W        W15199  23.631  27.726  11.929
43474W        W15200  36.627  40.815   2.264
43475W        W15201   8.720  32.859   5.058
43476W        W15202  26.537  26.978  10.872
43477W        W15203  12.292   3.847  11.162
43478W        W15204  16.169   7.797  14.055
43479W        W15205  19.608  12.138  14.833
43480W        W15206  14.644  28.737  11.693
43481W        W15207  30.234  12.781  14.736
43482W        W15208  28.855  29.311   4.624
43483W        W15209  12.199  41.891  11.373
43484W        W15210  14.330   2.265   0.325
43485W        W15211   9.418  26.245   5.550
43486W        W15212  13.011  23.400  14.841
43487W        W15213  26.177  15.306   4.585
43488W        W15214   1.319  19.213  12.908
43489W        W15215  44.829  31.625   2.623
43490W        W15216   0.688  13.699   0.080
43491W        W15217  26.518  30.603  12.018
43492W        W15218   1.101  16.424  12.449
43493W        W15219  23.261  42.286  10.801
43494W        W15220  40.796  10.550   2.762
43495W        W15221  36.095   4.663  14.069
43496W        W15222  14.784  20.334   0.757
43497W        W15223   6.150  35.921  11.585
43498W        W15224  40.440  10.306  14.141
43499W        W15225  21.053   0.926  13.020
43500W        W15226  21.769  36.171  12.988
43501W        W15227  38.959  37.401  14.073
43502W        W15228   4.221  13.636   2.351
43503W        W15229  40.602  26.987   3.361
43504W        W15230  29.897  17.085   3.294
43505W        W15231   0.837  36.800  13.491
43506W        W15232  16.873  34.594  13.895
43507W        W15233  10.120  16.760  11.885
43508W        W15234  19.615  25.666   4.160
43509W        W15235   0.805  10.724   0.716
43510W        W15236  38.863   5.914  12.101
43511W        W15237  11.070  24.446   5.386
43512W        W15238  25.059  34.725   1.307
43513W        W15239  28.618  20.262  14.252
43514W        W15240  23.595  11.354  11.514
43515W        W15241   6.718  18.257  11.500
43516W        W15242  34.502   5.411   4.170
43517W        W15243   2.757  41.249  12.523
43518W        W15244  14.160  17.561   4.542
43519W        W15245   6.567  26.700  11.070
43520W        W15246  28.148  21.528   0.359
43521W        W15247   1.044   8.184   2.727
43522W        W15248  27.904  27.500   0.294
43523W        W15249  25.925  20.921   0.409
43524W        W15250  13.206  36.870   3.954
43525W        W15251  25.609  16.108   1.194
43526W        W15252  20.579  34.128   1.366
43527W        W15253  38.330  34.065   3.311
43528W        W15254  27.132  44.193   2.707
43529W        W15255  43.789   1.954   1.164
43530W        W15256  39.827  42.864   3.773
43531W        W15257  25.305  43.520  10.278
43532W        W15258   3.660  18.047   2.115
43533W        W15259  44.033  10.164  12.989
43534W        W15260  40.580  40.013   2.295
43535W        W15261   5.047  21.170   4.950
43536W        W15262   2.804   7.469  14.839
43537W        W15263  10.458   4.923   0.815
43538W        W15264  34.927  27.100   0.349
43539W        W15265  34.802   7.715   4.026
43540W        W15266   7.578   9.591   2.188
43541W        W15267   9.887   9.648   3.230
43542W        W15268  43.331   1.152   0.822
43543W        W15269  20.619  41.495   1.533
43544W        W15270   4.061   6.138  11.528
43545W        W15271  33.004  21.586   4.691
43546W        W15272  12.729  26.143   2.706
43547W        W15273  26.030  44.949   4.336
43548W        W15274  32.872  25.601   0.541
43549W        W15275  11.828   8.329   2.037
43550W        W15276   4.590  33.913  11.570
43551W        W15277   6.298  43.628  11.534
43552W        W15278  32.325   9.370   2.872
43553W        W15279  43.020  24.940  12.965
43554W        W15280  12.346  28.565  11.885
43555W        W15281  40.305   7.428   2.914
43556W        W15282  26.103  12.258   0.898
43557W        W15283  22.425   3.603  14.005
43558W        W15284  14.654   6.760  12.449
43559W        W15285  16.241  10.566  11.385
43560W        W15286  37.185  41.376  14.762
43561W        W15287  42.779  19.024   1.458
43562W        W15288  15.342  25.368   3.168
43563W        W15289  28.435   3.019   0.392
43564W        W15290  23.327  19.462   1.399
43565W        W15291   6.398  26.733  12.429
43566W        W15292   2.765  38.093   0.650
43567W        W15293   5.791  11.282   4.880
43568W        W15294  19.205  38.600  12.361
43569W        W15295  23.626  12.275  11.619
43570W        W15296  15.350  10.805   0.463
43571W        W15297   1.367  16.235   3.421
43572W        W15298   1.361   4.293   2.764
43573W        W15299  40.049  39.469  14.320
43574W        W15300  29.398  33.018  10.700
43575W        W15301  19.752  37.211  12.156
43576W        W15302  27.505  20.374  14.848
43577W        W15303  24.551   1.672   2.187
43578W        W15304  28.113  18.022   0.326
43579W        W15305  18.711  28.543   4.422
43580W        W15306   2.241   5.528   3.671
43581W        W15307  19.727  16.259   4.302
43582W        W15308  38.108  35.278  13.511
43583W        W15309  43.919  14.743   3.187
43584W        W15310   0.481  11.993   4.600
43585W        W15311  36.632   0.231   4.667
43586W        W15312  24.036   4.360   0.985
43587W        W15313  13.978  25.685  13.384
43588W        W15314   8.991   2.270  12.693
43589W        W15315  13.871  34.896  10.749
43590W        W15316  16.346  43.430   3.765
43591W        W15317  17.285  19.296   0.233
43592W        W15318  32.325  10.828  14.656
43593W        W15319  18.050   3.799   0.705
43594W        W15320   6.679  22.511  13.365
43595W        W15321  16.871  12.660  13.881
43596W        W15322  10.572  39.186   4.916
43597W        W15323  38.119  11.790   3.583
43598W        W15324  23.770  28.979  12.191
43599W        W15325  31.190  17.158  14.232
43600W        W15326  16.852  13.125   2.279
43601W        W15327  21.537  37.940  12.858
43602W        W15328  26.384  19.122  13.540
43603W        W15329  37.792  43.825  13.367
43604W        W15330  30.163  12.888  12.487
43605W        W15331  14.242  40.061   0.234
43606W        W15332  26.277  43.460   0.440
43607W        W15333   9.749  13.601   1.896
43608W        W15334  41.974  38.282   2.336
43609W        W15335   1.850  31.104   0.345
43610W        W15336  28.073  29.164  12.417
43611W        W15337  36.955  18.142   4.298
43612W        W15338  42.182  24.659  13.022
43613W        W15339  40.209  41.760   2.843
43614W        W15340  21.547  41.955  13.194
43615W        W15341  29.144  18.994  14.441
43616W        W15342   3.197  35.502  14.409
43617W        W15343  22.178  28.508  14.258
43618W        W15344  24.564  27.949   3.300
43619W        W15345  39.965  27.141   1.010
43620W        W15346  17.301  35.456   1.698
43621W        W15347  34.728  39.934  11.558
43622W        W15348   2.556  28.010  14.851
43623W        W15349  43.358   7.097  14.453
43624W        W15350  37.538  21.752   3.917
43625W        W15351   3.174   0.262   4.676
43626W        W15352  37.449  41.162   4.670
43627W        W15353  12.116  11.320   3.848
43628W        W15354  39.034  37.519  11.186
43629W        W15355  13.326  32.608  11.939
43630W        W15356  19.184  34.980  12.121
43631W        W15357  11.419   6.725   1.497
43632W        W15358  22.611  42.111  12.445
43633W        W15359  26.889   7.180   4.629
43634W        W15360   7.250  27.533  13.671
43635W        W15361  19.971  41.182   0.306
43636W        W15362   2.824  44.678  10.723
43637W        W15363  23.585  30.889   4.936
43638W        W15364  43.552   7.702   1.089
43639W        W15365  35.942  28.565   0.346
43640W        W15366  37.972  44.995  12.605
43641W        W15367  37.565  14.048  10.733
43642W        W15368  17.771  32.303   2.784
43643W        W15369  23.288  44.938  12.967
43644W        W15370   2.800  30.049  11.216
43645W        W15371  24.934   2.653   0.758
43646W        W15372  13.315   7.094   1.950
43647W        W15373  23.950  29.664  11.687
43648W        W15374   8.151  21.637  13.347
43649W        W15375  21.670  44.052   2.179
43650W        W15376  17.380  10.410  10.312
43651W        W15377   7.844  24.175  10.259
43652W        W15378  30.504  14.457   3.506
43653W        W15379   0.719  27.345   3.710
43654W        W15380  44.924  10.366   1.515
43655W        W15381  42.264   0.888  10.716
43656W        W15382  19.520  25.697  10.652
43657W        W15383  40.490  37.994  12.010
43658W        W15384   7.657  23.490   3.243
43659W        W15385  25.120  16.292   2.881
43660W        W15386  30.678  22.530  14.405
43661W        W15387   7.039   0.007  10.961
43662W        W15388   6.521  20.163  14.424
43663W        W15389   5.173   9.887  12.242
43664W        W15390  10.199  33.956   0.360
43665W        W15391   3.552  18.122   2.611
43666W        W15392   5.346  31.917   1.434
43667W        W15393   9.949   9.756  13.010
43668W        W15394  42.989   7.357  10.730
43669W        W15395  20.629  27.251   3.343
43670W        W15396   8.760   2.070   0.756
43671W        W15397  34.635   0.985   1.736
43672W        W15398   3.499  34.168  13.045
43673W        W15399  30.897  30.579  13.625
43674W        W15400  22.612   8.559  12.893
43675W        W15401   3.517  15.833   4.495
43676W        W15402  43.332   3.968  12.844
43677W        W15403  20.171  10.167  11.613
43678W        W15404  40.567  17.638   2.013
43679W        W15405  29.998  28.698   0.540
43680W        W15406  38.798  42.449   3.239
43681W        W15407   3.926   1.211   3.603
43682W        W15408  34.351   0.187   1.299
43683W        W15409  18.723  13.720   0.369
43684W        W15410  15.184  12.773   0.286
43685W        W15411   7.655  38.015  14.735
43686W        W15412  21.317  40.456   4.613
43687W        W15413  40.249  40.192  10.354
43688W        W15414  18.618  29.154   1.352
43689W        W15415  20.047  28.994  10.573
43690W        W15416  10.412  15.724  13.026
43691W        W15417  36.102  22.206   4.265
43692W        W15418  37.548  24.156   3.193
43693W        W15419  31.907  38.425  13.221
43694W        W15420   0.991   6.153   1.117
43695W        W15421  25.242   1.034  11.563
43696W        W15422  13.578   7.056   4.680
43697W        W15423  43.246  35.002   2.551
43698W        W15424  32.666   4.650   0.410
43699W        W15425  32.110   4.734   3.582
43700W        W15426  10.286  33.959  13.663
43701W        W15427  20.268   0.363   1.553
43702W        W15428  17.989  18.252  13.878
43703W        W15429  17.590  12.825  11.987
43704W        W15430   6.685  33.305   3.796
43705W        W15431  42.731  19.577  10.288
43706W        W15432   9.264  15.847  14.351
43707W        W15433  40.709   0.988  12.937
43708W        W15434  17.829  17.756  13.960
43709W        W15435   6.684  41.646   0.003
43710W        W15436  38.452  15.757   3.219
43711W        W15437  36.469   9.672   4.633
43712W        W15438  35.811  41.453  13.526
43713W        W15439  31.075   0.261   9.943
43714W        W15440  29.074   3.599   5.022
43715W        W15441   0.565  18.971   0.150
43716W        W15442  41.605   9.053  11.680
43717W        W15443   8.286  20.654   4.126
43718W        W15444   0.842  36.008  13.943
43719W        W15445   6.387   5.158  14.527
43720W        W15446  19.785   3.210   0.100
43721W        W15447  38.423  36.690   0.292
43722W        W15448  19.658  35.896  14.913
43723W        W15449   0.647  18.703   2.701
43724W        W15450   2.175  37.975   3.265
43725W        W15451   8.236  35.389   2.242
43726W        W15452  11.818  19.534  11.581
43727W        W15453   2.184  30.949  10.551
43728W        W15454   0.364  42.994  11.596
43729W        W15455  40.464  43.506  14.249
43730W        W15456  34.903  14.134   1.204
43731W        W15457   9.997  13.801  13.062
43732W        W15458  20.979  36.785   1.936
43733W        W15459  40.039  18.900  13.406
43734W        W15460  41.941  10.388  14.006
43735W        W15461  31.904   2.403  13.932
43736W        W15462  24.744  23.267   2.796
43737W        W15463  35.429  25.308  13.922
43738W        W15464  10.468  23.148  13.308
43739W        W15465  44.530  11.879  13.426
43740W        W15466  32.270   9.943  10.603
43741W        W15467  14.230  44.789   1.926
43742W        W15468  23.768  33.934   1.422
43743W        W15469  13.506  13.765   4.154
43744W        W15470  21.569  29.844  13.538
43745W        W15471  40.624  42.482   3.155
43746W        W15472  32.527  32.910  11.912
43747W        W15473  27.397   3.663  13.924
43748W        W15474  27.292   8.685  14.640
43749W        W15475  31.013   9.888   3.881
43750W        W15476  36.838   3.507   1.386
43751W        W15477  26.296  33.179   0.351
43752W        W15478  22.010  15.855   3.802
43753W        W15479  29.499  38.073  14.531
43754W        W15480  19.278  33.829  12.824
43755W        W15481  25.153   8.631   5.131
43756W        W15482  41.791  28.542  11.558
43757W        W15483  11.613  26.056  13.488
43758W        W15484   0.872   4.831   0.525
43759W        W15485   0.970  33.981  11.016
43760W        W15486   0.550   5.225  12.021
43761W        W15487   5.201   1.714   2.164
43762W        W15488   7.607  13.156   2.174
43763W        W15489  31.600  15.692  12.595
43764W        W15490  10.133  39.959  12.841
43765W        W15491  25.217  14.629  11.576
43766W        W15492  15.126  33.127   1.597
43767W        W15493  39.532  11.912  13.608
43768W        W15494  33.559  17.722  13.687
43769W        W15495  13.352  10.689   2.262
43770W        W15496   9.613  40.000   2.561
43771W        W15497  42.910   6.381   0.168
43772W        W15498  39.926  30.526   1.418
43773W        W15499  19.680   2.371  12.496
43774W        W15500  29.004  30.582  11.680
43775W        W15501  17.552  18.333   0.295
43776W        W15502  29.266  19.939   0.840
43777W        W15503  11.606  26.008  14.445
43778W        W15504   9.104  37.335  11.504
43779W        W15505  15.965  25.884   1.288
43780W        W15506  33.849  19.817   0.551
43781W        W15507   0.402  17.698   2.701
43782W        W15508   8.334  36.553  12.209
43783W        W15509  12.327  42.813  13.435
43784W        W15510  30.740  33.036   3.294
43785W        W15511  18.700   4.693   0.982
43786W        W15512  20.116  38.590   0.765
43787W        W15513  32.358  25.925   2.611
43788W        W15514  22.554  27.478  11.468
43789W        W15515  25.959   0.844  13.118
43790W        W15516  22.693  21.078   3.362
43791W        W15517   5.817  40.277   0.299
43792W        W15518  34.642  41.291  14.575
43793W        W15519   6.421  41.021  11.884
43794W        W15520  31.851  30.787   1.659
43795W        W15521  36.398  18.648  14.927
43796W        W15522  39.931  34.874   1.829
43797W        W15523  41.996   7.428   2.754
43798W        W15524  26.655  12.852  13.446
43799W        W15525  12.889  40.005  11.758
43800W        W15526  35.824   9.137   3.277
43801W        W15527  31.821  34.059  11.516
43802W        W15528   4.978   1.921   3.168
43803W        W15529  19.033  18.771  11.925
43804W        W15530  43.498  12.140   1.405
43805W        W15531  42.194   7.272   1.409
43806W        W15532  28.511  37.534  13.778
43807W        W15533  32.453  14.160   0.705
43808W        W15534  22.216   7.897   2.371
43809W        W15535  22.205  25.197  10.673
43810W        W15536   7.260  16.151  13.543
43811W        W15537  37.986  11.934  13.167
43812W        W15538  36.542  38.080   0.925
43813W        W15539  16.971  21.174   4.476
43814W        W15540  24.961  36.474  10.941
43815W        W15541  43.969   5.715  12.403
43816W        W15542  42.260   3.057  11.597
43817W        W15543  41.062  26.162   4.460
43818W        W15544  18.606  11.612  10.809
43819W        W15545   4.313   7.901  12.743
43820W        W15546  33.889  13.665  14.786
43821W        W15547  36.651   0.363  13.516
43822W        W15548  35.270  44.982  12.971
43823W        W15549  33.568  37.053   3.899
43824W        W15550  24.311  11.487   0.712
43825W        W15551  41.491  39.996  10.897
43826W        W15552   8.632   3.214  14.973
43827W        W15553  16.526   9.802   2.302
43828W        W15554  28.000  25.457   1.941
43829W        W15555  37.830  15.617   2.349
43830W        W15556  22.835  25.034   4.709
43831W        W15557  12.170  14.865  13.740
43832W        W15558  37.236  34.505  14.955
43833W        W15559  37.966  38.226   1.247
43834W        W15560  37.557   8.242  12.857
43835W        W15561  27.583  21.062   2.901
43836W        W15562  32.037   0.008   3.183
43837W        W15563  10.711  27.198  12.499
43838W        W15564  44.280   7.452   0.352
43839W        W15565  29.037  27.053   3.871
43840W        W15566  13.819  43.236  13.040
43841W        W15567  29.343   7.827  11.535
43842W        W15568   7.169   6.208   1.730
43843W        W15569  39.971  12.720   1.856
43844W        W15570  35.856   0.997   4.040
43845W        W15571  27.874  21.695   4.247
43846W        W15572  27.017  30.193  13.250
43847W        W15573  25.361  39.863   1.455
43848W        W15574  33.621  16.189  13.845
43849W        W15575  38.773   5.431   3.604
43850W        W15576  19.351  19.564   1.307
43851W        W15577   6.496  24.430  10.266
43852W        W15578  19.454  23.635  13.756
43853W        W15579   8.561  27.054  12.138
43854W        W15580  19.128  15.831  13.177
43855W        W15581  27.078  35.350   3.738
43856W        W15582  31.614  14.844  10.598
43857W        W15583  16.440  38.158   0.316
43858W        W15584  17.664   7.258   1.441
43859W        W15585  20.095   5.879   3.715
43860W        W15586  16.681  35.327   3.758
43861W        W15587  20.024  40.373   3.301
43862W        W15588   0.249  22.127   2.273
43863W        W15589  22.197  31.583  14.034
43864W        W15590  25.344  31.709   2.476
43865W        W15591  23.547  11.705   5.064
43866W        W15592  33.221   6.898   4.209
43867W        W15593  19.007  24.901  13.286
43868W        W15594   0.779  44.796  11.689
43869W        W15595  36.827  37.382   3.773
43870W        W15596  18.958  24.488  11.754
43871W        W15597  39.003  15.155   4.075
43872W        W15598   4.654  28.540   1.184
43873W        W15599   4.162   9.282  12.449
43874W        W15600  30.264  12.709  13.362
43875W        W15601  44.401   7.406  12.460
43876W        W15602  40.721  33.060  13.821
43877W        W15603  44.685   5.943  12.875
43878W        W15604  11.218   0.012  13.277
43879W        W15605  12.061  21.642   0.362
43880W        W15606  22.563   3.914  14.391
43881W        W15607  26.066  25.795  14.679
43882W        W15608   8.930  14.223  11.080
43883W        W15609  19.752   3.170   4.184
43884W        W15610  43.855  33.509  14.277
43885W        W15611   7.151  41.429   2.223
43886W        W15612   8.774  10.769  13.507
43887W        W15613   4.786  12.410  14.400
43888W        W15614  36.966   2.666   4.677
43889W        W15615  39.638  21.577  12.120
43890W        W15616  23.177   1.028   1.714
43891W        W15617  18.048  18.096  11.449
43892W        W15618  10.745  27.946   3.904
43893W        W15619  26.781  18.547   0.362
43894W        W15620   4.128   5.814   4.503
43895W        W15621  35.891  39.354  11.985
43896W        W15622  25.993  43.761   0.765
43897W        W15623  13.518  38.779  10.056
43898W        W15624   5.585  33.227   4.591
43899W        W15625  20.061  41.719  13.533
43900W        W15626  13.273   8.125   4.134
43901W        W15627  13.199  40.588   2.317
43902W        W15628  40.065  10.264  11.501
43903W        W15629  17.370  10.891  13.480
43904W        W15630  24.203  36.357   0.817
43905W        W15631  26.227   5.996  13.320
43906W        W15632   1.526  33.402   0.566
43907W        W15633  25.545  23.537  12.960
43908W        W15634   6.808  39.033  12.489
43909W        W15635  44.841  13.356  13.781
43910W        W15636  11.912  36.518  12.932
43911W        W15637  18.320  30.145   0.693
43912W        W15638  41.230  11.333  12.095
43913W        W15639  22.105  34.916   0.153
43914W        W15640   3.152  36.437   0.209
43915W        W15641  16.760   8.368  13.467
43916W        W15642  15.323  15.022   2.323
43917W        W15643  31.143  27.227   3.134
43918W        W15644  31.389  31.020   1.800
43919W        W15645  32.995  14.052   4.727
43920W        W15646  24.590  43.027   2.246
43921W        W15647   2.280   0.356   3.781
43922W        W15648   9.995  19.713  13.818
43923W        W15649  26.179  25.022   0.919
43924W        W15650  23.571  38.103   2.358
43925W        W15651   2.161  36.586  11.195
43926W        W15652  28.148  42.803  10.725
43927W        W15653  31.870   6.687   4.482
43928W        W15654  14.291  20.215   0.720
43929W        W15655   6.184   6.604   1.342
43930W        W15656  35.582  32.845   2.823
43931W        W15657  41.299  26.201   1.925
43932W        W15658   5.332   9.922   0.327
43933W        W15659  37.162  31.787  13.988
43934W        W15660  22.038  15.981   0.376
43935W        W15661  41.557  31.307   0.834
43936W        W15662  24.164   5.947  13.378
43937W        W15663   1.040  38.796  12.506
43938W        W15664   9.006  32.874   3.624
43939W        W15665  38.549  36.466  11.022
43940W        W15666  27.085  11.710   3.380
43941W        W15667  38.336  16.386   3.703
43942W        W15668  11.760  25.786   1.046
43943W        W15669  19.791  17.661  14.002
43944W        W15670  18.657  18.635  14.776
43945W        W15671  14.245  18.255   1.647
43946W        W15672  29.450  11.273  12.629
43947W        W15673  32.469  39.295  12.093
43948W        W15674  29.722  40.546  11.829
43949W        W15675   4.961   4.750   3.263
43950W        W15676  22.964  26.900   4.725
43951W        W15677  19.989  12.695  12.900
43952W        W15678   4.198  16.113   3.890
43953W        W15679  17.471  26.189  13.835
43954W        W15680  31.598  11.608  12.058
43955W        W15681  21.695  12.393   4.110
43956W        W15682  23.140  12.655   1.856
43957W        W15683  20.863  28.864   2.938
43958W        W15684  39.603  22.935   4.136
43959W        W15685  33.723  28.255  13.889
43960W        W15686   8.243  44.064  11.555
43961W        W15687   2.146  34.262   0.255
43962W        W15688  30.522  17.266  11.696
43963W        W15689  36.541   2.403   3.551
43964W        W15690   1.047   0.900   0.823
43965W        W15691   1.815  33.915   1.307
43966W        W15692  37.377  28.435   3.855
43967W        W15693  26.981   7.906   0.599
43968W        W15694  25.676   1.306   5.429
43969W        W15695  24.095  28.224   3.522
43970W        W15696  35.605  30.445   2.306
43971W        W15697  34.920   2.665   1.280
43972W        W15698   8.786  34.064   2.350
43973W        W15699  20.731   8.151   2.649
43974W        W15700  24.877  19.871  13.366
43975W        W15701   5.416  38.508  10.611
43976W        W15702  29.099  15.748  14.281
43977W        W15703  25.590  23.438   1.480
43978W        W15704   7.565  23.081  14.321
43979W        W15705  19.675  11.627   3.157
43980W        W15706   2.755  13.315  10.774
43981W        W15707  25.712   3.851   0.462
43982W        W15708  18.073   2.859   1.842
43983W        W15709  26.581  19.583   1.252
43984W        W15710  16.458  31.404   3.116
43985W        W15711  23.794  17.085  11.067
43986W        W15712  24.191  12.899   5.081
43987W        W15713  31.224  33.052  13.848
43988W        W15714  26.177  44.442   0.105
43989W        W15715   2.191  34.346  10.717
43990W        W15716   1.005  42.021   0.951
43991W        W15717  29.400  41.987  12.710
43992W        W15718  10.462  11.236  14.344
43993W        W15719  20.528  30.354  12.864
43994W        W15720  28.129  32.065   3.133
43995W        W15721  34.949  22.613  14.614
43996W        W15722  29.816  44.446  14.508
43997W        W15723  32.608  16.759   0.407
43998W        W15724   0.154  43.125  11.163
43999W        W15725  38.469   1.123   2.317
44000W        W15726  20.210  35.428  12.006
44001W        W15727   6.385   3.787  10.322
44002W        W15728  38.728  36.764   4.860
44003W        W15729  28.918  18.610  14.180
44004W        W15730   0.924  17.740   2.655
44005W        W15731   0.308  34.523   0.341
44006W        W15732  41.910  11.285  13.439
44007W        W15733  24.171   6.841   2.913
44008W        W15734   3.358  39.147   3.676
44009W        W15735  14.577  20.199  13.922
44010W        W15736  30.431   3.096  14.425
44011W        W15737  30.006   9.871  14.991
44012W        W15738  27.667  37.965  14.496
44013W        W15739  36.674   3.478  13.538
44014W        W15740  26.075  25.677   4.810
44015W        W15741   1.198  44.036   0.328
44016W        W15742  26.949  36.246  11.032
44017W        W15743   5.223   0.155   0.273
44018W        W15744  29.248   9.683   4.270
44019W        W15745  15.850  42.198   3.623
44020W        W15746   3.275   9.182  14.811
44021W        W15747   7.360  31.816   0.028
44022W        W15748  44.763  23.227   0.946
44023W        W15749  41.760  35.993  13.002
44024W        W15750  31.610   5.450   1.616
44025W        W15751  14.782   4.082  14.318
44026W        W15752  15.341  26.420  13.364
44027W        W15753  12.668  24.426  11.144
44028W        W15754  12.152   5.570  13.300
44029W        W15755  25.449  31.628   4.235
44030W        W15756  44.427  26.858   0.336
44031W        W15757  35.550  35.528   2.081
44032W        W15758  27.631  11.098   2.408
44033W        W15759  41.900  14.868  13.134
44034W        W15760  29.351  13.364   4.619
44035W        W15761  10.123  25.955  10.422
44036W        W15762  10.105   9.997  10.369
44037W        W15763  34.861  32.333  12.094
44038W        W15764  34.731  30.472  14.067
44039W        W15765  25.449  21.653   4.295
44040W        W15766  38.766   5.799  11.608
44041W        W15767  44.984  16.687   3.769
44042W        W15768  11.233  31.345   4.681
44043W        W15769  27.932  44.793  11.578
44044W        W15770  12.275  32.113   2.328
44045W        W15771   9.054  39.183  10.153
44046W        W15772  31.518  35.891  12.119
44047W        W15773   6.519  18.238   2.867
44048W        W15774  25.695   6.751  11.160
44049W        W15775  21.083  44.479  14.977
44050W        W15776   3.708  25.332  11.585
44051W        W15777  39.029  22.236  14.110
44052W        W15778  33.525  12.349  14.671
44053W        W15779  38.379  27.227  10.614
44054W        W15780  28.955  15.796  11.602
44055W        W15781  40.519   7.796   0.505
44056W        W15782  39.568  29.521  10.807
44057W        W15783  41.263  43.782   2.444
44058W        W15784  43.278  25.254  12.639
44059W        W15785  22.575   5.432  14.524
44060W        W15786  16.346   9.748   2.842
44061W        W15787   7.662  27.494   3.222
44062W        W15788  33.096  14.667   0.905
44063W        W15789  18.580  26.928   4.479
44064W        W15790  18.812  11.197   3.674
44065W        W15791  21.152  39.649   1.647
44066W        W15792  40.329  35.680   4.018
44067W        W15793   4.870   1.752  14.215
44068W        W15794  15.991  12.438  10.209
44069W        W15795   0.962   7.180  12.489
44070W        W15796  22.335  34.410  12.460
44071W        W15797   4.880  33.108  10.652
44072W        W15798   2.029  37.368  12.258
44073W        W15799  27.376  16.258  13.951
44074W        W15800  15.835  40.357  14.849
44075W        W15801  13.250  37.748   4.174
44076W        W15802  40.401  32.080  12.531
44077W        W15803  29.042  43.421  12.420
44078W        W15804  19.235  37.968  10.544
44079W        W15805  35.815  42.430  10.687
44080W        W15806  11.216  23.730   5.023
44081W        W15807   5.180  37.860   3.693
44082W        W15808  11.387  29.452   1.403
44083W        W15809  31.441   6.354   1.743
44084W        W15810  21.969  44.229   3.109
44085W        W15811  27.300  15.304  14.378
44086W        W15812   3.209  25.445  12.848
44087W        W15813   1.507  43.230  11.935
44088W        W15814  15.589   0.161  14.870
44089W        W15815  26.286  10.896   4.436
44090W        W15816   8.661  36.019  14.871
44091W        W15817  32.342  25.413  10.652
44092W        W15818  24.085  12.419  12.318
44093W        W15819   8.153  14.516  10.617
44094W        W15820   6.693   2.286   2.148
44095W        W15821  15.157  13.767   3.224
44096W        W15822  31.579  10.271   0.972
44097W        W15823  22.656  40.784   5.082
44098W        W15824  34.636  17.943   3.815
44099W        W15825  14.815  14.641   2.942
44100W        W15826  38.468  39.260  12.028
44101W        W15827  36.979   8.430   0.438
44102W        W15828  34.491  37.115  11.961
44103W        W15829  13.025   1.690   3.477
44104W        W15830  26.222   7.853   2.350
44105W        W15831  12.231  32.432  13.981
44106W        W15832   6.808  18.737   0.469
44107W        W15833  31.527  11.116   2.777
44108W        W15834  23.201  10.120   0.912
44109W        W15835   3.283   2.019  10.134
44110W        W15836  17.594  10.208   4.152
44111W        W15837  16.607  38.646   0.441
44112W        W15838  38.058  40.239  10.878
44113W        W15839  31.399  32.516   4.169
44114W        W15840  26.729  39.440  10.542
44115W        W15841  41.570  24.427   4.181
44116W        W15842   1.712  29.654   4.343
44117W        W15843   3.958  36.354   0.301
44118W        W15844   7.432  38.751  10.615
44119W        W15845   9.813  35.592   0.099
44120W        W15846  24.671  12.526   9.807
44121W        W15847  13.590   5.597  11.599
44122W        W15848  37.547  25.974  13.556
44123W        W15849   7.950  15.315   2.401
44124W        W15850  24.272   1.747  11.056
44125W        W15851  28.872  16.137   2.486
44126W        W15852   4.138   9.204   2.952
44127W        W15853  43.756  12.152  10.825
44128W        W15854   9.559  30.614  11.617
44129W        W15855  29.995  35.636   2.829
44130W        W15856   3.535  13.982   9.785
44131W        W15857  22.354  28.083   4.454
44132W        W15858   8.373  29.702   2.268
44133W        W15859  38.408  33.179  14.889
44134W        W15860  27.631  30.729  14.838
44135W        W15861  32.587  11.258   3.244
44136W        W15862  11.161   3.854  11.104
44137W        W15863  35.221  15.067   2.429
44138W        W15864  31.735  19.990   1.802
44139W        W15865   3.948  14.917   4.204
44140W        W15866  11.972  36.793   4.734
44141W        W15867   5.014  31.379  11.979
44142W        W15868  19.040  13.597  10.657
44143W        W15869  27.379  17.253  10.716
44144W        W15870  33.859  34.857  13.397
44145W        W15871  16.136  29.365  13.061
44146W        W15872   9.318  10.731   3.982
44147W        W15873  31.105  27.560   0.428
44148W        W15874   5.604  30.408   1.296
44149W        W15875  18.480   2.328  13.948
44150W        W15876  14.725  17.058   3.389
44151W        W15877  39.803   3.446  14.539
44152W        W15878  44.189  10.215   4.630
44153W        W15879  22.038  34.585   3.727
44154W        W15880  35.788  39.049   1.168
44155W        W15881  38.313  12.106  13.558
44156W        W15882  25.406   5.769  13.537
44157W        W15883   8.985   2.862   0.212
44158W        W15884   2.529  12.744   1.842
44159W        W15885  10.107   8.289   0.735
44160W        W15886  18.035  30.641  14.002
44161W        W15887  33.580   6.155   0.354
44162W        W15888  44.123  25.912  14.176
44163W        W15889   2.293  30.717  11.917
44164W        W15890  36.156   8.696  14.870
44165W        W15891  14.175  26.447  11.522
44166W        W15892  38.968  16.578  13.968
44167W        W15893  36.390  25.264   5.212
44168W        W15894   3.193  21.988  14.150
44169W        W15895  43.890   2.194  10.701
44170W        W15896   6.418  21.917  12.115
44171W        W15897  40.253  21.591  11.212
44172W        W15898   3.965  40.880   0.240
44173W        W15899  31.992   3.221   9.929
44174W        W15900  23.161  23.828   4.719
44175W        W15901  44.887   0.176  12.009
44176W        W15902  40.287  20.792   3.358
44177W        W15903   9.195  10.943   0.789
44178W        W15904  31.634  24.689  14.230
44179W        W15905   0.356  44.845   2.405
44180W        W15906  37.649  25.626   3.869
44181W        W15907  26.218  17.627   4.268
44182W        W15908  22.882   4.188   1.793
44183W        W15909  30.651  32.156  13.044
44184W        W15910   2.236  35.397  14.426
44185W        W15911  30.888  41.381   2.859
44186W        W15912  36.554  15.283   2.787
44187W        W15913   9.900  22.855   9.831
44188W        W15914  10.974   4.373  12.074
44189W        W15915  31.219  13.374   2.310
44190W        W15916   2.517  24.799   2.857
44191W        W15917  25.989  25.044   3.255
44192W        W15918  15.516  38.393  14.066
44193W        W15919  37.485  14.427   4.084
44194W        W15920  36.532  18.236  13.377
44195W        W15921  13.116  38.496   0.842
44196W        W15922  30.616   1.284  10.807
44197W        W15923  19.531   3.868   3.721
44198W        W15924  43.296  43.232   0.190
44199W        W15925  15.323  36.766  11.156
44200W        W15926  32.820   1.284   2.892
44201W        W15927  24.991  26.206   0.514
44202W        W15928  35.514  13.013  11.629
44203W        W15929   0.901  25.800  13.416
44204W        W15930  34.035  16.259  11.890
44205W        W15931  42.519   7.152  10.754
44206W        W15932  23.465   1.819   3.148
44207W        W15933  25.212  24.703   4.545
44208W        W15934  11.055  31.931  13.542
44209W        W15935  31.145  39.947   2.745
44210W        W15936  33.392  38.069  14.431
44211W        W15937  44.481  26.223   2.843
44212W        W15938  26.563  23.128  11.972
44213W        W15939   8.782   6.258  11.551
44214W        W15940  22.180  21.729  12.629
44215W        W15941  16.847  23.735  11.058
44216W        W15942   9.270   5.167  12.131
44217W        W15943  14.561  35.402   0.760
44218W        W15944  11.719  28.026   1.683
44219W        W15945   5.291  28.702   4.169
44220W        W15946  12.136  10.235   3.045
44221W        W15947  16.662  37.628   2.904
44222W        W15948  21.490   4.810   0.764
44223W        W15949  39.413   4.697  12.042
44224W        W15950  32.806  21.740  12.096
44225W        W15951  24.471  28.448  12.074
44226W        W15952   8.136  36.922   9.928
44227W        W15953  31.343  41.502  12.055
44228W        W15954   8.543  31.054   3.133
44229W        W15955   3.377   1.255   3.703
44230W        W15956  22.537  25.939  11.902
44231W        W15957  42.002  42.302  12.811
44232W        W15958  15.201  33.551  14.879
44233W        W15959  25.961  34.136  11.945
44234W        W15960  38.939  11.699   3.316
44235W        W15961  36.338  26.078  11.391
44236W        W15962  17.345   3.042   2.583
44237W        W15963   3.556  12.850  14.856
44238W        W15964  26.993  40.473   4.383
44239W        W15965  41.197  35.153  14.423
44240W        W15966  26.337  19.303   3.629
44241W        W15967  15.715   6.094  10.650
44242W        W15968  32.463  18.968   2.364
44243W        W15969  42.119  26.651   3.099
44244W        W15970  20.632  10.436  11.956
44245W        W15971   2.464  26.727  10.383
44246W        W15972  28.209  12.340   3.447
44247W        W15973  35.743  13.093   2.712
44248W        W15974  40.375  37.636  10.707
44249W        W15975   0.890  20.846   2.653
44250W        W15976  27.911   9.785  11.153
44251W        W15977  40.856  11.335  11.632
44252W        W15978  16.314   6.964  14.446
44253W        W15979  38.298  24.044  11.454
44254W        W15980  15.278  36.620   3.326
44255W        W15981  30.517   9.237   2.788
44256W        W15982   6.307   6.753   1.978
44257W        W15983   7.738  21.694   3.694
44258W        W15984   5.820  19.013  14.395
44259W        W15985  37.323  17.892   0.861
44260W        W15986  28.015   1.759   0.420
44261W        W15987  17.597   9.203  13.013
44262W        W15988   1.468  11.651  11.216
44263W        W15989   8.424  26.248   3.616
44264W        W15990  19.333   3.468   4.231
44265W        W15991  43.048  12.764   1.345
44266W        W15992  25.672  41.036  13.936
44267W        W15993   3.965  32.933   2.949
44268W        W15994  27.076   1.055   4.344
44269W        W15995  19.500  11.369  11.989
44270W        W15996  26.248  42.794   0.737
44271W        W15997  17.546  36.640   2.849
44272W        W15998   4.701  21.939   1.354
44273W        W15999   7.807  20.087  13.003
44274W        W16000  37.929  40.595   3.021
44275W        W16001  42.471  18.442   4.185
44276W        W16002  36.869  23.514   0.755
44277W        W16003   8.714  27.406   5.055
44278W        W16004  44.941  40.286   1.712
44279W        W16005  11.089  36.373   0.928
44280W        W16006  29.058   2.032   3.509
44281W        W16007  14.286  16.195   4.326
44282W        W16008  13.405  18.493  11.152
44283W        W16009  35.185  30.829   4.931
44284W        W16010  25.243  34.350   1.607
44285W        W16011  10.368  18.997   0.015
44286W        W16012  18.077  12.699  12.143
44287W        W16013   5.778  21.831  11.362
44288W        W16014  43.723  26.267   4.644
44289W        W16015  33.599  11.771   3.644
44290W        W16016   0.193  40.065   2.163
44291W        W16017  19.296   6.795   1.884
44292W        W16018  10.674  36.686  12.939
44293W        W16019  16.298  33.647   2.781
44294W        W16020  20.470  35.697   0.537
44295W        W16021  36.201   7.814   1.523
44296W        W16022  34.910  31.903  10.277
44297W        W16023  41.957  32.971  10.459
44298W        W16024  21.716  36.860  10.441
44299W        W16025  43.358  25.525  13.578
44300W        W16026  40.115   7.216   3.368
44301W        W16027  25.570   1.466  12.030
44302W        W16028  35.587  39.207  14.962
44303W        W16029   3.953  26.739   0.670
44304W        W16030  43.833  18.356   0.848
44305W        W16031  16.346  35.826  13.391
44306W        W16032  16.319  30.467   4.760
44307W        W16033  41.464  21.043   0.724
44308W        W16034   2.037  12.345  12.829
44309W        W16035  29.956   6.140   4.218
44310W        W16036  43.892  31.046   0.767
44311W        W16037  20.224  12.044  14.448
44312W        W16038  24.113  11.218  13.860
44313W        W16039  14.071   3.679   4.908
44314W        W16040  42.535  25.913   3.088
44315W        W16041   9.826  16.745   0.899
44316W        W16042   0.529   5.830   0.267
44317W        W16043  31.348   1.113   4.516
44318W        W16044  35.854  30.850   2.672
44319W        W16045  35.407  29.143  14.133
44320W        W16046   4.339  25.982   1.763
44321W        W16047  11.167   1.913  12.789
44322W        W16048   6.257  43.936  13.086
44323W        W16049  23.632  12.819   1.730
44324W        W16050  30.115   8.602   0.331
44325W        W16051  36.593   1.934  11.996
44326W        W16052  43.751  40.076   4.551
44327W        W16053  29.166  41.082  10.785
44328W        W16054   6.181   8.334  13.376
44329W        W16055   1.504  29.473   0.252
44330W        W16056  27.017  32.187  10.556
44331W        W16057  12.275  29.988  14.813
44332W        W16058   3.495  12.306  12.870
44333W        W16059  34.589   4.383  12.887
44334W        W16060  38.590  22.760  10.731
44335W        W16061  21.234  14.300   3.097
44336W        W16062   1.381  21.171  10.850
44337W        W16063  15.830  35.644   2.296
44338W        W16064  27.561  16.349   3.203
44339W        W16065  28.563  15.165  11.342
44340W        W16066  35.807  36.855  13.426
44341W        W16067  29.500  12.871   0.447
44342W        W16068   8.945   4.849  12.446
44343W        W16069  44.207   2.590   0.736
44344W        W16070   1.912  36.547   4.130
44345W        W16071  29.514  19.501   3.591
44346W        W16072  12.816   5.661   0.889
44347W        W16073  12.254  34.597   3.370
44348W        W16074  29.431  33.391   3.467
44349W        W16075   0.045   6.792  13.877
44350W        W16076  20.631  27.343   4.984
44351W        W16077  15.097   4.053  14.920
44352W        W16078  25.888  17.050   0.725
44353W        W16079  30.911  28.181   4.281
44354W        W16080  24.142  15.744   0.377
44355W        W16081  13.617  33.869  13.455
44356W        W16082  21.253  44.052  12.166
44357W        W16083  20.330  12.116   1.656
44358W        W16084   2.891  10.187   4.476
44359W        W16085  32.495  10.613   1.157
44360W        W16086  19.075  31.753   1.406
44361W        W16087  32.892  11.153   3.693
44362W        W16088  43.376  21.081  14.233
44363W        W16089  43.753  15.870  13.835
44364W        W16090  18.265  33.601   1.083
44365W        W16091  41.443  29.500   4.681
44366W        W16092  32.037  30.478  14.413
44367W        W16093  19.224  15.804  12.659
44368W        W16094  26.451  36.807   1.281
44369W        W16095   9.166  38.369  12.901
44370W        W16096  34.905  42.613   4.752
44371W        W16097  31.670  26.729   5.579
44372W        W16098  13.692  27.845   2.552
44373W        W16099   1.226   2.901  14.408
44374W        W16100  25.702  13.159  11.609
44375W        W16101  26.536   4.219  11.097
44376W        W16102   3.513  34.200  13.566
44377W        W16103  24.692  42.519  12.545
44378W        W16104  36.672  17.669   4.586
44379W        W16105  22.917  26.953  14.353
44380W        W16106  16.321   1.780  13.531
44381W        W16107  30.273   3.746  12.007
44382W        W16108  18.128  41.917   0.693
44383W        W16109   3.735  10.241   4.901
44384W        W16110  21.203   5.773   1.240
44385W        W16111  14.599  19.231  11.518
44386W        W16112  29.352   6.420  11.574
44387W        W16113   9.898  35.056   0.950
44388W        W16114  16.828  17.529   4.383
44389W        W16115  26.064  33.233  10.318
44390W        W16116  39.456  30.139  12.100
44391W        W16117  44.263  38.327  14.722
44392W        W16118  12.695  40.829  13.496
44393W        W16119  19.762  10.804   3.543
44394W        W16120  30.391  13.895   1.639
44395W        W16121  14.189   6.050   3.266
44396W        W16122  27.035  11.623  10.819
44397W        W16123   8.311  28.556  10.677
44398W        W16124  14.858  43.168  13.799
44399W        W16125  14.304  20.472  11.843
44400W        W16126  27.029  17.339   9.956
44401W        W16127  31.912  11.876  14.466
44402W        W16128  25.144   3.792   2.452
44403W        W16129  15.137  10.570  12.978
44404W        W16130  15.901  37.826   4.771
44405W        W16131   4.521  40.375  14.820
44406W        W16132  13.087   1.804   2.631
44407W        W16133  37.525  29.316  11.598
44408W        W16134  29.089  39.281  12.093
44409W        W16135  22.230  38.809   3.771
44410W        W16136  24.818  38.305   2.914
44411W        W16137  24.764  22.771   4.190
44412W        W16138  22.005  16.855  12.152
44413W        W16139  32.402  35.530   1.358
44414W        W16140  19.778   3.742   3.286
44415W        W16141  33.680  36.489   2.799
44416W        W16142  16.344  23.021   0.876
44417W        W16143  18.490  15.730   1.833
44418W        W16144  16.114  21.463  12.673
44419W        W16145   5.181  19.628   2.288
44420W        W16146  25.077  14.567   0.452
44421W        W16147  14.755  12.152   0.922
44422W        W16148  12.350  32.822   1.865
44423W        W16149  18.610  12.108  12.563
44424W        W16150  29.854   4.409   0.807
44425W        W16151  22.746  11.675   3.361
44426W        W16152  38.988  35.519   1.767
44427W        W16153  12.474  12.619   4.085
44428W        W16154  40.688   1.672  10.898
44429W        W16155   4.031  41.802  11.012
44430W        W16156  15.758  14.305  12.329
44431W        W16157  32.642  10.746   2.154
44432W        W16158   3.734  35.916   2.126
44433W        W16159  19.598  44.787   1.856
44434W        W16160  33.100  44.902  12.678
44435W        W16161   2.206  10.677   2.903
44436W        W16162  26.749  20.583  12.300
44437W        W16163  24.757  20.211  14.264
44438W        W16164  12.371  10.931   0.408
44439W        W16165  33.625  17.652   2.462
44440W        W16166  10.582  34.345   3.130
44441W        W16167  31.033   1.194  10.481
44442W        W16168  40.825  40.634  12.845
44443W        W16169  10.871  14.943   0.168
44444W        W16170  30.091  27.375   2.366
44445W        W16171  16.740  22.254  12.481
44446W        W16172  12.960   9.639   1.329
44447W        W16173   4.199  22.594  11.773
44448W        W16174  18.552   9.594   4.267
44449W        W16175   8.122  35.289  11.158
44450W        W16176  32.602  10.756  13.284
44451W        W16177  22.687  12.896   0.928
44452W        W16178   8.899  31.452   1.868
44453W        W16179  26.315  32.156  14.062
44454W        W16180  33.495  41.501   3.226
44455W        W16181  33.002   2.964  12.457
44456W        W16182   7.470  42.519   0.272
44457W        W16183   7.414  18.877  10.858
44458W        W16184   0.542  24.671  13.070
44459W        W16185   2.626  15.202  14.398
44460W        W16186  41.451  20.081   1.188
44461W        W16187   8.243  30.846   2.780
44462W        W16188   9.684  29.954   0.672
44463W        W16189   1.848  29.082   2.115
44464W        W16190   4.152  17.913  10.640
44465W        W16191  31.047   4.825  11.535
44466W        W16192   7.369  32.536  11.087
44467W        W16193   2.484  44.736  12.091
44468W        W16194  22.583  36.776  12.572
44469W        W16195  20.197  18.154   3.204
44470W        W16196  33.097  19.058  11.126
44471W        W16197   4.485  39.198  14.400
44472W        W16198  25.195  28.162  12.815
44473W        W16199   3.969  28.070   2.230
44474W        W16200  21.071  35.416  10.635
44475W        W16201  15.744  40.571   2.709
44476W        W16202   8.113  14.550   3.147
44477W        W16203  18.873  40.434  11.528
44478W        W16204  21.946  17.382   3.627
44479W        W16205  35.685  39.362  14.000
44480W        W16206  18.964  29.011   0.465
44481W        W16207  30.994  36.145   5.161
44482W        W16208  28.046  42.777   3.660
44483W        W16209  30.336  27.227  10.951
44484W        W16210  21.083  22.973  14.963
44485W        W16211  39.426   8.201  10.626
44486W        W16212  29.431  27.195  14.398
44487W        W16213  31.959   7.545   0.767
44488W        W16214  37.347  22.745  10.572
44489W        W16215   3.995  14.160  11.065
44490W        W16216  38.601   5.793   4.119
44491W        W16217  20.708   8.297   4.511
44492W        W16218  26.386  20.104  12.400
44493W        W16219  27.665  31.007   2.181
44494W        W16220   6.464   9.765  11.033
44495W        W16221  16.984  26.490  11.163
44496W        W16222  16.169  30.520  12.845
44497W        W16223   3.492  14.181  12.142
44498W        W16224  23.198  16.852  13.302
44499W        W16225  17.554  30.200  14.724
44500W        W16226  20.486  40.958  12.928
44501W        W16227  19.224  43.442   4.387
44502W        W16228  23.753  42.285  14.881
44503W        W16229   0.782   2.426   4.914
44504W        W16230  38.259  36.035  13.376
44505W        W16231  33.477  35.632   3.689
44506W        W16232  13.398  23.478   2.391
44507W        W16233  20.717  17.354   1.186
44508W        W16234   4.336  14.185  12.872
44509W        W16235   8.765  38.213   3.312
44510W        W16236   8.186  41.368  14.306
44511W        W16237   0.078   6.331   0.920
44512W        W16238  30.028  16.090  10.721
44513W        W16239  44.514   6.710   1.181
44514W        W16240  11.105  24.091  10.252
44515W        W16241  33.972  12.298   2.774
44516W        W16242  28.525   2.542  12.840
44517W        W16243  25.539  26.917  13.334
44518W        W16244  23.995   9.880   2.303
44519W        W16245  29.540   0.743   1.851
44520W        W16246  22.939  23.195   3.159
44521W        W16247   5.662  27.484   3.802
44522W        W16248  37.309  10.429  14.613
44523W        W16249  43.889  39.212  13.821
44524W        W16250  19.523  44.967   0.494
44525W        W16251  19.456  42.086  14.388
44526W        W16252  11.213  27.065  13.606
44527W        W16253   2.695   7.661   0.856
44528W        W16254  18.679   8.632   0.871
44529W        W16255  25.559  32.396   3.634
44530W        W16256  44.242  12.027  10.686
44531W        W16257  38.166  14.640   4.673
44532W        W16258  12.986  32.668  11.134
44533W        W16259  11.038  22.781   2.421
44534W        W16260   7.241   4.780   2.515
44535W        W16261  31.507  38.445  11.945
44536W        W16262  17.255   0.650   4.878
44537W        W16263  10.941  21.498  10.613
44538W        W16264  11.766  18.130   0.291
44539W        W16265  12.163  41.873  14.297
44540W        W16266  44.036  24.064   4.159
44541W        W16267  24.030  40.557  13.233
44542W        W16268   8.326  11.956   1.796
44543W        W16269  36.293  21.065   0.843
44544W        W16270  37.635  10.355   0.626
44545W        W16271  37.405  24.232  11.954
44546W        W16272  41.016   1.840   4.919
44547W        W16273  13.474  37.977   2.187
44548W        W16274  12.172  37.327   1.669
44549W        W16275  35.978   4.253  13.762
44550W        W16276  32.994  20.470  13.993
44551W        W16277  10.160  37.077   4.105
44552W        W16278  31.929  37.882   1.645
44553W        W16279  33.612  44.189   1.877
44554W        W16280   3.423  40.854  12.850
44555W        W16281  16.215  22.529   2.022
44556W        W16282  16.245  24.882   3.173
44557W        W16283  44.376  20.163  10.619
44558W        W16284   6.519  25.980  13.796
44559W        W16285  24.563  27.372   4.975
44560W        W16286  35.155  17.126  14.838
44561W        W16287  36.307  39.485  14.724
44562W        W16288  10.257  33.339  12.427
44563W        W16289   5.722  42.076  12.917
44564W        W16290  21.599  41.779  11.522
44565W        W16291  23.459  21.573  13.396
44566W        W16292   4.316   3.213  11.731
44567W        W16293  11.888  38.128   1.793
44568W        W16294  33.433  31.317  13.093
44569W        W16295  40.822   7.261  13.549
44570W        W16296  17.132  14.563  10.402
44571W        W16297  44.553   4.211  11.214
44572W        W16298  19.660  38.586   0.493
44573W        W16299  32.077  41.968  13.264
44574W        W16300  44.803  19.666  14.544
44575W        W16301  18.873   5.411  11.459
44576W        W16302  26.585  30.769  14.434
44577W        W16303  38.473  15.311   0.005
44578W        W16304  32.821   2.734  13.326
44579W        W16305   6.789  43.043  14.535
44580W        W16306  22.920   9.800  10.626
44581W        W16307  32.571  38.333  13.732
44582W        W16308  31.105  41.301  10.455
44583W        W16309  16.317  36.923  14.806
44584W        W16310   9.329  34.179   0.838
44585W        W16311  41.597  17.722   2.495
44586W        W16312  21.304  15.193   4.621
44587W        W16313  15.315  11.169  14.500
44588W        W16314   9.952  28.115  11.146
44589W        W16315  10.230   1.266   5.246
44590W        W16316  32.078  13.320  12.304
44591W        W16317  17.163  12.210  13.847
44592W        W16318   3.415  21.663  12.026
44593W        W16319  11.665  41.887  11.624
44594W        W16320  16.135  19.822   3.696
44595W        W16321   6.680  19.170   4.176
44596W        W16322  41.830  37.456  13.304
44597W        W16323  24.551   0.888  10.646
44598W        W16324  15.372  29.223   3.937
44599W        W16325  15.839  41.270  13.331
44600W        W16326  43.406   2.272  14.986
44601W        W16327  29.427  12.283   1.691
44602W        W16328  17.394  26.001   4.265
44603W        W16329   2.500  16.777   2.804
44604W        W16330  10.303  42.392   4.639
44605W        W16331  33.883  35.449   4.582
44606W        W16332  15.292  21.452   2.950
44607W        W16333  36.952   2.425  13.132
44608W        W16334  19.128  31.297   3.668
44609W        W16335   2.862  30.457  14.459
44610W        W16336   6.654  15.167  14.315
44611W        W16337   4.138   9.839  14.837
44612W        W16338  19.583  29.455  13.103
44613W        W16339  42.248  16.634   0.794
44614W        W16340   5.607  42.825  11.107
44615W        W16341  35.057   0.203  11.849
44616W        W16342  42.451   0.676   3.151
44617W        W16343  38.696  12.609   1.324
44618W        W16344  38.134  42.405  11.072
44619W        W16345  30.175  22.703   1.601
44620W        W16346   4.741   5.744  12.525
44621W        W16347  37.573  15.634   0.923
44622W        W16348  43.402  38.537   0.259
44623W        W16349  31.437  38.552   1.838
44624W        W16350  41.057  11.689   0.885
44625W        W16351  31.477  23.356  13.601
44626W        W16352   7.179  19.371  11.988
44627W        W16353   1.016  44.388  14.364
44628W        W16354  14.283   1.925   1.321
44629W        W16355  23.861  42.952   2.864
44630W        W16356  36.963  10.752  13.491
44631W        W16357  23.211   1.201   2.260
44632W        W16358   5.686  20.498   1.181
44633W        W16359   5.116  44.959   1.902
44634W        W16360   4.727  24.922   4.615
44635W        W16361  43.991  33.901  11.944
44636W        W16362  15.434   5.831  11.165
44637W        W16363  35.431  17.376   2.715
44638W        W16364  33.976  21.130   3.733
44639W        W16365   2.189  10.342   1.902
44640W        W16366  15.460   3.143  10.687
44641W        W16367  33.580  33.024   3.770
44642W        W16368  32.139  36.123   0.926
44643W        W16369  33.950  18.225   1.219
44644W        W16370  15.545   9.792  12.910
44645W        W16371  12.384  26.723   0.442
44646W        W16372  44.881  37.337  14.358
44647W        W16373  35.132  20.685  12.539
44648W        W16374  38.332  30.838  11.018
44649W        W16375  13.946  14.788  14.913
44650W        W16376   8.232  28.168  13.815
44651W        W16377  11.933  22.106  12.123
44652W        W16378   2.693  27.426   2.418
44653W        W16379  25.675   0.446  14.344
44654W        W16380  26.160  11.744  14.349
44655W        W16381   6.477   7.919  14.365
44656W        W16382   4.463   4.354   3.745
44657W        W16383  34.955   1.294   0.188
44658W        W16384  14.951  11.856   3.325
44659W        W16385  14.077  44.239  14.982
44660W        W16386  10.821  37.008   3.116
44661W        W16387  27.470  16.214   0.741
44662W        W16388  31.051  19.045  12.108
44663W        W16389  28.240  20.483  12.453
44664W        W16390  30.867  34.845   0.977
44665W        W16391   5.762  30.870  12.385
44666W        W16392  23.524  32.588   3.782
44667W        W16393  26.056  32.714   2.230
44668W        W16394  37.995   0.401   0.787
44669W        W16395  16.981  18.832   4.175
44670W        W16396  35.896   2.440  13.054
44671W        W16397  14.776  13.604   1.385
44672W        W16398  12.906  28.379   0.164
44673W        W16399   6.957  14.200   2.696
44674W        W16400  24.292  33.159   1.848
44675W        W16401  23.502  43.518   0.289
44676W        W16402  22.087  40.957   4.214
44677W        W16403  24.601  39.780   3.704
44678W        W16404  10.373  36.036  14.541
44679W        W16405  42.512  19.616   3.090
44680W        W16406  10.406  15.713   0.674
44681W        W16407   0.248  20.264  11.100
44682W        W16408  40.830  21.515  14.827
44683W        W16409   6.975  22.663   4.951
44684W        W16410  21.036  23.917  12.532
44685W        W16411  20.506  31.449   3.256
44686W        W16412  44.674  19.159   3.941
44687W        W16413   6.689  31.688   3.655
44688W        W16414   5.029  24.808   2.835
44689W        W16415  29.570  41.502  12.794
44690W        W16416   9.522  39.007  14.605
44691W        W16417  15.883   4.265   1.319
44692W        W16418   7.351  24.247   0.858
44693W        W16419  34.094  10.383  11.178
44694W        W16420  12.094  27.015  10.672
44695W        W16421  33.129   4.807  12.048
44696W        W16422  33.625   2.006  11.028
44697W        W16423  41.751  39.897  13.508
44698W        W16424  20.464  15.467   0.406
44699W        W16425  26.032   5.899   0.699
44700W        W16426  18.629  37.087   1.413
44701W        W16427  18.267  31.530  11.665
44702W        W16428   5.455   2.122  12.705
44703W        W16429  37.444  19.194   4.263
44704W        W16430  32.122   4.301  12.220
44705W        W16431  18.965  17.297   3.745
44706W        W16432  39.855   6.915  13.924
44707W        W16433   5.610  37.390   1.014
44708W        W16434  17.563  33.559  11.925
44709W        W16435  19.075  12.270  11.912
44710W        W16436   5.705  35.548  13.044
44711W        W16437   0.129  16.238   4.293
44712W        W16438   3.996  31.837   3.618
44713W        W16439  21.582  26.588  12.957
44714W        W16440  44.211  29.075   0.857
44715W        W16441  37.375   6.711   1.324
44716W        W16442  31.578  22.974   3.533
44717W        W16443  16.249  26.031   3.237
44718W        W16444  37.619  41.005   2.868
44719W        W16445  10.818  11.637  10.029
44720W        W16446   5.282  30.462   4.786
44721W        W16447  19.299  11.764   0.346
44722W        W16448   3.404  17.010   1.819
44723W        W16449  28.242  22.962   3.243
44724W        W16450  31.231  41.809  13.996
44725W        W16451  17.770  17.567  13.081
44726W        W16452  33.113  11.084  14.526
44727W        W16453  13.302  25.463  11.541
44728W        W16454  12.288   6.468  10.401
44729W        W16455  26.035   6.963  13.674
44730W        W16456  16.634   9.771   3.328
44731W        W16457  16.349  26.696   2.751
44732W        W16458  29.491  10.597   3.636
44733W        W16459  23.228   2.667   2.255
44734W        W16460  42.358  39.061  11.550
44735W        W16461  20.693  30.606  11.003
44736W        W16462  11.790  25.375   1.372
44737W        W16463  26.552   3.439  12.567
44738W        W16464  35.904   5.241  13.786
44739W        W16465  12.917  13.741   1.877
44740W        W16466   0.992  20.560   1.439
44741W        W16467  36.851  44.968  14.989
44742W        W16468  13.825  26.215  10.762
44743W        W16469  28.198  39.411  12.212
44744W        W16470  32.052  15.347   0.509
44745W        W16471  27.690  14.740  13.967
44746W        W16472  11.326  11.134   2.805
44747W        W16473  33.901   5.526  11.542
44748W        W16474  27.586  26.333  13.480
44749W        W16475  10.297  19.867   4.723
44750W        W16476  17.688   0.754   0.460
44751W        W16477  22.033  11.669  14.373
44752W        W16478  44.848  41.862  13.723
44753W        W16479  36.024  37.346   0.845
44754W        W16480  33.924  17.897  14.491
44755W        W16481  44.196  17.458   4.071
44756W        W16482  41.109  43.218  11.207
44757W        W16483  35.134   2.943  11.177
44758W        W16484  34.114  40.497   4.692
44759W        W16485  43.373  42.254  12.820
44760W        W16486  12.685  29.623  12.434
44761W        W16487   4.865  37.778  13.029
44762W        W16488  14.650  23.977   0.817
44763W        W16489  26.407  23.758   4.170
44764W        W16490  21.154  29.616  11.581
44765W        W16491   0.469  37.891  12.530
44766W        W16492  14.874  19.801  14.086
44767W        W16493  32.416  28.455  14.132
44768W        W16494  41.160   8.857   1.264
44769W        W16495   4.432   8.394   1.352
44770W        W16496   5.116  17.712   4.775
44771W        W16497   5.995  14.420   4.778
44772W        W16498  32.970  32.179  14.905
44773W        W16499  11.766  24.699   2.149
44774W        W16500  36.318  32.014   0.690
44775W        W16501  26.375  20.483   4.832
44776W        W16502  24.077  17.717   2.246
44777W        W16503  41.191  41.783  13.976
44778W        W16504  21.170   5.354  11.341
44779W        W16505  14.014   7.429   1.010
44780W        W16506  22.996  31.196  14.392
44781W        W16507  32.265   0.041  10.954
44782W        W16508  16.109   1.365   0.341
44783W        W16509   1.629  10.717   2.233
44784W        W16510  38.313  16.460  12.127
44785W        W16511  23.043   4.695   1.839
44786W        W16512  16.353  37.133  12.984
44787W        W16513   1.179  29.435  10.829
44788W        W16514   8.409  21.983   4.725
44789W        W16515  14.800  16.654  14.065
44790W        W16516   7.686  19.146   0.023
44791W        W16517   2.388  21.658  13.840
44792W        W16518   1.969  20.220  11.600
44793W        W16519  21.691  10.777  10.612
44794W        W16520  16.199  30.224   2.083
44795W        W16521  36.745  10.406   1.082
44796W        W16522  33.692  43.845  13.963
44797W        W16523  44.278   2.728  13.483
44798W        W16524  11.383  22.890   3.567
44799W        W16525  19.371  28.575  14.277
44800W        W16526  30.095   4.669  13.477
44801W        W16527  35.462  33.591   0.309
44802W        W16528  39.677   8.365  11.510
44803W        W16529  28.934  35.158  13.477
44804W        W16530  18.238  32.104   2.643
44805W        W16531  19.123  24.085  10.882
44806W        W16532  33.503  10.300  12.405
44807W        W16533  19.871  28.651  13.433
44808W        W16534   4.721  26.579   5.034
44809W        W16535  13.625  39.304   3.162
44810W        W16536  26.666   9.238  14.937
44811W        W16537  31.117   7.444  12.441
44812W        W16538  28.509  18.473  12.989
44813W        W16539  30.882  32.038  10.232
44814W        W16540   0.030  17.788  14.445
44815W        W16541  34.016  23.453  10.597
44816W        W16542  35.938  28.896  11.673
44817W        W16543  11.689   3.877   2.747
44818W        W16544  40.816  44.769  14.387
44819W        W16545  25.674  29.900  14.774
44820W        W16546  27.954  24.206   3.764
44821W        W16547  41.798  22.620  13.043
44822W        W16548  34.556  44.144   4.021
44823W        W16549  32.443   8.655   1.269
44824W        W16550  44.607  26.593  14.394
44825W        W16551  35.576   9.587   1.366
44826W        W16552  24.165  17.478  12.157
44827W        W16553   2.999  41.220   2.865
44828W        W16554  13.342  36.631  14.288
44829W        W16555  37.909  30.977  14.922
44830W        W16556  14.232   3.186  13.735
44831W        W16557  39.535   5.335  14.700
44832W        W16558  19.981  38.864  11.150
44833W        W16559  20.310  30.421  13.337
44834W        W16560  42.492  37.941   0.767
44835W        W16561  17.961  12.678   1.798
44836W        W16562  21.572  35.464   4.344
44837W        W16563  33.218   9.802  10.750
44838W        W16564   1.262  42.932  11.138
44839W        W16565  22.469  42.360  14.816
44840W        W16566   3.912   1.879  12.101
44841W        W16567   7.197  38.582  11.041
44842W        W16568  27.970  43.449  10.604
44843W        W16569  15.303  13.834  13.366
44844W        W16570  35.363  24.871   0.466
44845W        W16571  19.270  18.978   0.511
44846W        W16572  28.221  27.493  14.669
44847W        W16573  30.320  19.147  14.991
44848W        W16574   6.889  44.296  13.020
44849W        W16575  24.448   4.235  14.186
44850W        W16576   5.022  26.986   3.343
44851W        W16577  33.502  13.671   2.184
44852W        W16578   6.917  26.619   4.134
44853W        W16579  34.987   9.524   0.753
44854W        W16580  24.571  26.153  13.205
44855W        W16581   2.811  14.248   1.185
44856W        W16582  15.733  39.249   2.225
44857W        W16583  42.588  16.805   1.604
44858W        W16584   2.836  32.209  14.794
44859W        W16585   4.260   7.883  12.243
44860W        W16586  15.661  11.750   0.719
44861W        W16587  26.706  36.081   0.038
44862W        W16588   7.440  25.285   5.074
44863W        W16589   7.451  43.270  11.142
44864W        W16590   0.331  42.977   2.417
44865W        W16591   1.508  17.281  12.178
44866W        W16592  24.428  12.047   0.972
44867W        W16593  26.986  18.604   4.920
44868W        W16594  40.066  35.905  14.326
44869W        W16595  18.258  37.943  11.587
44870W        W16596  33.870  38.290   2.760
44871W        W16597   9.325   1.903   4.776
44872W        W16598  10.796  34.873   0.374
44873W        W16599  23.124  13.706  10.982
44874W        W16600  34.663   1.054  14.439
44875W        W16601  26.604   9.113  11.881
44876W        W16602  22.135  17.573  13.240
44877W        W16603  12.171  19.274  14.497
44878W        W16604  24.211  31.509   4.561
44879W        W16605  22.204  19.258   4.670
44880W        W16606  39.897  42.775  13.332
44881W        W16607  41.005  24.196   2.166
44882W        W16608  32.463  44.780   4.124
44883W        W16609   2.889  12.363   0.441
44884W        W16610  23.449  10.904   2.334
44885W        W16611  32.490  41.231   1.465
44886W        W16612  25.764  28.023  11.160
44887W        W16613  39.883  36.977   1.911
44888W        W16614  27.093  35.522   0.836
44889W        W16615  21.072  19.068   1.449
44890W        W16616   8.190  13.864  13.993
44891W        W16617  14.617  30.131   3.040
44892W        W16618  15.567  12.661  11.398
44893W        W16619   7.295  29.242   0.420
44894W        W16620  32.409   3.992   1.432
44895W        W16621  39.066  26.721  12.587
44896W        W16622   9.736   1.982  10.657
44897W        W16623  44.125  20.545   4.861
44898W        W16624  11.789  30.865   4.429
44899W        W16625   2.627  26.229  14.003
44900W        W16626  11.654   8.379  12.798
44901W        W16627  13.874  16.192   2.551
44902W        W16628   0.929  36.876   4.891
44903W        W16629  38.519  44.306  10.721
44904W        W16630  20.167  13.294  10.945
44905W        W16631  26.705  31.498  14.839
44906W        W16632  17.210  13.324  14.428
44907W        W16633   0.975   2.341   0.337
44908W        W16634  42.549  14.732  14.989
44909W        W16635  19.726  10.216  14.929
44910W        W16636  39.229  23.626  13.993
44911W        W16637   5.838  17.678   4.170
44912W        W16638  20.625  16.061   2.222
44913W        W16639   1.940  32.169  10.908
44914W        W16640   7.878  11.793   3.889
44915W        W16641   1.856  40.396   3.550
44916W        W16642  44.491  43.747   0.214
44917W        W16643  17.816  26.682   2.754
44918W        W16644   1.711   5.155  14.366
44919W        W16645  23.339  38.391  12.775
44920W        W16646  19.645   7.117   2.804
44921W        W16647  19.757  37.913   4.818
44922W        W16648  36.827  31.905   0.442
44923W        W16649  26.758   4.883   0.032
44924W        W16650  33.152   1.866   3.613
44925W        W16651  21.232   7.568   3.981
44926W        W16652   6.895  31.994  13.835
44927W        W16653  24.422   1.011  12.844
44928W        W16654  29.344  32.515   1.454
44929W        W16655  36.856  22.516  14.047
44930W        W16656  43.973  38.741   3.151
44931W        W16657  16.677   5.518  11.214
44932W        W16658   5.220   4.138   4.489
44933W        W16659   6.547  30.396  10.343
44934W        W16660  21.698  25.043  10.679
44935W        W16661  42.734  21.936   2.731
44936W        W16662  19.643  14.917   4.108
44937W        W16663  28.622  15.778  12.991
44938W        W16664  39.925  11.374   0.959
44939W        W16665  44.887  21.481   1.284
44940W        W16666  27.633   7.729  14.362
44941W        W16667  31.403  39.239   4.720
44942W        W16668  26.273  22.289  14.494
44943W        W16669  37.579  22.875   0.634
44944W        W16670  42.721  40.563   4.083
44945W        W16671  41.253  10.810   2.115
44946W        W16672  38.915   5.202   4.600
44947W        W16673  24.112   2.064  10.679
44948W        W16674  13.856  11.901   2.101
44949W        W16675  25.848  23.152  11.146
44950W        W16676  43.357  26.611   0.280
44951W        W16677  18.658  34.096   1.758
44952W        W16678  42.482  25.066  12.908
44953W        W16679  10.636  36.406  11.142
44954W        W16680  18.318  37.723  12.053
44955W        W16681  20.062  26.467  14.841
44956W        W16682  20.566  30.162   3.752
44957W        W16683  34.786   9.971  12.506
44958W        W16684  38.829   1.101  11.749
44959W        W16685  39.257  19.678  14.569
44960W        W16686  37.307  21.332   3.745
44961W        W16687  24.240  21.005  13.289
44962W        W16688  42.427   9.317   4.973
44963W        W16689  35.981  43.799   0.482
44964W        W16690  40.732  44.918  12.934
44965W        W16691  16.147  35.436  14.972
44966W        W16692  17.466   6.773   2.034
44967W        W16693  17.569  23.667  11.549
44968W        W16694  26.701   6.794  13.929
44969W        W16695  24.329  41.241   1.314
44970W        W16696   2.502  36.005  12.030
44971W        W16697  22.984  12.037  11.052
44972W        W16698  25.287  24.136   1.285
44973W        W16699  11.201  39.885   2.202
44974W        W16700  28.395  11.147  14.681
44975W        W16701   7.144  34.959  14.796
44976W        W16702   2.366  15.821   2.810
44977W        W16703  31.503  40.819   0.420
44978W        W16704  25.339   9.418  12.887
44979W        W16705  12.257  15.689   0.729
44980W        W16706  25.580  13.715   4.688
44981W        W16707   3.243  34.872   0.521
44982W        W16708  32.491  28.377   3.843
44983W        W16709  39.091  11.260  13.980
44984W        W16710   7.386  40.731  12.068
44985W        W16711  22.093  38.549   1.271
44986W        W16712  25.067  41.271   2.940
44987W        W16713  21.296  23.160   0.442
44988W        W16714  14.328  44.765   2.775
44989W        W16715  26.749   5.656  14.988
44990W        W16716  22.220  27.453   4.703
44991W        W16717   8.265  30.033  12.431
44992W        W16718  31.841  33.256   3.886
44993W        W16719  38.578   7.763   3.784
44994W        W16720   8.527   6.377  12.036
44995W        W16721  27.220  44.322  11.035
44996W        W16722  42.868  41.589   3.716
44997W        W16723  41.672  33.006   4.283
44998W        W16724  15.754   9.747   0.790
44999W        W16725  23.059  20.007   1.679
45000W        W16726  26.141  39.942  12.826
45001W        W16727  33.161  33.492  14.339
45002W        W16728   4.896  24.510   1.281
45003W        W16729  33.647  36.634   4.615
45004W        W16730  25.062   3.317   2.268
45005W        W16731  31.489  18.329   4.664
45006W        W16732  21.667  14.036  14.943
45007W        W16733  11.376  44.716  12.879
45008W        W16734  34.654  14.214  14.751
45009W        W16735  27.145   6.489   4.135
45010W        W16736  12.783  26.179  10.746
45011W        W16737   1.851  39.988   0.895
45012W        W16738  26.202  17.831   4.745
45013W        W16739  39.938  28.119  10.750
45014W        W16740  36.809  36.372   1.463
45015W        W16741  35.522  37.486  11.037
45016W        W16742  29.018   0.980  12.002
45017W        W16743  18.078  25.472  10.977
45018W        W16744   6.876  37.739   3.920
45019W        W16745  36.781   1.168   2.219
45020W        W16746  14.379  37.789  11.044
45021W        W16747  20.778  31.790   1.402
45022W        W16748  18.722  25.413  11.138
45023W        W16749   2.398  37.387  11.889
45024W        W16750  21.921  37.165  13.270
45025W        W16751  25.968  42.424  11.916
45026W        W16752  33.100  23.041  11.951
45027W        W16753  12.782  13.383  11.197
45028W        W16754  28.543  24.162  11.551
45029W        W16755  39.716  14.367   3.650
45030W        W16756  17.321  37.325   1.850
45031W        W16757   2.749   9.074  14.891
45032W        W16758   8.836   0.743   1.941
45033W        W16759  18.610  20.565   0.983
45034W        W16760   1.940  30.909  11.192
45035W        W16761   5.851  25.902   2.882
45036W        W16762  29.710   5.316   1.755
45037W        W16763   9.758  43.058  14.475
45038W        W16764   0.218  18.315   0.297
45039W        W16765   3.714  22.528   4.727
45040W        W16766  35.326  19.519  11.269
45041W        W16767  43.787  19.295  14.521
45042W        W16768  20.742  29.053   1.663
45043W        W16769  21.580  16.564  12.104
45044W        W16770  11.480  10.391   2.143
45045W        W16771  11.453  25.459   0.767
45046W        W16772  26.978  17.743   0.021
45047W        W16773  11.111  33.523  10.314
45048W        W16774   6.216  22.317  14.349
45049W        W16775   4.863  27.390   4.141
45050W        W16776  25.244   7.381  11.713
45051W        W16777  26.588   9.786   1.210
45052W        W16778  28.064  21.505  13.305
45053W        W16779  12.749  19.185   4.765
45054W        W16780  31.499  32.553  13.087
45055W        W16781  18.175  20.823  14.717
45056W        W16782  24.628   9.504  11.655
45057W        W16783  12.665   9.721   2.792
45058W        W16784   7.405  31.882  13.435
45059W        W16785  30.512  25.967   3.257
45060W        W16786  44.334  28.579   0.703
45061W        W16787   7.820  25.383   1.355
45062W        W16788   1.925  25.925   2.775
45063W        W16789  28.561  30.090   2.702
45064W        W16790  42.931  34.497  13.821
45065W        W16791  24.150   3.305   5.045
45066W        W16792   2.366  12.363  10.900
45067W        W16793  14.729  21.682   3.752
45068W        W16794  41.757  44.367   4.172
45069W        W16795  35.392  39.423  14.441
45070W        W16796  38.461   3.750  10.385
45071W        W16797  34.581   1.389  13.988
45072W        W16798  33.304  33.771   2.599
45073W        W16799  30.175  42.255   1.325
45074W        W16800  35.430  19.952  14.678
45075W        W16801  16.733  19.031   2.345
45076W        W16802  17.087  38.877  14.740
45077W        W16803  35.533  12.859   1.220
45078W        W16804   2.842  34.206  11.941
45079W        W16805   2.857  14.228  10.423
45080W        W16806  32.362  22.206   0.294
45081W        W16807  33.916   3.982  12.602
45082W        W16808   3.673   2.490   4.107
45083W        W16809  18.771  14.312   4.547
45084W        W16810   9.799  40.745  12.602
45085W        W16811  17.195  41.883  12.055
45086W        W16812  11.697  17.579   0.260
45087W        W16813   8.305  44.744   4.322
45088W        W16814  37.097   0.041  12.493
45089W        W16815  31.014  23.095   9.747
45090W        W16816  17.584  24.224   0.375
45091W        W16817  14.542  16.119   0.259
45092W        W16818  44.391  22.800  14.512
45093W        W16819   2.553  17.250   1.816
45094W        W16820  36.120   8.257   3.229
45095W        W16821  28.884  34.735  10.422
45096W        W16822  41.998   9.766  10.733
45097W        W16823   1.783  35.081   3.177
45098W        W16824  41.777   3.802   1.773
45099W        W16825  30.355  33.981   2.254
45100W        W16826  43.874  24.319   0.817
45101W        W16827  28.253   0.439  14.385
45102W        W16828   7.718  28.430   0.448
45103W        W16829  43.341  42.441   2.509
45104W        W16830  21.572  21.041  14.034
45105W        W16831   9.335  14.278   3.820
45106W        W16832  37.990  25.693   0.900
45107W        W16833   3.316  26.496   0.059
45108W        W16834  16.263  13.318  14.558
45109W        W16835  35.864   7.595  12.709
45110W        W16836  23.108  12.101  13.020
45111W        W16837  14.973   0.290   3.108
45112W        W16838   8.705  33.483   3.642
45113W        W16839   9.131  23.312  10.327
45114W        W16840  12.799  31.831   4.683
45115W        W16841   6.558  16.410   3.279
45116W        W16842  10.965  32.584   4.057
45117W        W16843  40.309  10.530   0.047
45118W        W16844  37.943  10.314  13.211
45119W        W16845  42.917  16.820   3.391
45120W        W16846  15.566  20.783  11.350
45121W        W16847  28.502  18.563  11.066
45122W        W16848  31.034  19.559  12.063
45123W        W16849  37.067  41.083  14.339
45124W        W16850  15.630  30.265  11.278
45125W        W16851  21.165  12.459  10.570
45126W        W16852  39.380  38.394  11.563
45127W        W16853  42.530  21.813  12.137
45128W        W16854  20.571  39.061  14.460
45129W        W16855  27.963  41.333  13.552
45130W        W16856  43.192  44.830   3.966
45131W        W16857  38.060   2.833  14.376
45132W        W16858   4.284  20.976   4.513
45133W        W16859  22.971  13.772  11.465
45134W        W16860   0.846  20.021   2.270
45135W        W16861   6.227  32.641  13.406
45136W        W16862  13.560  32.308   4.631
45137W        W16863  37.393  28.970  10.663
45138W        W16864  33.063  42.504   4.475
45139W        W16865  29.635  44.380  10.097
45140W        W16866   5.766  14.157  12.540
45141W        W16867  28.215  40.373   2.028
45142W        W16868  41.801  26.250   1.719
45143W        W16869  43.729  17.829  14.767
45144W        W16870  30.946  24.602   0.422
45145W        W16871   8.918  35.143  12.939
45146W        W16872  42.450   6.552  14.281
45147W        W16873  42.774   9.074   1.808
45148W        W16874   2.743  31.931   1.962
45149W        W16875  21.617  31.100   0.669
45150W        W16876   8.588   9.794  13.961
45151W        W16877  15.742   7.480  12.073
45152W        W16878  44.481  20.973  12.267
45153W        W16879  11.648  16.540  14.321
45154W        W16880  17.219  38.793   5.128
45155W        W16881  23.169  31.089  12.461
45156W        W16882  38.735  31.728  12.450
45157W        W16883  25.102  15.592   0.435
45158W        W16884   9.843  17.248   1.148
45159W        W16885  21.820  12.335  12.017
45160W        W16886  10.707   0.286   2.715
45161W        W16887  28.348  16.066   2.375
45162W        W16888  26.509  28.598  13.020
45163W        W16889   7.806  42.307   3.578
45164W        W16890  19.769  42.850   1.672
45165W        W16891  20.502  13.773  14.021
45166W        W16892   2.021  34.357   3.687
45167W        W16893  13.814  28.017   3.545
45168W        W16894   3.907  26.637   2.666
45169W        W16895  19.011  36.445  14.394
45170W        W16896   2.116  19.358  12.135
45171W        W16897  22.059  34.457  13.847
45172W        W16898  22.277  31.583  11.258
45173W        W16899   5.863   6.664   3.826
45174W        W16900   4.940  41.924  11.107
45175W        W16901  42.315  27.684   1.861
45176W        W16902  13.723  37.337   2.887
45177W        W16903  26.195  26.638  11.630
45178W        W16904  24.798  32.294   1.727
45179W        W16905  36.891   3.530  13.990
45180W        W16906  34.120  40.659  13.083
45181W        W16907  10.751  39.200  13.809
45182W        W16908   1.365   9.238  11.494
45183W        W16909  25.247  26.164   3.177
45184W        W16910   9.168  41.525  11.146
45185W        W16911  30.491  44.681   0.688
45186W        W16912  32.231  24.010   0.216
45187W        W16913  23.106  21.243   2.264
45188W        W16914  35.526  34.348  10.974
45189W        W16915  11.633  17.993  12.556
45190W        W16916   5.221  32.492   2.210
45191W        W16917  27.996  11.625  11.080
45192W        W16918  12.900  30.994  11.858
45193W        W16919   8.695  40.856  11.555
45194W        W16920  30.149   3.976   3.625
45195W        W16921  27.015   4.209  11.504
45196W        W16922  43.474  36.049  12.976
45197W        W16923   5.959  21.037  10.387
45198W        W16924  34.927  21.676  13.609
45199W        W16925  16.029  34.090   2.751
45200W        W16926  33.466   6.861   2.349
45201W        W16927   3.257  14.349  13.952
45202W        W16928  37.984   0.478  12.417
45203W        W16929  26.981  30.663   0.369
45204W        W16930  44.756  12.786   4.685
45205W        W16931   7.084  42.816   3.658
45206W        W16932   9.344  33.765  13.524
45207W        W16933  40.288  35.479   0.817
45208W        W16934  34.601  30.958   1.357
45209W        W16935  18.565  23.252   2.272
45210W        W16936  39.317  35.063  13.251
45211W        W16937   3.337  19.429   3.151
45212W        W16938  42.386  13.568  13.980
45213W        W16939  35.833  42.324   1.466
45214W        W16940   1.115  32.287   2.922
45215W        W16941  37.031  15.539   3.660
45216W        W16942  42.546   3.883  13.366
45217W        W16943  26.745  44.984  10.643
45218W        W16944   3.952   4.821   3.248
45219W        W16945  30.127   0.869   1.240
45220W        W16946   9.208  31.433   3.760
45221W        W16947  30.069   3.893   2.597
45222W        W16948  25.583  18.386  14.231
45223W        W16949  14.864  12.993   2.284
45224W        W16950  39.043  28.056  11.123
45225W        W16951  34.850  41.416   2.866
45226W        W16952   3.458  36.235   2.427
45227W        W16953   0.639  35.517  10.640
45228W        W16954  37.936  15.350  10.415
45229W        W16955  20.578   5.456   3.259
45230W        W16956  12.080   7.734  11.696
45231W        W16957  41.842  20.531   4.516
45232W        W16958  35.788  43.311   0.455
45233W        W16959  39.716  24.565  11.101
45234W        W16960  31.116  21.010   1.757
45235W        W16961  38.052  38.873   0.494
45236W        W16962  19.514  20.670   1.424
45237W        W16963  20.090  22.971   4.533
45238W        W16964  24.211   4.936  14.709
45239W        W16965   3.529   2.219  12.087
45240W        W16966   9.308  27.920   3.774
45241W        W16967   5.653  38.465   4.151
45242W        W16968  13.335  13.258   4.137
45243W        W16969   0.231  26.652   3.054
45244W        W16970  21.622  40.624   0.792
45245W        W16971   3.191  12.037  10.956
45246W        W16972  26.089  30.188   3.729
45247W        W16973   6.502  43.956   0.444
45248W        W16974  36.622  41.433  14.298
45249W        W16975   8.575   6.211   0.992
45250W        W16976  21.470  25.132  11.518
45251W        W16977  26.185  33.084  14.043
45252W        W16978  28.025  15.956  12.528
45253W        W16979  25.410  10.159   2.712
45254W        W16980  18.538  10.309  13.149
45255W        W16981  26.436  38.541   4.117
45256W        W16982  41.232  39.096  11.933
45257W        W16983   7.239   2.921   0.534
45258W        W16984  27.969   0.234  12.599
45259W        W16985  32.682   1.370  14.083
45260W        W16986  36.097  32.866   2.777
45261W        W16987   5.463   8.389   2.208
45262W        W16988   2.710  39.971  13.869
45263W        W16989   8.583   6.348  13.382
45264W        W16990  28.528   3.468   2.268
45265W        W16991  26.695  36.872   4.881
45266W        W16992  28.411   3.428   0.031
45267W        W16993  25.666   1.870  12.692
45268W        W16994  16.277  17.292   1.175
45269W        W16995  20.127  41.607  11.167
45270W        W16996  33.250  26.449   1.362
45271W        W16997  35.437   5.021   2.504
45272W        W16998  22.597   2.943   3.096
45273W        W16999  33.653  27.680  13.012
45274W        W17000  16.811  25.584  13.940
45275W        W17001  38.776  42.917   9.896
45276W        W17002   1.761  16.090   3.738
45277W        W17003  17.728  18.988   1.015
45278W        W17004  18.057  25.177   2.668
45279W        W17005  20.588  37.478  13.513
45280W        W17006  22.678  40.798  11.098
45281W        W17007  18.174   0.302  14.213
45282W        W17008  15.742  14.813   2.524
45283W        W17009   2.524  11.817  12.022
45284W        W17010  24.620  38.681   1.969
45285W        W17011  44.846  15.891  10.525
45286W        W17012  20.786   8.695   1.906
45287W        W17013  18.228  21.761  11.610
45288W        W17014  25.176  29.547   0.456
45289W        W17015  24.104  11.142   3.026
45290W        W17016  38.355   0.214  14.413
45291W        W17017  41.930  31.956   4.658
45292W        W17018  10.934  10.827   0.033
45293W        W17019  13.608   8.667   3.753
45294W        W17020   7.638  34.303  13.474
45295W        W17021  34.881  28.599   3.694
45296W        W17022  42.094   5.482   3.697
45297W        W17023  20.747  31.163  11.872
45298W        W17024   8.593   2.003  10.333
45299W        W17025  17.233  36.009  10.715
45300W        W17026  43.780  15.627  12.895
45301W        W17027  40.374   7.230   1.555
45302W        W17028  19.800  14.694  12.152
45303W        W17029   8.945  33.643   3.223
45304W        W17030  29.685  32.347  10.672
45305W        W17031  25.886  35.903   3.368
45306W        W17032  18.371  25.084  10.750
45307W        W17033  13.541  34.537  11.033
45308W        W17034  25.541  21.252   2.385
45309W        W17035   7.927  12.556  12.401
45310W        W17036  37.862  16.754  11.935
45311W        W17037  11.536   9.146   1.087
45312W        W17038  22.472  15.928  12.596
45313W        W17039  38.499  17.829  12.641
45314W        W17040   9.318   3.720  11.899
45315W        W17041  44.519  38.462  14.283
45316W        W17042  35.396  31.928  13.469
45317W        W17043  20.150   8.327  12.446
45318W        W17044   5.741  34.401  13.298
45319W        W17045   5.212  10.148   1.434
45320W        W17046  25.571  22.139  13.665
45321W        W17047  34.628  29.444  13.910
45322W        W17048  12.871  22.047   0.454
45323W        W17049  12.341  37.674  14.519
45324W        W17050  39.726  32.042  14.277
45325W        W17051  41.736  25.377   2.778
45326W        W17052  18.693  22.977  12.644
45327W        W17053  25.169  21.420  13.093
45328W        W17054  19.541  33.982   1.453
45329W        W17055  34.029  41.065   4.769
45330W        W17056  33.339   7.621  13.439
45331W        W17057  16.541  34.392  13.058
45332W        W17058  16.119  31.081  10.624
45333W        W17059  10.984  39.997   1.329
45334W        W17060  21.002   6.186  11.090
45335W        W17061  43.042  22.945   4.096
45336W        W17062  13.947  21.530  12.036
45337W        W17063  14.349  26.916  14.293
45338W        W17064   8.787   9.273  13.787
45339W        W17065  26.863  11.767  10.316
45340W        W17066  20.229  35.079  14.590
45341W        W17067   3.204   9.669   3.799
45342W        W17068  25.528  30.250   1.067
45343W        W17069  40.517  39.907  12.392
45344W        W17070  15.819  38.966   0.320
45345W        W17071  31.530   7.910   2.274
45346W        W17072  33.278  30.440  10.796
45347W        W17073   3.463  21.239   3.620
45348W        W17074  24.273  36.831   0.631
45349W        W17075  44.708  22.722  12.923
45350W        W17076  12.076  11.017  10.687
45351W        W17077  11.782   2.698   2.256
45352W        W17078  35.768  23.967   2.641
45353W        W17079  40.969  11.091  11.208
45354W        W17080  24.024  44.795   1.250
45355W        W17081  15.359  24.782   4.309
45356W        W17082  25.140  34.403  12.071
45357W        W17083  42.759  13.148   2.227
45358W        W17084  26.083  18.842  14.396
45359W        W17085  33.438  18.267   1.644
45360W        W17086  17.627  23.778   3.213
45361W        W17087  44.880  30.627  12.937
45362W        W17088  33.836  23.551   1.809
45363W        W17089  18.865  16.239  11.981
45364W        W17090  38.884   0.300   3.587
45365W        W17091  22.656  38.977  10.557
45366W        W17092  27.042  32.803   4.197
45367W        W17093  16.227   2.700  11.592
45368W        W17094  24.316   0.910  10.182
45369W        W17095  36.106  44.376   4.108
45370W        W17096  20.716   1.363  14.412
45371W        W17097  32.805  36.437  11.135
45372W        W17098   9.688  24.570  11.311
45373W        W17099  30.662  10.120   2.247
45374W        W17100  35.407  35.440   4.606
45375W        W17101  40.515  12.456  12.120
45376W        W17102  21.166  44.026   1.234
45377W        W17103   9.148  33.847   1.221
45378W        W17104  38.435  10.704  13.806
45379W        W17105   7.252  23.551   0.790
45380W        W17106  21.995  35.929   3.628
45381W        W17107  33.411  22.540  13.060
45382W        W17108  39.518  25.489  11.113
45383W        W17109  18.458  23.907   0.526
45384W        W17110  19.899  44.035  11.954
45385W        W17111  14.786   3.945   4.258
45386W        W17112   7.888  10.473   2.103
45387W        W17113  19.480  26.796   1.322
45388W        W17114  43.046  28.437  12.032
45389W        W17115  29.137  41.337   3.535
45390W        W17116  38.467  24.542  11.563
45391W        W17117  30.207  13.710  14.803
45392W        W17118  32.393   5.894   1.828
45393W        W17119  27.599  23.750  14.401
45394W        W17120  29.072  16.761  13.816
45395W        W17121   6.217  10.337   1.527
45396W        W17122   2.694  20.602   3.866
45397W        W17123  36.410   6.670  13.731
45398W        W17124   2.696  10.821   2.927
45399W        W17125  30.372  22.174  10.649
45400W        W17126  41.289  41.198   2.942
45401W        W17127  37.148  17.203  12.503
45402W        W17128  15.815  24.728   1.417
45403W        W17129  16.681  15.589  12.005
45404W        W17130  33.106   1.228   4.161
45405W        W17131  10.742  41.489  10.766
45406W        W17132  24.131   0.111   3.323
45407W        W17133  11.218  17.248  11.735
45408W        W17134  44.908  38.800  14.346
45409W        W17135  12.783  33.572   4.642
45410W        W17136  40.624  29.970  10.822
45411W        W17137  13.256   5.616   3.253
45412W        W17138  35.835  42.360  11.478
45413W        W17139  11.820  43.301  14.348
45414W        W17140   6.670  17.807  12.278
45415W        W17141  26.381  17.207   4.018
45416W        W17142  29.627  32.337   1.003
45417W        W17143  13.746   3.262  11.923
45418W        W17144  30.833   5.117   3.296
45419W        W17145  21.251  20.793  12.468
45420W        W17146  22.884   1.695  11.570
45421W        W17147   7.983  26.513   4.288
45422W        W17148  21.505  29.565  12.566
45423W        W17149  23.004  12.899  14.250
45424W        W17150  22.461  19.328   0.936
45425W        W17151  34.521  25.160  13.091
45426W        W17152  31.839  38.242   2.000
45427W        W17153  20.661  11.898   3.298
45428W        W17154  24.942  36.681  13.309
45429W        W17155  38.841   0.435   2.551
45430W        W17156  28.353  20.954  11.650
45431W        W17157  40.505  28.018   3.116
45432W        W17158  15.648  24.238   0.636
45433W        W17159  36.394  15.020  10.499
45434W        W17160  18.118  14.140   3.172
45435W        W17161  16.322  14.182  13.518
45436W        W17162  39.238  25.704   4.207
45437W        W17163  23.242  15.449   4.509
45438W        W17164  44.740  33.830   3.911
45439W        W17165  28.743   2.919   0.798
45440W        W17166  13.945  24.063   3.447
45441W        W17167  30.867   1.951   1.427
45442W        W17168  27.490  35.296   1.238
45443W        W17169  44.902  28.085   2.836
45444W        W17170  21.580  11.939  14.417
45445W        W17171  15.805   3.458   5.079
45446W        W17172  27.389   0.068   4.561
45447W        W17173   7.212  44.505  13.374
45448W        W17174  38.456  42.869   0.849
45449W        W17175   6.742  42.437   3.740
45450W        W17176  37.490   1.554  14.551
45451W        W17177   8.937   1.218  13.903
45452W        W17178  22.616  14.841  13.007
45453W        W17179  28.507   2.497  14.049
45454W        W17180  32.711  25.442  12.481
45455W        W17181   3.586  37.480   3.658
45456W        W17182   9.898  41.479  11.491
45457W        W17183  19.175  40.258  10.707
45458W        W17184   7.151   2.727  11.038
45459W        W17185   0.433   7.270   0.793
45460W        W17186  19.146   8.751   3.854
45461W        W17187  13.672  29.823   1.023
45462W        W17188  19.974  31.233  12.055
45463W        W17189  18.765  12.380   3.142
45464W        W17190  36.986   1.238  11.312
45465W        W17191  44.317  10.356   0.489
45466W        W17192  24.481   6.722   3.325
45467W        W17193   7.419  22.155   0.200
45468W        W17194  39.303  19.154  13.775
45469W        W17195  18.501   7.363   1.444
45470W        W17196  40.013  11.694  12.620
45471W        W17197  38.771   2.315   0.174
45472W        W17198  38.391  21.788  13.018
45473W        W17199   0.364  29.429  13.131
45474W        W17200  43.165   7.209   0.860
45475W        W17201  44.857  27.208   0.452
45476W        W17202  21.784  13.053   0.862
45477W        W17203  26.247  39.888   4.499
45478W        W17204  14.643   1.322   4.903
45479W        W17205   4.673  10.297  13.541
45480W        W17206  15.721   9.131   1.371
45481W        W17207  40.984  19.353   1.220
45482W        W17208  27.169  31.118   3.596
45483W        W17209  16.056   3.500  12.082
45484W        W17210  42.874  43.067   2.725
45485W        W17211  32.522  37.827   0.822
45486W        W17212   1.947  37.451   2.253
45487W        W17213  36.434   0.540  11.996
45488W        W17214  31.979   2.954  13.620
45489W        W17215   2.927  35.976   3.074
45490W        W17216  29.951  38.128   4.944
45491W        W17217  35.461   0.875  11.339
45492W        W17218  38.907  44.518   1.778
45493W        W17219  34.948  21.665  13.084
45494W        W17220   3.864  13.934  13.247
45495W        W17221  42.982   3.389   3.710
45496W        W17222   3.755  37.572  13.997
45497W        W17223   6.699   2.163  11.378
45498W        W17224  15.223  30.533  13.943
45499W        W17225   0.311  16.168   0.910
45500W        W17226  17.451   7.838   0.927
45501W        W17227  22.638   5.008   1.734
45502W        W17228  39.974   9.200   1.375
45503W        W17229  39.953   6.420  14.817
45504W        W17230  11.309   7.631   4.766
45505W        W17231   6.634  26.930   0.277
45506W        W17232  25.563  11.702   0.515
45507W        W17233  23.628  17.975   2.355
45508W        W17234  30.990  21.971   2.839
45509W        W17235  32.481   2.196  11.477
45510W        W17236   7.317   0.957   3.604
45511W        W17237  19.540  44.042  12.351
45512W        W17238  22.656  14.825   1.476
45513W        W17239   3.865  26.907  13.895
45514W        W17240  20.280  13.592   2.901
45515W        W17241  14.269   3.494  14.673
45516W        W17242   4.217  19.128  13.843
45517W        W17243  17.293  15.302   2.315
45518W        W17244  13.985  39.354   0.994
45519W        W17245   4.815   0.038  13.479
45520W        W17246  36.091  42.265   3.403
45521W        W17247  12.588  36.055  11.496
45522W        W17248   8.416  38.589  13.347
45523W        W17249   8.732   2.263  13.453
45524W        W17250  17.835  10.569  13.597
45525W        W17251  29.910  26.900  11.111
45526W        W17252   5.436  15.212   5.081
45527W        W17253  23.159  33.833   0.708
45528W        W17254  34.611   1.342  12.627
45529W        W17255  35.063  26.500   5.058
45530W        W17256  27.282  27.065  13.880
45531W        W17257  41.863  29.474  13.154
45532W        W17258  43.959  33.166  10.737
45533W        W17259  41.429  44.382   3.757
45534W        W17260  11.739   1.188   2.154
45535W        W17261  26.618  38.109   2.333
45536W        W17262  15.788  25.560   1.897
45537W        W17263  15.985  23.001  14.319
45538W        W17264  24.451  35.913   0.861
45539W        W17265  28.904  32.667   4.204
45540W        W17266  12.565  19.079  11.644
45541W        W17267  29.671  38.541  12.545
45542W        W17268  38.117  37.116  14.024
45543W        W17269   0.454  14.623   4.085
45544W        W17270  10.291  11.660   4.600
45545W        W17271  31.933   0.507  11.889
45546W        W17272   3.367  37.356   0.819
45547W        W17273  19.229  27.745  13.097
45548W        W17274  39.989   5.460  14.996
45549W        W17275  40.414  34.667   4.151
45550W        W17276  31.096  38.920  10.726
45551W        W17277  19.942   3.250   0.922
45552W        W17278  36.526   3.875   2.260
45553W        W17279  40.036  39.757   4.065
45554W        W17280  36.405  43.217   2.285
45555W        W17281   0.634  36.066  12.932
45556W        W17282  16.052   0.482  11.603
45557W        W17283   8.473  41.983  12.594
45558W        W17284   4.904  31.635  13.844
45559W        W17285  43.840  18.723   4.319
45560W        W17286   5.305  19.221   4.399
45561W        W17287   3.875  39.803   3.549
45562W        W17288  36.573  29.917  10.970
45563W        W17289  19.873  27.017   4.019
45564W        W17290  34.521  42.716   3.749
45565W        W17291  22.319  15.737  13.047
45566W        W17292   7.567   7.297   4.155
45567W        W17293  22.378  36.699  14.968
45568W        W17294  25.940  14.060  13.390
45569W        W17295  16.176  42.464   2.327
45570W        W17296  42.003  20.769  11.774
45571W        W17297  16.034  32.951   3.265
45572W        W17298  33.652   7.312  13.823
45573W        W17299  38.822   8.123   2.133
45574W        W17300  30.655  13.543   0.772
45575W        W17301  27.542  38.318   0.864
45576W        W17302  22.301  10.803   3.752
45577W        W17303  29.855  36.474   3.281
45578W        W17304  31.848   2.296   3.437
45579W        W17305  25.333  25.293   4.190
45580W        W17306  10.626   2.916   1.037
45581W        W17307   4.671  41.222  12.011
45582W        W17308  24.367   5.337  12.567
45583W        W17309   3.227  13.006  11.558
45584W        W17310  36.082  33.901  13.083
45585W        W17311  44.891  42.515   3.327
45586W        W17312   1.321  11.415  12.153
45587W        W17313   4.301  37.290  13.364
45588W        W17314  36.840  19.799  14.252
45589W        W17315   5.784  42.514   0.879
45590W        W17316  43.305  32.457  12.091
45591W        W17317  36.550  26.384   9.911
45592W        W17318  10.574  40.287   3.358
45593W        W17319  20.579  12.462   0.391
45594W        W17320  22.766  16.108  11.246
45595W        W17321  19.226  17.984   3.289
45596W        W17322  22.265  22.543  12.916
45597W        W17323  36.771  41.320  13.804
45598W        W17324  21.684   0.564   4.416
45599W        W17325  16.128  31.411  13.860
45600W        W17326   6.164   4.887  13.614
45601W        W17327  15.320  30.460  11.642
45602W        W17328  13.929  31.716  11.217
45603W        W17329  31.108  42.128   0.337
45604W        W17330  41.420  35.714   3.255
45605W        W17331  18.079  19.238   2.350
45606W        W17332   7.218   3.529  13.377
45607W        W17333  28.404  44.411   1.165
45608W        W17334   2.271   3.719   0.266
45609W        W17335  42.457  20.343  14.886
45610W        W17336  29.092  20.232   4.773
45611W        W17337  17.672  32.570   1.763
45612W        W17338  39.904  37.890   0.032
45613W        W17339  13.695  23.201  12.976
45614W        W17340   8.174  23.921  11.546
45615W        W17341  33.104  17.846  13.445
45616W        W17342  19.814   2.061  11.266
45617W        W17343  35.345  22.170   0.384
45618W        W17344  35.551  24.034  10.648
45619W        W17345  30.346  19.121   3.725
45620W        W17346  25.479  12.638  11.635
45621W        W17347   8.900  44.248   2.494
45622W        W17348  23.669  39.617   3.744
45623W        W17349  26.107  16.598   2.707
45624W        W17350   8.019   4.459  10.367
45625W        W17351  39.509  41.944   0.261
45626W        W17352  31.078  19.734   3.552
45627W        W17353  44.769  10.129   2.936
45628W        W17354   7.445  40.360   1.730
45629W        W17355   8.880  28.536  12.914
45630W        W17356  28.155  43.867   0.230
45631W        W17357   2.814  19.123   2.475
45632W        W17358  34.631  30.602   4.034
45633W        W17359  17.374   1.831  14.721
45634W        W17360  33.318   1.259  12.320
45635W        W17361   9.890   9.341   3.759
45636W        W17362  43.208  13.746   2.852
45637W        W17363  32.568  18.274   4.533
45638W        W17364  25.793  26.611  12.996
45639W        W17365  27.446  34.280  13.001
45640W        W17366  39.341  16.936  13.868
45641W        W17367   8.027  29.134   3.936
45642W        W17368  15.774  39.584   2.611
45643W        W17369  11.176  33.606   2.322
45644W        W17370  42.428  18.633  14.712
45645W        W17371  22.279   0.805   0.517
45646W        W17372  19.064   4.765   3.649
45647W        W17373  26.029  31.198  14.056
45648W        W17374  41.406  13.674  14.512
45649W        W17375  43.877   7.327  13.578
45650W        W17376  14.863  16.067   3.101
45651W        W17377   8.581  13.341  12.273
45652W        W17378  17.647  31.450   2.407
45653W        W17379  26.516  13.780   1.542
45654W        W17380  29.448  38.269  13.454
45655W        W17381  30.413  25.982  14.922
45656W        W17382  23.984  23.586  13.775
45657W        W17383   0.465   5.137  11.139
45658W        W17384  37.192   5.393  11.173
45659W        W17385  43.488  44.929   1.323
45660W        W17386  43.687   1.012   0.471
45661W        W17387  39.923  17.990  12.082
45662W        W17388  39.643  15.084  13.023
45663W        W17389  23.413   8.177   2.549
45664W        W17390  17.365   8.336  11.639
45665W        W17391  41.100   9.885  14.316
45666W        W17392  44.910  42.760   0.847
45667W        W17393  40.343   7.020   1.077
45668W        W17394   9.057  15.874  10.842
45669W        W17395  36.652  39.291  12.439
45670W        W17396  18.813  38.268  13.948
45671W        W17397   5.938  10.733   1.406
45672W        W17398  40.466   2.700  12.471
45673W        W17399  26.935   1.748  12.069
45674W        W17400  24.724  14.586   1.360
45675W        W17401  12.828   8.164  12.552
45676W        W17402  18.830  28.561  13.364
45677W        W17403  38.636  31.423   0.938
45678W        W17404  15.736  37.345   3.192
45679W        W17405  38.957  31.681  13.511
45680W        W17406  27.090  27.455  12.146
45681W        W17407  24.726  28.275  13.445
45682W        W17408  20.019  33.700  13.442
45683W        W17409  27.077  38.912   4.522
45684W        W17410  14.796  40.546  11.538
45685W        W17411  26.522  37.623   2.256
45686W        W17412  13.949   7.882   2.741
45687W        W17413   7.393  31.692   4.992
45688W        W17414  13.208  39.917   0.742
45689W        W17415   5.227  42.822   4.428
45690W        W17416  10.348   1.686   4.902
45691W        W17417  30.959  10.096   0.822
45692W        W17418  19.302  13.140   0.824
45693W        W17419   1.691   7.330   3.472
45694W        W17420  10.600  14.806   0.631
45695W        W17421  26.218  13.341  11.106
45696W        W17422  36.417  32.001   4.657
45697W        W17423  23.924  39.921  12.105
45698W        W17424  12.244  36.842   3.591
45699W        W17425   3.484  25.581   0.892
45700W        W17426  41.602   4.419   1.822
45701W        W17427  20.279  37.330  14.350
45702W        W17428   6.321  26.225   5.113
45703W        W17429  27.066  19.350  12.417
45704W        W17430  35.972  43.015  14.817
45705W        W17431   3.941  24.659  14.287
45706W        W17432  16.089  24.615   2.765
45707W        W17433   0.811  19.247  11.062
45708W        W17434  40.118  11.205   3.337
45709W        W17435  29.346  30.392   2.079
45710W        W17436  15.201   7.429  13.950
45711W        W17437  20.800  43.006  14.304
45712W        W17438  44.998   6.076   9.997
45713W        W17439   4.896  22.702   2.609
45714W        W17440  29.343  25.688   4.637
45715W        W17441  25.387  13.435   4.277
45716W        W17442  42.867  15.538   4.270
45717W        W17443  13.217   3.201  10.779
45718W        W17444  17.835  14.715  14.967
45719W        W17445  20.768  21.216  14.957
45720W        W17446  21.725  41.887   0.942
45721W        W17447   4.660  42.590   1.903
45722W        W17448  16.571  38.291  14.294
45723W        W17449  43.985  13.888  14.082
45724W        W17450  13.349  22.199   2.244
45725W        W17451  42.520  36.443   4.719
45726W        W17452   0.369  14.079   1.878
45727W        W17453   5.085  23.584   0.611
45728W        W17454  33.068  24.075   1.221
45729W        W17455  30.643  34.689  13.992
45730W        W17456  22.091   0.494   1.362
45731W        W17457   5.666   7.746  11.020
45732W        W17458  16.708  42.875  12.081
45733W        W17459  30.447  44.541   0.037
45734W        W17460  28.084   5.509  11.286
45735W        W17461   3.320   7.723  13.916
45736W        W17462  37.117   5.130  11.633
45737W        W17463  36.786   3.641   0.079
45738W        W17464  34.871   3.377   0.442
45739W        W17465  27.478  30.099   0.968
45740W        W17466  10.638  36.202   3.053
45741W        W17467  24.581  10.915  11.408
45742W        W17468  14.708  33.949  11.471
45743W        W17469  37.894  12.721   0.772
45744W        W17470  19.363  16.024   1.739
45745W        W17471   8.351  36.053   0.801
45746W        W17472   9.876   2.288   0.324
45747W        W17473   3.223   9.877  14.865
45748W        W17474   1.494  39.029  12.437
45749W        W17475  12.109  33.354  14.556
45750W        W17476  19.370  38.747   3.533
45751W        W17477  43.341  33.689  14.288
45752W        W17478  14.386  29.362  10.633
45753W        W17479  40.785  32.423  10.727
45754W        W17480  35.363  24.640   3.730
45755W        W17481  42.892  27.621  12.687
45756W        W17482  24.134   9.413  11.480
45757W        W17483  16.851  22.656  14.719
45758W        W17484   0.497  43.001   4.674
45759W        W17485  28.001  22.273   1.437
45760W        W17486  34.132  40.334   1.694
45761W        W17487  30.740  11.826   1.856
45762W        W17488  41.309  22.032   1.004
45763W        W17489  28.381   8.208  13.439
45764W        W17490  24.662  37.801   4.579
45765W        W17491   2.577  19.663   4.781
45766W        W17492  16.143  41.052   0.381
45767W        W17493   7.645   0.170  11.044
45768W        W17494   3.237   8.444   2.427
45769W        W17495  16.980   0.423  11.494
45770W        W17496  41.964   9.501  11.639
45771W        W17497   6.475  34.998   0.857
45772W        W17498  27.511  20.110   3.133
45773W        W17499  14.206  44.765   1.099
45774W        W17500   1.911  10.568  14.560
45775W        W17501  28.167  39.914   2.459
45776W        W17502  42.027   7.829  14.017
45777W        W17503   5.828  15.772   2.916
45778W        W17504  32.400   5.468  13.766
45779W        W17505  36.371   7.962   0.779
45780W        W17506   4.026  10.840  13.473
45781W        W17507  25.965  26.923   2.024
45782W        W17508  36.818   0.693   1.665
45783W        W17509   1.860  19.313  13.014
45784W        W17510  10.352   6.429   0.858
45785W        W17511  16.109  36.885  13.384
45786W        W17512  13.662  24.094  14.076
45787W        W17513  35.661  42.864  12.670
45788W        W17514  13.609  10.864  11.617
45789W        W17515  36.178  24.531  12.520
45790W        W17516  30.822  16.671   0.363
45791W        W17517   9.904   4.368   1.297
45792W        W17518  10.176  41.583  13.451
45793W        W17519  36.579   7.781  14.874
45794W        W17520  22.946   7.480   2.788
45795W        W17521  17.129  15.770  13.774
45796W        W17522  15.515  15.353   1.918
45797W        W17523   1.819  16.360  13.312
45798W        W17524   2.467   9.679   2.652
45799W        W17525   0.653  22.300  13.047
45800W        W17526  25.514   8.062   2.018
45801W        W17527   3.111  25.969  14.389
45802W        W17528  32.481   7.147   1.193
45803W        W17529  11.333  28.667  11.534
45804W        W17530   6.149  26.714  10.726
45805W        W17531  23.627  24.370  13.389
45806W        W17532   6.512  38.065   4.214
45807W        W17533   4.694   1.875  13.712
45808W        W17534  36.468  17.332  14.526
45809W        W17535  18.547  15.812  14.058
45810W        W17536  30.622   9.372   0.331
45811W        W17537  39.879  12.866  10.723
45812W        W17538  35.390  26.227  13.110
45813W        W17539  30.088  29.406  14.804
45814W        W17540   6.830  13.391   4.604
45815W        W17541  38.802   6.386   3.643
45816W        W17542  20.141   5.400  12.984
45817W        W17543   9.604  25.790  13.714
45818W        W17544  22.560  23.592   2.233
45819W        W17545  22.644   1.342  12.434
45820W        W17546  23.554  15.607  13.283
45821W        W17547  20.315   3.207  10.718
45822W        W17548  10.773  20.617  11.930
45823W        W17549  38.489  42.058  13.580
45824W        W17550  34.842  15.525  11.552
45825W        W17551  24.611  38.597  12.031
45826W        W17552  28.201  19.048  12.185
45827W        W17553  42.233   5.158   0.319
45828W        W17554  22.649   6.305  12.828
45829W        W17555  15.162  36.057  10.712
45830W        W17556  43.973  30.695  14.503
45831W        W17557   9.168  11.644  10.660
45832W        W17558   2.796  11.278  13.898
45833W        W17559  18.992  42.939  10.818
45834W        W17560   4.867  29.968   1.272
45835W        W17561  40.837  34.663   3.389
45836W        W17562  25.190  20.400   1.450
45837W        W17563  44.398  32.924  11.440
45838W        W17564  12.146  33.498  11.896
45839W        W17565  42.002  18.212   0.288
45840W        W17566  38.727  11.214  10.608
45841W        W17567   3.976  41.900  11.506
45842W        W17568  30.192   3.346  13.107
45843W        W17569   4.293   6.299   2.088
45844W        W17570  25.687  22.328  10.872
45845W        W17571   5.795   1.917   1.386
45846W        W17572  41.889  19.027  11.651
45847W        W17573  37.548  11.787   1.841
45848W        W17574   5.409  34.930   3.211
45849W        W17575  36.933  13.644   0.698
45850W        W17576   8.138  37.136   1.762
45851W        W17577  43.192  16.466   4.438
45852W        W17578  27.597  22.508   2.720
45853W        W17579   5.210  13.815   3.801
45854W        W17580  23.549  39.593   3.196
45855W        W17581   2.189  42.299  11.578
45856W        W17582   1.774  35.053   0.515
45857W        W17583   0.907  40.105  14.137
45858W        W17584  29.014  22.948  14.378
45859W        W17585  16.760  38.609  12.043
45860W        W17586  15.700   0.316  13.945
45861W        W17587  22.600  36.902  10.963
45862W        W17588  29.159   2.928  12.020
45863W        W17589   2.969   7.487  12.034
45864W        W17590  33.394   7.457  10.858
45865W        W17591  29.899   1.316   0.364
45866W        W17592  32.289  15.720   2.074
45867W        W17593  15.756   3.909   1.720
45868W        W17594  32.531  32.092   3.194
45869W        W17595  21.495   9.054  11.790
45870W        W17596  11.913  15.586   3.089
45871W        W17597  13.602  15.055   4.592
45872W        W17598  25.540  37.751   1.348
45873W        W17599  11.885  29.925   0.861
45874W        W17600  14.348  22.242  10.547
45875W        W17601   4.933  41.265  12.925
45876W        W17602   6.203  13.368  12.493
45877W        W17603  31.864  17.297   0.451
45878W        W17604  23.141  32.649   1.898
45879W        W17605  24.138  25.112   3.688
45880W        W17606  32.331  42.526   3.122
45881W        W17607   4.236   3.303   1.909
45882W        W17608   2.469  30.441   2.947
45883W        W17609  20.512  18.696   0.346
45884W        W17610  44.297   1.493  14.025
45885W        W17611  28.878  27.955   2.674
45886W        W17612  14.285  23.245  12.592
45887W        W17613  18.214  22.979  13.321
45888W        W17614  37.039  29.539  11.605
45889W        W17615  31.416  16.752  14.500
45890W        W17616   4.500  32.880  10.934
45891W        W17617   5.912  39.341   2.696
45892W        W17618  15.683  34.729  10.658
45893W        W17619  35.596  16.282   1.920
45894W        W17620  29.654   9.286  13.839
45895W        W17621  25.642  36.862  12.594
45896W        W17622  33.065  14.203   4.220
45897W        W17623  36.016  36.475   3.925
45898W        W17624  21.145   8.428   2.835
45899W        W17625   0.438  36.246   0.519
45900W        W17626  15.495  38.593   2.892
45901W        W17627  39.986  33.156  11.706
45902W        W17628  15.540  39.882  10.645
45903W        W17629  23.141  40.764  14.372
45904W        W17630  32.085   0.579  13.773
45905W        W17631  37.368  31.580  12.588
45906W        W17632  43.556   7.714  12.947
45907W        W17633  34.535  38.548  11.592
45908W        W17634  18.173  34.216  11.364
45909W        W17635  28.573  10.316  12.297
45910W        W17636  16.066  15.208  11.525
45911W        W17637  29.857  18.866  14.913
45912W        W17638   4.665  27.129  14.388
45913W        W17639  37.643  30.362  13.906
45914W        W17640  33.447  33.399   1.399
45915W        W17641  32.786  27.458  11.983
45916W        W17642  27.460  42.047   2.372
45917W        W17643  25.987   2.219   1.332
45918W        W17644  20.512  41.426  14.771
45919W        W17645  42.453  30.161   2.784
45920W        W17646   1.688   6.765   1.216
45921W        W17647   9.892  36.189  12.962
45922W        W17648  41.433  25.048   1.735
45923W        W17649  44.953  44.794  12.378
45924W        W17650  16.661  36.332  14.051
45925W        W17651   6.151  16.864  13.902
45926W        W17652  43.574  28.317  13.035
45927W        W17653  21.738   4.230   0.054
45928W        W17654  21.730  14.048  12.331
45929W        W17655   0.901   9.483   0.899
45930W        W17656  42.974  28.180   2.173
45931W        W17657   8.264  34.387   4.568
45932W        W17658  31.087  12.652   1.964
45933W        W17659  11.672  33.149  12.520
45934W        W17660  23.171  35.562  14.725
45935W        W17661  27.577  26.091  10.350
45936W        W17662  40.725  31.173  13.805
45937W        W17663  14.602   5.517   2.516
45938W        W17664   4.732  38.277   2.627
45939W        W17665  30.569   8.468   4.412
45940W        W17666  22.236  34.860   4.933
45941W        W17667  15.954  19.492  13.184
45942W        W17668   9.065  31.425  14.853
45943W        W17669  12.534  27.887  12.905
45944W        W17670  12.310  37.970   0.521
45945W        W17671  14.854  32.606  12.614
45946W        W17672   8.250   1.899  14.860
45947W        W17673  22.992  20.437  14.375
45948W        W17674  29.063   3.136   0.343
45949W        W17675  37.660   1.524   0.491
45950W        W17676  33.675  23.357  14.602
45951W        W17677  11.759  17.916  12.074
45952W        W17678  31.718  10.737   2.298
45953W        W17679  44.990  24.041   2.144
45954W        W17680  21.750  32.949  12.472
45955W        W17681  31.871  19.525  11.258
45956W        W17682  32.524  34.683  10.466
45957W        W17683  34.527   5.907  14.892
45958W        W17684   2.573  19.199  10.973
45959W        W17685  18.706  32.338   0.945
45960W        W17686  26.004  31.729  13.984
45961W        W17687  26.020  13.113  14.736
45962W        W17688   3.863  24.235  13.780
45963W        W17689   2.631  10.901   3.867
45964W        W17690  20.454   2.641   2.938
45965W        W17691   5.657  10.330  12.476
45966W        W17692  17.638  39.974  14.733
45967W        W17693   8.744  25.805   5.049
45968W        W17694   4.796   3.515  10.497
45969W        W17695  17.338  43.378  14.254
45970W        W17696  19.584  30.829  13.800
45971W        W17697  17.091  20.547   0.890
45972W        W17698  21.626  34.901   3.567
45973W        W17699  36.859   7.105  14.090
45974W        W17700   5.680  39.481  11.347
45975W        W17701  39.240  17.872   4.134
45976W        W17702   3.699  17.107  14.491
45977W        W17703  41.480  43.073   1.772
45978W        W17704  37.543  35.763   4.573
45979W        W17705  14.687  18.594   3.627
45980W        W17706  10.100  31.091  14.271
45981W        W17707  19.309  12.412  13.802
45982W        W17708  16.109  27.970  13.902
45983W        W17709  36.375  37.443   2.782
45984W        W17710  31.412  16.808   1.327
45985W        W17711   2.200  39.751  12.038
45986W        W17712  33.987  11.486   1.224
45987W        W17713  38.526  37.579  11.264
45988W        W17714  14.309  40.504   9.967
45989W        W17715   0.474   6.989  12.552
45990W        W17716  16.665   9.332   0.057
45991W        W17717  29.372  18.176  11.299
45992W        W17718  21.501  24.621  14.545
45993W        W17719  17.624  19.721   0.337
45994W        W17720   6.180  10.937   0.037
45995W        W17721  34.382  13.216   1.887
45996W        W17722  22.708  11.837  13.716
45997W        W17723   5.936   2.732  11.555
45998W        W17724  37.379  27.051  12.651
45999W        W17725  10.601  34.385  11.420
46000W        W17726  26.563  28.982  14.421
46001W        W17727   2.284  17.675  12.435
46002W        W17728   9.606   2.461  12.008
46003W        W17729  35.637   1.951  14.694
46004W        W17730  43.095   8.802   1.509
46005W        W17731   7.674   2.723  10.977
46006W        W17732  17.476  11.241   4.085
46007W        W17733  29.701  20.771  12.130
46008W        W17734   2.073  21.625   1.236
46009W        W17735  37.465   4.638  14.444
46010W        W17736   4.903   2.167   2.733
46011W        W17737  24.537  24.659  14.183
46012W        W17738  37.327  15.629  11.153
46013W        W17739  38.893  11.368   3.717
46014W        W17740   8.140   5.009  11.957
46015W        W17741  19.208  11.329  13.743
46016W        W17742   3.959  24.210   0.187
46017W        W17743  11.433  37.434  11.654
46018W        W17744  33.864  21.987   2.668
46019W        W17745  38.949  44.373  11.479
46020W        W17746   9.229   6.842   1.914
46021W        W17747  33.901  13.623  11.398
46022W        W17748   4.777   4.652  10.215
46023W        W17749  43.019   2.034  13.866
46024W        W17750  14.984  13.114   1.438
46025W        W17751  18.064  38.938  14.888
46026W        W17752  13.745  17.813  10.648
46027W        W17753  42.776  24.246  11.069
46028W        W17754  32.968  25.434  11.159
46029W        W17755  44.766  35.857  10.780
46030W        W17756   3.153  39.540   0.362
46031W        W17757  21.438  34.438   0.666
46032W        W17758  34.625  33.159  14.989
46033W        W17759  34.789  16.776   1.930
46034W        W17760  17.823  29.216   0.009
46035W        W17761  39.349   7.745   4.233
46036W        W17762  44.467   2.436   2.097
46037W        W17763  11.193  42.834   1.710
46038W        W17764  30.482   3.270  12.111
46039W        W17765   5.211   3.817  10.448
46040W        W17766  40.326  30.979  12.912
46041W        W17767  34.925  43.467   3.769
46042W        W17768  21.190  25.252  10.746
46043W        W17769  14.292  21.581  13.777
46044W        W17770  27.037  43.706   2.627
46045W        W17771  19.090  13.031  12.939
46046W        W17772  15.726   7.589   2.571
46047W        W17773  29.482  14.734   0.725
46048W        W17774  10.166  19.961  10.836
46049W        W17775  22.358  23.536   4.256
46050W        W17776  11.826  13.049   3.791
46051W        W17777  26.012  34.368  10.764
46052W        W17778  14.376   8.734  12.116
46053W        W17779  10.645  38.835  13.410
46054W        W17780  44.985  37.810   4.801
46055W        W17781  33.176  24.185  11.117
46056W        W17782   7.531  23.105   4.520
46057W        W17783   7.257  44.769   2.742
46058W        W17784  10.608  24.050  13.796
46059W        W17785  40.302  16.466  12.453
46060W        W17786  39.903  40.439  13.290
46061W        W17787  12.093   4.150  13.340
46062W        W17788  44.965  35.425  12.434
46063W        W17789  12.307  36.203  13.008
46064W        W17790  29.994   9.844   2.747
46065W        W17791  28.493  38.107   3.742
46066W        W17792  15.151   7.174   4.461
46067W        W17793  30.144  27.206  13.810
46068W        W17794  21.630  35.091  12.819
46069W        W17795   9.073  38.247  11.536
46070W        W17796  19.265  33.026  11.712
46071W        W17797  41.016   1.549   1.692
46072W        W17798  32.051  12.380   2.535
46073W        W17799  12.637   4.382  11.681
46074W        W17800  37.160  12.248  12.982
46075W        W17801   6.635  24.668  12.217
46076W        W17802  20.061  19.033   4.277
46077W        W17803  37.111   9.434   0.434
46078W        W17804   0.240  41.213   1.654
46079W        W17805  18.322  13.161   2.357
46080W        W17806  11.607   7.574   3.201
46081W        W17807   2.751  34.471   1.831
46082W        W17808   0.886  22.211  12.588
46083W        W17809   9.149  18.527   1.050
46084W        W17810  26.972  22.765  11.021
46085W        W17811   6.179  34.593  11.915
46086W        W17812  32.376  19.518   3.735
46087W        W17813  22.574  26.656   1.207
46088W        W17814  24.033  27.422   4.993
46089W        W17815  11.336  15.422  11.536
46090W        W17816  27.153  28.491   2.588
46091W        W17817  23.138   2.389   1.805
46092W        W17818  17.061   2.788  12.102
46093W        W17819  38.942  32.402   4.147
46094W        W17820  27.057  44.453   0.035
46095W        W17821  26.516   1.318  14.541
46096W        W17822  10.856  14.063   0.350
46097W        W17823  14.796  16.894  11.667
46098W        W17824  43.304  22.166   0.856
46099W        W17825  24.510   8.788  12.106
46100W        W17826  27.447  21.907  12.588
46101W        W17827   5.987  39.561  12.782
46102W        W17828  23.850  25.053  11.896
46103W        W17829  28.096  44.392   0.074
46104W        W17830  28.071  42.049   0.840
46105W        W17831  36.250  32.085  11.947
46106W        W17832  11.313  26.069  13.065
46107W        W17833  40.295  26.478   1.413
46108W        W17834  17.786  14.716  11.169
46109W        W17835  42.793  22.550  13.922
46110W        W17836   1.222  14.216  12.041
46111W        W17837  23.016  24.626   4.438
46112W        W17838  36.436  15.092   4.653
46113W        W17839  27.933  32.945  11.122
46114W        W17840  15.347   8.756  13.464
46115W        W17841   5.484  40.006   4.237
46116W        W17842   6.484  15.587  14.001
46117W        W17843  32.258   8.859   3.023
46118W        W17844  40.985  30.026   3.405
46119W        W17845  27.357  11.817  10.457
46120W        W17846  40.074  25.638   3.860
46121W        W17847   5.473  36.967   3.739
46122W        W17848  35.263   1.081  13.001
46123W        W17849  42.872   1.514  10.645
46124W        W17850  35.444  27.121  12.958
46125W        W17851   5.783  43.961   2.455
46126W        W17852  25.647  34.934  14.383
46127W        W17853  40.543  41.271   1.863
46128W        W17854  35.864   5.689   3.239
46129W        W17855  11.634  42.504  13.874
46130W        W17856   3.424  30.153   1.777
46131W        W17857  28.025   5.699   4.608
46132W        W17858  12.504  23.159   1.597
46133W        W17859  20.314  38.400  12.512
46134W        W17860  14.273  10.613   1.384
46135W        W17861  29.918  11.100   4.203
46136W        W17862  26.456  17.792   0.838
46137W        W17863  32.758   6.177   1.559
46138W        W17864  38.430  41.147  13.584
46139W        W17865  31.023  23.728  13.382
46140W        W17866  21.677  36.010   3.181
46141W        W17867  41.325  12.165   0.904
46142W        W17868  44.548  10.130  11.990
46143W        W17869  37.320  37.434   2.827
46144W        W17870  29.440  40.988  12.017
46145W        W17871  20.131  36.314  13.871
46146W        W17872  15.021   2.549  13.453
46147W        W17873  21.524  32.582   4.194
46148W        W17874  10.182   2.847   0.766
46149W        W17875   7.574  29.264   3.721
46150W        W17876   8.162  41.269   2.123
46151W        W17877  36.375  23.576   4.332
46152W        W17878  12.156  42.910  12.896
46153W        W17879  31.206  23.161   1.871
46154W        W17880  12.581  31.503   2.163
46155W        W17881  11.659  14.243  14.748
46156W        W17882  42.145  28.593   2.098
46157W        W17883  15.049  10.296  11.721
46158W        W17884  32.205  10.210   2.716
46159W        W17885   0.851  43.958  12.023
46160W        W17886  30.833  30.800  12.006
46161W        W17887  16.740  28.152  13.130
46162W        W17888  24.608   2.671  14.172
46163W        W17889   3.239  32.535   2.288
46164W        W17890   4.308  16.696   0.387
46165W        W17891  10.024  42.398   3.107
46166W        W17892  38.365   7.717   0.460
46167W        W17893  20.088  32.910   0.535
46168W        W17894  44.276  26.887  11.682
46169W        W17895   3.757   3.333  13.447
46170W        W17896  28.629  33.524   3.354
46171W        W17897   4.472  30.014   3.296
46172W        W17898   2.321  31.006   1.800
46173W        W17899  31.195  13.336   1.339
46174W        W17900  24.660  20.658   4.640
46175W        W17901  43.874   6.926  10.371
46176W        W17902   0.288  43.470  10.559
46177W        W17903   5.777  31.868   0.881
46178W        W17904  11.384  40.395   2.331
46179W        W17905  28.185   0.063   5.045
46180W        W17906  35.997  35.394   1.369
46181W        W17907   2.414   4.784   5.043
46182W        W17908  29.633   9.609   3.790
46183W        W17909  24.479  39.895  11.118
46184W        W17910   0.256  34.971   0.585
46185W        W17911  10.461  29.426  14.903
46186W        W17912  36.567  24.005   4.603
46187W        W17913   2.231   4.490  12.493
46188W        W17914  18.836  16.734  13.437
46189W        W17915  29.542  10.555   0.805
46190W        W17916  19.105  40.270  14.456
46191W        W17917  25.096  13.280   3.873
46192W        W17918  29.875  32.104  13.806
46193W        W17919  37.957   7.262   4.107
46194W        W17920  20.446   7.970  14.396
46195W        W17921  24.709   7.880  12.300
46196W        W17922  42.151  27.667   2.393
46197W        W17923  20.004  18.793  13.752
46198W        W17924  19.964  20.809  14.852
46199W        W17925  23.812  27.875  13.293
46200W        W17926  30.387  40.585   2.825
46201W        W17927  37.505  20.116   2.262
46202W        W17928  28.295  30.373   3.613
46203W        W17929  27.197   2.708   3.662
46204W        W17930  28.856  40.339  13.902
46205W        W17931  18.332  27.401   0.697
46206W        W17932  40.498  32.603  14.336
46207W        W17933  29.874  27.500  12.857
46208W        W17934  20.084  24.909  14.933
46209W        W17935  27.450  21.725   2.263
46210W        W17936   7.911  41.535   4.539
46211W        W17937   4.794  41.751   0.466
46212W        W17938  23.782  23.886   0.348
46213W        W17939  32.919  35.375   2.233
46214W        W17940  13.529  41.559  10.558
46215W        W17941  41.811  10.610   1.282
46216W        W17942  44.716  34.496   1.212
46217W        W17943  32.075  20.420   2.654
46218W        W17944  29.176  16.046   1.407
46219W        W17945  15.322  44.135   0.410
46220W        W17946  26.950   7.373   3.683
46221W        W17947  43.798  33.491   1.757
46222W        W17948  19.071  24.236  14.893
46223W        W17949   1.669  24.798  13.259
46224W        W17950   6.699  13.612   9.824
46225W        W17951  37.836   8.962   3.391
46226W        W17952  39.139   0.545   0.891
46227W        W17953  10.095  38.361  12.579
46228W        W17954   9.215  21.436  14.403
46229W        W17955  41.410  30.772   0.347
46230W        W17956  31.656  21.089   3.705
46231W        W17957  44.504  14.529  11.641
46232W        W17958  14.754  11.727   0.212
46233W        W17959  18.630  35.573  14.504
46234W        W17960  21.374  23.451   4.342
46235W        W17961  42.327  27.692   3.984
46236W        W17962  25.210   7.636  10.988
46237W        W17963  14.684   2.260  13.001
46238W        W17964  25.761   3.847  11.111
46239W        W17965  38.952   8.940   1.713
46240W        W17966   2.347  30.997  13.798
46241W        W17967  29.354  30.130   1.048
46242W        W17968  38.503  31.634   3.185
46243W        W17969   0.549  35.162  13.730
46244W        W17970  40.012  19.163  14.020
46245W        W17971  43.471  30.892  13.030
46246W        W17972  21.125  24.271   1.766
46247W        W17973   1.553  15.036  13.043
46248W        W17974  27.446   1.389  10.423
46249W        W17975  14.867  21.519  11.597
46250W        W17976  14.659  33.064   1.365
46251W        W17977  35.525   3.065   1.777
46252W        W17978  34.132   9.346  14.464
46253W        W17979  25.029   7.415   0.952
46254W        W17980  21.606  43.076   0.422
46255W        W17981  21.721  24.248   2.739
46256W        W17982   6.185  38.102   4.852
46257W        W17983  40.962  18.113   2.867
46258W        W17984  17.758  23.012  13.048
46259W        W17985  37.431  26.991   2.782
46260W        W17986   0.620  37.174  12.040
46261W        W17987   3.770  40.974  13.473
46262W        W17988  16.552  15.689  13.031
46263W        W17989   0.984  10.086   4.968
46264W        W17990  28.020  36.343   3.185
46265W        W17991   8.876   6.637   4.852
46266W        W17992   1.446  29.516   3.594
46267W        W17993  22.603  35.104  12.039
46268W        W17994  13.155  10.888   1.779
46269W        W17995  18.017  30.388   2.750
46270W        W17996   8.392  16.287   3.712
46271W        W17997  30.445   5.924   3.453
46272W        W17998  44.713  33.850  11.611
46273W        W17999  29.042  23.724   0.339
46274W        W18000  32.892  37.918   2.827
46275W        W18001  35.014  20.487   0.423
46276W        W18002   5.255  40.352  13.748
46277W        W18003  31.113  43.909  11.970
46278W        W18004  12.472   3.277  12.255
46279W        W18005  37.954  29.986   4.523
46280W        W18006  30.024   2.386   4.570
46281W        W18007  42.786  30.005   2.278
46282W        W18008  43.325  43.432   1.657
46283W        W18009  40.286  17.743  10.763
46284W        W18010   5.359  18.559   3.255
46285W        W18011   9.068   2.782  11.387
46286W        W18012  28.698  26.172   4.309
46287W        W18013  17.132  43.842  13.992
46288W        W18014  15.273  20.634  10.622
46289W        W18015  35.112  19.660   1.021
46290W        W18016  42.574  20.036   0.532
46291W        W18017   7.688   4.524   2.497
46292W        W18018  32.434  14.119  14.362
46293W        W18019  36.906   5.388  13.416
46294W        W18020  29.119   9.599  11.975
46295W        W18021  16.202  17.485   1.659
46296W        W18022   8.060   3.210   3.545
46297W        W18023  37.799  40.605  12.869
46298W        W18024  39.911  24.062  11.172
46299W        W18025  28.406  35.793  12.399
46300W        W18026  33.437  13.789  11.235
46301W        W18027  35.214  36.245  11.145
46302W        W18028  40.017  21.271  14.537
46303W        W18029  22.740  27.392   4.643
46304W        W18030  35.979  11.626  13.041
46305W        W18031   8.901   3.251   4.095
46306W        W18032  41.616  30.067  10.872
46307W        W18033  24.508  13.097  13.530
46308W        W18034  31.379  16.824   4.491
46309W        W18035  44.772  15.035  11.985
46310W        W18036  24.263  11.242   2.047
46311W        W18037  29.211  44.991   4.072
46312W        W18038  11.125  29.032  13.270
46313W        W18039  35.348  30.201   3.671
46314W        W18040  13.124  35.088  11.998
46315W        W18041  21.438  18.079   2.024
46316W        W18042  32.453  12.408  11.938
46317W        W18043  10.176   8.589   1.741
46318W        W18044   4.847   3.540   0.639
46319W        W18045  31.130  41.352  14.851
46320W        W18046   1.379  30.607   4.145
46321W        W18047  34.549  27.185   3.320
46322W        W18048  11.042  23.003  11.236
46323W        W18049   1.923  41.533  14.794
46324W        W18050  17.561  18.920   4.605
46325W        W18051  27.379  10.792   3.173
46326W        W18052  31.136  22.659   0.313
46327W        W18053  29.096  20.527  11.197
46328W        W18054  30.954  43.852   0.258
46329W        W18055  41.740  36.082   4.120
46330W        W18056   8.785  20.015  10.701
46331W        W18057  29.721  30.692   0.327
46332W        W18058   5.644  38.499   3.195
46333W        W18059   8.308  24.497   5.377
46334W        W18060  40.888  40.639  10.617
46335W        W18061  38.886  26.403  12.231
46336W        W18062  24.567   7.724  13.443
46337W        W18063   4.892   6.320  10.005
46338W        W18064   1.367  15.402  13.363
46339W        W18065  24.939  16.705  13.345
46340W        W18066   7.360   1.890  11.966
46341W        W18067  39.953   0.392   1.261
46342W        W18068  36.759  18.718  13.440
46343W        W18069  24.707  14.211  11.384
46344W        W18070  10.342  42.401   3.571
46345W        W18071  32.141   5.909   4.009
46346W        W18072   1.911   2.524  14.756
46347W        W18073  12.513  41.795  12.096
46348W        W18074   4.857  33.334  12.384
46349W        W18075  33.997  36.550   1.064
46350W        W18076  44.918  39.907  13.138
46351W        W18077  38.123  14.612   2.233
46352W        W18078   6.475  15.444  10.484
46353W        W18079  12.779  23.097   2.341
46354W        W18080  38.592  21.708   4.061
46355W        W18081  42.952   3.623   1.414
46356W        W18082  30.284  11.006   3.217
46357W        W18083  32.230  19.016   0.648
46358W        W18084  31.052  15.626   1.884
46359W        W18085   9.462  11.151  10.785
46360W        W18086  18.694  12.383   1.374
46361W        W18087  34.182  42.705   1.717
46362W        W18088  27.628  23.238  14.319
46363W        W18089   6.965  33.147  13.912
46364W        W18090  39.898   2.892  12.017
46365W        W18091  34.610   2.875   3.753
46366W        W18092  19.167   7.055  10.592
46367W        W18093   9.370   4.845  11.601
46368W        W18094   4.182  16.606  12.826
46369W        W18095  28.886   0.212  12.383
46370W        W18096  29.795  27.034   3.332
46371W        W18097  21.259   4.682   2.304
46372W        W18098  40.224   9.611   0.479
46373W        W18099   6.519  38.540  10.215
46374W        W18100  31.871  34.429   1.670
46375W        W18101  11.658  43.316  13.380
46376W        W18102   7.227  35.488  11.443
46377W        W18103  32.704   7.811  11.196
46378W        W18104   8.807  29.430   1.293
46379W        W18105  34.429  32.360   1.719
46380W        W18106   0.851  28.931   2.319
46381W        W18107  43.083   9.773  11.892
46382W        W18108  11.282  34.396   1.898
46383W        W18109  37.852   9.337  13.012
46384W        W18110  11.178   4.173  11.531
46385W        W18111  26.848  20.176   4.122
46386W        W18112  20.951  33.993   3.167
46387W        W18113   8.153  39.516  10.375
46388W        W18114  16.255  39.263  11.610
46389W        W18115  22.247   1.092   0.946
46390W        W18116  33.916   0.781   4.251
46391W        W18117  18.365  18.209  13.304
46392W        W18118  18.359  15.387  13.832
46393W        W18119  42.917   7.690  12.083
46394W        W18120  11.288  34.463  12.905
46395W        W18121  32.838  32.528   3.292
46396W        W18122  31.647  10.770   0.856
46397W        W18123  24.781  17.046   3.192
46398W        W18124   2.389  40.307   2.254
46399W        W18125  34.625   4.578   3.783
46400W        W18126  21.404  37.057  12.296
46401W        W18127  37.446  41.531  13.483
46402W        W18128  35.849  41.820   2.571
46403W        W18129  19.637   4.327   0.054
46404W        W18130   3.209  12.748  12.955
46405W        W18131  15.572  16.118  10.406
46406W        W18132  29.074   9.171  10.687
46407W        W18133  15.721  25.166   4.303
46408W        W18134  35.050   9.236   1.196
46409W        W18135  20.250  37.957   4.910
46410W        W18136  33.356   8.810   3.823
46411W        W18137  42.863  38.941   3.279
46412W        W18138  29.467  40.233  13.703
46413W        W18139  30.930  21.150   4.131
46414W        W18140  35.420  22.256   1.872
46415W        W18141  14.177   2.299   2.477
46416W        W18142  43.292  28.118  10.349
46417W        W18143  38.928  11.358  14.906
46418W        W18144  29.815  22.130  14.361
46419W        W18145   1.949  22.473  13.161
46420W        W18146  35.448  44.889  11.882
46421W        W18147  33.941  30.526   2.144
46422W        W18148   9.160  37.644  13.516
46423W        W18149   1.307   1.263  11.818
46424W        W18150  39.862  41.784  10.757
46425W        W18151   7.095   3.738   0.372
46426W        W18152  39.768   8.968  10.906
46427W        W18153  21.102  34.059  12.029
46428W        W18154   0.730  31.186  14.534
46429W        W18155  44.179  39.949   3.281
46430W        W18156  12.336  10.347   4.592
46431W        W18157  40.259  41.930  14.781
46432W        W18158  15.189   3.784  14.449
46433W        W18159   5.865  39.393   1.505
46434W        W18160  11.077   1.947  11.244
46435W        W18161   3.937  28.574  12.577
46436W        W18162   9.666  15.807  13.492
46437W        W18163  29.010  41.298   1.191
46438W        W18164  17.817   8.629  11.581
46439W        W18165  28.794  41.953   2.456
46440W        W18166  37.677  30.135  13.293
46441W        W18167  31.135  37.198  11.114
46442W        W18168   0.234  15.788  12.005
46443W        W18169  34.394   4.007   0.778
46444W        W18170  41.255  16.135  12.052
46445W        W18171   3.308   7.474   5.129
46446W        W18172  43.770  35.052   3.631
46447W        W18173  39.684  29.088   1.865
46448W        W18174  36.347  13.687  10.633
46449W        W18175  32.039  19.171   2.136
46450W        W18176  29.704   9.652  11.131
46451W        W18177   5.317  15.802  14.267
46452W        W18178  28.646  22.816  13.378
46453W        W18179  16.365  30.330  11.556
46454W        W18180  26.042  40.406  12.473
46455W        W18181   4.515  43.088  14.741
46456W        W18182  22.916  35.832   2.510
46457W        W18183   8.849   5.642  10.928
46458W        W18184  32.084  11.409   0.746
46459W        W18185  28.660  39.278   2.935
46460W        W18186  27.091  27.819   0.287
46461W        W18187  39.655  24.221   0.720
46462W        W18188  36.006  12.639   4.094
46463W        W18189  38.126  33.986   2.838
46464W        W18190  10.345   7.808  12.890
46465W        W18191  21.160  19.546   1.703
46466W        W18192  13.345  37.183  14.261
46467W        W18193  11.376  34.471  14.918
46468W        W18194  42.479   3.824   2.651
46469W        W18195  23.452  26.868   4.556
46470W        W18196   1.796  18.043   1.118
46471W        W18197  40.155   2.299  14.848
46472W        W18198  27.921  33.839   1.680
46473W        W18199  16.001  21.112   1.716
46474W        W18200  17.594  21.989   4.674
46475W        W18201  20.461  36.966  13.368
46476W        W18202  43.960  38.856   3.649
46477W        W18203   9.742  17.142   4.756
46478W        W18204  30.408   4.510  12.436
46479W        W18205   7.179  36.155   5.023
46480W        W18206   0.742  43.474   3.427
46481W        W18207  35.405   1.960   1.693
46482W        W18208  21.226  10.702  14.302
46483W        W18209   4.890   9.428   0.877
46484W        W18210   7.392  32.843   3.214
46485W        W18211  34.908  15.899   4.974
46486W        W18212   6.053  30.543  10.614
46487W        W18213   0.007  30.006  12.560
46488W        W18214   1.402  16.261  13.952
46489W        W18215  43.257  42.581   2.026
46490W        W18216  26.530  40.101   0.938
46491W        W18217  16.494  17.405  13.011
46492W        W18218  28.105   9.800   1.276
46493W        W18219  33.860  31.188  10.580
46494W        W18220  32.724  39.579   4.201
46495W        W18221   4.209  19.160  12.958
46496W        W18222  15.173  16.806  12.372
46497W        W18223   0.275  27.712  12.103
46498W        W18224  21.743   6.277  14.765
46499W        W18225  42.847  20.195  10.769
46500W        W18226   1.248  29.054   3.854
46501W        W18227  12.588  12.180  14.462
46502W        W18228  16.666   7.238   1.720
46503W        W18229   4.857  28.230  11.443
46504W        W18230   7.253   4.020  11.462
46505W        W18231  37.873  37.406   3.679
46506W        W18232  23.048  24.802  14.803
46507W        W18233  14.098  20.407  14.465
46508W        W18234  42.055  33.819   2.195
46509W        W18235  19.318  24.220  11.334
46510W        W18236  21.152   6.397   1.325
46511W        W18237  30.958  14.698   2.170
46512W        W18238   2.932  38.377   0.042
46513W        W18239  24.499  42.566   1.937
46514W        W18240  42.853  17.486  12.986
46515W        W18241  13.097  30.598  12.557
46516W        W18242  32.612  16.148   2.187
46517W        W18243  33.498  34.627   4.489
46518W        W18244   5.926  27.614  12.726
46519W        W18245  18.661   6.417   2.226
46520W        W18246  11.634  14.300   1.455
46521W        W18247   5.927  33.026   0.300
46522W        W18248  28.438   0.022   2.299
46523W        W18249  39.557  20.974   2.217
46524W        W18250   1.393  21.429  12.546
46525W        W18251   3.440  17.234   4.353
46526W        W18252  14.499   8.529  14.477
46527W        W18253  15.584  26.921   3.725
46528W        W18254  41.306  39.892  12.616
46529W        W18255   7.194  35.947   4.357
46530W        W18256  13.137  20.835  12.884
46531W        W18257  41.527  18.692   2.230
46532W        W18258  42.881  43.783  12.609
46533W        W18259  21.606  30.148   1.721
46534W        W18260  10.730  15.147  13.823
46535W        W18261  24.460  24.286  12.001
46536W        W18262  26.064  21.000  11.916
46537W        W18263   3.080  31.858  14.515
46538W        W18264  23.491  26.076  14.492
46539W        W18265  34.018   7.502   3.166
46540W        W18266  41.328  21.083   4.163
46541W        W18267  40.293   7.943   0.960
46542W        W18268  36.601   0.751   4.575
46543W        W18269   3.828  41.039   3.418
46544W        W18270  37.557  25.598  13.192
46545W        W18271  31.112  41.933   5.104
46546W        W18272  43.466  14.167  10.781
46547W        W18273  17.225  31.407  11.539
46548W        W18274  31.331  11.153   3.638
46549W        W18275   9.951  17.178   0.644
46550W        W18276  25.237  21.113   4.987
46551W        W18277  33.929  10.459   2.178
46552W        W18278  17.920   1.206  14.552
46553W        W18279  22.173  26.291   2.728
46554W        W18280  38.437  12.691  11.186
46555W        W18281   1.802  44.202   4.566
46556W        W18282  14.281  27.680   1.737
46557W        W18283  30.036   6.471  14.238
46558W        W18284  33.205   2.843   3.588
46559W        W18285  10.283  44.702  13.162
46560W        W18286  15.757  29.303   1.243
46561W        W18287   2.502  27.611  11.579
46562W        W18288  13.557  38.957  11.388
46563W        W18289  14.255  41.478  13.211
46564W        W18290  29.911  40.031   4.126
46565W        W18291  30.441  24.262   0.393
46566W        W18292   9.802  40.498  10.485
46567W        W18293  16.737  17.820  13.173
46568W        W18294  37.477  32.843   0.694
46569W        W18295  34.403  13.597  14.786
46570W        W18296  28.331  19.650   0.485
46571W        W18297   1.456   7.185  14.897
46572W        W18298   9.983  30.127  10.495
46573W        W18299   8.271  43.250  14.111
46574W        W18300  36.878  14.437   2.266
46575W        W18301  28.419  33.942  12.861
46576W        W18302   2.801  37.575  14.765
46577W        W18303  11.542  19.016  13.297
46578W        W18304  37.535   8.859  10.439
46579W        W18305   7.968  26.121   4.746
46580W        W18306  10.420  18.642  12.110
46581W        W18307  27.573  41.967   3.856
46582W        W18308  39.059   3.861   1.404
46583W        W18309  19.748  10.678  12.950
46584W        W18310   7.888   6.757  12.397
46585W        W18311  10.583  32.976  10.366
46586W        W18312  16.494  13.294   0.471
46587W        W18313  19.213   9.206  13.126
46588W        W18314  16.080  18.108   3.627
46589W        W18315  30.315  22.127  13.543
46590W        W18316   0.937  30.661   0.223
46591W        W18317  21.237   7.666  14.980
46592W        W18318  31.499   2.338   3.073
46593W        W18319  12.106  41.587   3.468
46594W        W18320   4.221  12.646  13.172
46595W        W18321  36.046  12.840   4.592
46596W        W18322   5.681  28.734   3.054
46597W        W18323  44.384  16.924   0.362
46598W        W18324  13.656  43.925   0.999
46599W        W18325  40.705  43.278  13.029
46600W        W18326  19.661   8.792  10.639
46601W        W18327   0.017  22.000  10.582
46602W        W18328  26.629  24.970   2.782
46603W        W18329  32.372   4.223   0.276
46604W        W18330  17.760   7.629   0.108
46605W        W18331   9.538  36.201  10.701
46606W        W18332  29.646   4.614  14.437
46607W        W18333  10.891  35.293  10.414
46608W        W18334   7.960   9.790  12.471
46609W        W18335  21.095  30.706  11.781
46610W        W18336  14.981   8.763  14.460
46611W        W18337  36.286  23.637  14.004
46612W        W18338  30.017  13.759   2.329
46613W        W18339  30.333  33.515   1.735
46614W        W18340  10.704   7.574   2.627
46615W        W18341  17.186  21.060   1.924
46616W        W18342  10.896  19.119   1.412
46617W        W18343  41.008   9.601  12.076
46618W        W18344  25.424  33.192  13.016
46619W        W18345  29.202  12.799   2.549
46620W        W18346  38.281   3.990  11.866
46621W        W18347  16.794  10.219   3.126
46622W        W18348  34.448  37.784   0.272
46623W        W18349  27.718   8.824   2.748
46624W        W18350   5.878   2.596  11.035
46625W        W18351  24.205  40.518  13.721
46626W        W18352  12.753  11.416  11.557
46627W        W18353   2.792  23.988  12.054
46628W        W18354  28.165   6.949  12.907
46629W        W18355  18.843   5.302  14.733
46630W        W18356  31.944  34.504  11.225
46631W        W18357   1.238   5.289   0.240
46632W        W18358   7.072  31.165   1.894
46633W        W18359  22.250  24.089  12.907
46634W        W18360   2.795   5.202   2.853
46635W        W18361   2.743  43.555  13.897
46636W        W18362  19.320  43.243  10.552
46637W        W18363   7.704  29.878  13.897
46638W        W18364  13.414  28.577   4.042
46639W        W18365  39.832  21.236   2.854
46640W        W18366  26.669  13.083  12.972
46641W        W18367  12.227  19.041  12.434
46642W        W18368  31.539  38.783  14.390
46643W        W18369  34.950   3.900   4.051
46644W        W18370  31.944  13.359  10.910
46645W        W18371  15.747  29.947  12.250
46646W        W18372  22.514   4.736  13.974
46647W        W18373   3.322  26.049   2.305
46648W        W18374  21.747  20.741  11.638
46649W        W18375  29.612  27.070  14.889
46650W        W18376   3.775  32.489  10.937
46651W        W18377  40.112  40.927   0.411
46652W        W18378  28.150  24.552   4.571
46653W        W18379   3.390  32.913  12.429
46654W        W18380  27.663  23.611   0.180
46655W        W18381  34.838  37.796   3.407
46656W        W18382  33.605   6.433  14.916
46657W        W18383  36.987   4.747  14.780
46658W        W18384  43.339  36.781  10.814
46659W        W18385  24.620  28.704   0.883
46660W        W18386  16.831  26.472   2.662
46661W        W18387  36.882  28.806  14.022
46662W        W18388   5.138  30.706   3.871
46663W        W18389  39.050  16.749  10.605
46664W        W18390  13.279  27.788   1.237
46665W        W18391   4.666  13.435  14.323
46666W        W18392  40.824  33.403  10.620
46667W        W18393  39.838   8.812   4.066
46668W        W18394   2.463  13.107   1.350
46669W        W18395  26.934  13.029   0.926
46670W        W18396  27.394   2.689   4.155
46671W        W18397  30.543   6.420  10.508
46672W        W18398  30.699  31.652   1.974
46673W        W18399   6.874  41.990   0.363
46674W        W18400  19.238  18.175  11.182
46675W        W18401  32.519  27.036  10.646
46676W        W18402   3.712  25.064  14.043
46677W        W18403   4.834  17.583  13.377
46678W        W18404  12.717  24.937  11.132
46679W        W18405   7.367  15.097  11.936
46680W        W18406  22.447  26.681   1.739
46681W        W18407   1.780  22.211  11.589
46682W        W18408  39.020  43.984  10.721
46683W        W18409  17.694  15.792   1.936
46684W        W18410  17.860  15.212   2.314
46685W        W18411  14.176   7.113   4.112
46686W        W18412   2.120  26.711   3.295
46687W        W18413   5.735  26.762  13.892
46688W        W18414  33.753   9.260   2.565
46689W        W18415  38.501  17.668  14.562
46690W        W18416  35.973  10.653   2.877
46691W        W18417  44.026  35.928  13.559
46692W        W18418  25.608  33.389   1.721
46693W        W18419  33.816  21.971  14.372
46694W        W18420   0.977  12.833   0.448
46695W        W18421   1.230   5.185  13.454
46696W        W18422  16.652  16.164   3.371
46697W        W18423  25.895  19.051   3.709
46698W        W18424  40.393   4.977   0.869
46699W        W18425  43.121  29.409   1.642
46700W        W18426  27.965  10.290   4.129
46701W        W18427  11.576  29.963   4.183
46702W        W18428  41.455  31.649   3.587
46703W        W18429  32.167  34.098   3.694
46704W        W18430  41.855  25.061  12.061
46705W        W18431  44.362  40.608  13.675
46706W        W18432  29.600   0.488   0.314
46707W        W18433  16.725  32.398   0.172
46708W        W18434  30.591  18.414   0.252
46709W        W18435   1.505   1.492   1.207
46710W        W18436  15.522  32.489  11.093
46711W        W18437  22.199  39.505  13.196
46712W        W18438  30.015  43.018  14.595
46713W        W18439  40.826  24.025  14.767
46714W        W18440  20.196  21.420   4.549
46715W        W18441  39.302  36.349  12.080
46716W        W18442  39.149  44.655   5.038
46717W        W18443  16.211  31.507   4.671
46718W        W18444  35.555  18.550   3.357
46719W        W18445  17.744   6.248   0.819
46720W        W18446  38.412  28.969   0.218
46721W        W18447  42.425  31.018  11.704
46722W        W18448   2.178  23.673   4.181
46723W        W18449  16.295  11.187   0.788
46724W        W18450  22.983  33.632   1.684
46725W        W18451  15.784  39.076  12.085
46726W        W18452  17.428   2.399  10.708
46727W        W18453  33.640  27.052  13.349
46728W        W18454  27.700   8.206   4.422
46729W        W18455  16.880   9.604  11.493
46730W        W18456  12.151  33.305  12.893
46731W        W18457  29.548  14.812  14.357
46732W        W18458   7.346  25.701  14.449
46733W        W18459   3.833   0.886   0.822
46734W        W18460  18.696   9.407   1.350
46735W        W18461  39.856   5.332  10.734
46736W        W18462   3.892  44.295  12.473
46737W        W18463  44.026   5.618  14.249
46738W        W18464  35.100  24.602   0.036
46739W        W18465   0.949  26.591  12.072
46740W        W18466  13.138  20.209   1.263
46741W        W18467  32.568  32.471   0.026
46742W        W18468   5.823   6.743   2.175
46743W        W18469  41.807  17.614  11.978
46744W        W18470  30.082  42.299  11.626
46745W        W18471  19.840  12.218   0.771
46746W        W18472  42.111  40.191   2.216
46747W        W18473  18.703  19.338  14.557
46748W        W18474  44.067  27.244   0.395
46749W        W18475   3.407  21.771   0.420
46750W        W18476  19.494   3.833   4.623
46751W        W18477  28.626  24.453  11.130
46752W        W18478  19.317  21.605   4.733
46753W        W18479  36.191  44.267   0.494
46754W        W18480  27.027  23.224   4.310
46755W        W18481  37.520  26.515   1.871
46756W        W18482  16.043  13.470  11.558
46757W        W18483  14.272   4.934  11.936
46758W        W18484   1.506  26.042  11.186
46759W        W18485  38.914  30.593   1.369
46760W        W18486  42.358  20.050  10.645
46761W        W18487  20.498  30.925   1.446
46762W        W18488  27.192   8.716  13.353
46763W        W18489  30.438  28.126  12.968
46764W        W18490  32.818  35.884   4.438
46765W        W18491  33.787  36.189   0.382
46766W        W18492  38.624   2.618   4.215
46767W        W18493  41.795  14.308  12.005
46768W        W18494  43.582  20.010   0.794
46769W        W18495  31.853  17.643   0.837
46770W        W18496  11.162  36.322   1.433
46771W        W18497  44.830   7.820   1.831
46772W        W18498  39.064   8.766   1.238
46773W        W18499  29.422  12.339  12.515
46774W        W18500  19.249  30.343   1.827
46775W        W18501   9.159  44.700   3.122
46776W        W18502  28.681  42.782  11.947
46777W        W18503  17.129  26.096   4.797
46778W        W18504  26.284  28.046   3.843
46779W        W18505  40.995  33.923  10.559
46780W        W18506  22.112  27.091   2.215
46781W        W18507  44.089   8.740  12.900
46782W        W18508  25.493  40.570   3.764
46783W        W18509  42.833  29.089  12.324
46784W        W18510   7.238  23.426  14.713
46785W        W18511   1.773  13.201   3.215
46786W        W18512  23.191  21.307  14.959
46787W        W18513  44.678  16.631  11.622
46788W        W18514  42.015   0.940   0.978
46789W        W18515  12.699  10.349   0.873
46790W        W18516  13.103  19.570   4.586
46791W        W18517  37.879   3.298   3.337
46792W        W18518  34.665  30.475  10.533
46793W        W18519   4.215  10.815  14.997
46794W        W18520  28.250  11.308  14.045
46795W        W18521  12.812  13.655   0.845
46796W        W18522  28.045  21.213  10.789
46797W        W18523   3.452   3.151   1.201
46798W        W18524  17.545  42.966   2.734
46799W        W18525  28.926  25.068   4.065
46800W        W18526   3.309  41.813   0.769
46801W        W18527  27.384  33.584   2.913
46802W        W18528  38.633  44.312   1.067
46803W        W18529  22.718  22.286   4.070
46804W        W18530  36.214  41.974  11.483
46805W        W18531  35.000  22.252  11.832
46806W        W18532  14.999  37.072   0.884
46807W        W18533  41.826  34.701  11.133
46808W        W18534  26.860  34.637  14.005
46809W        W18535  29.046  43.040   1.451
46810W        W18536  20.602  42.991  10.727
46811W        W18537  12.621   4.722   2.348
46812W        W18538   0.497  33.364  11.549
46813W        W18539  20.504  30.912  14.040
46814W        W18540  40.352  24.104  14.571
46815W        W18541  17.348  14.661  12.946
46816W        W18542  38.492  35.947  13.853
46817W        W18543  21.256  30.643  11.309
46818W        W18544  34.961   8.258  13.485
46819W        W18545  37.248  26.577  12.851
46820W        W18546  32.069  32.162   0.914
46821W        W18547   7.709   3.801  11.543
46822W        W18548  44.892  27.444  13.857
46823W        W18549   7.262  17.479  12.040
46824W        W18550  20.367   0.409   2.898
46825W        W18551  44.853  38.050  11.192
46826W        W18552  29.083   2.507   0.890
46827W        W18553  26.690   9.343   1.442
46828W        W18554   0.833  41.488   3.163
46829W        W18555  26.016  25.767  10.683
46830W        W18556  32.672   0.477   1.909
46831W        W18557  24.531  44.403   1.864
46832W        W18558  19.657  23.228   4.387
46833W        W18559  19.429  37.428  11.050
46834W        W18560  27.707  33.649   4.801
46835W        W18561   9.362  43.058   4.325
46836W        W18562  10.858  13.169   0.442
46837W        W18563  35.388  16.434  12.012
46838W        W18564  26.977  33.343   2.712
46839W        W18565   8.686  28.397   3.197
46840W        W18566  41.909  19.786   0.309
46841W        W18567  15.694   1.719  14.877
46842W        W18568   1.104  16.661  13.777
46843W        W18569  38.886  29.629   1.443
46844W        W18570  27.574   4.867  11.639
46845W        W18571  35.938  28.953  10.749
46846W        W18572   9.277  12.115  11.725
46847W        W18573  19.953  36.599   4.280
46848W        W18574  14.663  10.851  13.595
46849W        W18575  22.260  25.887  13.059
46850W        W18576  15.209  21.987  14.008
46851W        W18577  19.031  12.674   0.870
46852W        W18578  40.890  44.234  14.475
46853W        W18579  23.978   6.868  14.559
46854W        W18580  30.946  39.286   3.725
46855W        W18581   8.128  29.043  12.595
46856W        W18582  38.833   6.756  11.481
46857W        W18583  27.171  17.854   4.040
46858W        W18584   0.958  21.637   3.218
46859W        W18585  36.431  42.961  11.223
46860W        W18586  41.751   0.742  10.770
46861W        W18587  31.681   4.694  12.050
46862W        W18588  12.266  11.307   2.840
46863W        W18589  41.427   2.226   3.603
46864W        W18590  17.162  44.540   3.173
46865W        W18591  41.965   1.490   3.193
46866W        W18592  13.073   9.949   0.890
46867W        W18593  38.477  25.578  13.265
46868W        W18594  21.226  36.084  10.337
46869W        W18595  20.344  12.874   3.148
46870W        W18596  18.994   7.160   4.572
46871W        W18597  22.686   9.124   3.198
46872W        W18598   9.352  38.294  12.028
46873W        W18599  39.514   3.803   2.630
46874W        W18600  33.029  41.075  13.424
46875W        W18601  14.867  36.053  13.968
46876W        W18602   7.112  12.426   4.938
46877W        W18603  33.961  11.055  10.663
46878W        W18604  33.825  32.920  10.739
46879W        W18605  17.946  16.103  14.826
46880W        W18606   0.371  15.666  10.773
46881W        W18607  44.771   8.811   0.356
46882W        W18608  20.329  42.490   2.590
46883W        W18609  13.036  18.944  11.429
46884W        W18610   8.820  42.514  11.937
46885W        W18611  20.787  36.865  14.291
46886W        W18612   1.263  43.411   4.689
46887W        W18613  27.663  44.924  12.901
46888W        W18614  28.119  16.024  11.657
46889W        W18615  43.798  18.201   4.504
46890W        W18616  25.140  38.953   3.648
46891W        W18617  34.320   2.930  13.452
46892W        W18618  11.236   1.001   1.239
46893W        W18619  23.296  14.544  13.651
46894W        W18620  11.795  24.860  11.177
46895W        W18621   8.359  17.833   4.748
46896W        W18622  36.818  23.128  12.618
46897W        W18623  16.873  34.695  11.911
46898W        W18624  15.223  30.320  12.510
46899W        W18625  25.862  30.872   4.219
46900W        W18626  33.879   6.465   4.161
46901W        W18627   2.012  18.127  12.446
46902W        W18628   2.392  33.922  12.978
46903W        W18629  38.114  27.974  13.611
46904W        W18630  15.361  11.475   0.030
46905W        W18631   5.226  16.232   3.595
46906W        W18632  39.191  19.735   1.636
46907W        W18633   3.178   2.431   3.219
46908W        W18634  14.463  37.643   5.016
46909W        W18635  36.975  31.789   3.996
46910W        W18636  10.037  15.575  11.217
46911W        W18637  31.605   0.712  13.393
46912W        W18638  31.163  30.274  11.678
46913W        W18639  23.781  12.638  11.282
46914W        W18640  25.931  41.577   0.243
46915W        W18641  28.058  11.061  10.701
46916W        W18642  10.083  40.834  11.942
46917W        W18643  32.127  28.698   0.763
46918W        W18644  25.099   1.573   4.685
46919W        W18645  43.044  20.135  12.064
46920W        W18646  25.548   6.834  13.581
46921W        W18647  12.521  16.053  14.636
46922W        W18648  18.820   6.680  12.465
46923W        W18649   8.288   0.780   0.842
46924W        W18650   5.123  18.981  12.014
46925W        W18651  30.589  11.745  12.909
46926W        W18652  33.155  39.306  13.438
46927W        W18653  42.462   4.294  11.929
46928W        W18654  11.827  21.702  13.489
46929W        W18655  18.684  18.434   2.294
46930W        W18656   0.192  11.475   2.168
46931W        W18657  19.103   2.304   4.351
46932W        W18658  37.629  12.692   2.802
46933W        W18659  10.379  28.956  10.659
46934W        W18660   8.345  42.934  12.841
46935W        W18661  26.437  40.896  12.158
46936W        W18662  23.909  34.135  13.031
46937W        W18663  34.100  26.925  13.079
46938W        W18664  41.380  19.158   3.149
46939W        W18665  40.940  22.141  12.159
46940W        W18666  31.112  20.817  10.853
46941W        W18667  22.936   8.289   1.058
46942W        W18668   2.914  42.198  11.150
46943W        W18669  27.920  10.615  11.964
46944W        W18670  43.903  22.528  13.292
46945W        W18671  38.046  15.849   2.777
46946W        W18672  21.028  38.959   2.293
46947W        W18673  41.600  11.638  11.902
46948W        W18674  14.759  18.740  14.867
46949W        W18675  14.598  16.168   3.543
46950W        W18676   5.741   9.860  13.115
46951W        W18677  22.953  15.082   3.181
46952W        W18678  13.144  39.948   2.704
46953W        W18679  20.484  12.529  12.110
46954W        W18680   5.302   2.331  11.581
46955W        W18681  17.060  13.403  10.760
46956W        W18682  32.881  18.728   4.736
46957W        W18683  23.587  29.610   0.478
46958W        W18684  18.022   7.483   2.250
46959W        W18685  25.915   5.545  13.228
46960W        W18686  22.660  28.821  13.584
46961W        W18687  31.338  30.213   4.320
46962W        W18688  22.407   6.725  12.693
46963W        W18689  37.048  39.252  12.079
46964W        W18690  12.290  15.555  11.635
46965W        W18691  25.926  23.533   3.387
46966W        W18692  25.842  14.095  13.904
46967W        W18693   2.261   5.379  13.517
46968W        W18694  36.000  32.006   4.287
46969W        W18695  43.606   1.990   4.259
46970W        W18696  23.464  44.365   3.262
46971W        W18697   7.878   2.870  13.887
46972W        W18698  34.840  35.927   2.487
46973W        W18699  12.819  37.250  14.949
46974W        W18700  11.219  32.880   1.780
46975W        W18701   7.352  22.498   3.724
46976W        W18702   4.409  41.209  12.992
46977W        W18703   8.782   3.497  10.361
46978W        W18704  21.493  30.880  13.792
46979W        W18705  43.065  12.893   0.449
46980W        W18706  29.031  41.503   0.318
46981W        W18707  10.844  22.423  10.591
46982W        W18708  41.418   6.467  10.635
46983W        W18709  11.199  26.100   3.648
46984W        W18710  16.420  21.234   4.495
46985W        W18711  34.790  18.335  13.395
46986W        W18712  30.296  36.882   1.789
46987W        W18713  39.855   0.019   0.905
46988W        W18714  24.999  29.245   3.708
46989W        W18715   1.019  17.379  12.048
46990W        W18716  20.029  32.010  10.780
46991W        W18717  21.440  21.616   0.699
46992W        W18718   3.888  32.932  14.050
46993W        W18719  18.355   9.277   2.790
46994W        W18720   8.591  41.407   0.535
46995W        W18721  33.105   1.196   3.322
46996W        W18722  22.320  31.031  13.446
46997W        W18723  42.729  23.628   2.190
46998W        W18724   1.974  36.603  12.473
46999W        W18725  42.075  39.091   3.817
47000W        W18726  14.243   4.977  11.428
47001W        W18727  42.695   7.794  10.616
47002W        W18728  35.592  11.844   4.592
47003W        W18729  27.977  10.728  12.467
47004W        W18730  38.362  10.735  14.322
47005W        W18731  30.526   0.437   3.886
47006W        W18732  44.979  21.264  11.101
47007W        W18733   3.707  23.733  14.013
47008W        W18734  25.241  19.211  14.340
47009W        W18735  28.480   8.389  12.165
47010W        W18736   6.036  35.352   4.841
47011W        W18737  12.144   3.633   1.261
47012W        W18738  11.778  39.051   3.301
47013W        W18739  22.078   9.406   4.486
47014W        W18740  37.168  34.045  14.462
47015W        W18741  25.182  24.448  13.006
47016W        W18742  20.759  37.868  14.942
47017W        W18743  13.952  25.714  10.832
47018W        W18744  36.804  13.207   0.937
47019W        W18745  25.962  18.507  11.460
47020W        W18746  32.638  16.765  11.890
47021W        W18747  11.231   7.756  13.316
47022W        W18748  39.101  21.179   2.374
47023W        W18749  39.393  41.493   2.478
47024W        W18750  40.286  40.247  14.055
47025W        W18751  38.477   1.656   3.392
47026W        W18752  31.526  10.939  14.245
47027W        W18753  27.609  28.613  10.618
47028W        W18754   8.712  15.615   3.607
47029W        W18755  36.046  22.682  12.568
47030W        W18756  11.259  14.059   1.117
47031W        W18757   0.035  17.754  13.333
47032W        W18758  27.036  13.851   0.336
47033W        W18759  30.683  23.054  11.607
47034W        W18760  17.791  33.459  11.485
47035W        W18761   0.975   7.176   2.186
47036W        W18762  32.626  12.640   4.512
47037W        W18763  26.899   8.091   2.640
47038W        W18764   0.206  41.885   2.944
47039W        W18765  16.468  23.696   1.152
47040W        W18766  30.548   5.972  14.007
47041W        W18767  29.438  10.744   3.145
47042W        W18768  27.606  40.994   3.147
47043W        W18769  17.383  34.959   1.377
47044W        W18770  14.607   4.390  10.377
47045W        W18771  42.551   5.639   1.901
47046W        W18772  31.623  37.550   3.747
47047W        W18773  41.119  24.732  11.256
47048W        W18774   1.278  11.117   3.848
47049W        W18775  27.366  33.348  10.960
47050W        W18776  18.098   7.308   3.619
47051W        W18777  32.073  25.457  14.465
47052W        W18778  14.637  22.497  11.227
47053W        W18779   1.699  28.141   3.675
47054W        W18780  31.899  12.856  10.921
47055W        W18781  11.050  39.055  11.052
47056W        W18782  18.238   9.645  13.352
47057W        W18783   9.550  26.049  11.524
47058W        W18784  30.205  20.141   0.721
47059W        W18785  11.573  23.402  11.941
47060W        W18786  19.607  34.389  12.431
47061W        W18787  26.022  14.580   0.040
47062W        W18788  19.168   0.142  11.663
47063W        W18789   1.764  30.385   4.838
47064W        W18790  31.626  35.911   0.062
47065W        W18791  26.275  41.909   5.121
47066W        W18792  44.905   2.370   1.797
47067W        W18793   1.877   8.323  13.530
47068W        W18794  42.489  35.468   0.167
47069W        W18795  13.869  19.294  14.882
47070W        W18796  42.543  12.722   1.274
47071W        W18797  40.043  25.081   0.990
47072W        W18798  37.452   2.446  12.914
47073W        W18799  35.930  26.504  11.498
47074W        W18800  23.041  28.106   5.508
47075W        W18801  35.064   7.929  12.123
47076W        W18802  11.531   2.015   2.587
47077W        W18803  43.537   9.404   2.747
47078W        W18804  13.330  12.786   1.898
47079W        W18805  27.053  10.199   3.778
47080W        W18806   2.165  33.107  13.892
47081W        W18807   5.180  33.119   3.806
47082W        W18808  22.193  20.129   4.232
47083W        W18809  43.295  30.004  14.416
47084W        W18810  44.338   3.954  11.627
47085W        W18811  39.242  20.319  11.914
47086W        W18812  29.095  25.044   3.541
47087W        W18813  31.989   0.310   1.219
47088W        W18814  37.778  16.232   3.070
47089W        W18815  31.566  32.019  12.947
47090W        W18816  21.642  36.230  10.650
47091W        W18817   7.904  34.574   3.113
47092W        W18818  23.662   0.715   4.969
47093W        W18819   8.426   9.445   0.788
47094W        W18820  27.992  37.840   2.652
47095W        W18821  30.117  39.164   0.781
47096W        W18822  39.896  31.586  12.101
47097W        W18823  15.333  39.321  11.437
47098W        W18824  33.186  29.437   3.240
47099W        W18825   7.396  30.749   2.221
47100W        W18826  21.507  11.256  10.711
47101W        W18827  32.494  28.065  13.342
47102W        W18828   4.443  17.231  13.385
47103W        W18829  30.502  23.279  14.917
47104W        W18830  43.943  10.183  10.323
47105W        W18831   3.354  16.751  14.392
47106W        W18832  22.798  18.593  13.570
47107W        W18833  18.226   3.719  12.317
47108W        W18834  42.116  23.604   3.685
47109W        W18835  16.670  29.186   1.198
47110W        W18836  17.068  39.049  10.440
47111W        W18837  27.512  27.980   1.641
47112W        W18838   5.303   3.338   4.583
47113W        W18839  35.599  18.267   3.801
47114W        W18840  42.954  19.116   3.919
47115W        W18841  10.754   4.833   2.449
47116W        W18842  19.701  23.520  11.469
47117W        W18843  22.960  31.992   4.146
47118W        W18844  25.354  29.953   3.280
47119W        W18845  23.032   1.769  14.301
47120W        W18846  25.295  25.564  14.414
47121W        W18847  42.599  40.437  12.483
47122W        W18848   1.780   0.575   4.442
47123W        W18849   2.238  34.467   1.791
47124W        W18850   1.696  19.529  12.394
47125W        W18851  40.298  15.089   0.700
47126W        W18852   6.222  29.509   1.872
47127W        W18853  33.439  11.364  13.972
47128W        W18854  38.652  37.294   2.358
47129W        W18855  35.537  38.572  13.466
47130W        W18856  19.249  40.252  13.374
47131W        W18857  14.247   7.417   3.705
47132W        W18858   0.400  11.796  12.929
47133W        W18859  34.047  38.297  12.419
47134W        W18860  25.688  39.703   2.631
47135W        W18861  43.281  30.251   4.208
47136W        W18862  13.440  31.063  14.948
47137W        W18863   1.762  16.314   2.697
47138W        W18864  14.870  21.705  10.658
47139W        W18865  38.011  37.044  11.928
47140W        W18866   2.649  39.194  13.297
47141W        W18867  39.586  24.177   2.310
47142W        W18868  29.605   2.451  14.334
47143W        W18869  35.532  27.700  14.038
47144W        W18870  17.819   0.268  11.546
47145W        W18871   4.177  25.134   3.810
47146W        W18872  23.300  10.059   0.392
47147W        W18873   4.860  30.876  11.979
47148W        W18874  31.523   8.134  13.670
47149W        W18875  19.165   5.803  13.906
47150W        W18876   1.262  28.607   4.788
47151W        W18877  36.391  16.322   3.680
47152W        W18878   5.985  25.697   0.412
47153W        W18879   6.771  38.854  14.402
47154W        W18880  38.887   2.807   2.857
47155W        W18881   1.029  35.917  12.015
47156W        W18882  24.101  25.633   4.528
47157W        W18883  35.614  43.836  13.026
47158W        W18884  36.433   0.027  12.121
47159W        W18885  20.533  39.519  12.442
47160W        W18886   9.437  30.095  11.607
47161W        W18887   6.330  18.149   2.391
47162W        W18888   8.818  26.443   0.844
47163W        W18889   6.836  35.089  10.974
47164W        W18890   9.410  20.969  14.293
47165W        W18891  12.348   7.412   2.973
47166W        W18892   0.211  39.846   0.295
47167W        W18893   8.795  14.721   3.711
47168W        W18894   4.986   0.846  12.801
47169W        W18895  27.985  39.110  12.956
47170W        W18896   5.428  43.669   3.310
47171W        W18897  20.628  15.972  14.510
47172W        W18898   3.413   4.808  13.291
47173W        W18899  27.298   1.947  10.633
47174W        W18900   7.262  10.640   3.492
47175W        W18901  40.021  14.186  12.838
47176W        W18902   1.443   2.147   0.457
47177W        W18903  14.477  25.413  13.471
47178W        W18904  43.361  44.289   4.678
47179W        W18905   9.752  27.664   3.123
47180W        W18906  41.370  26.930   3.249
47181W        W18907  41.490  14.417  10.624
47182W        W18908   7.473  23.763   9.984
47183W        W18909  21.286  20.578  13.408
47184W        W18910  10.876  19.548   0.837
47185W        W18911  35.287  31.060  14.052
47186W        W18912   8.387   8.669  14.897
47187W        W18913   8.143  19.558   4.964
47188W        W18914   5.428  44.269  14.021
47189W        W18915   0.844  25.855  12.537
47190W        W18916  43.824  32.375  12.097
47191W        W18917  21.887  13.466   0.537
47192W        W18918  33.981  23.802  13.884
47193W        W18919  44.472  17.198  12.435
47194W        W18920  36.892   5.809  10.692
47195W        W18921  35.981  31.646  11.599
47196W        W18922  22.996  33.940  10.382
47197W        W18923  31.173  31.991  10.681
47198W        W18924   3.432  25.614   0.372
47199W        W18925  35.385  18.989  11.246
47200W        W18926  37.772  12.124  13.600
47201W        W18927  20.959  41.540  10.053
47202W        W18928  22.296   0.057   4.712
47203W        W18929  24.630  43.938   0.404
47204W        W18930  38.325  43.886  11.034
47205W        W18931  15.369  16.487  13.204
47206W        W18932   8.673  25.207  10.534
47207W        W18933  39.418  43.793   1.866
47208W        W18934   3.372   0.732   4.653
47209W        W18935  10.111  10.874   1.563
47210W        W18936  41.682  34.888  12.926
47211W        W18937  22.496  32.240  13.231
47212W        W18938  10.573  16.091   2.366
47213W        W18939  33.912  16.342  10.960
47214W        W18940  18.845   3.322   1.817
47215W        W18941   8.576  14.767   2.332
47216W        W18942   9.132  20.908   9.948
47217W        W18943  13.397  11.423  14.915
47218W        W18944  35.523  27.878  12.009
47219W        W18945  42.229  29.107  11.097
47220W        W18946  38.781  39.843   3.795
47221W        W18947  41.414  15.321  11.019
47222W        W18948  35.628   6.022  13.849
47223W        W18949  38.330  10.293  12.375
47224W        W18950  19.625  22.749   4.565
47225W        W18951  15.950  28.911   9.957
47226W        W18952   6.626  14.480   0.007
47227W        W18953  43.953   4.780  14.852
47228W        W18954  24.260   5.796   0.434
47229W        W18955  15.577  23.300   4.988
47230W        W18956  43.397   2.243  11.885
47231W        W18957   2.994  40.544  13.046
47232W        W18958  31.132  21.724   4.133
47233W        W18959  31.157   6.660  10.936
47234W        W18960  36.349  44.287   1.488
47235W        W18961   6.427  10.937   4.148
47236W        W18962   4.548   6.819   4.603
47237W        W18963  42.038   6.522   2.852
47238W        W18964   7.153  17.317   0.501
47239W        W18965  22.518   5.696  14.962
47240W        W18966   5.359  31.190  14.547
47241W        W18967  13.449  29.084  13.839
47242W        W18968  39.548   7.375  14.824
47243W        W18969  28.013  26.993  10.704
47244W        W18970  17.867   0.501  11.074
47245W        W18971  38.956  25.413  12.522
47246W        W18972  39.853  38.830   1.859
47247W        W18973  15.482  15.664  11.176
47248W        W18974  18.317  29.840   4.162
47249W        W18975  40.516  34.595   0.458
47250W        W18976  35.464  36.733  12.878
47251W        W18977  22.585  13.859   1.507
47252W        W18978  38.442  12.872  13.880
47253W        W18979  31.016   8.799  12.343
47254W        W18980   9.264   0.199  11.767
47255W        W18981  25.011  23.645  14.382
47256W        W18982  21.467  17.496  11.065
47257W        W18983  29.693  26.723   3.736
47258W        W18984  11.641   4.867  13.057
47259W        W18985  18.663   2.916   2.148
47260W        W18986   2.274  41.533   0.219
47261W        W18987  25.590  16.253  11.561
47262W        W18988  19.269  43.835  12.766
47263W        W18989  23.996  41.293  14.729
47264W        W18990  43.037   3.359  11.702
47265W        W18991  37.346  26.483   2.801
47266W        W18992  37.790  35.816   1.180
47267W        W18993  22.100   2.735  12.141
47268W        W18994  25.270  31.430  13.991
47269W        W18995  43.000  16.327   1.806
47270W        W18996  41.402  27.318  11.638
47271W        W18997   0.304  41.535  13.712
47272W        W18998  24.164  18.040   3.628
47273W        W18999  14.327  19.031  14.889
47274W        W19000  24.437  43.851   3.590
47275W        W19001  33.450  26.478   0.410
47276W        W19002  16.376  21.594   3.108
47277W        W19003  29.495  17.120   1.741
47278W        W19004  27.746   0.769  11.617
47279W        W19005  17.396  10.658   2.791
47280W        W19006  16.604  20.847   3.713
47281W        W19007  16.996   4.281  11.546
47282W        W19008  23.058  38.059   2.299
47283W        W19009  29.383  40.636   3.068
47284W        W19010  35.093   3.759  12.251
47285W        W19011  15.313  23.738   2.897
47286W        W19012   0.702  33.997   3.657
47287W        W19013  30.613  40.282  12.473
47288W        W19014  25.521  19.142  10.760
47289W        W19015  30.586   6.314  11.018
47290W        W19016   3.516  19.325   0.559
47291W        W19017  13.530  20.011   0.271
47292W        W19018  34.485  34.984   1.703
47293W        W19019  44.454   4.896   2.331
47294W        W19020  37.341  28.089   4.546
47295W        W19021  18.475  14.305  12.263
47296W        W19022  21.146  15.380  14.114
47297W        W19023  18.049  23.158   0.222
47298W        W19024  31.085  26.273  14.601
47299W        W19025  44.733  11.380   4.639
47300W        W19026  20.122  33.946  12.970
47301W        W19027   0.566  16.059  13.360
47302W        W19028  39.305  15.338  13.499
47303W        W19029   3.836  28.150   2.727
47304W        W19030  14.739  13.271   0.979
47305W        W19031  35.636  24.923   0.959
47306W        W19032  16.120  29.654  11.040
47307W        W19033  42.851  44.830   3.136
47308W        W19034  42.354   4.388  10.400
47309W        W19035  37.459  25.454  14.242
47310W        W19036   4.904  23.260   2.874
47311W        W19037  25.909  36.970   4.153
47312W        W19038   7.688   0.810  14.473
47313W        W19039  42.804  37.340  13.307
47314W        W19040  35.250  40.426   3.705
47315W        W19041  11.098   8.845   1.894
47316W        W19042  37.024  13.122   1.907
47317W        W19043  19.780  12.572  10.757
47318W        W19044  28.406  44.785  14.211
47319W        W19045  32.378  43.111   1.405
47320W        W19046  11.665  28.187   2.658
47321W        W19047  32.687   5.211  12.482
47322W        W19048   1.293  12.772  14.878
47323W        W19049   0.530   7.736   0.030
47324W        W19050  35.410  13.195   3.685
47325W        W19051  28.960  41.393  14.414
47326W        W19052  43.420   8.430  12.504
47327W        W19053  22.576   3.190   3.539
47328W        W19054  18.845   6.821   3.678
47329W        W19055  41.061  22.727  14.340
47330W        W19056  43.986  25.174  11.996
47331W        W19057  22.687  26.335   2.653
47332W        W19058  33.201  40.587  13.352
47333W        W19059  16.907  27.220  12.108
47334W        W19060  44.722   5.644   9.921
47335W        W19061  25.794  35.233   1.841
47336W        W19062   5.683  35.816  11.362
47337W        W19063  43.290  13.707   4.130
47338W        W19064   5.793   2.568   4.866
47339W        W19065   4.995  40.815  11.983
47340W        W19066  26.598  44.443  14.813
47341W        W19067  10.783  38.969  10.514
47342W        W19068   7.957  36.003  12.831
47343W        W19069  33.786  20.785  14.435
47344W        W19070  27.060   5.452   4.965
47345W        W19071  31.062  40.029  12.444
47346W        W19072  28.733  29.144  12.817
47347W        W19073  39.851  30.164  13.345
47348W        W19074  35.124  23.426  10.227
47349W        W19075  43.268  30.875  10.282
47350W        W19076  36.062  11.544   1.813
47351W        W19077  20.475   0.354   3.933
47352W        W19078   9.210   9.061   1.849
47353W        W19079  17.843  25.512  13.913
47354W        W19080  22.698  11.684  14.912
47355W        W19081  22.963   1.136   3.103
47356W        W19082  16.045  20.225  13.528
47357W        W19083  38.979  32.061   4.558
47358W        W19084   7.756  38.711   4.930
47359W        W19085  37.388  28.591   2.740
47360W        W19086  42.342  28.728  10.711
47361W        W19087  15.827   6.517   2.675
47362W        W19088   2.547  31.679  13.918
47363W        W19089  34.563  38.860  12.834
47364W        W19090  41.068  23.467  11.122
47365W        W19091  27.216   5.167   2.660
47366W        W19092  23.034  39.870   0.456
47367W        W19093  31.449  27.973  14.906
47368W        W19094   8.947  35.637   4.217
47369W        W19095  11.887   9.799   4.147
47370W        W19096  10.975  17.672  10.662
47371W        W19097  35.909  25.589   3.082
47372W        W19098  26.902  18.577   2.002
47373W        W19099  33.516  11.808   0.515
47374W        W19100  41.004  15.279  14.337
47375W        W19101  36.454  12.450   0.139
47376W        W19102  25.601   4.849   4.972
47377W        W19103  42.461   8.266  10.666
47378W        W19104   5.250   3.076   2.768
47379W        W19105   0.677  21.178  12.013
47380W        W19106  29.888  16.245   2.269
47381W        W19107  22.376  29.008  13.995
47382W        W19108  39.172  17.424  13.981
47383W        W19109  29.429  35.844   0.178
47384W        W19110  20.087  42.640  14.967
47385W        W19111  13.195  40.369  13.868
47386W        W19112  14.969  17.210   0.229
47387W        W19113   1.798  28.353  11.185
47388W        W19114   8.715  19.556   1.431
47389W        W19115   1.943  16.543   4.692
47390W        W19116  42.390  14.862   1.508
47391W        W19117  18.979  30.202  13.661
47392W        W19118  22.026  16.116  12.766
47393W        W19119   7.654  26.965   4.411
47394W        W19120  15.104  20.300  12.480
47395W        W19121  44.452  21.395   3.582
47396W        W19122  21.523  19.360   3.985
47397W        W19123  29.991  26.306   3.515
47398W        W19124  10.664   3.855  11.186
47399W        W19125  10.714  29.652   4.518
47400W        W19126  44.865  21.702  12.444
47401W        W19127  42.924  20.174   2.522
47402W        W19128  34.843   4.658   4.277
47403W        W19129  42.921   3.477  13.961
47404W        W19130  30.032   5.712  12.917
47405W        W19131  25.428   0.913  12.464
47406W        W19132   5.834  36.436   2.234
47407W        W19133  24.885  19.072  12.079
47408W        W19134  14.380  21.262   3.659
47409W        W19135   2.151  24.455   3.016
47410W        W19136  20.425  21.618  14.892
47411W        W19137  36.089  40.909   0.266
47412W        W19138  39.824  11.840  14.029
47413W        W19139   7.769  18.645  14.938
47414W        W19140   7.425  29.521  10.830
47415W        W19141  33.479  25.445   1.387
47416W        W19142   8.335   8.505  13.635
47417W        W19143  33.638  35.374  13.991
47418W        W19144  43.809  39.037  10.718
47419W        W19145  26.172   5.351   3.911
47420W        W19146  37.988  18.005  11.653
47421W        W19147   1.322  33.859   0.404
47422W        W19148  17.342  25.047  10.711
47423W        W19149  39.269  10.322   1.682
47424W        W19150  21.658  33.120  14.947
47425W        W19151  10.333  20.508   4.135
47426W        W19152  15.489  20.999   4.535
47427W        W19153   4.354   7.984   4.430
47428W        W19154  28.584  21.134  10.763
47429W        W19155  27.951  16.317  13.378
47430W        W19156  16.383  28.199   2.738
47431W        W19157  17.876  25.039  11.508
47432W        W19158  34.505  21.087  14.546
47433W        W19159  44.403   1.454  13.034
47434W        W19160  15.537  24.207  10.506
47435W        W19161   1.970  24.497   0.396
47436W        W19162  21.243  10.168   0.583
47437W        W19163  14.043  24.257  14.423
47438W        W19164  40.587  26.513   4.135
47439W        W19165  16.118  14.145  13.985
47440W        W19166  42.624   4.818  13.362
47441W        W19167  17.350  28.193   0.974
47442W        W19168   3.471  35.459   0.271
47443W        W19169   3.664  34.014   0.347
47444W        W19170  27.987   1.452   4.972
47445W        W19171  12.521   9.735  14.646
47446W        W19172   8.649  21.275   0.679
47447W        W19173  15.779  11.850  13.896
47448W        W19174  10.435  30.132   2.254
47449W        W19175   7.761   2.357  11.616
47450W        W19176  12.511  35.216  12.884
47451W        W19177   4.639   4.888  12.648
47452W        W19178  21.692  26.410  11.948
47453W        W19179   4.776  28.211  12.833
47454W        W19180  26.720   8.668  13.770
47455W        W19181  21.161  13.152  14.521
47456W        W19182  29.986  31.131  11.552
47457W        W19183  44.537  14.021  11.662
47458W        W19184  12.714  43.514   1.587
47459W        W19185  19.679  10.801  11.050
47460W        W19186  27.444  17.199   1.997
47461W        W19187  38.483  40.406  13.323
47462W        W19188  39.007  14.207   4.972
47463W        W19189  36.134  33.573   5.048
47464W        W19190  16.341  43.426   4.613
47465W        W19191  35.586  10.151   2.142
47466W        W19192   6.123   2.217   2.206
47467W        W19193  26.423  35.942   4.654
47468W        W19194  10.147  24.178  14.700
47469W        W19195  27.093  11.554   0.004
47470W        W19196  15.423   5.103  11.367
47471W        W19197  19.784  31.664  11.654
47472W        W19198   3.499   6.619   4.542
47473W        W19199  28.402   7.277  14.892
47474W        W19200  14.765  22.422  11.767
47475W        W19201  13.316  29.690   3.155
47476W        W19202  12.657  30.510  13.865
47477W        W19203  37.821  34.302  12.331
47478W        W19204  13.681  23.189   3.913
47479W        W19205  43.714   9.286   4.194
47480W        W19206  10.360  40.948  13.868
47481W        W19207  25.239  37.411  14.845
47482W        W19208  29.453   8.667   0.958
47483W        W19209  32.062  15.290   3.000
47484W        W19210  18.514  17.101  14.987
47485W        W19211  31.010  22.686  12.550
47486W        W19212  26.238  21.585  11.162
47487W        W19213  38.015  32.590  13.399
47488W        W19214   7.605   7.802   1.704
47489W        W19215   6.142  41.302   0.992
47490W        W19216  19.043  10.339   0.185
47491W        W19217  38.835  38.363  12.929
47492W        W19218  16.162  25.218   2.751
47493W        W19219   6.427  20.477   1.704
47494W        W19220  11.568  29.999  10.416
47495W        W19221  29.201  17.934   2.520
47496W        W19222  22.300  26.367   2.214
47497W        W19223   9.269  44.574   0.475
47498W        W19224   1.874   2.426   2.664
47499W        W19225  42.403  42.243  11.579
47500W        W19226   9.914  26.594  11.172
47501W        W19227  35.457  11.644  12.873
47502W        W19228  22.237   3.586   1.875
47503W        W19229  21.534   9.621  12.532
47504W        W19230  35.398  21.072   0.751
47505W        W19231  28.569  42.816   3.657
47506W        W19232  23.512   2.408  14.712
47507W        W19233  24.681  30.466   2.920
47508W        W19234  16.344   0.885  13.808
47509W        W19235  11.455   4.322  13.893
47510W        W19236   9.992  18.617  10.797
47511W        W19237  25.746  36.379  12.586
47512W        W19238  23.397  24.863   4.703
47513W        W19239   0.860  19.035   0.597
47514W        W19240   0.704  13.102   2.722
47515W        W19241  23.961   8.401  13.017
47516W        W19242  22.523  15.790  12.090
47517W        W19243  21.775  35.906  11.547
47518W        W19244  43.911   6.604  12.834
47519W        W19245   8.675  32.511   0.898
47520W        W19246  31.546  33.031  12.877
47521W        W19247  11.263  19.899  13.602
47522W        W19248  29.076  39.546   1.653
47523W        W19249  18.679  25.937  12.001
47524W        W19250  34.475  42.476   1.360
47525W        W19251  30.049  13.141  13.483
47526W        W19252   9.748  15.589  14.464
47527W        W19253   3.433  29.032  14.130
47528W        W19254  16.290   4.793   3.343
47529W        W19255  16.574  31.684   1.801
47530W        W19256   6.377  29.023  11.269
47531W        W19257  40.041  17.968   0.771
47532W        W19258  22.983  21.119  13.015
47533W        W19259  11.259   7.045   3.856
47534W        W19260  31.647   1.037   0.387
47535W        W19261   7.971  26.228  10.235
47536W        W19262  42.545  39.967   2.748
47537W        W19263  43.261   7.516   4.729
47538W        W19264  27.754  17.284  12.742
47539W        W19265   3.165  30.673   0.824
47540W        W19266  30.037   9.235   1.340
47541W        W19267  37.765  43.375  13.913
47542W        W19268  25.279  38.158   0.211
47543W        W19269  13.349  38.028  13.856
47544W        W19270  42.129  16.667  10.560
47545W        W19271  25.495  31.092  12.827
47546W        W19272  11.019  43.787  14.366
47547W        W19273   6.491  17.219  10.219
47548W        W19274  20.214  11.155  14.997
47549W        W19275   3.502   5.202  11.993
47550W        W19276  23.923  37.393   3.777
47551W        W19277  42.440  41.223  13.586
47552W        W19278  22.311  27.949   1.652
47553W        W19279  21.632  17.665   1.710
47554W        W19280  41.072  30.917  10.765
47555W        W19281  24.976  27.563   4.722
47556W        W19282   0.938   5.742  11.596
47557W        W19283  25.412  15.155  10.765
47558W        W19284  29.097   9.617  12.893
47559W        W19285  16.023  42.852  10.711
47560W        W19286  12.981  17.487   9.782
47561W        W19287  10.187  20.730  13.339
47562W        W19288  18.820  33.840  13.089
47563W        W19289  24.787  20.512  11.345
47564W        W19290   1.364  33.091   1.363
47565W        W19291  11.196  27.782   3.299
47566W        W19292  11.793  36.805  13.353
47567W        W19293   6.375   7.958  11.567
47568W        W19294  22.562  42.559   4.158
47569W        W19295  37.339  13.394   0.901
47570W        W19296  20.653  12.602  10.549
47571W        W19297  35.265   4.563  11.969
47572W        W19298  31.180  25.100   4.675
47573W        W19299  36.682  22.114  11.463
47574W        W19300  36.374  39.511  12.048
47575W        W19301  20.585   4.206  14.983
47576W        W19302   4.658  12.796  13.399
47577W        W19303   5.432   1.605  12.705
47578W        W19304   2.296  31.334   0.256
47579W        W19305  22.932   3.986   4.466
47580W        W19306  22.293  22.555  14.336
47581W        W19307   2.021   2.253  12.031
47582W        W19308  14.101  34.921   1.428
47583W        W19309  23.556  20.830   3.883
47584W        W19310  20.035  22.430   4.415
47585W        W19311  40.414  23.657  14.924
47586W        W19312   5.966  33.181   1.223
47587W        W19313  25.169  16.660  12.515
47588W        W19314  21.485  16.168  14.860
47589W        W19315  30.257   3.843  13.326
47590W        W19316   7.975  33.864  11.659
47591W        W19317  21.772  23.495  14.538
47592W        W19318  35.596  29.756  11.664
47593W        W19319  22.642   5.799   2.353
47594W        W19320  30.517  27.303   2.666
47595W        W19321   4.816  32.201  10.201
47596W        W19322  27.566   0.489  12.112
47597W        W19323   6.636  39.472   0.759
47598W        W19324  16.345  39.550  10.656
47599W        W19325   7.916   2.892   0.322
47600W        W19326  26.528  22.282   1.311
47601W        W19327  30.037   1.313   4.878
47602W        W19328  22.147  20.564   2.983
47603W        W19329  23.219  24.143   4.261
47604W        W19330  20.978  19.293   3.313
47605W        W19331   4.323   4.325   4.259
47606W        W19332  33.536   5.999   3.171
47607W        W19333  15.983  36.110   1.771
47608W        W19334  27.333  16.096   2.399
47609W        W19335  30.197  11.244   0.319
47610W        W19336  12.166  38.395   0.787
47611W        W19337  26.681  30.117   2.463
47612W        W19338  16.196  13.522   1.700
47613W        W19339  23.218  32.080  10.428
47614W        W19340  36.533  38.553  12.071
47615W        W19341  22.553  20.608   1.387
47616W        W19342  34.372  21.201   1.755
47617W        W19343  20.107  11.871  13.164
47618W        W19344   9.553  38.415  12.535
47619W        W19345  34.732   8.734  11.939
47620W        W19346  27.911  22.127  12.512
47621W        W19347  27.518  15.974  12.533
47622W        W19348  44.363   4.182   3.882
47623W        W19349  32.150  11.003   2.336
47624W        W19350  25.290  12.352   4.865
47625W        W19351  13.797   9.613   0.719
47626W        W19352   2.238  18.692   1.977
47627W        W19353   5.427  41.763  11.267
47628W        W19354  14.701  36.289   1.129
47629W        W19355   7.236  19.971   3.503
47630W        W19356   1.951   1.832  14.139
47631W        W19357  42.753  16.198  14.861
47632W        W19358  42.389  28.616   1.636
47633W        W19359  16.555  24.619   1.980
47634W        W19360  19.060  27.884   2.292
47635W        W19361  22.027  40.361  10.668
47636W        W19362  31.960  20.660  13.070
47637W        W19363  42.410  14.242  12.574
47638W        W19364  30.920  30.381   4.059
47639W        W19365  15.377  34.856  12.767
47640W        W19366  25.188  30.574   2.901
47641W        W19367  39.230   0.720  11.639
47642W        W19368  13.197  41.538   2.727
47643W        W19369  40.484  36.128   1.800
47644W        W19370  36.071  23.694   2.982
47645W        W19371  24.044  30.202  10.296
47646W        W19372  40.027   0.207  11.733
47647W        W19373   2.916  31.507  13.056
47648W        W19374  31.697   3.765   4.576
47649W        W19375  15.176  16.392   1.220
47650W        W19376  37.834  31.951   0.863
47651W        W19377  11.327  40.415   0.047
47652W        W19378  41.910  23.630  11.534
47653W        W19379  39.487   0.428  14.795
47654W        W19380  41.290  17.653   3.211
47655W        W19381   9.271   1.428   1.771
47656W        W19382  40.867  27.680   0.443
47657W        W19383  14.392  14.735   3.224
47658W        W19384  40.761   4.252   3.510
47659W        W19385  26.259  31.594   4.498
47660W        W19386  27.428  15.798   1.221
47661W        W19387   6.405  15.674  10.027
47662W        W19388  23.092   3.764   0.831
47663W        W19389   7.330  13.506  11.191
47664W        W19390  31.166  35.945   0.257
47665W        W19391  29.951   6.323   3.715
47666W        W19392  19.183  23.736  14.980
47667W        W19393  44.031  21.253  12.330
47668W        W19394  40.944  19.761   3.075
47669W        W19395  20.296  29.935  13.101
47670W        W19396  40.332  26.367   3.346
47671W        W19397  21.158  19.078   2.852
47672W        W19398   0.923  30.292  14.075
47673W        W19399  26.131   1.954   0.906
47674W        W19400  36.449  25.510   4.746
47675W        W19401  17.446  10.580   3.596
47676W        W19402  30.134  42.001  12.074
47677W        W19403  22.956   1.654   2.315
47678W        W19404  35.857  10.732  14.530
47679W        W19405  43.968  22.447   0.277
47680W        W19406  25.124  38.735  12.677
47681W        W19407  17.134  43.280   2.836
47682W        W19408  11.480  44.095  11.060
47683W        W19409   3.267  11.293   2.696
47684W        W19410  21.791  16.108   3.407
47685W        W19411  26.060   7.773   2.855
47686W        W19412  25.432  36.049  14.356
47687W        W19413  15.836  40.989   1.751
47688W        W19414  22.536   3.933  11.679
47689W        W19415  31.600  15.706   4.583
47690W        W19416  38.556  22.718   3.626
47691W        W19417  36.232   4.859   3.101
47692W        W19418  37.124  23.146  10.804
47693W        W19419  11.890  19.410  13.285
47694W        W19420  30.666  23.998  13.638
47695W        W19421  22.727  12.348   4.173
47696W        W19422  22.023   7.382   1.529
47697W        W19423  27.506  11.585   1.203
47698W        W19424  19.459  39.715  11.077
47699W        W19425  31.166  19.723  10.695
47700W        W19426  44.021  28.722  11.889
47701W        W19427   1.306   8.432   4.246
47702W        W19428  41.792   5.709  12.006
47703W        W19429  13.771  30.923   1.832
47704W        W19430  29.449  43.671   2.182
47705W        W19431   7.773  35.371  13.511
47706W        W19432  24.076  30.918  11.005
47707W        W19433  34.182  19.124   4.591
47708W        W19434  15.696  13.367  11.972
47709W        W19435  34.143   5.158  12.913
47710W        W19436  14.841  23.555   1.771
47711W        W19437  20.289  12.149  13.933
47712W        W19438   6.647  32.334  14.196
47713W        W19439  14.703   7.307  11.218
47714W        W19440   1.265  20.514  13.974
47715W        W19441  20.746  21.292  13.971
47716W        W19442  10.550  11.236  11.519
47717W        W19443  44.935  41.765  11.137
47718W        W19444   6.646  39.447   4.088
47719W        W19445  25.013  30.129   4.873
47720W        W19446   1.782  26.079  14.967
47721W        W19447  42.956  16.052   2.263
47722W        W19448  25.219  10.032   1.880
47723W        W19449  34.742  44.949   1.532
47724W        W19450  37.511   7.418  10.726
47725W        W19451  15.767   3.317   0.957
47726W        W19452  17.334  35.900   0.957
47727W        W19453   5.752   6.366  10.926
47728W        W19454  24.474  35.528  13.022
47729W        W19455  30.256  34.545  11.076
47730W        W19456  39.959  41.092   1.353
47731W        W19457  26.749   7.517  11.010
47732W        W19458  39.377  18.678  13.077
47733W        W19459  23.540  31.972  12.388
47734W        W19460   9.701  40.952  11.626
47735W        W19461   4.997  26.580  12.456
47736W        W19462  43.728  20.940  12.035
47737W        W19463  19.022   3.373  14.427
47738W        W19464   3.372   4.777  10.594
47739W        W19465  19.603  34.671   1.983
47740W        W19466  36.064  44.364  14.315
47741W        W19467   1.853  33.108   2.770
47742W        W19468  16.178  29.639   3.638
47743W        W19469  42.369  41.480  12.179
47744W        W19470  31.602  20.272   4.323
47745W        W19471   7.417  16.210   2.356
47746W        W19472  37.196  24.078  13.948
47747W        W19473  31.921  14.973   2.344
47748W        W19474   1.298  18.842   2.317
47749W        W19475   5.422   2.392  12.158
47750W        W19476  41.477   3.012  11.143
47751W        W19477  38.492  11.367   1.706
47752W        W19478  33.994  42.716  13.587
47753W        W19479   2.221   3.259   1.230
47754W        W19480  43.445   9.795  14.715
47755W        W19481  31.026   5.216  10.636
47756W        W19482  16.050   1.242  14.363
47757W        W19483  26.582  40.858   2.164
47758W        W19484  29.037  21.017  14.554
47759W        W19485  11.677  43.172   3.657
47760W        W19486  20.492  37.362  12.975
47761W        W19487  44.475  20.946   2.698
47762W        W19488  25.691  20.757  11.510
47763W        W19489  39.532  15.417  12.633
47764W        W19490   7.339  38.416  14.217
47765W        W19491  38.857   6.269   0.864
47766W        W19492   8.512   6.178  12.906
47767W        W19493   3.787  38.566  13.926
47768W        W19494   3.169   9.178  11.646
47769W        W19495  41.904  34.955  14.300
47770W        W19496  24.005  16.060   4.639
47771W        W19497  18.639  21.332  14.454
47772W        W19498   4.866  18.686  12.796
47773W        W19499   8.367   5.400   1.110
47774W        W19500  27.203   3.301   4.727
47775W        W19501  12.774  12.395  10.825
47776W        W19502  10.767  38.871   3.093
47777W        W19503  38.763  36.867   3.703
47778W        W19504  19.094  42.998  11.331
47779W        W19505  31.904  21.092   3.244
47780W        W19506  40.251  35.929  11.397
47781W        W19507  32.414  34.020   1.212
47782W        W19508  43.906  13.294  10.711
47783W        W19509  25.746  10.517  12.434
47784W        W19510  27.171  24.000   3.356
47785W        W19511  39.957   9.669  12.127
47786W        W19512  24.733  26.945   9.796
47787W        W19513  44.259  26.912  14.202
47788W        W19514  37.935   7.305  13.036
47789W        W19515  11.260   3.919  11.972
47790W        W19516   4.824  29.667   4.699
47791W        W19517  14.043  43.066   3.729
47792W        W19518  30.526  40.115   1.908
47793W        W19519  35.147  30.492  12.399
47794W        W19520  13.745  34.859   0.444
47795W        W19521  23.408   8.224   0.832
47796W        W19522  17.596  21.643   1.600
47797W        W19523  29.466  37.290   0.280
47798W        W19524   6.448   4.449  13.351
47799W        W19525  23.205  38.877  11.469
47800W        W19526  17.164  20.143   3.853
47801W        W19527  16.221  30.387  13.884
47802W        W19528   6.336  39.870   2.024
47803W        W19529  25.802  27.225   0.921
47804W        W19530  25.231   3.857  14.136
47805W        W19531  29.158  24.628  13.575
47806W        W19532  16.819  39.818   3.007
47807W        W19533  27.365  39.350   0.947
47808W        W19534  25.647  11.836  13.464
47809W        W19535  15.017   6.944   3.105
47810W        W19536   5.452  23.598   0.238
47811W        W19537  16.095  21.053  14.334
47812W        W19538  34.916  26.453   3.267
47813W        W19539   7.290  24.048  14.356
47814W        W19540   4.414  21.303   4.111
47815W        W19541  31.633  13.881   2.284
47816W        W19542  30.176   5.351   4.689
47817W        W19543   9.606  39.493   2.740
47818W        W19544   4.834  29.061  10.287
47819W        W19545  18.533  16.152  10.594
47820W        W19546   6.949  22.690  10.672
47821W        W19547  11.205  42.128  12.386
47822W        W19548  41.313  34.782   3.626
47823W        W19549  40.462  13.027   4.863
47824W        W19550  32.559   4.657   0.943
47825W        W19551  17.280  29.215  11.051
47826W        W19552  17.418   3.355  10.745
47827W        W19553   0.342  39.945  13.440
47828W        W19554   0.803   9.013   2.828
47829W        W19555  18.343  21.204  12.911
47830W        W19556  26.016  34.452   1.026
47831W        W19557  32.174  17.602  10.582
47832W        W19558  25.025  10.053  11.061
47833W        W19559  17.181  37.078   1.404
47834W        W19560   6.649   3.020   1.885
47835W        W19561  29.842  39.814  10.738
47836W        W19562   3.808   3.933  12.675
47837W        W19563  37.781   2.236   4.331
47838W        W19564  37.785  42.821  13.012
47839W        W19565  33.908  26.575   2.348
47840W        W19566  38.797  13.839   0.903
47841W        W19567  19.135  21.270   0.785
47842W        W19568  27.007  36.512   4.606
47843W        W19569  28.097   7.617   1.880
47844W        W19570  10.650  25.019   4.081
47845W        W19571   6.462   8.771   1.423
47846W        W19572  42.993  16.264  11.885
47847W        W19573  41.014  42.809   4.272
47848W        W19574  25.674  29.745   0.642
47849W        W19575   1.922  21.076   4.595
47850W        W19576  29.332  11.874   2.844
47851W        W19577   4.024  16.191  13.157
47852W        W19578   6.280  35.919  12.091
47853W        W19579  28.752  19.748  14.982
47854W        W19580  21.578  32.584  14.039
47855W        W19581  26.722  19.119  14.376
47856W        W19582  28.612  13.065  13.277
47857W        W19583  21.895  20.456  14.843
47858W        W19584  26.592  10.530   1.899
47859W        W19585  34.215  39.395   4.290
47860W        W19586  39.887   4.789   0.800
47861W        W19587  17.173   7.129  11.277
47862W        W19588  23.043   8.896   0.321
47863W        W19589  15.283  22.616   0.329
47864W        W19590  36.094  16.735   3.722
47865W        W19591  29.353  14.630  12.074
47866W        W19592  28.230  25.384   3.257
47867W        W19593  26.587   9.649  11.912
47868W        W19594  30.126  36.926  13.285
47869W        W19595  17.142  13.859  10.502
47870W        W19596   1.465  27.135   4.211
47871W        W19597  36.019   2.197  11.209
47872W        W19598  39.552   3.727  12.552
47873W        W19599   6.240  18.463  11.494
47874W        W19600   8.412  31.511  11.098
47875W        W19601  31.331  26.406  12.487
47876W        W19602  19.545  23.731   3.139
47877W        W19603  31.274  23.775   4.545
47878W        W19604  33.150  14.183   1.441
47879W        W19605  43.726  39.429   0.310
47880W        W19606  34.097  16.412  12.865
47881W        W19607   3.595  14.732   2.126
47882W        W19608  40.352  35.374   2.218
47883W        W19609  19.229  30.542  11.878
47884W        W19610   8.252  35.280  12.450
47885W        W19611   1.963  40.825   1.889
47886W        W19612  15.100  30.258  11.179
47887W        W19613  44.738   3.131  12.625
47888W        W19614  26.315  37.952  13.911
47889W        W19615  32.001   9.345   0.940
47890W        W19616  17.209  20.693  13.901
47891W        W19617   6.212  18.884   0.767
47892W        W19618   1.438   7.137  13.511
47893W        W19619   0.439  17.255   2.114
47894W        W19620  12.057  32.234  14.440
47895W        W19621   8.796   0.971   0.912
47896W        W19622   6.456  10.172   0.880
47897W        W19623  38.532  21.228   4.609
47898W        W19624  31.310   4.291  14.752
47899W        W19625  38.215  27.504   0.834
47900W        W19626  32.899  43.971  14.298
47901W        W19627  30.438  41.070  11.874
47902W        W19628  11.791  25.246  12.455
47903W        W19629   5.150  26.725  12.969
47904W        W19630  22.975   6.608  13.556
47905W        W19631  21.305   1.939  11.175
47906W        W19632   4.707   0.309   0.220
47907W        W19633  44.572  16.159   4.189
47908W        W19634  29.046  18.545   3.716
47909W        W19635  31.400  33.348  14.649
47910W        W19636   7.345  11.860   0.381
47911W        W19637  16.462  12.764  11.136
47912W        W19638  34.200  35.076   3.364
47913W        W19639  43.595  23.532   1.241
47914W        W19640  39.654  38.010  13.450
47915W        W19641  16.092   3.441  14.755
47916W        W19642  27.838  28.771  10.174
47917W        W19643  44.770  39.338   3.647
47918W        W19644   8.811  13.629  11.234
47919W        W19645  26.256  40.829  11.125
47920W        W19646  25.017  44.202   1.769
47921W        W19647  15.349  31.160   2.248
47922W        W19648  34.320  15.286   4.971
47923W        W19649  34.950  31.560   2.714
47924W        W19650  12.116  14.772   4.183
47925W        W19651  22.043  35.540   4.134
47926W        W19652  28.263  20.970  10.384
47927W        W19653  38.839  40.559   0.857
47928W        W19654  26.670   2.605  13.017
47929W        W19655  19.439  43.792  11.898
47930W        W19656  35.427   6.815   0.657
47931W        W19657  40.029  42.374   4.632
47932W        W19658   2.064  31.260   5.093
47933W        W19659   0.810  34.982   4.601
47934W        W19660  36.365  44.507  12.087
47935W        W19661  42.518  35.534  13.918
47936W        W19662   2.033   9.756  13.738
47937W        W19663   8.790  34.563  10.242
47938W        W19664  28.830  33.079  10.787
47939W        W19665   1.232   0.861  14.847
47940W        W19666   7.616  42.816   1.347
47941W        W19667  33.969  29.578  12.944
47942W        W19668   1.454   2.549   0.136
47943W        W19669  10.322  19.273   4.697
47944W        W19670   1.990  20.745  11.711
47945W        W19671  31.125  25.547  13.859
47946W        W19672  31.149  44.240   4.627
47947W        W19673  39.467  25.545   4.648
47948W        W19674   3.889  17.610   2.293
47949W        W19675  30.149  44.795  11.476
47950W        W19676  36.324  41.968   2.419
47951W        W19677  36.019  11.822   0.745
47952W        W19678   6.965  24.508   0.268
47953W        W19679  26.736  14.325   0.675
47954W        W19680  11.788  29.177   3.766
47955W        W19681  29.702  25.196   5.745
47956W        W19682   1.196   5.193   1.233
47957W        W19683  23.542  13.713  13.882
47958W        W19684   7.084  26.951   0.545
47959W        W19685  42.566  34.394  11.474
47960W        W19686   5.536  29.182  14.842
47961W        W19687   9.698  31.574  11.543
47962W        W19688   8.969  41.600  14.077
47963W        W19689  29.074  16.654   3.583
47964W        W19690  11.214  29.695  11.086
47965W        W19691  13.291  17.291  14.472
47966W        W19692   3.470   0.851  14.007
47967W        W19693  42.752   8.422  14.968
47968W        W19694  30.458  39.215   3.804
47969W        W19695  34.139  39.618   2.232
47970W        W19696  21.995  35.424   2.437
47971W        W19697  40.864  41.388   3.239
47972W        W19698   7.241  30.937  11.486
47973W        W19699  40.498  41.229   2.898
47974W        W19700  22.598  25.019   9.910
47975W        W19701  38.179  16.318   1.750
47976W        W19702  34.463  24.286  11.223
47977W        W19703  40.731  10.136   1.973
47978W        W19704   8.275  40.550   3.972
47979W        W19705   1.853  25.076  12.731
47980W        W19706  21.320  39.432   4.465
47981W        W19707   0.989   8.437  11.757
47982W        W19708   6.753  39.004  11.493
47983W        W19709  35.358  24.544  10.849
47984W        W19710   8.353  31.047   1.257
47985W        W19711  12.783  36.491  12.077
47986W        W19712   5.769   5.204  12.793
47987W        W19713  10.479   6.875  10.786
47988W        W19714  21.571  17.158   2.289
47989W        W19715  32.559  40.868   3.730
47990W        W19716   1.441  25.170   3.691
47991W        W19717  14.306  11.571  14.280
47992W        W19718  20.021  31.780  10.245
47993W        W19719  38.563  25.116  13.525
47994W        W19720   9.054  23.003  11.175
47995W        W19721   8.393  24.658   0.606
47996W        W19722  18.607  29.034   4.549
47997W        W19723   9.126  38.940  11.012
47998W        W19724  21.561  44.817   2.664
47999W        W19725   8.834  23.518  12.079
48000W        W19726  34.451  38.549   4.681
48001W        W19727  10.617  17.821  12.475
48002W        W19728  14.961  32.426  13.517
48003W        W19729  20.617  37.036   3.630
48004W        W19730  44.799   5.328  14.915
48005W        W19731  41.227  27.230  12.809
48006W        W19732  23.892   1.598  10.706
48007W        W19733  40.212  17.020  12.360
48008W        W19734  16.365  32.555  13.468
48009W        W19735  25.568  16.230   3.822
48010W        W19736  23.200  36.638  11.657
48011W        W19737  41.026  33.344   2.648
48012W        W19738  17.920  27.624  14.213
48013W        W19739  13.569  33.370   0.424
48014W        W19740  39.378   5.612   3.034
48015W        W19741  40.931   0.243  13.287
48016W        W19742  22.636  39.538  10.657
48017W        W19743  44.194  11.375  11.614
48018W        W19744   0.730  23.509  10.596
48019W        W19745  10.745  23.189  14.780
48020W        W19746   8.834  31.995   9.962
48021W        W19747  37.783  39.899   2.454
48022W        W19748   7.275  44.396   4.488
48023W        W19749  22.045  39.004   2.379
48024W        W19750  36.842  44.698   0.889
48025W        W19751  15.859   3.949   3.689
48026W        W19752  44.797   9.633   3.768
48027W        W19753  39.101  32.412  14.903
48028W        W19754   3.401   0.321  12.323
48029W        W19755  39.512   0.217  11.647
48030W        W19756   7.541  13.966  11.507
48031W        W19757  14.770  25.736  11.246
48032W        W19758  26.188   1.784   1.817
48033W        W19759   6.291  11.712   1.339
48034W        W19760  37.551  29.006  14.085
48035W        W19761  43.473  34.511  13.801
48036W        W19762  35.672  16.844  12.867
48037W        W19763  18.340  11.282   1.914
48038W        W19764  20.804  14.719  13.553
48039W        W19765  25.355  43.954  11.122
48040W        W19766   8.466  17.200  14.407
48041W        W19767  37.587   2.752   3.741
48042W        W19768  43.283   1.647   3.367
48043W        W19769  10.057  23.080   3.762
48044W        W19770  44.841  37.893   2.875
48045W        W19771  32.989  31.023  11.665
48046W        W19772  34.493  19.125   0.649
48047W        W19773  42.350  22.148  10.636
48048W        W19774  37.944  35.397   0.846
48049W        W19775   8.689  39.283  12.563
48050W        W19776   7.172  43.054   2.668
48051W        W19777  23.597  38.229   3.185
48052W        W19778  15.270  21.957   3.762
48053W        W19779  42.342  15.697  14.360
48054W        W19780   1.691  20.641  13.637
48055W        W19781   0.391   2.315  10.448
48056W        W19782   6.762  27.721  12.982
48057W        W19783   3.954  21.155  11.488
48058W        W19784  15.367  28.109  11.096
48059W        W19785  14.183  12.303  12.490
48060W        W19786  22.790  12.148   5.486
48061W        W19787  30.269  44.202   3.184
48062W        W19788  11.069  39.938   2.701
48063W        W19789  41.879  39.768  10.647
48064W        W19790  14.268  43.033  11.076
48065W        W19791  29.492  23.432  10.332
48066W        W19792   2.717  16.479   3.170
48067W        W19793   5.781  27.890   4.154
48068W        W19794  28.376  24.663  11.545
48069W        W19795  21.884   0.942   2.327
48070W        W19796   0.529  14.529  11.566
48071W        W19797  43.405   8.495  14.281
48072W        W19798  37.296  39.410  13.034
48073W        W19799  33.548  28.507  12.368
48074W        W19800  15.183  13.335  13.527
48075W        W19801  43.236  15.689  10.891
48076W        W19802  15.669   2.832  11.045
48077W        W19803   1.714   8.421   3.892
48078W        W19804   8.246  20.101   4.077
48079W        W19805  10.151  43.499  12.440
48080W        W19806  18.487   5.007   4.413
48081W        W19807  36.661  26.957  11.465
48082W        W19808   3.947   8.194  11.643
48083W        W19809   1.443  33.785   0.916
48084W        W19810  27.373  14.817   3.304
48085W        W19811  16.149  44.822   0.015
48086W        W19812  22.019  27.608  13.319
48087W        W19813   2.311  34.661  10.330
48088W        W19814  37.125   5.169   0.041
48089W        W19815  31.544  22.930  11.407
48090W        W19816  31.185   1.244   0.462
48091W        W19817   5.353  34.063  14.423
48092W        W19818  38.159  37.473   3.236
48093W        W19819   7.647  41.335   2.135
48094W        W19820  25.555  13.804  14.862
48095W        W19821  12.707  13.015  14.186
48096W        W19822  35.124  32.994   1.976
48097W        W19823  23.246   3.147   2.043
48098W        W19824  15.992   0.981  11.603
48099W        W19825  20.108   4.159   4.160
48100W        W19826   7.459  26.581   4.140
48101W        W19827   6.195  10.342  12.426
48102W        W19828  33.802  18.325  11.088
48103W        W19829  32.374  37.501  12.534
48104W        W19830  13.307  22.759  11.228
48105W        W19831   0.045  42.790   1.839
48106W        W19832  39.886  15.077  12.448
48107W        W19833   5.435  19.699   2.737
48108W        W19834  13.152  21.099   1.210
48109W        W19835  29.431   9.742  13.776
48110W        W19836  25.917   1.376   3.596
48111W        W19837  23.488  26.277   1.251
48112W        W19838   5.658   5.433   1.407
48113W        W19839   0.522  12.329   4.155
48114W        W19840  20.439  39.519   1.217
48115W        W19841  42.843  40.778   0.779
48116W        W19842  31.906   9.931  14.988
48117W        W19843  39.447  30.021   0.325
48118W        W19844  11.243  10.430  10.324
48119W        W19845  33.499  14.133  12.179
48120W        W19846  12.338  26.057   3.673
48121W        W19847  38.886  33.437  10.040
48122W        W19848   8.227  12.988  12.356
48123W        W19849  44.439  36.382  14.739
48124W        W19850  17.777  44.493   0.525
48125W        W19851  17.146  19.045   1.836
48126W        W19852  34.884  27.141   4.666
48127W        W19853  32.349  25.967  10.543
48128W        W19854  17.783  15.282   4.679
48129W        W19855  40.591  16.703  12.873
48130W        W19856  36.859   0.869  14.816
48131W        W19857   3.520   3.243  10.031
48132W        W19858  34.901  32.535  13.865
48133W        W19859   1.281  40.733  14.980
48134W        W19860  13.541  35.012   3.659
48135W        W19861  43.819   0.938   4.581
48136W        W19862   5.945  23.766   0.212
48137W        W19863  29.372   7.239   1.797
48138W        W19864  23.729   7.141  12.059
48139W        W19865   9.457  22.954  12.095
48140W        W19866  40.401  43.538  14.769
48141W        W19867  37.422  14.864   3.783
48142W        W19868  18.716  26.235  11.579
48143W        W19869   6.781  22.549   2.303
48144W        W19870  29.458  21.475  11.656
48145W        W19871  44.478   9.948   3.529
48146W        W19872  39.018  39.087  10.553
48147W        W19873  26.649  19.969  10.149
48148W        W19874   5.156  29.197  11.871
48149W        W19875  30.132  39.476  14.396
48150W        W19876   3.758  20.956   0.916
48151W        W19877  30.315  26.485   2.263
48152W        W19878  31.910  29.768  14.628
48153W        W19879  41.137  17.910  11.502
48154W        W19880  31.932  12.625   3.795
48155W        W19881   5.229   3.863  12.524
48156W        W19882  24.672  20.357   1.461
48157W        W19883   8.715  38.976   3.776
48158W        W19884  27.695  16.206  14.399
48159W        W19885   8.320  19.688  14.600
48160W        W19886  26.364  32.430   3.230
48161W        W19887  23.795  11.243   4.234
48162W        W19888  31.919  33.930  10.624
48163W        W19889  27.162  42.854  12.633
48164W        W19890  35.974  21.697   3.016
48165W        W19891  31.935  12.236   1.658
48166W        W19892  40.385  19.354   0.827
48167W        W19893  36.650   4.542   3.042
48168W        W19894  17.510  24.938  14.909
48169W        W19895  25.710  42.515   1.679
48170W        W19896   5.909  19.544   2.709
48171W        W19897  17.156  41.307   5.133
48172W        W19898   3.402  25.078   0.172
48173W        W19899  15.671  38.869  10.607
48174W        W19900  44.385  19.959  11.104
48175W        W19901  10.510  43.526   3.643
48176W        W19902  34.974  37.135   1.984
48177W        W19903  36.433  30.656   0.312
48178W        W19904  22.404  17.505  10.636
48179W        W19905  25.265   9.286   3.279
48180W        W19906   9.553  22.437   9.783
48181W        W19907  31.430  11.658  12.553
48182W        W19908  31.354  37.880  10.988
48183W        W19909  41.004   7.671   1.311
48184W        W19910   9.814  44.872   1.421
48185W        W19911   9.617  19.106   2.139
48186W        W19912  13.380  27.588  13.005
48187W        W19913  11.862  30.375  11.213
48188W        W19914  28.358  23.143  14.011
48189W        W19915  23.645  30.427  10.584
48190W        W19916  33.158  43.433  13.501
48191W        W19917  28.481   8.815  14.067
48192W        W19918  16.551  12.882   2.817
48193W        W19919  43.486  21.345  13.372
48194W        W19920   9.647   7.365   4.223
48195W        W19921  10.231   3.071   4.192
48196W        W19922   6.754   3.949   4.057
48197W        W19923  12.105  18.252  13.964
48198W        W19924  17.002  13.355  13.377
48199W        W19925  22.337  29.698   4.171
48200W        W19926   4.642  21.001  13.405
48201W        W19927  20.085   2.110   1.403
48202W        W19928   6.767   1.429  12.940
48203W        W19929  41.455  10.209  13.200
48204W        W19930  19.598  39.269  13.954
48205W        W19931  36.342  17.138   2.149
48206W        W19932  43.412   9.803   1.769
48207W        W19933  28.694  15.038   3.542
48208W        W19934  23.719   4.853  14.523
48209W        W19935  17.376  33.175  11.634
48210W        W19936   8.430  27.627  11.610
48211W        W19937  32.918  26.675  10.676
48212W        W19938  25.699  20.442  11.104
48213W        W19939  26.980   3.690  12.435
48214W        W19940  21.931  16.195  12.265
48215W        W19941  38.882  14.618   4.120
48216W        W19942  10.179  13.225  13.862
48217W        W19943  40.122  39.290  13.326
48218W        W19944  26.788  37.027   0.034
48219W        W19945  36.907  32.486  14.498
48220W        W19946   9.359  44.155   2.256
48221W        W19947  41.453   3.711   1.369
48222W        W19948   2.929   6.277   1.415
48223W        W19949  21.308  35.506  14.774
48224W        W19950   6.821  14.850   1.669
48225W        W19951  30.632   4.743   0.082
48226W        W19952  43.757  30.383   4.439
48227W        W19953  24.690   1.709   5.332
48228W        W19954  41.355  43.134  12.932
48229W        W19955  30.709  11.470   1.487
48230W        W19956   1.705  18.408   0.674
48231W        W19957  16.978  10.036   3.605
48232W        W19958  13.614   9.167   3.798
48233W        W19959   9.427  16.657   4.091
48234W        W19960  32.372   4.473  12.791
48235W        W19961  27.494   2.681  11.239
48236W        W19962   9.125  34.769   1.785
48237W        W19963  14.345   1.895  11.159
48238W        W19964  13.312  15.486  11.089
48239W        W19965  27.007  16.220   2.021
48240W        W19966  22.959  44.919   0.681
48241W        W19967   7.897  28.269  10.795
48242W        W19968  34.919  31.021  14.411
48243W        W19969   3.389  32.760   2.982
48244W        W19970  32.925  13.114   4.455
48245W        W19971  30.859  39.940  13.309
48246W        W19972  43.914  26.520  11.559
48247W        W19973  23.725   9.428  12.140
48248W        W19974  12.588  36.553  11.608
48249W        W19975  32.583   2.747  11.540
48250W        W19976   5.013   9.317   2.477
48251W        W19977  26.005  28.070  11.596
48252W        W19978  39.794   7.441  12.884
48253W        W19979   9.368  18.671   2.006
48254W        W19980  41.604  19.790  14.905
48255W        W19981  17.641  10.191   2.793
48256W        W19982  26.917   4.727   0.922
48257W        W19983   0.467  22.503  11.145
48258W        W19984  24.552   0.855  11.542
48259W        W19985  32.432  23.704  12.072
48260W        W19986  30.310  35.973   1.934
48261W        W19987   1.396  20.602   4.499
48262W        W19988  34.960  12.787   0.666
48263W        W19989   7.501   4.994   1.233
48264W        W19990  20.435  44.414  11.772
48265W        W19991  21.594  13.625  12.023
48266W        W19992   8.419  16.842   2.157
48267W        W19993  25.117  18.703   0.799
48268W        W19994  10.179  33.862   5.311
48269W        W19995  11.096   6.671   0.572
48270W        W19996  32.002  37.879   0.813
48271W        W19997   1.289  44.255  12.104
48272W        W19998   8.388  43.253   0.069
48273W        W19999  17.240  32.223  11.327
48274W        W20000  44.741  19.169  14.730
48275W        W20001  27.701  24.243  14.258
48276W        W20002  22.476  38.825   3.313
48277W        W20003  29.744  12.184  10.805
48278W        W20004  35.043  24.963  13.809
48279W        W20005  30.512  14.538  14.888
48280W        W20006   6.240  25.495   3.181
48281W        W20007  43.432  33.451   0.935
48282W        W20008   7.220  15.655   5.594
48283W        W20009   5.401  25.484  12.479
48284W        W20010   3.210  37.361   3.993
48285W        W20011  19.437  43.320  14.983
48286W        W20012  34.271  11.776   4.128
48287W        W20013  12.688   5.345   2.953
48288W        W20014  11.178  34.896   1.250
48289W        W20015  25.238  22.988   4.048
48290W        W20016  22.216  24.400   0.377
48291W        W20017  26.819   3.801  11.180
48292W        W20018  42.232  33.511   3.155
48293W        W20019  23.185  11.706  13.417
48294W        W20020  11.436  17.178  13.733
48295W        W20021  14.054   6.439   0.943
48296W        W20022  21.528  30.495  12.489
48297W        W20023  24.699   0.381   0.405
48298W        W20024   0.349   0.533  12.368
48299W        W20025  20.127  40.316  11.231
48300W        W20026  26.658  33.898   4.738
48301W        W20027  42.365  26.955   2.154
48302W        W20028  40.461  18.217   3.174
48303W        W20029   4.141  12.768   0.668
48304W        W20030  26.167  17.273   3.006
48305W        W20031  14.680  34.474   2.366
48306W        W20032  18.810  17.593   1.736
48307W        W20033  32.879  18.634   2.409
48308W        W20034  41.760  30.026   0.203
48309W        W20035  42.886   4.336  11.114
48310W        W20036  28.932   9.348   4.540
48311W        W20037  43.467  25.222   4.091
48312W        W20038   4.763  13.347   0.447
48313W        W20039  24.471  25.519   2.611
48314W        W20040  19.326  12.214   0.834
48315W        W20041  41.810  31.363   4.230
48316W        W20042   1.300  27.501   2.131
48317W        W20043  34.246  41.459   3.853
48318W        W20044   3.482  26.050   3.175
48319W        W20045  39.761  24.675   1.236
48320W        W20046   0.012  22.755   0.776
48321W        W20047  38.083   5.355  14.063
48322W        W20048  41.986   4.341  11.714
48323W        W20049  14.414  23.165   3.754
48324W        W20050  22.960  10.143  11.848
48325W        W20051   0.696  31.873   3.060
48326W        W20052  25.719  26.138  13.250
48327W        W20053   0.996  25.315   4.418
48328W        W20054  12.807   1.933   3.062
48329W        W20055   7.672  11.911  11.461
48330W        W20056  37.325   9.925  14.554
48331W        W20057  18.769  19.522  11.527
48332W        W20058   8.891  11.719   4.731
48333W        W20059   0.673  18.167   4.269
48334W        W20060  24.046   0.617   4.243
48335W        W20061  31.556  19.314  10.936
48336W        W20062  28.180  15.365  12.001
48337W        W20063  22.589  30.374  11.583
48338W        W20064   2.889   6.072   3.074
48339W        W20065  38.971  22.436   4.482
48340W        W20066  10.756   5.241   2.739
48341W        W20067  23.774  37.873  10.503
48342W        W20068  40.900  17.515   3.554
48343W        W20069  27.114  10.129  11.145
48344W        W20070   2.959   0.454  12.567
48345W        W20071  31.967  43.988  13.747
48346W        W20072  23.939   3.459   0.872
48347W        W20073  17.202   1.831  14.234
48348W        W20074  42.393  30.651  13.284
48349W        W20075  15.332   7.979   1.200
48350W        W20076  31.335  44.062  11.524
48351W        W20077  24.504   1.545   1.378
48352W        W20078  28.881   0.916  14.975
48353W        W20079  35.403  33.374  13.916
48354W        W20080   6.970  40.468   0.673
48355W        W20081   4.887  23.741  12.983
48356W        W20082   4.463  18.929   4.279
48357W        W20083   7.465   9.285  14.032
48358W        W20084   1.996  10.828   0.897
48359W        W20085  21.294  42.730   4.550
48360W        W20086  37.048  24.797  11.501
48361W        W20087   1.538  40.467   2.682
48362W        W20088  16.325   4.194   1.641
48363W        W20089  16.061  20.173   2.199
48364W        W20090  38.765  12.309   4.669
48365W        W20091   1.894  33.392   1.374
48366W        W20092  35.791   2.397  11.627
48367W        W20093  36.183   7.332  11.467
48368W        W20094  13.268  11.633  11.595
48369W        W20095   0.784  40.613  14.270
48370W        W20096   2.958  30.202   3.652
48371W        W20097  16.778  32.531   0.702
48372W        W20098  19.673  17.518  12.101
48373W        W20099  26.157   5.444  12.231
48374W        W20100  36.465   2.716   4.789
48375W        W20101   2.699  41.551   2.578
48376W        W20102   9.318  30.156   5.000
48377W        W20103  24.216  13.350  11.627
48378W        W20104  12.385  23.785   0.388
48379W        W20105  22.039  26.549  12.477
48380W        W20106  43.876  42.554   3.489
48381W        W20107  31.779  14.686   4.597
48382W        W20108   8.805  40.855   2.481
48383W        W20109  43.989  23.663   0.931
48384W        W20110  24.944   1.493  10.704
48385W        W20111  40.106   5.648   4.554
48386W        W20112  31.196  16.593  12.058
48387W        W20113   4.003  30.485   3.727
48388W        W20114  43.754  22.646  12.423
48389W        W20115  41.480  15.881   1.672
48390W        W20116  26.450  28.946   0.071
48391W        W20117   1.260  10.229   1.207
48392W        W20118  11.323   9.272   4.630
48393W        W20119  23.320  34.719   4.583
48394W        W20120  14.118   8.385   2.809
48395W        W20121  34.177  26.129   2.344
48396W        W20122  24.603   7.289   0.656
48397W        W20123  24.587  44.109  10.659
48398W        W20124  31.044  42.512  10.419
48399W        W20125  26.173  39.440   1.322
48400W        W20126  25.712  37.458   3.297
48401W        W20127  13.468   6.789   1.547
48402W        W20128   6.703  41.997   4.056
48403W        W20129  16.757  35.812  14.318
48404W        W20130  40.007   6.947   0.705
48405W        W20131  44.885  14.033   1.180
48406W        W20132  38.393  41.485   2.683
48407W        W20133  44.252  23.244   0.772
48408W        W20134  41.377   4.094  13.332
48409W        W20135  23.040  36.359  13.826
48410W        W20136  43.283  34.804  14.957
48411W        W20137  43.306  42.414   1.293
48412W        W20138  25.141  34.302  13.086
48413W        W20139  21.152  17.292  13.348
48414W        W20140  30.495  29.499  12.602
48415W        W20141  30.620  44.793   2.752
48416W        W20142  22.653  16.238   1.436
48417W        W20143  38.068  10.297   3.352
48418W        W20144  32.615  36.117   1.927
48419W        W20145  24.700  35.468  13.480
48420W        W20146  44.007  26.339   1.330
48421W        W20147   4.783  39.139   4.793
48422W        W20148  17.155  16.219   3.186
48423W        W20149  21.600  31.074  12.904
48424W        W20150  23.679  12.188   3.366
48425W        W20151  27.206  27.764  14.560
48426W        W20152  44.449  31.374  10.730
48427W        W20153  25.210  19.423  11.865
48428W        W20154  21.108  18.526  14.695
48429W        W20155  32.487  33.238  10.932
48430W        W20156  21.554   7.855  10.726
48431W        W20157  28.331  15.829  10.301
48432W        W20158  18.181  42.717  11.021
48433W        W20159  36.961  41.475  10.653
48434W        W20160  15.473  10.310   0.365
48435W        W20161  23.949  13.769   1.837
48436W        W20162  42.668  32.657  10.667
48437W        W20163  12.625  30.104   3.499
48438W        W20164  26.126  32.189   2.342
48439W        W20165  24.117  27.993  12.034
48440W        W20166   3.175   8.695  13.939
48441W        W20167  20.833  21.319   4.142
48442W        W20168  30.888   8.087  11.901
48443W        W20169  44.300  35.043  14.907
48444W        W20170  19.680  30.100  10.393
48445W        W20171   5.989  33.439  11.574
48446W        W20172  12.122   8.940  11.279
48447W        W20173   3.576  18.499  10.918
48448W        W20174  26.140   0.463   3.621
48449W        W20175  27.260  15.472   1.637
48450W        W20176  43.907  37.323   3.321
48451W        W20177  30.089  12.703   1.705
48452W        W20178  38.273  12.101  11.504
48453W        W20179  21.613  38.336  11.442
48454W        W20180   4.870  44.908  12.139
48455W        W20181  39.737  29.681   1.292
48456W        W20182  29.152  29.446  10.720
48457W        W20183  23.658  34.117  12.527
48458W        W20184  36.460   6.215   2.575
48459W        W20185   7.294  36.949  14.882
48460W        W20186   6.438  20.293  11.446
48461W        W20187  11.447  34.889  13.675
48462W        W20188   2.239   2.863   2.242
48463W        W20189  17.771  15.641   0.047
48464W        W20190  23.814   7.879  12.920
48465W        W20191  31.689   0.265  13.893
48466W        W20192  11.821  17.287  11.437
48467W        W20193  15.249  35.260  13.097
48468W        W20194  27.759  10.106  12.631
48469W        W20195  15.042   9.698  13.901
48470W        W20196  29.386  16.062  13.432
48471W        W20197   7.649   4.787  10.190
48472W        W20198   9.751  12.204   1.391
48473W        W20199  26.007  36.108  14.471
48474W        W20200  41.495  27.480   2.371
48475W        W20201  39.443  28.245   2.208
48476W        W20202  17.722  24.214  14.484
48477W        W20203  18.054  30.079  14.920
48478W        W20204  17.041  37.570   1.438
48479W        W20205  26.046  38.200  13.557
48480W        W20206   5.196  30.482  11.968
48481W        W20207   1.801  18.199   4.041
48482W        W20208   2.571  14.652  11.980
48483W        W20209  29.709  38.819  10.581
48484W        W20210  21.123   9.100   1.180
48485W        W20211  42.780  15.318   2.673
48486W        W20212  15.647  16.226   1.360
48487W        W20213  14.725  10.205   4.567
48488W        W20214  43.948  41.479   0.375
48489W        W20215  24.493  38.673   4.687
48490W        W20216   1.935  28.686   0.883
48491W        W20217  42.307   6.429   1.551
48492W        W20218   2.242  11.337   1.807
48493W        W20219  11.203   8.098   3.887
48494W        W20220   4.947  42.928   0.017
48495W        W20221  22.508  14.169  14.349
48496W        W20222   3.674   5.151   3.620
48497W        W20223  17.103   6.231  13.763
48498W        W20224  42.948  30.872   0.448
48499W        W20225  13.292  31.619   4.143
48500W        W20226   3.726  35.726  11.051
48501W        W20227   6.762  43.061   0.467
48502W        W20228   3.829  13.895   3.984
48503W        W20229  33.850  14.791   2.360
48504W        W20230   6.230  43.455   4.499
48505W        W20231   5.539   6.836  14.772
48506W        W20232  35.664   7.586  14.403
48507W        W20233  34.226   2.485   2.311
48508W        W20234  17.405  17.563  11.082
48509W        W20235  20.598  25.181   5.076
48510W        W20236  28.207  23.760  11.555
48511W        W20237  22.680   9.681  14.672
48512W        W20238   7.014   3.186  12.559
48513W        W20239  18.469  18.571  14.113
48514W        W20240  39.611  42.251  12.054
48515W        W20241  34.961  19.244  10.687
48516W        W20242   5.205   8.549   0.027
48517W        W20243  36.517  38.960   2.712
48518W        W20244  42.736  12.618   4.727
48519W        W20245  39.855  40.892  11.385
48520W        W20246  14.093   4.320   0.362
48521W        W20247  41.424  44.459  14.029
48522W        W20248   8.644  10.449  11.986
48523W        W20249   2.251  10.198  11.509
48524W        W20250  35.124  32.259  14.270
48525W        W20251  25.092   9.736  13.194
48526W        W20252   1.232  16.972   2.776
48527W        W20253  32.581  18.819   3.280
48528W        W20254  34.088  23.034  14.443
48529W        W20255   6.184  35.487  10.503
48530W        W20256  39.046  41.113  12.001
48531W        W20257  37.088  18.522  11.653
48532W        W20258  20.092  25.231   5.092
48533W        W20259   2.545  35.621   4.300
48534W        W20260   6.210  36.368  14.041
48535W        W20261   6.208   4.271  12.928
48536W        W20262  20.325  35.433  13.587
48537W        W20263  24.552  26.685  13.301
48538W        W20264  10.574  21.512  13.133
48539W        W20265   5.709  11.006  10.741
48540W        W20266   8.833   7.077  12.807
48541W        W20267  22.263  36.394   3.717
48542W        W20268  25.870  11.808  13.935
48543W        W20269   3.297  22.335   5.014
48544W        W20270  43.221   3.209   4.141
48545W        W20271   7.731  22.787  13.929
48546W        W20272   8.862  42.780  14.480
48547W        W20273  40.839  21.582  13.438
48548W        W20274  40.194   1.712   4.750
48549W        W20275  12.433   3.408   2.795
48550W        W20276  29.526  37.216   1.996
48551W        W20277   6.619  17.632   3.119
48552W        W20278   2.079   3.497  11.004
48553W        W20279  41.285  41.418  12.988
48554W        W20280  43.234  30.653   2.852
48555W        W20281  25.621  16.215   0.665
48556W        W20282  32.099  38.531  13.675
48557W        W20283   4.825  14.617  10.957
48558W        W20284  32.943   5.974  11.712
48559W        W20285  17.153   8.910   3.054
48560W        W20286  37.799  20.098  13.512
48561W        W20287  26.308  10.826  11.783
48562W        W20288  15.617  39.392   3.091
48563W        W20289  20.674  32.948  12.381
48564W        W20290  35.186  34.031  13.039
48565W        W20291  38.449   5.277  12.585
48566W        W20292  32.269   9.210   4.689
48567W        W20293  21.076  30.978  14.282
48568W        W20294  26.387   1.416  14.026
48569W        W20295  42.712  14.058  11.273
48570W        W20296   8.237  29.313   2.569
48571W        W20297  24.582  28.939   0.425
48572W        W20298  23.911  42.816   0.294
48573W        W20299   4.362  22.186   1.805
48574W        W20300  33.079  12.569   3.750
48575W        W20301   4.497  20.027   4.542
48576W        W20302  28.937  39.687   4.009
48577W        W20303  32.071  32.717   1.255
48578W        W20304  31.529   6.721  12.478
48579W        W20305  43.446  29.464   4.079
48580W        W20306  40.945  24.715  11.743
48581W        W20307  26.485  27.268  13.489
48582W        W20308  11.412   8.422   4.321
48583W        W20309  44.510   7.908  12.624
48584W        W20310  25.335  20.685   3.582
48585W        W20311  14.879  19.738   4.200
48586W        W20312  27.578   6.226   4.079
48587W        W20313  41.294  21.252   9.814
48588W        W20314   5.343   6.228   9.783
48589W        W20315  15.791   2.035   1.780
48590W        W20316   2.048  20.331   1.738
48591W        W20317   7.254  39.902   1.475
48592W        W20318  32.879  34.848  10.829
48593W        W20319  19.569   9.568  14.427
48594W        W20320  14.594  38.027   0.507
48595W        W20321   6.901   3.481  14.490
48596W        W20322  17.122   9.282   4.003
48597W        W20323  24.775  33.118  11.411
48598W        W20324  35.846  34.915   1.979
48599W        W20325  42.868  31.450  14.538
48600W        W20326  23.773  40.939   2.331
48601W        W20327  27.557  31.213   1.658
48602W        W20328   5.039  22.108   4.900
48603W        W20329  37.510   2.483   1.914
48604W        W20330  37.708  43.274  14.455
48605W        W20331  18.737  30.525   1.551
48606W        W20332  23.057  13.251   4.256
48607W        W20333   2.774  20.563  12.211
48608W        W20334  32.927  43.483   4.290
48609W        W20335  24.198  15.798   1.429
48610W        W20336  38.793  38.879   2.413
48611W        W20337   4.879  16.381  11.008
48612W        W20338  13.155  14.852  11.549
48613W        W20339  28.153  33.937   1.199
48614W        W20340  10.307  10.781   0.564
48615W        W20341   5.632  16.353  10.788
48616W        W20342  14.015  22.603   1.780
48617W        W20343   0.229  28.076   1.964
48618W        W20344  23.000  23.991  10.735
48619W        W20345   9.620  44.541  11.156
48620W        W20346  30.524  35.601  12.439
48621W        W20347   0.420  34.556  10.442
48622W        W20348   4.445  39.049  11.977
48623W        W20349   3.380   4.446  13.828
48624W        W20350  31.652  28.449   2.682
48625W        W20351  15.856  16.838   4.255
48626W        W20352  10.701  21.522  11.077
48627W        W20353  30.987  30.558   4.530
48628W        W20354  15.790  16.808  13.591
48629W        W20355  26.939   3.166  12.375
48630W        W20356   7.818   4.408  10.837
48631W        W20357   6.340   2.295   4.266
48632W        W20358  41.821  15.776   0.106
48633W        W20359  24.142  38.391  12.108
48634W        W20360  44.401  13.049  12.886
48635W        W20361  17.349  10.366   1.883
48636W        W20362  31.053  40.364   0.872
48637W        W20363  36.647  44.712  12.492
48638W        W20364  16.275  24.605  10.967
48639W        W20365  40.267  16.657  14.282
48640W        W20366  36.016  38.886   2.802
48641W        W20367  44.020  15.970   3.257
48642W        W20368  21.725  20.849  13.549
48643W        W20369  25.641  40.379   0.134
48644W        W20370  19.188  31.501   1.854
48645W        W20371   7.773  39.110   2.299
48646W        W20372  27.602  22.012  10.821
48647W        W20373  22.304   6.325   4.649
48648W        W20374  39.847  34.039  14.786
48649W        W20375  30.174   5.801  11.636
48650W        W20376  37.979  43.033   0.746
48651W        W20377  36.594  25.614  13.441
48652W        W20378  27.548  36.324   1.932
48653W        W20379  12.912  18.106  11.652
48654W        W20380  38.467  13.444  12.460
48655W        W20381  27.511  36.484  11.883
48656W        W20382  36.313  40.464  11.081
48657W        W20383  12.621  38.866   1.837
48658W        W20384  31.148  17.886   0.279
48659W        W20385   6.404  35.440  12.430
48660W        W20386  16.120  40.403   2.243
48661W        W20387  36.906  35.373   2.377
48662W        W20388  20.993   0.425   0.892
48663W        W20389  21.828  37.723   3.942
48664W        W20390  34.850   2.867   4.241
48665W        W20391  21.515  43.058  12.226
48666W        W20392  15.136  28.906  12.898
48667W        W20393  11.319   8.772  12.767
48668W        W20394  36.040  39.527   2.494
48669W        W20395   0.244  21.561   1.861
48670W        W20396  32.434  16.261  11.201
48671W        W20397  11.562  34.429  13.427
48672W        W20398   6.721   5.245   2.264
48673W        W20399  42.282  27.397   0.962
48674W        W20400  40.925  18.524   4.731
48675W        W20401  36.140  13.716   3.101
48676W        W20402  23.218   3.208   2.561
48677W        W20403  43.734  34.542  14.375
48678W        W20404  32.205  13.743   0.472
48679W        W20405   9.864  29.880  11.358
48680W        W20406  31.218  18.296  11.556
48681W        W20407  40.795  35.225  13.044
48682W        W20408  25.151  32.927   2.531
48683W        W20409  36.620  16.824   3.648
48684W        W20410  14.351  44.563   5.006
48685W        W20411  22.567  40.589   0.637
48686W        W20412  16.382   3.271   1.838
48687W        W20413  16.326  12.233  10.964
48688W        W20414  38.372  39.482  10.575
48689W        W20415   4.395  39.873  10.936
48690W        W20416   6.712  38.015  14.746
48691W        W20417  39.328  29.622  12.940
48692W        W20418  32.657  29.294   1.919
48693W        W20419  35.410  29.651   0.818
48694W        W20420  14.299  28.755   2.461
48695W        W20421   2.985  33.336  11.601
48696W        W20422   8.434   3.371   1.640
48697W        W20423  39.251  32.529  12.678
48698W        W20424  17.303   2.453   2.137
48699W        W20425  41.204   6.780   5.012
48700W        W20426   2.290  25.251   4.273
48701W        W20427  42.968   0.268  11.625
48702W        W20428  24.143   6.361  12.567
48703W        W20429   5.105   0.829   1.962
48704W        W20430  27.190  42.981  13.972
48705W        W20431   5.272  33.407   1.746
48706W        W20432  32.438  35.065  14.537
48707W        W20433  16.044  15.129   2.784
48708W        W20434  17.233  20.918  10.244
48709W        W20435  17.037  42.096   3.439
48710W        W20436  40.463   8.863   1.813
48711W        W20437  20.736  44.290  11.369
48712W        W20438  42.578  16.120  12.982
48713W        W20439  17.398  31.220  13.531
48714W        W20440  40.097  37.433  12.822
48715W        W20441  11.549   1.449   5.067
48716W        W20442  10.764   9.154   0.681
48717W        W20443  28.473  30.427  12.246
48718W        W20444  28.098  25.098  11.679
48719W        W20445  39.275  16.081   3.461
48720W        W20446  13.741  20.824  12.501
48721W        W20447   9.768  24.857   0.162
48722W        W20448  24.528  34.363  14.911
48723W        W20449   1.878  23.981   0.450
48724W        W20450   3.345  31.747  13.643
48725W        W20451  15.321  32.967  13.611
48726W        W20452  42.744  43.995   0.430
48727W        W20453  31.090  30.252   2.738
48728W        W20454  21.644  37.355  11.366
48729W        W20455   4.300  10.651  11.628
48730W        W20456   7.411  34.627  10.545
48731W        W20457   2.394  36.532   3.310
48732W        W20458  33.456  26.257   1.837
48733W        W20459  30.126  40.762  11.555
48734W        W20460  43.738  17.852   2.137
48735W        W20461   2.349  44.841  10.674
48736W        W20462  29.470  22.056   1.894
48737W        W20463  13.629  33.074  12.524
48738W        W20464  31.645  30.051  11.492
48739W        W20465  23.565  21.254  13.833
48740W        W20466  31.057  19.525  11.168
48741W        W20467  12.626   8.309  13.022
48742W        W20468   0.291  19.223   2.335
48743W        W20469  22.280  19.622  12.155
48744W        W20470  34.754  13.971  12.417
48745W        W20471   7.535  38.058  11.963
48746W        W20472   2.209  37.865   0.025
48747W        W20473   7.295  44.702   4.068
48748W        W20474  33.048  17.812  14.949
48749W        W20475   3.103  40.355  12.058
48750W        W20476  26.261  31.093  12.069
48751W        W20477   9.835  38.923   0.474
48752W        W20478  23.627  43.269  10.530
48753W        W20479   6.639  15.259   1.937
48754W        W20480  20.032  31.342   4.049
48755W        W20481   3.595   8.220   0.487
48756W        W20482  13.208  34.388   2.616
48757W        W20483  33.108  33.461   3.157
48758W        W20484   3.913  14.044  12.601
48759W        W20485  13.284  13.843   0.921
48760W        W20486  32.188  38.980   2.210
48761W        W20487  28.931  13.782  13.325
48762W        W20488   9.060  39.860  14.995
48763W        W20489  36.119   3.476   1.856
48764W        W20490   5.023  29.534  13.524
48765W        W20491  12.865  22.113  12.966
48766W        W20492  37.905  38.068  13.455
48767W        W20493  26.241  15.608   1.830
48768W        W20494  39.708  32.718  13.092
48769W        W20495  16.654  24.757  13.511
48770W        W20496  38.779  30.233   3.400
48771W        W20497  19.108  26.732   4.156
48772W        W20498  26.061  33.237  14.898
48773W        W20499  24.445   9.698  10.729
48774W        W20500  40.850  38.366   2.779
48775W        W20501  15.227  11.039   3.710
48776W        W20502  11.884   0.690  13.630
48777W        W20503   5.444  10.003   4.557
48778W        W20504  18.373  24.606   0.522
48779W        W20505  16.230  29.980  12.625
48780W        W20506  25.525  44.847   1.395
48781W        W20507  22.769  44.852  12.968
48782W        W20508  18.066  25.666  14.749
48783W        W20509  11.818  22.508   5.013
48784W        W20510  26.497   5.259   0.283
48785W        W20511  35.712  31.876  11.102
48786W        W20512  25.793  38.112   1.623
48787W        W20513  43.113  24.241   2.754
48788W        W20514  40.956  41.037  10.952
48789W        W20515   9.468  37.919   1.003
48790W        W20516  34.366  23.796  12.622
48791W        W20517  34.225  12.141  13.430
48792W        W20518  10.698  26.127   3.734
48793W        W20519  19.006   2.004  13.119
48794W        W20520   9.635  12.557   1.764
48795W        W20521  44.762  13.476   2.771
48796W        W20522  10.681  23.740   2.252
48797W        W20523  12.072  13.027  12.606
48798W        W20524  17.544  41.365  12.948
48799W        W20525   2.233  42.715  11.111
48800W        W20526  23.792  10.797  13.888
48801W        W20527  24.249   2.693  11.126
48802W        W20528   8.911  36.958   0.893
48803W        W20529  28.342  21.223  11.213
48804W        W20530  28.565  43.371   0.899
48805W        W20531  21.244  26.346  13.605
48806W        W20532  20.604  36.367  10.873
48807W        W20533   0.343   3.879   1.265
48808W        W20534  30.889  13.598  13.527
48809W        W20535  18.358  29.994   2.667
48810W        W20536  40.360  14.864   4.133
48811W        W20537  26.542  11.645  10.701
48812W        W20538  17.770  18.044   1.193
48813W        W20539   1.505  31.136   0.883
48814W        W20540   6.320   0.023   1.271
48815W        W20541  36.505  10.138   1.931
48816W        W20542  33.318  42.338  13.886
48817W        W20543   9.813  10.545   4.133
48818W        W20544  24.029  26.482  14.006
48819W        W20545  44.827  40.796  13.562
48820W        W20546   2.432  24.600  12.844
48821W        W20547  10.715   5.865  11.062
48822W        W20548   8.172   5.963  10.626
48823W        W20549  33.029   4.310  12.125
48824W        W20550  36.541   1.164  10.706
48825W        W20551  32.136  41.405   1.792
48826W        W20552  35.045   5.207  13.969
48827W        W20553  12.986   8.771   3.348
48828W        W20554  27.226   7.554   4.068
48829W        W20555  21.312   1.801  12.515
48830W        W20556  11.810  32.145   3.388
48831W        W20557  37.031   1.924   0.188
48832W        W20558  13.353  18.031  12.920
48833W        W20559  32.641  38.816   3.083
48834W        W20560   6.362   1.023  13.565
48835W        W20561  12.232   6.321   3.930
48836W        W20562   3.742  28.819  14.559
48837W        W20563   0.414  39.372  10.580
48838W        W20564   5.954  25.197  14.472
48839W        W20565  19.953  31.688  14.503
48840W        W20566   5.315   4.628   5.392
48841W        W20567   9.049  31.566   4.570
48842W        W20568   0.990  19.320   3.096
48843W        W20569  28.873  29.836   4.619
48844W        W20570   1.904   0.845  12.413
48845W        W20571  16.535   1.314   4.603
48846W        W20572  38.053  39.386   0.323
48847W        W20573  20.027   3.375  13.778
48848W        W20574  34.582  10.744  11.448
48849W        W20575  31.644  11.267   4.133
48850W        W20576  21.252  16.441  13.389
48851W        W20577  39.543  42.471  13.528
48852W        W20578  43.019   8.391   2.243
48853W        W20579   8.198  17.095  13.470
48854W        W20580  35.015  43.996   3.688
48855W        W20581  22.145  19.604  10.644
48856W        W20582  36.419  16.016  13.989
48857W        W20583  30.948   8.162   4.609
48858W        W20584   4.432   7.320   4.654
48859W        W20585  13.290  14.115   1.921
48860W        W20586   1.974  16.300  10.981
48861W        W20587  20.682  32.389  11.495
48862W        W20588  44.781  26.395   3.860
48863W        W20589  21.185   2.981   3.544
48864W        W20590   9.889  30.193  14.525
48865W        W20591  36.933  29.607  14.444
48866W        W20592  31.395   0.943  13.817
48867W        W20593  38.385  36.546   3.881
48868W        W20594  32.684  15.870  10.536
48869W        W20595  19.717  44.984  14.575
48870W        W20596   0.767   9.513   2.692
48871W        W20597  41.596  20.235   2.260
48872W        W20598  12.880  37.390   4.601
48873W        W20599   2.408  17.796   2.238
48874W        W20600  43.347   0.815   1.223
48875W        W20601  37.945  41.493   2.948
48876W        W20602  23.069  37.051   0.889
48877W        W20603  44.463   0.514  11.845
48878W        W20604  42.614  40.257   2.317
48879W        W20605  35.422   9.359  13.912
48880W        W20606  11.424  19.041  10.607
48881W        W20607   6.434  37.596   3.656
48882W        W20608  24.722  10.851  13.132
48883W        W20609  41.283  28.731  12.396
48884W        W20610  42.794  16.816   4.323
48885W        W20611  22.488  10.866  11.466
48886W        W20612  12.543  25.149  11.558
48887W        W20613  10.257  13.413   1.890
48888W        W20614   5.841  41.889  11.549
48889W        W20615  29.412  10.362   5.067
48890W        W20616  28.561  29.620   1.209
48891W        W20617  43.209   4.790   0.964
48892W        W20618  25.568   2.955  13.981
48893W        W20619  41.758   7.223   2.297
48894W        W20620   7.942   5.642  12.401
48895W        W20621  38.493  20.111   2.137
48896W        W20622  12.798  28.058  12.475
48897W        W20623   7.340  12.559   3.384
48898W        W20624  22.078  30.117  11.702
48899W        W20625  19.744  40.409  13.523
48900W        W20626  21.028   1.399   0.244
48901W        W20627   0.466  16.118  13.872
48902W        W20628   1.494  18.599   3.395
48903W        W20629  23.763  12.821  12.293
48904W        W20630  36.365  13.134  13.927
48905W        W20631  20.020  33.828   0.229
48906W        W20632  36.984  32.009  12.703
48907W        W20633   8.209  15.772   3.679
48908W        W20634  20.645  29.669   0.904
48909W        W20635  36.545  27.709  11.358
48910W        W20636  43.350  39.742  14.399
48911W        W20637   7.798   6.789  14.852
48912W        W20638  13.234  10.600  12.879
48913W        W20639  22.410   7.584   1.243
48914W        W20640  44.258  11.154   4.643
48915W        W20641  31.973  25.547   1.691
48916W        W20642  32.120  36.293  11.649
48917W        W20643   3.840  30.538  10.734
48918W        W20644   2.719  18.064  14.455
48919W        W20645  17.016  44.218  12.541
48920W        W20646  38.346  33.449   2.497
48921W        W20647  21.223  31.127  11.510
48922W        W20648  37.082  24.096   2.285
48923W        W20649  38.083  39.096   1.946
48924W        W20650  16.465  41.730   2.840
48925W        W20651  31.593  36.479   4.035
48926W        W20652  13.572  20.761  11.529
48927W        W20653  35.861  36.952   4.076
48928W        W20654  39.616  12.221  14.798
48929W        W20655   3.879   2.212   3.690
48930W        W20656  37.691  34.422   4.268
48931W        W20657  22.621  34.619   9.938
48932W        W20658   1.391  18.745   0.963
48933W        W20659  10.193   4.361   4.630
48934W        W20660  18.972  31.090   0.584
48935W        W20661  19.213  22.717  10.508
48936W        W20662   3.713  26.892  10.528
48937W        W20663  21.084  38.765   3.291
48938W        W20664  27.375  11.246  13.030
48939W        W20665  19.289  14.056   0.834
48940W        W20666  33.458   6.905  13.538
48941W        W20667  14.883  15.161  12.807
48942W        W20668  39.404  25.397  12.835
48943W        W20669  24.215  38.541   2.288
48944W        W20670  20.187  39.093   0.698
48945W        W20671  27.641  11.755  11.477
48946W        W20672  12.282  44.241  14.424
48947W        W20673  32.156  22.557  13.491
48948W        W20674  36.421  40.282   3.139
48949W        W20675  16.118  27.032   1.768
48950W        W20676  31.935  35.191   3.696
48951W        W20677  43.845   5.253   0.035
48952W        W20678  20.746   6.706   3.767
48953W        W20679  32.965  15.664   0.994
48954W        W20680   9.766  22.769   5.420
48955W        W20681  18.746  10.045   3.166
48956W        W20682   9.040  30.955   3.081
48957W        W20683  28.128  26.122  11.221
48958W        W20684   8.631  14.126   4.735
48959W        W20685   2.466  42.817  14.981
48960W        W20686  32.056   5.766  14.576
48961W        W20687  11.799  24.006  11.383
48962W        W20688  27.606  11.376  12.550
48963W        W20689  22.513  10.339   3.630
48964W        W20690  15.520  25.999  12.492
48965W        W20691  40.066  31.775   2.561
48966W        W20692  36.770  35.314   3.539
48967W        W20693   1.803  17.902  13.153
48968W        W20694  44.832  38.942  11.174
48969W        W20695  26.679  15.774  14.844
48970W        W20696  15.299  43.730   2.903
48971W        W20697   4.442  41.929   2.168
48972W        W20698  20.979  22.046   3.626
48973W        W20699   4.558  17.530   1.468
48974W        W20700  17.850   1.830   4.283
48975W        W20701  13.752   1.259   3.956
48976W        W20702   7.301  11.073   3.183
48977W        W20703  35.303  25.854  11.618
48978W        W20704  27.462  42.900  11.098
48979W        W20705  17.644  15.330  10.677
48980W        W20706  27.719  24.074  12.120
48981W        W20707  15.869  43.728  13.461
48982W        W20708  38.581  24.245   3.241
48983W        W20709  29.769  32.630   5.005
48984W        W20710  43.992  34.006  14.430
48985W        W20711  26.097  36.439   1.222
48986W        W20712  32.346  26.981  11.450
48987W        W20713  11.198  31.961   1.316
48988W        W20714  16.048  28.481  13.855
48989W        W20715  40.364  43.127   2.622
48990W        W20716   3.444  38.498   2.227
48991W        W20717  12.822  13.164   4.149
48992W        W20718  33.077  34.089   3.730
48993W        W20719  43.270   6.910  11.872
48994W        W20720  44.034  24.134   2.217
48995W        W20721  20.895  15.331   2.666
48996W        W20722  41.531  17.316   2.854
48997W        W20723  10.507  41.240   2.689
48998W        W20724  44.395  18.135   2.870
48999W        W20725   0.678  24.982  12.361
49000W        W20726  43.565  15.632  10.478
49001W        W20727  30.827  36.942  14.417
49002W        W20728  44.782  24.251   0.003
49003W        W20729  25.043  30.923   0.490
49004W        W20730  21.562   6.189   1.081
49005W        W20731  23.471  13.150   4.984
49006W        W20732  26.453  41.765   2.405
49007W        W20733  33.833  43.081   0.365
49008W        W20734  12.568  14.152   4.588
49009W        W20735  19.774  18.519   4.583
49010W        W20736  18.167   3.538  12.777
49011W        W20737  35.496  38.459  14.333
49012W        W20738   5.406   3.625   3.624
49013W        W20739   5.716  42.852   4.137
49014W        W20740  30.639  29.021   3.175
49015W        W20741  40.442  22.224   1.845
49016W        W20742  14.694  39.827   2.261
49017W        W20743  11.068  30.308   1.150
49018W        W20744  28.158  23.085  12.113
49019W        W20745   7.389  20.633  14.357
49020W        W20746  33.073  34.925   1.321
49021W        W20747  28.131   3.268   3.726
49022W        W20748  40.750  24.186  13.773
49023W        W20749  15.847  33.158   3.704
49024W        W20750  22.581   6.948   0.251
49025W        W20751  29.836  26.424   4.218
49026W        W20752  40.040  37.869  13.108
49027W        W20753   6.582  43.053   1.242
49028W        W20754  20.627  14.639   0.126
49029W        W20755  28.099  21.681  13.847
49030W        W20756  25.975   8.652   3.314
49031W        W20757  26.314  27.390  10.038
49032W        W20758  16.677  30.408   1.907
49033W        W20759  36.609   5.953   3.447
49034W        W20760  16.323  21.683  11.716
49035W        W20761   2.794  40.801  13.505
49036W        W20762   3.437  41.938   3.184
49037W        W20763  32.574  23.851   9.816
49038W        W20764  18.497  19.368  10.268
49039W        W20765  20.251  13.887   0.462
49040W        W20766  15.803   1.393  10.773
49041W        W20767  26.601  13.913   3.271
49042W        W20768  10.404  29.182  12.869
49043W        W20769  17.053  40.832  13.430
49044W        W20770  39.986   5.581  12.364
49045W        W20771  35.610  34.383   3.733
49046W        W20772  23.168  17.745  10.693
49047W        W20773  37.051  29.647  13.044
49048W        W20774   4.241  42.997   0.196
49049W        W20775   2.268   9.085  12.550
49050W        W20776  28.217  42.320   3.753
49051W        W20777  18.353  18.329   2.714
49052W        W20778  33.898   8.486  10.105
49053W        W20779   5.949  10.678  11.583
49054W        W20780  29.735  12.287   3.582
49055W        W20781   8.931  34.372   5.028
49056W        W20782   6.132   9.228  10.383
49057W        W20783  30.868  25.070   2.917
49058W        W20784  15.053  36.783  13.511
49059W        W20785  21.283   3.756  12.566
49060W        W20786   4.412  17.108   4.854
49061W        W20787   5.976   9.258   0.831
49062W        W20788  15.380   0.352   1.703
49063W        W20789   7.568  23.332  13.170
49064W        W20790  15.287  28.025  12.020
49065W        W20791   4.819  38.475   3.109
49066W        W20792  37.554  17.241   4.528
49067W        W20793  34.755   4.858  10.759
49068W        W20794  41.032  13.312  12.500
49069W        W20795  11.941  27.142   4.820
49070W        W20796   8.712  42.481  10.580
49071W        W20797  11.211  20.802  11.013
49072W        W20798  41.598   8.788  11.173
49073W        W20799  35.515   1.881   0.214
49074W        W20800   9.697  16.666  12.818
49075W        W20801  17.049  10.110  11.570
49076W        W20802   9.309   2.286  11.629
49077W        W20803  32.085   3.762  14.794
49078W        W20804  19.002  25.695  10.512
49079W        W20805  23.464  28.156   5.163
49080W        W20806  13.265   2.764  14.695
49081W        W20807   1.818  15.022  12.217
49082W        W20808  23.639  38.639   3.842
49083W        W20809   2.635  33.759  13.865
49084W        W20810  25.913  43.359  10.617
49085W        W20811  15.213  18.261  14.350
49086W        W20812  41.492  37.712   3.789
49087W        W20813  23.459  40.430   3.152
49088W        W20814   6.560   7.672  14.898
49089W        W20815  19.202   9.291  13.633
49090W        W20816  20.790   3.366   3.536
49091W        W20817  32.324   0.988   3.845
49092W        W20818  42.408   1.329  13.520
49093W        W20819  29.427  20.945   4.538
49094W        W20820   4.766  11.111  14.806
49095W        W20821  39.543  25.224   3.115
49096W        W20822   0.922   6.755   4.375
49097W        W20823  39.027   9.305   1.333
49098W        W20824  32.441  12.141  13.648
49099W        W20825  24.918  30.721   4.137
49100W        W20826  28.389  22.683  14.762
49101W        W20827  43.247  26.181   0.703
49102W        W20828  10.517  15.228  12.313
49103W        W20829  23.284  21.288   4.890
49104W        W20830   8.861  30.574   1.502
49105W        W20831  43.296  37.308   0.606
49106W        W20832  34.005  29.956  14.028
49107W        W20833  26.948  10.450  13.205
49108W        W20834  35.150  23.710  11.425
49109W        W20835  13.463  27.904   4.272
49110W        W20836  28.482   9.147  13.523
49111W        W20837  40.089  17.494  11.193
49112W        W20838  33.826  44.481   0.495
49113W        W20839   7.378  37.852  12.975
49114W        W20840   1.210  40.101   0.444
49115W        W20841   4.498  17.498  14.222
49116W        W20842  24.555   8.251  13.438
49117W        W20843  10.859  25.512   5.655
49118W        W20844  37.470  27.487  10.665
49119W        W20845   8.106   0.399   1.755
49120W        W20846  17.539  42.427  13.460
49121W        W20847  11.611  29.144  12.065
49122W        W20848  10.668   6.462   0.362
49123W        W20849  30.918  34.597   4.180
49124W        W20850  23.356  14.120  12.695
49125W        W20851   1.718   8.095   4.295
49126W        W20852  33.870  19.539  12.158
49127W        W20853  35.517   2.325  11.132
49128W        W20854  36.626   7.106  10.187
49129W        W20855  10.934   5.969  13.327
49130W        W20856  12.822  40.822  14.938
49131W        W20857  23.145  34.169  14.215
49132W        W20858   2.228  30.474  12.418
49133W        W20859  19.192  12.437   1.290
49134W        W20860  16.701  29.444   1.935
49135W        W20861   0.422  11.409   2.633
49136W        W20862  12.143  25.644   2.191
49137W        W20863  27.212  23.481   3.501
49138W        W20864   1.737  29.073   3.609
49139W        W20865   5.699   7.741  11.869
49140W        W20866  16.749  15.348  10.711
49141W        W20867  17.187  33.650   3.388
49142W        W20868  27.403   7.944  12.069
49143W        W20869  22.966  40.276  11.744
49144W        W20870  14.854  16.386  11.558
49145W        W20871  40.690   0.469   1.046
49146W        W20872  25.074  28.932  13.371
49147W        W20873  40.321  38.434  11.073
49148W        W20874  21.969  26.663   1.932
49149W        W20875  11.944   3.340   0.840
49150W        W20876  30.576   5.877   0.968
49151W        W20877  30.107   2.713  13.371
49152W        W20878   2.854  15.557   4.762
49153W        W20879  10.330  37.411   0.814
49154W        W20880  10.250  39.570  13.553
49155W        W20881  27.267  34.096  12.561
49156W        W20882  41.589  30.356  13.081
49157W        W20883  39.632  26.057   2.766
49158W        W20884   4.381  19.708   2.837
49159W        W20885   8.358  41.744   4.879
49160W        W20886  27.321  22.989  11.442
49161W        W20887   9.162   7.222  12.423
49162W        W20888  15.361  13.121   2.408
49163W        W20889  15.703  15.784   2.161
49164W        W20890  18.012   3.727   0.199
49165W        W20891   6.876  24.397   3.704
49166W        W20892  26.284  16.230   3.134
49167W        W20893  10.214  33.687  10.363
49168W        W20894  34.468  19.059   1.632
49169W        W20895  40.481  42.231   4.403
49170W        W20896  33.582  36.605  12.028
49171W        W20897  34.461  21.656  13.870
49172W        W20898  40.946  22.122   0.629
49173W        W20899   8.450  37.261  11.555
49174W        W20900  34.936  26.983   1.880
49175W        W20901  25.906  36.059  11.558
49176W        W20902   2.483   2.602   2.622
49177W        W20903  39.274  30.446  12.495
49178W        W20904   8.758  22.223  12.362
49179W        W20905  14.693   5.342   3.510
49180W        W20906   4.275  44.892  12.994
49181W        W20907  38.702   1.733  14.195
49182W        W20908  38.479  38.018  10.455
49183W        W20909  27.937   9.213   0.636
49184W        W20910  38.123  12.094   3.104
49185W        W20911  18.578  23.682  13.886
49186W        W20912  37.594  20.461   1.335
49187W        W20913  20.800  27.020   2.882
49188W        W20914  18.685  38.071  11.871
49189W        W20915   6.873  37.349  10.630
49190W        W20916   8.308  23.718  12.031
49191W        W20917  10.755   8.468   3.051
49192W        W20918   4.962  13.807  12.390
49193W        W20919   2.043   0.231   1.241
49194W        W20920  37.378  25.485   3.441
49195W        W20921  18.528  26.141   2.800
49196W        W20922  33.197  26.001   0.247
49197W        W20923   4.316  19.553  11.006
49198W        W20924  27.945  15.312  14.082
49199W        W20925  42.352  15.785   2.292
49200W        W20926  43.819  17.458   2.493
49201W        W20927   5.184  44.837  11.133
49202W        W20928  38.239  18.158   2.738
49203W        W20929   0.870  20.606  11.622
49204W        W20930  11.369  20.743   0.328
49205W        W20931   9.323  29.568   2.824
49206W        W20932  16.165  39.244   4.815
49207W        W20933  33.495  27.958  11.649
49208W        W20934  38.886  16.534   4.257
49209W        W20935  18.572   8.193  14.932
49210W        W20936  15.842  26.368   3.644
49211W        W20937  11.722  36.183   5.045
49212W        W20938   5.142  31.410   4.661
49213W        W20939  32.942   0.337   1.428
49214W        W20940   4.940  41.854   1.395
49215W        W20941   7.239  13.761   0.989
49216W        W20942  41.949  28.420  14.790
49217W        W20943  43.868  41.518  12.191
49218W        W20944   2.130  29.965   1.309
49219W        W20945   8.341  22.970   0.923
49220W        W20946  39.498  40.062  14.509
49221W        W20947   5.649   0.987   4.220
49222W        W20948  23.596  41.963   2.127
49223W        W20949   3.977  35.116  14.413
49224W        W20950   2.318  23.538  13.393
49225W        W20951   4.410   1.277  14.909
49226W        W20952  15.747  18.710   3.125
49227W        W20953   3.748  28.711  10.684
49228W        W20954  18.660   0.862   3.600
49229W        W20955  14.206  11.714  10.717
49230W        W20956  17.736  10.084  13.777
49231W        W20957  32.998  15.360  13.373
49232W        W20958  27.587  42.559  12.488
49233W        W20959  22.056   4.158   0.800
49234W        W20960  38.433  27.959  12.656
49235W        W20961  30.142  38.270  13.029
49236W        W20962  34.957  41.751   0.490
49237W        W20963  40.776  15.827  13.494
49238W        W20964   0.076  30.887   0.209
49239W        W20965  42.261  44.270   1.371
49240W        W20966  44.874  41.343   1.190
49241W        W20967   0.486  25.174   1.783
49242W        W20968  36.884   3.458   3.614
49243W        W20969  16.246  19.830   1.210
49244W        W20970  25.157  40.543  13.817
49245W        W20971   1.245  34.346  10.710
49246W        W20972  36.114   7.284   3.311
49247W        W20973  33.583  44.793  13.624
49248W        W20974  12.655  30.563   2.655
49249W        W20975  40.899  16.111  11.667
49250W        W20976  16.279   3.749  11.680
49251W        W20977  39.608  44.360   2.302
49252W        W20978  22.524  31.701   4.170
49253W        W20979  43.873  22.137  10.361
49254W        W20980  41.822  28.147   0.203
49255W        W20981  11.842  20.728   2.388
49256W        W20982  20.520  20.083  13.615
49257W        W20983  14.490  10.172   4.099
49258W        W20984  22.746  13.308  11.621
49259W        W20985  24.608   2.502  12.259
49260W        W20986  38.824  15.619  13.467
49261W        W20987  15.197  29.007  12.388
49262W        W20988  23.079  15.704  11.538
49263W        W20989  43.779  41.026   2.578
49264W        W20990  23.158  23.628  11.140
49265W        W20991  34.353  22.469   4.463
49266W        W20992  13.767   0.916   0.755
49267W        W20993  39.943  11.883   0.189
49268W        W20994  20.073  34.403  12.694
49269W        W20995  40.810  37.006   3.370
49270W        W20996  28.029  41.999   4.096
49271W        W20997  17.027  15.139   2.768
49272W        W20998  21.118  13.830   3.333
49273W        W20999  38.810  34.600   3.547
49274W        W21000  23.041  17.374   0.867
49275W        W21001  23.086  31.012   4.208
49276W        W21002  41.801  29.904   2.336
49277W        W21003   3.343  34.036  14.684
49278W        W21004  39.296   4.687   3.286
49279W        W21005   7.359  31.450   0.410
49280W        W21006  27.051  22.776  14.996
49281W        W21007  12.770  36.534   4.552
49282W        W21008  11.445  33.953  12.090
49283W        W21009  16.019   0.765   0.503
49284W        W21010  44.825   0.737   0.268
49285W        W21011  15.351  19.548   1.996
49286W        W21012   5.555  33.918  13.817
49287W        W21013   7.783  36.942  13.441
49288W        W21014   0.765  35.206   1.466
49289W        W21015   4.669   7.126   2.443
49290W        W21016  31.073  36.618   2.676
49291W        W21017  43.201  38.363  12.910
49292W        W21018   2.391  43.210  14.078
49293W        W21019  33.913  31.160  12.966
49294W        W21020  27.113  43.717  11.597
49295W        W21021  16.295  43.023  11.209
49296W        W21022  41.867  27.987   2.772
49297W        W21023   4.780  41.947  12.525
49298W        W21024  44.305  29.785   3.707
49299W        W21025  19.084  41.618  14.834
49300W        W21026   6.199   4.568   4.099
49301W        W21027  23.281  24.141  13.077
49302W        W21028  21.796  18.036   4.563
49303W        W21029   9.217  35.513  11.373
49304W        W21030   5.943  13.419  13.986
49305W        W21031  37.445  29.434  13.802
49306W        W21032  22.600  37.811  11.117
49307W        W21033  19.227  30.544   2.940
49308W        W21034  17.890   7.735  10.650
49309W        W21035  32.454  39.090  10.300
49310W        W21036  35.995  41.454   1.748
49311W        W21037  26.619  18.818   1.661
49312W        W21038   3.760  15.708  10.966
49313W        W21039   7.879  33.644  11.087
49314W        W21040  26.647  13.041   4.540
49315W        W21041  19.674   8.715   2.725
49316W        W21042   0.747  28.653  11.854
49317W        W21043  36.166  23.523  12.730
49318W        W21044  42.887  36.444  13.130
49319W        W21045   0.515  17.542  12.134
49320W        W21046  24.708  34.515  12.852
49321W        W21047  23.504  38.357   4.855
49322W        W21048  18.791  21.625   0.961
49323W        W21049  28.818   2.173   0.011
49324W        W21050   7.782   4.073  13.558
49325W        W21051  18.003  13.255  11.283
49326W        W21052  14.284  34.377  14.015
49327W        W21053  42.939  42.068  14.435
49328W        W21054  20.645  27.697   3.095
49329W        W21055  27.515  25.527   2.735
49330W        W21056  20.039   2.020   3.263
49331W        W21057  42.533  30.607  13.799
49332W        W21058  21.194  33.283   0.218
49333W        W21059  44.004  25.564  11.057
49334W        W21060  21.138  15.667  11.507
49335W        W21061  35.550  37.918   1.865
49336W        W21062  39.575  15.647   2.680
49337W        W21063  30.588  40.717   3.586
49338W        W21064  13.119   2.672   1.629
49339W        W21065  31.026  24.533  14.778
49340W        W21066  26.740   9.674   0.739
49341W        W21067  40.594  23.679  14.441
49342W        W21068  21.309   8.803  13.020
49343W        W21069  16.063  29.273  14.337
49344W        W21070  34.121  42.254   0.399
49345W        W21071  15.628  34.232  10.731
49346W        W21072   1.893  23.247   1.814
49347W        W21073  24.209  27.692  14.118
49348W        W21074  24.596   8.797   3.889
49349W        W21075  40.414  38.495  12.025
49350W        W21076  25.677  44.407  14.348
49351W        W21077  36.690  33.972  14.307
49352W        W21078  15.839   1.020   1.703
49353W        W21079  21.762  32.014   4.889
49354W        W21080   1.040  17.951  14.508
49355W        W21081  23.011  26.713   0.899
49356W        W21082   0.038  22.796  11.007
49357W        W21083  42.464  26.359  12.857
49358W        W21084  32.870   2.342  10.723
49359W        W21085  29.462  24.205  14.226
49360W        W21086   1.761  13.113   0.771
49361W        W21087  34.929  37.080  14.284
49362W        W21088   2.313  22.142   1.629
49363W        W21089  21.786   8.113  12.612
49364W        W21090  35.854  17.247  11.217
49365W        W21091  18.416  40.584  14.341
49366W        W21092  17.021   2.298   0.794
49367W        W21093  39.503  33.027  10.854
49368W        W21094   1.927  25.366   2.857
49369W        W21095  19.116  12.313   4.293
49370W        W21096  17.599  19.847   2.885
49371W        W21097  15.716  44.925   0.322
49372W        W21098  43.311  15.152   2.540
49373W        W21099  39.305   6.221  14.247
49374W        W21100  16.040   4.932  11.350
49375W        W21101  21.498  11.711  10.006
49376W        W21102  15.339  10.375  12.186
49377W        W21103  30.206  31.579  13.333
49378W        W21104  21.203  44.390   2.690
49379W        W21105  27.549  30.119   2.533
49380W        W21106  12.267   4.453   2.027
49381W        W21107  43.256   1.627   2.356
49382W        W21108  34.072   4.304   0.447
49383W        W21109  11.791  16.978  13.402
49384W        W21110  33.267  28.004   4.178
49385W        W21111   4.833   6.736   2.881
49386W        W21112  39.607  36.245  12.510
49387W        W21113  44.453  40.483   2.889
49388W        W21114  10.911   3.441   3.644
49389W        W21115  29.144  35.385  14.839
49390W        W21116  41.869  11.702   0.252
49391W        W21117  25.954  34.259   2.417
49392W        W21118  39.069  36.932   0.778
49393W        W21119  28.659  22.288  13.419
49394W        W21120   5.643  27.860  12.351
49395W        W21121  40.394  12.883  14.860
49396W        W21122   7.950  16.267  11.864
49397W        W21123  18.803  11.299  14.758
49398W        W21124  36.386  23.059  11.136
49399W        W21125  39.089  33.202  11.121
49400W        W21126   1.527  39.391   2.852
49401W        W21127  19.835  34.334   3.762
49402W        W21128  33.756  25.540  11.581
49403W        W21129  22.853  44.914   4.642
49404W        W21130  31.146   9.359   1.413
49405W        W21131   5.913   3.680   5.136
49406W        W21132  22.591  34.147  13.478
49407W        W21133  39.823   6.426   2.286
49408W        W21134  33.529  17.665  11.106
49409W        W21135  37.199   8.802  13.875
49410W        W21136  27.019  30.498   4.133
49411W        W21137  10.196  35.789  12.782
49412W        W21138  32.852  39.264  11.219
49413W        W21139  39.326   3.758  10.635
49414W        W21140  43.403  15.109   4.615
49415W        W21141  43.367  36.687   3.653
49416W        W21142  13.595  35.071   2.226
49417W        W21143  25.156   3.462  10.543
49418W        W21144  34.973  24.507  12.513
49419W        W21145   8.836  24.683   4.300
49420W        W21146  43.747   8.161   2.994
49421W        W21147  32.918  28.082   1.787
49422W        W21148  22.676  41.217  13.470
49423W        W21149  44.273  32.442  11.278
49424W        W21150  30.010  17.577  12.845
49425W        W21151  32.458  39.368   0.764
49426W        W21152  41.751  11.739  13.181
49427W        W21153  40.340  13.358   3.923
49428W        W21154  18.190  25.885   0.659
49429W        W21155  27.174  20.287  12.081
49430W        W21156  32.915  22.485   2.727
49431W        W21157  27.176   0.965   5.365
49432W        W21158  25.739  44.256  10.683
49433W        W21159  10.721  36.807   4.517
49434W        W21160  35.331  42.482  14.493
49435W        W21161  13.957  28.584   1.142
49436W        W21162   6.607  23.840  12.981
49437W        W21163  29.548   7.490  13.447
49438W        W21164  41.021  41.858  11.189
49439W        W21165   4.732  32.489   3.264
49440W        W21166  31.063  14.868  11.215
49441W        W21167  34.654  18.572  14.791
49442W        W21168   0.019  14.147  11.538
49443W        W21169  34.950   9.769   0.261
49444W        W21170  15.723  39.476  12.846
49445W        W21171  12.569  15.198   1.585
49446W        W21172  32.045  27.600   2.790
49447W        W21173  16.294   2.781   1.755
49448W        W21174  33.129  22.136   0.905
49449W        W21175   8.504  40.383  13.318
49450W        W21176  31.927  43.474  12.875
49451W        W21177  10.177  30.739  11.609
49452W        W21178  24.170  11.232   4.589
49453W        W21179  39.485  31.927   3.666
49454W        W21180   7.890  33.227  10.217
49455W        W21181  19.374  18.068  13.518
49456W        W21182  36.415  15.609   2.394
49457W        W21183  44.509  40.971   2.171
49458W        W21184  23.490  14.098   4.554
49459W        W21185   1.274  11.271  13.552
49460W        W21186  11.879  23.607  10.190
49461W        W21187  32.444   3.954  12.841
49462W        W21188  10.902   1.455  11.119
49463W        W21189   5.241  26.475   0.914
49464W        W21190  15.886  11.912  12.991
49465W        W21191   5.212   5.487   2.370
49466W        W21192  17.700  16.811  10.686
49467W        W21193  32.615  10.164   0.940
49468W        W21194   9.238   4.225  14.391
49469W        W21195  19.204  43.479   1.266
49470W        W21196  35.815   1.872  11.606
49471W        W21197  35.409  27.918  11.516
49472W        W21198   9.812  28.684  12.723
49473W        W21199  32.093   0.226  13.405
49474W        W21200  41.846  11.355   4.140
49475W        W21201  34.523  32.840  12.990
49476W        W21202   1.252  23.348  13.356
49477W        W21203  39.770  10.125  12.453
49478W        W21204  13.634  29.554   4.381
49479W        W21205  21.562  37.789   0.736
49480W        W21206   9.254  22.262  14.066
49481W        W21207  44.527  14.958  11.358
49482W        W21208  31.015  25.983  12.335
49483W        W21209  42.561  28.426   2.399
49484W        W21210  35.424  21.931  12.053
49485W        W21211   8.134   5.333   0.103
49486W        W21212  16.220   3.971   4.979
49487W        W21213  23.489  28.916  11.665
49488W        W21214   2.260  17.575   4.426
49489W        W21215  34.176  31.634  11.959
49490W        W21216  19.557  13.000   2.709
49491W        W21217  19.292  19.814   0.853
49492W        W21218  13.428  33.551  12.375
49493W        W21219  38.415   7.754   5.153
49494W        W21220  35.053  13.631  13.510
49495W        W21221   0.291  32.991  10.644
49496W        W21222  42.008   4.367   4.877
49497W        W21223  32.009  16.031  12.624
49498W        W21224  37.912  16.680   0.962
49499W        W21225  11.894  32.506  11.925
49500W        W21226  32.110  18.086  13.339
49501W        W21227   0.206   2.032   4.468
49502W        W21228  42.910  14.186  12.695
49503W        W21229   5.432  17.914  12.211
49504W        W21230  13.492  36.088  14.431
49505W        W21231  36.897  42.017  10.667
49506W        W21232  28.185   5.114   0.968
49507W        W21233  21.272  23.170  11.699
49508W        W21234  23.071  35.399  13.762
49509W        W21235  27.585  38.381  12.356
49510W        W21236  36.933  18.781   1.766
49511W        W21237  37.604  42.853   9.933
49512W        W21238  16.045  40.590   5.027
49513W        W21239  20.508  26.003  13.958
49514W        W21240  15.700  15.529  13.065
49515W        W21241  29.099  38.128   0.401
49516W        W21242  39.303  12.341  13.455
49517W        W21243  35.151  44.819   4.116
49518W        W21244  20.936  23.454  14.842
49519W        W21245  30.918  16.583  11.620
49520W        W21246  43.968   0.894  11.041
49521W        W21247  30.167  11.434  12.749
49522W        W21248  17.501  18.270   3.567
49523W        W21249  26.083  34.576  12.217
49524W        W21250  23.440  31.006  13.929
49525W        W21251  35.063   0.895  11.026
49526W        W21252  29.436  23.171   0.888
49527W        W21253  25.681  22.627  13.801
49528W        W21254  19.674  37.524  13.482
49529W        W21255   4.377  10.604   3.837
49530W        W21256  29.343   0.767   1.380
49531W        W21257  25.707  34.296   1.837
49532W        W21258   2.446  24.045  13.396
49533W        W21259  43.336  11.153   1.419
49534W        W21260   9.075  21.741   5.363
49535W        W21261  23.943  10.168   2.772
49536W        W21262  28.036  32.242  13.054
49537W        W21263  25.032  11.089   3.595
49538W        W21264  35.404  14.659   4.132
49539W        W21265  38.011  11.114   1.880
49540W        W21266  29.282  36.923   1.638
49541W        W21267  36.320  36.825  11.595
49542W        W21268  31.974  21.115  13.315
49543W        W21269  35.772  22.631   4.189
49544W        W21270  40.770  36.788   1.276
49545W        W21271  31.802   0.468  11.109
49546W        W21272  14.651  20.780   1.845
49547W        W21273  17.763  18.637  14.925
49548W        W21274  32.128   1.906  13.915
49549W        W21275   9.402   7.730  12.473
49550W        W21276   1.026  11.656   5.067
49551W        W21277  20.738   9.050  11.903
49552W        W21278  30.920   6.607  14.919
49553W        W21279  20.671  36.483  12.874
49554W        W21280   7.896   7.366   1.774
49555W        W21281  30.761  11.137   4.191
49556W        W21282  27.205  16.712  12.542
49557W        W21283  18.860  30.892   3.821
49558W        W21284  40.099  24.342   1.024
49559W        W21285  28.235  10.558  10.728
49560W        W21286  32.144   1.465   3.249
49561W        W21287  24.569  15.240  12.081
49562W        W21288  30.071  38.428   2.104
49563W        W21289  21.588  13.572   0.947
49564W        W21290  43.948  38.947   0.278
49565W        W21291  15.193  17.735  12.323
49566W        W21292  33.123   8.393   4.205
49567W        W21293   6.403  25.262   0.844
49568W        W21294   6.677   4.123   4.557
49569W        W21295  26.896  30.515   0.855
49570W        W21296   7.268  13.337   1.797
49571W        W21297  29.978   8.130   0.430
49572W        W21298   9.106   0.484   1.296
49573W        W21299  36.500  29.330  11.592
49574W        W21300   9.587  31.487  13.877
49575W        W21301  20.401  29.142  10.916
49576W        W21302   6.199  35.862   4.177
49577W        W21303  22.733  31.611  14.179
49578W        W21304  22.013  40.941  12.302
49579W        W21305  18.283  16.166   2.715
49580W        W21306  23.271  32.050  13.032
49581W        W21307   7.270  40.802   3.274
49582W        W21308  34.906  44.309  10.771
49583W        W21309  43.311  19.127   0.673
49584W        W21310  32.812  42.099   9.796
49585W        W21311  18.701   4.168  11.866
49586W        W21312   7.950  13.691  13.570
49587W        W21313  33.090   8.357  12.936
49588W        W21314  22.165  33.577  11.377
49589W        W21315  41.100   5.711   3.687
49590W        W21316  44.932   3.796  13.912
49591W        W21317  33.411  38.608   2.729
49592W        W21318   8.155  11.065   4.425
49593W        W21319   4.259  11.126  10.716
49594W        W21320   5.436  13.873  13.804
49595W        W21321  42.226  17.595  10.679
49596W        W21322  44.557  10.469  11.222
49597W        W21323  22.775  17.739  10.320
49598W        W21324  17.156   5.735  11.408
49599W        W21325  29.754   0.361   4.755
49600W        W21326   1.836  16.848   1.228
49601W        W21327  30.262  19.245   2.706
49602W        W21328  34.903  15.773  14.952
49603W        W21329  19.076  19.951  12.952
49604W        W21330   2.755  39.100   0.918
49605W        W21331  39.579  14.296  11.466
49606W        W21332  30.146  24.618  11.157
49607W        W21333  10.864  24.666   0.848
49608W        W21334   1.015  36.955  13.946
49609W        W21335  27.453  12.737  10.894
49610W        W21336   8.097   3.814   0.327
49611W        W21337  21.245  13.353   1.947
49612W        W21338  12.136   4.860   3.894
49613W        W21339  31.166  38.445   3.227
49614W        W21340  40.600  20.562  14.916
49615W        W21341  33.063  21.270   0.032
49616W        W21342  15.841  37.306   3.684
49617W        W21343  35.374  21.724   0.101
49618W        W21344   2.467  34.255   0.629
49619W        W21345   5.999   6.299   0.347
49620W        W21346   7.916  41.521   5.049
49621W        W21347  40.809  43.114  14.092
49622W        W21348  19.776   4.925  11.438
49623W        W21349   2.435   3.761  12.065
49624W        W21350   8.144  25.336  11.415
49625W        W21351  11.165  22.694   4.367
49626W        W21352  17.102   3.355   5.165
49627W        W21353  23.995  14.736  11.099
49628W        W21354   6.668  30.099  14.840
49629W        W21355  26.252  14.385   0.459
49630W        W21356  42.933  44.595  12.119
49631W        W21357  42.328   0.424  10.998
49632W        W21358  26.493  20.878  12.627
49633W        W21359  24.622  36.894  14.871
49634W        W21360  19.815   5.801  11.126
49635W        W21361   1.387  32.428   1.698
49636W        W21362  18.279  25.023  12.220
49637W        W21363  15.558   8.285   1.995
49638W        W21364  16.794  41.531   2.449
49639W        W21365  33.908  21.470   2.761
49640W        W21366  30.613  33.891   3.696
49641W        W21367  19.198  15.972  14.743
49642W        W21368  21.556  35.756   0.966
49643W        W21369  30.990  12.699  12.137
49644W        W21370  40.262  27.361   3.642
49645W        W21371  14.747  36.473  14.286
49646W        W21372  33.386  28.016  12.166
49647W        W21373  16.912  36.589   2.282
49648W        W21374  22.968  43.454   0.281
49649W        W21375  37.059   5.264  10.692
49650W        W21376  24.380  13.252   3.188
49651W        W21377  15.619  18.142  11.515
49652W        W21378   8.873  36.269   1.272
49653W        W21379  14.666  30.374  14.715
49654W        W21380   1.575  20.858   4.955
49655W        W21381  33.894  20.041  12.254
49656W        W21382  16.772  44.096  14.445
49657W        W21383  24.189  28.406   1.752
49658W        W21384  44.343  19.843   3.147
49659W        W21385  40.720  37.922   0.654
49660W        W21386  16.543  29.453   4.403
49661W        W21387   6.631  20.825   0.812
49662W        W21388  37.295  21.629   2.304
49663W        W21389  25.731   8.659   3.768
49664W        W21390  36.831  32.751  12.032
49665W        W21391  31.554  11.157  11.398
49666W        W21392   0.304  26.963  13.913
49667W        W21393  25.819  44.245   1.913
49668W        W21394  11.237  34.590  14.412
49669W        W21395  30.342  35.103   2.156
49670W        W21396  33.905  44.893  14.030
49671W        W21397  20.246   6.849  11.396
49672W        W21398   7.775  22.017  11.630
49673W        W21399  27.564  42.144   0.907
49674W        W21400  14.399  43.137   1.746
49675W        W21401   6.706  27.192  14.811
49676W        W21402  35.357   2.930   2.777
49677W        W21403  14.272  30.940  10.764
49678W        W21404   1.944  33.442  10.592
49679W        W21405  14.723  37.488   2.648
49680W        W21406   4.221  34.895   3.870
49681W        W21407  41.944  36.915  12.855
49682W        W21408  33.476  40.420  12.892
49683W        W21409  26.566  28.621   3.207
49684W        W21410  28.538  39.402   2.445
49685W        W21411   4.536  26.029  11.434
49686W        W21412   1.652  23.129   4.167
49687W        W21413   2.164  28.258   1.778
49688W        W21414  37.795   2.384   0.582
49689W        W21415  25.086  11.125   4.130
49690W        W21416  41.415  15.910  14.756
49691W        W21417  33.497  11.145  12.117
49692W        W21418  34.389  39.039   1.024
49693W        W21419  32.898  41.464   2.359
49694W        W21420  20.065  30.129   1.205
49695W        W21421  30.431  35.334   2.736
49696W        W21422  37.053  34.710  12.977
49697W        W21423   7.665  25.628  14.847
49698W        W21424  33.543   2.955  12.886
49699W        W21425  12.734   2.404  13.344
49700W        W21426  15.277  25.128  13.787
49701W        W21427  29.194  15.616   3.765
49702W        W21428   8.435   6.661  11.615
49703W        W21429  25.128  23.122   4.534
49704W        W21430   9.273   4.929   2.987
49705W        W21431  24.029   5.403   2.797
49706W        W21432   3.043  33.124   4.961
49707W        W21433  19.307   5.529  14.787
49708W        W21434   8.803  26.894  11.719
49709W        W21435  37.988   7.611   2.267
49710W        W21436  25.703   4.353  10.477
49711W        W21437  25.462  12.915   0.938
49712W        W21438  17.163   3.796   4.852
49713W        W21439  31.537   1.874  11.684
49714W        W21440  44.909  20.699  14.100
49715W        W21441  44.240  30.421   1.864
49716W        W21442  41.011  41.693  14.870
49717W        W21443  30.653  27.496  12.207
49718W        W21444  11.224  32.651  14.426
49719W        W21445  34.520  14.896   3.202
49720W        W21446  16.639  25.479  10.755
49721W        W21447   6.153  20.693   3.753
49722W        W21448  26.789   3.369   4.444
49723W        W21449  13.386   7.708  11.714
49724W        W21450  36.061  10.289  11.181
49725W        W21451   6.291  21.847   4.517
49726W        W21452  30.933  41.050   4.616
49727W        W21453  14.308  26.119  12.169
49728W        W21454  40.417  20.842   4.190
49729W        W21455  11.786   7.202   2.748
49730W        W21456  35.037   4.686   1.356
49731W        W21457  37.522  19.346  14.012
49732W        W21458  42.822  24.545   1.946
49733W        W21459  12.670  33.134   0.945
49734W        W21460  23.299  39.487  11.105
49735W        W21461  28.020  14.844   0.516
49736W        W21462  30.656   3.860   3.679
49737W        W21463  29.936   3.404  14.589
49738W        W21464   0.292  42.557  13.809
49739W        W21465  43.714  16.524  11.475
49740W        W21466  14.250  36.579   2.861
49741W        W21467  36.144   7.730   3.711
49742W        W21468  36.656   2.808  10.400
49743W        W21469  39.416  41.524  14.518
49744W        W21470  31.305  33.314  11.542
49745W        W21471  27.608  41.524   3.611
49746W        W21472   3.424  35.016  14.345
49747W        W21473  36.875  34.484  10.050
49748W        W21474  31.862  33.044  10.801
49749W        W21475  38.011  43.988  10.635
49750W        W21476   7.289   2.247  13.584
49751W        W21477  34.511   1.571   0.329
49752W        W21478  26.162   1.169  11.893
49753W        W21479  13.181  17.772  14.315
49754W        W21480  29.013  25.741  12.676
49755W        W21481  17.270   2.044   4.810
49756W        W21482   8.396  13.671   4.670
49757W        W21483  41.764  10.856  11.526
49758W        W21484  24.944  43.296   1.374
49759W        W21485   0.783  38.635  12.082
49760W        W21486  28.572  27.976  12.160
49761W        W21487  26.225   1.012   3.400
49762W        W21488   0.456  14.170   4.366
49763W        W21489  21.842  35.280  11.150
49764W        W21490  30.454  35.183  13.960
49765W        W21491   9.661  20.406   1.821
49766W        W21492  10.730   9.897   1.975
49767W        W21493  41.421  32.615  13.548
49768W        W21494   1.890  26.539   4.662
49769W        W21495   7.111  17.118   0.003
49770W        W21496   8.856   8.403  14.961
49771W        W21497  32.982  17.621  11.716
49772W        W21498  22.673   8.996  13.823
49773W        W21499  19.429  35.706   0.343
49774W        W21500  30.398   5.420   3.265
49775W        W21501  28.003  12.666   1.690
49776W        W21502  44.282  36.898   1.707
49777W        W21503   0.887  10.772   1.229
49778W        W21504   8.415  32.489  14.843
49779W        W21505  14.353  22.719  14.321
49780W        W21506  44.115  40.331   3.745
49781W        W21507  17.187  21.669   4.603
49782W        W21508  43.937  27.219  13.944
49783W        W21509  21.130  28.387  12.157
49784W        W21510  37.928  43.963  12.426
49785W        W21511   4.900  21.546  11.831
49786W        W21512   9.325  17.320  14.147
49787W        W21513   9.622   6.509   1.888
49788W        W21514  31.581  25.652   4.216
49789W        W21515  12.837  29.727   3.810
49790W        W21516   6.167  41.521   2.528
49791W        W21517  26.125  37.905   2.489
49792W        W21518  35.449   0.895   1.311
49793W        W21519  19.810  38.387  11.065
49794W        W21520  29.123  22.318   0.783
49795W        W21521   8.312   6.352   2.310
49796W        W21522  35.716  26.461  14.373
49797W        W21523  14.749  31.628   3.753
49798W        W21524  37.546   0.839   3.319
49799W        W21525   7.828  18.607   4.575
49800W        W21526  14.215  30.147  11.971
49801W        W21527  41.592  23.684   3.685
49802W        W21528  15.679  32.157   4.496
49803W        W21529  38.603  35.039   3.777
49804W        W21530   1.968  39.940  12.456
49805W        W21531   2.427  11.702  11.531
49806W        W21532  15.865   5.158   2.281
49807W        W21533  41.549  25.568  11.633
49808W        W21534  23.339  38.244   0.732
49809W        W21535  40.980   0.960  12.469
49810W        W21536   3.842  22.938  10.966
49811W        W21537  27.906  18.672  10.430
49812W        W21538  21.918  17.572  13.727
49813W        W21539  16.192  22.537   9.963
49814W        W21540  30.009  21.778   1.271
49815W        W21541   0.445   4.140  11.092
49816W        W21542  34.937  12.278  12.923
49817W        W21543  36.475   9.299  11.670
49818W        W21544  42.917  14.064   4.645
49819W        W21545  20.576  16.358   1.382
49820W        W21546   8.854  29.117   3.718
49821W        W21547  39.435   1.018   1.926
49822W        W21548   6.727  44.518  10.682
49823W        W21549  44.739   4.433  13.875
49824W        W21550  29.970  42.566  10.259
49825W        W21551  18.324  42.027  13.509
49826W        W21552   6.863  32.219   2.851
49827W        W21553  36.938  19.831   2.848
49828W        W21554  36.591  29.695   3.333
49829W        W21555  21.117   9.967   1.791
49830W        W21556  33.539  38.327   3.158
49831W        W21557  44.946  29.150  14.312
49832W        W21558   7.314  25.348  11.490
49833W        W21559  36.926  35.782  14.983
49834W        W21560   8.736  10.414   3.388
49835W        W21561  19.203  21.084   4.657
49836W        W21562  34.915  29.989   3.875
49837W        W21563   1.212  30.343  12.861
49838W        W21564  19.125  20.759   0.732
49839W        W21565  20.247  12.306  10.677
49840W        W21566  40.833  20.727   2.324
49841W        W21567  25.037  27.491   1.061
49842W        W21568  42.524  33.713   2.444
49843W        W21569   9.967  43.865  10.676
49844W        W21570   0.895   0.790   1.325
49845W        W21571  42.771  15.057  11.163
49846W        W21572  43.384   7.475  13.444
49847W        W21573  28.684  30.462   1.374
49848W        W21574  20.643  44.439  10.885
49849W        W21575  35.144  40.619   2.284
49850W        W21576  11.145  31.030  13.357
49851W        W21577  41.496   4.543   4.097
49852W        W21578  42.023  18.923  12.493
49853W        W21579  27.540  38.301   3.822
49854W        W21580   3.739   1.355  12.960
49855W        W21581  13.501  32.563   1.430
49856W        W21582  27.095  37.075   4.634
49857W        W21583  12.390  37.494   0.683
49858W        W21584  41.465  27.631   1.308
49859W        W21585  11.831  26.957  11.619
49860W        W21586   9.623  35.495   1.036
49861W        W21587  33.659  18.717   1.583
49862W        W21588  18.908   5.300   2.771
49863W        W21589   7.103  33.575   4.698
49864W        W21590  32.011  40.796  14.780
49865W        W21591  17.114   7.420  13.575
49866W        W21592  42.869  16.568   3.840
49867W        W21593  39.931  23.116  11.143
49868W        W21594  44.376  13.097   3.030
49869W        W21595  13.717   2.278  11.512
49870W        W21596  23.249  17.036   3.375
49871W        W21597   3.028  33.458   2.686
49872W        W21598  26.054  18.456  10.464
49873W        W21599  12.887  39.881   1.927
49874W        W21600  13.768  43.552  10.767
49875W        W21601  23.678   3.448  10.852
49876W        W21602  11.849  26.550  10.729
49877W        W21603   9.139  19.566   1.071
49878W        W21604  43.375  19.079  14.223
49879W        W21605  44.335  41.214  12.829
49880W        W21606  12.664  19.592   3.947
49881W        W21607  17.844   8.211  12.598
49882W        W21608   4.760  30.452  13.074
49883W        W21609   1.807   5.854   1.343
49884W        W21610   5.922  17.026  11.496
49885W        W21611  18.483   2.738  13.468
49886W        W21612  37.651   0.319  13.512
49887W        W21613  11.401  25.206  14.570
49888W        W21614  37.598  22.061   1.215
49889W        W21615  34.887  28.213   4.260
49890W        W21616  32.587  37.916  11.751
49891W        W21617  35.840  31.792   3.833
49892W        W21618  21.931   1.952   1.232
49893W        W21619  25.024   2.431   4.581
49894W        W21620  28.334  26.584  11.925
49895W        W21621  39.376  23.701  10.715
49896W        W21622  10.174  43.915   2.844
49897W        W21623   6.110   9.360   3.297
49898W        W21624   3.200  39.473  11.975
49899W        W21625  13.336  36.340  13.852
49900W        W21626   9.980  22.866  12.011
49901W        W21627   1.151  16.122  10.410
49902W        W21628  12.214  31.583  10.786
49903W        W21629  27.665  15.644   2.303
49904W        W21630  43.383   1.693   0.887
49905W        W21631   3.997  15.182  10.271
49906W        W21632  39.458   3.551   1.228
49907W        W21633  32.042  22.452   3.738
49908W        W21634   8.157  32.476  14.376
49909W        W21635  34.324  22.669   3.197
49910W        W21636   9.002  20.674  12.355
49911W        W21637  14.137  20.705  10.661
49912W        W21638  17.633  17.895   4.743
49913W        W21639  11.150  35.196   2.203
49914W        W21640  44.273   8.273  14.013
49915W        W21641  14.873   3.353   4.648
49916W        W21642  20.516  36.575  11.857
49917W        W21643  15.995  15.115  12.551
49918W        W21644  39.643  10.637  12.545
49919W        W21645  20.498  37.957   3.865
49920W        W21646  21.696  29.023   2.644
49921W        W21647  16.722  28.459   0.458
49922W        W21648  41.704   6.643   0.877
49923W        W21649   6.058   2.223  13.888
49924W        W21650  15.841  43.478   0.730
49925W        W21651  31.376  33.060  10.642
49926W        W21652   9.874  15.331   2.364
49927W        W21653  19.979  26.598   3.113
49928W        W21654  21.605  32.130  12.450
49929W        W21655   4.886  10.796   0.862
49930W        W21656  14.546  13.837  14.534
49931W        W21657  17.374   6.356  10.100
49932W        W21658  13.100  41.917   1.197
49933W        W21659   7.103  21.722  13.319
49934W        W21660  40.620  42.231  12.030
49935W        W21661  20.132  25.995   3.732
49936W        W21662  39.338  37.977   3.750
49937W        W21663  29.162  32.628   0.965
49938W        W21664  16.229  31.672   0.891
49939W        W21665   0.417  36.167  11.511
49940W        W21666   6.822  15.775  10.712
49941W        W21667  24.271  38.990   3.416
49942W        W21668  19.103  25.209  12.308
49943W        W21669  26.871  11.218   2.850
49944W        W21670  15.181   0.314  12.529
49945W        W21671  23.515  15.494  14.857
49946W        W21672  26.934  31.710  10.750
49947W        W21673  13.577  43.897  12.091
49948W        W21674  41.845  19.788  12.143
49949W        W21675  29.111  28.404  11.631
49950W        W21676  31.836  42.505   1.601
49951W        W21677  34.438  21.561  12.318
49952W        W21678  30.655  13.565  11.183
49953W        W21679  32.369  28.909  14.937
49954W        W21680   3.834  14.741   0.723
49955W        W21681  20.420  44.619   3.637
49956W        W21682  12.983  27.107   3.317
49957W        W21683  18.608  19.987  11.671
49958W        W21684  28.622   7.701   4.414
49959W        W21685  44.702  26.695  12.347
49960W        W21686  42.995  40.506   4.523
49961W        W21687  14.382  11.911   3.116
49962W        W21688  29.118   0.505  12.942
49963W        W21689  24.503  32.067  14.738
49964W        W21690  41.030  14.311   4.536
49965W        W21691   2.845  39.469  11.575
49966W        W21692  31.441  26.740  12.086
49967W        W21693  29.498  22.258  12.046
49968W        W21694   6.180   8.797  10.019
49969W        W21695  40.766   1.745   2.927
49970W        W21696  34.566   9.100   2.367
49971W        W21697  22.307  35.516  11.147
49972W        W21698  33.190  35.116   4.719
49973W        W21699  32.549  14.853  14.494
49974W        W21700   0.890  27.402  12.435
49975W        W21701  24.263  43.538  14.063
49976W        W21702  16.772  15.332   2.304
49977W        W21703   0.788   8.166  14.076
49978W        W21704   5.743  17.408  12.897
49979W        W21705   0.345  30.416  13.073
49980W        W21706  35.056  27.655  12.092
49981W        W21707   8.350  39.627  12.802
49982W        W21708  15.350  44.239  10.840
49983W        W21709  36.939  33.869   0.852
49984W        W21710  10.735  39.759  12.451
49985W        W21711   9.330  26.524   0.876
49986W        W21712  18.535  12.255  13.059
49987W        W21713  40.446   5.831   3.302
49988W        W21714  35.920  30.434  13.515
49989W        W21715  28.458  12.712  14.176
49990W        W21716  21.318  28.190  14.442
49991W        W21717  31.456  40.336   1.215
49992W        W21718  30.189   7.185  14.929
49993W        W21719   4.975  35.854   4.632
49994W        W21720  30.770  25.499  12.526
49995W        W21721  29.451  22.531   2.112
49996W        W21722  16.233  19.713  10.577
49997W        W21723  22.452  26.605  14.823
49998W        W21724   0.615  37.631   0.382
49999W        W21725   4.382  14.622   0.255
50000W        W21726  26.530  33.959   3.821
50001W        W21727  41.927   9.979  14.896
50002W        W21728  34.458  18.589  12.161
50003W        W21729  27.439  20.140  12.531
50004W        W21730   3.928   9.641   4.348
50005W        W21731  23.211   0.187  10.635
50006W        W21732  17.719  10.775  14.056
50007W        W21733  33.117  32.137  10.699
50008W        W21734  26.921  19.724  13.742
50009W        W21735  32.519  42.109   5.038
50010W        W21736  41.871  27.683  10.997
50011W        W21737  23.733  23.706  11.692
50012W        W21738  33.094  10.091  11.182
50013W        W21739  37.098   1.157   0.804
50014W        W21740  36.416   3.800   1.266
50015W        W21741  32.383  29.689   2.159
50016W        W21742  35.458   4.492   3.643
50017W        W21743  11.933  19.083  10.681
50018W        W21744  22.145  32.052   0.958
50019W        W21745  33.352   0.652  11.622
50020W        W21746  24.120  18.768   2.202
50021W        W21747  38.919  22.453  11.005
50022W        W21748  26.547  28.856   3.659
50023W        W21749  19.470  39.927   2.653
50024W        W21750  25.258  16.710   1.875
50025W        W21751  24.103  43.172  10.142
50026W        W21752  12.780  15.788   2.926
50027W        W21753   9.585  13.875  11.582
50028W        W21754  22.552  10.706   0.182
50029W        W21755  30.125  25.792   4.982
50030W        W21756  14.083  28.156   1.823
50031W        W21757  43.886  10.712  14.762
50032W        W21758   9.835  24.585  10.333
50033W        W21759   0.646  31.888   4.101
50034W        W21760  35.877  32.844   0.225
50035W        W21761  33.387  34.578   2.172
50036W        W21762  25.257  31.141  11.898
50037W        W21763  41.511   9.741  12.352
50038W        W21764  18.447  10.815   1.230
50039W        W21765  32.615   4.471  10.980
50040W        W21766  15.108  24.337   4.133
50041W        W21767  22.377  35.068   2.405
50042W        W21768  12.663  10.134   2.258
50043W        W21769   7.100  17.379  12.930
50044W        W21770  10.717  11.055   0.914
50045W        W21771  44.871  42.437  13.029
50046W        W21772  33.121  27.044  12.015
50047W        W21773  14.717  20.461   4.751
50048W        W21774   0.040  41.807   2.465
50049W        W21775   0.485  37.640  14.841
50050W        W21776  30.943  28.060   3.769
50051W        W21777  15.183  17.138  11.153
50052W        W21778  10.807   2.986  11.963
50053W        W21779   0.007   8.995   4.161
50054W        W21780  23.828   4.253  13.822
50055W        W21781  24.153  13.655   3.431
50056W        W21782   0.417  12.628   3.685
50057W        W21783  44.757   3.678   0.337
50058W        W21784  26.091  21.170  11.439
50059W        W21785  35.308  14.804  10.924
50060W        W21786   7.384   8.655   1.334
50061W        W21787  42.307  35.525  11.065
50062W        W21788  38.573   8.882  14.819
50063W        W21789  29.935  24.027   0.388
50064W        W21790  11.537   8.295  10.668
50065W        W21791  25.118  42.254  14.461
50066W        W21792  30.564  41.730   3.639
50067W        W21793  40.375  15.642   1.286
50068W        W21794  21.889   8.974  11.460
50069W        W21795   0.943  16.286   4.143
50070W        W21796  10.542   6.678  14.896
50071W        W21797  22.398   3.084  13.919
50072W        W21798  41.969  37.425  11.562
50073W        W21799  24.930  16.325  12.124
50074W        W21800  11.321  39.989   1.717
50075W        W21801  43.812  24.246  12.088
50076W        W21802  39.912  43.755  14.830
50077W        W21803  34.553  26.100   1.013
50078W        W21804  27.482  16.393  12.209
50079W        W21805  43.300  25.058   9.949
50080W        W21806  24.427   0.525   3.317
50081W        W21807   5.222  13.799   0.247
50082W        W21808  23.702  19.030   3.284
50083W        W21809   1.848   4.662  12.132
50084W        W21810  37.589  38.386   4.553
50085W        W21811  41.369  21.003   0.237
50086W        W21812   3.741  44.949  13.085
50087W        W21813  11.592  17.247  14.865
50088W        W21814  38.858  12.861  14.588
50089W        W21815  34.571  44.043   1.523
50090W        W21816  12.290  28.593   3.176
50091W        W21817  22.176  17.882  14.113
50092W        W21818  41.811  40.114  11.528
50093W        W21819  33.257  15.341  14.209
50094W        W21820   2.200  15.194  11.910
50095W        W21821  10.070  39.312   2.630
50096W        W21822  17.367  44.252  12.930
50097W        W21823  30.438   1.489   3.629
50098W        W21824  10.092  22.703  12.930
50099W        W21825  40.387  13.603   2.399
50100W        W21826  15.500  21.579  13.884
50101W        W21827   8.763   2.385   0.270
50102W        W21828  22.243  21.677  12.115
50103W        W21829  37.247   0.302   1.624
50104W        W21830  37.465   1.817   4.089
50105W        W21831  34.858   9.305   3.293
50106W        W21832  14.345  15.362   0.430
50107W        W21833  20.940  25.013   1.278
50108W        W21834   3.203  31.731   1.769
50109W        W21835  12.692   9.905   3.728
50110W        W21836  16.441  29.550  11.437
50111W        W21837  33.139  11.783  13.971
50112W        W21838  12.257  30.714   0.715
50113W        W21839  13.269  11.111  12.063
50114W        W21840  31.174  39.881  12.917
50115W        W21841  33.402   6.500   3.194
50116W        W21842  10.676  21.737   1.643
50117W        W21843  12.642  39.775   4.129
50118W        W21844   8.644  16.234  10.751
50119W        W21845  34.880  31.164   1.748
50120W        W21846  35.202  27.855  11.040
50121W        W21847  29.898  31.228   4.267
50122W        W21848  27.470  26.601   0.972
50123W        W21849  42.462  29.738  14.003
50124W        W21850  25.483  19.750  12.153
50125W        W21851  40.155  11.077  12.080
50126W        W21852  41.857  38.975   4.272
50127W        W21853  11.211  42.401   3.655
50128W        W21854  19.697  26.979   4.505
50129W        W21855  17.068  23.655  11.504
50130W        W21856  37.111  21.145   2.352
50131W        W21857  43.313  44.047  11.461
50132W        W21858  19.423  43.141  10.048
50133W        W21859  29.395  32.988   2.397
50134W        W21860  28.891  31.038   4.174
50135W        W21861   5.266  32.323  10.468
50136W        W21862   7.422   7.005   3.690
50137W        W21863  11.597  24.124  10.382
50138W        W21864  44.793  32.449   1.409
50139W        W21865  10.865  35.230   3.312
50140W        W21866  20.083   4.193   0.278
50141W        W21867  21.538   5.822  11.728
50142W        W21868  41.167   3.515   2.865
50143W        W21869   0.843  36.592  10.806
50144W        W21870   7.843  10.274   0.671
50145W        W21871   5.612  30.595   4.044
50146W        W21872  42.025   6.461  12.308
50147W        W21873  11.441  26.531  14.787
50148W        W21874   1.986  18.266  11.498
50149W        W21875   8.198  43.532  11.565
50150W        W21876  14.139  15.516   2.844
50151W        W21877  25.749  25.511   2.417
50152W        W21878  14.267   9.990  11.700
50153W        W21879  36.331  22.140   1.900
50154W        W21880  34.684   1.276   4.196
50155W        W21881  15.794  42.000   4.706
50156W        W21882  39.619  43.783   2.893
50157W        W21883  10.342  14.057   0.385
50158W        W21884  35.827  11.757   3.250
50159W        W21885   4.821   1.352   1.391
50160W        W21886  34.314  36.376  14.770
50161W        W21887   5.682   9.186  11.560
50162W        W21888  14.854  13.621  13.783
50163W        W21889  33.376  38.365  14.874
50164W        W21890  16.523   8.133  13.851
50165W        W21891  32.914  35.600  12.031
50166W        W21892  34.784   8.455  13.989
50167W        W21893   9.780  18.472  11.542
50168W        W21894  42.791  30.086   0.789
50169W        W21895  38.890  12.792   4.557
50170W        W21896   4.394   9.855   0.336
50171W        W21897  26.620  11.779  11.689
50172W        W21898  30.577  25.305   1.886
50173W        W21899  21.711  12.280  12.594
50174W        W21900   7.977   0.419   3.780
50175W        W21901  32.665  35.517  13.016
50176W        W21902  25.952  29.763  12.206
50177W        W21903  16.728   0.518   1.769
50178W        W21904  34.898  13.102   1.102
50179W        W21905  36.920  19.979   4.446
50180W        W21906  37.539  24.165   1.366
50181W        W21907  25.436  40.098   3.567
50182W        W21908  21.412  21.901  13.746
50183W        W21909  25.005   6.249   4.530
50184W        W21910  42.254  38.487   3.591
50185W        W21911  32.481  32.135  13.305
50186W        W21912  24.266  21.548  12.051
50187W        W21913  16.668   9.870   0.199
50188W        W21914  38.548   6.511   2.298
50189W        W21915  25.296  17.072   3.170
50190W        W21916  25.073  17.442  14.152
50191W        W21917   3.179  25.181   0.639
50192W        W21918  33.622  31.612   0.874
50193W        W21919  24.021  27.977   3.982
50194W        W21920  24.201  35.832  10.098
50195W        W21921  35.046  41.432   3.804
50196W        W21922  37.758  22.448  13.532
50197W        W21923  40.439   2.980   4.183
50198W        W21924  29.002   8.195   2.737
50199W        W21925  41.250   0.833  13.877
50200W        W21926  43.080  19.635  13.429
50201W        W21927  13.937  12.827  11.534
50202W        W21928  26.239  29.365  12.112
50203W        W21929  32.029  19.743  13.085
50204W        W21930  29.556  27.482   0.241
50205W        W21931  34.429  36.481  13.906
50206W        W21932  44.030  41.948  11.889
50207W        W21933  18.985  21.667  11.091
50208W        W21934  36.604  19.088  11.195
50209W        W21935  35.136  25.911  13.413
50210W        W21936   0.722  32.637   4.339
50211W        W21937  18.388   3.551   3.279
50212W        W21938  31.529  36.873  11.160
50213W        W21939  32.677   2.163  14.402
50214W        W21940  40.572  35.064   3.179
50215W        W21941  22.296  44.441   0.393
50216W        W21942  19.143  24.441   4.170
50217W        W21943  18.880  23.169   0.688
50218W        W21944  23.568  31.407   3.770
50219W        W21945  43.989   4.261   4.550
50220W        W21946   2.941  12.895   4.921
50221W        W21947   4.302  11.548   1.977
50222W        W21948  37.618   8.212   2.783
50223W        W21949  16.210  39.995   0.249
50224W        W21950  14.787  42.789   1.674
50225W        W21951  24.406   3.259   2.688
50226W        W21952  35.217  29.104  12.842
50227W        W21953  13.355  38.994   4.699
50228W        W21954  11.860  11.446  14.295
50229W        W21955  43.242  19.551   0.405
50230W        W21956  12.324   4.756  10.873
50231W        W21957  31.094  30.201   1.709
50232W        W21958   7.110  19.896  11.945
50233W        W21959  41.998  35.826  14.434
50234W        W21960  16.365  34.887  11.104
50235W        W21961  28.780  42.424  13.347
50236W        W21962  29.479   8.827  10.047
50237W        W21963  33.882   3.003  11.121
50238W        W21964   0.726  40.308   1.409
50239W        W21965  21.602  42.563  12.410
50240W        W21966   4.256  14.064  11.962
50241W        W21967  14.092  21.100   4.645
50242W        W21968  28.393  11.069   1.363
50243W        W21969   6.897   2.755   2.251
50244W        W21970  11.263  17.006   1.622
50245W        W21971   4.081  28.484  14.327
50246W        W21972  26.529  10.203  14.045
50247W        W21973  40.967  20.715   4.233
50248W        W21974  16.804  19.257   0.455
50249W        W21975   7.649   7.156  13.395
50250W        W21976  19.616  20.822   0.489
50251W        W21977   6.485  22.200  12.551
50252W        W21978   3.994   5.831  13.059
50253W        W21979  33.477  36.105  12.108
50254W        W21980  15.566  28.455  14.486
50255W        W21981  31.470  12.541  12.090
50256W        W21982  20.951  39.868  11.057
50257W        W21983  11.099  18.164  14.806
50258W        W21984   2.488  35.975  12.922
50259W        W21985  16.152  37.071   3.321
50260W        W21986  25.991   3.267   2.431
50261W        W21987  33.646  20.727  13.520
50262W        W21988  26.930  37.292   0.479
50263W        W21989  38.140  19.402  12.910
50264W        W21990  38.272  10.178   3.803
50265W        W21991  22.416  34.947   1.430
50266W        W21992  32.967  21.319  14.535
50267W        W21993  40.751  26.586  14.509
50268W        W21994   7.665   7.436  12.527
50269W        W21995  41.734  27.397   0.931
50270W        W21996  19.109  44.989   3.374
50271W        W21997  30.641  28.271   0.409
50272W        W21998   5.422   6.293  12.944
50273W        W21999  26.337  18.776   3.679
50274W        W22000  14.151   5.894   0.906
50275W        W22001   4.821  28.183   2.050
50276W        W22002  16.177  38.977   0.726
50277W        W22003  20.586  13.554   4.065
50278W        W22004  35.199   4.349   4.068
50279W        W22005  25.108  24.996  12.018
50280W        W22006  24.893  26.070   4.305
50281W        W22007  35.814   9.842  10.795
50282W        W22008  43.698  41.495   1.200
50283W        W22009   4.432   1.258   2.831
50284W        W22010   4.712  42.462  13.434
50285W        W22011   2.236  36.016   1.964
50286W        W22012  36.656  23.532   1.235
50287W        W22013   0.956  13.298   2.307
50288W        W22014  42.710  14.798  10.709
50289W        W22015   0.790   1.241  14.017
50290W        W22016  42.414   0.748  12.574
50291W        W22017  39.339  44.765   2.038
50292W        W22018   7.439  38.318   4.671
50293W        W22019  27.618   6.741   4.098
50294W        W22020  22.624  32.149  12.337
50295W        W22021  21.405  42.760   0.009
50296W        W22022   3.704  10.589  14.921
50297W        W22023  18.167  31.851   3.268
50298W        W22024   1.291  41.250  13.507
50299W        W22025  31.903  34.585   4.560
50300W        W22026  12.189   9.789  11.611
50301W        W22027  22.622  35.409  10.704
50302W        W22028  15.262   7.412   0.480
50303W        W22029  34.685  29.970   2.395
50304W        W22030   5.244  19.682   4.177
50305W        W22031   5.252  33.434  10.524
50306W        W22032  29.046  28.515   1.932
50307W        W22033  28.252  26.966   2.204
50308W        W22034  32.482  13.376   1.236
50309W        W22035  35.240   1.322   1.040
50310W        W22036   3.390  44.033  10.510
50311W        W22037  13.210  38.868   1.227
50312W        W22038  15.733  21.074  12.129
50313W        W22039  24.638  38.970  11.459
50314W        W22040  22.168  15.407  12.132
50315W        W22041  27.033   9.183  12.485
50316W        W22042  44.370  29.895  10.494
50317W        W22043  14.776   9.414   2.260
50318W        W22044  42.734  36.392  11.223
50319W        W22045  42.042  17.762  14.376
50320W        W22046  31.891  10.106  14.425
50321W        W22047  24.541  11.401   2.934
50322W        W22048   8.946   5.721   4.553
50323W        W22049  44.235  18.073  14.702
50324W        W22050  21.486  39.390   1.315
50325W        W22051  12.626  31.843  12.030
50326W        W22052   0.064  30.944  13.355
50327W        W22053  28.644   0.794   0.765
50328W        W22054   7.268   0.844   0.767
50329W        W22055  42.591  17.269  12.373
50330W        W22056  42.069  13.290   4.067
50331W        W22057  17.871  33.078   0.290
50332W        W22058  43.030  30.312   1.372
50333W        W22059  43.249  32.081   2.970
50334W        W22060  36.877  12.616   4.078
50335W        W22061  38.848  13.845  12.709
50336W        W22062   9.233  43.074   3.829
50337W        W22063  40.817  35.100   4.874
50338W        W22064   2.911  27.888   1.431
50339W        W22065  39.815  17.145  12.685
50340W        W22066  31.563  30.130  11.987
50341W        W22067  28.857   3.357  11.866
50342W        W22068  19.575   3.570   5.062
50343W        W22069  11.793  23.716  12.357
50344W        W22070  28.745  13.316  14.106
50345W        W22071  33.433  35.885   1.281
50346W        W22072  36.378  21.190  11.187
50347W        W22073  40.122  28.631   4.730
50348W        W22074  27.282  25.895   1.730
50349W        W22075  21.003  18.738  12.626
50350W        W22076  35.581   6.354  10.645
50351W        W22077  15.798  26.984  12.615
50352W        W22078  44.589  43.256  12.070
50353W        W22079  42.109  22.216  13.928
50354W        W22080  42.996  15.008  13.026
50355W        W22081  38.484  27.916   0.309
50356W        W22082  13.420  31.945  11.361
50357W        W22083  16.361  32.683  11.634
50358W        W22084  30.973  20.716   1.355
50359W        W22085  19.170   0.762   2.699
50360W        W22086  42.954  18.599   4.655
50361W        W22087   6.321  28.976   1.875
50362W        W22088  13.887  28.993   0.837
50363W        W22089  21.619  42.344  10.960
50364W        W22090  43.027  32.021   1.839
50365W        W22091  24.496  12.143  10.758
50366W        W22092  44.677  16.727  13.935
50367W        W22093   7.884   4.304  14.872
50368W        W22094  29.147  32.498   2.208
50369W        W22095  37.379  26.583  10.853
50370W        W22096   8.814  14.688   4.232
50371W        W22097  31.653  22.996  11.921
50372W        W22098   9.765  36.149   3.147
50373W        W22099  26.995  13.772   1.314
50374W        W22100  37.533  39.108  14.938
50375W        W22101  15.112  27.538  12.077
50376W        W22102  16.584   1.935  10.517
50377W        W22103  39.000  36.921   3.254
50378W        W22104  40.354   9.364  13.005
50379W        W22105  12.090  11.466  12.009
50380W        W22106  20.218  15.756   2.306
50381W        W22107   0.208  10.454   2.661
50382W        W22108   9.400  37.478   0.307
50383W        W22109  31.307  13.336  13.968
50384W        W22110  41.929  32.895   4.732
50385W        W22111  21.180  33.728   0.522
50386W        W22112  14.397  30.589   3.155
50387W        W22113  11.142  15.102   1.581
50388W        W22114  34.704  23.023   3.082
50389W        W22115  30.379   6.689  14.797
50390W        W22116  38.784  22.578  14.391
50391W        W22117   8.432   6.617   2.750
50392W        W22118   1.502  34.046  11.058
50393W        W22119  44.885   0.312  13.582
50394W        W22120  15.378   8.900  10.710
50395W        W22121  17.319   1.742   2.286
50396W        W22122  37.783  39.998   1.789
50397W        W22123   9.088  22.542  11.947
50398W        W22124  22.299   6.255  11.555
50399W        W22125  20.020  20.584  12.161
50400W        W22126  16.775  36.462  11.491
50401W        W22127  38.944   4.334   1.198
50402W        W22128  10.876  22.278  14.675
50403W        W22129  15.203  34.138   1.823
50404W        W22130  42.961  31.365   2.147
50405W        W22131  15.721  21.920   4.496
50406W        W22132  17.693  35.220   4.531
50407W        W22133  44.259  12.215   4.409
50408W        W22134  29.072  28.378   2.894
50409W        W22135  30.072  22.298   2.813
50410W        W22136  24.506   2.785   3.925
50411W        W22137   9.722  20.632  13.016
50412W        W22138  34.428  42.420  13.478
50413W        W22139  42.856  20.883   3.636
50414W        W22140  20.519  39.005  12.578
50415W        W22141   7.685  38.695   4.405
50416W        W22142  36.119   4.449   2.802
50417W        W22143  39.364  18.198  12.832
50418W        W22144  28.134   1.521   2.345
50419W        W22145   3.035  11.790   2.682
50420W        W22146  17.510  18.675   4.156
50421W        W22147  20.184  30.695  14.439
50422W        W22148  28.708  31.707  12.210
50423W        W22149  33.759  17.601   3.772
50424W        W22150   6.441  31.159   3.644
50425W        W22151  26.072  32.662  13.372
50426W        W22152   2.867  31.985  13.625
50427W        W22153  17.240  12.755  11.562
50428W        W22154  33.368  10.797   3.087
50429W        W22155  25.058   1.501  14.896
50430W        W22156  30.933  44.687   4.778
50431W        W22157   6.816  12.860  14.180
50432W        W22158  30.387  17.833  13.533
50433W        W22159  38.964  18.570  10.973
50434W        W22160  38.397  21.235   2.866
50435W        W22161   3.933  15.639   4.761
50436W        W22162  41.044  13.645   0.190
50437W        W22163  21.798  12.893  11.623
50438W        W22164  14.123   0.349  12.871
50439W        W22165  38.949  40.543  12.889
50440W        W22166   9.836  26.188  13.939
50441W        W22167  33.947  36.945   4.361
50442W        W22168  12.564  18.320   1.340
50443W        W22169  33.429  42.864   4.523
50444W        W22170  10.007   4.057   4.240
50445W        W22171  28.013  21.457   0.845
50446W        W22172  28.641  24.054  13.946
50447W        W22173  33.716  13.264  14.090
50448W        W22174  21.245   0.068  11.054
50449W        W22175  25.996  32.456  11.470
50450W        W22176  36.926  36.354  11.878
50451W        W22177  16.997  37.356  10.619
50452W        W22178  30.061  22.569   4.074
50453W        W22179  36.554  17.603  14.963
50454W        W22180   8.877  37.620   0.397
50455W        W22181  16.393  28.005   0.367
50456W        W22182  38.372  38.080   1.782
50457W        W22183  32.498  33.889  14.383
50458W        W22184   6.624  14.196  12.423
50459W        W22185   9.200  37.084  12.621
50460W        W22186   5.406  14.321   3.593
50461W        W22187  41.275  20.513   3.590
50462W        W22188  33.753  26.346   1.438
50463W        W22189  12.371  40.565  14.989
50464W        W22190  10.398  10.379  14.269
50465W        W22191  16.357  12.753  13.905
50466W        W22192  35.315  25.186   4.511
50467W        W22193   1.709  12.246   0.709
50468W        W22194  14.875  43.917   2.013
50469W        W22195  44.162  40.916  11.769
50470W        W22196  13.180  25.903  12.453
50471W        W22197   4.137  26.958   1.627
50472W        W22198  23.627  24.772  14.295
50473W        W22199  43.493   9.788   3.543
50474W        W22200  35.040   1.263   1.526
50475W        W22201  26.708   4.417  13.858
50476W        W22202  18.577  32.398  11.915
50477W        W22203   8.450  30.186  14.235
50478W        W22204  12.355   6.301  12.610
50479W        W22205   2.408   8.312  12.979
50480W        W22206  21.755   2.543  14.333
50481W        W22207  18.676   1.903   0.716
50482W        W22208  13.711  18.997   0.291
50483W        W22209  23.685  25.868   3.471
50484W        W22210   1.074  13.839   0.474
50485W        W22211  23.444  38.996  11.039
50486W        W22212  19.583  22.780   3.062
50487W        W22213   6.321  31.195  12.110
50488W        W22214  10.956   0.808  14.352
50489W        W22215  44.977  35.916  11.639
50490W        W22216  18.574  42.760   4.065
50491W        W22217  33.186  37.884  14.987
50492W        W22218  25.446  41.089  12.495
50493W        W22219  13.297   0.765  12.833
50494W        W22220  14.538  33.059  13.008
50495W        W22221  18.151   9.288   1.227
50496W        W22222  38.642  39.108   1.119
50497W        W22223  17.594  28.120   2.377
50498W        W22224  10.792  35.964   4.517
50499W        W22225  40.932  24.210  11.916
50500W        W22226   0.936  13.101   1.280
50501W        W22227  42.065  38.254   0.812
50502W        W22228  38.787  15.254  12.518
50503W        W22229  30.895  39.745   4.171
50504W        W22230  18.043  42.504  13.057
50505W        W22231  37.404  36.903  13.475
50506W        W22232  36.782  14.115   1.500
50507W        W22233  42.031  11.757   1.301
50508W        W22234  18.053  23.590  11.662
50509W        W22235  35.649  36.244   3.660
50510W        W22236  32.438  20.353  13.922
50511W        W22237  34.661  32.496  14.317
50512W        W22238  31.951   8.728   4.034
50513W        W22239  27.696  19.510  13.126
50514W        W22240  20.452   5.763   1.637
50515W        W22241  43.005   6.833  12.865
50516W        W22242  13.077   4.360   0.592
50517W        W22243  21.752  20.373   4.100
50518W        W22244  26.203  28.645   5.044
50519W        W22245  18.826  41.941   2.019
50520W        W22246   3.682  26.571   1.621
50521W        W22247  11.665  28.896  11.234
50522W        W22248  20.445  25.781   2.152
50523W        W22249  10.329  31.652   3.262
50524W        W22250  34.403   4.521   4.522
50525W        W22251  42.341  23.940   2.332
50526W        W22252  26.188  43.320   5.389
50527W        W22253  17.116  26.042  13.468
50528W        W22254   1.181  16.621   4.469
50529W        W22255   2.242  32.506  12.529
50530W        W22256  18.795   0.407   0.431
50531W        W22257  17.056  42.387  12.132
50532W        W22258  44.772  20.635   1.571
50533W        W22259  25.599  23.775   1.076
50534W        W22260  10.112   2.343   0.767
50535W        W22261  42.166  35.403  13.504
50536W        W22262  20.663  42.917   2.156
50537W        W22263  41.301  11.876   3.089
50538W        W22264   3.669  37.222   0.389
50539W        W22265  39.819   4.480   0.314
50540W        W22266  12.747  34.552   3.182
50541W        W22267  33.436  38.530  13.983
50542W        W22268  23.061   9.807   3.946
50543W        W22269  16.025  11.395  13.722
50544W        W22270  16.055  17.409  11.896
50545W        W22271  34.603  38.378  10.684
50546W        W22272  26.996   2.651  14.962
50547W        W22273  22.692  34.891  10.628
50548W        W22274   4.631  16.689   3.406
50549W        W22275  33.421   5.425   4.171
50550W        W22276  30.042  41.300  10.662
50551W        W22277  17.639  27.128  13.390
50552W        W22278   9.047  29.878  14.902
50553W        W22279  40.456  29.474  10.850
50554W        W22280  32.881  43.005  12.964
50555W        W22281   7.850  10.746   0.947
50556W        W22282  42.849   1.271   0.214
50557W        W22283  41.980   3.074  11.159
50558W        W22284  40.368   9.262   3.743
50559W        W22285   4.782  23.491  10.765
50560W        W22286  40.879  12.835   3.445
50561W        W22287  13.053  44.597   1.001
50562W        W22288  30.509  42.528   3.281
50563W        W22289  22.192  14.116  11.503
50564W        W22290  39.120   5.435   0.564
50565W        W22291   2.195  29.096   1.201
50566W        W22292   8.751  33.612  12.903
50567W        W22293  41.397  39.524  14.799
50568W        W22294  14.651  31.060   3.121
50569W        W22295  22.700  14.730  12.509
50570W        W22296  19.198   6.057  10.686
50571W        W22297  29.326  21.996   2.410
50572W        W22298  16.064  20.647  12.728
50573W        W22299  35.419  21.310  14.714
50574W        W22300  40.124  30.061   4.430
50575W        W22301   0.865  41.837   4.094
50576W        W22302  41.550  20.133   3.812
50577W        W22303   5.354  21.158  13.981
50578W        W22304  20.122  37.370   0.200
50579W        W22305  40.071  16.723  12.849
50580W        W22306  21.159   5.225   0.942
50581W        W22307  34.000  19.800  14.036
50582W        W22308  38.016   6.581  14.959
50583W        W22309  17.746   3.851  14.535
50584W        W22310   4.824   7.891  13.956
50585W        W22311   2.642  10.447  13.482
50586W        W22312  35.445  15.726  14.914
50587W        W22313  20.693  36.649   2.999
50588W        W22314   7.170  15.259   1.951
50589W        W22315  21.582  21.834  13.269
50590W        W22316  15.125  34.684   3.141
50591W        W22317  30.554  16.620   3.641
50592W        W22318  16.121   9.722   3.313
50593W        W22319  35.206  26.858   2.305
50594W        W22320  26.541  18.489   3.303
50595W        W22321  42.246  36.580  11.183
50596W        W22322  12.196  24.598  14.813
50597W        W22323  42.913  23.769   3.091
50598W        W22324   4.496  13.849  10.564
50599W        W22325  40.005   8.693  14.342
50600W        W22326  24.846  13.155   0.346
50601W        W22327  28.860  41.382   3.105
50602W        W22328   5.771   2.975   2.376
50603W        W22329  35.440  12.546   3.017
50604W        W22330  42.465  43.255  14.188
50605W        W22331  26.516  35.018  14.152
50606W        W22332  30.085   4.974  14.402
50607W        W22333  36.953   8.335  13.097
50608W        W22334  38.784  38.472   1.074
50609W        W22335  34.118  38.700  11.198
50610W        W22336  33.079  27.641  11.527
50611W        W22337  40.710  17.651   4.027
50612W        W22338   1.765  36.792   3.244
50613W        W22339  35.332  20.388  12.920
50614W        W22340   7.706  44.292  10.755
50615W        W22341   6.319  21.134   1.083
50616W        W22342  31.208   3.242   0.028
50617W        W22343  24.592  15.326   1.847
50618W        W22344   8.551  13.112  14.909
50619W        W22345  35.885  40.771  11.090
50620W        W22346   9.776  39.689  12.479
50621W        W22347  44.168  39.382   2.217
50622W        W22348  10.153  29.490   1.387
50623W        W22349   5.772  16.068   5.212
50624W        W22350  35.879  35.857  11.549
50625W        W22351   4.037  10.130  14.297
50626W        W22352  25.699   2.270  10.726
50627W        W22353  26.175  39.036   1.686
50628W        W22354  11.694  43.027  10.265
50629W        W22355   4.609  31.769   2.770
50630W        W22356  16.689   3.952   0.459
50631W        W22357   3.736  33.068   0.911
50632W        W22358  14.036  12.178   0.480
50633W        W22359  12.886   6.197  14.896
50634W        W22360  41.470  17.802  11.018
50635W        W22361  36.967  33.520  14.476
50636W        W22362  42.597  12.056  13.038
50637W        W22363  37.113   3.703  13.277
50638W        W22364  31.906  18.284  13.818
50639W        W22365   4.228  13.563  12.046
50640W        W22366  28.571  40.457   4.491
50641W        W22367  36.653   8.667   4.604
50642W        W22368   9.816  43.147  11.117
50643W        W22369  43.374  29.341  13.952
50644W        W22370  17.594  31.911  12.470
50645W        W22371  43.989  28.064  11.148
50646W        W22372  29.665  17.205   2.811
50647W        W22373  20.085  38.005  11.267
50648W        W22374  21.287  21.729   2.810
50649W        W22375  26.256  13.731  10.764
50650W        W22376  24.746   3.673   3.359
50651W        W22377  35.120  41.880   0.019
50652W        W22378   6.797   6.109  12.492
50653W        W22379  27.572  30.193   2.005
50654W        W22380   5.299   8.126  10.984
50655W        W22381  39.820  34.885   2.793
50656W        W22382   0.240  39.594  14.480
50657W        W22383  24.183   7.216   0.317
50658W        W22384  35.994   7.127  12.887
50659W        W22385  17.519  44.332  12.454
50660W        W22386  25.118   8.315   3.264
50661W        W22387  17.609  22.116  12.368
50662W        W22388   7.285  16.808   1.266
50663W        W22389  16.760   3.957   3.612
50664W        W22390  18.342  21.098  11.067
50665W        W22391  37.088  44.987  13.958
50666W        W22392  40.476  35.618   1.777
50667W        W22393  17.199  13.440  13.870
50668W        W22394  39.432   6.461  11.205
50669W        W22395  27.729  31.057  11.639
50670W        W22396  15.900  42.755   0.212
50671W        W22397   9.210  38.097   2.600
50672W        W22398  41.043  32.545   3.835
50673W        W22399  32.537  19.237  11.031
50674W        W22400  26.686  14.600  13.006
50675W        W22401   2.021  13.783   3.695
50676W        W22402   7.290  35.557   2.510
50677W        W22403  10.755  12.991   1.197
50678W        W22404  43.006  24.324  14.951
50679W        W22405  35.011  37.275  12.485
50680W        W22406  14.825  36.521   4.473
50681W        W22407  43.780  26.745  10.604
50682W        W22408  39.831  24.563  12.176
50683W        W22409  24.533   3.717   1.380
50684W        W22410  32.135   6.773   2.429
50685W        W22411  33.540  41.802   0.861
50686W        W22412   7.322  43.787  14.512
50687W        W22413  12.798  37.895  12.372
50688W        W22414  30.537   8.319   0.458
50689W        W22415  14.244  21.228  10.614
50690W        W22416   1.032  17.582   4.570
50691W        W22417  17.206  35.560  14.240
50692W        W22418  26.053   4.709  12.499
50693W        W22419   7.498  10.122   2.225
50694W        W22420  19.716  40.297  11.547
50695W        W22421  13.200   4.341  13.367
50696W        W22422  25.423  33.385   4.587
50697W        W22423  42.058  34.438  11.534
50698W        W22424  39.389   7.801   1.007
50699W        W22425  11.359  31.102  10.724
50700W        W22426   8.819   7.323   2.345
50701W        W22427  37.448  39.295   1.841
50702W        W22428  38.883   0.943   2.628
50703W        W22429  26.666  37.904  14.522
50704W        W22430   4.236  33.255  11.988
50705W        W22431  31.044  43.413  12.079
50706W        W22432   8.849  43.508   3.198
50707W        W22433   2.524  25.414   1.173
50708W        W22434  18.650  12.896  14.947
50709W        W22435  34.115   3.444   2.371
50710W        W22436  43.180  11.772   2.811
50711W        W22437  14.911  13.555  14.287
50712W        W22438  32.844  35.142  10.412
50713W        W22439  13.846  28.344  14.544
50714W        W22440  19.872  11.787  11.225
50715W        W22441  24.547  15.863   2.268
50716W        W22442  32.145  15.044   4.531
50717W        W22443   4.685   5.217   3.232
50718W        W22444  27.124  23.041   3.802
50719W        W22445  29.835  30.025  14.920
50720W        W22446  26.160  24.605   1.229
50721W        W22447  34.855  25.011  14.732
50722W        W22448  39.852  27.058   0.005
50723W        W22449  16.190  35.981  11.724
50724W        W22450  15.778  33.577  12.751
50725W        W22451  38.850  28.612  12.565
50726W        W22452  32.079  28.750  11.160
50727W        W22453   1.530  11.137  11.243
50728W        W22454  21.675  33.490   3.323
50729W        W22455  27.583   5.940  11.385
50730W        W22456  13.750  40.908  13.779
50731W        W22457  15.394  28.952   1.892
50732W        W22458  43.529  43.988  14.227
50733W        W22459  21.121  32.186  10.588
50734W        W22460  35.770   4.277   3.163
50735W        W22461  39.970  38.901   1.351
50736W        W22462  11.684  16.898   1.287
50737W        W22463  30.519  39.365   0.264
50738W        W22464  31.184  37.809  13.309
50739W        W22465   1.874  12.837  12.961
50740W        W22466  35.377  27.747   1.236
50741W        W22467  20.869  25.893   5.433
50742W        W22468  43.361  30.328  13.649
50743W        W22469  23.257  26.554   0.369
50744W        W22470  10.263  11.285   0.694
50745W        W22471  14.529  16.240  13.345
50746W        W22472  37.402  35.042   1.446
50747W        W22473  18.747  13.853   1.279
50748W        W22474   7.964  16.723   2.470
50749W        W22475  15.449   7.687   0.096
50750W        W22476  21.088  26.967   2.010
50751W        W22477  34.685  37.076  14.745
50752W        W22478  37.696  41.413  14.870
50753W        W22479  38.083  29.178   0.785
50754W        W22480  13.302  39.552  13.438
50755W        W22481  32.764  38.429   1.808
50756W        W22482   2.399  42.994   1.752
50757W        W22483  26.904   8.933  10.039
50758W        W22484  27.157  31.984  13.025
50759W        W22485  41.772  35.356  13.151
50760W        W22486  40.421  44.757  10.887
50761W        W22487  19.536  42.247  11.425
50762W        W22488  37.485  32.074  10.268
50763W        W22489  41.305  42.875  14.756
50764W        W22490  11.565  40.493   4.694
50765W        W22491   6.589  23.526   1.505
50766W        W22492  29.650  17.250  13.041
50767W        W22493  22.420  36.036   4.969
50768W        W22494  32.992  16.678   2.576
50769W        W22495  37.128  38.881   1.864
50770W        W22496  14.649  25.064   2.648
50771W        W22497  43.794  32.098   2.805
50772W        W22498  32.601  31.053  14.832
50773W        W22499  21.528  40.948   3.410
50774W        W22500  16.291  42.008  13.910
50775W        W22501  23.663  19.162  13.491
50776W        W22502   0.303   0.089  14.313
50777W        W22503   6.347  39.237  13.950
50778W        W22504  43.355  18.103   0.031
50779W        W22505  26.067  44.319  13.016
50780W        W22506   6.960   3.709   4.493
50781W        W22507  20.334  35.323   4.103
50782W        W22508  20.193  28.734  11.127
50783W        W22509  39.234  25.671  10.694
50784W        W22510   2.303  11.272   4.093
50785W        W22511  43.044  31.545  12.524
50786W        W22512  29.666  31.423   1.435
50787W        W22513  41.815  23.786  12.383
50788W        W22514  23.728  43.420   3.106
50789W        W22515  13.794  20.721  14.091
50790W        W22516  19.721  34.023  11.114
50791W        W22517   5.917  23.723  10.765
50792W        W22518  41.959  32.506   3.278
50793W        W22519   1.746  29.417  14.419
50794W        W22520  10.837  30.210   3.116
50795W        W22521   4.208  37.823   1.764
50796W        W22522   7.366  34.547   1.249
50797W        W22523  17.385  34.125  13.135
50798W        W22524  25.161  23.454  13.323
50799W        W22525   2.721  12.118  11.640
50800W        W22526  20.294  32.517   3.380
50801W        W22527   7.122  22.009  14.254
50802W        W22528  31.454  12.601   0.415
50803W        W22529  41.527  43.285  14.496
50804W        W22530  24.604   5.874  14.064
50805W        W22531   1.348  14.999   2.909
50806W        W22532  19.601  22.588   1.696
50807W        W22533  22.651   4.025   3.141
50808W        W22534  33.031  17.616  14.422
50809W        W22535  40.318   3.696  13.019
50810W        W22536  15.892  30.521   3.321
50811W        W22537  38.359  34.829  12.349
50812W        W22538  21.903   5.406   2.833
50813W        W22539  34.960  12.548  14.865
50814W        W22540  27.956  25.586   4.937
50815W        W22541  42.968  17.742  13.421
50816W        W22542  23.670   3.295   2.336
50817W        W22543  17.654  39.274  12.782
50818W        W22544  17.314  38.856  11.915
50819W        W22545  11.688  20.589   3.784
50820W        W22546  11.103  44.202   3.207
50821W        W22547   1.445  36.809   1.026
50822W        W22548   1.077   1.900   1.005
50823W        W22549  12.350  27.399  12.865
50824W        W22550  27.089  23.751  11.152
50825W        W22551  29.462  10.143  10.326
50826W        W22552  26.012  35.426   1.133
50827W        W22553   6.811  10.121   2.762
50828W        W22554  27.189  44.231  11.578
50829W        W22555   8.284  10.150  14.883
50830W        W22556  36.880  26.533  10.707
50831W        W22557   9.668  32.454   4.804
50832W        W22558  32.285  31.404   0.433
50833W        W22559  31.613   9.835  11.098
50834W        W22560  20.357  18.672  14.156
50835W        W22561  34.495  14.321  11.848
50836W        W22562  17.701  36.286   2.506
50837W        W22563  27.625  32.552   3.777
50838W        W22564  23.663   7.928   3.729
50839W        W22565  35.114  20.181  11.943
50840W        W22566  22.797  28.953   0.334
50841W        W22567  26.533  28.015  12.461
50842W        W22568  39.854  40.425  12.773
50843W        W22569  17.753  34.599   1.856
50844W        W22570   2.285   4.561   1.927
50845W        W22571  43.051  15.467   0.808
50846W        W22572   9.876   3.155  13.903
50847W        W22573  11.738  35.438   2.353
50848W        W22574   8.821   4.217   0.507
50849W        W22575  24.552  42.013  11.620
50850W        W22576   8.041  41.852  11.672
50851W        W22577  44.097  41.999  13.115
50852W        W22578  21.197  29.878   1.914
50853W        W22579  25.643  20.835  10.788
50854W        W22580   0.002  31.464   1.110
50855W        W22581  28.915  30.229  14.936
50856W        W22582   0.269  13.392   0.804
50857W        W22583   8.945  39.122   4.223
50858W        W22584   5.936  29.475  10.639
50859W        W22585  27.905  25.141   4.136
50860W        W22586  38.273  43.915   3.887
50861W        W22587  17.990  16.700   0.839
50862W        W22588  20.205  29.081  12.801
50863W        W22589  40.347  27.752   0.247
50864W        W22590  11.758  41.880   0.137
50865W        W22591  23.855  29.033  12.704
50866W        W22592  37.388  31.677   4.282
50867W        W22593  21.574   2.758   0.731
50868W        W22594  31.915   8.300  11.191
50869W        W22595  39.626  20.484   0.837
50870W        W22596  44.700  21.242   2.316
50871W        W22597  29.649  13.724   0.792
50872W        W22598  29.485  17.189  11.233
50873W        W22599  34.909  30.310   2.100
50874W        W22600  38.595  15.276   4.442
50875W        W22601   7.296  31.450   2.840
50876W        W22602  29.979  20.649   0.385
50877W        W22603   1.963  32.948  12.282
50878W        W22604  13.525  11.946   1.349
50879W        W22605  17.979  18.630   0.413
50880W        W22606  15.591  24.085  14.386
50881W        W22607  38.329  44.507  12.169
50882W        W22608  25.536   2.862  14.522
50883W        W22609   2.435   5.841  13.673
50884W        W22610  38.430  32.228  13.192
50885W        W22611  37.405  12.935   4.656
50886W        W22612  43.340  31.324  13.310
50887W        W22613  20.308  14.835  13.581
50888W        W22614  30.207  36.867   3.244
50889W        W22615  13.338  16.810   3.209
50890W        W22616   4.241  24.517  13.392
50891W        W22617  30.167  16.205   3.134
50892W        W22618  17.647  28.327  14.783
50893W        W22619  39.350  42.078   3.204
50894W        W22620  14.793  38.887   0.410
50895W        W22621  32.503  22.298  11.629
50896W        W22622  42.377  16.690  13.823
50897W        W22623  11.521  42.103   2.804
50898W        W22624  44.833  37.480   0.327
50899W        W22625  14.391  17.544  14.883
50900W        W22626   9.417  30.364  10.751
50901W        W22627  37.328  33.315   0.495
50902W        W22628   7.147  11.104   3.706
50903W        W22629   0.380  28.598  12.592
50904W        W22630   3.014  32.742   1.864
50905W        W22631   1.274  15.334   1.448
50906W        W22632  43.897   2.449  13.813
50907W        W22633   6.713   0.835  10.829
50908W        W22634  21.454  37.775   2.642
50909W        W22635  36.905  28.346   4.862
50910W        W22636   6.660  37.320  11.917
50911W        W22637  37.479   1.058  14.449
50912W        W22638   6.917  20.472  12.630
50913W        W22639  16.568  15.088  14.459
50914W        W22640  24.690  23.091   1.905
50915W        W22641  41.749   4.818  10.900
50916W        W22642   3.279  13.845  13.854
50917W        W22643  37.558   9.221  12.291
50918W        W22644  17.332   4.743   3.312
50919W        W22645  16.815  20.232  12.465
50920W        W22646  16.658  35.771   0.374
50921W        W22647   2.914  33.978   2.693
50922W        W22648  42.853  24.063  13.152
50923W        W22649   3.033  42.452  10.713
50924W        W22650  35.974  43.211  13.521
50925W        W22651  32.443   1.518  14.962
50926W        W22652  43.581  43.309  11.105
50927W        W22653  41.241   3.820  14.322
50928W        W22654   5.790  41.420   4.033
50929W        W22655  38.449  39.862  10.910
50930W        W22656  28.055   2.650  10.705
50931W        W22657  35.590  35.394  12.431
50932W        W22658  43.658  26.108   1.750
50933W        W22659  41.547  42.946  11.075
50934W        W22660   3.639  19.285   0.032
50935W        W22661   7.729  18.635  10.507
50936W        W22662  42.606   0.904  12.109
50937W        W22663  44.281   8.469   3.929
50938W        W22664  31.910  29.244  11.217
50939W        W22665  18.758  39.103   1.320
50940W        W22666  39.448  34.904   0.264
50941W        W22667  19.567  43.807  13.511
50942W        W22668  24.950  43.274  10.584
50943W        W22669  41.032  17.577  11.131
50944W        W22670  22.280  13.133   0.674
50945W        W22671  14.709  21.605   0.424
50946W        W22672   0.797  27.565  14.565
50947W        W22673  21.708  11.605   2.576
50948W        W22674  28.156  41.803  11.433
50949W        W22675  36.487  30.767  12.327
50950W        W22676   5.875   0.892  12.919
50951W        W22677  19.978  34.984  11.083
50952W        W22678  11.696  26.192  12.751
50953W        W22679  23.679  16.741   4.514
50954W        W22680  27.576  39.620   4.096
50955W        W22681   3.186  41.440   2.445
50956W        W22682  35.500  24.147   2.242
50957W        W22683   3.206  31.970   2.336
50958W        W22684  23.222  17.670  11.712
50959W        W22685  15.272  27.546   2.403
50960W        W22686  22.978   6.524   2.631
50961W        W22687  40.859  37.961  12.868
50962W        W22688  28.549   0.285  10.986
50963W        W22689  38.016   1.901   0.427
50964W        W22690   2.835   6.479   3.924
50965W        W22691  16.253  30.713   1.945
50966W        W22692  10.204  37.994   3.837
50967W        W22693  32.114  25.768   5.411
50968W        W22694  37.038  23.693  13.568
50969W        W22695   5.833  13.513   9.775
50970W        W22696  29.436  29.110   1.373
50971W        W22697  44.976  41.910  14.799
50972W        W22698   4.231   6.493  14.905
50973W        W22699  12.212  29.841  11.905
50974W        W22700  38.534   5.971  14.517
50975W        W22701  35.066  15.535  13.500
50976W        W22702  35.876   3.152   0.194
50977W        W22703   9.775  22.037   0.107
50978W        W22704  20.980  32.546   0.818
50979W        W22705  40.789   0.919   4.543
50980W        W22706  13.267  42.693  10.378
50981W        W22707  38.965   1.819   1.323
50982W        W22708  16.762  31.487   3.897
50983W        W22709  27.530  30.648   1.689
50984W        W22710  41.918  22.944   2.892
50985W        W22711   0.964   0.056   3.191
50986W        W22712   1.482  17.287  12.680
50987W        W22713  26.993  37.847  14.916
50988W        W22714  40.493  43.904   3.022
50989W        W22715  29.702   2.701   1.669
50990W        W22716  11.369  12.094  12.699
50991W        W22717   0.494   4.901   2.044
50992W        W22718   8.905  20.004   1.221
50993W        W22719  36.629  23.146  10.698
50994W        W22720  24.567   1.714  14.013
50995W        W22721   3.672   2.712   3.659
50996W        W22722  40.486  17.091   3.223
50997W        W22723  40.846  32.113   0.302
50998W        W22724  41.346  16.718   0.195
50999W        W22725  16.112  14.254   0.429
51000W        W22726  14.383   9.112   2.355
51001W        W22727  13.098  40.414  11.969
51002W        W22728   1.103   6.131  11.940
51003W        W22729  12.102  22.332   3.010
51004W        W22730  19.121  25.507   2.495
51005W        W22731   6.309  23.273  13.383
51006W        W22732   3.309  33.197  11.994
51007W        W22733  11.793  30.441   4.124
51008W        W22734  17.164  27.886   1.390
51009W        W22735   3.391  37.576  10.455
51010W        W22736  28.396  22.638   1.424
51011W        W22737  23.348  38.377  11.588
51012W        W22738  31.596   0.231   3.392
51013W        W22739  44.558  27.060  14.640
51014W        W22740   8.841   6.314   3.499
51015W        W22741  40.356  24.793   3.830
51016W        W22742  13.143   1.314  10.717
51017W        W22743   9.667  28.578  14.494
51018W        W22744  21.223  14.387  13.027
51019W        W22745  24.813  39.516  11.162
51020W        W22746  30.073  37.747  13.017
51021W        W22747  34.568  35.309  12.482
51022W        W22748  10.451  18.202   5.180
51023W        W22749  36.747  15.279  12.944
51024W        W22750  32.659   3.224   0.939
51025W        W22751  25.487  23.187   3.311
51026W        W22752   8.715  28.414   4.766
51027W        W22753  41.493  22.681  11.687
51028W        W22754  14.887  44.998   4.521
51029W        W22755  17.565  15.281   1.858
51030W        W22756  42.960  28.965   4.289
51031W        W22757  39.913  41.787  11.462
51032W        W22758  17.369  12.304   3.194
51033W        W22759  22.056   2.402   1.504
51034W        W22760  38.543  40.483  12.576
51035W        W22761  14.558  15.749   4.197
51036W        W22762  10.329   8.698   2.771
51037W        W22763  27.510  33.322  13.355
51038W        W22764   0.982  37.471  14.038
51039W        W22765  13.891  23.098   1.723
51040W        W22766  44.780  13.338  10.983
51041W        W22767  19.770  11.762  13.540
51042W        W22768   3.581  12.828  10.665
51043W        W22769  33.872  44.750  11.545
51044W        W22770  29.328   5.851  11.470
51045W        W22771  38.077   1.469   3.673
51046W        W22772  34.782  41.120   9.862
51047W        W22773  20.283  28.677   0.185
51048W        W22774  14.321  16.019   2.756
51049W        W22775   6.789  25.731   3.201
51050W        W22776  12.406  10.749  12.837
51051W        W22777   3.290   6.647  12.097
51052W        W22778   5.721  37.570  11.881
51053W        W22779  17.859  40.507  14.304
51054W        W22780  32.639  10.047  12.390
51055W        W22781  39.769   6.773  11.416
51056W        W22782   2.428  29.900   0.733
51057W        W22783   3.427  44.793   1.919
51058W        W22784  38.791  11.809  12.921
51059W        W22785  29.280  15.891  11.019
51060W        W22786  20.268  19.888   4.629
51061W        W22787   7.923  32.510  10.277
51062W        W22788   9.286  13.815  11.170
51063W        W22789  38.264  12.529   3.378
51064W        W22790  30.504  10.132  13.942
51065W        W22791  19.042  32.454  14.351
51066W        W22792   6.121  36.292   1.758
51067W        W22793  14.259   6.192   2.377
51068W        W22794  22.202  20.993   2.649
51069W        W22795   6.398  26.537   4.218
51070W        W22796  23.966   0.675  12.779
51071W        W22797  10.920  38.443   2.161
51072W        W22798   3.660  44.535   3.207
51073W        W22799  39.361  41.052  14.763
51074W        W22800  42.881  42.351  12.996
51075W        W22801   8.340  43.547   1.431
51076W        W22802   9.919   8.888  11.134
51077W        W22803   7.105  22.309   4.175
51078W        W22804  43.545   6.372   3.653
51079W        W22805  30.781   4.661   4.628
51080W        W22806  10.424  20.092   1.287
51081W        W22807  18.866   8.613  12.878
51082W        W22808   7.425  31.957  14.511
51083W        W22809  18.074  15.896  13.136
51084W        W22810  29.746  14.618  12.407
51085W        W22811  35.435  33.892  13.802
51086W        W22812  17.623  26.867   4.804
51087W        W22813  43.219   0.746  14.862
51088W        W22814   1.273  31.389  11.963
51089W        W22815  16.710  31.321  10.743
51090W        W22816  44.367  23.124  11.127
51091W        W22817  31.511  34.323   2.759
51092W        W22818   7.186  26.132   0.977
51093W        W22819  18.102  40.537   0.480
51094W        W22820  36.153   2.760   3.767
51095W        W22821   3.218   6.907  12.549
51096W        W22822  24.992   2.852  12.339
51097W        W22823  11.259  26.175  11.190
51098W        W22824  27.426  38.853  12.501
51099W        W22825   5.206  26.082  13.790
51100W        W22826  41.375  11.766  13.966
51101W        W22827  12.683  10.880   2.019
51102W        W22828  20.232   1.246  14.080
51103W        W22829  26.238  20.404  13.583
51104W        W22830  29.612  41.046   2.842
51105W        W22831   2.385  38.991  14.586
51106W        W22832  33.871  35.817  11.921
51107W        W22833  27.432  27.803  12.470
51108W        W22834  25.690  18.873   0.778
51109W        W22835  36.285  19.630  14.981
51110W        W22836   7.308  13.889   0.492
51111W        W22837  28.186  10.902  11.626
51112W        W22838  20.158  27.608   0.359
51113W        W22839   1.020  13.584   3.749
51114W        W22840  32.985  41.116  10.954
51115W        W22841  22.631   1.416  14.361
51116W        W22842  35.785  24.788  11.045
51117W        W22843   1.891  36.341   4.629
51118W        W22844  25.726  42.889   4.763
51119W        W22845  18.063  14.514   1.352
51120W        W22846  18.205  38.528  11.002
51121W        W22847  38.196  19.601  11.549
51122W        W22848  35.378   6.317  14.742
51123W        W22849  39.361  16.534   3.742
51124W        W22850  34.547  44.498  12.840
51125W        W22851  27.084  44.120   5.495
51126W        W22852   3.991  20.499  13.932
51127W        W22853  22.459  26.607  11.545
51128W        W22854  17.487  34.607   3.150
51129W        W22855  22.551   4.823  10.564
51130W        W22856  42.021   7.222   3.298
51131W        W22857  24.624   2.444   0.295
51132W        W22858  10.709  42.251   0.977
51133W        W22859  36.144   3.708  13.946
51134W        W22860  39.729  17.151   0.027
51135W        W22861   3.752  25.224   3.485
51136W        W22862  13.049  29.861   2.206
51137W        W22863  29.936   3.924   1.235
51138W        W22864  21.237  31.520  11.108
51139W        W22865  24.104   5.892  14.343
51140W        W22866  28.549  21.767   1.501
51141W        W22867  19.278  40.867   1.958
51142W        W22868  44.232  25.308   1.561
51143W        W22869  10.603   5.379   4.646
51144W        W22870  34.498  40.378  12.413
51145W        W22871  15.096   1.233   4.205
51146W        W22872  17.443  15.329   1.336
51147W        W22873  10.355  35.990   4.805
51148W        W22874  30.342  43.532   3.023
51149W        W22875  29.614  13.600   4.220
51150W        W22876  35.763  28.545  11.189
51151W        W22877  10.940  12.839   3.687
51152W        W22878  42.421  35.127  11.356
51153W        W22879  14.372  24.140  12.024
51154W        W22880   1.674  36.875  14.515
51155W        W22881   9.099  20.956   2.919
51156W        W22882  44.971  14.653  10.773
51157W        W22883  39.207  43.504   2.663
51158W        W22884   3.170   1.232   4.648
51159W        W22885   6.761  37.145  11.088
51160W        W22886   3.280  36.454  10.802
51161W        W22887  41.022   1.484  12.844
51162W        W22888   5.483  19.108   2.136
51163W        W22889   9.201  43.875   4.494
51164W        W22890   8.451  30.338   3.687
51165W        W22891  43.294  25.590  13.069
51166W        W22892  28.558  32.049  13.005
51167W        W22893  38.611  17.210  14.322
51168W        W22894  37.051   0.922   0.308
51169W        W22895   2.052  23.132  11.986
51170W        W22896  25.225   1.862  11.956
51171W        W22897  14.739  40.743  10.220
51172W        W22898  25.350  11.435  14.594
51173W        W22899  35.481  28.521   4.711
51174W        W22900  13.279  22.612  10.730
51175W        W22901  31.613  27.094   2.956
51176W        W22902  33.506  43.951  10.048
51177W        W22903  28.529  19.508   4.988
51178W        W22904  34.146  20.184   4.473
51179W        W22905  14.753   3.298  14.805
51180W        W22906  41.340  35.881  13.928
51181W        W22907  17.705  14.558  12.548
51182W        W22908  12.742  33.325  10.678
51183W        W22909  18.515  28.746  11.118
51184W        W22910  43.800  12.620   2.753
51185W        W22911  29.558  33.057   0.479
51186W        W22912  17.217   9.448  10.713
51187W        W22913  25.452   0.259  11.771
51188W        W22914   9.412  32.528   1.444
51189W        W22915  39.282  19.734   0.133
51190W        W22916  12.907   3.464  14.503
51191W        W22917   2.481  19.230   3.679
51192W        W22918  17.085  38.375  13.524
51193W        W22919  38.844  12.123  12.349
51194W        W22920  11.800  30.554   3.107
51195W        W22921  23.639  33.549  11.212
51196W        W22922  13.969   7.949   0.915
51197W        W22923   4.358  13.858   4.991
51198W        W22924  28.506  35.089  10.727
51199W        W22925  43.247  24.806  12.352
51200W        W22926  11.700  41.308  12.605
51201W        W22927  37.593   1.978  12.192
51202W        W22928   9.659  30.935   1.692
51203W        W22929  38.421  40.026   4.094
51204W        W22930  32.841  11.374   2.760
51205W        W22931  25.090  28.555   4.321
51206W        W22932  27.728  22.840   3.148
51207W        W22933  29.271  26.552   2.670
51208W        W22934  24.444   0.222   0.900
51209W        W22935  41.264  19.701   0.861
51210W        W22936  33.807  19.603   1.384
51211W        W22937  40.582   9.828  14.361
51212W        W22938  23.476  13.288  13.576
51213W        W22939  37.988  38.354  10.926
51214W        W22940  37.525  22.989   4.479
51215W        W22941  41.847  21.502  14.225
51216W        W22942   2.133   6.984  13.050
51217W        W22943   1.676  16.850   4.367
51218W        W22944  29.125  34.628  12.490
51219W        W22945  24.525   4.990  12.971
51220W        W22946  13.779  24.114   3.916
51221W        W22947   6.491  33.882  12.872
51222W        W22948  41.400  12.101  11.671
51223W        W22949  41.282   0.493  10.875
51224W        W22950  41.820  20.821  12.648
51225W        W22951  30.354   7.903   0.178
51226W        W22952   9.411  42.176   2.396
51227W        W22953  28.910  27.908   4.006
51228W        W22954   7.059  40.346  14.767
51229W        W22955  33.969  42.736   9.917
51230W        W22956  43.253   3.567   3.287
51231W        W22957  28.078   4.738  10.642
51232W        W22958  24.716  20.541  14.948
51233W        W22959   5.940  25.469  12.497
51234W        W22960  38.557  26.252   2.199
51235W        W22961  15.187  24.629  13.569
51236W        W22962   8.965   4.708   2.193
51237W        W22963  21.428  23.577   3.317
51238W        W22964  15.828  40.940  11.183
51239W        W22965  13.071   5.664  11.610
51240W        W22966  30.918  26.221  14.099
51241W        W22967  40.157   0.679   3.297
51242W        W22968  27.948  34.304   4.326
51243W        W22969  16.618  22.000  12.027
51244W        W22970  32.232  17.704   1.848
51245W        W22971  24.470   8.825  13.930
51246W        W22972   8.199   6.394  13.743
51247W        W22973  36.355  33.748   4.190
51248W        W22974  34.960   0.834   1.146
51249W        W22975  37.940  28.647  12.400
51250W        W22976  35.358   1.636  11.685
51251W        W22977   7.167   2.936   2.691
51252W        W22978  19.525  31.246  11.444
51253W        W22979  25.785  41.911   0.985
51254W        W22980  29.169  32.427  14.363
51255W        W22981  17.069  31.414  12.045
51256W        W22982  36.490   1.281   1.395
51257W        W22983  20.477  22.300  10.284
51258W        W22984  20.658  11.115   1.695
51259W        W22985   9.916  11.166  12.923
51260W        W22986  16.109  20.006   2.784
51261W        W22987  20.227  32.341   4.212
51262W        W22988  10.823  25.834   0.315
51263W        W22989  27.177   4.556  14.082
51264W        W22990   4.227   7.629   0.831
51265W        W22991  18.925  42.362   4.103
51266W        W22992   7.258  42.267  11.909
51267W        W22993  23.869  43.426   0.851
51268W        W22994  15.203  15.871   0.353
51269W        W22995  20.182  19.677   0.796
51270W        W22996  16.007  10.777  13.948
51271W        W22997  38.903  21.228   3.339
51272W        W22998  41.567  39.983   0.537
51273W        W22999  35.104  25.180  14.314
51274W        W23000  40.252  27.778  13.033
51275W        W23001  15.529  34.091  12.099
51276W        W23002   5.812  37.262   3.300
51277W        W23003  36.113   7.201   4.208
51278W        W23004  10.662  17.740   4.162
51279W        W23005   2.931   5.550  10.844
51280W        W23006  11.215  39.340  13.246
51281W        W23007  21.713   2.685   3.201
51282W        W23008   4.174  12.274   1.261
51283W        W23009  41.757   2.471   3.304
51284W        W23010   5.517  15.773   9.750
51285W        W23011   0.965   3.381   2.291
51286W        W23012   0.867  11.399  13.940
51287W        W23013  11.846  16.111  11.103
51288W        W23014  36.824  13.352  14.810
51289W        W23015  25.076  13.693   4.712
51290W        W23016  15.854  25.168   1.005
51291W        W23017  23.091   3.326  14.865
51292W        W23018  37.336  40.004   2.704
51293W        W23019  25.671   8.542   4.652
51294W        W23020  39.377  10.731  11.940
51295W        W23021  31.021  29.315   1.215
51296W        W23022  32.863  42.914  11.965
51297W        W23023  12.113  42.695  13.923
51298W        W23024  11.113   2.822   0.890
51299W        W23025  14.888  26.470   0.730
51300W        W23026  34.908  24.872   3.102
51301W        W23027  11.280  36.944   1.749
51302W        W23028  17.808  39.986   0.967
51303W        W23029  11.147  33.207  13.572
51304W        W23030   8.692   0.221   1.143
51305W        W23031  22.895  35.873  13.843
51306W        W23032  42.478  19.727  14.037
51307W        W23033   1.982  28.222   1.115
51308W        W23034  19.705  10.340  11.458
51309W        W23035  15.211   9.229   1.221
51310W        W23036  14.618  15.928  11.524
51311W        W23037  42.830  18.968  14.858
51312W        W23038   6.961  28.194   2.588
51313W        W23039  25.762  13.818   4.194
51314W        W23040   4.739   8.703  12.121
51315W        W23041  36.717  37.985  11.496
51316W        W23042  41.044  12.087   4.607
51317W        W23043  16.928   0.894   0.214
51318W        W23044  22.712  37.613  13.249
51319W        W23045  25.242  14.182   3.840
51320W        W23046  39.555  25.293   4.134
51321W        W23047  19.845  42.413   0.804
51322W        W23048   4.213  28.526  13.805
51323W        W23049  16.731  26.526  14.677
51324W        W23050  39.259   5.819  14.884
51325W        W23051  33.394  43.694  11.402
51326W        W23052  21.080  11.331  13.044
51327W        W23053   4.776  17.285   0.649
51328W        W23054   9.805  11.062   4.087
51329W        W23055   6.332  24.514  10.755
51330W        W23056  44.355  19.522  13.984
51331W        W23057  16.807  37.261   3.847
51332W        W23058  39.454  23.236  10.944
51333W        W23059  12.064  43.395  10.290
51334W        W23060  25.228  32.997   4.319
51335W        W23061  20.088  19.779  13.504
51336W        W23062  13.851  38.848  10.461
51337W        W23063  27.706  39.097   4.088
51338W        W23064   1.451  29.518  12.025
51339W        W23065   3.201  24.443  12.406
51340W        W23066   6.854  26.779   2.807
51341W        W23067   2.202  42.223   3.764
51342W        W23068  34.584  18.639   1.891
51343W        W23069  43.886  30.099   3.641
51344W        W23070  35.519  37.930   3.662
51345W        W23071   5.846  18.788  11.595
51346W        W23072   8.373  14.163   1.003
51347W        W23073  34.014  29.585  11.980
51348W        W23074   4.275   7.024   4.207
51349W        W23075  44.470  17.138  12.959
51350W        W23076  32.045  21.669  10.638
51351W        W23077  28.616  17.416   1.026
51352W        W23078  16.517  37.763   1.919
51353W        W23079  20.965  39.153  12.360
51354W        W23080   1.392  15.386   1.948
51355W        W23081  34.913  33.907  13.477
51356W        W23082  33.478  26.548  13.412
51357W        W23083  30.727  15.079  10.571
51358W        W23084  23.141  23.574   2.883
51359W        W23085  36.522  14.168  12.141
51360W        W23086   6.283  43.240  12.452
51361W        W23087  15.647  37.807  14.969
51362W        W23088  19.107   1.208   1.307
51363W        W23089  42.887  23.294  11.062
51364W        W23090  18.287   7.664   0.687
51365W        W23091  11.194   1.028  11.173
51366W        W23092  16.695  22.070  14.519
51367W        W23093  29.706  18.623   3.322
51368W        W23094  30.137  40.788   1.402
51369W        W23095   7.562  22.278  13.914
51370W        W23096   6.340   4.400   9.721
51371W        W23097  38.505  15.715  13.887
51372W        W23098  16.307  31.866   3.321
51373W        W23099  37.096  19.974  12.966
51374W        W23100  15.088  34.971   4.463
51375W        W23101   7.043  21.278   1.927
51376W        W23102  33.456  25.642   4.081
51377W        W23103   5.795   8.816  10.386
51378W        W23104  21.817  14.011   4.148
51379W        W23105  26.418  14.828  13.369
51380W        W23106  21.073  40.997  13.281
51381W        W23107   9.608   4.752  12.071
51382W        W23108   1.497   8.169  10.795
51383W        W23109   1.963  38.547   4.490
51384W        W23110  22.032  10.443   3.485
51385W        W23111  38.038  21.779   4.076
51386W        W23112  34.835  42.736  13.328
51387W        W23113  33.850  13.283   2.928
51388W        W23114  28.601   2.803  13.553
51389W        W23115  33.636  26.783  14.924
51390W        W23116  37.589  12.737  11.240
51391W        W23117  20.783  21.718  12.457
51392W        W23118  34.004  33.071   2.325
51393W        W23119  39.069   4.961  10.184
51394W        W23120   7.653  13.478  11.610
51395W        W23121  20.047  22.720  11.866
51396W        W23122  39.976  32.131   3.748
51397W        W23123  17.939   1.271  12.629
51398W        W23124  28.044  21.791   1.257
51399W        W23125   8.732  16.247   2.838
51400W        W23126  34.459  15.326   0.428
51401W        W23127   8.256  17.226   0.382
51402W        W23128  30.835  17.253   1.831
51403W        W23129  33.561  29.577   5.020
51404W        W23130  35.294  43.061  11.328
51405W        W23131   9.124  35.650  10.482
51406W        W23132  30.430  34.762   4.050
51407W        W23133   9.132   4.376  11.491
51408W        W23134  17.618  23.526   0.800
51409W        W23135  12.498   0.322  11.155
51410W        W23136   6.356  39.936   0.478
51411W        W23137  38.359   3.954   4.554
51412W        W23138  40.845  14.160  11.217
51413W        W23139  30.518  31.228  14.712
51414W        W23140  31.269  39.404   3.317
51415W        W23141  38.444   2.556   2.360
51416W        W23142  13.307  36.940  12.910
51417W        W23143  24.650  38.063  11.004
51418W        W23144  11.914  39.617  12.622
51419W        W23145  15.612  35.119  11.578
51420W        W23146  34.971  28.151   5.158
51421W        W23147  12.457   4.378  14.444
51422W        W23148  15.340  41.081   2.170
51423W        W23149  39.588  42.299  14.846
51424W        W23150  17.266  33.443   0.963
51425W        W23151  28.186  30.929   2.315
51426W        W23152  33.132   9.917  12.511
51427W        W23153  31.547  17.374  13.517
51428W        W23154  35.366   3.207   0.429
51429W        W23155   5.061  26.685   2.732
51430W        W23156  21.370  43.748  11.462
51431W        W23157  33.333  44.977   1.279
51432W        W23158   9.919  25.655   3.550
51433W        W23159   2.959   2.190   2.541
51434W        W23160   3.628  23.998   3.123
51435W        W23161   6.778  40.074   2.190
51436W        W23162  12.327   3.496  14.800
51437W        W23163  30.199  42.731  13.106
51438W        W23164  39.530  13.999  11.056
51439W        W23165   7.418  28.452   0.007
51440W        W23166  40.369   5.680   0.316
51441W        W23167  28.030  20.737  13.811
51442W        W23168   4.689  11.327   0.261
51443W        W23169  14.241  22.921  14.776
51444W        W23170  35.976  15.501  14.263
51445W        W23171  28.689  18.959  12.356
51446W        W23172  27.595  19.088   3.226
51447W        W23173  20.781  38.565  12.398
51448W        W23174  22.120  27.232   3.208
51449W        W23175  11.941  35.846   2.594
51450W        W23176  22.728  37.051  14.791
51451W        W23177  38.484  42.750  14.309
51452W        W23178  28.948  17.049   1.264
51453W        W23179  12.392   4.240  10.837
51454W        W23180  17.232  38.041   0.624
51455W        W23181   8.357  15.786  14.005
51456W        W23182  38.295  41.136   5.134
51457W        W23183  20.511  15.543   3.753
51458W        W23184  21.928  41.030  11.099
51459W        W23185  34.315   7.640   1.913
51460W        W23186   7.258  36.861  11.091
51461W        W23187  21.623  37.255   0.758
51462W        W23188  30.538   6.172   1.480
51463W        W23189   0.660   8.819  11.963
51464W        W23190   4.892  25.025   1.223
51465W        W23191   2.370  22.026   0.073
51466W        W23192  30.272   4.847   3.814
51467W        W23193  17.367  34.068  14.924
51468W        W23194  20.184  27.579  11.240
51469W        W23195  17.200  25.526  10.932
51470W        W23196  34.501  21.606  13.345
51471W        W23197  21.639  27.467  14.359
51472W        W23198  26.477   3.974  11.552
51473W        W23199  16.381  21.544   2.259
51474W        W23200  15.274   0.698  11.009
51475W        W23201  31.441  27.343   1.688
51476W        W23202  34.649  15.805   0.389
51477W        W23203  10.690  15.055   4.736
51478W        W23204  28.499  12.696   3.700
51479W        W23205  26.946  16.195  13.611
51480W        W23206  40.309  17.830   2.799
51481W        W23207  24.385  34.407  14.266
51482W        W23208  41.274  33.030   2.297
51483W        W23209  34.676  33.889  12.958
51484W        W23210  27.070  41.389   4.301
51485W        W23211  11.628  12.255  12.097
51486W        W23212  26.648  11.803  13.422
51487W        W23213   9.474  33.955  14.955
51488W        W23214  16.111  42.976  13.348
51489W        W23215  30.968   2.789   0.200
51490W        W23216  26.577   4.469  11.600
51491W        W23217  13.732  13.223   3.812
51492W        W23218   3.930  44.076  13.300
51493W        W23219  16.832   9.842  13.528
51494W        W23220  18.687   9.933  13.457
51495W        W23221  23.471  13.811  11.381
51496W        W23222  44.864   5.279   4.641
51497W        W23223  18.962  18.583  13.872
51498W        W23224  29.748   0.941   5.086
51499W        W23225  30.651  35.383  11.023
51500W        W23226  19.572  15.577  13.340
51501W        W23227  44.049  15.732  10.206
51502W        W23228   3.846  32.608  12.382
51503W        W23229  22.299   4.248  13.157
51504W        W23230  11.136  26.532   1.959
51505W        W23231  27.679  32.174   3.395
51506W        W23232  21.225  24.485   3.384
51507W        W23233  10.132  35.519   0.960
51508W        W23234  22.873  16.588   4.146
51509W        W23235  21.526  36.422   4.235
51510W        W23236   8.967   4.790  10.632
51511W        W23237   6.211  34.625  13.394
51512W        W23238  13.134  32.890   3.204
51513W        W23239  11.969   3.896  10.788
51514W        W23240  34.583   4.598   2.661
51515W        W23241   5.757  43.122   1.593
51516W        W23242  25.447  10.448  11.129
51517W        W23243  10.585   6.267  10.720
51518W        W23244  16.791   1.777  11.626
51519W        W23245  36.087  44.846   4.363
51520W        W23246   0.285  30.470  12.559
51521W        W23247  12.323  22.132  12.915
51522W        W23248   8.080  41.861   3.682
51523W        W23249  22.928  38.220  10.842
51524W        W23250  37.346  30.273   9.921
51525W        W23251  38.832  29.020  13.858
51526W        W23252  24.554   9.183   1.071
51527W        W23253  18.829  28.497   4.921
51528W        W23254  15.611  16.234   1.881
51529W        W23255   5.851  10.809   0.891
51530W        W23256  27.884  26.738  13.874
51531W        W23257  12.294  42.362   4.713
51532W        W23258   0.136  30.369  14.416
51533W        W23259  11.217  28.835  12.797
51534W        W23260   5.946  28.938   0.370
51535W        W23261  31.202  23.464   4.161
51536W        W23262  13.275  44.223  13.930
51537W        W23263  43.343   9.717  14.162
51538W        W23264  44.158  36.849  11.118
51539W        W23265   6.780  24.070   4.773
51540W        W23266   3.510  33.043   4.754
51541W        W23267  20.933   0.131   4.963
51542W        W23268  10.248  12.150   1.275
51543W        W23269  39.483  27.956  13.400
51544W        W23270  20.349  17.958  12.519
51545W        W23271  41.496   3.774  12.449
51546W        W23272  33.043  25.142  10.220
51547W        W23273   2.718  43.711  11.965
51548W        W23274  27.646  23.815   0.663
51549W        W23275  36.898  25.680  12.076
51550W        W23276  31.082  19.125   0.403
51551W        W23277   2.004  25.265  14.516
51552W        W23278   1.609   0.264  14.353
51553W        W23279  23.621  10.556   2.660
51554W        W23280  20.787  44.774   1.498
51555W        W23281  10.728  41.854  14.040
51556W        W23282  14.187  13.829   0.504
51557W        W23283  16.805  41.762  14.891
51558W        W23284  17.634  28.981   1.357
51559W        W23285  42.838  12.319  11.486
51560W        W23286  42.726   5.871  14.844
51561W        W23287  41.828   5.463   0.302
51562W        W23288  35.266   6.091  12.483
51563W        W23289  26.131  10.823  13.157
51564W        W23290  29.942  42.912  13.546
51565W        W23291  29.043  42.811   2.440
51566W        W23292  14.200  34.095  14.495
51567W        W23293  19.233  22.248  12.928
51568W        W23294  31.663  35.550  13.399
51569W        W23295  44.366  37.498  13.460
51570W        W23296   0.845  19.799   3.159
51571W        W23297  17.605  22.540  10.815
51572W        W23298   5.200  40.831  13.484
51573W        W23299  32.858   2.315   1.849
51574W        W23300  26.199  19.539   4.090
51575W        W23301  21.510  30.166  11.174
51576W        W23302  43.491  21.160   4.277
51577W        W23303  22.169   1.356   2.220
51578W        W23304   0.695   4.219  13.879
51579W        W23305  14.458   6.928  10.489
51580W        W23306  38.260  28.667  11.473
51581W        W23307   5.443  26.044   4.869
51582W        W23308  26.302  14.203  13.724
51583W        W23309  36.569  26.112  10.878
51584W        W23310  28.632   3.837  14.578
51585W        W23311  26.538  21.761   1.213
51586W        W23312  32.107  32.641   0.743
51587W        W23313  11.058  12.752   4.178
51588W        W23314  36.887  20.981  13.011
51589W        W23315  18.719  33.582   3.628
51590W        W23316  42.774  31.722  12.962
51591W        W23317   1.106  37.993  11.491
51592W        W23318  18.067  27.776   4.099
51593W        W23319   1.958  25.267   0.029
51594W        W23320  24.615  24.576  12.416
51595W        W23321  11.085  42.228  11.904
51596W        W23322  39.352  31.075  11.911
51597W        W23323  24.690  27.402  12.361
51598W        W23324  30.446  44.781  13.518
51599W        W23325  41.858  30.053   1.249
51600W        W23326  16.973   8.681  13.132
51601W        W23327  12.650  41.812  11.064
51602W        W23328  32.344  38.820  12.303
51603W        W23329  33.483  15.766  10.742
51604W        W23330  24.669  38.507  12.537
51605W        W23331  23.405   0.683  12.761
51606W        W23332  23.191  17.101   1.291
51607W        W23333  14.689  33.976  14.316
51608W        W23334   0.949  22.967  12.033
51609W        W23335  40.758  30.428   3.706
51610W        W23336  42.080   5.623   2.125
51611W        W23337   3.263  15.079   3.607
51612W        W23338   3.909   7.204  12.805
51613W        W23339  31.351  26.083  10.224
51614W        W23340  15.238   9.191  13.201
51615W        W23341  25.859  34.485  13.826
51616W        W23342   5.352  17.902   0.857
51617W        W23343  23.228  13.296   1.460
51618W        W23344  37.806  17.035  14.554
51619W        W23345  17.927  34.493  10.448
51620W        W23346  20.481  27.226  12.578
51621W        W23347  43.605  29.475  13.474
51622W        W23348  12.746  24.768  14.805
51623W        W23349  26.908  28.903   2.418
51624W        W23350  34.901  12.774  11.938
51625W        W23351   0.391  20.841  13.347
51626W        W23352  19.982  30.542   3.367
51627W        W23353  26.370  30.969   1.177
51628W        W23354  37.817   4.933  12.083
51629W        W23355  17.753  44.567   1.039
51630W        W23356  15.624  26.183   2.658
51631W        W23357  34.856   3.775   0.830
51632W        W23358  31.546  13.830   4.621
51633W        W23359  22.662  39.922   1.783
51634W        W23360  20.962  12.644   1.394
51635W        W23361   1.557   3.513  13.821
51636W        W23362  44.796  33.491   0.434
51637W        W23363  14.095  10.408   3.879
51638W        W23364   2.352  17.191  11.654
51639W        W23365  34.509  21.141  11.033
51640W        W23366  20.788   3.299  11.036
51641W        W23367  29.506  43.940  11.962
51642W        W23368  20.636  43.522  12.107
51643W        W23369   5.449  39.532  12.813
51644W        W23370  14.762  14.607  10.952
51645W        W23371  38.615  27.076  11.042
51646W        W23372  18.090  18.506   0.919
51647W        W23373  30.644  42.064   1.112
51648W        W23374  39.488   0.758   4.102
51649W        W23375  40.620  39.415  13.263
51650W        W23376  37.869   9.250  11.890
51651W        W23377   7.520  42.452  12.359
51652W        W23378  22.713  35.131  10.061
51653W        W23379  38.962  38.286   0.207
51654W        W23380   8.850  19.411  14.767
51655W        W23381  23.938   9.793   1.421
51656W        W23382  31.489  35.637   4.608
51657W        W23383  21.502  22.210   2.709
51658W        W23384  40.330  18.295  12.869
51659W        W23385  42.477  22.691  11.465
51660W        W23386   8.811  10.706   3.800
51661W        W23387  31.827  14.132  12.024
51662W        W23388  13.019  35.598   2.116
51663W        W23389  39.890  37.547  10.575
51664W        W23390  31.038  43.213  11.163
51665W        W23391  21.824  22.083   1.349
51666W        W23392  40.579   8.392   0.963
51667W        W23393   0.290  30.009  11.547
51668W        W23394  31.187  34.127   0.332
51669W        W23395  18.691  14.393  11.811
51670W        W23396   1.311  12.848   1.811
51671W        W23397  43.271  39.671  13.502
51672W        W23398  29.591  31.593   0.339
51673W        W23399  24.546   0.736   0.768
51674W        W23400  14.230  41.959   0.502
51675W        W23401  38.350   7.259  13.713
51676W        W23402  39.266  20.945   0.038
51677W        W23403  32.945  22.984   2.826
51678W        W23404  13.325  40.293   0.400
51679W        W23405  27.706   5.453   3.367
51680W        W23406  27.912  17.551  11.519
51681W        W23407   1.290   0.272  12.110
51682W        W23408  38.834  40.763   3.772
51683W        W23409  37.895  18.244   1.457
51684W        W23410  11.126   4.724  13.051
51685W        W23411  32.352  39.395   1.838
51686W        W23412  35.067  11.903   1.731
51687W        W23413  41.937   3.253   3.068
51688W        W23414   5.586  37.831   2.465
51689W        W23415  10.350  35.917  11.225
51690W        W23416  28.549   9.207  10.684
51691W        W23417  33.516  29.047   3.242
51692W        W23418  19.632   5.467  12.937
51693W        W23419   1.645  37.289   3.267
51694W        W23420  24.009  11.204   3.533
51695W        W23421  39.120   9.390   2.658
51696W        W23422  28.499  31.123   2.725
51697W        W23423  17.651  37.513   3.861
51698W        W23424   4.879   4.116  12.211
51699W        W23425  21.224  19.839  14.297
51700W        W23426   3.902   0.276  12.483
51701W        W23427  29.844  36.811   3.717
51702W        W23428  10.660   0.265  14.392
51703W        W23429  35.878  22.066   4.715
51704W        W23430  32.853  29.876  12.648
51705W        W23431  15.061  23.959   3.289
51706W        W23432  16.474  31.705   4.251
51707W        W23433  33.459  12.235  10.383
51708W        W23434  38.960   1.864   4.621
51709W        W23435  42.263  37.012  11.638
51710W        W23436   0.748  17.864  11.222
51711W        W23437   4.654  17.861   4.465
51712W        W23438  23.678  33.139   2.709
51713W        W23439  42.354  43.868  13.376
51714W        W23440  13.089  15.318   0.069
51715W        W23441  23.782  23.253   1.774
51716W        W23442   1.747  34.607  11.887
51717W        W23443  43.753  12.749  14.791
51718W        W23444  29.999  25.996   3.094
51719W        W23445  26.387  12.402   1.509
51720W        W23446  39.276  21.741  11.150
51721W        W23447  34.165  33.355   4.221
51722W        W23448  30.236   4.024   0.831
51723W        W23449  24.519  37.782  11.921
51724W        W23450  28.595  31.971  11.155
51725W        W23451  28.703  28.164  13.052
51726W        W23452  14.752  24.105  13.088
51727W        W23453   5.440  12.787   0.357
51728W        W23454  11.381  13.625   0.868
51729W        W23455  12.640   8.240   3.712
51730W        W23456  20.796   1.018  11.190
51731W        W23457  42.761  11.309   2.289
51732W        W23458  27.570  19.141  12.480
51733W        W23459   9.754  39.764   0.768
51734W        W23460  14.798  41.411   5.182
51735W        W23461  41.869  27.587  11.517
51736W        W23462  33.996  31.908  12.491
51737W        W23463  31.625  14.658  12.572
51738W        W23464  13.089  40.510   3.598
51739W        W23465  36.129   1.381  11.589
51740W        W23466  32.157   2.905  14.087
51741W        W23467  16.690  22.276   0.057
51742W        W23468  36.517  27.414   3.600
51743W        W23469  17.224  10.555   2.334
51744W        W23470  22.033  37.876   0.462
51745W        W23471   3.284  41.378   0.431
51746W        W23472  10.056  25.213   5.243
51747W        W23473  16.703  41.408  14.531
51748W        W23474  35.601  39.862  13.889
51749W        W23475  29.504   6.302   2.261
51750W        W23476  18.664  12.367   2.249
51751W        W23477  31.438  36.204   4.863
51752W        W23478  37.863  39.446   3.802
51753W        W23479  31.827  33.358   2.792
51754W        W23480  32.709  40.807   5.181
51755W        W23481  34.041  24.381  13.064
51756W        W23482  22.321  29.967  10.938
51757W        W23483  40.604  42.932  12.606
51758W        W23484  40.311  13.794   4.198
51759W        W23485   7.274  30.428   2.585
51760W        W23486  41.532   9.707   1.027
51761W        W23487  12.587  43.139   1.253
51762W        W23488  18.522  33.420  13.049
51763W        W23489   9.727   3.102   0.845
51764W        W23490  14.387  42.101   3.761
51765W        W23491   5.882   6.447  12.733
51766W        W23492  20.506  22.682   3.153
51767W        W23493  27.061  43.231  11.074
51768W        W23494  34.606  15.624  12.019
51769W        W23495  28.499  26.356  12.369
51770W        W23496  30.938   0.459   0.796
51771W        W23497  10.129  21.765  13.132
51772W        W23498  33.940  19.138   1.524
51773W        W23499   8.005   4.245   3.880
51774W        W23500  17.751  39.038  14.465
51775W        W23501   6.474  38.047  10.714
51776W        W23502   7.263  37.563  14.247
51777W        W23503  39.748  34.525   0.005
51778W        W23504   5.316  16.361  13.322
51779W        W23505  13.906   4.297  14.424
51780W        W23506  42.009   1.537   0.748
51781W        W23507   3.940  42.499  11.683
51782W        W23508  29.513  44.081  14.895
51783W        W23509  22.542  28.003   5.330
51784W        W23510  20.733  10.039   5.092
51785W        W23511   8.390  19.618   3.306
51786W        W23512   1.339   0.529  13.894
51787W        W23513  29.620   1.703   1.194
51788W        W23514  17.801  36.087  13.553
51789W        W23515   7.434  39.455  11.035
51790W        W23516  38.114   7.911  10.810
51791W        W23517  42.613  24.740  11.165
51792W        W23518  36.062  37.107  12.635
51793W        W23519   3.621  22.182   3.645
51794W        W23520  31.462  29.954  13.846
51795W        W23521   9.066  21.661  10.883
51796W        W23522  21.482  33.363  12.610
51797W        W23523  40.984  40.895   4.142
51798W        W23524  19.060  21.626  13.153
51799W        W23525   5.142   9.689  14.872
51800W        W23526  12.419  29.626  12.857
51801W        W23527   9.175   1.704   2.338
51802W        W23528  11.798  34.133   4.162
51803W        W23529  11.817  34.504  12.910
51804W        W23530   2.347  27.407   2.831
51805W        W23531  37.460  33.355   1.978
51806W        W23532  15.723  40.986   5.063
51807W        W23533  42.361  28.706  14.922
51808W        W23534   6.896   3.980   2.680
51809W        W23535  43.982  44.414  14.860
51810W        W23536  34.365  39.884  11.210
51811W        W23537  33.082  18.243  13.000
51812W        W23538  20.948  31.675  12.796
51813W        W23539   7.685  25.546   0.873
51814W        W23540  15.041  11.287   3.285
51815W        W23541  13.356  38.669   3.794
51816W        W23542  11.713  35.669   1.888
51817W        W23543  23.722  36.425   0.991
51818W        W23544  31.018  28.662   4.088
51819W        W23545  23.034  37.074  13.352
51820W        W23546  41.004  26.673   0.609
51821W        W23547   5.772   7.851   1.978
51822W        W23548   8.653   7.964   3.466
51823W        W23549   9.916  33.539  12.897
51824W        W23550   7.437  44.748  11.243
51825W        W23551  12.531  18.477  14.706
51826W        W23552  34.068  30.415  14.730
51827W        W23553   1.420  31.571   3.346
51828W        W23554   1.749  14.930   5.056
51829W        W23555   7.119   2.284   1.335
51830W        W23556  13.365  40.090  13.399
51831W        W23557  28.074   8.282   4.775
51832W        W23558  40.755  19.715   0.899
51833W        W23559  33.956  35.780  11.019
51834W        W23560   3.532  16.292  11.614
51835W        W23561  27.246  37.003   4.147
51836W        W23562   4.924  29.496   2.773
51837W        W23563  35.408  16.813   4.580
51838W        W23564  37.874  12.427   1.232
51839W        W23565  42.428  10.851  12.484
51840W        W23566  31.250   4.244   0.934
51841W        W23567  12.400  20.418   0.281
51842W        W23568  27.201  22.808   2.841
51843W        W23569  22.656  25.277  11.022
51844W        W23570  17.673  44.847   4.416
51845W        W23571  31.147   6.156   3.682
51846W        W23572  11.514   7.226  14.262
51847W        W23573  30.405  36.629  14.446
51848W        W23574  10.136   7.289  12.384
51849W        W23575  15.811  19.613   3.295
51850W        W23576   8.554  13.313   5.048
51851W        W23577  10.108  27.673  12.021
51852W        W23578  16.614  26.015   2.782
51853W        W23579  23.615  12.144   1.066
51854W        W23580  35.557  19.787   1.998
51855W        W23581   2.747  22.175  11.029
51856W        W23582  21.395  16.469  11.603
51857W        W23583  36.401  13.625   2.343
51858W        W23584   5.378  17.239   3.288
51859W        W23585   6.223  25.466   4.770
51860W        W23586  31.549   9.369   0.719
51861W        W23587   5.991  15.619  10.538
51862W        W23588  26.875   7.361   2.869
51863W        W23589  30.825  14.354   3.894
51864W        W23590  34.574   5.330  12.548
51865W        W23591  43.873  38.338  13.401
51866W        W23592  28.120  20.117  13.703
51867W        W23593   2.429   1.720   5.142
51868W        W23594  10.302  28.432   0.265
51869W        W23595  37.100  33.735  14.023
51870W        W23596  20.244   1.827   2.826
51871W        W23597  40.142   8.123   4.597
51872W        W23598  39.974  23.608  13.378
51873W        W23599  31.202  11.398   1.314
51874W        W23600  18.021  34.873  13.937
51875W        W23601   6.257  17.383  14.041
51876W        W23602  34.481  39.060  12.354
51877W        W23603  41.398   6.791   3.883
51878W        W23604  15.555   4.373  10.222
51879W        W23605  23.594  22.006   2.429
51880W        W23606  26.697  12.332   4.110
51881W        W23607  27.708  25.828  11.615
51882W        W23608  15.791  29.552   3.312
51883W        W23609  25.545  42.816   2.893
51884W        W23610  19.617  20.726   4.724
51885W        W23611   1.120   9.938   0.791
51886W        W23612  14.129  39.152  10.762
51887W        W23613  30.646  40.508  13.353
51888W        W23614  24.288  36.665  12.794
51889W        W23615  24.526  35.188  11.147
51890W        W23616  41.879   2.469  12.536
51891W        W23617  25.554  17.303   3.712
51892W        W23618  30.652   7.394  12.655
51893W        W23619   9.717  20.118   2.239
51894W        W23620   4.342  23.645  13.358
51895W        W23621  32.447   3.346  14.057
51896W        W23622  25.139   6.730   4.362
51897W        W23623  14.566  28.874  10.555
51898W        W23624  26.460  35.840   3.361
51899W        W23625  34.952   9.493  11.700
51900W        W23626  19.510  28.757  11.117
51901W        W23627   4.379   2.829   1.645
51902W        W23628  17.619  20.221   4.111
51903W        W23629  36.079  18.523  11.621
51904W        W23630   9.242  13.405   1.809
51905W        W23631  31.056  14.229  13.880
51906W        W23632  18.014  23.543   2.223
51907W        W23633  41.385   1.430   4.215
51908W        W23634   7.720  39.221   3.657
51909W        W23635   2.747  28.385  11.721
51910W        W23636  24.987  35.282   4.589
51911W        W23637  20.546  44.432  14.915
51912W        W23638  19.085  20.141   2.653
51913W        W23639  40.102  17.105  13.680
51914W        W23640  28.536   5.677   3.468
51915W        W23641  11.345  23.177   2.223
51916W        W23642  37.817  15.662   4.193
51917W        W23643   0.384  37.826   2.080
51918W        W23644   6.005   3.908   4.645
51919W        W23645  31.553  35.838   0.577
51920W        W23646  25.339   1.401  13.440
51921W        W23647  40.319  32.886   1.280
51922W        W23648  37.346  10.137   3.804
51923W        W23649   0.476  44.376  10.907
51924W        W23650  26.380  43.429  13.176
51925W        W23651   2.611  15.387  12.164
51926W        W23652  13.388  34.471   1.620
51927W        W23653  38.751  32.704  13.359
51928W        W23654   2.200  26.209   3.151
51929W        W23655  28.614  12.297   4.320
51930W        W23656   2.744   8.189   3.593
51931W        W23657  39.029  30.109  11.282
51932W        W23658  43.925  37.037   2.287
51933W        W23659  23.023   4.735  12.406
51934W        W23660   9.052  28.024  13.453
51935W        W23661  42.783   1.569  11.802
51936W        W23662  36.584  13.736   2.819
51937W        W23663   5.696   5.915  10.601
51938W        W23664  12.877   0.772   0.471
51939W        W23665  31.033  42.848  14.319
51940W        W23666   8.840   2.865   2.998
51941W        W23667  32.585  24.171  12.704
51942W        W23668  22.987  15.885  12.510
51943W        W23669  37.848  42.383  12.349
51944W        W23670   9.740   3.352   1.368
51945W        W23671  31.645  33.213   3.414
51946W        W23672  15.844  27.520  11.466
51947W        W23673  13.600  21.641  11.686
51948W        W23674  22.642  18.430  10.740
51949W        W23675  40.313  44.235  12.857
51950W        W23676  15.733  35.771   5.093
51951W        W23677  10.076  14.122  14.043
51952W        W23678  29.668  25.248  10.154
51953W        W23679  37.530  26.002   2.004
51954W        W23680  25.644  28.446  12.351
51955W        W23681  15.224  32.744  12.068
51956W        W23682  44.843  42.346  12.476
51957W        W23683   4.717  22.604  11.917
51958W        W23684   1.384  24.754   3.141
51959W        W23685  22.465  40.896  13.823
51960W        W23686  28.308  41.932  10.517
51961W        W23687  29.917  15.359   4.083
51962W        W23688  29.779  21.224  12.925
51963W        W23689   1.341  44.013   2.984
51964W        W23690   8.346   3.335  11.138
51965W        W23691  34.493  31.851   4.631
51966W        W23692  14.182   2.538  14.912
51967W        W23693   7.229  42.401  10.434
51968W        W23694  39.981  25.098   1.904
51969W        W23695   7.807  15.715   5.541
51970W        W23696   5.791  40.500  11.605
51971W        W23697  12.853  37.623   3.152
51972W        W23698  41.532  23.983  11.556
51973W        W23699  37.973  27.937  14.486
51974W        W23700   1.869  18.825   1.648
51975W        W23701  17.273   0.387  14.302
51976W        W23702  23.256  23.648   3.375
51977W        W23703  31.408   2.164  12.756
51978W        W23704   1.641   9.245  13.085
51979W        W23705  17.095  21.071   0.995
51980W        W23706   6.131  32.596  11.155
51981W        W23707  10.273   4.961   2.654
51982W        W23708  37.999  16.055  14.711
51983W        W23709  18.452  11.516   2.775
51984W        W23710   7.859  35.291   3.610
51985W        W23711  30.108  14.427   0.496
51986W        W23712  40.025  41.276  13.462
51987W        W23713  25.545  21.053  14.655
51988W        W23714  32.476  26.084  11.723
51989W        W23715   8.863  40.959   4.429
51990W        W23716  44.030  24.629   3.626
51991W        W23717  39.476   0.245   2.337
51992W        W23718  21.591  30.507   3.315
51993W        W23719  19.520   1.562  13.512
51994W        W23720   8.233  44.497  10.727
51995W        W23721  38.313   9.693   3.570
51996W        W23722  35.615  38.110   0.799
51997W        W23723  18.500  27.209  11.729
51998W        W23724  44.739   8.624  12.132
51999W        W23725   2.773  17.177  11.363
52000W        W23726  14.339  44.466  12.514
52001W        W23727  17.793  32.758  14.891
52002W        W23728  13.253   9.336   4.721
52003W        W23729  21.564  23.901   4.177
52004W        W23730  33.878  42.451  12.586
52005W        W23731   7.119   3.891   1.775
52006W        W23732  25.277   6.496   0.774
52007W        W23733  44.057  33.690  11.488
52008W        W23734  21.516  10.813   1.300
52009W        W23735  25.754  15.793   3.337
52010W        W23736  16.763  14.766  11.749
52011W        W23737   9.106   2.382  12.116
52012W        W23738  13.762  13.155  11.176
52013W        W23739  25.666  15.876   4.205
52014W        W23740  12.943   4.882   4.656
52015W        W23741  31.488  20.868   0.440
52016W        W23742   5.340  34.468  10.675
52017W        W23743  25.630  37.983   3.341
52018W        W23744  19.064  30.723  13.915
52019W        W23745  26.771  23.685   3.314
52020W        W23746  24.160  30.546   2.320
52021W        W23747  44.501  23.892   2.899
52022W        W23748  14.177   0.013  11.620
52023W        W23749  15.869  40.322  12.389
52024W        W23750  28.822  12.524   0.207
52025W        W23751   4.943  11.976   1.568
52026W        W23752  44.002   4.856  10.722
52027W        W23753  17.250  31.096  14.867
52028W        W23754  34.489   6.821   1.121
52029W        W23755  26.027  36.382   4.696
52030W        W23756  37.256   7.748   0.804
52031W        W23757  17.054  41.506  12.871
52032W        W23758  21.584  15.421  14.396
52033W        W23759  38.050   1.617   3.139
52034W        W23760  19.762   2.342   2.129
52035W        W23761  41.066  35.872   2.879
52036W        W23762  29.718  25.585   1.449
52037W        W23763  17.702  10.647  14.574
52038W        W23764  18.065  13.698  14.027
52039W        W23765  36.995  11.718   0.888
52040W        W23766  27.312  15.917  12.078
52041W        W23767  43.536  31.395   3.228
52042W        W23768   0.699  19.475   5.035
52043W        W23769  29.514  20.958  14.290
52044W        W23770  10.780  18.201   0.374
52045W        W23771  29.868   2.072   1.556
52046W        W23772  37.021   3.388   2.766
52047W        W23773   0.718  44.906   2.769
52048W        W23774  32.104   4.776   2.598
52049W        W23775  41.434  41.484   4.333
52050W        W23776   1.873   9.903   1.925
52051W        W23777  14.839  30.858   1.681
52052W        W23778  35.370  41.995   2.687
52053W        W23779  21.848   3.934   1.737
52054W        W23780  26.134  21.186  12.443
52055W        W23781   6.494  34.847  14.305
52056W        W23782  11.187  21.244   0.338
52057W        W23783  32.458  25.660   4.378
52058W        W23784  29.984  12.812   0.673
52059W        W23785   0.284  25.230  12.133
52060W        W23786  38.563  31.360   3.692
52061W        W23787  26.947  38.477  14.399
52062W        W23788  41.126  43.598  12.871
52063W        W23789   5.992  24.955  12.587
52064W        W23790  24.723  15.826  13.026
52065W        W23791  18.685  16.573  14.209
52066W        W23792  22.227   7.345  11.218
52067W        W23793  28.580   9.182  12.653
52068W        W23794  10.622  19.597   2.179
52069W        W23795  44.189   4.757  12.039
52070W        W23796   0.302  14.280   0.503
52071W        W23797   7.208   5.086   0.036
52072W        W23798   6.497   4.801   4.634
52073W        W23799  20.946  13.938   3.803
52074W        W23800   3.307  18.817  14.064
52075W        W23801  27.108  42.600  14.312
52076W        W23802  32.441  10.171   1.430
52077W        W23803   7.229   0.914   1.655
52078W        W23804  33.511  42.986  14.820
52079W        W23805  42.414  39.184   4.955
52080W        W23806  13.125  13.675   2.360
52081W        W23807  32.061  30.598   4.244
52082W        W23808   6.781  42.492  11.843
52083W        W23809  18.991  18.052   2.038
52084W        W23810  33.021  20.111   4.338
52085W        W23811  12.907   0.768   1.780
52086W        W23812  13.145  21.146  13.301
52087W        W23813   1.327   7.486  13.106
52088W        W23814  42.263  31.954  13.288
52089W        W23815  38.402   0.218   4.326
52090W        W23816  23.213  33.584  14.767
52091W        W23817  42.449  23.559  11.591
52092W        W23818  34.564  22.568   3.660
52093W        W23819   4.544  11.191   2.397
52094W        W23820  21.667   8.894   5.257
52095W        W23821  18.311   3.363  14.981
52096W        W23822  29.201  14.363  14.454
52097W        W23823   6.231   5.408   3.210
52098W        W23824  29.920  12.743   3.338
52099W        W23825  39.309  13.909   0.872
52100W        W23826  11.596   2.184   1.336
52101W        W23827  24.218  38.743  10.367
52102W        W23828  29.369  20.175  14.912
52103W        W23829  34.943  37.686  11.365
52104W        W23830  11.549  39.539   0.116
52105W        W23831  18.577  21.114  14.950
52106W        W23832  40.293  29.541  12.964
52107W        W23833  16.796  30.071   0.883
52108W        W23834   2.260  29.080   2.832
52109W        W23835  15.017   1.330   3.121
52110W        W23836   7.465  15.850   4.758
52111W        W23837  39.594  32.373   3.446
52112W        W23838  20.709  17.303   2.932
52113W        W23839  16.856  39.116  12.083
52114W        W23840  44.295  33.595   1.827
52115W        W23841  43.838  43.632  14.035
52116W        W23842   2.344  30.711  10.964
52117W        W23843  26.562  20.278  11.466
52118W        W23844  31.561  21.029  13.017
52119W        W23845  43.074  16.581  10.933
52120W        W23846   0.474  14.728   0.298
52121W        W23847  36.614  30.007  14.489
52122W        W23848   5.938   4.442  13.367
52123W        W23849  43.559  12.653   1.408
52124W        W23850  37.625   9.477   0.495
52125W        W23851  25.701  32.157   0.942
52126W        W23852   5.807  40.586   3.224
52127W        W23853  43.369  24.696   2.711
52128W        W23854   9.903  30.555  10.781
52129W        W23855  44.210   1.355   3.572
52130W        W23856  14.558   7.434  14.083
52131W        W23857   8.558  11.026  10.310
52132W        W23858  24.910  31.052   1.036
52133W        W23859  32.615  32.463  11.532
52134W        W23860   9.842   3.185  14.856
52135W        W23861  16.938   1.846  10.083
52136W        W23862  21.572   5.232  14.931
52137W        W23863  29.237  40.858   3.779
52138W        W23864  26.661  16.397   1.689
52139W        W23865   2.319  37.362   0.985
52140W        W23866  12.930  35.690  11.591
52141W        W23867  30.664  19.238  13.519
52142W        W23868   2.842   3.338   2.012
52143W        W23869  39.543  33.664   0.327
52144W        W23870  22.826  21.943   1.363
52145W        W23871  37.838  14.883  10.621
52146W        W23872  28.036  23.103  10.240
52147W        W23873  15.301  29.982  13.986
52148W        W23874  33.801  11.553  14.855
52149W        W23875  13.847  12.772  14.931
52150W        W23876  22.105  17.108  10.511
52151W        W23877  30.196  24.177  13.634
52152W        W23878  20.235  31.582   4.503
52153W        W23879   7.844  42.750   3.200
52154W        W23880  36.817  15.030   3.669
52155W        W23881  14.187   6.686   4.383
52156W        W23882   8.259   7.332  14.515
52157W        W23883  14.929  12.314  13.016
52158W        W23884  14.681  23.931   4.148
52159W        W23885   0.871   6.244   0.186
52160W        W23886  14.150  37.661   4.235
52161W        W23887   0.519  41.016   2.100
52162W        W23888  34.027  31.440  14.989
52163W        W23889  18.658  34.649   1.822
52164W        W23890   2.294  11.123   2.679
52165W        W23891  13.587  33.561  10.876
52166W        W23892  23.418   0.741  14.326
52167W        W23893   1.311  33.445   1.939
52168W        W23894  28.646   5.784  14.881
52169W        W23895  11.391   5.217   0.806
52170W        W23896  27.657  37.252   0.982
52171W        W23897  38.401  44.501  14.057
52172W        W23898   0.444   0.873  13.717
52173W        W23899  28.439  33.016  13.413
52174W        W23900  25.109  40.501   2.297
52175W        W23901  19.538  42.497   1.949
52176W        W23902   6.851  25.497  14.384
52177W        W23903  38.045  38.038  11.736
52178W        W23904  38.301  15.827   2.321
52179W        W23905  34.890  29.588   2.695
52180W        W23906  31.162   7.310  10.614
52181W        W23907   1.869  15.686   0.515
52182W        W23908  25.103  13.264   1.198
52183W        W23909   7.644  25.562  12.148
52184W        W23910  21.167   3.712  12.079
52185W        W23911  27.821  30.041  12.025
52186W        W23912  31.849  43.960   2.169
52187W        W23913  36.568  26.517  11.174
52188W        W23914   4.897  20.229   4.835
52189W        W23915  26.837  43.892  12.052
52190W        W23916  43.824  17.783   3.923
52191W        W23917  30.693  33.049  13.962
52192W        W23918  38.029  31.491   3.639
52193W        W23919  18.605   0.537   0.925
52194W        W23920  15.698  28.392   0.305
52195W        W23921  34.057  43.649   3.738
52196W        W23922   9.362  20.687   2.150
52197W        W23923  31.841  43.733  10.698
52198W        W23924   4.410  10.263  11.037
52199W        W23925   9.862  40.164   2.128
52200W        W23926   7.868  26.206   1.653
52201W        W23927  12.435  16.218   4.684
52202W        W23928  24.387  10.105  12.147
52203W        W23929  43.567   5.424   4.611
52204W        W23930  31.043   7.616   2.208
52205W        W23931   7.121  38.176  12.240
52206W        W23932  11.162  28.006   2.620
52207W        W23933   2.060   3.696  13.825
52208W        W23934  43.834  13.068   3.849
52209W        W23935   3.314  18.170   3.826
52210W        W23936  21.074  21.010  12.933
52211W        W23937  24.398  11.916   4.758
52212W        W23938  37.505  39.386   0.417
52213W        W23939  43.271  16.814   4.061
52214W        W23940  10.844  34.194   1.727
52215W        W23941  10.294  43.679   1.800
52216W        W23942  36.911  37.348   1.018
52217W        W23943  14.357  37.438  11.440
52218W        W23944  21.893  14.987  14.395
52219W        W23945  37.909  20.745   2.364
52220W        W23946  31.953  11.767  12.448
52221W        W23947  20.218  39.028   2.867
52222W        W23948   2.747   6.905   4.214
52223W        W23949  22.455  22.474   0.391
52224W        W23950   2.622   7.240   4.854
52225W        W23951  16.548  27.190  10.602
52226W        W23952  28.585   2.958  14.904
52227W        W23953  31.899  32.044   2.399
52228W        W23954  43.694   9.843  13.785
52229W        W23955  36.270   3.773  14.828
52230W        W23956  26.877   3.875   0.850
52231W        W23957   9.654   4.438   1.799
52232W        W23958  35.033  21.722  14.650
52233W        W23959  14.400   2.371  10.951
52234W        W23960   4.032  37.709  11.103
52235W        W23961  21.464  13.811   1.841
52236W        W23962  24.184  25.994  13.793
52237W        W23963  34.844  30.407  12.783
52238W        W23964  34.334  10.286   1.334
52239W        W23965   7.818   6.897  10.502
52240W        W23966  40.925  17.596   1.244
52241W        W23967  21.438   4.511  10.942
52242W        W23968  35.045   1.019   0.658
52243W        W23969  44.016  40.773   2.192
52244W        W23970  37.543  44.882   1.431
52245W        W23971  18.593  10.486   4.541
52246W        W23972  12.704   3.339  13.775
52247W        W23973  22.516  28.469   0.517
52248W        W23974  33.767  37.426   4.555
52249W        W23975  32.515  15.394  10.631
52250W        W23976  31.639  12.297  14.777
52251W        W23977   0.219  12.238  11.600
52252W        W23978  37.469  15.657  14.035
52253W        W23979  24.726  39.529  14.427
52254W        W23980  28.544  24.191  13.004
52255W        W23981  23.579   8.700  13.393
52256W        W23982  13.964  38.885  11.684
52257W        W23983  39.314  38.459   4.022
52258W        W23984  11.191  24.210  10.739
52259W        W23985  43.809  16.315  13.578
52260W        W23986  24.406  40.218  13.339
52261W        W23987  18.637  17.222  13.543
52262W        W23988  13.065   1.558   0.716
52263W        W23989  38.863  12.377  11.349
52264W        W23990  16.074  39.462   0.363
52265W        W23991   6.083   9.480   4.123
52266W        W23992  14.560  34.448   0.722
52267W        W23993   2.826  43.900   0.003
52268W        W23994  24.114   7.361  10.228
52269W        W23995  33.349   6.471   2.032
52270W        W23996  29.300  44.818   1.280
52271W        W23997  24.211   0.802  11.983
52272W        W23998   9.338  21.930  14.432
52273W        W23999   5.320   6.195  10.300
52274W        W24000  10.760  33.969   4.098
52275W        W24001  44.366  34.565  10.695
52276W        W24002  21.719  33.930  14.542
52277W        W24003  24.370  11.352  14.313
52278W        W24004  37.815   6.661   2.221
52279W        W24005  31.067  44.315   1.171
52280W        W24006   6.154  37.325  11.973
52281W        W24007  27.590  11.837   0.741
52282W        W24008  10.978   6.171   2.650
52283W        W24009   7.217  28.639  14.552
52284W        W24010  16.728   6.029   4.673
52285W        W24011  42.031  42.736  11.070
52286W        W24012   5.174   0.724   2.885
52287W        W24013  21.291   9.911  14.312
52288W        W24014  10.313  35.889   4.319
52289W        W24015   5.828  35.917   2.457
52290W        W24016  11.172  42.097  14.268
52291W        W24017  26.601  20.635   3.369
52292W        W24018   4.984   2.086  11.095
52293W        W24019  21.490  41.450   1.153
52294W        W24020  36.840   5.460   3.487
52295W        W24021  19.076  29.436  14.438
52296W        W24022  41.651  10.712  13.149
52297W        W24023  30.507  16.271  11.699
52298W        W24024  24.992  20.554   4.250
52299W        W24025  40.339  27.397   4.562
52300W        W24026  17.565   9.890   0.422
52301W        W24027  29.548  29.173  14.947
52302W        W24028  24.042  33.009   2.309
52303W        W24029  15.112  11.095  12.949
52304W        W24030  35.467  21.700   2.810
52305W        W24031  39.779  21.586  14.888
52306W        W24032   2.415   4.755   2.392
52307W        W24033  10.904  39.354   1.643
52308W        W24034  44.882  20.503   2.786
52309W        W24035   6.726  12.662  11.937
52310W        W24036  41.707  24.159   0.304
52311W        W24037   1.520  21.177   3.668
52312W        W24038   7.474   5.864  11.260
52313W        W24039  21.580  42.809   5.009
52314W        W24040  25.033  31.725  14.325
52315W        W24041  36.347  15.104   3.276
52316W        W24042   9.612  44.027  12.442
52317W        W24043   5.660  31.075   1.862
52318W        W24044  41.438  23.771  13.554
52319W        W24045  33.184  15.286   2.110
52320W        W24046  29.090  18.300  12.571
52321W        W24047  37.586   5.315   1.337
52322W        W24048  15.422  27.317  13.120
52323W        W24049  18.578  38.298   0.617
52324W        W24050  24.180   2.724  14.454
52325W        W24051  28.628  11.689  14.894
52326W        W24052  14.890  35.613  12.526
52327W        W24053   9.183  44.224  12.950
52328W        W24054   4.289   6.810  13.421
52329W        W24055  42.325   8.357  14.641
52330W        W24056  25.613  14.565  13.825
52331W        W24057   5.519  29.627  13.675
52332W        W24058  35.727  14.382   3.574
52333W        W24059   4.252  39.429  11.236
52334W        W24060  14.945  28.689   1.430
52335W        W24061  43.548  31.566  14.728
52336W        W24062  29.228  44.625   0.354
52337W        W24063  25.573   1.721   5.092
52338W        W24064  23.491   6.768   3.183
52339W        W24065  19.590  16.198   2.154
52340W        W24066  10.183  18.345  13.229
52341W        W24067   4.678   2.982  11.214
52342W        W24068  30.462  11.093   2.461
52343W        W24069   2.002  34.171   4.173
52344W        W24070  29.618   6.149  14.208
52345W        W24071  20.918  22.776   0.562
52346W        W24072  36.656   2.842  10.926
52347W        W24073   7.240  24.331  11.674
52348W        W24074  38.865   0.351   3.067
52349W        W24075   6.624  28.215  14.914
52350W        W24076  43.239   8.384   3.815
52351W        W24077  29.983  14.388  13.697
52352W        W24078  34.058  43.895   3.275
52353W        W24079  17.355  26.494   2.626
52354W        W24080  14.070  38.090   2.893
52355W        W24081  39.102   5.482  10.126
52356W        W24082  28.205   1.644  11.520
52357W        W24083  16.299  18.730   2.238
52358W        W24084  27.642  31.466   4.089
52359W        W24085  37.944  27.163   2.918
52360W        W24086  38.301  29.636   4.669
52361W        W24087  43.675   4.922  12.070
52362W        W24088  31.913  39.493   3.835
52363W        W24089   5.785  24.182   4.529
52364W        W24090  35.961  43.472   2.328
52365W        W24091   8.340  44.907  12.990
52366W        W24092  10.312  23.966   5.024
52367W        W24093   5.818  17.706  14.801
52368W        W24094  28.896   7.075  14.913
52369W        W24095   4.188   2.845  11.229
52370W        W24096  25.468  43.967   1.642
52371W        W24097  22.150   5.974  14.687
52372W        W24098  10.753   3.905  12.071
52373W        W24099  37.059  26.304   3.784
52374W        W24100  34.333  11.425   3.675
52375W        W24101   8.184   0.444  12.941
52376W        W24102  37.993   8.019  13.479
52377W        W24103  42.511  32.965  13.333
52378W        W24104  39.055  22.594  10.480
52379W        W24105  25.124   9.671   1.420
52380W        W24106  20.167  34.889   5.011
52381W        W24107   1.470  13.063  11.626
52382W        W24108  38.310  44.824  11.711
52383W        W24109   7.571   3.346   3.599
52384W        W24110  26.525   5.882  10.553
52385W        W24111   3.455  30.705  11.164
52386W        W24112  28.411  16.653   4.125
52387W        W24113   5.989  22.953  12.466
52388W        W24114  21.678  41.520   2.154
52389W        W24115  36.119  30.585  12.640
52390W        W24116  38.133   6.738   2.630
52391W        W24117  15.790  35.381  10.680
52392W        W24118  35.097  44.003  13.912
52393W        W24119  31.192   9.621  13.288
52394W        W24120  34.556  28.526   2.375
52395W        W24121  25.197  44.798  11.881
52396W        W24122  25.396  12.370   2.641
52397W        W24123  27.003  34.397  10.753
52398W        W24124   6.464  28.892   2.769
52399W        W24125  14.683  17.112  14.284
52400W        W24126  27.546  11.035   1.178
52401W        W24127  13.887   1.930   2.249
52402W        W24128   2.734  28.330  12.241
52403W        W24129   3.871  14.381  12.997
52404W        W24130  40.131  40.207   1.385
52405W        W24131  35.045   6.366  10.554
52406W        W24132  39.601  15.549   1.780
52407W        W24133  31.056   9.153   3.221
52408W        W24134  38.817  27.242  11.497
52409W        W24135  21.632  42.033  12.496
52410W        W24136   8.243   8.852   3.606
52411W        W24137  18.504  33.565   1.601
52412W        W24138  25.099   3.273   3.243
52413W        W24139  41.011  19.362   4.270
52414W        W24140  33.161  41.225   4.967
52415W        W24141  25.676  37.613   1.813
52416W        W24142   2.145  13.254   5.002
52417W        W24143  27.688   7.207  14.448
52418W        W24144  37.584  23.696   0.270
52419W        W24145   6.229  24.201   0.187
52420W        W24146  42.301   5.939  12.049
52421W        W24147  25.476  40.538   2.668
52422W        W24148  20.234  28.940   4.149
52423W        W24149   0.479  33.042  11.134
52424W        W24150  43.467   1.749  12.730
52425W        W24151  28.012   1.772  12.542
52426W        W24152  28.961  10.102  12.771
52427W        W24153  27.043  23.683  12.037
52428W        W24154  19.294   4.715   1.447
52429W        W24155  18.886  20.674  12.415
52430W        W24156   9.806  19.577  14.716
52431W        W24157  29.570   3.490  11.068
52432W        W24158  16.804   4.357  12.961
52433W        W24159  25.415  30.409  13.922
52434W        W24160   0.780  15.286  14.624
52435W        W24161  10.745  25.481  14.153
52436W        W24162   8.452  38.395   4.446
52437W        W24163  20.747   2.977   0.328
52438W        W24164  33.281   3.588   2.863
52439W        W24165  15.814  34.682  13.701
52440W        W24166  19.540   0.706   3.212
52441W        W24167  18.388   7.921  13.799
52442W        W24168   6.459  25.273  11.160
52443W        W24169  40.909  44.420  13.985
52444W        W24170  42.282  24.136  11.096
52445W        W24171  43.959  16.267  14.118
52446W        W24172  22.237   2.137   3.902
52447W        W24173  15.846  33.367   1.344
52448W        W24174   1.862   8.618   1.261
52449W        W24175  38.469  18.477  11.093
52450W        W24176  12.828  26.239  11.564
52451W        W24177   8.391   6.881  12.079
52452W        W24178  14.254  36.397  14.119
52453W        W24179  26.606  30.343   3.766
52454W        W24180  38.711   0.734   9.898
52455W        W24181  34.593  20.536  13.374
52456W        W24182  29.518  20.993  12.551
52457W        W24183  36.346  20.559   0.831
52458W        W24184  14.897  19.720   2.193
52459W        W24185  15.784  24.287   1.117
52460W        W24186  32.642  22.750  12.143
52461W        W24187  39.849  19.029  11.153
52462W        W24188  15.625  12.281   1.901
52463W        W24189  37.163  35.985   2.803
52464W        W24190  42.728   3.844   4.709
52465W        W24191  10.379  17.349  12.972
52466W        W24192  24.643   7.202  13.449
52467W        W24193  30.601  39.267  14.220
52468W        W24194  20.150   4.268  13.270
52469W        W24195   0.234  11.415  14.742
52470W        W24196  14.285  14.326   0.256
52471W        W24197  41.932  21.446  13.467
52472W        W24198  14.595  24.635  13.772
52473W        W24199   3.177  34.851   0.001
52474W        W24200   0.991   9.200  11.139
52475W        W24201  26.883   5.620   1.020
52476W        W24202  15.113  23.762  14.025
52477W        W24203  30.969   0.713  10.672
52478W        W24204   3.833  26.010   3.560
52479W        W24205  11.857  12.329  10.619
52480W        W24206  28.881  18.259  14.969
52481W        W24207  39.707  21.500   3.964
52482W        W24208  29.876  27.875   2.785
52483W        W24209  24.395  11.788  13.989
52484W        W24210  38.829  21.781   0.676
52485W        W24211   3.823  17.823   4.685
52486W        W24212  21.031   5.352  13.958
52487W        W24213  34.383  30.968  12.892
52488W        W24214  23.101  42.745   2.198
52489W        W24215  41.037  44.791   3.119
52490W        W24216  13.558  38.451  11.557
52491W        W24217  23.043   5.206   2.026
52492W        W24218  22.019  28.418   2.368
52493W        W24219   3.831  33.715   1.208
52494W        W24220   7.517  19.739  12.241
52495W        W24221   5.095   3.998   3.467
52496W        W24222   9.199   0.118   4.538
52497W        W24223   9.181  11.856   4.217
52498W        W24224  39.831   4.552  13.969
52499W        W24225  19.132  31.586   4.809
52500W        W24226  27.636  29.461   4.250
52501W        W24227  15.343   5.362  13.177
52502W        W24228  24.169  43.023   4.473
52503W        W24229  40.283  35.126   2.722
52504W        W24230  24.719   0.842   4.071
52505W        W24231  27.162  15.719   2.826
52506W        W24232   0.758   9.124   3.703
52507W        W24233  35.012   0.405   3.808
52508W        W24234   6.421   2.528  13.598
52509W        W24235  22.027  34.291  14.790
52510W        W24236   6.209  13.173  10.315
52511W        W24237  13.343  32.620  14.995
52512W        W24238   5.602   4.784  13.056
52513W        W24239  21.478  43.269  11.220
52514W        W24240  44.697   3.881   3.577
52515W        W24241  17.304  30.864   3.404
52516W        W24242  22.247   9.284  11.650
52517W        W24243  25.894  31.652   0.890
52518W        W24244  39.036  44.268   0.232
52519W        W24245  33.969   4.337  12.226
52520W        W24246  13.857   1.032  14.745
52521W        W24247  23.058   3.505   0.368
52522W        W24248  39.848  39.307  12.064
52523W        W24249  10.415  42.334   1.414
52524W        W24250  39.956  28.494   0.575
52525W        W24251  20.225   6.964   0.248
52526W        W24252   0.416   8.711   4.279
52527W        W24253  27.488  44.992  11.923
52528W        W24254  21.076  14.825   0.854
52529W        W24255  43.726  29.810  11.653
52530W        W24256  37.048  36.384  10.554
52531W        W24257  10.270  41.823  12.979
52532W        W24258  18.812  11.113  10.744
52533W        W24259  12.682  34.269   2.579
52534W        W24260  15.228  28.602  11.276
52535W        W24261   6.852  29.548  12.623
52536W        W24262  34.139  33.896  13.050
52537W        W24263  33.950  31.013  11.570
52538W        W24264   1.431  37.201  10.320
52539W        W24265  44.795  16.271   1.121
52540W        W24266  44.312  20.363   3.660
52541W        W24267  37.106   1.680  13.287
52542W        W24268  17.114  30.534  11.794
52543W        W24269   0.027  40.920  14.053
52544W        W24270  27.119  41.867   4.104
52545W        W24271   8.952   3.285  14.488
52546W        W24272  24.769   3.447   0.206
52547W        W24273  22.116   5.744   2.185
52548W        W24274   0.325  37.417  12.407
52549W        W24275   6.790   1.312   4.653
52550W        W24276  25.398  40.840  11.542
52551W        W24277  19.619  24.625   5.168
52552W        W24278  32.504  40.996  11.110
52553W        W24279   7.951  30.173  12.953
52554W        W24280  11.678  41.799   5.067
52555W        W24281   1.775   3.850   0.149
52556W        W24282   5.792  11.408  11.996
52557W        W24283  10.913  22.729   3.730
52558W        W24284  11.206  17.984   3.321
52559W        W24285  34.019  37.079  13.115
52560W        W24286   1.181  12.265  12.654
52561W        W24287  29.491   3.556  12.403
52562W        W24288  43.513   4.243   4.781
52563W        W24289  32.143  27.596  12.920
52564W        W24290  30.443  16.311   0.303
52565W        W24291  14.610  30.257  10.205
52566W        W24292  28.670  10.333   3.241
52567W        W24293   0.650  21.523  13.543
52568W        W24294  17.658  35.524   4.108
52569W        W24295  38.532   6.579   4.344
52570W        W24296  26.239  41.348  12.399
52571W        W24297  16.784  36.885  14.515
52572W        W24298  18.135  15.397   4.125
52573W        W24299   2.718  11.792  13.841
52574W        W24300   6.304  43.842   3.627
52575W        W24301  27.229   4.639   1.299
52576W        W24302   6.828   7.944   5.060
52577W        W24303  32.967  28.383   1.339
52578W        W24304  41.183  43.403   4.722
52579W        W24305   2.976  33.451  13.502
52580W        W24306  41.439  38.697   4.198
52581W        W24307  14.255  24.270  14.926
52582W        W24308  31.897  12.678  12.971
52583W        W24309  19.684  15.043   1.950
52584W        W24310  17.120  24.861  10.262
52585W        W24311  16.344  30.282   0.710
52586W        W24312  10.627  43.974   3.095
52587W        W24313  31.944  11.002  13.021
52588W        W24314  31.611  34.544   3.263
52589W        W24315  44.346   2.699  12.629
52590W        W24316  33.441  38.041  10.688
52591W        W24317  39.011   8.124  12.154
52592W        W24318   0.894  14.206  13.312
52593W        W24319  42.618   9.471  13.405
52594W        W24320   5.925  35.386  12.617
52595W        W24321   9.226  10.361   1.655
52596W        W24322  11.850  36.324   2.755
52597W        W24323  18.479  41.930   3.760
52598W        W24324   2.983  17.879   1.876
52599W        W24325   1.250   1.451  10.427
52600W        W24326  15.250  15.822  10.140
52601W        W24327  29.732  10.892  11.629
52602W        W24328   6.236  42.980   4.228
52603W        W24329  19.060  39.519  11.297
52604W        W24330  38.004  14.353  13.266
52605W        W24331  16.068  32.167  11.678
52606W        W24332  11.140  34.177   2.340
52607W        W24333  40.038  36.415   1.865
52608W        W24334  41.811  42.918  14.183
52609W        W24335  13.756  18.667  12.386
52610W        W24336  32.662   6.985   1.712
52611W        W24337  29.553  21.259   4.133
52612W        W24338   4.608   6.511  14.539
52613W        W24339  24.590   9.813  11.225
52614W        W24340   4.293  40.426  10.767
52615W        W24341  10.374  44.294  11.971
52616W        W24342  27.420   1.699  11.227
52617W        W24343  35.870   8.114  11.092
52618W        W24344  40.554  10.371  13.123
52619W        W24345   4.970  28.267   0.881
52620W        W24346  18.643  11.731   1.187
52621W        W24347   1.983   1.832  11.512
52622W        W24348  32.026  12.738  13.767
52623W        W24349  31.643  41.090  14.979
52624W        W24350   6.180   9.232  14.324
52625W        W24351  33.956  34.369  13.192
52626W        W24352  34.207  20.553   1.266
52627W        W24353  31.166  24.570  10.612
52628W        W24354  30.954   0.754   3.047
52629W        W24355  18.153  31.456  14.437
52630W        W24356  30.621  14.430  12.390
52631W        W24357  17.573  37.895  12.661
52632W        W24358  43.797   4.207  14.844
52633W        W24359   7.250  25.187   3.674
52634W        W24360  24.142  20.022   2.909
52635W        W24361   6.447  19.693  14.171
52636W        W24362   1.691  20.057  12.500
52637W        W24363  16.103   2.594  10.922
52638W        W24364   0.991  23.952   4.713
52639W        W24365  39.777   5.932  14.960
52640W        W24366  32.083  18.083   3.216
52641W        W24367  34.951   8.269   1.309
52642W        W24368  30.112  17.823   3.702
52643W        W24369  15.235   7.531   2.394
52644W        W24370  31.692  16.411  12.394
52645W        W24371  22.095  33.334  13.791
52646W        W24372  38.420   6.855   4.777
52647W        W24373   1.978   5.834  11.137
52648W        W24374  38.256  29.464  14.384
52649W        W24375   7.337  40.073   2.776
52650W        W24376  29.481   2.006  13.783
52651W        W24377  32.417  35.929   4.819
52652W        W24378  16.543  20.681  12.494
52653W        W24379   2.929  40.580   0.886
52654W        W24380  34.070   0.951   1.077
52655W        W24381  29.534  41.302   0.301
52656W        W24382  21.274   9.692  13.003
52657W        W24383   7.613  29.680   1.724
52658W        W24384   7.641   8.078  11.170
52659W        W24385  11.229   4.145  12.447
52660W        W24386  35.851  14.264   2.282
52661W        W24387  44.185  38.327  13.862
52662W        W24388  16.842  37.836   0.361
52663W        W24389  24.675  18.618   3.258
52664W        W24390  19.166  24.627  13.949
52665W        W24391  44.313  37.568   0.405
52666W        W24392   8.169  13.150   4.055
52667W        W24393   7.175  32.928   1.662
52668W        W24394  14.548   8.302   3.735
52669W        W24395   8.447   8.740  11.482
52670W        W24396  17.357  37.179  12.960
52671W        W24397  44.887   8.624   2.922
52672W        W24398  39.256   8.936  11.041
52673W        W24399  16.176  35.643  13.853
52674W        W24400   4.331  31.166   4.258
52675W        W24401   4.991  18.173   1.784
52676W        W24402   0.634  43.622  13.988
52677W        W24403  25.624  41.581  11.133
52678W        W24404  34.378  13.300   1.346
52679W        W24405  31.749  28.922  11.574
52680W        W24406  21.181   0.499  12.016
52681W        W24407  19.117  24.990   1.714
52682W        W24408   9.810  25.250   2.373
52683W        W24409   9.755  44.516   4.348
52684W        W24410  31.983  18.172   1.919
52685W        W24411   4.734  23.144   2.384
52686W        W24412  38.823  21.727   3.608
52687W        W24413  12.661  44.467  14.712
52688W        W24414  15.346  15.296   3.285
52689W        W24415   4.485   5.430  13.341
52690W        W24416  42.638  18.145  11.345
52691W        W24417  34.632  23.505   3.228
52692W        W24418  26.525  14.720   0.193
52693W        W24419  27.473  21.556   4.584
52694W        W24420   0.838  20.597   4.368
52695W        W24421  18.169  37.409   4.656
52696W        W24422   2.366  43.079   4.138
52697W        W24423  43.526  26.626   0.787
52698W        W24424   0.472  41.950  11.024
52699W        W24425  18.671  34.647  12.013
52700W        W24426  17.527  24.721  12.592
52701W        W24427  24.569  42.524  14.404
52702W        W24428   1.931  19.721   3.126
52703W        W24429  29.104   0.454   1.901
52704W        W24430  18.246  20.773   4.344
52705W        W24431  36.570   3.741   1.762
52706W        W24432  13.186  44.269  14.994
52707W        W24433  33.639  31.332   4.078
52708W        W24434  39.234  17.807   1.304
52709W        W24435   9.081   8.310   3.385
52710W        W24436  17.663   2.876  10.831
52711W        W24437  40.125  20.607  12.892
52712W        W24438  16.582  10.861   4.647
52713W        W24439   1.517  23.906   1.228
52714W        W24440   5.973  17.375   2.484
52715W        W24441  24.162  35.867   2.784
52716W        W24442  23.951  24.833   4.153
52717W        W24443  40.338   6.421  12.157
52718W        W24444  31.189  44.321   1.679
52719W        W24445  22.472  38.054  13.573
52720W        W24446  11.537  41.787   0.605
52721W        W24447  41.602   9.880   3.486
52722W        W24448  44.838  33.636   2.762
52723W        W24449  12.976  22.954   0.129
52724W        W24450  15.440  11.621   3.282
52725W        W24451  33.576  41.206   3.696
52726W        W24452  37.038   1.769  14.707
52727W        W24453  35.419  27.489  10.723
52728W        W24454  25.105   5.944   2.290
52729W        W24455   0.381  13.682  13.195
52730W        W24456  28.002  41.315   3.385
52731W        W24457  33.922  35.782  13.802
52732W        W24458  19.568   3.252   1.292
52733W        W24459  11.753  29.164   4.602
52734W        W24460  21.193  28.484  13.848
52735W        W24461  27.077  25.421   4.699
52736W        W24462  19.518  31.819   0.706
52737W        W24463   2.834  33.104   0.433
52738W        W24464   6.718  21.508   1.539
52739W        W24465  10.935  15.583  12.957
52740W        W24466  39.138  43.608  11.102
52741W        W24467  20.387  28.032  12.821
52742W        W24468  31.101  10.865   2.642
52743W        W24469  20.286   4.676  12.367
52744W        W24470  31.688  43.673   3.325
52745W        W24471   7.282   0.266   1.973
52746W        W24472   5.927   7.921  10.117
52747W        W24473  21.888  12.704  10.714
52748W        W24474  39.525  19.859  13.282
52749W        W24475  42.046  43.446   0.955
52750W        W24476   6.945  27.030  10.821
52751W        W24477  28.708   8.619  13.407
52752W        W24478   7.716  14.562  14.088
52753W        W24479  35.224  33.216   2.830
52754W        W24480  43.781   1.789  14.293
52755W        W24481   5.787  44.073  13.263
52756W        W24482  32.650   8.888  12.411
52757W        W24483  20.550  38.263  12.005
52758W        W24484   4.380  42.569  14.915
52759W        W24485  21.189  15.857  14.344
52760W        W24486  20.691   2.932  13.774
52761W        W24487   8.900  22.047  13.739
52762W        W24488  35.836   0.847   2.737
52763W        W24489  27.016  14.817   0.346
52764W        W24490  24.497  14.134   4.464
52765W        W24491   5.675  25.631   0.011
52766W        W24492  17.093  13.919   1.928
52767W        W24493  23.288  25.708  10.208
52768W        W24494  40.159   4.554   5.102
52769W        W24495  38.781   2.522   1.502
52770W        W24496  36.451  36.163  11.877
52771W        W24497  15.349  40.361   4.385
52772W        W24498   9.423  30.098  12.522
52773W        W24499  11.123  34.009   1.328
52774W        W24500   3.585  31.768  14.554
52775W        W24501   9.753  23.943  14.071
52776W        W24502  31.860  19.065  10.587
52777W        W24503   8.139   3.841   0.871
52778W        W24504  15.189  13.673  10.736
52779W        W24505  42.503  13.109   3.867
52780W        W24506  25.529   7.351  11.262
52781W        W24507   9.595   5.312  11.628
52782W        W24508  12.647  32.338   0.487
52783W        W24509   9.697  31.690  12.437
52784W        W24510  22.426   8.929   3.608
52785W        W24511  17.412  16.733   2.441
52786W        W24512  15.442   3.337   1.894
52787W        W24513  11.782  11.788  10.727
52788W        W24514  32.015  36.754  11.438
52789W        W24515  37.920  35.974   3.289
52790W        W24516  37.950  16.141   0.219
52791W        W24517  40.802   4.846  10.924
52792W        W24518   2.452  13.549  14.496
52793W        W24519  14.856  24.119  12.172
52794W        W24520  10.800  16.221   1.332
52795W        W24521  38.309  14.816   0.314
52796W        W24522  28.628  12.951   0.002
52797W        W24523   8.774  43.687   9.781
52798W        W24524  37.214  28.562  12.513
52799W        W24525   6.739  36.210  14.244
52800W        W24526  36.267  34.888   2.300
52801W        W24527  34.128  27.038  12.256
52802W        W24528  24.483  13.328  12.097
52803W        W24529   9.337   2.859  10.387
52804W        W24530   6.034   7.812  13.775
52805W        W24531   3.666  31.391   0.425
52806W        W24532   8.637   4.667   0.250
52807W        W24533  18.570  43.859  11.647
52808W        W24534  30.449  23.231  12.043
52809W        W24535   5.426  28.209  13.897
52810W        W24536  37.625  22.256   1.685
52811W        W24537  23.371  43.651   2.810
52812W        W24538  37.996  32.454   2.614
52813W        W24539  17.913  11.620  14.504
52814W        W24540  43.299  19.933   5.009
52815W        W24541  42.452  20.586  14.377
52816W        W24542  33.225  34.466  14.493
52817W        W24543  42.962  17.720   4.130
52818W        W24544  11.757   9.230  12.370
52819W        W24545  12.571   9.268   2.099
52820W        W24546   0.302   6.166   2.870
52821W        W24547  27.672  10.252   1.861
52822W        W24548  20.269  32.173  12.151
52823W        W24549   2.680  35.986  13.716
52824W        W24550   4.675  10.662   2.860
52825W        W24551   3.466  39.454  11.034
52826W        W24552   3.884  18.109  11.033
52827W        W24553   3.818  16.157   2.626
52828W        W24554  15.627  40.030   4.132
52829W        W24555  36.946   4.139  11.480
52830W        W24556  23.947  25.247  13.440
52831W        W24557  10.343  21.728  13.615
52832W        W24558   3.164  25.941  12.902
52833W        W24559  21.220   0.075   1.294
52834W        W24560  19.725  24.577   2.221
52835W        W24561   5.981  17.150  10.189
52836W        W24562   3.427   7.663   1.273
52837W        W24563  18.579   7.515   4.708
52838W        W24564  23.465  24.702  12.007
52839W        W24565  24.491  10.947  11.918
52840W        W24566  19.761  33.908  12.557
52841W        W24567  34.970  26.603  12.083
52842W        W24568  32.892  36.986   3.714
52843W        W24569  23.132   6.735   2.166
52844W        W24570  31.473   8.680   3.729
52845W        W24571  12.677  32.557  13.411
52846W        W24572   0.250  29.606   0.093
52847W        W24573  30.908  15.318  11.457
52848W        W24574  28.921   4.983  10.081
52849W        W24575  24.508  21.939   4.527
52850W        W24576  32.580  25.730  10.963
52851W        W24577   5.002  14.625  13.392
52852W        W24578   5.455  12.640   3.735
52853W        W24579   4.974   3.495  14.818
52854W        W24580  36.437   3.014  14.403
52855W        W24581  24.038  31.608  10.587
52856W        W24582  29.941  35.344   2.406
52857W        W24583  43.258  17.619   0.794
52858W        W24584  15.438  34.730   5.130
52859W        W24585  16.152  11.202   0.269
52860W        W24586  28.330   8.955   2.336
52861W        W24587  18.774  43.312   1.479
52862W        W24588   7.123  31.602   0.843
52863W        W24589  29.007  34.363  11.622
52864W        W24590  24.682  41.180  14.020
52865W        W24591  33.979  32.647  13.899
52866W        W24592   0.783  13.047  14.957
52867W        W24593  29.545  41.434  10.577
52868W        W24594  36.960   3.929   0.473
52869W        W24595  23.237  36.822  13.809
52870W        W24596  38.234  40.054   2.671
52871W        W24597  15.127  36.567  10.728
52872W        W24598  25.985  11.823   0.221
52873W        W24599  27.709  26.149  12.123
52874W        W24600  30.019   3.721   2.107
52875W        W24601  21.651  20.015   2.251
52876W        W24602  27.113  19.766  12.725
52877W        W24603  36.586  43.859   1.360
52878W        W24604  19.092  13.252   3.099
52879W        W24605   8.706  40.214   0.125
52880W        W24606  28.514   7.585   1.563
52881W        W24607  23.193  38.484   0.271
52882W        W24608  33.819  23.814  13.290
52883W        W24609   4.331  13.507  10.231
52884W        W24610   7.746   2.893   3.818
52885W        W24611  12.633  17.612  13.373
52886W        W24612  19.597   4.418  10.654
52887W        W24613  19.583  34.138   4.177
52888W        W24614  10.653  31.151  14.974
52889W        W24615  35.596   4.840   4.726
52890W        W24616   3.545  23.728   1.861
52891W        W24617  38.936   1.974  11.874
52892W        W24618   3.012  40.106   3.719
52893W        W24619   4.942   9.812   1.740
52894W        W24620  28.806  12.749   2.202
52895W        W24621  41.901  14.848  14.596
52896W        W24622  42.946  38.826  13.509
52897W        W24623  36.865   5.189  12.111
52898W        W24624  10.711  20.837  14.546
52899W        W24625  42.070   1.462  11.008
52900W        W24626  40.964  15.696   3.322
52901W        W24627  15.649  38.353  10.639
52902W        W24628  14.078   0.098   1.499
52903W        W24629  28.927  32.878  13.495
52904W        W24630  36.505  11.830  13.361
52905W        W24631  30.878  44.006  10.724
52906W        W24632   6.515   6.420  14.503
52907W        W24633  26.665  36.344   1.979
52908W        W24634  35.526  42.482  13.438
52909W        W24635   8.694  20.474   5.039
52910W        W24636  30.946  20.533   1.868
52911W        W24637  14.339  30.982   0.951
52912W        W24638  41.348  31.632   3.063
52913W        W24639  35.017  13.298  11.944
52914W        W24640  42.931  37.475   4.407
52915W        W24641   8.377  40.100  12.511
52916W        W24642  18.278   4.466   3.326
52917W        W24643  31.161  43.854   1.358
52918W        W24644  43.944  27.941   3.718
52919W        W24645  18.591  35.994  14.859
52920W        W24646  11.522  24.432   9.510
52921W        W24647  16.884  24.537   4.152
52922W        W24648  44.466  36.968  13.940
52923W        W24649  27.283   0.913   0.268
52924W        W24650  16.364  21.116  10.490
52925W        W24651  32.584  31.138   2.129
52926W        W24652   0.028  14.683  11.700
52927W        W24653  15.571  18.826  10.985
52928W        W24654  27.637  12.564  14.446
52929W        W24655  17.625  36.341  13.990
52930W        W24656  42.097  42.008  13.951
52931W        W24657  36.518  13.682   0.985
52932W        W24658  34.388  18.104  11.255
52933W        W24659  30.462  12.500  13.792
52934W        W24660   9.247  24.993  13.559
52935W        W24661  21.163   3.331   1.891
52936W        W24662  15.299  37.282  11.110
52937W        W24663  19.284  15.852  13.687
52938W        W24664   4.702  23.553   3.739
52939W        W24665   4.049  33.053  14.527
52940W        W24666  28.776  43.287  11.041
52941W        W24667   3.468   3.971  13.030
52942W        W24668  12.271  17.848  12.035
52943W        W24669   1.475  29.987  12.576
52944W        W24670  20.152   5.149   3.285
52945W        W24671  20.041  41.134  11.009
52946W        W24672   4.899  18.312  13.149
52947W        W24673  26.714  44.520   0.861
52948W        W24674  27.945   3.096   5.109
52949W        W24675  32.525  42.027  10.223
52950W        W24676  39.836   1.779   4.364
52951W        W24677  37.347  21.589  12.410
52952W        W24678  32.127  41.413  11.458
52953W        W24679  36.799  33.393   1.370
52954W        W24680  35.813  12.270  14.214
52955W        W24681  18.972  15.172  14.384
52956W        W24682  15.815  40.453   1.818
52957W        W24683  29.184  25.681  10.624
52958W        W24684  22.757   4.470   3.390
52959W        W24685  32.523  10.660   3.626
52960W        W24686  41.765   8.385   0.439
52961W        W24687  17.511  23.024  13.961
52962W        W24688  19.605  41.523  10.327
52963W        W24689   4.429   0.153  14.258
52964W        W24690   9.252  21.683  11.358
52965W        W24691  28.149   1.269  14.737
52966W        W24692  34.467  39.626  14.909
52967W        W24693   7.002  15.966  12.037
52968W        W24694  42.771  37.885  11.653
52969W        W24695   8.308  18.605   0.661
52970W        W24696  24.009  18.209  13.328
52971W        W24697  36.766  32.183   9.823
52972W        W24698  31.659  28.882   3.388
52973W        W24699  11.684   8.905  11.033
52974W        W24700  38.870  25.543   3.174
52975W        W24701   9.406  42.985   2.822
52976W        W24702   7.855  41.355  13.873
52977W        W24703  30.645  44.248   4.714
52978W        W24704  32.137  38.042  14.933
52979W        W24705   4.217  13.146   1.617
52980W        W24706  18.560  28.556   1.906
52981W        W24707  20.237  32.220  13.470
52982W        W24708   2.085   0.022  14.580
52983W        W24709  32.169  38.079   1.245
52984W        W24710  23.010  10.203  11.343
52985W        W24711  29.071  20.328   1.728
52986W        W24712  11.865  30.428   0.060
52987W        W24713  31.918  41.499  13.060
52988W        W24714  10.024   6.209   1.965
52989W        W24715   7.264   4.867   4.000
52990W        W24716  11.304  17.435  10.328
52991W        W24717   9.761   8.267  12.492
52992W        W24718  39.446  43.059  13.405
52993W        W24719  37.998  31.607  11.729
52994W        W24720  19.136  12.778   4.488
52995W        W24721   3.669  28.537   3.817
52996W        W24722  37.479   7.900   1.856
52997W        W24723  39.373  31.686   2.183
52998W        W24724   1.216  16.043   0.490
52999W        W24725  31.358  31.516  11.571
53000W        W24726  12.035  23.489  10.685
53001W        W24727  10.404  35.070   2.740
53002W        W24728  33.787  10.777  11.064
53003W        W24729  34.610   9.336  13.517
53004W        W24730   5.850  14.933   1.721
53005W        W24731  37.109  26.902  11.814
53006W        W24732  12.050  42.160   2.815
53007W        W24733   3.410  43.922  13.971
53008W        W24734  33.040  11.472   2.275
53009W        W24735   5.942  38.791   0.338
53010W        W24736   1.864  16.160  14.228
53011W        W24737  24.979  12.402  10.923
53012W        W24738  36.626  15.139   4.157
53013W        W24739  29.135  15.772   1.847
53014W        W24740  28.548   2.495  10.593
53015W        W24741  10.440  38.543  12.998
53016W        W24742  25.812  15.601  14.920
53017W        W24743  35.316   6.632  12.455
53018W        W24744  36.278  28.498  14.023
53019W        W24745  18.959   2.304  11.870
53020W        W24746   7.397   7.823   4.157
53021W        W24747  41.432  39.798  11.388
53022W        W24748  40.570   2.414   0.991
53023W        W24749  15.015  26.557  12.805
53024W        W24750  42.154  29.736  14.992
53025W        W24751  33.562  27.578   4.143
53026W        W24752  20.213   9.752  14.879
53027W        W24753  12.228  27.246  11.102
53028W        W24754  39.137  43.040   4.252
53029W        W24755  20.728  30.972  10.628
53030W        W24756  43.342  26.846  11.636
53031W        W24757  24.096  38.028  12.946
53032W        W24758  17.500  24.297   3.283
53033W        W24759  44.062  15.066  11.503
53034W        W24760  37.065  41.064  11.660
53035W        W24761  23.035   4.358  13.493
53036W        W24762  30.469  27.004   4.038
53037W        W24763  32.492  13.456   3.053
53038W        W24764  10.994  25.016  14.833
53039W        W24765  33.686   0.869  14.383
53040W        W24766  21.303  30.055   3.262
53041W        W24767  37.443  36.142   0.975
53042W        W24768   9.183  33.374   3.782
53043W        W24769  25.851  41.064   1.795
53044W        W24770  37.614  20.107   3.174
53045W        W24771   1.223   6.167  10.675
53046W        W24772  18.009   4.734   4.264
53047W        W24773  37.694  24.001   4.517
53048W        W24774  10.184  43.442   4.066
53049W        W24775  23.475  14.602  11.045
53050W        W24776  26.592   9.728   4.266
53051W        W24777  15.756  33.624   2.753
53052W        W24778   4.675  18.253  14.493
53053W        W24779  18.648   6.678  14.024
53054W        W24780  18.213  23.898   2.581
53055W        W24781  38.053  17.713  11.176
53056W        W24782  24.456  27.024   1.665
53057W        W24783  21.065  37.387   4.284
53058W        W24784  37.028  13.625   1.746
53059W        W24785  40.905  28.414  12.116
53060W        W24786  22.624  19.170  11.330
53061W        W24787  27.482   1.776  12.887
53062W        W24788  32.306  32.272   0.437
53063W        W24789  13.304  31.829   4.633
53064W        W24790  15.123  43.078   2.352
53065W        W24791  36.828  42.763   4.990
53066W        W24792   2.900  17.230  12.920
53067W        W24793   9.263  23.999   1.850
53068W        W24794   7.807  31.678  12.351
53069W        W24795   7.285  25.218  14.319
53070W        W24796  38.450  24.092  13.625
53071W        W24797  25.709  10.136  12.087
53072W        W24798   4.658   4.132   4.620
53073W        W24799  30.994  26.443  12.096
53074W        W24800  10.725  44.993  13.117
53075W        W24801  14.252  26.550   0.449
53076W        W24802  30.472  29.379   2.340
53077W        W24803  22.350  41.214   4.986
53078W        W24804  22.763   9.679  11.942
53079W        W24805   4.421  16.353  11.691
53080W        W24806  26.062  10.598   3.495
53081W        W24807  24.032  20.078  12.933
53082W        W24808  36.555   4.426  14.298
53083W        W24809  27.617   8.844   1.793
53084W        W24810   7.144  16.328   1.008
53085W        W24811   5.172  21.495   3.187
53086W        W24812  30.428  43.064   3.245
53087W        W24813  10.589  19.643   3.571
53088W        W24814  17.215   4.814  10.950
53089W        W24815  43.000  32.796  14.469
53090W        W24816   1.327   0.460   1.817
53091W        W24817  13.670  14.666   0.333
53092W        W24818  13.407  13.167   3.182
53093W        W24819  11.292  13.182   3.908
53094W        W24820  11.423   1.705   0.437
53095W        W24821   8.363  10.685   1.304
53096W        W24822  28.137   4.206  10.502
53097W        W24823  13.096   6.262  10.854
53098W        W24824  21.123  43.943   0.165
53099W        W24825  29.044  39.504  13.709
53100W        W24826  25.778  40.375  12.949
53101W        W24827   7.751  13.154   1.689
53102W        W24828  26.169   6.303  12.008
53103W        W24829  18.144   4.793   4.743
53104W        W24830  43.889  25.243  14.002
53105W        W24831  23.524   5.362   2.627
53106W        W24832  26.489  15.976  14.395
53107W        W24833   7.302  10.417   1.846
53108W        W24834  33.683  44.924  12.892
53109W        W24835  17.817  44.319   4.300
53110W        W24836  41.495  27.275   4.153
53111W        W24837  11.910  38.718   1.098
53112W        W24838   5.426  13.856   9.785
53113W        W24839   1.746   1.548  11.147
53114W        W24840   1.731  31.519  13.639
53115W        W24841   8.715  11.659   0.574
53116W        W24842  29.090  29.052   2.210
53117W        W24843  26.144  44.880  12.249
53118W        W24844  29.909  41.507   2.734
53119W        W24845  14.502  43.892  11.887
53120W        W24846  36.371  29.313   1.253
53121W        W24847  25.634  32.149  11.198
53122W        W24848   8.698  38.375   1.104
53123W        W24849  36.462   7.182  13.080
53124W        W24850  32.011  29.024   0.346
53125W        W24851   1.589  28.642   3.234
53126W        W24852  33.460  28.223   4.623
53127W        W24853  15.575  19.207   4.800
53128W        W24854  39.811  27.558  12.856
53129W        W24855  14.608  43.738   3.423
53130W        W24856   0.205  33.639   4.095
53131W        W24857  31.013   6.111  12.912
53132W        W24858   6.993  44.698  14.323
53133W        W24859   7.837   8.599   3.746
53134W        W24860  40.740   4.535  13.801
53135W        W24861  39.355  26.412   4.922
53136W        W24862  43.906  11.108  10.727
53137W        W24863  36.491   7.124   2.427
53138W        W24864   5.294   2.452  13.121
53139W        W24865  38.502  28.273   1.305
53140W        W24866   1.906  16.971   2.391
53141W        W24867   5.743  20.745  14.835
53142W        W24868   4.411  39.514   2.662
53143W        W24869  35.839  31.096   3.213
53144W        W24870  44.735  25.489  13.382
53145W        W24871  40.277  32.429  11.288
53146W        W24872  41.966   3.962  12.520
53147W        W24873  34.640   9.468  14.406
53148W        W24874  34.114  42.722   0.640
53149W        W24875  23.457  20.350   1.350
53150W        W24876  20.594   6.724   4.692
53151W        W24877  29.317  24.294   2.851
53152W        W24878  25.038   3.648  12.870
53153W        W24879  15.670   4.265  14.793
53154W        W24880  37.591   8.370  14.549
53155W        W24881  41.900  44.900   4.212
53156W        W24882  26.721  44.347  11.786
53157W        W24883  36.046   6.402  10.882
53158W        W24884  37.583  12.495  13.977
53159W        W24885  40.781  19.589   3.839
53160W        W24886   2.406   5.807   4.814
53161W        W24887  31.090  40.409  14.944
53162W        W24888  23.958   0.357  11.950
53163W        W24889  34.390  18.780   3.385
53164W        W24890   3.439  24.621  11.984
53165W        W24891  39.531   8.942   0.499
53166W        W24892  44.664  39.304   9.846
53167W        W24893  33.522  15.194   5.099
53168W        W24894   8.935  26.931   0.692
53169W        W24895   6.303   8.230   4.741
53170W        W24896   7.094  14.191  11.705
53171W        W24897   3.404  21.830  13.709
53172W        W24898  39.426  31.450  13.426
53173W        W24899   3.646  29.523   3.888
53174W        W24900  40.416  12.075  10.703
53175W        W24901  28.227  26.396   3.402
53176W        W24902  22.242  24.712  12.463
53177W        W24903  22.636  12.373   0.991
53178W        W24904  22.259  36.958  12.945
53179W        W24905  34.043  37.230  12.626
53180W        W24906   4.705  12.328  11.088
53181W        W24907  39.180  42.711  12.063
53182W        W24908  43.709  25.089  12.413
53183W        W24909  30.379  32.071  13.894
53184W        W24910  21.970  41.898  12.899
53185W        W24911  17.272  18.387  11.032
53186W        W24912  31.551  23.219   1.457
53187W        W24913  19.218  30.002  12.670
53188W        W24914  39.056   4.876   1.741
53189W        W24915   4.858  24.748  12.062
53190W        W24916  37.983   3.524   2.333
53191W        W24917  34.430   3.010  11.747
53192W        W24918  11.888   9.452  14.350
53193W        W24919  28.833  20.088  12.927
53194W        W24920  18.179  10.775  14.304
53195W        W24921  19.289   9.361   3.245
53196W        W24922  39.551  31.384   0.631
53197W        W24923  18.111   9.622   3.564
53198W        W24924  14.672  18.275  13.855
53199W        W24925  10.783  27.026   0.294
53200W        W24926  21.387   5.957  10.275
53201W        W24927   6.333  10.114   1.965
53202W        W24928  31.769  11.986  12.908
53203W        W24929  26.423  11.364   4.199
53204W        W24930  43.799  39.772   2.197
53205W        W24931  39.772  32.474  10.531
53206W        W24932   8.809  25.732  12.533
53207W        W24933   6.866   7.351   1.629
53208W        W24934  19.124   3.932  11.039
53209W        W24935   6.590  18.127  13.556
53210W        W24936  21.646  12.694   5.498
53211W        W24937  33.116  37.400  11.142
53212W        W24938  22.256  28.433  10.120
53213W        W24939  36.908   4.081  12.916
53214W        W24940  12.733  36.688   0.853
53215W        W24941  21.259   9.182  14.048
53216W        W24942  30.048  32.101   1.263
53217W        W24943  37.458  22.962  14.730
53218W        W24944  19.930   7.939  14.473
53219W        W24945   0.193  11.244  14.254
53220W        W24946   2.276  12.748   5.009
53221W        W24947  19.993   8.378  11.953
53222W        W24948  27.510  42.516  10.684
53223W        W24949  33.848  29.246  11.152
53224W        W24950   5.802  29.225   4.705
53225W        W24951  16.688  35.299  11.109
53226W        W24952  17.104  28.714   4.976
53227W        W24953  35.694  26.420   1.852
53228W        W24954   6.423  21.067   3.300
53229W        W24955   6.272   4.774   3.619
53230W        W24956  17.052  30.700   2.677
53231W        W24957  27.146  38.362  11.178
53232W        W24958  17.837  43.557  10.447
53233W        W24959  25.043  30.057   4.359
53234W        W24960  23.717  43.362   4.622
53235W        W24961  23.506   3.397   1.198
53236W        W24962  10.192   9.669   0.238
53237W        W24963  36.505   6.313   3.067
53238W        W24964  22.731  16.804   1.845
53239W        W24965   9.224  34.618  11.388
53240W        W24966  36.096  27.524  12.406
53241W        W24967  30.490  21.165   2.899
53242W        W24968  40.944  29.207  11.599
53243W        W24969  28.134  21.488  14.432
53244W        W24970  31.949  11.192  11.701
53245W        W24971  13.901   8.518   4.578
53246W        W24972  37.125  14.860  10.983
53247W        W24973  37.989  44.765   1.153
53248W        W24974  44.473   3.431  11.589
53249W        W24975  34.556   6.241  10.744
53250W        W24976  38.962  32.571   4.637
53251W        W24977  32.540   7.134   3.645
53252W        W24978  15.706  20.668  11.823
53253W        W24979  23.111  32.638   4.759
53254W        W24980   4.477  37.622   2.311
53255W        W24981   0.554  44.318  10.385
53256W        W24982  11.288  42.435   3.103
53257W        W24983  14.240  31.646   0.237
53258W        W24984  22.838  24.951  12.091
53259W        W24985   8.820  31.903   4.058
53260W        W24986  44.818  40.517   2.144
53261W        W24987  11.733  17.627   4.143
53262W        W24988  31.993  24.476  12.967
53263W        W24989  18.273   9.619  14.405
53264W        W24990  19.737  12.163   3.032
53265W        W24991  31.392  42.662  13.360
53266W        W24992  40.826  23.024  11.123
53267W        W24993  30.158   5.963  12.480
53268W        W24994  14.619  13.750  10.795
53269W        W24995  29.935   0.526  10.756
53270W        W24996  13.408   6.537  11.189
53271W        W24997   0.609  18.785  12.165
53272W        W24998  30.638  16.377  14.401
53273W        W24999   4.876  10.280  10.169
53274W        W25000   9.740   5.625   3.613
53275W        W25001  12.326   9.520   0.694
53276W        W25002   4.770   0.559  13.459
53277W        W25003  43.464  27.137  10.760
53278W        W25004  28.657  21.601   2.854
53279W        W25005  26.750  10.657   4.667
53280W        W25006  27.704   1.034   0.561
53281W        W25007   6.948  31.563  12.131
53282W        W25008   0.911   4.625   2.728
53283W        W25009  32.542  32.137   4.143
53284W        W25010  26.526  38.061  14.999
53285W        W25011   3.709  28.014   3.739
53286W        W25012  44.718  35.953  14.905
53287W        W25013  33.427  18.661  11.155
53288W        W25014  33.651  15.519   3.247
53289W        W25015  18.302  31.650  10.805
53290W        W25016   9.074  33.362  13.309
53291W        W25017  28.926  12.392   3.750
53292W        W25018   9.809  12.167   3.380
53293W        W25019   4.382   1.890  11.492
53294W        W25020  27.464  24.644  12.123
53295W        W25021  17.589  24.333  12.027
53296W        W25022   4.404  30.974  14.907
53297W        W25023  42.460  37.857   2.815
53298W        W25024  31.411  32.617  13.610
53299W        W25025  20.294   6.649   1.220
53300W        W25026  28.150  44.134  13.326
53301W        W25027  19.302  24.100   0.924
53302W        W25028   6.586  30.441  13.534
53303W        W25029  36.355  31.569  13.556
53304W        W25030   1.242  29.334  14.333
53305W        W25031  12.911  35.237   1.255
53306W        W25032   4.272  28.068  10.949
53307W        W25033  10.419  17.690   2.534
53308W        W25034  12.292  44.361  10.304
53309W        W25035  30.581  36.108   1.188
53310W        W25036  31.160  38.394  10.769
53311W        W25037  18.290  15.637  14.925
53312W        W25038  26.204  26.599   3.782
53313W        W25039   6.451  39.442  13.008
53314W        W25040   3.356  13.070   2.430
53315W        W25041  33.324  35.574  14.812
53316W        W25042  21.715  39.886  13.934
53317W        W25043  39.310  29.137  12.021
53318W        W25044  43.716  18.214   1.734
53319W        W25045  33.622  31.056   0.081
53320W        W25046  15.217  34.589  10.485
53321W        W25047  34.984  40.806   4.536
53322W        W25048  31.163  29.954   0.372
53323W        W25049  35.680  39.390   2.905
53324W        W25050  33.882  13.575  11.918
53325W        W25051  14.421  24.155  12.544
53326W        W25052   7.090  13.983  11.240
53327W        W25053   2.751  33.786  11.414
53328W        W25054  12.187  31.519  12.402
53329W        W25055  24.099  15.300   5.312
53330W        W25056  10.610  27.494   0.409
53331W        W25057  32.106  26.152   2.228
53332W        W25058   9.411  11.147  13.063
53333W        W25059  39.969   4.728  12.097
53334W        W25060  33.817  29.217  11.661
53335W        W25061  27.704  18.210   3.594
53336W        W25062  36.841   3.768   0.949
53337W        W25063  19.155  12.524   2.237
53338W        W25064   8.439  17.337  13.067
53339W        W25065   5.689  39.662  10.856
53340W        W25066   0.520  35.993   2.913
53341W        W25067  39.891  19.817  14.396
53342W        W25068  21.488   4.479  13.576
53343W        W25069  23.279  10.187   4.282
53344W        W25070   4.430  39.016  10.377
53345W        W25071  30.161  13.641  11.662
53346W        W25072  41.339  24.750  14.394
53347W        W25073  40.032  44.659  12.027
53348W        W25074  10.398  10.847  14.014
53349W        W25075   9.653  30.325  11.198
53350W        W25076  17.569  19.530  12.005
53351W        W25077   4.206  36.382   1.325
53352W        W25078   9.619  12.325  13.819
53353W        W25079  35.169   0.526  13.773
53354W        W25080  15.095  31.225   0.438
53355W        W25081  40.154  34.541  13.506
53356W        W25082  38.327  16.367  10.809
53357W        W25083  18.851  23.912  14.570
53358W        W25084  44.730  32.999   0.262
53359W        W25085  32.923  18.543   2.919
53360W        W25086  20.555  25.522  11.220
53361W        W25087   9.326  37.877   4.295
53362W        W25088   3.245  25.018   1.526
53363W        W25089  31.182  15.319   2.803
53364W        W25090  37.702  42.032   3.691
53365W        W25091  33.883  25.501   0.535
53366W        W25092  34.469  11.631  13.333
53367W        W25093   9.277  44.771  11.495
53368W        W25094  25.493  42.367  10.696
53369W        W25095  14.318  29.219  13.356
53370W        W25096   1.196  19.559   0.368
53371W        W25097  11.539  11.768   0.969
53372W        W25098  31.225   5.791   2.388
53373W        W25099  23.644   0.310  14.066
53374W        W25100  12.798   8.360   1.649
53375W        W25101  27.444  13.205   0.119
53376W        W25102   3.511  22.064   4.584
53377W        W25103  11.632  17.158  12.942
53378W        W25104   9.055   8.719   3.082
53379W        W25105  29.966  41.283   3.206
53380W        W25106  33.998  14.043  12.486
53381W        W25107  16.059  29.908  11.483
53382W        W25108   8.635  27.074   4.669
53383W        W25109  12.416  23.219   0.694
53384W        W25110  29.593   5.718  13.910
53385W        W25111  15.236  27.874  13.901
53386W        W25112   1.978  35.402  11.484
53387W        W25113  17.902  43.693   1.652
53388W        W25114  44.107  19.280   0.438
53389W        W25115   0.278  37.388   2.341
53390W        W25116  37.921  42.830   4.110
53391W        W25117  25.280  33.554  12.206
53392W        W25118  27.985   4.987  12.047
53393W        W25119   3.862   7.142  11.803
53394W        W25120  40.675  14.075  13.857
53395W        W25121   6.794  40.932   4.667
53396W        W25122   8.642  30.131  11.166
53397W        W25123   3.298  23.442   2.224
53398W        W25124  14.300  40.460   1.354
53399W        W25125  34.934  14.663  13.971
53400W        W25126  27.437   5.841   1.842
53401W        W25127  12.609  27.506   2.575
53402W        W25128  30.484  40.830   0.374
53403W        W25129   0.420  40.940  14.431
53404W        W25130  17.937  14.621   3.164
53405W        W25131  26.598  14.833   0.688
53406W        W25132  34.643  14.004  11.487
53407W        W25133  34.884  15.584  14.007
53408W        W25134  24.722  27.995  12.923
53409W        W25135  17.200  33.052  11.157
53410W        W25136   3.886  37.886  11.573
53411W        W25137  38.630  27.546  14.787
53412W        W25138  26.620   9.439  11.449
53413W        W25139  40.437   0.272  11.396
53414W        W25140   0.938  32.961  12.393
53415W        W25141  33.641   2.983   3.309
53416W        W25142   4.616   9.744  13.906
53417W        W25143  33.560  20.302   3.935
53418W        W25144  27.863  25.418  12.908
53419W        W25145  11.461  23.284   4.997
53420W        W25146  31.238   0.692  11.144
53421W        W25147  23.255  23.452   0.022
53422W        W25148  20.943  31.626  12.023
53423W        W25149   2.475   4.184   3.862
53424W        W25150   4.341  37.102  14.653
53425W        W25151  23.582  20.069  13.867
53426W        W25152  24.052   3.882   1.202
53427W        W25153  28.279  20.025   3.683
53428W        W25154   3.218  21.241   1.798
53429W        W25155  38.153  39.290   1.255
53430W        W25156  37.651  41.385   5.107
53431W        W25157  39.561  32.898  11.835
53432W        W25158  23.455   8.835  11.512
53433W        W25159  21.030   0.271  10.617
53434W        W25160  40.241  37.593  10.190
53435W        W25161   7.076  40.683   1.993
53436W        W25162  34.980  15.833   0.772
53437W        W25163   9.248   5.677  13.891
53438W        W25164  23.912  34.434   1.315
53439W        W25165  21.037  15.670   1.869
53440W        W25166  44.887  39.899  12.609
53441W        W25167   3.517  30.030   4.121
53442W        W25168  26.088  17.778  12.584
53443W        W25169  30.731  19.191   2.916
53444W        W25170  38.526  42.407  10.738
53445W        W25171   0.213  21.088  11.553
53446W        W25172  13.131  23.913  14.874
53447W        W25173  31.737  21.619   1.213
53448W        W25174   4.818   4.028  10.697
53449W        W25175  27.186  42.444   2.223
53450W        W25176  11.696   5.907   3.287
53451W        W25177  18.365  31.917   1.399
53452W        W25178   2.072  38.263  11.700
53453W        W25179  37.530   6.391   4.935
53454W        W25180   3.934  37.524  14.962
53455W        W25181  15.059  34.112   0.453
53456W        W25182  15.156  16.772   0.857
53457W        W25183  20.181  34.594   3.456
53458W        W25184  27.586  14.053   0.461
53459W        W25185   6.929  35.197   2.690
53460W        W25186  17.255  30.327  14.287
53461W        W25187   1.547  35.006  14.074
53462W        W25188  21.257  22.166   3.174
53463W        W25189  27.206   4.734   2.959
53464W        W25190   2.809  36.688  10.740
53465W        W25191   5.958  37.172   3.802
53466W        W25192  15.700  22.540  14.381
53467W        W25193  18.238  40.369   4.772
53468W        W25194  16.655  36.089   2.800
53469W        W25195  15.663   2.234  14.884
53470W        W25196  15.691   3.038   4.809
53471W        W25197   5.421  18.246   4.653
53472W        W25198   9.366   2.691   2.130
53473W        W25199  18.668  11.880   3.097
53474W        W25200   1.217  15.336  13.901
53475W        W25201  16.884  38.149   5.048
53476W        W25202  40.255  32.520  10.789
53477W        W25203   6.038  12.917   3.255
53478W        W25204   0.997   3.587  12.991
53479W        W25205  23.394   3.010  12.459
53480W        W25206  13.594   5.843   2.371
53481W        W25207  31.630  18.182  13.151
53482W        W25208  39.380   7.219   4.231
53483W        W25209  40.271  35.396  11.172
53484W        W25210  37.987   3.221   4.677
53485W        W25211  27.466  31.612  13.350
53486W        W25212  18.879   2.343  13.626
53487W        W25213  19.834  34.996  14.258
53488W        W25214  20.173  23.144   2.210
53489W        W25215  31.457  15.541   0.252
53490W        W25216   5.916  19.182  12.382
53491W        W25217  35.558  43.931   3.537
53492W        W25218  24.151   0.224  12.980
53493W        W25219  18.357  35.816  12.652
53494W        W25220  41.831  33.036  11.712
53495W        W25221  42.485  43.272   1.152
53496W        W25222  21.811  22.904   1.298
53497W        W25223  30.094  20.551   4.071
53498W        W25224  25.387  32.414  13.844
53499W        W25225  31.462  38.415   2.332
53500W        W25226  36.365  38.319  11.656
53501W        W25227   2.015  27.842   1.477
53502W        W25228  18.978   9.815   4.070
53503W        W25229  27.492  24.780   0.759
53504W        W25230  13.620   7.202   0.738
53505W        W25231  27.335  14.221  12.814
53506W        W25232  43.405  43.800  13.752
53507W        W25233   8.045  29.494   1.938
53508W        W25234  37.562  40.311  12.481
53509W        W25235  14.114  30.494  13.943
53510W        W25236  14.262   7.413  10.526
53511W        W25237  16.683  18.357   4.441
53512W        W25238   8.016   2.384  12.487
53513W        W25239  37.332   0.046   3.716
53514W        W25240  34.437  28.849   3.759
53515W        W25241  20.173   8.908   2.596
53516W        W25242  35.019  38.407   0.721
53517W        W25243  42.362  19.987   1.392
53518W        W25244  26.721   2.441   4.651
53519W        W25245  13.063  42.326  13.410
53520W        W25246  40.349   1.173   2.218
53521W        W25247   2.028   9.305  13.437
53522W        W25248  12.470  11.459  11.124
53523W        W25249  36.056  29.037  12.563
53524W        W25250   7.740   7.120   0.336
53525W        W25251  40.807  43.320   1.898
53526W        W25252  30.961   3.702  12.890
53527W        W25253  30.009   2.893  12.513
53528W        W25254   7.703  10.242   0.173
53529W        W25255  34.240   9.222  14.966
53530W        W25256  20.564   9.376   2.417
53531W        W25257  30.432  25.065  14.799
53532W        W25258  23.211  23.638  12.560
53533W        W25259  21.981  25.780  14.039
53534W        W25260  14.663  41.312   2.267
53535W        W25261  24.135  14.248   1.956
53536W        W25262  31.019  44.832   1.616
53537W        W25263  10.331  16.291  12.948
53538W        W25264  24.035   5.320   0.389
53539W        W25265   9.246  25.586   2.303
53540W        W25266   0.925  21.860  10.958
53541W        W25267  15.348  34.055   0.869
53542W        W25268  25.218  10.278  12.472
53543W        W25269  37.054  17.111  11.546
53544W        W25270  30.827  34.866   3.720
53545W        W25271  14.668   8.631   4.578
53546W        W25272  15.698  38.649  11.075
53547W        W25273  25.165  38.075  14.397
53548W        W25274   8.319  20.540   1.890
53549W        W25275   5.755   2.507  12.891
53550W        W25276  31.302  21.498  12.280
53551W        W25277  30.012  36.656   2.806
53552W        W25278   1.182   7.392   3.280
53553W        W25279  40.826   2.361   2.323
53554W        W25280  11.981  35.287  12.938
53555W        W25281  24.225  35.517  10.912
53556W        W25282   1.949  44.923   0.127
53557W        W25283   3.699   6.522  14.949
53558W        W25284   4.324  15.351  11.530
53559W        W25285  32.684  41.870  12.432
53560W        W25286  32.650  19.988  12.430
53561W        W25287  14.329  23.745  14.889
53562W        W25288   4.682  35.938   1.386
53563W        W25289  26.409  15.756  12.537
53564W        W25290   6.745  34.518   2.022
53565W        W25291  19.748  37.361  11.672
53566W        W25292  33.045  40.955   2.285
53567W        W25293   5.167  25.424   2.309
53568W        W25294  32.173  16.683  12.114
53569W        W25295  12.162  40.335   5.036
53570W        W25296  22.240  37.322   2.330
53571W        W25297  17.363  23.998   2.671
53572W        W25298  44.784  30.460   4.719
53573W        W25299  25.277  19.078   4.354
53574W        W25300  37.441   8.684   2.651
53575W        W25301  34.562  21.118  12.057
53576W        W25302  25.065  29.505  11.684
53577W        W25303  32.407  13.591  12.588
53578W        W25304  39.513   0.926   1.074
53579W        W25305  32.570  33.167  11.464
53580W        W25306  18.566  36.194   4.692
53581W        W25307  23.992   8.753  13.757
53582W        W25308  37.446  12.082   2.291
53583W        W25309  44.797  38.931  10.647
53584W        W25310  24.772  32.324   2.746
53585W        W25311  37.551  22.764  12.890
53586W        W25312  22.643  32.941   3.635
53587W        W25313  13.620  26.124  14.557
53588W        W25314  15.329  38.110  12.916
53589W        W25315   6.986  29.168   3.539
53590W        W25316  35.025  39.410  11.606
53591W        W25317  22.999  39.765  12.624
53592W        W25318  39.097  43.878  11.572
53593W        W25319  42.277  10.871   4.635
53594W        W25320  29.525   5.727  10.335
53595W        W25321  34.500  22.074  12.541
53596W        W25322  19.941  20.902   1.619
53597W        W25323  39.146  26.985   4.263
53598W        W25324  15.164  23.262   2.074
53599W        W25325  22.079   5.825   0.226
53600W        W25326  20.124   5.677   3.233
53601W        W25327   6.758   3.111  11.042
53602W        W25328  25.593   0.176   2.928
53603W        W25329  35.469  21.708  14.353
53604W        W25330  25.753  30.288   0.609
53605W        W25331  10.771  44.965  10.946
53606W        W25332  15.548  24.104   3.191
53607W        W25333  10.997  15.082  13.039
53608W        W25334  27.765   6.509  10.632
53609W        W25335  13.576  22.697   2.145
53610W        W25336  35.009  25.147   0.733
53611W        W25337  35.436  35.269  11.071
53612W        W25338  35.885   9.179   2.352
53613W        W25339  32.385  43.684   2.463
53614W        W25340  12.388  19.809  11.973
53615W        W25341  10.401  13.293   2.375
53616W        W25342  40.073  37.434   1.698
53617W        W25343  34.518  28.550  13.933
53618W        W25344  16.330  31.453  11.507
53619W        W25345  24.779   4.969   4.239
53620W        W25346  35.144  32.784  12.041
53621W        W25347   0.454  22.054  10.847
53622W        W25348  43.845  33.370   1.259
53623W        W25349   2.476  30.487  10.515
53624W        W25350  36.970   1.679  11.604
53625W        W25351  39.786  25.571  12.481
53626W        W25352  28.563  14.148   4.686
53627W        W25353  39.661  37.600   2.470
53628W        W25354  35.434   3.757  12.641
53629W        W25355  35.533  15.432  13.984
53630W        W25356  36.804  26.556   3.407
53631W        W25357  22.635  25.754   2.781
53632W        W25358  30.065  22.731   4.584
53633W        W25359  29.038  36.237   3.860
53634W        W25360  33.383  12.695   1.860
53635W        W25361  36.838  19.257  13.416
53636W        W25362  24.843   3.342   4.166
53637W        W25363  17.333   3.188  14.741
53638W        W25364  23.483  37.412   0.734
53639W        W25365  24.613  29.562   3.881
53640W        W25366  36.269  30.529   2.634
53641W        W25367  27.689  26.248   1.900
53642W        W25368   9.068  25.838   1.396
53643W        W25369  24.030  34.979   1.928
53644W        W25370  38.828  28.037  14.064
53645W        W25371   2.369   5.432  11.611
53646W        W25372   1.397   8.324  12.744
53647W        W25373  34.989  24.016  12.956
53648W        W25374  39.001  36.045  13.968
53649W        W25375   0.278  33.792   2.464
53650W        W25376  37.905   7.280  12.029
53651W        W25377   6.635  38.135   0.448
53652W        W25378  14.240   7.157   2.347
53653W        W25379  38.067   5.437  11.401
53654W        W25380   3.754  13.145   2.812
53655W        W25381  24.549  17.246  14.893
53656W        W25382  15.207  24.141  11.760
53657W        W25383  22.118  43.317   4.400
53658W        W25384   3.950   0.300   1.241
53659W        W25385  14.679  12.914   1.806
53660W        W25386  27.731  30.631   3.770
53661W        W25387   8.270   7.610  11.505
53662W        W25388  32.357   8.727  13.075
53663W        W25389  14.475  32.662  13.584
53664W        W25390  21.009   4.843  13.083
53665W        W25391   3.499  11.691   0.511
53666W        W25392  32.507   9.750  12.939
53667W        W25393   1.888   8.697   0.439
53668W        W25394   9.689  39.018  13.044
53669W        W25395   9.827   2.084  11.736
53670W        W25396  29.708  43.904  11.465
53671W        W25397  27.380   1.951   0.404
53672W        W25398  43.346  38.115   3.473
53673W        W25399  22.135  31.149  11.504
53674W        W25400  26.634   2.687  14.547
53675W        W25401  21.397  14.619   4.176
53676W        W25402   2.187  21.307  10.203
53677W        W25403  33.315  21.225   0.497
53678W        W25404  35.548   6.845  14.245
53679W        W25405  44.024  12.702   4.161
53680W        W25406  21.446  33.585  14.895
53681W        W25407  29.150  29.537   4.992
53682W        W25408  17.988  18.852  11.034
53683W        W25409  21.010  43.757   4.840
53684W        W25410  23.095  41.818   2.192
53685W        W25411   4.716  12.700   5.058
53686W        W25412  14.843  17.499  12.626
53687W        W25413   8.304   1.319   4.656
53688W        W25414  38.982  30.532   2.439
53689W        W25415  32.901   1.264  10.978
53690W        W25416  24.633   3.512  10.720
53691W        W25417  44.542  31.380  12.534
53692W        W25418  12.703  22.739  11.779
53693W        W25419  35.151   2.062  13.770
53694W        W25420  21.131   9.534   0.912
53695W        W25421  35.510   0.770  14.131
53696W        W25422  19.820  25.551   4.803
53697W        W25423  33.953   2.843  11.954
53698W        W25424  26.388  14.562   3.922
53699W        W25425  20.659  13.137  13.278
53700W        W25426  43.237  23.247  11.788
53701W        W25427   6.683   2.524  10.991
53702W        W25428  41.615   2.968  14.792
53703W        W25429  17.741  44.794  12.422
53704W        W25430   4.277  23.836  12.357
53705W        W25431  33.796  11.808  10.328
53706W        W25432  37.889  15.170   0.285
53707W        W25433  15.719  35.029  14.566
53708W        W25434  37.848  26.561  11.152
53709W        W25435  36.107   3.212   0.664
53710W        W25436  22.029   8.035  11.853
53711W        W25437   2.471  26.195  10.377
53712W        W25438  42.058  25.606   3.143
53713W        W25439  37.455  11.365  11.417
53714W        W25440  23.910  39.993   2.877
53715W        W25441  19.251  44.283  13.030
53716W        W25442   4.505   3.329   3.671
53717W        W25443  24.145  21.016   0.244
53718W        W25444  22.784   9.056  13.023
53719W        W25445  26.163  19.922  13.325
53720W        W25446  16.085  22.989  13.477
53721W        W25447  41.008  15.190   1.321
53722W        W25448  11.692  29.694   4.608
53723W        W25449  26.407   4.497   0.202
53724W        W25450  32.650  20.443  13.436
53725W        W25451  25.176  22.483  13.855
53726W        W25452  19.818  16.330  12.796
53727W        W25453  25.097  33.058  12.060
53728W        W25454  31.635  21.155  12.487
53729W        W25455  29.504  43.024  11.412
53730W        W25456  13.678  25.067   0.879
53731W        W25457   8.439  18.071  13.496
53732W        W25458  26.449   6.482   4.594
53733W        W25459  14.892  34.931  12.863
53734W        W25460   1.711  13.300  13.099
53735W        W25461   8.349  12.117   1.285
53736W        W25462   1.990  22.741   4.239
53737W        W25463   6.556  27.688   4.158
53738W        W25464  11.153  38.892  14.019
53739W        W25465  27.063  18.359  14.878
53740W        W25466   3.867  42.755   4.096
53741W        W25467  33.488  18.475   4.121
53742W        W25468  35.202   1.327   4.201
53743W        W25469  41.773  15.184  12.039
53744W        W25470  43.332  22.356   1.685
53745W        W25471  31.255  33.665   0.035
53746W        W25472  31.044  31.039   1.393
53747W        W25473  36.522  12.885   2.855
53748W        W25474  36.449  30.098  13.782
53749W        W25475  12.382  12.736  10.714
53750W        W25476  26.719  20.672  13.868
53751W        W25477  15.763   3.522   0.445
53752W        W25478  32.729  18.948  11.984
53753W        W25479   6.517   6.301   0.367
53754W        W25480  34.001  12.830   4.823
53755W        W25481   1.194  31.897  10.599
53756W        W25482  22.010   6.326   1.774
53757W        W25483   4.022  42.893   0.668
53758W        W25484  28.416  16.723   2.837
53759W        W25485  17.754   1.731  12.442
53760W        W25486   9.052  23.899   3.693
53761W        W25487  40.835   7.220  14.562
53762W        W25488  11.299  11.525   3.178
53763W        W25489  36.744  17.737   0.809
53764W        W25490  41.767  18.452   2.835
53765W        W25491  20.233   1.690   3.650
53766W        W25492  31.432  38.033   1.682
53767W        W25493   5.929  36.344   4.815
53768W        W25494   7.436   6.526   3.860
53769W        W25495  19.790  20.005   0.806
53770W        W25496  37.128  25.240   1.314
53771W        W25497  43.006  30.640  12.859
53772W        W25498   3.359  41.860   2.171
53773W        W25499  34.867  29.105   3.941
53774W        W25500  19.324  43.415  14.022
53775W        W25501  30.857  20.646   2.397
53776W        W25502  14.121  42.637  11.383
53777W        W25503  42.239  18.697  13.849
53778W        W25504  11.305  31.655   4.201
53779W        W25505  38.521  27.653  11.525
53780W        W25506  25.274  37.453   4.142
53781W        W25507  41.333  29.394  12.895
53782W        W25508  25.282  27.032   3.491
53783W        W25509  26.289  20.028  13.935
53784W        W25510   5.895  20.287  13.353
53785W        W25511  37.716   3.379  12.441
53786W        W25512  10.625  34.176   4.554
53787W        W25513  26.866   1.440   0.897
53788W        W25514  10.493   9.638  13.073
53789W        W25515  42.882   6.279   3.164
53790W        W25516  15.602   3.749  12.028
53791W        W25517  26.170  13.124   1.002
53792W        W25518  26.265  39.298  12.061
53793W        W25519  32.017  44.508   1.014
53794W        W25520  10.763  32.954   2.045
53795W        W25521  34.285  10.352   2.941
53796W        W25522  38.780   9.674   0.359
53797W        W25523  21.333  22.115  14.209
53798W        W25524  44.572  18.215   3.878
53799W        W25525  23.708  30.365   0.894
53800W        W25526  15.273  11.270   1.389
53801W        W25527   9.304  21.784  13.070
53802W        W25528  20.445   8.864  14.438
53803W        W25529  17.664  42.514  13.945
53804W        W25530  24.406   0.680  12.468
53805W        W25531  27.878  15.167   2.161
53806W        W25532  43.948  30.929  12.821
53807W        W25533  15.786  31.630  12.557
53808W        W25534  15.800  15.033  13.065
53809W        W25535  39.881  27.662  14.404
53810W        W25536  12.866  20.500   4.189
53811W        W25537  32.641  38.375  12.537
53812W        W25538   3.439  42.969  12.885
53813W        W25539  37.042  21.460  13.105
53814W        W25540  12.599  31.823   9.928
53815W        W25541  19.141  16.308  13.412
53816W        W25542  27.014  35.873  10.663
53817W        W25543  31.658  41.073  12.111
53818W        W25544  33.480  13.405  11.619
53819W        W25545   5.245  29.805   3.756
53820W        W25546  16.698  40.640  12.223
53821W        W25547  18.133  44.324   4.939
53822W        W25548   0.876   1.303  11.128
53823W        W25549  40.978  15.491  13.112
53824W        W25550  13.766  39.981   3.668
53825W        W25551  17.648  44.202  11.557
53826W        W25552  33.593  31.220   0.555
53827W        W25553  41.361  34.660  14.562
53828W        W25554  20.136   8.659   3.613
53829W        W25555   6.500  39.874   4.363
53830W        W25556   9.646  37.570   2.324
53831W        W25557   5.172   8.612   0.941
53832W        W25558  25.659  10.857   0.923
53833W        W25559  35.590   8.622   0.211
53834W        W25560  25.512   5.750   2.698
53835W        W25561   4.398  12.140  10.697
53836W        W25562  24.560   3.243  13.808
53837W        W25563  23.035   2.957  12.088
53838W        W25564   0.881  30.395  13.332
53839W        W25565  19.228  11.540  14.212
53840W        W25566   1.013   7.214   4.641
53841W        W25567  36.001  30.424  14.030
53842W        W25568  35.400  43.812  13.531
53843W        W25569  40.275  34.133  11.798
53844W        W25570  22.686  34.495   2.120
53845W        W25571  39.215   1.227   2.904
53846W        W25572  35.684  10.935  12.098
53847W        W25573   7.877  11.653  11.054
53848W        W25574   7.756   9.550  12.950
53849W        W25575  13.786  44.155  11.660
53850W        W25576   1.285  12.507  11.276
53851W        W25577  38.522  33.671   2.926
53852W        W25578  34.709  26.734  13.526
53853W        W25579  37.005  11.255   2.153
53854W        W25580  23.555  22.260  11.163
53855W        W25581   6.075   6.664  11.880
53856W        W25582  16.771  26.682  10.718
53857W        W25583   4.974  29.213  14.872
53858W        W25584  23.147  10.174  10.334
53859W        W25585  23.418  38.715   3.312
53860W        W25586  26.719   0.712   4.498
53861W        W25587  22.121  27.385  12.029
53862W        W25588  25.989   7.582  11.146
53863W        W25589  36.583  36.576   3.276
53864W        W25590   5.007  10.099  13.977
53865W        W25591   6.371  36.109   4.623
53866W        W25592  36.843  16.057   1.287
53867W        W25593  26.950  34.007  14.409
53868W        W25594  44.488   0.488   4.267
53869W        W25595  34.442  25.548   3.226
53870W        W25596  40.136   3.260   2.517
53871W        W25597  22.533  25.514   9.759
53872W        W25598   4.967  39.369   1.761
53873W        W25599  18.661  16.651   1.783
53874W        W25600  41.597  38.480  11.144
53875W        W25601  22.568   8.635   4.394
53876W        W25602  42.537  38.059  13.535
53877W        W25603  26.346  42.712  13.589
53878W        W25604   4.691  36.849   2.695
53879W        W25605  25.221  35.373  11.635
53880W        W25606  39.767  14.521  10.401
53881W        W25607  22.362  43.477  13.364
53882W        W25608  34.978  15.155  14.369
53883W        W25609  16.110  25.536   0.705
53884W        W25610  12.545  35.934  13.408
53885W        W25611  22.712   5.946   0.389
53886W        W25612  18.686  37.583   1.408
53887W        W25613  42.426  24.600  14.088
53888W        W25614  26.586  23.934   3.729
53889W        W25615  42.830   5.351  11.288
53890W        W25616  21.249  21.529   4.374
53891W        W25617  27.751  25.565   0.462
53892W        W25618  15.210  43.551  13.896
53893W        W25619   1.225  24.275  14.433
53894W        W25620   5.257  10.550   1.795
53895W        W25621  23.525  28.088   4.243
53896W        W25622  33.849  23.044   1.931
53897W        W25623  36.018  26.709   2.576
53898W        W25624  11.539  23.009  11.439
53899W        W25625  31.115  33.416   3.289
53900W        W25626   5.384  43.407  12.875
53901W        W25627   4.740  40.814  13.065
53902W        W25628  40.549  18.708  12.464
53903W        W25629  16.923  21.731   3.131
53904W        W25630  13.410  18.843  13.585
53905W        W25631  16.673   3.768  14.990
53906W        W25632  37.441  20.520   0.309
53907W        W25633  10.184   9.875  11.120
53908W        W25634  36.278  13.303  14.837
53909W        W25635  26.608  19.687  10.596
53910W        W25636  22.659  17.706  14.125
53911W        W25637  17.518  43.571   4.774
53912W        W25638  20.325  13.964   4.307
53913W        W25639  18.202  38.925  11.551
53914W        W25640  39.580   8.253  14.731
53915W        W25641  20.165  31.797  13.112
53916W        W25642   7.665  26.696  13.942
53917W        W25643  43.133  22.189   4.690
53918W        W25644  34.646   7.703  11.236
53919W        W25645  29.054  23.335   1.693
53920W        W25646  25.618  14.318   4.157
53921W        W25647  13.231   5.317   4.581
53922W        W25648   4.336  26.462   4.109
53923W        W25649  10.613  38.522   1.734
53924W        W25650  12.782  35.651  12.505
53925W        W25651  26.396   7.902  11.079
53926W        W25652  10.932  20.650   3.316
53927W        W25653  44.894  15.729  11.018
53928W        W25654   1.948   4.561   4.402
53929W        W25655   2.384  36.775  13.509
53930W        W25656  41.049  17.080  11.239
53931W        W25657  32.778  24.751  12.420
53932W        W25658  23.643   7.908   4.633
53933W        W25659  19.965   0.940   5.170
53934W        W25660  23.625  36.912   4.669
53935W        W25661  13.069  23.862  12.758
53936W        W25662  24.225   6.186  13.883
53937W        W25663  36.664  11.466  13.707
53938W        W25664  17.517  31.692  12.993
53939W        W25665  15.267  23.961  11.286
53940W        W25666   7.711  43.040   1.848
53941W        W25667  25.415  41.705  13.071
53942W        W25668  26.149   0.387   2.182
53943W        W25669  33.426   8.169  12.579
53944W        W25670  33.767  43.261   2.352
53945W        W25671  24.665  35.941   4.183
53946W        W25672  41.423  39.256   4.726
53947W        W25673  19.974  35.991  11.915
53948W        W25674  26.853  20.923   4.794
53949W        W25675  40.417  33.211  11.997
53950W        W25676  33.916  27.408   0.316
53951W        W25677  38.090  35.636  13.874
53952W        W25678   5.672  27.361   2.335
53953W        W25679  17.012  14.968   3.571
53954W        W25680  21.653   4.875   3.658
53955W        W25681  33.466  42.440   1.683
53956W        W25682  33.055  25.356  12.892
53957W        W25683  37.004  26.756   1.122
53958W        W25684  29.676  41.593  14.858
53959W        W25685  39.823  24.593   1.937
53960W        W25686  35.823  12.733  11.074
53961W        W25687  44.136  35.339   2.735
53962W        W25688  26.066  42.481  10.899
53963W        W25689  12.786   9.717   0.525
53964W        W25690   4.478  30.584  11.554
53965W        W25691  15.180  15.352  14.492
53966W        W25692  43.982  34.131  12.930
53967W        W25693  37.336   9.387   0.914
53968W        W25694  37.376  22.091  13.361
53969W        W25695  27.888   2.590   0.021
53970W        W25696  15.346  40.452  14.946
53971W        W25697   2.406  38.451  13.800
53972W        W25698  22.987  38.243   1.804
53973W        W25699   6.422   0.439  11.503
53974W        W25700   7.260   4.772   9.871
53975W        W25701  39.819  21.933   3.630
53976W        W25702  37.429  31.502   2.369
53977W        W25703  37.621  26.030   3.514
53978W        W25704   1.460  22.982   3.709
53979W        W25705  33.352  25.185   4.332
53980W        W25706  15.714  20.239   9.914
53981W        W25707  17.049  20.758  12.503
53982W        W25708  34.511  16.086  13.057
53983W        W25709  44.258  36.321  12.669
53984W        W25710  22.223   3.321  10.595
53985W        W25711  21.773  38.974   1.337
53986W        W25712  24.518  38.370  13.551
53987W        W25713  12.748  38.070   3.392
53988W        W25714   5.819  44.672  11.830
53989W        W25715   4.415  36.909   3.712
53990W        W25716   5.345  28.988   4.588
53991W        W25717   6.196  33.082  12.457
53992W        W25718  40.168   4.218  12.058
53993W        W25719  34.893  18.605   4.531
53994W        W25720  17.493   1.436  13.309
53995W        W25721  11.915  10.357  14.296
53996W        W25722   5.632   9.592   4.330
53997W        W25723  32.212  25.130   1.473
53998W        W25724  36.930  32.027   4.583
53999W        W25725  44.835  10.364  10.786
54000W        W25726  12.736   4.872   3.234
54001W        W25727  36.623  16.661  12.888
54002W        W25728  22.272  40.391   0.264
54003W        W25729  11.676  43.690   3.749
54004W        W25730   5.280  15.598   4.728
54005W        W25731  35.766  11.774  14.749
54006W        W25732   2.119  12.355   2.728
54007W        W25733  36.522  41.231  10.761
54008W        W25734   5.529   3.325  14.845
54009W        W25735  34.669  31.714   2.304
54010W        W25736   5.680  41.293   0.140
54011W        W25737   5.010  15.063  11.170
54012W        W25738   7.545  40.231  14.746
54013W        W25739  43.540  39.543  11.548
54014W        W25740   1.932   3.499  12.840
54015W        W25741  12.114   1.655  13.454
54016W        W25742  41.267  24.984   2.220
54017W        W25743   1.837  40.041   4.953
54018W        W25744  36.480  25.402  14.113
54019W        W25745  38.592  24.668   4.200
54020W        W25746  30.932  20.028  11.148
54021W        W25747  34.206   4.806   0.391
54022W        W25748  25.210  12.275   2.170
54023W        W25749  15.610  26.717   0.130
54024W        W25750  26.074  17.945  10.329
54025W        W25751  10.195  24.234  12.892
54026W        W25752  15.171   2.005  13.889
54027W        W25753  44.568  23.443   2.638
54028W        W25754  39.199   7.790   2.414
54029W        W25755   9.654   5.525  14.188
54030W        W25756  32.579  15.665  10.052
54031W        W25757  20.721  16.320   4.399
54032W        W25758  35.606  40.045  12.523
54033W        W25759  16.363  21.490  14.468
54034W        W25760  31.013  34.327  13.223
54035W        W25761  37.227   2.691   5.124
54036W        W25762  16.637  37.587  13.018
54037W        W25763   6.927  44.702   0.172
54038W        W25764  20.627  40.604  11.503
54039W        W25765   8.647  40.471  11.960
54040W        W25766   9.177  42.134  11.932
54041W        W25767  27.347  42.545   0.646
54042W        W25768  28.952  44.407   1.935
54043W        W25769  42.768  16.639  14.569
54044W        W25770  35.535   3.161   4.681
54045W        W25771  28.383   9.601  10.394
54046W        W25772   1.776   6.780   0.335
54047W        W25773  24.161  15.490   3.876
54048W        W25774  39.947  39.550   3.112
54049W        W25775  40.830   8.300   2.680
54050W        W25776  16.705  13.512   0.057
54051W        W25777   1.436  35.412   4.104
54052W        W25778  34.829  28.500   0.148
54053W        W25779  42.277  25.975   0.948
54054W        W25780  12.632  29.180   3.367
54055W        W25781   7.667  37.369   4.152
54056W        W25782  42.335  12.860  13.430
54057W        W25783   8.788  23.160   2.144
54058W        W25784  26.534  21.631   3.690
54059W        W25785  25.087  25.961  14.101
54060W        W25786  16.705   9.349  13.477
54061W        W25787  29.977   6.902  14.526
54062W        W25788  25.240  23.836  11.011
54063W        W25789  42.322  37.433   0.682
54064W        W25790  40.989  40.967   1.267
54065W        W25791   6.326   6.138   4.212
54066W        W25792  22.232  25.672   4.520
54067W        W25793  17.325   8.933   4.451
54068W        W25794  15.718  38.044   1.897
54069W        W25795  20.446  33.750  14.950
54070W        W25796  37.575  13.323  11.972
54071W        W25797  23.072  21.302   4.075
54072W        W25798  12.694  32.418   2.355
54073W        W25799  30.613  27.194  10.496
54074W        W25800  26.078  32.142   2.906
54075W        W25801   6.695  18.216   0.817
54076W        W25802   1.791  31.242   2.665
54077W        W25803   4.913  19.688   2.762
54078W        W25804  13.305   8.844  11.963
54079W        W25805  23.764   7.921   2.192
54080W        W25806  15.140   3.507  11.966
54081W        W25807  16.447   0.487   1.312
54082W        W25808  25.308  21.618   1.219
54083W        W25809  35.565  44.262  14.249
54084W        W25810  18.506   8.226  11.999
54085W        W25811  43.706  38.482  12.915
54086W        W25812  10.623  15.912   4.152
54087W        W25813  13.693  35.854   1.613
54088W        W25814  38.760  16.723  14.414
54089W        W25815   6.330  12.052  11.545
54090W        W25816  41.296  14.400  11.099
54091W        W25817  32.150  26.556   3.657
54092W        W25818  24.933  44.727   1.777
54093W        W25819  27.330   9.247  14.359
54094W        W25820  38.375  23.913   1.891
54095W        W25821  10.640  19.101  11.081
54096W        W25822   8.214   2.949  14.846
54097W        W25823  17.657  30.963   4.558
54098W        W25824  19.576  42.862   0.747
54099W        W25825   7.483   8.111   0.073
54100W        W25826  29.744  43.296  14.244
54101W        W25827  18.514  22.161  13.762
54102W        W25828  28.236   7.148   1.681
54103W        W25829  10.407  18.715  14.528
54104W        W25830  20.132  11.274  10.399
54105W        W25831  27.201  27.979  10.872
54106W        W25832  44.170   1.924  10.337
54107W        W25833  38.614  39.677   2.841
54108W        W25834  42.026   1.986  11.127
54109W        W25835  40.431  16.401  10.784
54110W        W25836   6.654   7.114  13.913
54111W        W25837  27.095  40.429  11.740
54112W        W25838   1.435  11.904   4.165
54113W        W25839   9.194  26.159   9.754
54114W        W25840  29.812  38.289  14.894
54115W        W25841   0.948  11.689   1.687
54116W        W25842  14.864  40.421   4.265
54117W        W25843   8.638  30.333   2.471
54118W        W25844   2.647  36.395  11.155
54119W        W25845   0.959  43.832   4.237
54120W        W25846  19.620   0.521   4.605
54121W        W25847  26.658   1.495  12.638
54122W        W25848   3.524  34.428   0.044
54123W        W25849  32.996   9.817   3.714
54124W        W25850  10.997  25.279  11.531
54125W        W25851  32.337  37.927  14.474
54126W        W25852   5.125  29.482  14.020
54127W        W25853  39.448  15.853  12.363
54128W        W25854  18.538   6.832  12.054
54129W        W25855  29.376  24.945  14.835
54130W        W25856  24.993   1.330   1.354
54131W        W25857  42.400  20.037   2.800
54132W        W25858  27.651  15.854  13.755
54133W        W25859  44.797  26.540  11.403
54134W        W25860   9.146   9.961  11.181
54135W        W25861  23.739   8.255  14.313
54136W        W25862  16.069   5.640   2.205
54137W        W25863  27.593  42.759   0.247
54138W        W25864  26.080  16.801   0.322
54139W        W25865  43.316  39.220  12.587
54140W        W25866  22.173  16.320   0.809
54141W        W25867   4.175  35.769  13.746
54142W        W25868  15.624  21.921  12.925
54143W        W25869  30.707  21.137  11.632
54144W        W25870  12.709  20.653   0.625
54145W        W25871  38.449  26.331   3.192
54146W        W25872  22.307  15.628   4.623
54147W        W25873  43.711  28.124  10.695
54148W        W25874   7.157  39.972   4.859
54149W        W25875  31.051  12.818  10.411
54150W        W25876   4.826  36.784  12.941
54151W        W25877   1.412  23.006  14.148
54152W        W25878  30.794  23.085   2.192
54153W        W25879  40.205   8.189   0.411
54154W        W25880   2.936  43.436   2.767
54155W        W25881  26.269  21.883   1.636
54156W        W25882  17.959  13.141   0.384
54157W        W25883  38.015  19.944  12.882
54158W        W25884  38.363   8.324   2.274
54159W        W25885  25.532  42.714  13.348
54160W        W25886  17.447   0.553  11.365
54161W        W25887  25.198  19.871   1.430
54162W        W25888  12.544   4.000   1.299
54163W        W25889  11.187  39.057   3.694
54164W        W25890  11.066  13.380  11.634
54165W        W25891  19.267  13.171  11.414
54166W        W25892  38.918  35.078  13.582
54167W        W25893   1.936  25.361  11.339
54168W        W25894  21.529  31.563  14.902
54169W        W25895  10.811  27.262   4.889
54170W        W25896  27.755  17.179   3.754
54171W        W25897  26.489  14.050   4.726
54172W        W25898  23.241  15.962  11.118
54173W        W25899   7.754  18.173   3.684
54174W        W25900  26.158  10.589   0.093
54175W        W25901  19.168  43.183   2.212
54176W        W25902  23.926  44.920  13.836
54177W        W25903  19.694  33.564   1.724
54178W        W25904  40.735  25.488   3.409
54179W        W25905  32.547  22.451   2.158
54180W        W25906  16.721  35.847   3.765
54181W        W25907  41.418  26.855  10.890
54182W        W25908  37.296  22.055  12.155
54183W        W25909  40.924  44.747  11.064
54184W        W25910   2.916  13.849   0.457
54185W        W25911  23.230  18.274   4.011
54186W        W25912  13.362   1.743  14.342
54187W        W25913   5.182   4.909  13.324
54188W        W25914   7.974  15.099  13.507
54189W        W25915  32.068  41.833   5.027
54190W        W25916   3.978  16.815   4.618
54191W        W25917  40.099   1.474   4.056
54192W        W25918  34.486  25.688  13.000
54193W        W25919  13.692  33.911   4.103
54194W        W25920  38.321  29.936   2.486
54195W        W25921   8.639  37.318  12.543
54196W        W25922  38.407  11.650   3.151
54197W        W25923   4.894   1.148   0.044
54198W        W25924  43.230  15.186   3.045
54199W        W25925   5.692   7.104   4.133
54200W        W25926  35.152  41.924   3.697
54201W        W25927  10.128  14.235   2.643
54202W        W25928  27.125   8.926  13.989
54203W        W25929  10.362  12.387  13.611
54204W        W25930  15.839  18.855  12.963
54205W        W25931  33.858  26.601   3.337
54206W        W25932   2.759  18.568  10.672
54207W        W25933  28.412  28.635  11.889
54208W        W25934  34.825  15.750   4.061
54209W        W25935  40.855   3.192   0.530
54210W        W25936  43.617  15.190   1.607
54211W        W25937  10.817   0.424  10.707
54212W        W25938  21.190  17.215   4.798
54213W        W25939  13.025  26.161   0.407
54214W        W25940  41.841  24.447  13.328
54215W        W25941   5.782  10.371   4.730
54216W        W25942   8.022  18.215   0.072
54217W        W25943  13.666   5.341  12.379
54218W        W25944  10.678  31.371   4.610
54219W        W25945  36.498   7.640   4.126
54220W        W25946  27.831   6.445  14.924
54221W        W25947   8.634  41.876   2.827
54222W        W25948  18.123   3.850  13.187
54223W        W25949  31.947  31.691   0.733
54224W        W25950  36.013  22.601  13.071
54225W        W25951  22.798  31.343   1.214
54226W        W25952  35.948  15.399   3.438
54227W        W25953   6.748  20.260  14.938
54228W        W25954  13.744  24.947  12.467
54229W        W25955   9.126  16.364  14.479
54230W        W25956  11.138  14.755   4.550
54231W        W25957  38.968   6.804   0.843
54232W        W25958  28.580  17.455   2.359
54233W        W25959   9.756  10.638  13.520
54234W        W25960  37.478  15.674   1.444
54235W        W25961  37.379  19.569  11.852
54236W        W25962  19.819  43.356  13.518
54237W        W25963  33.963  24.135  12.289
54238W        W25964  30.740  13.050  11.214
54239W        W25965  35.543  44.377   3.794
54240W        W25966  31.600  15.630   2.816
54241W        W25967   9.321  18.779   0.410
54242W        W25968  26.602  15.355   4.278
54243W        W25969   1.672   4.336   0.382
54244W        W25970   4.508  41.976  13.439
54245W        W25971  16.697  21.731  14.920
54246W        W25972  23.213   6.475   0.299
54247W        W25973  38.521   4.320  11.553
54248W        W25974   3.156  13.809  14.964
54249W        W25975  41.043   0.253   3.374
54250W        W25976  21.050   5.774  11.613
54251W        W25977   3.377   4.560  10.089
54252W        W25978   5.345   7.899   2.313
54253W        W25979   1.464   9.021   3.147
54254W        W25980  44.767  21.843  11.954
54255W        W25981  23.213  10.596   1.912
54256W        W25982  23.004  14.125  13.511
54257W        W25983  15.753  29.971  10.873
54258W        W25984  42.881   1.377   2.104
54259W        W25985  22.710  11.348   2.146
54260W        W25986   1.702   5.712  10.718
54261W        W25987   3.802  19.191   3.207
54262W        W25988  23.953   4.911   1.555
54263W        W25989  28.959  11.099  12.520
54264W        W25990  36.000  11.305   2.307
54265W        W25991   9.917  29.943  12.409
54266W        W25992   5.015  37.662   1.503
54267W        W25993  24.450  33.362   2.318
54268W        W25994  11.750  22.049  14.371
54269W        W25995  43.601  40.044   0.787
54270W        W25996  20.118  37.499  13.815
54271W        W25997  33.183  37.418   3.684
54272W        W25998   4.251  34.395   1.786
54273W        W25999  20.932  29.199  11.042
54274W        W26000  41.501  18.812   4.120
54275W        W26001  15.398   8.744   1.266
54276W        W26002  27.537  18.782   1.350
54277W        W26003   8.199   4.788   5.545
54278W        W26004  27.091  39.547   4.573
54279W        W26005   6.696  16.566   0.794
54280W        W26006  33.066  36.900   2.249
54281W        W26007  36.959  42.093   3.258
54282W        W26008  28.633  18.744   2.886
54283W        W26009   2.805   2.903   0.416
54284W        W26010  30.459   8.720   2.716
54285W        W26011  29.496  27.729  11.249
54286W        W26012  40.488  41.705   1.479
54287W        W26013  16.817  27.585  10.828
54288W        W26014  24.688   2.944   0.181
54289W        W26015  13.674  19.139  12.606
54290W        W26016  27.641  15.037  12.391
54291W        W26017  36.782  31.136   0.972
54292W        W26018   0.494  29.971  12.434
54293W        W26019  31.529  36.620  10.612
54294W        W26020  14.604  44.177  14.908
54295W        W26021  20.124  24.141   4.544
54296W        W26022   7.185  41.924  13.034
54297W        W26023  19.027  33.086   1.203
54298W        W26024  20.608  31.968   4.214
54299W        W26025  27.439  33.448   1.349
54300W        W26026   2.502  33.661   2.639
54301W        W26027  34.598   2.655  12.542
54302W        W26028  10.030  35.101  14.229
54303W        W26029  38.484  21.270  12.981
54304W        W26030  12.436  10.653  10.719
54305W        W26031   3.944  40.435  10.364
54306W        W26032  14.324  38.769   3.090
54307W        W26033  35.094  11.779   3.668
54308W        W26034  15.412  12.590  12.639
54309W        W26035  25.064   2.197  11.001
54310W        W26036  30.386  22.234  13.034
54311W        W26037  14.248  37.360   1.244
54312W        W26038  19.184  35.384   1.377
54313W        W26039   4.370  31.957   1.384
54314W        W26040  35.111   0.453   4.324
54315W        W26041  15.844  37.369   1.382
54316W        W26042  20.257  15.668  13.896
54317W        W26043  21.232  11.467  11.549
54318W        W26044   3.235  42.957   3.805
54319W        W26045  35.945  26.811   2.045
54320W        W26046   9.904   6.200   1.014
54321W        W26047  41.766  17.720  13.779
54322W        W26048  38.978  39.315   0.401
54323W        W26049   4.713  20.687   4.598
54324W        W26050  21.056  15.759  12.506
54325W        W26051  44.262  34.150  11.597
54326W        W26052  40.453  25.420  10.868
54327W        W26053   7.647  22.849  13.030
54328W        W26054  23.171  19.264   0.174
54329W        W26055  11.260  12.932   2.895
54330W        W26056  39.926  35.087   2.312
54331W        W26057  19.045   0.865   0.287
54332W        W26058  42.410   8.397  12.174
54333W        W26059  37.791  43.645  11.565
54334W        W26060  12.191  32.919   1.005
54335W        W26061  43.902   9.398   3.245
54336W        W26062   1.555   2.008   2.564
54337W        W26063  20.980  27.702   2.708
54338W        W26064  20.291  14.383   1.417
54339W        W26065  14.550   5.882  11.712
54340W        W26066  39.885  12.225  14.361
54341W        W26067   9.885  15.074  10.729
54342W        W26068  26.651  17.140  11.077
54343W        W26069  15.672   5.357   4.244
54344W        W26070  21.558  11.214   4.831
54345W        W26071  28.448  37.997   2.881
54346W        W26072  11.399  30.881   2.967
54347W        W26073  12.092  42.021  12.864
54348W        W26074   7.936   1.966  12.920
54349W        W26075   7.788   0.358  14.211
54350W        W26076  38.027  12.294  12.816
54351W        W26077  14.332  18.566   2.363
54352W        W26078  40.579   9.746   3.634
54353W        W26079  15.775  43.000  12.596
54354W        W26080  32.835  25.697   1.924
54355W        W26081   9.831  35.825   4.535
54356W        W26082   8.779  34.276   4.558
54357W        W26083   1.361  20.488  11.429
54358W        W26084  41.761  40.535  14.761
54359W        W26085  30.817  10.335  11.988
54360W        W26086   5.420   8.136   3.254
54361W        W26087  39.325  13.345  11.984
54362W        W26088   5.646  42.890   2.735
54363W        W26089  41.260  38.843   0.873
54364W        W26090  29.433   2.520  13.840
54365W        W26091  19.565  25.970  13.938
54366W        W26092  37.923   8.147   3.523
54367W        W26093   6.953  35.166   0.721
54368W        W26094  10.190  12.928   1.711
54369W        W26095  17.589   4.301  14.794
54370W        W26096   5.657  24.996  14.863
54371W        W26097  29.742   3.049   2.905
54372W        W26098  13.085  18.273   2.366
54373W        W26099   8.146  28.325  14.603
54374W        W26100  44.748  18.083   0.082
54375W        W26101  13.368  31.113  14.286
54376W        W26102  34.468  27.166   0.789
54377W        W26103  28.470   4.960   2.217
54378W        W26104  32.153  27.989  10.696
54379W        W26105  30.873  14.647   3.159
54380W        W26106  33.582  34.737   3.980
54381W        W26107   1.342  39.912   4.749
54382W        W26108  39.639   0.926  11.315
54383W        W26109  22.406  34.339   4.271
54384W        W26110  22.771  33.474   2.268
54385W        W26111   1.129  32.024   4.209
54386W        W26112  44.003  40.955   0.383
54387W        W26113  35.226  14.842  14.717
54388W        W26114  30.343   2.336  10.931
54389W        W26115  17.380  36.561  12.320
54390W        W26116  21.514  28.099  13.948
54391W        W26117   6.105   6.903   3.450
54392W        W26118   6.120   4.212  10.172
54393W        W26119  33.486   3.735  12.396
54394W        W26120  28.939   5.457   2.274
54395W        W26121  23.465  20.298   1.868
54396W        W26122  10.347  22.341  10.373
54397W        W26123  29.037   3.414  10.993
54398W        W26124  13.880   1.544  14.701
54399W        W26125  31.587  32.912   2.592
54400W        W26126  22.699  36.789   4.578
54401W        W26127  32.392  43.719  12.988
54402W        W26128  18.060  36.052  13.999
54403W        W26129  27.194  32.901  14.891
54404W        W26130   6.650   7.632   2.001
54405W        W26131   1.454   8.825  11.216
54406W        W26132  23.565  42.278   3.300
54407W        W26133   8.862  13.581  13.876
54408W        W26134  18.506   8.892   1.308
54409W        W26135  32.462  33.685  12.461
54410W        W26136  14.581  44.360   1.230
54411W        W26137  22.139  34.129  10.692
54412W        W26138  43.530   3.121  12.637
54413W        W26139  43.832  36.147  11.713
54414W        W26140   5.776  31.389   4.084
54415W        W26141  11.784  32.490   0.234
54416W        W26142  22.466  27.445   4.232
54417W        W26143  16.300  19.756   2.345
54418W        W26144   0.708  38.930   1.821
54419W        W26145  32.776  31.137   4.224
54420W        W26146  38.365  30.436  13.394
54421W        W26147  38.415  14.569   2.693
54422W        W26148  43.215  35.920   3.200
54423W        W26149  11.196  18.642  11.636
54424W        W26150   1.873   4.852   0.265
54425W        W26151  13.564   2.546  12.755
54426W        W26152  13.921  15.676   3.278
54427W        W26153   0.164  14.588   4.523
54428W        W26154  37.906  13.883  13.083
54429W        W26155   8.593  31.975  12.136
54430W        W26156   8.066  17.285  12.176
54431W        W26157  11.844   2.017   0.403
54432W        W26158   1.865   7.972  11.996
54433W        W26159   1.260  36.383  12.028
54434W        W26160  23.272  28.110   1.341
54435W        W26161  25.002   6.633   0.329
54436W        W26162  30.547  36.990  11.726
54437W        W26163  23.864   7.641   0.299
54438W        W26164   1.841  11.620   4.624
54439W        W26165  23.438  31.993   1.387
54440W        W26166  29.574  17.520  12.574
54441W        W26167   6.832   0.597   1.791
54442W        W26168   4.748   1.914   2.315
54443W        W26169  22.978  42.845  13.951
54444W        W26170  31.074  36.874   1.382
54445W        W26171  15.343  13.849   4.243
54446W        W26172   7.353   2.781  12.663
54447W        W26173  40.001  24.034  12.216
54448W        W26174  16.132  23.457   2.097
54449W        W26175   1.758   8.861  13.511
54450W        W26176  10.094  43.093   0.232
54451W        W26177  10.799  42.002   1.436
54452W        W26178  27.969  26.152  10.725
54453W        W26179  19.790  16.062   2.651
54454W        W26180   3.375  17.060   3.288
54455W        W26181  30.912  39.152  13.769
54456W        W26182   1.411   1.778  10.799
54457W        W26183  41.894  43.393  14.899
54458W        W26184  16.285  18.040  12.962
54459W        W26185  28.903   0.900   3.197
54460W        W26186  28.034   5.945   4.102
54461W        W26187  24.763  34.997  10.739
54462W        W26188   9.625  35.755  10.455
54463W        W26189  17.588  31.456  11.191
54464W        W26190  44.705  28.310   1.872
54465W        W26191  34.281  19.211   3.644
54466W        W26192   3.327  22.240   0.649
54467W        W26193  13.846  12.596   0.788
54468W        W26194  12.250  34.871  11.056
54469W        W26195  13.132  33.110   0.278
54470W        W26196  44.383  25.061   0.257
54471W        W26197  15.355  37.815  13.395
54472W        W26198  44.327  32.644   1.577
54473W        W26199  39.626  21.541  13.531
54474W        W26200  32.639   0.243   4.177
54475W        W26201  26.782  24.265   1.150
54476W        W26202   1.496  26.894   0.817
54477W        W26203  31.690  26.447  11.562
54478W        W26204  21.355  23.012  12.677
54479W        W26205  12.732  44.044  10.347
54480W        W26206   4.459  32.517  12.454
54481W        W26207  26.569   3.954  12.631
54482W        W26208  34.525   2.887   4.643
54483W        W26209  42.401   4.431  13.116
54484W        W26210  27.346  17.869   2.444
54485W        W26211   7.875  24.153   3.291
54486W        W26212  38.842  34.424   4.026
54487W        W26213   5.206  33.514  13.901
54488W        W26214  39.024  38.051   4.201
54489W        W26215  13.403  38.114  11.135
54490W        W26216  25.410  44.685  10.606
54491W        W26217  10.147   5.850   4.173
54492W        W26218  37.800  16.636   1.841
54493W        W26219  38.545  13.951   5.017
54494W        W26220  35.079   9.256   0.303
54495W        W26221  22.935  32.459   3.272
54496W        W26222  35.365  17.612   1.807
54497W        W26223   6.666   9.652  12.085
54498W        W26224  42.026  29.087   2.840
54499W        W26225   9.060  35.351   1.848
54500W        W26226  35.363  38.920   2.290
54501W        W26227  34.598   2.281  11.053
54502W        W26228  21.241   7.196   3.243
54503W        W26229  40.021   9.131  11.356
54504W        W26230  35.388   3.861  14.829
54505W        W26231  16.861  19.367   4.176
54506W        W26232   6.801  17.767   2.644
54507W        W26233  36.630  43.858   4.683
54508W        W26234   7.908  16.700   3.730
54509W        W26235  14.536  15.105   2.868
54510W        W26236  24.504  15.160  11.573
54511W        W26237  32.138  28.631   2.614
54512W        W26238  24.966  33.936   0.011
54513W        W26239  42.956  34.980   4.558
54514W        W26240  15.733   0.516   2.777
54515W        W26241   7.733  11.194   0.398
54516W        W26242  35.106   0.332   2.729
54517W        W26243  24.661  14.607   4.632
54518W        W26244  12.655   6.489   1.158
54519W        W26245   7.672   5.592  14.199
54520W        W26246  23.099   8.776  13.956
54521W        W26247  23.498  12.691  11.879
54522W        W26248   8.587  35.848   4.534
54523W        W26249  27.478  35.917  14.544
54524W        W26250   1.092  27.878  12.473
54525W        W26251   6.764  44.432   1.096
54526W        W26252  33.068  10.389  14.606
54527W        W26253  10.500  19.589  13.867
54528W        W26254  34.634  43.317  14.400
54529W        W26255  31.098   7.959  12.367
54530W        W26256  39.253  21.265   1.774
54531W        W26257  33.130  36.050   1.978
54532W        W26258  39.499  33.590   3.975
54533W        W26259  27.763  12.326   3.124
54534W        W26260  30.890  23.727   3.257
54535W        W26261   0.333  23.735  14.909
54536W        W26262  35.630  44.960   3.178
54537W        W26263   5.901  39.330  14.322
54538W        W26264  41.901  14.103  12.450
54539W        W26265   0.471  11.527  13.359
54540W        W26266  35.278  15.887  13.909
54541W        W26267   9.851  24.259   4.127
54542W        W26268  30.412  16.858  14.411
54543W        W26269   5.905  42.043   2.288
54544W        W26270  24.587  38.885  13.354
54545W        W26271  30.884  19.321   1.233
54546W        W26272   4.419   8.923   1.334
54547W        W26273  40.407   6.756   3.371
54548W        W26274  19.287  16.803  10.615
54549W        W26275  42.602  15.326  11.571
54550W        W26276   9.137  34.663   3.742
54551W        W26277  10.794   2.747   3.915
54552W        W26278   0.976  22.747   0.771
54553W        W26279  20.765   2.907  14.305
54554W        W26280   5.875  41.843  11.042
54555W        W26281  17.796  10.358   0.481
54556W        W26282  43.453  30.824  13.544
54557W        W26283  12.554   2.440  11.943
54558W        W26284   4.918  31.910  14.295
54559W        W26285  20.090   0.996   1.296
54560W        W26286  30.030  39.764   1.381
54561W        W26287  43.164  32.309  14.390
54562W        W26288  23.535   6.875  11.634
54563W        W26289  34.002   5.880  13.478
54564W        W26290   7.219  10.742   0.834
54565W        W26291   1.516   5.747   3.180
54566W        W26292   0.079  37.518  12.878
54567W        W26293  35.465   7.716  11.898
54568W        W26294  12.824  23.623  14.029
54569W        W26295  39.289  37.424  11.744
54570W        W26296  17.783  30.776   1.394
54571W        W26297  29.718   8.408  12.448
54572W        W26298  29.444   3.403  14.318
54573W        W26299   0.949  25.716   1.359
54574W        W26300  32.006  10.794   1.851
54575W        W26301  12.468  31.219  12.759
54576W        W26302  19.638  28.176  13.496
54577W        W26303  44.284  44.208   4.684
54578W        W26304  13.293  25.994  10.699
54579W        W26305  34.371  44.019  12.539
54580W        W26306  15.219  21.685  12.703
54581W        W26307  31.371  28.281   4.082
54582W        W26308  34.362  23.831  10.471
54583W        W26309  25.022   9.793  14.513
54584W        W26310  12.766  13.734  13.509
54585W        W26311   0.974  37.494   0.003
54586W        W26312  26.986  26.894   0.023
54587W        W26313  13.119  17.592   1.210
54588W        W26314  32.017  17.172  10.868
54589W        W26315  40.950  27.039  10.700
54590W        W26316   9.245  26.539  12.994
54591W        W26317  40.939  14.459  12.953
54592W        W26318  18.290  27.844  13.451
54593W        W26319  17.967   5.779   0.836
54594W        W26320  40.408  31.837   0.299
54595W        W26321  26.881  39.995   1.294
54596W        W26322  36.326  24.502  10.663
54597W        W26323   0.992  28.927  14.529
54598W        W26324  20.718  41.578   0.231
54599W        W26325  16.316   6.875   4.608
54600W        W26326  23.533  29.577  14.096
54601W        W26327   7.690  25.157   4.605
54602W        W26328  18.564   0.270   2.162
54603W        W26329  14.845   3.821  13.012
54604W        W26330  35.939   2.789  14.396
54605W        W26331  32.371  15.201  11.894
54606W        W26332  37.403  42.839  14.473
54607W        W26333  11.148  43.188  12.421
54608W        W26334  43.807  28.618   3.074
54609W        W26335  27.321  29.896  12.009
54610W        W26336  43.366  44.334  11.974
54611W        W26337  18.113  19.474   3.716
54612W        W26338  28.067  29.986   4.902
54613W        W26339  11.646  24.797  14.791
54614W        W26340  14.016  24.042  11.186
54615W        W26341  18.785   8.109   2.653
54616W        W26342  20.658  10.578   1.663
54617W        W26343   3.858  28.096  11.815
54618W        W26344  26.129   4.281  14.836
54619W        W26345  32.657   3.751   1.010
54620W        W26346  22.968  44.378   1.883
54621W        W26347   8.125  20.258  12.109
54622W        W26348  36.562  25.283  12.115
54623W        W26349  15.336  36.491   0.414
54624W        W26350  36.021  14.093  11.165
54625W        W26351  36.405   8.600   9.583
54626W        W26352  11.333  11.041  12.543
54627W        W26353  11.664  15.414   0.883
54628W        W26354  16.283   5.370   4.552
54629W        W26355  21.859   0.742   0.959
54630W        W26356  29.873  10.353   2.709
54631W        W26357   3.226   5.886  12.487
54632W        W26358  42.776  10.124   4.515
54633W        W26359  34.532  26.147   3.892
54634W        W26360  10.448  28.157  11.248
54635W        W26361   7.063   0.024  14.763
54636W        W26362  30.624  31.190  11.015
54637W        W26363  13.225  15.402  12.926
54638W        W26364   9.076  32.570  13.317
54639W        W26365   9.321  44.019   2.773
54640W        W26366  25.916  28.073  14.982
54641W        W26367  16.109  14.623  11.013
54642W        W26368  22.243  13.743  13.325
54643W        W26369  23.762   1.273  14.726
54644W        W26370   2.281  44.016  13.052
54645W        W26371  16.579  23.494   3.329
54646W        W26372  32.162   3.428   0.943
54647W        W26373  27.043  23.684  14.434
54648W        W26374  11.355  34.723   0.378
54649W        W26375  16.105  42.444  12.058
54650W        W26376  37.977  42.306   0.300
54651W        W26377  22.530   9.601   3.098
54652W        W26378  19.621  16.147   1.285
54653W        W26379  39.878  29.166   0.379
54654W        W26380   2.314  40.789   3.178
54655W        W26381  16.545  10.190  11.581
54656W        W26382  13.815  12.862  13.622
54657W        W26383  43.023  19.805  11.085
54658W        W26384   9.929   3.262   3.753
54659W        W26385  44.891  15.383  14.023
54660W        W26386  29.652  29.393  11.979
54661W        W26387   8.197  29.511   4.293
54662W        W26388  26.488  27.723  13.123
54663W        W26389  16.152  12.642   4.600
54664W        W26390  36.533  10.096  11.222
54665W        W26391   1.414  44.896   0.244
54666W        W26392   9.558  32.460  11.236
54667W        W26393   3.398  23.597  12.240
54668W        W26394  21.068   5.710   3.841
54669W        W26395  22.672  18.262  14.811
54670W        W26396  17.642   0.648   1.817
54671W        W26397   0.200  17.104  12.189
54672W        W26398  42.491   4.314   4.736
54673W        W26399   1.174  42.927  14.957
54674W        W26400  34.326  44.510  12.391
54675W        W26401   6.704  11.314  10.624
54676W        W26402  24.680   3.203  11.669
54677W        W26403  32.197   7.995   0.758
54678W        W26404   8.616  32.059  12.673
54679W        W26405  44.487  27.510   0.219
54680W        W26406  15.528  10.323   1.684
54681W        W26407   8.255  24.953  10.667
54682W        W26408  23.060   8.817   3.345
54683W        W26409   4.268  15.849  12.838
54684W        W26410  26.100  25.737   2.744
54685W        W26411   7.864  15.261  13.038
54686W        W26412  36.660  35.962   2.823
54687W        W26413  21.527  34.889  14.481
54688W        W26414  41.674  29.982  10.376
54689W        W26415  11.972  42.299   0.438
54690W        W26416  37.794  30.738  11.470
54691W        W26417  19.978  37.591   5.186
54692W        W26418  31.771  22.215   2.291
54693W        W26419   1.861   4.684  11.609
54694W        W26420  24.975  22.930   3.120
54695W        W26421   1.831  20.635  13.146
54696W        W26422  19.545  16.125  12.403
54697W        W26423  22.970   7.037   1.711
54698W        W26424  31.099  24.657  14.263
54699W        W26425  43.863  40.278   2.272
54700W        W26426  32.859  33.404  12.677
54701W        W26427  19.293   4.727  11.437
54702W        W26428   6.226  11.229   4.523
54703W        W26429  16.111  39.034   3.596
54704W        W26430  32.560  31.595   2.955
54705W        W26431   7.934  41.861  13.533
54706W        W26432  23.127  39.919   3.176
54707W        W26433  36.821  31.759   3.063
54708W        W26434   2.337  26.749  14.241
54709W        W26435  38.934  34.713  13.083
54710W        W26436   9.183  29.186  14.761
54711W        W26437  25.544  44.843   4.480
54712W        W26438  31.239  10.184   2.450
54713W        W26439  15.168  22.014   1.028
54714W        W26440  30.736  12.026  12.052
54715W        W26441  43.426   5.780  11.563
54716W        W26442  32.882  13.847  13.431
54717W        W26443  10.786  35.338   9.407
54718W        W26444  44.459  23.107  14.104
54719W        W26445  37.847  20.133   4.748
54720W        W26446  44.724  22.573   2.747
54721W        W26447   4.830   3.841   1.492
54722W        W26448  34.513  14.926   0.776
54723W        W26449  24.338  27.154  10.746
54724W        W26450  28.189  27.956   3.160
54725W        W26451  10.761   3.788   4.490
54726W        W26452   0.347   8.891  14.496
54727W        W26453  15.672  14.103   1.349
54728W        W26454  38.775  15.629   2.292
54729W        W26455  16.665  28.607  14.422
54730W        W26456  14.637  40.060  14.395
54731W        W26457   1.468  44.744   2.280
54732W        W26458  42.187  30.419  11.033
54733W        W26459  33.946  37.527  10.513
54734W        W26460  10.868  34.119   0.882
54735W        W26461   3.443  29.077   0.020
54736W        W26462  40.616   1.985   4.610
54737W        W26463  18.331  35.982  10.795
54738W        W26464  40.222  17.541   3.238
54739W        W26465  21.585  28.524  11.908
54740W        W26466   2.353  25.152   2.012
54741W        W26467   8.808  23.736  10.236
54742W        W26468  11.222  10.882   0.893
54743W        W26469  41.088  34.532   1.370
54744W        W26470   3.781  28.699   0.121
54745W        W26471  36.088  21.796   3.913
54746W        W26472  42.812  38.442   2.469
54747W        W26473  33.858  29.897   1.428
54748W        W26474  29.721  43.005  10.392
54749W        W26475  23.033  16.181   4.820
54750W        W26476  35.674  24.093   4.682
54751W        W26477  20.123   4.204  11.567
54752W        W26478  27.745  11.288  13.959
54753W        W26479  43.958  18.442  12.671
54754W        W26480  41.781  17.402  14.900
54755W        W26481  43.271  31.318   1.370
54756W        W26482  14.266  20.484  11.106
54757W        W26483  17.459  33.142  12.507
54758W        W26484  30.530  36.859   2.841
54759W        W26485  11.135  14.499   0.335
54760W        W26486  11.862  33.902  11.671
54761W        W26487  44.768  24.300  14.497
54762W        W26488   4.677  23.118   3.336
54763W        W26489   5.468  44.355  11.083
54764W        W26490  38.118  21.047  14.272
54765W        W26491  20.691  32.717  14.089
54766W        W26492  27.575  40.283  11.549
54767W        W26493  35.018  20.788  13.069
54768W        W26494  12.326  40.323  10.644
54769W        W26495  12.205  18.094   3.305
54770W        W26496  24.717  11.418   3.844
54771W        W26497  15.777  44.399   0.492
54772W        W26498  28.587  20.247   1.907
54773W        W26499  12.203  34.164   0.333
54774W        W26500  32.362  38.463   2.150
54775W        W26501  24.134   8.059  12.536
54776W        W26502  32.575  12.772   3.684
54777W        W26503  30.146  23.912   4.585
54778W        W26504   1.739  25.989   1.842
54779W        W26505  30.131  14.228   2.212
54780W        W26506  13.759   0.552  11.672
54781W        W26507  42.340   8.116  12.604
54782W        W26508  39.452  35.808   3.115
54783W        W26509  22.832  21.045   1.362
54784W        W26510  24.819  44.005   2.761
54785W        W26511  26.339  37.803   4.578
54786W        W26512   6.143  32.943   4.036
54787W        W26513  27.126  13.206   4.639
54788W        W26514  39.980   0.569  14.732
54789W        W26515  40.178  15.021   0.207
54790W        W26516  25.276  44.241  14.641
54791W        W26517  43.381   5.748   2.756
54792W        W26518  18.844  24.560  12.934
54793W        W26519  34.838  44.968   3.657
54794W        W26520  13.415  21.274  12.866
54795W        W26521  14.943  43.459   3.754
54796W        W26522   2.196  43.986   4.088
54797W        W26523  26.635  43.771   3.380
54798W        W26524  33.632   2.322  13.415
54799W        W26525  36.410  18.647  12.024
54800W        W26526  12.650  17.173   3.789
54801W        W26527  42.897  14.064  14.631
54802W        W26528   0.358   4.147   1.762
54803W        W26529  35.459  36.382   4.198
54804W        W26530  42.468  12.125   2.898
54805W        W26531   9.821  16.873   3.832
54806W        W26532  21.613  34.976  14.988
54807W        W26533  13.309  14.372   9.954
54808W        W26534  44.254  39.597   1.317
54809W        W26535  22.063  39.342  14.677
54810W        W26536  14.455  10.439   0.486
54811W        W26537  41.506  18.730   1.159
54812W        W26538  39.382   2.440  13.337
54813W        W26539  37.279   1.656  12.441
54814W        W26540  43.973  27.193   4.628
54815W        W26541  30.427   6.788   4.361
54816W        W26542  14.268  32.589  12.006
54817W        W26543  36.450  31.354  14.450
54818W        W26544  14.597  39.774  14.832
54819W        W26545  30.565  17.117  14.874
54820W        W26546   6.887  20.135  10.530
54821W        W26547  25.180   0.205  14.260
54822W        W26548   0.708   1.344   3.828
54823W        W26549  19.188  33.203   2.839
54824W        W26550  16.589   0.726  10.631
54825W        W26551  27.002   9.416  13.017
54826W        W26552  41.146  36.573  13.290
54827W        W26553  43.280  33.163   0.295
54828W        W26554   9.115   4.474   4.299
54829W        W26555  27.577  22.967   4.095
54830W        W26556   6.324  22.828   4.635
54831W        W26557  16.801  42.946  12.930
54832W        W26558  12.127  20.066   1.442
54833W        W26559  42.028  20.568  13.055
54834W        W26560   1.911  23.644  12.408
54835W        W26561  33.928  38.067  10.521
54836W        W26562  33.671  37.481  13.108
54837W        W26563  12.677   8.908   1.721
54838W        W26564  23.903  15.715   0.870
54839W        W26565  19.772  15.821   3.120
54840W        W26566  44.685  41.744   2.813
54841W        W26567  27.573  10.538  14.352
54842W        W26568  32.891  40.016   1.731
54843W        W26569  39.560   9.209   4.220
54844W        W26570   7.086  42.231  14.319
54845W        W26571   5.773  33.965   4.599
54846W        W26572  22.120  40.900  14.517
54847W        W26573  20.929  28.577   1.506
54848W        W26574  12.214   1.408   2.806
54849W        W26575  15.621  31.871   1.758
54850W        W26576  41.985  43.951  12.076
54851W        W26577  29.114  15.598  13.221
54852W        W26578  44.469  42.560  14.848
54853W        W26579  20.601  33.332  14.232
54854W        W26580  36.461  18.112  14.827
54855W        W26581  16.632  34.488  10.628
54856W        W26582  16.164  10.024   3.818
54857W        W26583  14.671  23.099  14.486
54858W        W26584  18.813   3.456  14.917
54859W        W26585   1.567  31.118  14.893
54860W        W26586  31.009   0.746   0.376
54861W        W26587  28.509  34.040  10.648
54862W        W26588  43.851  18.149  14.359
54863W        W26589  14.932   8.677  12.102
54864W        W26590  25.590  41.903   2.940
54865W        W26591  31.034  36.434   1.655
54866W        W26592  33.652  18.850  11.634
54867W        W26593  32.706   0.871  11.272
54868W        W26594  34.461   5.655   1.986
54869W        W26595  39.329  23.085   4.586
54870W        W26596  36.777  31.183  10.517
54871W        W26597   5.806   0.902   2.156
54872W        W26598  11.662  32.839   2.342
54873W        W26599  32.416  23.586   0.003
54874W        W26600  26.198  19.215  11.085
54875W        W26601  42.101   3.007   0.053
54876W        W26602  29.166  31.665   4.235
54877W        W26603  34.204  24.198   0.398
54878W        W26604   0.558  23.573  14.045
54879W        W26605  24.203  20.566  12.980
54880W        W26606  24.977  11.207  13.433
54881W        W26607  25.475   2.532  11.110
54882W        W26608   4.046  25.769  12.428
54883W        W26609   9.364  22.528   2.668
54884W        W26610  14.103  42.797  13.019
54885W        W26611   7.580   7.610   0.249
54886W        W26612  36.064  16.654  10.443
54887W        W26613  28.974   6.153  12.329
54888W        W26614  14.177  39.158   5.052
54889W        W26615  18.205  11.216   2.409
54890W        W26616   2.239  17.522   1.252
54891W        W26617  31.378   2.641  13.017
54892W        W26618  36.563  35.001   0.268
54893W        W26619  29.060  11.777   4.579
54894W        W26620  25.773  24.016  14.478
54895W        W26621   0.468  13.580  14.277
54896W        W26622  41.056   3.686  13.346
54897W        W26623   3.679  35.090   3.281
54898W        W26624  36.864   5.360  12.587
54899W        W26625  36.793  24.960  11.071
54900W        W26626   5.352   0.748   2.413
54901W        W26627  38.065   1.441   0.810
54902W        W26628  20.082  21.048   2.117
54903W        W26629  27.595  37.822   4.390
54904W        W26630  15.552  25.582   1.428
54905W        W26631  21.167  15.742  10.385
54906W        W26632  10.763  32.947  11.328
54907W        W26633  34.110  30.113  12.139
54908W        W26634  13.079   3.879  14.181
54909W        W26635  29.238   9.359  14.875
54910W        W26636  13.601  11.157   1.650
54911W        W26637  41.879  26.147   2.274
54912W        W26638  16.527   5.525  14.385
54913W        W26639  32.081  42.847  12.389
54914W        W26640   5.226  29.742  11.185
54915W        W26641   4.740   2.426   2.307
54916W        W26642  15.923  38.611  13.791
54917W        W26643  25.771  44.125   5.211
54918W        W26644   7.098  16.457  12.072
54919W        W26645  29.065  41.776   0.864
54920W        W26646  20.474   4.176  12.389
54921W        W26647  28.060  23.745   2.894
54922W        W26648  29.942  21.281   2.334
54923W        W26649  29.443  20.616   1.362
54924W        W26650  30.911   4.672   1.848
54925W        W26651  12.134  29.119  11.223
54926W        W26652  44.703  28.908  14.821
54927W        W26653  10.613  36.378   3.767
54928W        W26654  10.313   9.206   0.919
54929W        W26655   6.009  36.516  13.502
54930W        W26656  33.367   2.970  11.131
54931W        W26657  20.898  28.582  11.677
54932W        W26658  25.618   1.897   4.102
54933W        W26659  20.548   8.383   2.231
54934W        W26660   8.142  14.269  14.981
54935W        W26661  34.583  24.044  11.643
54936W        W26662  36.417  33.101   0.820
54937W        W26663  31.462  18.237   1.421
54938W        W26664  24.451  14.796   4.156
54939W        W26665  17.321  18.118   2.304
54940W        W26666  15.596  19.436  11.765
54941W        W26667   9.878  37.796  11.638
54942W        W26668  12.723  25.987   0.811
54943W        W26669  28.291  37.642   4.163
54944W        W26670  41.765  43.538   4.199
54945W        W26671   0.703  21.186   3.249
54946W        W26672  27.356  36.947   2.263
54947W        W26673   8.414   5.588  14.019
54948W        W26674   5.335  16.928   1.778
54949W        W26675  39.017  19.953  12.632
54950W        W26676  36.596  22.673   0.368
54951W        W26677  17.497  19.042   3.367
54952W        W26678  18.433  41.586   1.490
54953W        W26679  29.650   5.953   0.665
54954W        W26680  33.684  12.674   4.200
54955W        W26681  35.479  40.538  12.425
54956W        W26682  27.948  17.614  12.398
54957W        W26683  33.144  21.635  13.434
54958W        W26684  32.183   0.868  11.207
54959W        W26685   9.605  14.632   1.789
54960W        W26686  18.418  19.578  12.626
54961W        W26687  21.106  13.723   0.833
54962W        W26688  11.380  13.976   2.697
54963W        W26689  24.994  21.943   3.276
54964W        W26690  11.225  32.857  13.144
54965W        W26691  21.419  26.684  10.171
54966W        W26692  23.232  41.188  11.529
54967W        W26693  35.448  32.580   0.346
54968W        W26694  39.459  13.880  13.697
54969W        W26695  26.206  31.007   3.336
54970W        W26696  15.130  41.019  13.794
54971W        W26697   6.347  36.613   4.594
54972W        W26698  14.589  19.097   3.798
54973W        W26699   7.814   0.538   4.335
54974W        W26700  44.070   0.016  11.044
54975W        W26701  33.203   0.899  11.175
54976W        W26702  15.173  27.830  13.014
54977W        W26703   8.981   0.852  12.986
54978W        W26704  27.855   4.804   4.182
54979W        W26705   1.647  13.184  13.629
54980W        W26706  35.087  41.555   2.421
54981W        W26707  19.136  25.681  11.014
54982W        W26708  28.433  10.822   3.231
54983W        W26709  41.240  18.507  12.045
54984W        W26710  34.552  40.745   3.587
54985W        W26711  32.561  14.535  12.519
54986W        W26712  40.427  30.379   1.428
54987W        W26713  32.210   0.059  13.896
54988W        W26714  34.130   1.762   1.950
54989W        W26715  28.687   2.134   1.251
54990W        W26716  15.726  16.637   3.276
54991W        W26717  32.125  42.898  14.841
54992W        W26718   6.146   4.708  10.079
54993W        W26719  25.931  18.074   3.646
54994W        W26720  10.709  42.733   4.666
54995W        W26721  12.331   3.219  13.402
54996W        W26722   0.383  43.968  12.284
54997W        W26723  10.735   2.116  12.153
54998W        W26724   3.501  11.202  11.160
54999W        W26725  10.026  29.669   3.418
55000W        W26726  37.381  29.955  10.497
55001W        W26727  25.351   3.248   4.238
55002W        W26728   2.110   0.374  12.422
55003W        W26729   4.714   3.166  13.376
55004W        W26730  22.971   9.255  14.775
55005W        W26731   9.237  44.555  11.974
55006W        W26732  38.029  29.707   3.759
55007W        W26733  43.719  19.763   3.718
55008W        W26734   5.437  26.906   3.056
55009W        W26735  23.631  28.105   2.608
55010W        W26736  22.892   4.002   3.610
55011W        W26737  38.545   3.883  12.581
55012W        W26738  38.322  15.117  10.676
55013W        W26739  38.904  20.831  13.030
55014W        W26740  13.229  23.924   2.629
55015W        W26741  16.312  29.575   3.140
55016W        W26742  15.484  17.298   0.096
55017W        W26743  22.487   1.189  12.906
55018W        W26744  39.046  33.706   1.218
55019W        W26745  36.079   6.148   3.313
55020W        W26746  43.830  12.662  12.509
55021W        W26747  38.941  28.026   1.531
55022W        W26748  44.150  16.336  14.577
55023W        W26749   0.579  17.748   0.046
55024W        W26750   9.428  35.753  14.261
55025W        W26751  39.375  12.654   4.364
55026W        W26752  39.877   5.598  14.078
55027W        W26753  32.620  39.465  14.754
55028W        W26754  20.130  35.894   2.838
55029W        W26755  11.943  34.944  13.817
55030W        W26756  10.125  26.947   1.156
55031W        W26757  29.152   2.316   4.914
55032W        W26758   7.631  30.612  14.349
55033W        W26759  11.184  20.001   1.028
55034W        W26760  31.911   9.598   1.364
55035W        W26761  31.738  17.235   1.356
55036W        W26762  28.148   2.704   1.805
55037W        W26763   9.890  33.353   4.558
55038W        W26764   8.822  32.993  10.270
55039W        W26765  17.122  30.722  10.951
55040W        W26766  17.726  33.211   4.960
55041W        W26767  40.189  13.346  14.909
55042W        W26768  16.722   0.038  14.862
55043W        W26769  29.718  28.123   4.596
55044W        W26770   2.603  40.955  14.882
55045W        W26771  25.986  42.287   4.814
55046W        W26772  27.640  37.354   4.181
55047W        W26773  29.187  36.401   4.861
55048W        W26774  11.926  26.634  14.032
55049W        W26775  25.713  23.618   1.955
55050W        W26776  18.521  22.003  12.428
55051W        W26777  32.947   0.250   0.492
55052W        W26778  12.347   2.204   2.905
55053W        W26779  40.820   1.707   3.424
55054W        W26780   6.287  30.614  13.057
55055W        W26781  11.415  20.552  10.597
55056W        W26782  30.016  42.874  14.054
55057W        W26783   8.599  17.841  13.039
55058W        W26784  10.589  36.590  14.635
55059W        W26785  16.262   5.229   3.667
55060W        W26786   2.823  38.853  13.677
55061W        W26787   4.239  39.601   2.176
55062W        W26788  14.071   3.827   2.470
55063W        W26789  29.417   7.155  11.203
55064W        W26790  14.882  14.171  10.717
55065W        W26791  15.216  39.030   3.094
55066W        W26792  27.248  15.917  12.985
55067W        W26793  30.863   5.290   2.356
55068W        W26794  10.401  22.676  13.482
55069W        W26795  20.730  15.677  14.084
55070W        W26796   0.430  22.442  12.577
55071W        W26797  12.678  21.857   4.272
55072W        W26798  36.531   5.783   2.937
55073W        W26799  15.575   6.894  11.374
55074W        W26800  20.348  42.672  13.514
55075W        W26801  38.860  33.977   3.338
55076W        W26802   9.238  21.932   1.218
55077W        W26803   2.305   6.341  14.263
55078W        W26804  42.050  37.753   0.999
55079W        W26805  28.445   1.830   1.686
55080W        W26806  39.505  29.130   3.689
55081W        W26807  24.109  31.432  12.880
55082W        W26808  15.163   6.684  11.663
55083W        W26809  35.047   3.679   3.613
55084W        W26810  39.541  44.503  12.086
55085W        W26811  36.364  20.783   1.707
55086W        W26812  43.070  38.668  12.030
55087W        W26813  24.733   4.578   0.989
55088W        W26814  28.431  43.338   0.357
55089W        W26815  18.508  24.960   4.920
55090W        W26816   8.946   1.704   4.097
55091W        W26817  35.270   1.845  13.315
55092W        W26818  27.473  29.627   1.294
55093W        W26819   7.151  13.522  14.156
55094W        W26820  30.140  33.424  11.123
55095W        W26821  23.421  41.786   2.603
55096W        W26822  28.645  19.265  13.384
55097W        W26823  37.488   0.245   4.157
55098W        W26824  44.265  35.332  12.884
55099W        W26825  26.568  20.552  11.009
55100W        W26826  13.203  17.822  12.452
55101W        W26827  37.051  37.415  14.913
55102W        W26828  44.684  16.769  14.924
55103W        W26829   1.777  10.962  11.668
55104W        W26830  29.453   6.734   4.439
55105W        W26831  12.402   5.115  12.063
55106W        W26832  35.090   0.988  14.783
55107W        W26833  26.627  20.050   3.208
55108W        W26834  21.188  16.241  12.253
55109W        W26835  10.883  31.647  10.672
55110W        W26836   8.964   1.913  13.126
55111W        W26837  29.516  27.695  12.566
55112W        W26838  22.229  38.984   4.642
55113W        W26839  10.736  27.747   1.758
55114W        W26840   3.845  26.789   2.063
55115W        W26841  15.586  42.713   2.313
55116W        W26842  24.722  22.756  12.136
55117W        W26843  26.688  35.528  11.548
55118W        W26844  24.746  35.779   4.775
55119W        W26845  12.154  25.302  12.044
55120W        W26846  43.761  16.504   2.532
55121W        W26847  39.111  38.865   3.696
55122W        W26848   7.658  21.188   0.380
55123W        W26849  28.100  37.495   2.263
55124W        W26850   5.502  35.103   2.718
55125W        W26851  21.436  26.411   2.571
55126W        W26852  34.915   3.772  11.204
55127W        W26853  27.383  30.656  11.528
55128W        W26854  30.979  22.274   1.456
55129W        W26855   7.762  42.296  13.323
55130W        W26856  32.643  42.141   4.504
55131W        W26857   3.476  39.817   1.717
55132W        W26858   3.733   5.451  14.494
55133W        W26859  19.871  13.713  10.934
55134W        W26860  25.428  43.275  10.721
55135W        W26861  40.410   8.434  12.328
55136W        W26862  17.050  18.620  12.047
55137W        W26863  24.573  43.948   4.578
55138W        W26864  39.308  29.453   2.771
55139W        W26865  23.101  31.676  14.831
55140W        W26866  36.882  35.033  11.536
55141W        W26867   6.696  39.502  11.578
55142W        W26868  14.288  30.951   1.832
55143W        W26869  24.774  12.221   2.458
55144W        W26870  41.907  12.732  14.738
55145W        W26871  11.467  29.269  14.209
55146W        W26872  18.892  43.960   3.223
55147W        W26873  11.424   5.124   3.111
55148W        W26874  21.685   4.759   4.558
55149W        W26875   2.961   1.956   2.051
55150W        W26876  37.553  20.546  12.376
55151W        W26877   9.129  26.322   5.130
55152W        W26878   1.340  30.517   1.482
55153W        W26879  41.536  22.609   2.681
55154W        W26880  16.634  19.826   4.498
55155W        W26881  14.272  28.215  13.399
55156W        W26882  12.728   5.655  10.750
55157W        W26883  28.194  40.977  12.573
55158W        W26884  24.415  24.155   0.931
55159W        W26885  24.450  19.656   0.432
55160W        W26886  36.488   5.935  14.183
55161W        W26887  22.074  26.679   4.341
55162W        W26888  22.116  17.252   4.163
55163W        W26889  23.291  31.444   1.317
55164W        W26890   5.738  15.161   2.185
55165W        W26891  23.572   1.293   4.640
55166W        W26892  29.673   6.658  12.846
55167W        W26893  21.439  16.397  14.398
55168W        W26894   4.212  10.603  10.691
55169W        W26895  33.450  42.033  13.448
55170W        W26896  40.016  20.086   4.245
55171W        W26897  21.410   5.815  13.093
55172W        W26898  38.928  29.186   0.406
55173W        W26899  17.195  44.734  14.845
55174W        W26900  33.686  16.089  12.921
55175W        W26901  28.040  38.325  13.461
55176W        W26902  11.928  37.054  14.408
55177W        W26903  44.292  44.116   4.112
55178W        W26904  18.589  41.192   0.450
55179W        W26905   1.177  23.197  11.562
55180W        W26906  24.469  26.185   5.022
55181W        W26907   7.436   4.859   4.918
55182W        W26908   7.372  27.124  13.965
55183W        W26909  30.214  31.414   1.452
55184W        W26910   3.782  22.113   0.357
55185W        W26911  10.675  37.980   4.124
55186W        W26912  21.820  28.544   2.836
55187W        W26913  32.468  40.952  10.228
55188W        W26914  35.178   7.281   0.697
55189W        W26915   9.867  12.145  10.862
55190W        W26916  22.675  24.522   3.487
55191W        W26917  22.140  23.294  11.740
55192W        W26918   2.365  10.311  11.988
55193W        W26919  14.587  32.449   0.746
55194W        W26920  13.142  31.510  11.537
55195W        W26921  17.356  40.254  14.252
55196W        W26922   8.027   1.894  10.450
55197W        W26923  40.054  39.106  11.649
55198W        W26924  10.057  10.562   1.977
55199W        W26925  18.267  36.802   3.898
55200W        W26926  42.447  15.677   4.610
55201W        W26927  36.808  21.136   3.782
55202W        W26928   7.800  32.476   4.722
55203W        W26929  23.754   5.933   0.388
55204W        W26930  29.198  22.009  12.845
55205W        W26931   8.286  15.818  14.930
55206W        W26932  29.167  24.222   3.663
55207W        W26933  27.055  22.741   1.483
55208W        W26934  10.175  22.676  11.151
55209W        W26935  21.706  15.362   1.274
55210W        W26936   1.772   3.785   2.200
55211W        W26937   6.438  10.878   2.405
55212W        W26938   0.182  18.121  14.822
55213W        W26939  15.417   8.901  12.039
55214W        W26940   8.775  44.536  14.082
55215W        W26941   3.439   3.464  14.853
55216W        W26942  28.892  23.790   4.495
55217W        W26943  40.971  29.699   0.827
55218W        W26944  37.830  19.416   2.733
55219W        W26945  43.622  29.103   3.694
55220W        W26946  14.277  13.603  13.270
55221W        W26947  36.403  19.115   3.184
55222W        W26948   2.248  22.472  14.798
55223W        W26949  15.334  24.522   1.281
55224W        W26950  28.901  25.123   2.611
55225W        W26951  22.691  36.656  13.081
55226W        W26952  29.130  13.820   3.579
55227W        W26953  44.251  27.132  12.449
55228W        W26954  42.204  21.367   1.763
55229W        W26955  23.299  15.527   3.727
55230W        W26956  27.272  18.749   2.923
55231W        W26957  17.711  27.889  13.820
55232W        W26958  20.615   5.915  13.773
55233W        W26959  16.963   5.431   0.794
55234W        W26960  30.841  36.615  14.803
55235W        W26961  23.099  28.510   5.203
55236W        W26962   5.071  24.264   4.030
55237W        W26963  30.882  28.512   3.229
55238W        W26964  31.808  32.960  10.306
55239W        W26965   9.208   7.631   1.149
55240W        W26966  16.891  39.792   4.454
55241W        W26967  42.601   8.583   4.939
55242W        W26968  33.000  39.565   1.416
55243W        W26969  13.223  10.463  13.391
55244W        W26970  43.868  27.054   3.682
55245W        W26971   2.585  24.706  14.069
55246W        W26972  18.985   5.761   1.800
55247W        W26973  37.023   2.024   0.695
55248W        W26974  35.541  30.526   1.388
55249W        W26975  11.330  14.698  12.962
55250W        W26976  25.936  12.645  13.920
55251W        W26977  38.101  15.805  10.598
55252W        W26978  42.742  34.132   3.897
55253W        W26979  25.306  32.900  10.619
55254W        W26980   3.905   8.340   1.371
55255W        W26981  30.408   4.685  11.098
55256W        W26982  33.807  38.515  12.930
55257W        W26983  25.503  19.689   0.420
55258W        W26984  33.189  16.748   4.615
55259W        W26985  22.734  25.216  14.746
55260W        W26986  15.071  13.175   4.570
55261W        W26987   9.726  43.913  14.976
55262W        W26988  24.186   6.592   0.669
55263W        W26989  15.861  39.515  10.783
55264W        W26990  19.487   7.317  14.867
55265W        W26991  25.548  35.137  11.164
55266W        W26992  24.379  30.385   3.324
55267W        W26993  30.951  18.093   3.419
55268W        W26994  30.620  44.913  11.077
55269W        W26995  33.823  19.686   9.875
55270W        W26996   0.258  19.521   1.899
55271W        W26997  19.710   2.493   0.768
55272W        W26998  20.547   4.365  13.588
55273W        W26999   4.173  37.207   2.224
55274W        W27000  15.495  26.130   1.191
55275W        W27001  39.468   3.699   0.521
55276W        W27002  27.646  29.561  12.778
55277W        W27003  11.330  11.167  10.910
55278W        W27004   7.249  13.877  14.564
55279W        W27005  22.851  22.830   1.730
55280W        W27006  21.669  19.267   2.739
55281W        W27007  30.683  43.915   3.243
55282W        W27008  31.974  36.648   2.290
55283W        W27009  34.087  11.615  11.587
55284W        W27010  25.740   9.270   2.309
55285W        W27011   6.916   0.496  14.941
55286W        W27012  21.087   8.420  13.292
55287W        W27013  17.520  34.092  14.393
55288W        W27014  39.829  36.406   4.092
55289W        W27015  39.054  41.573  12.460
55290W        W27016  36.262  14.409  12.524
55291W        W27017  27.476  28.124  14.858
55292W        W27018  14.024  21.723   2.326
55293W        W27019   9.282  27.589   1.839
55294W        W27020  20.484  24.956  12.844
55295W        W27021  28.995  18.491  11.143
55296W        W27022  40.400  18.720   0.861
55297W        W27023  10.360   8.404   3.691
55298W        W27024  30.887   8.341  14.430
55299W        W27025  14.763  35.407  12.991
55300W        W27026  38.843  28.307   3.528
55301W        W27027  25.975  44.789  11.750
55302W        W27028  38.472  39.013   1.594
55303W        W27029  11.310  29.210   0.956
55304W        W27030  26.575  40.729   4.559
55305W        W27031  13.374   9.698  11.497
55306W        W27032   3.624  22.247  13.932
55307W        W27033  40.523  25.078  13.442
55308W        W27034   5.735  32.861  13.443
55309W        W27035  43.042   6.602   2.733
55310W        W27036  36.741  29.573   2.795
55311W        W27037   4.454  12.367  14.854
55312W        W27038  42.068  35.559   1.398
55313W        W27039  11.817   5.721   4.122
55314W        W27040  25.704  34.284   4.554
55315W        W27041  40.521   9.894   2.683
55316W        W27042  16.108  24.742  14.793
55317W        W27043  11.630  21.069  11.075
55318W        W27044  39.861  32.615  11.533
55319W        W27045  15.745  16.506   4.695
55320W        W27046   4.853  43.831  14.059
55321W        W27047  17.804  37.286  11.477
55322W        W27048  16.847  14.266   5.008
55323W        W27049  27.627  23.714  13.473
55324W        W27050  26.018   9.189   2.763
55325W        W27051  10.948  36.601  12.117
55326W        W27052   6.303  29.727   4.930
55327W        W27053  34.646  24.128   3.728
55328W        W27054  33.531  16.458   4.917
55329W        W27055  13.691  10.758  13.988
55330W        W27056   9.798  18.139   3.918
55331W        W27057  19.409  44.421   3.934
55332W        W27058  12.375  19.209  14.010
55333W        W27059  34.177  34.368  12.367
55334W        W27060  33.700  21.299   1.355
55335W        W27061   7.328  33.096  14.293
55336W        W27062  17.281  28.989   4.575
55337W        W27063  40.858   0.296  11.104
55338W        W27064  22.621  16.198  11.757
55339W        W27065   6.393  43.961   4.618
55340W        W27066  12.618   4.875  14.395
55341W        W27067  39.888  40.415  14.380
55342W        W27068  19.032  30.199   1.271
55343W        W27069   3.494  13.822   1.744
55344W        W27070  38.366   2.476   3.281
55345W        W27071  17.528  25.437   0.073
55346W        W27072  38.719   9.186  13.529
55347W        W27073  30.355  28.542   3.270
55348W        W27074   1.711  20.226  11.140
55349W        W27075  37.983  43.765   2.653
55350W        W27076  10.405  20.258  11.203
55351W        W27077  25.239  42.741   1.694
55352W        W27078   6.115  44.365   5.257
55353W        W27079  22.698   2.345  13.281
55354W        W27080   5.850  18.333  14.738
55355W        W27081  40.733   6.332   3.380
55356W        W27082  15.953  19.023  11.783
55357W        W27083  37.633  22.751  11.995
55358W        W27084  23.428  33.320  13.856
55359W        W27085  32.946  43.770  10.808
55360W        W27086   1.479  26.978  14.491
55361W        W27087  38.771  21.917  11.073
55362W        W27088  20.611   0.416  10.302
55363W        W27089   0.778  30.439  12.435
55364W        W27090  21.348  25.563   4.915
55365W        W27091  32.652  19.410   3.306
55366W        W27092   6.511   0.185  14.866
55367W        W27093   4.175   8.804   4.267
55368W        W27094  21.190   3.656  11.098
55369W        W27095  28.217   3.860  10.961
55370W        W27096  28.226   8.079  10.865
55371W        W27097  34.973  11.868  12.609
55372W        W27098  28.629  25.128   0.289
55373W        W27099   4.741  37.535  13.466
55374W        W27100  36.636  18.778  10.774
55375W        W27101  38.662  14.761   4.579
55376W        W27102  42.667  11.553  12.852
55377W        W27103  42.388  26.386   2.244
55378W        W27104  29.467   6.310  10.137
55379W        W27105  24.489  24.282   4.906
55380W        W27106  38.097  42.438  12.774
55381W        W27107  44.016  14.830   1.723
55382W        W27108  40.048  10.326  13.814
55383W        W27109  26.265  41.926   1.150
55384W        W27110   4.393  36.724   5.089
55385W        W27111   5.877  42.871  11.546
55386W        W27112   9.225  20.170   0.832
55387W        W27113   6.975  28.454  13.954
55388W        W27114   8.404  33.666  11.420
55389W        W27115  14.599  43.131   4.030
55390W        W27116  41.432  41.266  12.532
55391W        W27117  41.495  39.900   2.570
55392W        W27118   7.575   0.480  12.031
55393W        W27119  18.443  27.679  14.325
55394W        W27120   1.772  20.500   2.152
55395W        W27121  18.620  10.425  14.882
55396W        W27122   6.320   5.153   0.051
55397W        W27123  19.537  33.970  14.159
55398W        W27124  44.900  16.741   0.432
55399W        W27125  29.441   3.590   4.383
55400W        W27126   4.577  16.247  10.641
55401W        W27127   5.174  11.388   1.388
55402W        W27128  30.561  18.555   4.728
55403W        W27129   5.404   6.355   2.901
55404W        W27130  33.960  38.006   0.260
55405W        W27131  13.568  12.630  14.529
55406W        W27132  36.366  20.019  13.526
55407W        W27133  17.253  38.845  13.712
55408W        W27134   4.971  26.677   3.765
55409W        W27135  40.793  13.784  13.413
55410W        W27136  19.250  26.068  12.717
55411W        W27137  22.218  12.362   4.164
55412W        W27138  37.530   7.370   4.356
55413W        W27139  15.052  30.418   0.900
55414W        W27140  26.591   8.860   1.245
55415W        W27141  19.669  23.692   4.160
55416W        W27142  15.853   0.315   1.874
55417W        W27143  13.128  23.212  14.281
55418W        W27144  40.360  12.695  13.962
55419W        W27145   7.688   1.307   3.664
55420W        W27146  28.124  33.750   5.239
55421W        W27147  19.645  13.329  11.714
55422W        W27148  20.499   5.362   0.853
55423W        W27149  24.234  22.937   4.223
55424W        W27150  13.568  27.200  13.783
55425W        W27151   9.266   1.450  14.855
55426W        W27152  19.111  12.096  14.998
55427W        W27153  22.581  12.669  14.981
55428W        W27154  42.555  21.382  14.826
55429W        W27155  32.242  17.973   2.321
55430W        W27156  24.909  22.507   4.600
55431W        W27157  27.820  25.955  13.019
55432W        W27158   2.435  31.448  12.386
55433W        W27159  42.801  31.677   1.166
55434W        W27160   1.681   2.620   0.626
55435W        W27161  32.584   3.834  13.883
55436W        W27162  21.591  38.560   3.257
55437W        W27163  31.504  12.105   1.375
55438W        W27164  10.391  30.650   2.132
55439W        W27165  30.174   8.885  14.906
55440W        W27166  31.932  43.837  12.462
55441W        W27167  24.621  10.112  14.368
55442W        W27168  22.365  35.811   2.399
55443W        W27169  37.157   4.596   4.749
55444W        W27170  43.018  40.432   3.331
55445W        W27171  21.536  17.642   4.790
55446W        W27172  30.504  13.889  12.609
55447W        W27173  11.171  41.778  13.334
55448W        W27174  17.018   7.850  12.503
55449W        W27175  14.299   0.715  14.507
55450W        W27176  31.973   8.717   4.554
55451W        W27177  11.433  16.945  11.391
55452W        W27178  40.379  31.894  13.005
55453W        W27179  31.697  37.827  13.449
55454W        W27180  19.332   2.160  11.102
55455W        W27181  38.058   3.771  12.494
55456W        W27182  25.188  24.250   2.677
55457W        W27183  40.421  25.235   4.074
55458W        W27184   0.381   8.267   2.363
55459W        W27185  39.356  39.432  10.775
55460W        W27186   8.676  38.837   1.369
55461W        W27187  31.666  40.605   0.850
55462W        W27188  14.908  16.087  14.902
55463W        W27189  19.857  44.576   3.716
55464W        W27190  32.724  30.339  12.847
55465W        W27191   0.243  14.636  13.522
55466W        W27192  18.966  23.943  13.625
55467W        W27193  37.465   8.914  11.890
55468W        W27194  12.729   4.353   3.296
55469W        W27195  10.252  19.501  10.516
55470W        W27196  39.836   6.382   3.619
55471W        W27197   6.401  26.256   3.777
55472W        W27198  19.564   2.886  13.406
55473W        W27199  27.662  30.892  12.123
55474W        W27200   3.426  40.212  13.334
55475W        W27201  18.357  40.275   0.092
55476W        W27202  23.498  43.488   2.080
55477W        W27203  39.908  43.219  13.612
55478W        W27204  41.207  20.681  11.126
55479W        W27205   9.919  31.507  12.001
55480W        W27206  31.006  36.491   2.160
55481W        W27207  43.231  41.932   3.853
55482W        W27208  12.815   2.290   4.118
55483W        W27209  37.885   0.361   2.266
55484W        W27210  10.557  40.999  12.053
55485W        W27211  19.146  22.237  10.709
55486W        W27212   4.288  17.094  12.900
55487W        W27213  26.672  39.515   1.142
55488W        W27214  34.914  30.497   0.084
55489W        W27215  17.604  39.451   9.821
55490W        W27216  10.864  30.981  13.810
55491W        W27217  20.408  32.919  14.496
55492W        W27218  10.892  16.761  12.441
55493W        W27219  33.978  25.651   2.330
55494W        W27220   9.548  36.510  10.226
55495W        W27221  23.737  28.786   0.924
55496W        W27222  16.723  39.885  13.331
55497W        W27223  11.853  43.884   0.536
55498W        W27224  24.338  19.996  13.379
55499W        W27225  14.072  25.568   0.062
55500W        W27226  40.440  17.330   3.708
55501W        W27227   3.945  29.525  11.512
55502W        W27228  26.593  21.043   1.459
55503W        W27229  31.629  31.023  10.692
55504W        W27230   4.405  18.083  11.122
55505W        W27231  38.807  29.475   2.831
55506W        W27232  34.472   6.897  14.644
55507W        W27233  35.239  29.626   0.299
55508W        W27234  14.539  20.555  13.041
55509W        W27235   6.699  17.651  12.767
55510W        W27236  41.401  17.474  14.567
55511W        W27237  34.850  31.833   5.057
55512W        W27238  43.833  24.407   0.272
55513W        W27239  24.256   9.746   1.865
55514W        W27240   1.384  32.393  11.587
55515W        W27241  34.117  41.864  13.929
55516W        W27242  18.705   2.647  12.193
55517W        W27243  19.061  33.475  14.368
55518W        W27244   3.360  35.595   4.515
55519W        W27245  35.035  11.521  14.462
55520W        W27246  24.775  12.404   5.518
55521W        W27247  13.140  13.388  13.358
55522W        W27248  26.709   6.909   1.293
55523W        W27249  13.802  42.763   2.307
55524W        W27250  23.927   7.313   2.826
55525W        W27251   2.022  33.306   0.433
55526W        W27252  24.239  24.731   1.941
55527W        W27253   6.586  15.180   2.819
55528W        W27254  44.811  11.371  10.804
55529W        W27255  33.360  43.062   1.215
55530W        W27256  13.098   3.889   4.597
55531W        W27257  22.582   2.605  11.931
55532W        W27258  38.049  11.628   1.823
55533W        W27259  16.656  33.509   4.742
55534W        W27260  43.283  27.584  14.971
55535W        W27261  10.662  41.766  13.539
55536W        W27262  33.586  32.470  14.888
55537W        W27263  26.933  41.413   0.033
55538W        W27264  34.820  14.086  13.401
55539W        W27265   1.983  24.631  14.250
55540W        W27266  13.222  37.600  13.573
55541W        W27267  15.548  36.338  10.960
55542W        W27268  32.387  41.594  14.495
55543W        W27269  44.387   2.334   4.668
55544W        W27270  38.297  22.441  14.526
55545W        W27271  29.450  32.892  13.503
55546W        W27272  12.108  14.244   4.247
55547W        W27273  24.232  36.167  12.874
55548W        W27274  43.236  36.990  12.903
55549W        W27275  40.022  25.034   3.219
55550W        W27276  28.504   5.281  10.045
55551W        W27277  25.092  37.344   3.664
55552W        W27278  44.234   7.136   1.320
55553W        W27279   0.693  24.531   0.399
55554W        W27280  41.947  26.713  10.588
55555W        W27281   5.297   5.274  11.950
55556W        W27282   4.225  31.135  14.433
55557W        W27283  11.740  16.489  13.583
55558W        W27284  35.187  35.156  14.067
55559W        W27285  20.579   8.965  11.401
55560W        W27286  13.718   3.452   2.603
55561W        W27287  26.142  34.004   4.659
55562W        W27288  23.506  22.153  13.036
55563W        W27289  43.051  29.836  11.173
55564W        W27290  10.132   6.255   1.462
55565W        W27291  40.468  42.724   1.330
55566W        W27292  15.493  12.147   3.194
55567W        W27293  24.023  21.703  12.470
55568W        W27294  44.022  13.200   1.756
55569W        W27295  16.119   4.775  12.786
55570W        W27296  12.181   8.518  12.894
55571W        W27297   5.854  28.249   2.190
55572W        W27298  24.676   0.403  13.982
55573W        W27299   2.005  20.031   4.335
55574W        W27300   7.003  39.971   3.838
55575W        W27301   6.198  14.244  11.194
55576W        W27302  23.602   2.284   2.322
55577W        W27303   8.342  12.919   3.624
55578W        W27304  31.073  43.001   0.836
55579W        W27305  32.101  42.930  10.954
55580W        W27306  16.978  34.413  13.395
55581W        W27307  14.073  13.831  14.274
55582W        W27308  14.847   0.941   3.679
55583W        W27309  16.756  38.230   0.715
55584W        W27310  14.800  43.874   2.944
55585W        W27311  15.976  13.182   1.342
55586W        W27312  23.712  24.390   0.305
55587W        W27313   2.270  18.765   3.654
55588W        W27314   0.892  43.401   0.877
55589W        W27315  29.086  34.548  14.729
55590W        W27316  44.209  32.022   4.249
55591W        W27317  41.649  34.367  13.531
55592W        W27318  12.269  33.836  14.920
55593W        W27319  14.281  40.704   3.110
55594W        W27320  44.252  16.077  13.753
55595W        W27321  29.687  30.230   3.907
55596W        W27322  27.500  36.569   4.849
55597W        W27323  41.342   6.039  14.964
55598W        W27324   4.166   3.708   2.250
55599W        W27325  34.831   3.840  13.506
55600W        W27326  35.584  13.711   1.032
55601W        W27327  37.437  24.497   4.520
55602W        W27328   2.000  30.938   2.261
55603W        W27329   8.297  22.237  12.945
55604W        W27330   0.834  42.321  11.071
55605W        W27331   3.009  26.538   0.961
55606W        W27332  42.428  14.212   4.833
55607W        W27333  24.128  10.960  11.125
55608W        W27334   2.839  37.511  13.955
55609W        W27335   1.768  35.736  11.162
55610W        W27336   7.808  12.171   2.110
55611W        W27337  19.623  19.040  14.820
55612W        W27338   4.367  43.855  14.271
55613W        W27339  16.983  43.736  14.855
55614W        W27340  26.257  18.075  10.794
55615W        W27341   5.215  30.985  10.697
55616W        W27342  29.026  34.627   3.807
55617W        W27343  14.193  42.784   1.360
55618W        W27344  43.467  30.741   4.192
55619W        W27345   7.611   6.555   5.037
55620W        W27346   1.547   9.369   4.066
55621W        W27347  17.365  33.960   0.943
55622W        W27348  38.021  19.272   0.520
55623W        W27349  42.324  17.871   3.442
55624W        W27350  37.557  31.413  14.015
55625W        W27351  19.158   7.561  10.710
55626W        W27352   4.934  23.630   4.626
55627W        W27353  33.122  14.429  13.365
55628W        W27354  16.726  24.270  14.277
55629W        W27355  33.452  32.723  11.742
55630W        W27356  29.909   2.315  13.945
55631W        W27357  41.848   4.808  11.920
55632W        W27358  11.758  20.517   2.878
55633W        W27359  17.648  37.009  11.065
55634W        W27360  36.307  24.991   4.693
55635W        W27361  23.522  38.716   1.382
55636W        W27362  14.092  17.848  11.962
55637W        W27363  35.040  18.965   4.156
55638W        W27364  38.952  35.593  10.680
55639W        W27365  39.945   7.503   2.504
55640W        W27366  29.553  24.159  12.156
55641W        W27367  23.051  17.089   4.323
55642W        W27368  27.626  25.296  12.478
55643W        W27369  15.816   2.789  10.529
55644W        W27370   6.385   9.270   2.724
55645W        W27371  42.832  36.421   2.452
55646W        W27372  13.809  26.704  12.248
55647W        W27373  17.127  32.111   2.234
55648W        W27374  37.623  22.666   0.128
55649W        W27375  17.280  43.802   0.804
55650W        W27376  23.119  20.996   3.658
55651W        W27377  12.172   4.001  14.717
55652W        W27378  13.112  39.338   3.200
55653W        W27379  21.488   4.694  13.090
55654W        W27380   2.730  21.252  10.637
55655W        W27381  31.467  12.015   2.362
55656W        W27382  35.828  34.334   1.466
55657W        W27383  14.073  32.899  12.365
55658W        W27384  20.455  33.510   0.910
55659W        W27385  22.865   3.799  14.801
55660W        W27386  18.827  37.342   1.860
55661W        W27387  39.481  33.199   0.071
55662W        W27388  41.973  36.390  11.559
55663W        W27389  40.601   3.024  11.498
55664W        W27390  18.835   7.850   3.750
55665W        W27391  36.233   0.942  12.883
55666W        W27392  36.876  15.042   0.515
55667W        W27393  39.378  41.874   1.293
55668W        W27394  36.958  11.956  11.221
55669W        W27395  17.764  44.246   1.457
55670W        W27396  42.865  42.030   0.384
55671W        W27397  15.401  10.263   4.280
55672W        W27398   8.246  17.372  11.296
55673W        W27399  37.987  23.145   2.771
55674W        W27400  14.749  12.602  11.357
55675W        W27401  40.061  29.557  14.051
55676W        W27402   5.776  30.433   4.504
55677W        W27403  14.235  31.374   2.909
55678W        W27404   9.267  22.080  10.691
55679W        W27405  24.209  22.964  12.009
55680W        W27406   3.900   3.804   0.318
55681W        W27407   1.464  21.560   3.212
55682W        W27408  21.865  32.728   2.819
55683W        W27409  12.851  40.465  12.400
55684W        W27410  19.265  14.723  12.087
55685W        W27411  38.932  41.828  11.684
55686W        W27412   1.012   3.869   3.906
55687W        W27413  16.173  14.600   2.675
55688W        W27414  20.749  34.040  14.647
55689W        W27415  35.693  36.278  12.913
55690W        W27416  20.902   1.006   2.151
55691W        W27417  15.771  17.319  13.538
55692W        W27418   1.845   8.307   3.388
55693W        W27419  25.888   6.816   1.707
55694W        W27420  43.906   7.666  11.146
55695W        W27421  34.152  15.636   2.701
55696W        W27422   8.830  28.376   2.191
55697W        W27423   5.438  34.374  14.040
55698W        W27424  33.479  16.992  12.107
55699W        W27425  31.021   2.237   0.270
55700W        W27426  23.735   5.722   4.152
55701W        W27427  38.430  32.432  13.680
55702W        W27428  16.207   6.114   1.529
55703W        W27429  37.568  11.692  14.489
55704W        W27430  21.260  29.126  12.535
55705W        W27431  41.465  16.963  14.740
55706W        W27432   6.739  34.376   0.897
55707W        W27433  31.684  24.514  10.671
55708W        W27434  16.147   4.252  10.822
55709W        W27435  24.869  20.731   3.790
55710W        W27436  16.356  39.057   0.253
55711W        W27437  12.312  10.613   2.735
55712W        W27438   4.397  33.800  13.280
55713W        W27439  21.196  22.959   2.262
55714W        W27440  37.005  13.937  12.417
55715W        W27441   4.195  14.792   1.252
55716W        W27442   0.791  18.639   4.100
55717W        W27443  22.114  33.513   4.711
55718W        W27444   9.679   5.755   4.453
55719W        W27445  41.578   1.675  11.124
55720W        W27446  18.545  23.639  11.520
55721W        W27447  18.318  21.521   3.663
55722W        W27448  37.204  31.983  13.506
55723W        W27449  40.487  37.582   3.649
55724W        W27450   7.303  31.794  11.257
55725W        W27451  12.822  13.878   3.593
55726W        W27452  36.662  20.575  10.389
55727W        W27453  22.968  40.877   4.610
55728W        W27454  12.143  10.734  14.980
55729W        W27455   9.269   4.353  13.494
55730W        W27456  44.514  25.973   3.721
55731W        W27457  34.784  36.841   2.370
55732W        W27458  16.700   3.427   0.468
55733W        W27459  25.991  23.022   3.524
55734W        W27460  27.982  38.083   4.606
55735W        W27461   3.581  22.576  12.540
55736W        W27462  36.278  31.859  14.303
55737W        W27463  25.672  19.794   4.590
55738W        W27464  10.662   9.713  11.336
55739W        W27465  39.471   9.834   1.887
55740W        W27466  41.325  13.168   4.902
55741W        W27467  44.936  13.301   1.912
55742W        W27468  28.586  31.197  13.442
55743W        W27469  24.001   0.463  14.482
55744W        W27470  26.368   2.202   3.193
55745W        W27471  11.224  22.500   0.026
55746W        W27472  39.281  34.460  14.035
55747W        W27473  12.629   7.495   2.256
55748W        W27474   4.217  39.509   1.336
55749W        W27475  39.317  24.515   1.960
55750W        W27476  36.590  40.798   0.953
55751W        W27477  33.806   2.280   0.793
55752W        W27478  22.646  26.187   1.806
55753W        W27479  44.048  44.444  11.665
55754W        W27480  27.468  43.014   1.241
55755W        W27481  31.321  42.393   2.898
55756W        W27482  20.194  41.250   1.679
55757W        W27483  43.354  31.588   1.844
55758W        W27484  18.107  42.846   3.873
55759W        W27485  23.618  26.227  11.068
55760W        W27486   4.190   4.372  14.752
55761W        W27487   9.724  25.221   3.836
55762W        W27488  15.304   9.655  14.354
55763W        W27489  37.387  37.940   1.618
55764W        W27490  34.056  10.788  11.496
55765W        W27491   5.642  19.019  11.069
55766W        W27492   9.360  40.323   2.892
55767W        W27493  29.983  11.174   4.722
55768W        W27494  10.804   8.157  11.646
55769W        W27495  18.316   3.409  11.923
55770W        W27496  44.327   8.020  14.473
55771W        W27497  33.070  19.594   4.113
55772W        W27498  19.889  38.943   3.311
55773W        W27499  39.481  30.461   1.678
55774W        W27500  30.491  12.134  14.698
55775W        W27501  27.021   5.221   3.144
55776W        W27502  24.478  12.391  11.720
55777W        W27503  41.456   7.823  14.269
55778W        W27504  11.787  22.964   5.306
55779W        W27505  11.381  21.266   1.641
55780W        W27506  16.304  12.085  10.452
55781W        W27507  28.470  11.351  11.588
55782W        W27508  18.821   6.227  14.996
55783W        W27509   0.928  32.523  13.295
55784W        W27510   0.455  28.993  14.395
55785W        W27511   6.779  30.379   2.451
55786W        W27512   1.388  42.828   3.857
55787W        W27513  32.596  40.352   4.287
55788W        W27514   6.719  36.432   4.939
55789W        W27515  14.213   4.323   4.908
55790W        W27516   2.820  11.751  11.197
55791W        W27517  34.274  20.079   2.638
55792W        W27518  13.817  40.070   1.959
55793W        W27519  43.816  34.091   2.222
55794W        W27520  14.001  31.982  13.318
55795W        W27521  37.569   4.734   2.716
55796W        W27522  29.968  27.534  13.399
55797W        W27523  39.008  35.550  11.224
55798W        W27524  11.033   2.851  12.919
55799W        W27525  39.570  30.129  14.736
55800W        W27526  33.943  21.166  14.801
55801W        W27527   3.417  31.743   3.127
55802W        W27528  18.571  14.329  13.067
55803W        W27529   9.437  39.065   1.169
55804W        W27530  31.034  39.360  11.068
55805W        W27531  28.783  30.055  13.099
55806W        W27532  12.772   0.362  14.732
55807W        W27533  43.529  41.419  13.323
55808W        W27534  35.464  25.000  13.489
55809W        W27535   8.693  22.271  11.537
55810W        W27536  19.262  13.085  14.969
55811W        W27537  12.957  17.631  14.783
55812W        W27538  23.852  38.357  11.696
55813W        W27539  30.198  10.011  13.378
55814W        W27540  21.077   0.730  11.566
55815W        W27541  13.779  28.063  11.684
55816W        W27542  17.212  36.367   1.682
55817W        W27543   9.772  24.193  11.664
55818W        W27544  21.276  19.510  13.878
55819W        W27545  37.256   4.695   0.816
55820W        W27546  38.390   7.677   0.973
55821W        W27547   7.794  17.161  10.033
55822W        W27548  42.765  10.464   3.233
55823W        W27549  13.663  21.381   1.054
55824W        W27550   7.760  19.079  12.975
55825W        W27551  44.480   1.438  14.946
55826W        W27552   2.767   6.392   4.895
55827W        W27553  12.930   3.803  10.472
55828W        W27554  10.299  10.287   4.097
55829W        W27555  27.593  21.528   2.720
55830W        W27556  25.165  34.084   3.626
55831W        W27557  35.154   6.186   0.529
55832W        W27558  17.159  27.067   2.039
55833W        W27559  34.023  13.209  13.495
55834W        W27560  35.898  31.646  10.662
55835W        W27561  26.985  24.466  11.681
55836W        W27562  33.369  35.342   3.273
55837W        W27563  18.791  22.415  12.674
55838W        W27564  42.215  26.898   5.186
55839W        W27565  24.112  16.857  13.605
55840W        W27566  23.721  29.114  13.188
55841W        W27567   4.750   0.361   3.717
55842W        W27568  16.543  30.090   0.254
55843W        W27569  15.243   7.023   2.329
55844W        W27570   2.658  13.164   4.183
55845W        W27571  43.371  16.596  11.907
55846W        W27572  18.491  32.147  14.389
55847W        W27573   8.437  32.063  14.298
55848W        W27574   5.280  25.034  12.018
55849W        W27575  16.746  21.289   2.000
55850W        W27576   7.667  35.664  14.813
55851W        W27577  24.174  10.422  11.173
55852W        W27578  16.886  28.974  14.741
55853W        W27579   7.318  16.184   4.001
55854W        W27580   4.981  30.621  11.511
55855W        W27581  21.247  17.866   0.763
55856W        W27582  36.102  43.479   0.060
55857W        W27583  14.730  43.154  10.173
55858W        W27584  17.193  27.697  10.181
55859W        W27585   5.769   1.750   3.645
55860W        W27586  35.780  14.592   0.223
55861W        W27587  39.061  16.110   3.951
55862W        W27588  43.452  25.351   4.625
55863W        W27589  10.367  13.335  12.777
55864W        W27590  11.336  13.056   3.408
55865W        W27591  42.924   6.389  14.085
55866W        W27592  39.957   6.856  12.373
55867W        W27593   1.258   7.533   1.784
55868W        W27594  37.568  15.857   0.001
55869W        W27595   8.837  21.642  14.054
55870W        W27596  30.481  28.888  13.893
55871W        W27597  13.428  39.498   2.725
55872W        W27598  25.738   0.087  12.579
55873W        W27599   8.549  12.453   1.706
55874W        W27600   1.382  26.741  10.410
55875W        W27601  38.532   6.547  14.436
55876W        W27602  29.711   8.232  12.964
55877W        W27603  34.822  10.284   0.379
55878W        W27604   9.833  10.974   2.832
55879W        W27605  35.075  42.318   3.367
55880W        W27606   4.300   3.269  12.457
55881W        W27607  38.386  23.728  14.961
55882W        W27608   6.217  14.811   0.072
55883W        W27609  10.594  11.364   2.460
55884W        W27610  38.527  21.852  10.618
55885W        W27611  34.923   6.391   3.241
55886W        W27612  22.285  22.960   0.261
55887W        W27613  22.400  24.495  14.051
55888W        W27614  19.349  39.255   1.279
55889W        W27615   3.164   5.681   4.914
55890W        W27616  27.107  10.351   3.283
55891W        W27617  15.379  32.860   0.382
55892W        W27618   1.346  21.140   1.889
55893W        W27619  29.500  23.168  13.121
55894W        W27620  13.111  38.986  13.755
55895W        W27621  16.034   9.743  11.163
55896W        W27622  25.001  26.547  12.285
55897W        W27623   0.164  28.578   1.875
55898W        W27624   7.743  43.267   4.903
55899W        W27625  38.919  12.603  12.562
55900W        W27626  37.631  12.541  12.175
55901W        W27627  10.684  16.597   2.332
55902W        W27628  25.344  26.093  13.635
55903W        W27629  36.066  41.819   0.377
55904W        W27630  10.319  13.336  10.587
55905W        W27631  15.824  35.116   2.306
55906W        W27632  12.136  34.904   3.786
55907W        W27633  22.711  40.088   0.809
55908W        W27634   5.957   9.285   4.602
55909W        W27635  25.992  36.794   3.660
55910W        W27636   0.652  33.631   1.000
55911W        W27637  22.550  20.168  14.307
55912W        W27638  31.077  36.868  12.432
55913W        W27639  23.606  26.031   2.622
55914W        W27640  27.470  14.078   1.817
55915W        W27641  29.474  16.133   0.007
55916W        W27642  15.542  28.108   0.725
55917W        W27643  26.451   0.540   4.942
55918W        W27644  43.574  42.394   0.815
55919W        W27645  37.437  18.098  11.657
55920W        W27646  40.309  38.137  10.646
55921W        W27647   2.150   9.714  14.495
55922W        W27648  22.704  15.581   2.624
55923W        W27649   5.293  21.635  13.744
55924W        W27650  35.121  44.723  10.553
55925W        W27651  17.393  14.265  10.749
55926W        W27652   9.791  44.039   1.010
55927W        W27653  44.323   5.348  12.539
55928W        W27654   2.457  28.928   4.302
55929W        W27655  16.705   4.848  10.188
55930W        W27656  19.499   1.410   2.793
55931W        W27657   0.402  12.977   3.216
55932W        W27658  13.772  41.517  13.384
55933W        W27659  14.319  15.227   0.949
55934W        W27660   5.517  37.591   1.480
55935W        W27661  18.648  10.749  14.071
55936W        W27662  42.323  26.098  13.878
55937W        W27663   3.244  40.709  11.164
55938W        W27664   7.461  18.018   3.158
55939W        W27665  32.925  39.929   2.715
55940W        W27666   6.828   8.885  13.039
55941W        W27667   7.039  18.750  11.935
55942W        W27668  17.306  13.611   3.647
55943W        W27669   9.372  37.318   5.011
55944W        W27670  17.161  40.956   2.667
55945W        W27671  43.517  31.996   0.702
55946W        W27672  17.051  37.347   2.716
55947W        W27673  36.800  24.565   3.201
55948W        W27674  33.904  38.328  14.872
55949W        W27675  30.197  19.768  10.682
55950W        W27676   8.884  24.011  12.101
55951W        W27677  31.070  41.851  14.858
55952W        W27678  41.270   4.809  13.174
55953W        W27679  43.512  17.529  11.475
55954W        W27680  42.331   9.237  10.940
55955W        W27681   0.531  33.319   2.374
55956W        W27682   4.868  23.060  14.752
55957W        W27683  28.089   8.313   1.186
55958W        W27684  39.380  43.888  14.849
55959W        W27685  38.006  29.546   3.263
55960W        W27686  36.069  34.399   2.334
55961W        W27687   3.497  14.218  11.003
55962W        W27688   2.362  11.227  12.777
55963W        W27689  14.216  17.033  12.903
55964W        W27690  34.169   3.864   0.219
55965W        W27691  32.827  23.695  10.244
55966W        W27692  34.301   2.789   1.885
55967W        W27693  31.145   7.344   0.288
55968W        W27694  27.935   5.395   1.363
55969W        W27695   3.930   5.567   0.840
55970W        W27696   1.744  10.803   3.142
55971W        W27697  33.299   0.313  10.734
55972W        W27698  10.920   6.121  12.485
55973W        W27699   2.206  34.128  13.956
55974W        W27700  29.197   6.658  12.030
55975W        W27701   3.271  41.916  12.633
55976W        W27702   6.728  36.845  14.105
55977W        W27703  21.461  14.141  11.919
55978W        W27704  39.605  21.142   1.370
55979W        W27705  17.340  19.089  14.744
55980W        W27706  14.040   2.089   4.472
55981W        W27707   2.318  38.776   0.356
55982W        W27708   0.005  44.466  11.106
55983W        W27709  29.596  24.448   4.187
55984W        W27710  21.295   2.230  14.247
55985W        W27711  23.151  37.900   1.457
55986W        W27712  12.316  29.361   2.554
55987W        W27713   6.303  10.577   3.803
55988W        W27714   0.871  38.986   0.133
55989W        W27715  36.976  29.342  14.883
55990W        W27716  17.000   5.175   1.241
55991W        W27717  25.163   0.559  13.881
55992W        W27718   0.910   0.071  10.299
55993W        W27719   7.487  12.237   2.530
55994W        W27720  20.611  38.564  14.394
55995W        W27721  13.190  26.216   3.677
55996W        W27722   3.254  25.513   1.359
55997W        W27723  31.152  15.226  14.060
55998W        W27724  36.635  21.687  12.845
55999W        W27725  29.023  40.273   2.289
56000W        W27726   0.275  10.269   3.580
56001W        W27727  13.740   3.991   1.752
56002W        W27728  41.673  33.027   1.337
56003W        W27729  19.551  29.603  12.619
56004W        W27730  35.137  13.799  14.917
56005W        W27731  42.760   3.435  14.505
56006W        W27732  37.060  42.497   0.450
56007W        W27733  17.845   4.086  12.220
56008W        W27734  38.015  13.794   3.424
56009W        W27735  22.463  18.677   3.646
56010W        W27736  38.115  33.111  10.992
56011W        W27737  18.194   1.745   0.850
56012W        W27738  42.306  20.265  11.537
56013W        W27739  10.630   8.236   0.717
56014W        W27740   0.280  29.536   1.461
56015W        W27741  40.458  44.515  10.392
56016W        W27742  18.421  16.654  13.752
56017W        W27743  10.615  25.970  14.302
56018W        W27744  23.199   7.203   3.327
56019W        W27745  17.980   2.091  12.976
56020W        W27746  44.696  34.838   3.888
56021W        W27747   8.332   8.870  11.967
56022W        W27748  40.411  17.612  11.657
56023W        W27749   7.793  24.938   2.827
56024W        W27750   1.967   3.578  12.105
56025W        W27751  32.007  41.078   1.238
56026W        W27752  43.238  14.777  11.443
56027W        W27753  28.272  10.733   4.828
56028W        W27754  13.683  36.451  10.499
56029W        W27755  31.284  17.324   4.626
56030W        W27756   3.254  24.716  10.566
56031W        W27757  16.267   3.781   2.930
56032W        W27758  44.502  41.893   4.052
56033W        W27759  30.668   2.647  11.195
56034W        W27760  15.883   6.856  13.987
56035W        W27761   8.802  30.940  13.831
56036W        W27762  40.432   1.392   0.467
56037W        W27763  26.960   6.995  13.500
56038W        W27764   3.190  41.855  14.933
56039W        W27765  31.469  35.006   3.608
56040W        W27766  36.072  31.502   4.173
56041W        W27767   9.133  18.502   2.863
56042W        W27768  42.131   4.826  10.555
56043W        W27769   1.473  36.316   0.794
56044W        W27770   4.370  27.120   2.108
56045W        W27771  12.557   1.990   3.502
56046W        W27772  41.000  22.029   4.615
56047W        W27773   4.917  13.334   3.691
56048W        W27774  15.171  41.456  12.474
56049W        W27775   7.799  13.088  14.206
56050W        W27776  44.869   7.705   3.395
56051W        W27777  36.983  10.083   2.234
56052W        W27778  31.064   4.150   3.128
56053W        W27779  43.988  43.085  14.542
56054W        W27780  14.848  22.030  11.411
56055W        W27781  22.932  33.633   3.899
56056W        W27782  26.042   8.320   2.258
56057W        W27783  35.022  30.511   3.127
56058W        W27784   3.458  14.997   4.068
56059W        W27785  33.885  35.336   2.259
56060W        W27786  27.321  34.106   0.370
56061W        W27787  23.345   4.427  13.879
56062W        W27788  16.693   6.232   0.747
56063W        W27789  42.784  29.374  11.204
56064W        W27790  25.982  23.789   1.430
56065W        W27791  37.332  18.708   3.569
56066W        W27792  12.818   0.610  12.761
56067W        W27793  10.815  19.226   0.177
56068W        W27794  37.091  38.366   3.170
56069W        W27795  15.272  10.626  10.569
56070W        W27796   6.236  22.768  13.411
56071W        W27797  12.701  11.870   0.281
56072W        W27798  43.452   2.881   1.636
56073W        W27799  39.393  32.336  11.239
56074W        W27800  11.059   8.803   3.367
56075W        W27801  32.657  31.595   2.423
56076W        W27802  22.783  35.443   1.716
56077W        W27803  32.961   3.250   0.498
56078W        W27804   2.958  43.857   4.339
56079W        W27805   5.929  12.437   4.902
56080W        W27806  10.817  30.564  10.680
56081W        W27807  35.627   2.863  14.786
56082W        W27808   1.250  15.266  14.868
56083W        W27809  37.669   4.644   4.957
56084W        W27810  11.397  17.746  13.946
56085W        W27811  11.078  23.256   1.782
56086W        W27812  43.297  16.699   2.704
56087W        W27813   1.021  21.316   2.823
56088W        W27814   5.469  26.550  12.613
56089W        W27815   8.857   8.931  14.871
56090W        W27816  31.434   4.741  14.966
56091W        W27817  39.860   6.972   4.183
56092W        W27818   2.013  20.608   1.285
56093W        W27819  24.096  43.780   2.223
56094W        W27820  27.429  42.326  13.342
56095W        W27821  10.388   5.285  12.029
56096W        W27822  30.422  10.818  11.064
56097W        W27823  39.286   8.825   2.459
56098W        W27824  10.109   7.351  11.504
56099W        W27825  26.068   7.225  12.353
56100W        W27826   4.207  22.262   2.287
56101W        W27827  14.540   0.385   3.358
56102W        W27828  30.283   0.306   4.808
56103W        W27829  23.658  10.194  11.180
56104W        W27830  35.848  21.322  12.843
56105W        W27831  38.464   8.962   1.905
56106W        W27832  44.615   4.242   1.152
56107W        W27833  25.710  20.768   2.331
56108W        W27834  44.000  36.840  13.316
56109W        W27835  39.937  27.912  14.873
56110W        W27836  11.804   5.706  12.151
56111W        W27837  15.794  33.164   0.434
56112W        W27838  28.434  37.099   2.298
56113W        W27839  15.148  31.169   1.363
56114W        W27840  30.937  27.168   9.676
56115W        W27841  33.891  18.815  14.351
56116W        W27842  14.767  39.266   4.635
56117W        W27843  41.051  11.117  12.945
56118W        W27844  27.982  42.861   2.957
56119W        W27845  17.227  24.516  14.726
56120W        W27846   0.072  25.154   2.697
56121W        W27847  31.155  13.806  14.974
56122W        W27848  24.133  13.585  11.157
56123W        W27849  14.703  14.434   9.890
56124W        W27850  37.446  17.638  10.802
56125W        W27851  24.674   7.806  14.970
56126W        W27852  34.891  43.891  13.390
56127W        W27853  17.090  31.037  10.534
56128W        W27854  16.980   0.416   1.320
56129W        W27855  12.915  44.925  14.503
56130W        W27856  30.775  33.881  13.246
56131W        W27857  38.032  20.474  13.014
56132W        W27858   3.884  11.608  14.701
56133W        W27859  25.972  17.583   0.786
56134W        W27860  42.023  23.581   1.411
56135W        W27861   0.701  26.674   4.256
56136W        W27862  18.068  29.973   4.664
56137W        W27863  11.426  18.903   2.243
56138W        W27864  16.942   6.662  11.909
56139W        W27865  18.814  20.952   4.298
56140W        W27866  41.289  18.598  10.739
56141W        W27867  21.046  12.701  14.779
56142W        W27868  38.067   3.610   5.026
56143W        W27869  20.039  14.439   4.451
56144W        W27870  24.177  37.892  11.121
56145W        W27871   0.502  31.392  12.328
56146W        W27872  10.298  35.010   0.501
56147W        W27873  23.944  43.935   0.756
56148W        W27874   6.951  20.208  11.504
56149W        W27875  44.844  18.548  14.870
56150W        W27876  38.243   6.185  12.898
56151W        W27877  11.651   7.442   2.253
56152W        W27878   3.134  32.827  11.595
56153W        W27879   9.319  12.592   2.291
56154W        W27880   5.813  22.724  12.886
56155W        W27881   0.852  28.534  12.820
56156W        W27882  42.038  13.638  14.879
56157W        W27883  39.984  37.906  14.513
56158W        W27884  16.601  16.768  10.951
56159W        W27885  44.208  36.288   4.136
56160W        W27886  40.868  18.639   2.914
56161W        W27887  28.608  25.271  13.510
56162W        W27888  11.858  39.924   1.766
56163W        W27889  31.778  10.234   2.436
56164W        W27890   6.969   8.118  12.422
56165W        W27891  23.972  38.352   4.136
56166W        W27892  16.305  32.531   1.467
56167W        W27893  29.049  34.008  14.107
56168W        W27894  18.027  32.559  12.917
56169W        W27895  11.397  43.883   1.283
56170W        W27896   5.722  26.510   4.848
56171W        W27897   6.695  11.779   2.642
56172W        W27898  11.607  11.319   0.642
56173W        W27899  16.375  23.280  11.717
56174W        W27900  18.488  35.985   1.832
56175W        W27901  43.989  34.419  10.367
56176W        W27902  32.435   8.281  11.186
56177W        W27903  42.451  34.121   1.281
56178W        W27904  41.971  28.988  13.316
56179W        W27905  38.344  14.973  12.094
56180W        W27906  13.575  43.996   4.170
56181W        W27907   1.780  28.502   1.503
56182W        W27908  20.125  44.916   1.754
56183W        W27909  20.173  33.439  12.983
56184W        W27910  19.097  44.242   2.851
56185W        W27911   7.931  26.269  12.907
56186W        W27912   7.378  32.117  14.003
56187W        W27913  23.759  42.916   4.895
56188W        W27914   6.051  29.632  14.739
56189W        W27915  39.868  22.622   2.451
56190W        W27916  10.212  24.535   1.430
56191W        W27917   0.784  16.444   2.311
56192W        W27918  24.137   0.780  13.249
56193W        W27919   2.049  20.723   0.359
56194W        W27920   4.775  14.079   1.760
56195W        W27921  27.946  39.005   1.989
56196W        W27922  15.666  14.598   1.178
56197W        W27923  23.159  11.861  12.012
56198W        W27924  30.489  31.402   4.819
56199W        W27925  40.922  21.644  10.780
56200W        W27926  34.897  15.064   0.304
56201W        W27927  18.641  25.231  13.450
56202W        W27928  12.048  25.469  10.695
56203W        W27929  21.085  12.946  13.510
56204W        W27930  21.030  35.455  14.304
56205W        W27931  37.095  28.171   2.790
56206W        W27932   1.882  20.310  12.102
56207W        W27933  36.775   6.699   2.274
56208W        W27934   1.004  35.449  14.767
56209W        W27935  34.379   1.278   2.638
56210W        W27936  34.317  44.522  14.376
56211W        W27937   1.017  30.489   3.203
56212W        W27938   1.335  36.852   0.509
56213W        W27939  11.258   0.964  13.910
56214W        W27940  24.196  27.673   3.602
56215W        W27941  24.530  36.778   4.695
56216W        W27942  15.809  29.236  14.923
56217W        W27943  17.074  20.030   2.822
56218W        W27944  33.445  32.951  11.114
56219W        W27945  11.222  20.251   0.556
56220W        W27946  44.540  41.915   2.317
56221W        W27947  26.224  35.962  11.937
56222W        W27948  10.928  38.400   3.283
56223W        W27949  25.158  10.622  14.962
56224W        W27950   2.822   7.312   3.448
56225W        W27951   9.604  23.505  10.449
56226W        W27952  18.163   0.409   3.831
56227W        W27953  15.516  38.803   2.408
56228W        W27954  13.270  10.876   2.729
56229W        W27955  19.155  17.461   3.290
56230W        W27956   0.601   6.968  13.089
56231W        W27957   5.646  35.135   3.644
56232W        W27958  38.949  33.295   0.682
56233W        W27959  31.605  23.680   2.785
56234W        W27960  37.563  11.232   2.175
56235W        W27961  11.932   3.502   1.793
56236W        W27962  42.086  44.809  13.938
56237W        W27963   9.940  27.735  14.211
56238W        W27964   5.237   8.827   2.360
56239W        W27965  23.759  32.627  13.483
56240W        W27966  16.999  32.069   0.888
56241W        W27967  23.581  34.786   1.149
56242W        W27968  19.966  31.070   2.713
56243W        W27969   8.225  19.566   4.077
56244W        W27970  25.081  28.761   3.842
56245W        W27971  38.052  24.590   0.494
56246W        W27972  29.760  32.091   3.773
56247W        W27973   1.546  20.170   1.731
56248W        W27974   1.795  28.625  13.800
56249W        W27975  30.173   8.306  12.678
56250W        W27976  41.360  31.013   2.878
56251W        W27977  10.110  31.662  13.099
56252W        W27978  42.690  26.054   0.214
56253W        W27979  15.343  21.313  14.875
56254W        W27980   9.327  32.272  14.786
56255W        W27981   8.414  40.361   4.919
56256W        W27982  12.406  12.066   1.158
56257W        W27983  30.698  43.335   4.949
56258W        W27984   9.648  17.858   1.809
56259W        W27985  16.391  12.357   1.474
56260W        W27986  19.269  15.431   2.243
56261W        W27987  27.113  29.222   4.897
56262W        W27988  12.609  32.916   3.240
56263W        W27989   7.262  13.211   4.435
56264W        W27990  20.553   4.769  13.276
56265W        W27991  44.779   0.370   3.344
56266W        W27992  36.818  44.427  10.603
56267W        W27993   9.616  35.049   1.379
56268W        W27994  16.790  35.525   2.347
56269W        W27995  17.841  44.965  11.146
56270W        W27996  42.369  23.237   1.039
56271W        W27997  21.021  40.586   0.089
56272W        W27998   3.983  22.645   1.459
56273W        W27999  18.380   1.592   1.652
56274W        W28000  22.615   0.771  10.713
56275W        W28001   5.655  43.887   4.263
56276W        W28002  44.815  16.402   2.512
56277W        W28003  18.240  12.669  12.629
56278W        W28004  12.253  20.817  10.668
56279W        W28005  14.932  25.793   0.435
56280W        W28006   2.341  25.932  13.013
56281W        W28007  16.511   2.708   4.633
56282W        W28008   3.851  34.757  13.372
56283W        W28009   3.221  19.553   4.148
56284W        W28010  11.877   6.923   0.493
56285W        W28011   3.303  33.137  11.218
56286W        W28012  24.663  40.282  13.846
56287W        W28013  32.577  30.940   1.288
56288W        W28014  20.011  34.997  12.876
56289W        W28015   9.774  20.726  14.856
56290W        W28016   9.164  17.978   1.013
56291W        W28017  17.977   7.887  13.043
56292W        W28018   9.341  44.395  10.737
56293W        W28019  28.500  20.815   4.188
56294W        W28020  30.089  27.788   0.974
56295W        W28021  13.141  37.242  11.835
56296W        W28022  19.305  35.435   4.150
56297W        W28023  12.384   4.400   4.055
56298W        W28024  32.597  33.520   1.438
56299W        W28025  43.851  20.251   4.504
56300W        W28026  13.390  18.298   4.812
56301W        W28027  25.509  28.165   0.814
56302W        W28028  12.252  44.225  10.810
56303W        W28029  44.273  41.961  13.593
56304W        W28030  18.270  40.083  11.075
56305W        W28031  16.283   7.595   1.127
56306W        W28032  18.514  36.127   3.440
56307W        W28033  15.558   7.951  12.021
56308W        W28034  20.651   5.239  11.230
56309W        W28035   3.943  36.590  13.959
56310W        W28036  25.591  34.089  12.870
56311W        W28037  38.469  19.903  11.876
56312W        W28038  40.102  18.642   4.643
56313W        W28039  12.143   2.919   4.053
56314W        W28040  21.708  18.855   1.469
56315W        W28041   6.028  27.636  14.304
56316W        W28042   9.035  25.340  14.818
56317W        W28043  36.887  20.813  12.073
56318W        W28044  10.685  37.033   1.649
56319W        W28045  37.002   3.240  11.558
56320W        W28046  26.659   6.762  10.709
56321W        W28047  19.023   4.860   0.553
56322W        W28048  23.325  28.937   0.232
56323W        W28049  43.512   4.551   3.255
56324W        W28050  30.431  32.573   3.326
56325W        W28051   0.519  25.470  12.516
56326W        W28052  29.683  15.548   1.252
56327W        W28053  25.149  29.097   4.272
56328W        W28054  18.193  40.697  14.820
56329W        W28055  19.744  35.008  14.770
56330W        W28056  14.161   5.894  14.410
56331W        W28057  16.138   5.725  12.425
56332W        W28058  44.525  10.329   4.239
56333W        W28059  12.233  29.554   1.701
56334W        W28060  37.874  10.249  10.716
56335W        W28061   9.926   7.106  13.562
56336W        W28062   9.329  32.516  13.761
56337W        W28063   2.874  31.599   3.112
56338W        W28064   5.265  40.730  12.409
56339W        W28065   7.651  42.000   0.873
56340W        W28066   2.151  39.323  12.937
56341W        W28067  20.210   9.518   4.491
56342W        W28068  44.481  23.943   1.928
56343W        W28069  25.441   6.011  14.917
56344W        W28070  24.185  39.458   2.273
56345W        W28071  37.853  11.621  14.917
56346W        W28072   6.647  28.820  14.043
56347W        W28073   1.774   9.868   2.807
56348W        W28074  36.950  25.606   4.602
56349W        W28075  24.275  27.451   4.550
56350W        W28076  12.718  17.543   2.562
56351W        W28077  25.793  35.529  10.941
56352W        W28078  31.014  12.362  14.466
56353W        W28079  25.220  16.151  14.595
56354W        W28080   0.868  13.105   1.823
56355W        W28081   4.025  41.781   1.418
56356W        W28082  41.221   2.985   2.887
56357W        W28083  25.919  17.054  11.425
56358W        W28084  43.861  32.657   2.047
56359W        W28085  38.360  25.959   1.783
56360W        W28086  19.092  10.385  14.650
56361W        W28087  17.768  36.332  13.106
56362W        W28088  43.993  16.927   3.279
56363W        W28089   2.527  32.856  10.815
56364W        W28090   9.849   4.839   2.226
56365W        W28091  25.513  26.203   0.526
56366W        W28092  12.138  22.106  14.779
56367W        W28093  33.792  19.938   2.595
56368W        W28094  42.363  27.378   4.978
56369W        W28095   5.883  44.421  12.850
56370W        W28096   4.151  32.076   2.676
56371W        W28097  44.684  40.915   3.298
56372W        W28098  12.254  25.127   2.015
56373W        W28099  13.204  35.003   4.536
56374W        W28100  28.292  27.461  11.341
56375W        W28101   3.299   9.781  11.542
56376W        W28102  10.188   6.196  11.992
56377W        W28103  26.667  32.930   2.741
56378W        W28104   2.816  35.541   3.347
56379W        W28105   0.003  37.978   0.401
56380W        W28106   3.980  14.941   0.258
56381W        W28107  15.627  40.922  14.043
56382W        W28108  24.299  22.161  12.399
56383W        W28109  11.765   6.223   5.547
56384W        W28110  18.957  25.656  12.540
56385W        W28111  25.730   8.689  11.962
56386W        W28112  40.956   3.243   3.276
56387W        W28113  18.246  35.897   1.314
56388W        W28114  23.939  42.553   4.580
56389W        W28115  23.599   5.891   2.788
56390W        W28116  15.047  36.021  11.609
56391W        W28117  13.349  33.356   3.010
56392W        W28118  28.529  17.005  11.840
56393W        W28119  31.992  19.586  14.918
56394W        W28120  31.613   2.583  13.508
56395W        W28121  17.356  23.722   1.443
56396W        W28122  44.242  11.327  12.506
56397W        W28123   8.714   3.692  14.785
56398W        W28124  22.319   3.679   1.370
56399W        W28125  43.535  22.048  14.468
56400W        W28126  14.060   0.210   3.251
56401W        W28127  18.802   9.436  13.340
56402W        W28128  41.473  11.136  11.183
56403W        W28129  32.999  44.387  11.944
56404W        W28130  22.071  37.999   3.255
56405W        W28131   5.844   4.759  11.287
56406W        W28132   8.104  29.037  10.462
56407W        W28133   5.251  25.538  11.975
56408W        W28134  14.312  20.122  11.469
56409W        W28135  25.786  27.424   1.872
56410W        W28136  35.787  24.115   3.889
56411W        W28137  21.616  42.318  11.505
56412W        W28138   8.149  32.970  11.209
56413W        W28139  19.190  23.448   4.484
56414W        W28140  40.667  17.142   0.305
56415W        W28141  29.188  35.140  10.637
56416W        W28142   5.657   9.688  14.990
56417W        W28143  39.821  27.007  12.875
56418W        W28144  37.526  10.888  12.775
56419W        W28145  13.345  30.842  10.574
56420W        W28146   2.908  19.470   2.864
56421W        W28147   2.176  29.953  12.429
56422W        W28148   6.893  20.972   4.180
56423W        W28149  18.416  30.494   2.382
56424W        W28150  34.810  14.646  14.990
56425W        W28151  21.096  34.484   1.044
56426W        W28152  33.065  29.754   0.879
56427W        W28153  25.911  26.221  11.468
56428W        W28154  29.457  29.938  13.752
56429W        W28155  34.498  11.936  14.378
56430W        W28156  11.299  36.115  10.405
56431W        W28157  20.112  29.104   2.444
56432W        W28158  31.750  14.035   0.407
56433W        W28159  26.863  23.361   5.224
56434W        W28160  27.410  15.746  11.244
56435W        W28161  13.607  34.033  11.644
56436W        W28162   8.620  12.688  11.757
56437W        W28163  29.921   1.697   4.350
56438W        W28164  17.239  37.343   4.098
56439W        W28165  31.554  32.173  13.435
56440W        W28166   6.930  23.105   0.029
56441W        W28167   6.150  44.313   3.804
56442W        W28168  14.754   6.510  10.357
56443W        W28169  32.064  24.938  14.431
56444W        W28170  10.350  30.988   1.212
56445W        W28171  30.570  21.546   0.277
56446W        W28172  19.638  19.155  13.814
56447W        W28173  33.461   9.251   0.541
56448W        W28174   0.077  15.335  13.277
56449W        W28175   8.166  33.098   4.132
56450W        W28176  11.767  18.145   1.744
56451W        W28177  35.464  21.675   4.645
56452W        W28178  12.621  23.831   3.357
56453W        W28179  32.993  39.850   3.251
56454W        W28180  19.213  23.026   4.167
56455W        W28181  35.519  40.269   1.610
56456W        W28182  35.072  22.691   2.804
56457W        W28183  43.918  11.051  12.873
56458W        W28184  40.271   3.225  13.731
56459W        W28185  17.702  19.273  13.083
56460W        W28186  23.962   6.142   0.814
56461W        W28187   7.489  44.008   0.501
56462W        W28188   1.795  20.839   1.751
56463W        W28189   6.675  44.770  13.919
56464W        W28190  35.995  38.435  12.529
56465W        W28191  34.150  12.723   1.746
56466W        W28192  43.455  36.634  13.806
56467W        W28193  12.130  18.798  14.737
56468W        W28194  15.994  15.304   0.061
56469W        W28195  10.858  24.298   3.367
56470W        W28196   2.928  22.605  10.775
56471W        W28197  27.519  42.907   2.232
56472W        W28198  20.841   2.413   3.775
56473W        W28199  39.313  24.015   1.830
56474W        W28200  19.189  38.760   1.319
56475W        W28201  23.117  35.083   1.898
56476W        W28202  23.093  41.263   4.206
56477W        W28203   8.826  15.568  14.035
56478W        W28204  41.304  35.357  13.927
56479W        W28205  41.337   5.994  12.157
56480W        W28206  43.986  37.966   0.275
56481W        W28207  25.153  30.591   0.987
56482W        W28208   6.281  40.678  14.494
56483W        W28209  41.397  33.555  10.676
56484W        W28210  20.594   9.469  11.590
56485W        W28211  31.372  35.440   0.275
56486W        W28212  38.390   8.516  11.950
56487W        W28213  22.520  34.164  14.011
56488W        W28214   1.465  23.543  14.879
56489W        W28215   2.333   7.893  11.150
56490W        W28216  40.880  13.511   2.459
56491W        W28217  14.898  33.364   3.087
56492W        W28218  27.420  25.166  12.021
56493W        W28219  13.777  33.298   1.780
56494W        W28220  20.184  21.171   1.215
56495W        W28221  31.230  12.091  12.170
56496W        W28222  33.607  28.136  10.195
56497W        W28223  11.430  26.639  10.379
56498W        W28224   0.261  19.120  12.905
56499W        W28225  16.761  11.361  11.776
56500W        W28226   6.867  14.134   1.773
56501W        W28227  14.257  25.544   1.882
56502W        W28228  21.618  32.940  10.519
56503W        W28229   8.356  37.967   3.592
56504W        W28230  42.770  27.658   0.912
56505W        W28231  37.664  16.555   2.341
56506W        W28232  39.275  42.290  11.196
56507W        W28233  23.868  37.995   1.948
56508W        W28234  30.682  28.576   3.705
56509W        W28235  41.753   3.233   1.831
56510W        W28236  12.268  16.283   3.724
56511W        W28237  16.783  33.665  13.773
56512W        W28238   1.316  16.234  14.463
56513W        W28239  34.928  23.259   2.687
56514W        W28240  18.992  35.292  11.142
56515W        W28241  24.438  29.614  11.527
56516W        W28242   3.394  14.337   1.807
56517W        W28243  11.404  38.410   1.841
56518W        W28244  38.760  34.077   0.311
56519W        W28245  34.883   0.785  12.877
56520W        W28246  20.195  19.794   2.385
56521W        W28247  44.937  10.737   0.251
56522W        W28248  28.905   5.438   3.730
56523W        W28249   9.211  32.161   2.847
56524W        W28250  32.636   8.165   1.200
56525W        W28251  31.910  24.696   2.250
56526W        W28252  33.157  37.948   3.278
56527W        W28253  23.972  36.510   0.375
56528W        W28254  38.352  12.604   4.733
56529W        W28255  13.259  44.756   1.480
56530W        W28256   5.983  40.487  11.134
56531W        W28257  42.891  36.893   2.703
56532W        W28258  26.146  13.348   0.499
56533W        W28259   0.353  30.527   4.365
56534W        W28260   3.038  24.506  14.177
56535W        W28261  38.278   9.051   3.688
56536W        W28262  27.889  29.841  14.963
56537W        W28263  24.065  23.385  14.270
56538W        W28264  41.212  21.804   3.788
56539W        W28265  18.727  32.923  13.912
56540W        W28266  24.001  12.594   2.080
56541W        W28267  14.565  43.110   1.238
56542W        W28268  27.594  12.360   0.796
56543W        W28269   0.763  32.427  13.791
56544W        W28270   6.768  11.551  14.712
56545W        W28271  17.309  36.397   0.780
56546W        W28272  31.784   3.627  14.378
56547W        W28273   2.067  21.770   2.055
56548W        W28274  17.915  15.764   4.890
56549W        W28275  18.084  14.664   0.840
56550W        W28276  29.633  40.010  13.270
56551W        W28277  13.286  44.908   1.993
56552W        W28278   7.233  15.758  12.431
56553W        W28279   9.945  31.075  10.793
56554W        W28280  14.207  36.070  10.563
56555W        W28281  29.065  17.241  10.366
56556W        W28282   4.320   2.783  13.603
56557W        W28283  26.448  41.411  13.771
56558W        W28284  11.370  37.390   4.092
56559W        W28285  28.661  16.167   1.503
56560W        W28286  13.140   1.374  12.241
56561W        W28287   7.124  32.637   2.782
56562W        W28288   3.836  44.345   4.521
56563W        W28289  34.293  17.269  11.672
56564W        W28290  44.543  21.683  11.217
56565W        W28291  44.868  18.237   2.693
56566W        W28292  25.509   4.706   1.691
56567W        W28293  34.158  31.638   1.459
56568W        W28294   7.895  10.456  14.740
56569W        W28295  43.407  41.039   4.917
56570W        W28296   0.882   7.678   2.343
56571W        W28297  17.838  27.475   4.449
56572W        W28298   9.216  15.823   2.844
56573W        W28299  31.402  30.139  12.460
56574W        W28300  19.177  29.222  13.316
56575W        W28301   8.867  21.780   4.898
56576W        W28302   4.703  41.592  14.580
56577W        W28303  20.819  14.939   5.083
56578W        W28304  38.423   6.671   0.737
56579W        W28305  22.669  34.831  11.592
56580W        W28306  19.529  42.757  11.490
56581W        W28307   5.483  12.800   1.360
56582W        W28308  20.967  14.618   2.770
56583W        W28309  21.496  41.037   2.892
56584W        W28310   3.031   4.190   2.119
56585W        W28311  28.821  17.724  11.536
56586W        W28312   1.272   4.926  10.434
56587W        W28313   5.966   3.212  13.805
56588W        W28314  36.944  31.585  14.419
56589W        W28315  36.888  34.337   1.253
56590W        W28316  23.639   0.905   4.013
56591W        W28317  21.126  27.905   2.241
56592W        W28318  10.843  28.861   2.535
56593W        W28319  17.626  25.934  14.914
56594W        W28320  15.251  15.759  12.313
56595W        W28321   7.195   6.224  13.748
56596W        W28322  12.016  43.387   3.967
56597W        W28323  31.949  18.092   1.412
56598W        W28324   1.837  41.873   4.014
56599W        W28325   7.757  40.464   4.163
56600W        W28326  32.423  27.953  14.250
56601W        W28327  34.902  39.571   3.177
56602W        W28328  43.228  33.493  13.416
56603W        W28329  30.630  12.887   4.561
56604W        W28330  16.357  27.652   0.898
56605W        W28331  19.159  27.655  12.334
56606W        W28332  43.451  24.178  11.145
56607W        W28333  11.858  29.123  13.046
56608W        W28334  43.218  32.962   2.311
56609W        W28335  16.966  38.145  10.925
56610W        W28336  29.530  19.662   2.397
56611W        W28337  44.213  10.698   4.404
56612W        W28338  10.930  43.708  11.207
56613W        W28339  21.859  33.031   4.659
56614W        W28340  17.048  25.525  14.427
56615W        W28341  11.318  41.891   3.878
56616W        W28342  35.335  35.390   4.042
56617W        W28343  27.647  41.091  11.049
56618W        W28344  25.988   2.425  11.144
56619W        W28345  41.451  21.079  12.360
56620W        W28346   8.324  18.616   2.587
56621W        W28347  14.432  38.142   0.993
56622W        W28348   0.236   1.826   3.151
56623W        W28349  13.801  14.750  13.860
56624W        W28350  11.162  12.777   0.334
56625W        W28351  37.325  25.584   1.679
56626W        W28352   5.160  18.669   1.966
56627W        W28353  36.402  35.579   1.118
56628W        W28354   7.563   6.350   1.298
56629W        W28355  19.127  34.187  14.912
56630W        W28356   9.236  20.641   1.645
56631W        W28357  31.979  25.157  13.924
56632W        W28358   8.939  38.546  13.342
56633W        W28359  35.070  28.029  13.429
56634W        W28360   5.015  10.817   4.651
56635W        W28361  35.049   5.104   1.652
56636W        W28362  25.554  14.517  11.982
56637W        W28363  20.987   8.143  11.975
56638W        W28364  16.293   2.234   0.363
56639W        W28365  41.406  38.720   4.734
56640W        W28366  41.982  44.908  12.481
56641W        W28367   1.238  33.039   3.315
56642W        W28368  28.941  14.179  10.909
56643W        W28369  23.278  12.678  12.364
56644W        W28370   4.002  40.548   0.732
56645W        W28371   3.000   9.692  12.440
56646W        W28372   8.154  42.896  14.769
56647W        W28373  36.235   2.470   1.907
56648W        W28374   4.975  13.098  14.013
56649W        W28375   8.863  34.901  11.618
56650W        W28376  29.569   5.285  12.148
56651W        W28377  40.026  21.220  13.584
56652W        W28378   8.421  27.242   4.179
56653W        W28379  36.651  40.355  14.813
56654W        W28380  31.936  40.892  14.274
56655W        W28381  32.197  24.093  11.125
56656W        W28382  20.085   2.971   4.527
56657W        W28383  44.439  43.039   0.913
56658W        W28384  35.607  21.466   1.474
56659W        W28385  41.051   4.088  14.748
56660W        W28386   7.614   8.471  10.365
56661W        W28387  27.924  22.838  14.003
56662W        W28388   9.248  24.734   4.595
56663W        W28389  26.575  17.722   1.338
56664W        W28390   6.853  25.987   0.433
56665W        W28391  42.350  12.178  10.752
56666W        W28392  34.993  21.223  14.397
56667W        W28393  34.011  11.176  14.360
56668W        W28394  29.884  16.940  14.311
56669W        W28395   0.887  12.719   3.901
56670W        W28396  15.588   7.774   2.109
56671W        W28397  35.642  42.758  13.876
56672W        W28398  36.817   1.364  14.981
56673W        W28399   8.153  11.850   4.310
56674W        W28400  35.004  12.097   0.141
56675W        W28401  30.089  12.076   0.454
56676W        W28402  20.487  10.119   0.725
56677W        W28403  22.186   0.554  13.369
56678W        W28404  41.506  13.914   2.966
56679W        W28405  23.627  19.548  13.952
56680W        W28406  27.128  33.382  11.530
56681W        W28407  18.871  18.771   3.149
56682W        W28408   3.322  31.386   4.530
56683W        W28409   6.888   7.174  10.653
56684W        W28410  19.215  37.080  14.810
56685W        W28411   8.662   2.881  14.306
56686W        W28412   0.094  24.577   3.782
56687W        W28413   6.180  21.039   5.413
56688W        W28414  25.228   8.542  13.758
56689W        W28415   7.443   5.353  12.500
56690W        W28416  23.041  38.453   4.607
56691W        W28417  19.462  23.718   2.626
56692W        W28418   6.675  28.053  14.060
56693W        W28419   5.361  21.468   2.348
56694W        W28420  31.048  25.728   4.133
56695W        W28421  44.936  43.017   3.188
56696W        W28422  33.560  41.647   2.726
56697W        W28423   0.295   9.838  14.371
56698W        W28424  31.218  20.361  12.573
56699W        W28425  26.032  42.005   3.189
56700W        W28426  26.683  11.334   3.326
56701W        W28427   7.405  37.647  11.651
56702W        W28428  38.925  35.076   4.873
56703W        W28429  43.689  12.195  11.750
56704W        W28430  30.730  20.223  12.545
56705W        W28431  19.606   0.359   0.926
56706W        W28432  10.397  23.218  12.118
56707W        W28433  12.215  22.793  13.390
56708W        W28434  33.331   5.298   3.276
56709W        W28435  29.970  39.340  11.688
56710W        W28436  10.621  17.014  14.495
56711W        W28437   4.223   2.376  11.481
56712W        W28438   6.243  35.700   1.307
56713W        W28439  21.011  20.917   1.206
56714W        W28440  23.956   0.970  14.302
56715W        W28441  37.329  29.099   2.219
56716W        W28442  34.942  35.529   4.397
56717W        W28443  44.224  21.270  11.304
56718W        W28444  23.142  39.499  10.619
56719W        W28445  23.186  12.399  13.466
56720W        W28446  25.427  42.916  12.060
56721W        W28447  32.921   9.802  13.922
56722W        W28448  41.527  43.919   2.031
56723W        W28449  26.095   4.786  14.913
56724W        W28450  14.102  23.448  11.507
56725W        W28451  21.074   3.722  13.750
56726W        W28452   4.323  22.739  13.201
56727W        W28453  34.905  30.212  13.621
56728W        W28454  26.090  43.634  12.432
56729W        W28455  14.537   6.746   3.056
56730W        W28456  28.538   7.731  13.231
56731W        W28457   2.306  26.649   1.639
56732W        W28458  38.768  22.567  12.033
56733W        W28459  30.108  21.668  11.230
56734W        W28460  10.375  34.480   3.590
56735W        W28461  17.394  42.525  12.488
56736W        W28462  13.003  27.538   0.276
56737W        W28463  31.732  38.177  11.585
56738W        W28464  12.795  17.297  13.006
56739W        W28465  12.559  14.153   2.655
56740W        W28466   6.478  14.617   0.492
56741W        W28467  40.926  42.102   3.656
56742W        W28468  12.083  26.181   3.234
56743W        W28469   3.629  31.664  11.991
56744W        W28470  32.388  20.643   4.782
56745W        W28471  36.864   4.681  12.014
56746W        W28472  18.715  29.959  12.853
56747W        W28473  38.295  19.523   1.638
56748W        W28474  24.846   2.223  11.875
56749W        W28475  34.465  13.763   2.309
56750W        W28476  17.076   1.984   3.690
56751W        W28477  31.460  41.548   5.013
56752W        W28478  41.711   6.509   1.394
56753W        W28479  19.645  25.459  13.775
56754W        W28480  41.541  44.456   4.628
56755W        W28481  37.877  35.519  14.863
56756W        W28482  27.316  22.753   2.336
56757W        W28483   1.913  30.599  14.828
56758W        W28484  24.802   1.151  10.287
56759W        W28485  26.118  25.757  13.317
56760W        W28486   6.454  28.688   4.047
56761W        W28487  19.001  31.545  14.259
56762W        W28488   6.592  44.941  12.632
56763W        W28489  36.308   1.422   2.210
56764W        W28490  20.672  42.277  13.475
56765W        W28491  20.582  22.185  12.430
56766W        W28492   6.371  28.896  13.163
56767W        W28493  38.545   0.264  11.664
56768W        W28494  17.139  40.854   3.901
56769W        W28495   5.722  23.569   1.214
56770W        W28496   7.775  27.480   4.656
56771W        W28497  18.835  24.230  12.527
56772W        W28498  44.640  17.639  11.936
56773W        W28499  13.393  40.947   3.549
56774W        W28500  15.773   7.712   1.192
56775W        W28501  39.996  14.763  11.191
56776W        W28502  38.837   8.599  12.185
56777W        W28503  27.104   3.013  11.044
56778W        W28504  39.865   5.821  11.473
56779W        W28505   9.106  30.692   4.165
56780W        W28506  14.302  17.050  11.554
56781W        W28507   2.005  35.948  12.115
56782W        W28508  20.260  31.445  12.449
56783W        W28509  23.942  37.833   4.075
56784W        W28510  24.685  34.530   4.060
56785W        W28511  25.690  42.561   5.165
56786W        W28512   1.279  40.805  14.459
56787W        W28513   8.712  20.337   4.076
56788W        W28514  42.056  33.392   1.179
56789W        W28515  37.016  44.140   4.532
56790W        W28516  35.195  11.225   3.712
56791W        W28517  17.668  16.530   4.317
56792W        W28518  25.347  22.572  13.371
56793W        W28519  10.389  36.796   1.248
56794W        W28520  38.486  31.895  10.396
56795W        W28521  43.999  14.882  10.806
56796W        W28522  39.772  16.786  11.543
56797W        W28523  27.559   7.964   2.890
56798W        W28524  29.179   1.256   1.326
56799W        W28525   4.258  17.806  12.189
56800W        W28526  36.510  10.113   2.447
56801W        W28527  43.888   8.895   1.032
56802W        W28528  15.223  39.162  10.653
56803W        W28529  25.664  13.268  12.902
56804W        W28530  17.850  24.064  12.453
56805W        W28531  18.220  24.685   0.025
56806W        W28532  34.483  31.022  11.144
56807W        W28533   8.350  30.851   0.354
56808W        W28534  29.250  27.534   4.110
56809W        W28535  22.304  35.820  14.280
56810W        W28536   5.453  19.987  14.415
56811W        W28537  39.311   7.607   1.952
56812W        W28538   6.937  14.902  10.206
56813W        W28539  27.103  44.067   0.403
56814W        W28540  25.116  22.645   0.232
56815W        W28541  37.293  26.168  12.571
56816W        W28542  32.915  37.399  10.668
56817W        W28543  43.914  19.774  11.179
56818W        W28544  11.017  38.106  14.957
56819W        W28545  26.168  20.234  11.083
56820W        W28546  20.666  10.731  12.442
56821W        W28547   4.657  37.785  13.977
56822W        W28548  26.014  31.148   0.840
56823W        W28549  12.233  20.705  13.041
56824W        W28550  35.575   0.395  11.171
56825W        W28551  13.268  10.719  12.383
56826W        W28552  43.938  31.930  11.012
56827W        W28553  25.953  14.854  11.172
56828W        W28554  36.476   7.648   0.368
56829W        W28555  18.747  10.308   4.073
56830W        W28556   1.425   0.943   5.088
56831W        W28557  36.112   8.461   0.701
56832W        W28558   9.845  33.834   2.707
56833W        W28559  10.814  12.183  13.400
56834W        W28560  14.748  34.988   0.349
56835W        W28561  15.353  44.771  14.512
56836W        W28562  40.791  31.345  10.673
56837W        W28563  13.869  11.250  14.468
56838W        W28564  19.217  10.279   2.230
56839W        W28565  29.904  28.082  14.893
56840W        W28566  20.154  43.750  10.612
56841W        W28567  41.727  40.834   2.862
56842W        W28568   3.464  28.471  11.551
56843W        W28569  27.638  14.209   3.193
56844W        W28570  35.401  41.423  11.455
56845W        W28571  16.064  24.681  13.895
56846W        W28572  40.829  31.361  14.552
56847W        W28573  36.294  26.224   4.215
56848W        W28574   7.022  15.882   3.719
56849W        W28575  35.101   8.020   4.392
56850W        W28576  41.319   3.571   4.104
56851W        W28577   5.862  20.656  13.817
56852W        W28578  42.693  11.665   2.702
56853W        W28579   4.421  35.271  14.810
56854W        W28580  33.338  30.065   4.144
56855W        W28581   7.958   6.951   5.028
56856W        W28582  11.519  13.816  13.081
56857W        W28583   8.651  23.775  11.639
56858W        W28584  33.929  10.201  13.643
56859W        W28585  32.044   2.383   2.970
56860W        W28586   2.511   6.323   2.419
56861W        W28587   0.300  19.959   4.100
56862W        W28588  39.998  22.770  13.560
56863W        W28589  27.546  25.107   0.284
56864W        W28590  30.428   4.708   2.026
56865W        W28591   8.375  21.959  13.918
56866W        W28592  32.858  25.275   2.242
56867W        W28593  43.929  40.833  13.548
56868W        W28594   0.866  32.630  12.791
56869W        W28595  41.837   7.233  13.510
56870W        W28596  18.391  35.853   0.339
56871W        W28597   8.363  42.869  12.345
56872W        W28598  34.146  23.890  11.388
56873W        W28599  26.898   4.822  12.949
56874W        W28600  42.969  39.238   0.757
56875W        W28601  25.200   6.690  11.210
56876W        W28602  23.760  22.725   1.825
56877W        W28603  42.962  11.547  14.899
56878W        W28604  16.012  12.788  13.370
56879W        W28605  32.095  23.178   1.241
56880W        W28606  43.498  35.985   9.744
56881W        W28607   1.561  14.186  12.473
56882W        W28608  35.994  15.114  12.053
56883W        W28609  17.262  41.302   3.636
56884W        W28610  36.072  11.324   3.205
56885W        W28611  43.852  38.498   0.517
56886W        W28612   4.692  13.762  11.959
56887W        W28613   7.261  28.565  12.208
56888W        W28614  29.439  28.627   2.281
56889W        W28615   6.216  19.732   1.409
56890W        W28616   8.146   5.289   4.638
56891W        W28617  21.638  21.617  11.441
56892W        W28618  11.112  16.081  14.792
56893W        W28619  26.270  44.785  10.688
56894W        W28620  29.114  15.510  10.681
56895W        W28621  18.707  25.711   1.453
56896W        W28622  37.805   0.103   4.871
56897W        W28623  28.495   1.731  13.249
56898W        W28624  30.445   6.362   3.166
56899W        W28625  12.680  40.773   2.318
56900W        W28626   8.387  21.643  14.329
56901W        W28627   6.952   2.416   2.629
56902W        W28628  18.735  42.703  14.504
56903W        W28629  10.332  35.597  14.883
56904W        W28630  43.506  16.657   1.756
56905W        W28631  17.791  12.948   2.357
56906W        W28632  18.207   0.903   3.921
56907W        W28633  35.807  33.455  13.582
56908W        W28634  34.426  29.152   4.227
56909W        W28635  38.165  31.934  14.990
56910W        W28636  14.845  40.049  11.566
56911W        W28637  27.654  35.114   2.694
56912W        W28638  39.923  33.554  14.999
56913W        W28639  36.374  43.723  12.534
56914W        W28640   4.091  31.072   2.862
56915W        W28641   9.431   0.668  12.800
56916W        W28642  11.382  19.518  13.277
56917W        W28643   8.093  38.644  12.487
56918W        W28644  17.129  28.291  12.790
56919W        W28645   9.668   2.605   0.788
56920W        W28646  31.034  24.406   3.877
56921W        W28647  16.999  13.222   1.393
56922W        W28648   7.792  43.272  14.325
56923W        W28649  28.868   1.777   3.090
56924W        W28650  13.251  28.639   4.530
56925W        W28651  12.424   9.863   3.262
56926W        W28652  19.563  28.505   4.118
56927W        W28653  42.414  39.357   3.530
56928W        W28654  44.774  29.692  10.768
56929W        W28655  41.250  36.600   0.913
56930W        W28656  40.907  36.488  10.609
56931W        W28657  44.823  29.302   1.364
56932W        W28658   0.906   7.721  13.821
56933W        W28659  24.831  42.986  11.683
56934W        W28660  32.396  16.275  10.687
56935W        W28661  13.599   3.794   4.707
56936W        W28662  38.644   2.258   4.595
56937W        W28663   3.958  16.556  11.624
56938W        W28664  43.929  11.126   2.750
56939W        W28665  43.812  40.997  11.411
56940W        W28666  40.879   0.270   4.473
56941W        W28667   1.903  38.296   3.608
56942W        W28668  12.060  12.919   1.282
56943W        W28669   8.361  29.081  11.784
56944W        W28670  32.330  37.268   1.607
56945W        W28671   6.204  27.980   2.606
56946W        W28672  22.134  15.071   9.582
56947W        W28673  25.742  13.951  10.552
56948W        W28674  44.901   0.266   0.531
56949W        W28675  38.356  32.958  13.597
56950W        W28676  22.222  15.156  14.777
56951W        W28677   4.530  34.228  13.042
56952W        W28678  21.114  14.308   2.227
56953W        W28679  19.157   2.462  12.335
56954W        W28680  29.109  17.220  14.057
56955W        W28681  35.250  19.289   2.945
56956W        W28682  31.131  39.447   0.948
56957W        W28683   8.666  21.506   1.529
56958W        W28684  28.120   5.777  10.321
56959W        W28685  36.843   0.266   1.948
56960W        W28686  38.060   3.254   0.793
56961W        W28687   1.914  23.616   4.615
56962W        W28688  26.249  13.230   4.302
56963W        W28689  24.102   4.458  14.483
56964W        W28690  37.107  23.892  13.089
56965W        W28691  32.870   5.020   0.776
56966W        W28692  12.321  32.631   4.108
56967W        W28693  39.161  31.518  12.597
56968W        W28694  42.441  39.151  11.055
56969W        W28695  19.490   3.766  13.321
56970W        W28696  42.541  10.652  13.820
56971W        W28697  41.821  17.554   0.935
56972W        W28698  27.419  44.295   3.368
56973W        W28699  44.288   5.609   3.845
56974W        W28700  41.562  40.626  11.666
56975W        W28701  31.015  28.964   2.247
56976W        W28702  12.795  36.055   2.172
56977W        W28703  44.792  16.400  10.476
56978W        W28704  35.793  37.462  13.997
56979W        W28705  41.557  31.506  14.006
56980W        W28706   7.649   3.979  13.051
56981W        W28707  28.002  34.296   1.932
56982W        W28708  33.175   0.730  12.126
56983W        W28709  32.123  26.565   1.750
56984W        W28710   6.794  31.698  11.213
56985W        W28711  36.857  36.601  13.865
56986W        W28712   2.559  34.352  11.541
56987W        W28713   8.668   4.384   4.071
56988W        W28714  20.163  41.309  13.198
56989W        W28715  38.943  18.749   2.765
56990W        W28716  22.443  37.898   2.908
56991W        W28717   6.767  17.314  12.163
56992W        W28718   7.683  21.784  14.918
56993W        W28719  28.787  20.113   3.704
56994W        W28720  37.595  11.241   0.905
56995W        W28721  27.231  25.326   3.809
56996W        W28722  36.940  26.526  11.534
56997W        W28723  25.389  36.412  14.958
56998W        W28724   7.371  41.863   1.310
56999W        W28725  43.886  12.091  13.272
57000W        W28726   2.703  35.588  14.456
57001W        W28727  44.370  11.026   1.856
57002W        W28728  39.913  34.366  12.514
57003W        W28729  24.445  16.351   0.331
57004W        W28730  16.541  13.098  12.497
57005W        W28731  37.446  40.711   2.473
57006W        W28732  41.036  12.076  11.031
57007W        W28733  36.184  29.978  14.207
57008W        W28734  28.905   0.135   3.656
57009W        W28735  21.666   8.603  12.715
57010W        W28736  27.216  20.569  13.861
57011W        W28737  29.119  16.296   1.894
57012W        W28738  15.298  19.218  10.718
57013W        W28739   3.499  37.546   2.177
57014W        W28740   4.680  35.786  12.589
57015W        W28741  20.030  33.983  10.518
57016W        W28742   5.719  16.239  11.266
57017W        W28743  12.258   6.425  13.647
57018W        W28744  37.849  18.026  10.772
57019W        W28745   2.446  19.053   4.145
57020W        W28746  24.991  35.660   0.253
57021W        W28747  28.541  10.370   4.129
57022W        W28748  27.104  42.423  12.373
57023W        W28749  41.598  26.444  11.491
57024W        W28750  33.628  27.077   4.101
57025W        W28751  29.183  29.418  14.637
57026W        W28752   4.526  39.315  13.078
57027W        W28753   7.665   5.110   2.452
57028W        W28754  34.439  10.872  14.416
57029W        W28755  19.640  23.189   3.875
57030W        W28756  43.957   3.665  13.474
57031W        W28757   9.385  21.954   4.862
57032W        W28758   2.833  30.774   3.772
57033W        W28759  13.690  31.977   3.839
57034W        W28760  24.564  18.774  11.855
57035W        W28761   9.813  22.006   4.499
57036W        W28762  32.040   1.991  11.620
57037W        W28763  30.695  13.534  14.752
57038W        W28764  44.358  38.437   3.579
57039W        W28765  11.102  42.525  13.877
57040W        W28766   1.889   1.248  12.809
57041W        W28767  24.455  13.796  11.549
57042W        W28768   0.649  35.856  10.247
57043W        W28769   9.650  15.540  12.017
57044W        W28770  37.812  27.306   1.876
57045W        W28771  43.097  42.569  14.517
57046W        W28772  33.881  42.492   5.236
57047W        W28773  26.455  19.782   1.697
57048W        W28774   7.073  39.766  11.241
57049W        W28775  22.609   2.922   4.049
57050W        W28776  35.298  26.180   1.441
57051W        W28777  41.511  18.625   1.705
57052W        W28778  41.293  22.447   1.363
57053W        W28779  17.545  41.034  13.358
57054W        W28780  24.871  11.691   4.601
57055W        W28781  21.396  36.445   1.722
57056W        W28782   5.359  14.647  12.076
57057W        W28783  31.990  27.301   3.260
57058W        W28784  44.304  33.578   3.623
57059W        W28785  31.342  22.760   9.994
57060W        W28786  29.665  27.979   0.512
57061W        W28787   1.720  44.455  12.437
57062W        W28788  26.848  43.718   4.701
57063W        W28789  42.881  16.655   4.826
57064W        W28790  20.153  43.112   1.458
57065W        W28791  17.554  26.788   1.330
57066W        W28792  37.657  19.563  12.797
57067W        W28793   2.002  40.428  13.815
57068W        W28794  16.169  15.598  13.399
57069W        W28795  18.657  20.781   2.617
57070W        W28796  12.157  43.516   0.748
57071W        W28797  32.107  26.929   2.743
57072W        W28798  26.996  37.532   4.886
57073W        W28799  30.355  25.254  13.025
57074W        W28800  44.255  12.068   1.737
57075W        W28801   1.721  32.865  14.067
57076W        W28802  12.095  23.501  11.982
57077W        W28803   0.745  32.160   4.559
57078W        W28804  37.897  12.317  14.413
57079W        W28805  16.840  43.286   4.753
57080W        W28806  16.067  25.435  13.537
57081W        W28807  24.829  32.104  11.998
57082W        W28808  31.841  31.877   0.265
57083W        W28809  10.121   9.506   4.601
57084W        W28810   5.420  12.034  14.962
57085W        W28811  24.129  39.898  13.022
57086W        W28812   6.367  12.251   0.122
57087W        W28813   8.893  10.912   4.269
57088W        W28814  15.722  34.691  13.108
57089W        W28815  35.416   0.233   4.740
57090W        W28816   1.614  11.621   5.100
57091W        W28817  26.254  42.248   2.314
57092W        W28818  15.647  25.241   0.544
57093W        W28819  22.479  19.783   4.663
57094W        W28820  16.143   0.030   2.185
57095W        W28821  15.592  37.637   4.395
57096W        W28822  42.701  36.887   0.711
57097W        W28823  31.848  39.441  14.000
57098W        W28824  29.529   6.490   3.140
57099W        W28825  32.106  42.745   4.104
57100W        W28826  17.306  41.978   1.808
57101W        W28827  31.923  23.208   9.763
57102W        W28828  27.379  13.518   1.724
57103W        W28829  25.303  34.938   0.794
57104W        W28830   6.453  36.567   2.027
57105W        W28831   9.293  34.481  10.388
57106W        W28832   4.287   4.586  13.394
57107W        W28833  11.386  20.942   4.109
57108W        W28834   1.265   5.952  14.397
57109W        W28835  12.312  35.709  10.788
57110W        W28836   9.860  42.003  14.558
57111W        W28837  22.564  28.354  11.574
57112W        W28838   6.512  26.929   4.853
57113W        W28839  34.185  37.086   0.701
57114W        W28840   5.427   0.464   3.271
57115W        W28841  22.543  43.767   1.147
57116W        W28842  43.236   5.750   1.148
57117W        W28843  15.250  26.713  10.074
57118W        W28844   2.700  17.856  10.000
57119W        W28845  23.654   5.336  14.372
57120W        W28846  15.163  35.771  12.941
57121W        W28847   6.607  22.748   1.846
57122W        W28848  17.419  40.089   3.722
57123W        W28849   8.885   3.226  13.963
57124W        W28850  40.538  27.503   3.218
57125W        W28851   7.859  35.333   5.456
57126W        W28852  12.189   4.527  12.534
57127W        W28853  26.682  22.260  10.790
57128W        W28854   4.811  42.292   2.803
57129W        W28855   6.243   5.313   0.960
57130W        W28856  33.466  29.600   0.008
57131W        W28857  17.308   8.320   0.414
57132W        W28858  22.909  41.758   3.450
57133W        W28859   5.401   0.182  13.875
57134W        W28860   0.603  16.487   4.497
57135W        W28861  18.854  38.675   3.621
57136W        W28862  32.136  23.039  12.101
57137W        W28863  22.540  26.997   0.811
57138W        W28864  35.246  31.823  13.978
57139W        W28865   8.897  14.202   4.139
57140W        W28866  36.473  28.241   3.123
57141W        W28867   2.291  11.512   2.345
57142W        W28868  41.585   1.971  12.023
57143W        W28869  33.431  16.717  12.558
57144W        W28870  11.713  41.396  10.788
57145W        W28871  22.629   3.138   1.356
57146W        W28872  11.140   4.361   4.739
57147W        W28873  30.997  12.905  14.245
57148W        W28874  44.490  30.641  14.403
57149W        W28875  23.217  10.180  12.674
57150W        W28876  16.153  24.937  11.358
57151W        W28877   6.391  12.897   2.428
57152W        W28878  23.797   5.942  12.487
57153W        W28879  19.166   3.973  12.003
57154W        W28880  15.523  39.938  13.999
57155W        W28881   2.872  16.853   0.988
57156W        W28882   4.445  33.413  11.547
57157W        W28883   1.872  41.046  11.960
57158W        W28884  32.630  43.074   0.064
57159W        W28885  20.116   8.237   1.912
57160W        W28886   2.817  16.102   2.807
57161W        W28887  20.358  18.652  11.440
57162W        W28888  15.624  26.151  11.578
57163W        W28889  26.516   2.959   4.605
57164W        W28890  43.756   6.821  10.861
57165W        W28891  23.877  41.623   4.478
57166W        W28892   6.921  15.252  10.663
57167W        W28893  33.886  30.473  13.902
57168W        W28894   3.651  32.536   4.699
57169W        W28895  42.834  42.274   2.236
57170W        W28896  22.023  14.363  11.964
57171W        W28897  11.335  15.145   4.138
57172W        W28898   4.934   2.940   3.194
57173W        W28899  39.943  39.740   1.293
57174W        W28900  27.534  32.100   1.891
57175W        W28901  13.340  20.690   4.283
57176W        W28902  39.518  11.658  12.420
57177W        W28903  41.365  30.845  13.035
57178W        W28904  25.319  40.778  14.269
57179W        W28905  30.997   4.697  14.701
57180W        W28906  41.890  34.988  11.570
57181W        W28907  20.754  17.111   4.418
57182W        W28908  23.300  11.379   0.437
57183W        W28909   1.806  37.392  10.644
57184W        W28910   7.697  16.446  12.812
57185W        W28911  10.786  35.402  10.922
57186W        W28912  31.090  28.646  14.378
57187W        W28913  39.913  13.244   4.608
57188W        W28914  25.891  26.066  12.394
57189W        W28915   8.852  28.519   2.689
57190W        W28916  36.101  18.133   2.748
57191W        W28917   6.270   0.675   2.980
57192W        W28918  22.263  37.400   2.850
57193W        W28919  23.085   1.621   1.370
57194W        W28920  10.319  39.076   0.778
57195W        W28921  30.056  38.888   1.844
57196W        W28922   4.197   0.837   2.640
57197W        W28923  21.277  35.975  11.588
57198W        W28924  17.774  26.112   0.824
57199W        W28925  37.730   3.406   1.484
57200W        W28926  41.742  26.852   4.898
57201W        W28927  14.018   2.851  14.055
57202W        W28928   9.882  16.210  11.726
57203W        W28929  24.255  22.051   0.386
57204W        W28930  14.458  42.384   1.612
57205W        W28931  29.386  39.517   4.607
57206W        W28932  16.110  11.059  11.519
57207W        W28933   7.658   9.371   4.195
57208W        W28934  34.932  25.380   3.286
57209W        W28935  15.542  14.725  14.318
57210W        W28936   7.495   4.795   2.071
57211W        W28937  14.872  35.560   0.345
57212W        W28938  38.527  19.764  12.891
57213W        W28939   9.291  17.883  10.951
57214W        W28940  27.835  30.582  13.055
57215W        W28941  18.033  33.364   1.487
57216W        W28942  44.560  33.111   1.751
57217W        W28943  15.540  43.913  12.073
57218W        W28944  37.956  14.229   0.888
57219W        W28945  34.069   9.197   3.708
57220W        W28946   8.179  21.287   2.713
57221W        W28947  37.514  18.169   4.261
57222W        W28948  15.565   5.573   2.181
57223W        W28949   3.792  18.550  11.655
57224W        W28950  25.094   2.451  14.845
57225W        W28951   2.204  27.829  12.803
57226W        W28952  38.576   7.848  12.533
57227W        W28953  18.057  44.927   3.133
57228W        W28954  32.565  12.656   0.866
57229W        W28955   3.623   4.117   2.790
57230W        W28956  40.098  42.409   1.118
57231W        W28957  20.651  14.087   2.355
57232W        W28958   5.549  19.414   0.319
57233W        W28959  44.994  29.343   2.339
57234W        W28960  10.347   9.827   1.258
57235W        W28961  19.201  39.042  11.431
57236W        W28962  17.553   3.837   0.001
57237W        W28963  43.975  16.631   0.328
57238W        W28964  19.279  34.012  12.350
57239W        W28965   8.140   0.761  13.351
57240W        W28966   4.488  25.531   3.090
57241W        W28967  33.009  31.371   4.606
57242W        W28968   7.344   7.261   2.810
57243W        W28969  40.022  32.403  14.066
57244W        W28970   2.368  33.050  11.303
57245W        W28971  19.084   8.152   1.674
57246W        W28972  37.350  33.161   3.610
57247W        W28973  41.563   2.088   0.244
57248W        W28974  23.840  13.307   3.222
57249W        W28975  21.203  27.993  12.531
57250W        W28976   4.962  32.090   1.731
57251W        W28977  27.031   3.569   2.136
57252W        W28978  40.574   9.317  11.576
57253W        W28979  37.862  17.170  11.219
57254W        W28980  19.625  27.408  13.940
57255W        W28981  27.447  10.409   4.057
57256W        W28982  26.239  39.768  11.124
57257W        W28983   3.962  23.821   4.782
57258W        W28984  15.317  11.054   0.916
57259W        W28985  10.734   2.728  14.322
57260W        W28986  25.047  36.301   3.775
57261W        W28987   1.153  41.760  13.416
57262W        W28988  12.174  15.130   2.991
57263W        W28989  40.518  43.888   4.547
57264W        W28990  30.654  17.952   2.419
57265W        W28991  14.251  10.964   4.530
57266W        W28992   5.265  36.474  12.957
57267W        W28993  30.438  40.047   4.089
57268W        W28994  34.981  22.048   1.711
57269W        W28995  17.259  28.961  13.781
57270W        W28996   7.025  19.096  13.492
57271W        W28997  34.082  33.799  14.453
57272W        W28998  43.828   6.123   0.503
57273W        W28999   4.689  31.076  10.708
57274W        W29000  41.997  22.467  14.367
57275W        W29001   9.360  16.574  14.885
57276W        W29002  10.667  21.045  12.210
57277W        W29003  35.858  23.044  11.085
57278W        W29004  12.665  31.227  13.252
57279W        W29005   1.486  14.440  13.826
57280W        W29006  23.159   4.232  11.169
57281W        W29007   5.093  10.196   3.767
57282W        W29008  44.549  16.132  10.892
57283W        W29009  30.208  26.462  11.877
57284W        W29010  43.276  21.607  14.337
57285W        W29011   7.726  38.136   2.396
57286W        W29012  38.430   2.905   1.477
57287W        W29013  13.620  16.124  11.601
57288W        W29014   8.534  25.005   3.438
57289W        W29015  26.284   3.962   1.803
57290W        W29016  25.420  37.731   2.912
57291W        W29017   7.688   6.288  11.077
57292W        W29018  19.373   0.777  11.113
57293W        W29019  15.202  42.957  11.174
57294W        W29020  18.791  22.571   0.044
57295W        W29021  13.321   7.259  13.536
57296W        W29022   4.437  22.484  12.332
57297W        W29023  40.201   0.048   2.814
57298W        W29024  15.074   5.540   2.344
57299W        W29025  20.648  41.242   2.388
57300W        W29026  27.572  24.230   2.088
57301W        W29027   0.447  12.289  12.075
57302W        W29028   2.288  25.900  12.063
57303W        W29029  44.506  25.620   1.850
57304W        W29030  14.409  15.294   3.370
57305W        W29031   3.856   6.455   1.499
57306W        W29032   4.199   7.912  11.269
57307W        W29033  41.837  28.816   0.769
57308W        W29034  18.988  43.473   4.853
57309W        W29035  42.581  24.097   1.871
57310W        W29036   6.499   7.054  11.128
57311W        W29037  21.199  14.534   1.272
57312W        W29038  16.082   9.998   2.469
57313W        W29039  33.013  27.401   0.430
57314W        W29040  21.264  16.674  14.811
57315W        W29041  41.210   1.750   2.332
57316W        W29042  33.885  22.725  11.069
57317W        W29043  44.272  27.917  14.363
57318W        W29044  15.745   0.457  10.314
57319W        W29045  35.752   5.805   2.380
57320W        W29046  32.906  16.818   3.643
57321W        W29047  15.521  36.344  10.062
57322W        W29048  23.229   0.551   1.870
57323W        W29049  44.513   4.919  10.729
57324W        W29050   5.005  20.266   3.823
57325W        W29051   3.907  39.254   1.723
57326W        W29052  40.466  15.151   4.563
57327W        W29053   7.138  15.220   1.438
57328W        W29054  30.168  32.626  13.354
57329W        W29055  21.036  36.352   1.366
57330W        W29056   5.544   6.820  12.864
57331W        W29057  33.661   0.565  12.058
57332W        W29058  40.104  12.249  13.893
57333W        W29059  26.913   3.235  14.181
57334W        W29060  32.920  28.431  13.425
57335W        W29061  23.161  44.079  14.504
57336W        W29062   2.141  41.352  10.779
57337W        W29063  30.182   8.378  13.889
57338W        W29064  20.136   9.685  11.410
57339W        W29065  14.386  15.229  12.931
57340W        W29066  27.572  30.317   3.400
57341W        W29067  38.362  32.041   1.900
57342W        W29068  35.324  16.223  10.326
57343W        W29069  35.382  41.476   2.845
57344W        W29070  21.142   8.080   3.816
57345W        W29071  29.516  37.421   3.027
57346W        W29072  19.080  38.122  12.206
57347W        W29073  34.046  16.122   2.651
57348W        W29074   2.326  11.783   3.884
57349W        W29075  20.244  38.358   3.659
57350W        W29076  32.145  18.124  14.539
57351W        W29077  20.177  11.372  13.284
57352W        W29078  33.547  16.863  11.624
57353W        W29079   1.408   9.914  12.045
57354W        W29080  21.127  10.452  12.535
57355W        W29081  41.144  35.339  13.423
57356W        W29082  40.839  35.849   0.045
57357W        W29083  38.677  18.329   2.923
57358W        W29084  42.095  25.887  14.338
57359W        W29085  37.115  33.872   1.349
57360W        W29086  30.045  21.666  14.436
57361W        W29087   5.704  30.103   2.783
57362W        W29088  42.401  12.402   0.858
57363W        W29089  26.310   0.366   4.493
57364W        W29090  42.947  33.621  12.043
57365W        W29091  20.799  11.736  12.392
57366W        W29092  31.246  33.475   0.967
57367W        W29093  36.908   5.159   0.895
57368W        W29094  21.726  25.148  14.732
57369W        W29095  15.954  31.443   3.277
57370W        W29096  21.216  37.282  12.710
57371W        W29097  12.137   4.972  14.907
57372W        W29098  34.859  24.345   2.931
57373W        W29099   5.111  42.739   5.021
57374W        W29100  17.269   9.913  10.484
57375W        W29101  27.071  13.138   2.707
57376W        W29102  23.107   7.443  11.100
57377W        W29103  39.652  19.567   2.157
57378W        W29104   5.409  20.758  13.525
57379W        W29105  44.757  18.517   0.390
57380W        W29106  31.106  36.297   3.559
57381W        W29107  41.861  21.293   0.501
57382W        W29108  20.209  27.630   2.319
57383W        W29109   9.866  16.314   4.702
57384W        W29110  14.214   7.954  11.848
57385W        W29111  19.224  38.744   2.734
57386W        W29112  11.325  30.643   4.218
57387W        W29113  43.073   4.441   4.148
57388W        W29114  21.627  40.075   0.765
57389W        W29115  41.749  18.380  12.992
57390W        W29116   3.523  11.724   2.800
57391W        W29117  10.289  38.542  12.128
57392W        W29118  12.447  29.708   2.162
57393W        W29119  18.055  17.044   3.311
57394W        W29120  29.620  23.074   0.397
57395W        W29121  42.579  37.477  10.035
57396W        W29122  17.623  13.791   0.741
57397W        W29123  34.083  12.166   0.698
57398W        W29124   5.429  10.181  14.329
57399W        W29125  20.756  23.881  14.511
57400W        W29126   2.308  38.366   0.706
57401W        W29127  43.785  12.390   4.534
57402W        W29128  14.375  40.418   2.683
57403W        W29129   1.489  35.435  14.972
57404W        W29130  35.124  26.515  11.055
57405W        W29131  30.348  15.636  13.154
57406W        W29132  22.661  24.117   0.296
57407W        W29133  21.483   1.011   1.461
57408W        W29134  27.906  44.820   5.445
57409W        W29135  16.242   6.111   4.916
57410W        W29136   8.227   1.545  14.298
57411W        W29137  41.229  35.557  14.797
57412W        W29138  29.758   9.506   2.407
57413W        W29139  28.240   0.637  11.688
57414W        W29140  28.916  11.768  12.042
57415W        W29141  42.023   8.627  11.442
57416W        W29142   6.532   5.436   2.750
57417W        W29143   8.834   3.558  11.995
57418W        W29144  27.790  14.493  10.780
57419W        W29145  13.514  14.055  11.254
57420W        W29146   8.576  15.111   0.334
57421W        W29147   5.195  37.052  11.177
57422W        W29148  19.784  29.513   0.508
57423W        W29149  40.843  16.097  10.762
57424W        W29150  14.075  24.576  12.028
57425W        W29151  39.421  35.636   4.169
57426W        W29152  16.345  44.009   4.415
57427W        W29153  20.980   5.133  12.194
57428W        W29154  41.183   0.918   3.606
57429W        W29155  17.340  10.237  11.171
57430W        W29156  20.249  25.395  14.887
57431W        W29157   4.294  36.978  12.973
57432W        W29158  37.059  18.561  13.037
57433W        W29159   9.489  18.237  13.205
57434W        W29160  43.879   6.306  13.448
57435W        W29161  20.082   9.289   2.180
57436W        W29162   2.824  39.821   3.266
57437W        W29163  15.326  22.125  11.240
57438W        W29164  42.492  26.219  13.390
57439W        W29165   1.942  10.323  11.099
57440W        W29166  29.306  13.028  12.980
57441W        W29167  32.810  16.197  14.337
57442W        W29168  12.401  20.341  11.175
57443W        W29169  30.888   7.218  13.475
57444W        W29170   8.361  28.138   2.134
57445W        W29171  38.643   8.140  10.688
57446W        W29172  28.694  16.024   2.004
57447W        W29173  15.199  38.584   1.618
57448W        W29174  32.172  22.156   3.082
57449W        W29175  27.046  18.266   2.703
57450W        W29176   1.506  19.558  14.913
57451W        W29177  28.673   3.726   3.795
57452W        W29178  15.516  30.699  10.777
57453W        W29179   4.289  22.231  13.397
57454W        W29180  25.809  12.520  10.831
57455W        W29181  17.017  30.952   0.315
57456W        W29182  28.189   0.352  14.879
57457W        W29183  12.151  31.601   4.795
57458W        W29184  26.941   1.613  10.453
57459W        W29185  11.734  30.817  10.415
57460W        W29186  27.447  38.995   3.240
57461W        W29187   7.124  16.955  11.990
57462W        W29188  33.491  12.247   2.178
57463W        W29189  41.101  12.756  11.411
57464W        W29190   6.965  27.003  14.393
57465W        W29191  34.943  28.515   4.784
57466W        W29192   7.159  29.641   3.538
57467W        W29193  16.400  37.418   1.529
57468W        W29194  29.119  29.373  11.948
57469W        W29195  21.740  37.128  10.885
57470W        W29196  29.970  14.667  11.543
57471W        W29197   7.887  34.420   1.255
57472W        W29198  21.768  39.484  10.797
57473W        W29199  13.284  22.330   0.462
57474W        W29200  27.990   9.072  11.701
57475W        W29201  41.890   5.275  13.153
57476W        W29202  35.965  23.128   4.179
57477W        W29203   2.859  42.704  12.142
57478W        W29204  27.481  44.244   4.255
57479W        W29205   3.435  29.408   1.346
57480W        W29206   5.124  25.663   1.452
57481W        W29207  37.059   8.480  14.534
57482W        W29208  32.219  19.147   3.391
57483W        W29209  18.306   4.519   2.392
57484W        W29210   6.417   5.172   1.855
57485W        W29211   0.270  38.943  10.882
57486W        W29212   2.598  40.327   4.628
57487W        W29213  26.049  33.097   0.789
57488W        W29214   8.391  32.855   2.589
57489W        W29215  41.981  29.585  12.667
57490W        W29216  13.752  37.452  10.742
57491W        W29217   7.528  39.002   2.822
57492W        W29218  22.087   6.845   0.254
57493W        W29219   0.209  17.158   4.534
57494W        W29220  27.582  32.409   0.351
57495W        W29221  25.124  29.593   4.111
57496W        W29222  44.517  16.194   2.931
57497W        W29223   2.157  38.908  11.096
57498W        W29224  18.073  19.602   1.745
57499W        W29225   2.147  15.546   2.418
57500W        W29226  27.514  41.412  13.804
57501W        W29227  11.151   5.716   2.454
57502W        W29228  18.037  33.104  13.563
57503W        W29229   1.038  19.455   2.601
57504W        W29230  41.064  27.714  12.687
57505W        W29231  40.929  18.265  10.551
57506W        W29232   3.258  19.506   1.130
57507W        W29233  17.199  16.144   2.651
57508W        W29234  23.830  30.980  11.839
57509W        W29235  40.292   8.339   3.429
57510W        W29236   9.218   8.117  14.716
57511W        W29237  11.339  14.084   0.587
57512W        W29238  12.791  16.995   0.890
57513W        W29239  42.281  19.319  11.844
57514W        W29240  31.067  11.610  12.145
57515W        W29241  20.259  33.577   3.618
57516W        W29242  26.021  19.154  13.160
57517W        W29243  39.314  35.492  11.967
57518W        W29244  11.358   0.791   3.257
57519W        W29245  24.505   0.320  14.482
57520W        W29246  36.350  28.460  14.886
57521W        W29247   2.952  36.142   1.201
57522W        W29248  13.416   2.683  11.607
57523W        W29249  37.959  29.943  12.052
57524W        W29250   3.952  44.849   4.639
57525W        W29251  44.694  40.912  11.611
57526W        W29252  32.587  26.913  13.480
57527W        W29253  44.404  12.112  13.910
57528W        W29254  44.905  30.643  11.951
57529W        W29255  17.329  20.321  12.446
57530W        W29256  37.971  13.165  12.543
57531W        W29257  31.424  40.945   4.419
57532W        W29258   1.917  25.698   1.377
57533W        W29259  21.148  41.576  13.266
57534W        W29260  26.438  15.557   1.335
57535W        W29261  36.688  39.393  10.757
57536W        W29262  44.831   9.648   1.791
57537W        W29263  26.922   0.734   2.904
57538W        W29264  41.981  31.434   4.719
57539W        W29265  41.393  27.444  12.380
57540W        W29266  33.823  32.157  13.785
57541W        W29267  34.483  14.862  10.488
57542W        W29268  15.068   5.450  11.157
57543W        W29269  10.731  41.028  14.928
57544W        W29270  23.866  34.591  12.357
57545W        W29271   4.645  43.611   1.775
57546W        W29272  29.084  28.524   0.103
57547W        W29273   4.199  27.451  12.910
57548W        W29274  36.066   7.383  14.854
57549W        W29275  32.485   7.191  12.605
57550W        W29276  17.761   3.927   2.829
57551W        W29277  34.371  17.561  11.230
57552W        W29278  27.688   4.415  14.898
57553W        W29279  17.150  31.252   0.747
57554W        W29280   7.822  41.029   3.917
57555W        W29281  14.556   6.843   4.969
57556W        W29282   6.462  22.012   0.270
57557W        W29283  12.906  41.222   2.391
57558W        W29284  15.338  44.290  12.340
57559W        W29285  21.416  18.719  12.280
57560W        W29286  39.111  31.354   1.818
57561W        W29287  10.684  24.680   3.690
57562W        W29288  25.490  28.130   3.353
57563W        W29289  43.061  41.407   2.223
57564W        W29290  17.178   0.809  10.347
57565W        W29291   1.929  13.155   0.268
57566W        W29292  43.057   3.862  11.017
57567W        W29293  13.193  27.011   1.433
57568W        W29294  21.790  32.382  13.601
57569W        W29295   7.499   1.513   2.781
57570W        W29296  39.476  10.652  13.948
57571W        W29297   1.538  12.429  12.994
57572W        W29298   5.359  12.552  11.404
57573W        W29299  30.514  44.671   4.410
57574W        W29300  42.963   7.731   0.226
57575W        W29301  18.012   1.458   4.585
57576W        W29302   3.175  12.108  11.872
57577W        W29303  30.393   1.360  11.271
57578W        W29304  21.698  34.404   3.337
57579W        W29305  32.836   0.896  13.929
57580W        W29306  42.245   7.403  13.817
57581W        W29307   8.844  34.052  12.072
57582W        W29308  10.853   0.950   3.181
57583W        W29309  24.722  38.445   2.418
57584W        W29310  12.473  36.130  14.304
57585W        W29311  25.136  15.725   3.292
57586W        W29312  32.371  20.006  14.908
57587W        W29313  27.700   6.766   1.456
57588W        W29314  36.706  39.374   2.929
57589W        W29315  42.945   8.220  13.321
57590W        W29316  40.520   0.594  10.396
57591W        W29317  38.381  30.419   3.696
57592W        W29318  38.192   1.948  13.975
57593W        W29319  10.464  19.594   3.073
57594W        W29320  29.755  14.543   4.267
57595W        W29321  27.132  28.098  11.397
57596W        W29322  44.950  13.337  10.481
57597W        W29323   9.625  28.994  12.375
57598W        W29324  28.737  11.252  14.303
57599W        W29325  31.568  35.613  13.902
57600W        W29326   5.258   1.759   4.519
57601W        W29327  20.073  25.286   1.192
57602W        W29328  12.785  31.170  11.343
57603W        W29329  30.732  11.223  10.380
57604W        W29330  11.919  39.465  12.127
57605W        W29331  10.305  41.219  11.670
57606W        W29332   4.336   2.659  13.128
57607W        W29333  15.321  38.141   3.123
57608W        W29334  27.407   9.744  12.883
57609W        W29335  44.747  30.108   3.880
57610W        W29336  11.643  33.998   1.288
57611W        W29337  26.057  32.410   1.232
57612W        W29338   5.097  33.832   4.091
57613W        W29339  11.635  16.284   0.897
57614W        W29340  44.684  32.023   2.313
57615W        W29341  35.938  10.904   1.961
57616W        W29342  27.039  21.284  11.974
57617W        W29343   0.354  38.311   1.858
57618W        W29344  14.390  20.093   4.527
57619W        W29345  18.165  39.527   0.501
57620W        W29346  24.610  24.566   2.225
57621W        W29347  23.661  36.245   3.935
57622W        W29348  18.575   9.399  10.615
57623W        W29349   1.712  21.573   4.501
57624W        W29350  13.121   5.170   0.185
57625W        W29351  23.957  33.404  10.852
57626W        W29352  19.780  17.352   1.329
57627W        W29353  44.932  40.497  10.627
57628W        W29354  17.021  16.679  11.212
57629W        W29355  17.164  42.472   2.465
57630W        W29356  27.765  14.593  12.607
57631W        W29357   8.376  32.548  11.039
57632W        W29358  32.672  37.522   1.910
57633W        W29359  20.007  41.505  10.654
57634W        W29360  36.581  21.711   1.726
57635W        W29361  11.556  13.344  10.712
57636W        W29362   7.258   5.658  10.443
57637W        W29363  26.336  40.916   1.669
57638W        W29364   7.547   5.814  12.683
57639W        W29365   4.394   5.458   0.014
57640W        W29366  44.638  20.251   3.219
57641W        W29367   5.793  19.721  11.672
57642W        W29368  19.197  35.550   0.776
57643W        W29369  37.172  19.451  13.041
57644W        W29370  28.562  23.291  13.560
57645W        W29371   9.224  13.152   2.743
57646W        W29372  13.815  35.819   2.648
57647W        W29373  25.982  33.590  13.976
57648W        W29374  39.969  43.371   3.827
57649W        W29375  39.902   0.748  10.909
57650W        W29376   4.338  21.524   0.579
57651W        W29377  32.561  19.884   4.171
57652W        W29378  16.428  34.079   3.658
57653W        W29379   8.753  13.707   0.868
57654W        W29380  29.984  42.017   2.476
57655W        W29381  19.006  39.382  11.779
57656W        W29382   4.421  12.795   4.653
57657W        W29383  19.057  32.159  11.793
57658W        W29384  27.453  21.487  11.745
57659W        W29385   8.814  35.525   2.303
57660W        W29386  43.846  42.967   1.323
57661W        W29387   0.777  27.160  13.881
57662W        W29388   1.937   1.295  13.643
57663W        W29389  40.264  25.433  13.156
57664W        W29390  32.185  22.030   0.770
57665W        W29391  39.365  26.209  10.582
57666W        W29392  13.470  38.858  14.108
57667W        W29393  37.591  15.609  11.582
57668W        W29394   7.641  15.004   4.560
57669W        W29395  15.891  20.637   2.272
57670W        W29396  11.815   7.685  12.661
57671W        W29397  13.262  30.598  13.057
57672W        W29398  37.524   9.421   4.045
57673W        W29399  32.933  28.901   1.196
57674W        W29400  11.450  12.728  14.045
57675W        W29401  19.261  41.389   3.240
57676W        W29402  37.922  41.519   3.466
57677W        W29403  33.101  15.634   4.660
57678W        W29404  27.070  28.617   3.076
57679W        W29405  42.079   4.220   1.831
57680W        W29406   1.901  21.485   3.559
57681W        W29407  14.032  43.904  10.433
57682W        W29408   0.275   3.061  12.643
57683W        W29409  32.468  26.514  12.041
57684W        W29410  26.401   4.874   2.715
57685W        W29411   4.795  10.389   0.548
57686W        W29412  28.700  38.576   1.854
57687W        W29413  26.942   4.503  13.408
57688W        W29414  32.046   6.904   3.756
57689W        W29415  13.715  31.895   4.350
57690W        W29416  22.305  44.226   4.389
57691W        W29417   6.848   0.391  10.582
57692W        W29418   6.716  21.206   2.834
57693W        W29419   7.198  40.817  13.003
57694W        W29420  34.614  34.955  10.747
57695W        W29421  43.754  31.169   4.312
57696W        W29422  39.027  29.748   3.210
57697W        W29423  37.125  31.124   4.547
57698W        W29424  33.967  25.759   3.251
57699W        W29425   2.767  12.765  11.984
57700W        W29426  42.548  23.645   1.316
57701W        W29427  39.229   6.151   2.997
57702W        W29428  33.662   1.662  12.435
57703W        W29429  25.075   4.934  12.485
57704W        W29430  14.071  44.497   3.718
57705W        W29431  43.373   2.240   0.952
57706W        W29432  32.819   4.796  10.597
57707W        W29433  20.010  22.822   4.013
57708W        W29434  43.469   0.244  10.692
57709W        W29435  16.981  38.578  10.666
57710W        W29436   0.750  16.820   2.683
57711W        W29437  30.403   7.856   1.406
57712W        W29438   3.561  42.747   0.394
57713W        W29439  39.456  37.119   0.452
57714W        W29440  19.847  15.262  13.049
57715W        W29441  35.109  27.057  12.344
57716W        W29442  40.593   9.680   1.265
57717W        W29443   7.869  22.006   0.929
57718W        W29444  19.083  38.931  14.892
57719W        W29445  28.999  33.173   4.944
57720W        W29446  22.678  43.917  11.594
57721W        W29447   6.878  11.190  12.320
57722W        W29448  23.511  14.387  10.536
57723W        W29449  20.053  39.791  14.396
57724W        W29450  41.220  25.903  10.861
57725W        W29451   9.252  33.029  14.675
57726W        W29452  32.844  44.894  14.507
57727W        W29453  40.928  24.014   2.641
57728W        W29454  34.543   4.407   0.255
57729W        W29455  19.173  34.572  11.825
57730W        W29456  25.892  44.181   3.245
57731W        W29457   5.641  13.596   5.648
57732W        W29458  27.403  43.560   2.967
57733W        W29459  18.098  33.883   1.494
57734W        W29460  14.070  35.770  10.973
57735W        W29461  37.497  36.977   4.762
57736W        W29462  36.288  33.412   1.233
57737W        W29463  14.549  31.734  12.657
57738W        W29464   6.420  10.860   1.540
57739W        W29465  15.718  27.905   4.981
57740W        W29466  14.124  11.477  11.593
57741W        W29467  30.004  15.398  13.436
57742W        W29468  24.603  41.403  13.564
57743W        W29469  16.619  24.944  14.997
57744W        W29470   8.052  12.363   1.694
57745W        W29471  17.165  43.825   3.711
57746W        W29472  35.235  20.022   0.164
57747W        W29473   4.438  13.526   5.380
57748W        W29474  10.136  32.587   0.758
57749W        W29475  16.913   7.487  11.564
57750W        W29476  44.409  20.897   9.829
57751W        W29477  33.332  18.192  14.076
57752W        W29478  20.764  16.727   0.030
57753W        W29479   7.971   8.151  13.542
57754W        W29480  44.331  18.513  10.631
57755W        W29481  38.289  32.975   2.265
57756W        W29482  34.628  33.021  10.912
57757W        W29483  36.824  32.240  11.931
57758W        W29484  37.964   0.699   2.646
57759W        W29485  37.432   8.746  12.444
57760W        W29486  43.981  42.683   4.051
57761W        W29487  13.089  41.488  10.292
57762W        W29488  34.329  28.130   4.337
57763W        W29489  26.761   1.230   0.013
57764W        W29490   5.141  26.455   4.744
57765W        W29491   8.736  42.051  13.954
57766W        W29492  39.413  16.311  13.348
57767W        W29493  22.302   3.823  14.853
57768W        W29494  25.980  20.403   2.785
57769W        W29495  39.768  24.291  12.633
57770W        W29496   0.005   3.904   3.987
57771W        W29497   5.663  41.486   0.890
57772W        W29498  17.090  40.750   2.167
57773W        W29499  34.885  32.817   0.277
57774W        W29500  43.480  33.917  13.157
57775W        W29501   6.823  12.080  11.957
57776W        W29502  10.629   2.913   2.942
57777W        W29503  14.717   4.857   1.020
57778W        W29504   8.814  19.843   0.735
57779W        W29505   3.292  14.236   0.389
57780W        W29506  40.813  12.580   4.425
57781W        W29507   0.747  24.142   0.800
57782W        W29508   7.653  40.478   2.670
57783W        W29509  18.861  27.858  12.735
57784W        W29510  24.031  12.240  13.304
57785W        W29511  38.555  22.270  13.902
57786W        W29512   9.444  35.474  13.806
57787W        W29513  16.993  29.124   0.776
57788W        W29514  24.470  21.419  11.620
57789W        W29515  19.553  38.395   1.494
57790W        W29516  29.421   1.741   4.197
57791W        W29517  24.403  42.922   0.377
57792W        W29518   5.754  29.981  10.701
57793W        W29519   0.355  44.430  13.840
57794W        W29520   2.030   6.903  13.954
57795W        W29521  43.986  12.520   0.532
57796W        W29522  30.480   4.365   3.775
57797W        W29523  37.301   9.427  14.399
57798W        W29524   3.821  23.550  13.548
57799W        W29525   8.733  22.480  10.649
57800W        W29526  35.494  35.009   4.874
57801W        W29527  39.972  31.554   1.334
57802W        W29528  35.411  21.529   0.992
57803W        W29529  21.007  42.206   1.500
57804W        W29530  13.684  26.975   0.258
57805W        W29531  22.569  31.240   0.210
57806W        W29532  37.036  18.827   3.154
57807W        W29533  15.568  15.085  11.613
57808W        W29534  10.228  20.698  11.035
57809W        W29535  28.598  31.676   3.766
57810W        W29536  25.115  10.321  14.454
57811W        W29537  34.439   8.622   2.193
57812W        W29538  43.525  42.928   0.927
57813W        W29539  21.532  22.478  13.911
57814W        W29540  24.455  33.590   4.573
57815W        W29541   6.505  15.085  13.272
57816W        W29542  17.585  25.221  12.454
57817W        W29543   4.590  24.453   0.860
57818W        W29544  18.364  29.791   3.151
57819W        W29545  42.831   2.353  12.576
57820W        W29546  33.149  29.568  10.668
57821W        W29547  17.379  43.318   3.739
57822W        W29548   0.512   6.027   9.840
57823W        W29549  38.174  27.735  14.933
57824W        W29550  23.213  14.704   0.666
57825W        W29551  39.811  30.878   0.874
57826W        W29552   8.174  25.074  14.338
57827W        W29553  20.665   8.251  13.004
57828W        W29554   0.293  29.619   4.933
57829W        W29555   3.443  18.343  13.971
57830W        W29556   5.360  15.973   5.667
57831W        W29557  21.806  14.373  10.275
57832W        W29558  24.713  30.551   1.228
57833W        W29559  18.321  32.125  10.483
57834W        W29560  31.685   1.149   1.342
57835W        W29561  32.378  40.150  14.491
57836W        W29562  16.746  33.612   3.684
57837W        W29563   1.917   7.804  13.707
57838W        W29564  37.900   0.247  11.967
57839W        W29565  33.362   7.145  11.254
57840W        W29566  12.667  40.133   2.813
57841W        W29567  31.836  23.184   0.766
57842W        W29568  27.630  33.216  14.772
57843W        W29569   9.425  31.012  12.602
57844W        W29570  36.872  44.782   3.665
57845W        W29571   5.040  11.634  13.942
57846W        W29572  40.410  24.359  10.615
57847W        W29573  13.345  12.142  11.577
57848W        W29574   5.909   0.661  10.946
57849W        W29575  36.906  18.040   1.200
57850W        W29576  30.997  11.695   3.084
57851W        W29577  36.153  10.358  12.144
57852W        W29578  30.407  15.447  11.436
57853W        W29579   1.044  24.201   1.228
57854W        W29580  37.367  25.123   4.908
57855W        W29581  37.010   1.733   4.921
57856W        W29582  36.316  36.489   1.245
57857W        W29583  14.137  13.442   4.984
57858W        W29584  33.370  29.071  14.970
57859W        W29585  24.987  43.544  12.516
57860W        W29586   1.938  11.384  11.036
57861W        W29587   9.805  24.740   0.957
57862W        W29588  36.977  32.497  11.497
57863W        W29589  13.630  28.088  12.164
57864W        W29590   3.405  11.305  13.029
57865W        W29591   9.632   5.483  13.522
57866W        W29592  13.295  25.625   3.596
57867W        W29593  37.623  39.716   4.183
57868W        W29594  28.843  11.265  13.288
57869W        W29595  29.651   7.597   3.343
57870W        W29596  10.825   4.360   2.266
57871W        W29597   4.719  28.581  13.684
57872W        W29598  40.153  18.644   2.429
57873W        W29599  43.765  34.372  13.398
57874W        W29600  29.202  11.106   0.421
57875W        W29601  38.265  15.313  12.564
57876W        W29602  41.241  35.141   4.007
57877W        W29603   0.233  21.577  12.041
57878W        W29604  14.856  18.203  11.960
57879W        W29605  16.237  42.779   2.827
57880W        W29606  25.053  32.608  14.974
57881W        W29607  22.606  19.382  11.791
57882W        W29608   1.926  44.369   0.831
57883W        W29609  11.942  15.756  12.899
57884W        W29610  41.237  22.952  13.896
57885W        W29611  13.673  44.509   3.355
57886W        W29612  21.746  34.811  13.239
57887W        W29613  25.459  14.229   4.628
57888W        W29614  19.663  25.019  11.223
57889W        W29615  30.504  28.499   4.196
57890W        W29616  17.803   4.877  12.533
57891W        W29617  16.490   4.225  11.660
57892W        W29618  44.923  43.584  11.098
57893W        W29619  35.523  34.785  11.204
57894W        W29620   6.494  19.144   2.234
57895W        W29621  12.132  21.598  13.096
57896W        W29622  16.500  39.022   4.020
57897W        W29623  33.783  14.984  13.411
57898W        W29624  31.972  35.522   4.504
57899W        W29625  32.724  33.182   1.839
57900W        W29626  13.352  32.124   1.642
57901W        W29627   7.356  32.353   4.122
57902W        W29628  25.585  29.274   2.202
57903W        W29629  42.737  35.006  13.916
57904W        W29630  17.990  15.748  14.023
57905W        W29631  12.159  17.796  13.324
57906W        W29632  20.210   9.124  14.066
57907W        W29633  35.103  43.470  14.113
57908W        W29634  23.553  15.238   9.799
57909W        W29635  23.556  23.167  12.972
57910W        W29636  41.336  38.509   2.641
57911W        W29637  22.971  14.162   1.427
57912W        W29638  25.472  15.541  12.251
57913W        W29639  33.164   0.904   2.660
57914W        W29640  21.127  23.730   1.765
57915W        W29641   8.386  40.151   3.641
57916W        W29642  10.742  12.234  13.945
57917W        W29643   8.779  42.742  10.119
57918W        W29644  22.048  21.747   1.703
57919W        W29645  16.389   9.244  11.400
57920W        W29646  17.852  38.406   4.145
57921W        W29647  31.514  32.218   1.745
57922W        W29648   4.322  10.871  13.909
57923W        W29649   8.708   5.144   1.972
57924W        W29650  21.093   5.654   3.285
57925W        W29651  10.378   9.423  14.824
57926W        W29652  29.618  40.468   0.777
57927W        W29653   5.382  10.713   0.701
57928W        W29654  44.104  37.810  13.793
57929W        W29655  33.793  34.460  12.696
57930W        W29656  27.175  37.519   4.359
57931W        W29657  39.822  24.560   3.126
57932W        W29658   6.181   9.383   1.329
57933W        W29659  23.593  39.240  10.617
57934W        W29660  14.061  29.100   1.314
57935W        W29661   1.045  24.561   0.829
57936W        W29662  41.407  29.665  11.141
57937W        W29663  30.744  30.409   3.569
57938W        W29664  35.500  38.425  11.764
57939W        W29665  11.150  35.241  11.632
57940W        W29666  12.717  14.661  12.349
57941W        W29667  30.044  21.075   4.131
57942W        W29668   1.123  25.640  12.934
57943W        W29669  10.079  12.640  14.504
57944W        W29670  23.964  42.563   0.818
57945W        W29671  22.269  15.100   5.029
57946W        W29672   1.216  20.575  13.456
57947W        W29673  24.198  24.735   4.618
57948W        W29674  36.435   1.039   1.857
57949W        W29675   6.955   4.132   0.880
57950W        W29676  23.128  16.150   4.296
57951W        W29677  39.225  11.161  10.774
57952W        W29678   2.641  11.680   1.065
57953W        W29679  15.366  34.653  11.636
57954W        W29680  27.604  38.813   4.502
57955W        W29681  13.782  42.942   2.802
57956W        W29682  18.646  24.991   0.968
57957W        W29683  12.135  38.065  13.105
57958W        W29684  14.333  31.146  13.411
57959W        W29685  42.507  33.326   2.774
57960W        W29686  43.848  24.589  12.475
57961W        W29687  18.849  15.291  12.912
57962W        W29688  29.786  41.920  10.581
57963W        W29689  12.095  20.534  11.585
57964W        W29690  43.713  15.221   3.354
57965W        W29691  43.984  15.421  13.914
57966W        W29692  36.309  36.010  12.333
57967W        W29693  29.349  10.755  12.560
57968W        W29694   7.817   2.460  14.322
57969W        W29695  12.138  18.163   0.971
57970W        W29696  25.397   6.836   1.930
57971W        W29697   1.988  28.597   3.589
57972W        W29698  39.716  44.256   3.175
57973W        W29699  23.640  19.038   0.240
57974W        W29700   2.434   7.655  12.475
57975W        W29701  11.415  16.766  10.698
57976W        W29702  24.285  15.616  11.544
57977W        W29703  41.722  18.623  13.859
57978W        W29704  40.264   9.769  13.345
57979W        W29705  23.528  14.719   1.520
57980W        W29706   6.655  42.483  12.565
57981W        W29707  22.661  43.034   2.327
57982W        W29708  31.975   5.781   1.418
57983W        W29709  15.784  20.498  14.576
57984W        W29710  30.220  39.957   0.899
57985W        W29711  26.176   3.993  11.968
57986W        W29712  33.308  22.030   3.721
57987W        W29713  36.549  38.570   1.234
57988W        W29714  32.661  44.688  10.965
57989W        W29715  28.536  40.295   2.912
57990W        W29716  40.880  37.568  10.653
57991W        W29717  24.589  23.036   0.995
57992W        W29718  41.239   8.204   2.964
57993W        W29719  34.028  31.414  14.483
57994W        W29720  42.861  16.068  10.944
57995W        W29721  41.352  22.963   1.250
57996W        W29722  28.613   3.808  12.048
57997W        W29723  16.858  37.073  12.954
57998W        W29724   7.468  13.948   3.881
57999W        W29725  24.156  44.314   1.478
58000W        W29726  17.493  35.731   5.073
58001W        W29727  40.378  31.142  10.940
58002W        W29728  28.645   9.333  13.988
58003W        W29729  40.515  32.655   1.714
58004W        W29730  30.374   6.854   0.300
58005W        W29731  30.587   3.718   5.008
58006W        W29732   6.886  16.867  10.447
58007W        W29733  37.986   7.413   1.170
58008W        W29734   1.882  24.964  10.705
58009W        W29735  10.620   5.898   3.938
58010W        W29736  34.957   5.617   1.769
58011W        W29737  38.995   3.926   3.753
58012W        W29738  34.611   2.442   1.627
58013W        W29739  10.343  11.591   3.722
58014W        W29740  21.219  32.875  12.585
58015W        W29741  26.938  12.227  14.438
58016W        W29742  43.965  30.117  10.767
58017W        W29743   7.899  32.584  12.779
58018W        W29744  20.647  23.428   0.778
58019W        W29745  42.798  17.731   4.623
58020W        W29746  44.534  11.402   0.506
58021W        W29747  29.468  16.000  13.965
58022W        W29748   4.880  43.975  11.520
58023W        W29749  20.636  20.133   3.150
58024W        W29750  37.661  36.103   2.867
58025W        W29751   8.705  34.981   3.020
58026W        W29752  40.911  26.606  12.041
58027W        W29753  18.268  20.304   4.766
58028W        W29754  32.362  39.929   4.067
58029W        W29755  27.953  33.147  12.481
58030W        W29756  42.435  19.665   2.433
58031W        W29757  14.130  25.590  14.554
58032W        W29758  27.000  35.592   4.764
58033W        W29759  24.150  11.616   3.213
58034W        W29760  38.580  22.502  13.395
58035W        W29761  29.446  43.240  12.643
58036W        W29762  18.707  31.407   2.012
58037W        W29763  34.102  20.185  14.360
58038W        W29764  31.102  20.121   4.462
58039W        W29765  25.461  18.853   3.914
58040W        W29766  39.145  32.677   2.101
58041W        W29767  26.042  29.463   0.926
58042W        W29768   4.216  19.812   3.327
58043W        W29769  32.811  24.627  14.832
58044W        W29770  27.520  12.391   3.578
58045W        W29771  34.101  25.425   0.994
58046W        W29772  32.198  40.052  12.957
58047W        W29773   8.829  13.259   3.603
58048W        W29774  13.553   5.774   4.646
58049W        W29775   2.709  33.065  14.803
58050W        W29776   4.876   4.394   5.543
58051W        W29777  24.729  38.962   0.871
58052W        W29778  23.666  20.167  11.080
58053W        W29779   9.888  29.481  11.032
58054W        W29780  21.953   3.831  13.963
58055W        W29781  34.254  27.219   1.273
58056W        W29782  43.457  35.909   4.069
58057W        W29783   9.095  30.873  14.301
58058W        W29784  23.969   2.048   1.924
58059W        W29785   9.801   6.425  12.428
58060W        W29786  31.587  22.434  14.109
58061W        W29787   3.949  14.913   2.509
58062W        W29788  18.770  42.077  12.735
58063W        W29789  15.123  17.804   2.379
58064W        W29790  38.853  23.719   2.161
58065W        W29791  39.493  37.799  14.781
58066W        W29792  11.609  36.575   1.405
58067W        W29793   7.206  41.905   4.101
58068W        W29794  22.702  27.456   0.349
58069W        W29795   8.640  16.778  12.000
58070W        W29796  30.380  13.882  13.439
58071W        W29797   0.866  33.641  14.887
58072W        W29798  36.038   9.475  13.386
58073W        W29799  15.135  18.821  14.290
58074W        W29800   1.680   3.445   2.780
58075W        W29801  41.455  12.054  13.509
58076W        W29802   5.799  20.976   0.308
58077W        W29803  32.733  14.841   2.758
58078W        W29804  40.589  16.787  11.096
58079W        W29805  43.214  23.272   1.795
58080W        W29806  21.196   0.025   2.322
58081W        W29807  12.734   6.491   4.056
58082W        W29808  39.775  37.070  10.681
58083W        W29809  40.461  35.535   4.670
58084W        W29810  38.229  10.279   4.710
58085W        W29811  19.265  27.878  14.872
58086W        W29812  25.533  25.269  12.015
58087W        W29813  31.117   3.919  12.466
58088W        W29814  35.141  30.487  10.732
58089W        W29815  11.163  16.063   4.223
58090W        W29816  30.835  12.267  12.919
58091W        W29817   0.320   5.984  14.403
58092W        W29818  11.195  35.215   0.369
58093W        W29819  20.926  10.004   0.964
58094W        W29820  43.878  22.223  11.469
58095W        W29821   9.536  21.676   1.888
58096W        W29822  16.564  11.235  10.349
58097W        W29823   9.238  38.422  14.743
58098W        W29824  15.566  20.008   2.204
58099W        W29825  26.773  10.130   0.532
58100W        W29826  36.099  12.730   2.252
58101W        W29827  35.924  33.439   1.707
58102W        W29828   5.888   2.846   4.089
58103W        W29829  22.477  32.156   3.247
58104W        W29830  35.595  22.725  12.375
58105W        W29831   6.897  29.496   2.458
58106W        W29832  19.792  38.979   1.884
58107W        W29833  32.177  30.285   0.905
58108W        W29834  33.906  26.339  13.678
58109W        W29835  32.501  13.789  11.713
58110W        W29836  31.492  27.952  14.028
58111W        W29837  18.176  11.904  11.517
58112W        W29838  32.698   1.385   0.397
58113W        W29839   4.958  10.761  12.825
58114W        W29840  28.738   0.353   4.603
58115W        W29841  44.536   7.802  13.128
58116W        W29842  34.285  35.606  12.141
58117W        W29843   0.487  41.981   2.283
58118W        W29844  23.200  36.481   0.942
58119W        W29845   8.172  23.656   2.355
58120W        W29846  30.369  16.541  10.731
58121W        W29847  40.255  25.203   2.651
58122W        W29848  39.922  40.056   3.116
58123W        W29849  37.846   6.861  13.837
58124W        W29850  17.641  12.035   2.823
58125W        W29851  15.937   8.668   1.315
58126W        W29852  24.124  31.984   4.232
58127W        W29853  10.920  31.476  12.063
58128W        W29854   6.910  36.874  13.615
58129W        W29855  15.761  42.484  12.436
58130W        W29856  34.347  11.169  11.632
58131W        W29857  17.169  18.568  12.957
58132W        W29858  39.964  22.752   1.501
58133W        W29859  40.866  30.605  14.563
58134W        W29860  12.036  28.062  10.673
58135W        W29861  43.086  40.904   4.212
58136W        W29862  43.060  33.681  12.988
58137W        W29863  40.951  10.354  13.982
58138W        W29864  23.733  27.942   0.666
58139W        W29865  11.383  24.673  11.812
58140W        W29866  42.458  16.763   2.655
58141W        W29867   5.760  22.552   1.488
58142W        W29868  21.728   4.413   2.330
58143W        W29869  16.012  41.496   1.705
58144W        W29870  34.595  27.754  14.963
58145W        W29871   0.211  25.492   2.327
58146W        W29872  27.484  38.864   1.797
58147W        W29873  25.086  43.653   1.820
58148W        W29874  29.821  44.459   3.186
58149W        W29875  38.528   2.084   1.389
58150W        W29876  43.114  28.408  12.819
58151W        W29877  18.277   4.549  12.547
58152W        W29878   1.969  19.596   4.663
58153W        W29879  23.162  26.094   4.193
58154W        W29880   5.938  35.845   4.658
58155W        W29881  10.914  15.258  11.204
58156W        W29882   1.960  11.138   4.451
58157W        W29883  28.929  19.131   3.776
58158W        W29884  40.467  30.476  14.275
58159W        W29885   4.349  39.333   0.870
58160W        W29886   6.878  33.573  13.071
58161W        W29887  32.067  31.113  14.842
58162W        W29888  42.707  13.043   3.068
58163W        W29889  10.867  37.350  12.081
58164W        W29890  30.944  17.073   2.306
58165W        W29891  30.564  36.116  12.077
58166W        W29892  15.317  35.046  10.820
58167W        W29893  41.246  32.457   0.199
58168W        W29894  25.295  20.959   4.085
58169W        W29895   4.638  11.608   4.141
58170W        W29896   7.399   4.190  14.673
58171W        W29897  12.380  23.296   3.605
58172W        W29898  34.337  15.870  12.607
58173W        W29899  10.908  15.515  12.130
58174W        W29900  20.823  10.832  12.944
58175W        W29901   6.840  11.746   4.643
58176W        W29902   8.774   0.815   0.388
58177W        W29903  26.437  10.484   3.161
58178W        W29904  42.332  24.399   3.124
58179W        W29905  18.064   8.235   1.756
58180W        W29906  13.044   3.543   4.201
58181W        W29907  31.122  28.138  11.912
58182W        W29908   0.467  40.482  12.014
58183W        W29909  38.829  21.694  14.778
58184W        W29910  38.602  26.801   3.388
58185W        W29911  21.049  21.910  12.970
58186W        W29912  28.752  10.141  13.555
58187W        W29913   0.771   4.902  13.087
58188W        W29914  16.340  18.234   2.108
58189W        W29915  23.671   0.002  12.164
58190W        W29916  44.476  40.749  12.632
58191W        W29917  43.898  26.661   3.330
58192W        W29918  36.677   6.877   3.646
58193W        W29919  19.529  17.557   0.946
58194W        W29920   5.744  32.565  12.080
58195W        W29921  23.152  37.954  14.398
58196W        W29922  40.839   7.933   0.890
58197W        W29923  16.535  22.731  12.402
58198W        W29924  28.845  24.830   1.081
58199W        W29925  25.049  29.495   1.994
58200W        W29926  43.093  27.068  12.045
58201W        W29927  19.341  32.107  13.981
58202W        W29928   2.710  44.073  12.362
58203W        W29929  28.102  30.911  14.936
58204W        W29930  11.314  23.782  13.005
58205W        W29931  19.191   4.493   0.957
58206W        W29932  21.114  17.831  13.422
58207W        W29933  41.102  28.662  10.993
58208W        W29934   7.165  26.516   1.783
58209W        W29935  17.912  44.141   1.951
58210W        W29936   2.434  15.769   0.080
58211W        W29937  34.134  24.273   4.760
58212W        W29938  18.463  31.213   0.469
58213W        W29939  27.698  43.867  12.943
58214W        W29940  28.157   3.662  12.272
58215W        W29941  12.363  23.552   4.979
58216W        W29942   4.395  20.295   3.192
58217W        W29943  42.419  42.458   2.497
58218W        W29944  20.240   2.175  11.557
58219W        W29945  29.517  42.925   3.311
58220W        W29946  38.445   4.831   0.562
58221W        W29947  24.621  33.953  10.718
58222W        W29948  27.029  20.924  14.230
58223W        W29949  22.229  12.163  14.341
58224W        W29950  34.953   8.825   2.116
58225W        W29951  22.046  14.757   3.115
58226W        W29952  21.257  25.166   4.456
58227W        W29953  25.735  18.057  11.226
58228W        W29954  28.009  34.143   4.862
58229W        W29955  10.459  24.888  12.496
58230W        W29956  40.486  38.810  13.449
58231W        W29957  26.509   1.703   4.625
58232W        W29958  25.423  44.557   1.802
58233W        W29959  43.138   2.090  12.937
58234W        W29960  13.877  13.681   2.806
58235W        W29961  18.762  28.825   0.025
58236W        W29962   5.463  33.447  11.514
58237W        W29963  36.803   2.469   0.841
58238W        W29964   2.385  15.512  10.780
58239W        W29965  18.749   1.022   4.619
58240W        W29966  12.065  44.965   2.727
58241W        W29967   2.479  43.110   0.399
58242W        W29968  17.740  44.052   0.953
58243W        W29969   7.249  36.447  14.742
58244W        W29970  10.837   6.735   3.903
58245W        W29971  35.517  41.912  12.547
58246W        W29972  15.173   0.716  14.359
58247W        W29973  36.464   8.848   5.053
58248W        W29974   3.140  23.906   4.029
58249W        W29975  24.171  28.466   0.777
58250W        W29976  25.472  18.528  11.307
58251W        W29977  27.852  42.270  13.624
58252W        W29978   2.310  25.102   3.764
58253W        W29979   6.356  23.789  11.636
58254W        W29980  33.098  20.750  12.526
58255W        W29981  12.938  32.068   0.823
58256W        W29982  40.352  25.842   3.436
58257W        W29983  36.971  19.299   2.401
58258W        W29984   1.252   0.214   2.284
58259W        W29985  20.495   0.781   0.103
58260W        W29986  41.973  10.761  10.603
58261W        W29987  26.928  33.359   1.319
58262W        W29988  11.504  24.983   4.613
58263W        W29989  40.531  41.535  14.999
58264W        W29990   1.312  17.097   1.850
58265W        W29991   6.750  41.394   1.887
58266W        W29992  38.919   7.367   1.688
58267W        W29993   9.325  17.201   4.447
58268W        W29994  13.076  33.037   2.232
58269W        W29995  19.508  33.063  14.313
58270W        W29996   1.560  14.279  11.064
58271W        W29997  18.585  14.342   3.787
58272W        W29998  38.455   5.817   3.088
58273W        W29999  18.786  37.915   4.056
58274W        W30000  43.539  44.534   1.690
58275W        W30001   8.402   5.101  13.818
58276W        W30002   0.786   8.238  11.331
58277W        W30003  27.980  42.435   1.187
58278W        W30004  41.944   8.666   3.240
58279W        W30005   1.211  36.420  13.913
58280W        W30006  15.089  15.713   0.866
58281W        W30007  43.941  40.018  12.142
58282W        W30008   8.767  22.768  14.673
58283W        W30009   3.952  42.389  12.199
58284W        W30010  25.962   3.052   3.504
58285W        W30011   6.398   2.970  11.713
58286W        W30012  24.650  14.410   2.691
58287W        W30013  41.123  34.407  13.453
58288W        W30014  18.767  14.800  12.159
58289W        W30015  12.191  14.118   3.047
58290W        W30016  17.533  43.693   1.275
58291W        W30017  28.972   7.168  12.166
58292W        W30018  30.660  42.007   3.226
58293W        W30019  13.643  24.765   3.119
58294W        W30020  17.594  39.226  11.470
58295W        W30021  39.330   4.530   2.015
58296W        W30022  43.722  16.591  12.401
58297W        W30023   0.236  11.469  12.529
58298W        W30024  21.211  39.812  13.854
58299W        W30025  39.429  20.109   4.914
58300W        W30026  37.867  43.734   4.149
58301W        W30027  33.450  29.418   0.913
58302W        W30028  15.642  19.493  14.339
58303W        W30029  33.299  10.254   3.746
58304W        W30030  38.791  10.585   3.204
58305W        W30031   8.617  20.691  13.734
58306W        W30032  25.646  27.568  12.119
58307W        W30033  36.936   7.285   3.861
58308W        W30034   1.672   9.842   0.063
58309W        W30035  27.030  20.732   3.647
58310W        W30036  11.415  25.643   3.808
58311W        W30037  10.583  18.047  14.096
58312W        W30038  27.054  27.356   4.324
58313W        W30039  43.123  12.817   3.303
58314W        W30040  21.119   0.307  12.487
58315W        W30041   3.307  20.844  14.901
58316W        W30042  35.425  10.726   1.187
58317W        W30043   2.126  32.669   2.656
58318W        W30044  20.155   7.496   0.312
58319W        W30045  34.881  12.892   2.782
58320W        W30046  34.951  30.833   4.430
58321W        W30047  31.077  31.617  13.634
58322W        W30048   0.500  14.156   3.852
58323W        W30049  33.522  30.363   3.741
58324W        W30050   8.662  43.795  14.351
58325W        W30051  12.592  44.483   1.218
58326W        W30052  29.416  39.271  13.972
58327W        W30053  24.453  35.150   1.717
58328W        W30054   1.360  32.907   3.801
58329W        W30055  37.740  12.697   5.026
58330W        W30056  32.056  21.668  12.619
58331W        W30057  42.731  23.539  12.444
58332W        W30058   3.725  18.560   2.129
58333W        W30059   8.705  13.519   1.739
58334W        W30060  10.641  12.085   0.871
58335W        W30061  33.909  26.658   4.100
58336W        W30062  11.179   9.880   0.769
58337W        W30063   7.754  23.830   0.257
58338W        W30064  27.330   8.093   1.645
58339W        W30065  19.053  20.181   4.143
58340W        W30066  18.688  18.789   1.365
58341W        W30067  37.404  38.958  11.843
58342W        W30068  32.783   7.738  11.693
58343W        W30069  17.298  33.925   2.019
58344W        W30070  38.609  23.730  11.186
58345W        W30071   2.645   7.755   3.284
58346W        W30072  18.834  34.031  12.610
58347W        W30073  12.606  22.634  12.282
58348W        W30074   7.862  17.630   1.874
58349W        W30075  32.554  20.250   3.801
58350W        W30076  10.206  15.156  10.338
58351W        W30077  16.104  11.771  10.816
58352W        W30078  37.779  31.476  10.758
58353W        W30079  22.149  41.851  10.710
58354W        W30080  36.018  23.646  14.512
58355W        W30081  12.530   3.716   4.418
58356W        W30082  31.632  44.147   2.602
58357W        W30083  30.715  41.413  10.083
58358W        W30084  31.941  16.164  14.798
58359W        W30085  35.836   2.691   1.540
58360W        W30086  20.295  38.651  12.965
58361W        W30087  19.142  30.097   3.222
58362W        W30088  25.476  41.519  14.059
58363W        W30089  27.518  14.185   4.036
58364W        W30090   4.888   7.589   0.492
58365W        W30091  11.863  23.175   2.202
58366W        W30092  19.558  14.494   1.705
58367W        W30093  28.125  32.444   3.746
58368W        W30094  42.424  15.362   1.404
58369W        W30095   2.827   0.706  10.754
58370W        W30096  10.218  19.998   3.408
58371W        W30097  10.360   2.238   1.759
58372W        W30098  16.202   0.951   0.038
58373W        W30099   7.870  34.548  12.325
58374W        W30100   7.094  33.859  14.781
58375W        W30101   5.598  30.343   2.331
58376W        W30102  23.174  39.550   3.560
58377W        W30103  39.414  30.371  11.577
58378W        W30104   5.402   4.438  14.365
58379W        W30105   2.754  27.903   3.679
58380W        W30106  29.358  12.465  11.194
58381W        W30107  24.215  44.956  14.267
58382W        W30108  41.571  14.144   4.500
58383W        W30109  11.317  42.365  10.663
58384W        W30110   2.475  40.052   0.200
58385W        W30111  24.968   8.632  14.623
58386W        W30112   5.668  43.135  10.306
58387W        W30113   9.799   3.861   0.213
58388W        W30114  11.104  19.657  10.529
58389W        W30115   0.304  43.936  13.735
58390W        W30116  35.167  29.079  14.564
58391W        W30117  16.150  18.015  14.468
58392W        W30118  32.884  30.651  13.789
58393W        W30119  28.593  34.342  14.785
58394W        W30120  38.537  22.131  14.899
58395W        W30121  31.946  11.701   0.334
58396W        W30122   4.916  17.187   5.005
58397W        W30123  36.397  35.114  14.799
58398W        W30124  19.030  34.081   0.793
58399W        W30125  41.367  29.420   1.349
58400W        W30126  22.394  29.513  12.071
58401W        W30127  37.063  32.704   3.667
58402W        W30128  12.031  22.700   2.374
58403W        W30129  16.672  34.852   0.210
58404W        W30130  29.456  42.840   4.850
58405W        W30131   6.912  43.450   1.346
58406W        W30132  11.146   0.304  14.523
58407W        W30133  42.958  35.888   2.352
58408W        W30134   4.481  20.418  13.271
58409W        W30135   7.621  26.026   4.351
58410W        W30136  17.348   0.054  11.448
58411W        W30137   1.389  39.770   0.832
58412W        W30138  18.083  10.633   4.357
58413W        W30139  32.318   5.483   3.144
58414W        W30140  40.481  37.196   0.974
58415W        W30141  25.434  25.839   2.800
58416W        W30142   1.796  10.277   3.733
58417W        W30143   0.469   1.897  12.808
58418W        W30144  12.495  25.781   4.995
58419W        W30145   6.627  41.340  13.486
58420W        W30146  42.993  18.198  10.972
58421W        W30147   6.215   4.514  12.117
58422W        W30148  20.484  38.902  11.136
58423W        W30149  16.177  18.219  12.478
58424W        W30150  23.135  30.825  12.953
58425W        W30151  11.859   8.801   0.782
58426W        W30152  16.759  31.240  11.684
58427W        W30153  13.234  42.971  14.437
58428W        W30154  24.555  44.789   4.957
58429W        W30155  24.955  17.651  10.734
58430W        W30156  25.597   3.493  14.028
58431W        W30157   3.666   4.832  11.411
58432W        W30158  20.653  25.470  12.904
58433W        W30159  35.902  15.349   3.955
58434W        W30160   9.340   6.959   3.606
58435W        W30161  16.935  27.851   0.932
58436W        W30162  18.131  14.276  12.635
58437W        W30163   0.889   4.639   5.075
58438W        W30164  43.948   4.399  10.454
58439W        W30165  33.979  17.757  14.988
58440W        W30166  37.320  27.492   1.189
58441W        W30167   3.228  26.075   1.250
58442W        W30168  38.513   0.290   0.833
58443W        W30169  33.579  19.000   0.317
58444W        W30170   8.253  41.461  13.357
58445W        W30171  18.149  10.276  11.525
58446W        W30172  44.287   3.856   2.389
58447W        W30173   4.432  30.045   1.000
58448W        W30174  18.359  40.935  11.000
58449W        W30175   4.675  20.665   3.698
58450W        W30176  16.847   1.845   3.219
58451W        W30177   8.354  14.636   0.346
58452W        W30178  16.369  19.790  14.151
58453W        W30179  40.924  32.512   0.778
58454W        W30180  22.278  36.576   1.817
58455W        W30181  10.433   1.227   3.377
58456W        W30182  27.821   7.298   1.388
58457W        W30183  32.783   9.677  11.013
58458W        W30184  10.137  26.482   4.984
58459W        W30185   2.276  39.381   2.444
58460W        W30186   3.743  27.488   3.729
58461W        W30187  13.223  17.750   0.261
58462W        W30188  35.120   3.896   3.164
58463W        W30189   6.385  11.503  10.268
58464W        W30190  34.711  37.464   5.018
58465W        W30191  17.774  31.665   4.131
58466W        W30192  27.163  33.133   1.776
58467W        W30193   0.146  40.905  12.011
58468W        W30194  36.559  39.829  11.689
58469W        W30195  32.059  14.039   4.966
58470W        W30196   6.234  31.543  13.795
58471W        W30197  11.244   8.703   0.279
58472W        W30198  23.294  34.615   3.770
58473W        W30199  15.642  13.169  11.504
58474W        W30200  31.569  17.251  12.089
58475W        W30201  38.643  34.916   2.351
58476W        W30202   4.748  11.174  13.927
58477W        W30203  10.680  44.976  10.445
58478W        W30204  15.163   6.232  11.393
58479W        W30205   9.482  43.007  12.330
58480W        W30206   6.364  25.533   4.252
58481W        W30207   9.690  21.551  13.310
58482W        W30208  14.209  12.621   4.907
58483W        W30209  16.578  24.082   1.627
58484W        W30210  20.628  30.892  12.713
58485W        W30211  34.138  13.817  13.882
58486W        W30212   9.163   7.474   5.088
58487W        W30213  40.345  40.247   4.588
58488W        W30214  25.130  23.508  13.835
58489W        W30215   9.888  36.891  11.425
58490W        W30216  25.071   9.613  11.370
58491W        W30217   1.369   6.869  12.611
58492W        W30218  27.764  33.941  12.438
58493W        W30219  40.099  26.194   2.570
58494W        W30220  23.700  17.486   4.485
58495W        W30221  42.926  13.710   0.626
58496W        W30222  25.908  42.063  10.655
58497W        W30223  19.347   3.421   1.742
58498W        W30224  34.873  21.709  12.574
58499W        W30225   9.094   6.346  13.344
58500W        W30226   6.334  37.527   2.745
58501W        W30227  38.447  10.471   0.941
58502W        W30228  33.029  32.800   2.762
58503W        W30229   2.848  14.129   3.706
58504W        W30230   1.973  44.469  11.071
58505W        W30231  27.586   9.796   2.769
58506W        W30232  12.395  25.474   3.023
58507W        W30233  10.334  32.745  10.772
58508W        W30234  24.206  32.806  12.740
58509W        W30235  42.124  20.497   0.739
58510W        W30236  42.859  31.696   3.873
58511W        W30237  30.370  29.280  12.168
58512W        W30238  17.293  40.983  10.712
58513W        W30239  16.216  25.088  11.868
58514W        W30240  37.856  43.385   3.247
58515W        W30241  14.320  21.747  10.722
58516W        W30242  31.579  10.444   1.499
58517W        W30243  17.987  13.881   1.969
58518W        W30244   2.942  15.681  11.572
58519W        W30245  23.694   6.647  13.350
58520W        W30246   9.528  28.662  13.968
58521W        W30247   1.524  10.340   3.269
58522W        W30248  13.821   8.548  12.528
58523W        W30249  43.084  16.240  14.393
58524W        W30250   9.879  38.815  12.582
58525W        W30251  19.733  18.629   3.568
58526W        W30252  34.561  23.236  13.442
58527W        W30253  28.517  25.235  10.426
58528W        W30254  13.564  26.226   3.340
58529W        W30255  17.272  40.427   0.211
58530W        W30256  15.854   0.964   1.151
58531W        W30257  23.183  40.893   1.715
58532W        W30258  44.474  30.433   0.787
58533W        W30259  31.853  42.432  11.411
58534W        W30260  23.202  16.124   2.238
58535W        W30261  33.644   1.611   5.030
58536W        W30262  28.895  11.711  13.520
58537W        W30263   1.023  26.787   1.384
58538W        W30264  17.542  28.033  10.561
58539W        W30265  24.058  27.657  11.608
58540W        W30266  27.275  19.846   4.098
58541W        W30267  44.287  14.625   2.739
58542W        W30268  25.959   8.214   3.654
58543W        W30269  10.947  11.487   2.807
58544W        W30270   0.782   8.837  13.680
58545W        W30271   2.965  41.018  11.524
58546W        W30272  17.562  37.521  11.091
58547W        W30273   2.107  15.151  12.823
58548W        W30274  25.694  22.110   3.850
58549W        W30275  39.639  27.490  14.828
58550W        W30276  37.973   9.740  10.633
58551W        W30277  40.638  44.445   2.140
58552W        W30278  14.688  25.386   4.184
58553W        W30279  32.132  14.561   4.965
58554W        W30280  10.864  20.565   4.138
58555W        W30281  23.419  34.318  12.964
58556W        W30282  27.207  24.557  13.543
58557W        W30283  34.544   0.192   0.742
58558W        W30284  11.106   2.014   1.280
58559W        W30285  43.989  17.865   3.088
58560W        W30286   2.957  34.335   2.287
58561W        W30287  31.022  21.578  13.526
58562W        W30288  26.639  22.212  12.909
58563W        W30289  23.534  30.899  14.985
58564W        W30290  29.049   5.690  10.616
58565W        W30291  29.375  22.718  11.134
58566W        W30292   5.782  39.794   3.873
58567W        W30293  38.078   8.284   3.046
58568W        W30294  27.634  17.812   0.352
58569W        W30295  33.914  38.337   0.971
58570W        W30296  14.281  31.006   3.709
58571W        W30297  16.342  14.398  14.957
58572W        W30298  27.618  20.939  11.737
58573W        W30299  38.313  35.335   1.472
58574W        W30300  44.829  40.826   2.770
58575W        W30301  43.548  28.568  12.033
58576W        W30302  19.270  10.524  11.265
58577W        W30303  43.939  25.000   1.042
58578W        W30304  39.367  20.251  12.943
58579W        W30305  43.810  37.837   3.414
58580W        W30306  16.494  28.026  10.699
58581W        W30307  37.891  40.480  11.896
58582W        W30308  38.116  31.990   2.879
58583W        W30309  42.861  11.519   3.188
58584W        W30310  15.173  11.579   4.557
58585W        W30311  40.090   1.429   0.064
58586W        W30312  27.648  34.467  12.458
58587W        W30313   1.056  26.729   9.856
58588W        W30314   0.904  15.561   1.864
58589W        W30315  23.659  34.911  10.816
58590W        W30316  28.091   4.937   5.063
58591W        W30317   7.222  36.065  14.393
58592W        W30318  40.044  42.791  14.459
58593W        W30319  19.251  28.992   2.361
58594W        W30320   2.891  42.776   0.394
58595W        W30321  42.902  32.084  14.953
58596W        W30322   2.027  34.070  11.120
58597W        W30323  31.646   6.754  11.951
58598W        W30324   3.978  17.299   4.289
58599W        W30325  21.639  27.564   1.568
58600W        W30326  24.031  22.029   2.154
58601W        W30327   2.983   0.476  13.077
58602W        W30328  13.447   0.751  14.564
58603W        W30329  27.457  43.280   4.566
58604W        W30330   0.952  35.546   1.809
58605W        W30331   6.900   4.897   4.960
58606W        W30332  37.606  41.509  12.974
58607W        W30333   0.439  14.593  14.792
58608W        W30334  22.306  42.939   5.290
58609W        W30335   3.036  36.201  11.432
58610W        W30336  35.070  20.993   0.346
58611W        W30337  12.673  14.577  10.557
58612W        W30338  39.803   7.468   3.050
58613W        W30339   1.962  21.658  11.451
58614W        W30340  14.861  40.563   2.797
58615W        W30341   6.247  32.675  11.993
58616W        W30342  37.537  32.771  13.293
58617W        W30343  10.871  19.865  12.467
58618W        W30344  15.689   2.282   3.580
58619W        W30345  26.561  18.605  14.460
58620W        W30346  15.030  26.188  13.799
58621W        W30347  43.497  18.375  12.456
58622W        W30348  20.124  18.313   2.319
58623W        W30349  33.946  33.905  12.551
58624W        W30350  27.650  37.976  13.072
58625W        W30351  36.400  34.949  11.736
58626W        W30352  41.146  37.519  12.624
58627W        W30353   5.860   0.477   0.940
58628W        W30354  29.907  13.777  14.370
58629W        W30355  31.579  21.847  10.834
58630W        W30356  19.048  29.655   4.712
58631W        W30357  31.089  10.454  11.537
58632W        W30358  11.623  43.026  13.936
58633W        W30359  27.471  31.302   3.209
58634W        W30360  13.897  30.635   1.268
58635W        W30361  31.100  35.503  12.547
58636W        W30362  17.549  40.903  14.396
58637W        W30363   1.810  43.732  14.321
58638W        W30364  15.351  24.046   3.740
58639W        W30365  29.643  34.449   0.551
58640W        W30366  34.486  44.807  11.066
58641W        W30367  14.136  18.199  13.543
58642W        W30368  14.600  36.984   2.920
58643W        W30369  26.704  44.347  12.298
58644W        W30370  29.019  23.109   2.703
58645W        W30371  15.290  37.936   0.355
58646W        W30372  23.992   6.754   0.174
58647W        W30373   2.268  27.621  14.577
58648W        W30374  35.369  30.577  14.253
58649W        W30375   9.453  32.047   1.123
58650W        W30376  15.129  44.878   2.348
58651W        W30377  31.007  27.498   1.971
58652W        W30378  17.755  29.615  13.771
58653W        W30379  33.386   2.531  13.847
58654W        W30380  26.347  32.738  12.941
58655W        W30381   9.156  30.374   0.142
58656W        W30382  28.231  14.817   4.418
58657W        W30383  18.858  25.202  10.660
58658W        W30384  25.133   7.391  12.244
58659W        W30385  19.282  19.493  11.599
58660W        W30386   9.101  41.329   1.924
58661W        W30387  13.785  40.342  10.364
58662W        W30388  11.481  26.074   1.389
58663W        W30389  32.245  42.428  10.092
58664W        W30390  26.565  38.416   1.896
58665W        W30391   0.182  25.250  13.594
58666W        W30392  24.024  43.349   1.946
58667W        W30393  44.509  13.053  10.623
58668W        W30394  31.010  28.202   2.833
58669W        W30395   4.761  24.771   0.003
58670W        W30396   4.672  22.362  10.046
58671W        W30397  15.084  19.977  13.513
58672W        W30398  35.875  32.377   2.856
58673W        W30399  36.899  23.613   4.112
58674W        W30400   4.916   0.266   0.678
58675W        W30401  42.985   4.495  11.625
58676W        W30402   7.322   4.691   0.378
58677W        W30403  32.963  41.032  11.865
58678W        W30404  15.263  38.068   1.641
58679W        W30405   4.380  31.915   0.194
58680W        W30406   9.506  44.809  13.895
58681W        W30407  40.620  41.531   0.967
58682W        W30408  15.568  32.480   0.730
58683W        W30409  37.827  38.391   1.714
58684W        W30410   9.741  27.023   4.920
58685W        W30411  28.297  23.442  11.163
58686W        W30412   9.056  20.909  11.880
58687W        W30413  35.961  10.320   5.162
58688W        W30414  30.954  41.287  13.081
58689W        W30415  31.839  44.795   1.447
58690W        W30416  27.534  32.910   4.152
58691W        W30417  28.163  18.285   0.787
58692W        W30418  42.638  21.869   3.606
58693W        W30419   3.649  33.824  13.903
58694W        W30420  16.769   5.003   4.547
58695W        W30421  28.601   2.213   3.332
58696W        W30422  41.321  37.605  13.462
58697W        W30423  18.370  34.438   3.579
58698W        W30424  34.993  36.940  12.883
58699W        W30425   6.346   5.746   3.845
58700W        W30426  28.642   5.774  13.996
58701W        W30427   8.987   9.909  14.476
58702W        W30428  25.174  18.067  10.489
58703W        W30429  37.493   2.441   2.451
58704W        W30430  29.806   2.240   0.301
58705W        W30431  10.788  19.243   4.922
58706W        W30432  28.836  25.630  10.201
58707W        W30433  26.463  33.872  14.347
58708W        W30434  22.558  17.068  14.945
58709W        W30435  37.260  41.913   2.866
58710W        W30436  10.157  35.847  12.258
58711W        W30437  38.415   0.368   4.844
58712W        W30438  22.765  15.845   4.507
58713W        W30439  19.633   0.855  14.657
58714W        W30440  28.911  23.798   3.450
58715W        W30441  30.392   1.493  12.215
58716W        W30442   2.947  24.796  13.683
58717W        W30443  43.487   3.402  14.811
58718W        W30444  43.387  15.631  11.546
58719W        W30445   3.281   4.184  11.497
58720W        W30446   6.597  44.367  14.267
58721W        W30447  27.446  11.283  11.710
58722W        W30448  34.190  20.711  14.838
58723W        W30449  22.238  31.589  14.530
58724W        W30450   5.456  20.363  11.664
58725W        W30451  36.987  26.487   4.661
58726W        W30452  23.218  10.380   1.374
58727W        W30453  42.353   8.931  12.191
58728W        W30454  28.537   8.721   1.588
58729W        W30455   8.207  44.316   0.793
58730W        W30456  14.950  39.235  11.099
58731W        W30457  40.407  16.808   3.685
58732W        W30458  15.168   0.792   1.877
58733W        W30459   7.382  38.988  11.969
58734W        W30460   2.231  15.406   4.143
58735W        W30461   5.262  33.793  13.410
58736W        W30462  26.890   4.669   3.790
58737W        W30463  42.655   7.136  14.036
58738W        W30464  18.806  28.455  11.909
58739W        W30465  24.985  38.878   4.660
58740W        W30466  31.526  41.382  13.943
58741W        W30467   5.336  13.855   2.387
58742W        W30468   4.438  36.507   4.109
58743W        W30469  32.980  31.859  14.485
58744W        W30470   5.346   2.442   1.837
58745W        W30471  22.254  19.080   3.413
58746W        W30472  26.224  39.306   2.829
58747W        W30473   6.352  36.336   0.084
58748W        W30474   5.115  38.390   4.998
58749W        W30475  10.824  14.149   3.374
58750W        W30476   3.878   9.930  13.400
58751W        W30477  23.295  40.923  13.496
58752W        W30478  23.670   2.746   3.377
58753W        W30479   5.076  20.629  10.737
58754W        W30480  27.195  37.415   3.828
58755W        W30481  36.456   3.128  11.333
58756W        W30482   1.321  41.791   4.720
58757W        W30483  38.975  41.384  14.890
58758W        W30484   8.595  30.710  13.385
58759W        W30485  26.642  40.839   2.780
58760W        W30486  20.605  35.141  14.234
58761W        W30487  41.972  24.522  13.831
58762W        W30488   8.977   0.548   2.758
58763W        W30489  26.169  29.617   3.397
58764W        W30490  11.781  41.510  14.278
58765W        W30491  19.438   5.268  10.692
58766W        W30492  44.271  26.120  11.410
58767W        W30493   5.180  27.472   2.205
58768W        W30494  26.747  32.677  14.736
58769W        W30495   8.694  38.945   2.402
58770W        W30496  13.405  42.714   4.822
58771W        W30497   9.939  14.270  12.490
58772W        W30498  18.275  22.445  13.358
58773W        W30499  12.857   1.051  11.973
58774W        W30500  33.984  28.166   3.954
58775W        W30501  13.698  35.073  14.124
58776W        W30502  27.281   6.359  12.991
58777W        W30503   5.771   3.152   0.816
58778W        W30504  15.179   0.474   0.027
58779W        W30505  11.699   4.172   1.320
58780W        W30506  11.375  15.690  12.035
58781W        W30507  34.298  41.869   2.208
58782W        W30508  26.924  36.413  14.418
58783W        W30509  19.236  43.358   3.099
58784W        W30510  30.181  30.653  11.524
58785W        W30511  22.496  44.334  14.437
58786W        W30512  31.721  36.501   4.532
58787W        W30513  13.773  42.350   4.553
58788W        W30514   8.887  24.078  13.874
58789W        W30515  41.357  11.245   4.298
58790W        W30516   7.385   0.017  14.267
58791W        W30517  35.933   9.299   4.782
58792W        W30518  28.173   3.795   1.111
58793W        W30519  27.526  44.289   5.736
58794W        W30520  18.527  21.885   2.860
58795W        W30521  42.344  26.468   4.890
58796W        W30522  38.263   6.135   4.338
58797W        W30523  22.707  44.984  11.218
58798W        W30524  24.210   2.287  13.439
58799W        W30525   1.413  12.137  10.536
58800W        W30526  10.435  32.909  12.189
58801W        W30527  11.364   3.687   4.538
58802W        W30528  11.881  38.491   2.159
58803W        W30529  42.426  19.128   2.488
58804W        W30530   0.231   8.187  13.972
58805W        W30531   3.485  16.126   3.398
58806W        W30532   1.213  12.636   1.334
58807W        W30533  20.279  17.657   1.838
58808W        W30534   7.615  31.649  13.883
58809W        W30535  41.488  15.089  14.375
58810W        W30536   2.959  18.841  12.830
58811W        W30537  37.266   5.955  12.968
58812W        W30538  22.469  20.182  12.150
58813W        W30539  29.689  19.634  14.642
58814W        W30540  31.577  14.090   2.763
58815W        W30541  42.408  16.212  10.638
58816W        W30542  35.247  10.851  12.473
58817W        W30543  40.056  21.698   1.696
58818W        W30544  21.438  23.487   3.835
58819W        W30545  24.716  40.794  13.659
58820W        W30546  36.522   8.244   1.531
58821W        W30547   1.262  42.184   1.897
58822W        W30548  23.666   2.827  14.423
58823W        W30549  16.096  36.999  10.727
58824W        W30550   5.499  44.383   3.116
58825W        W30551  35.550  27.574   2.952
58826W        W30552   7.403   6.713  10.997
58827W        W30553  25.597   8.427   0.274
58828W        W30554   8.850  41.616   4.683
58829W        W30555   2.193  13.140  14.337
58830W        W30556  36.900   2.801  11.882
58831W        W30557   5.895   6.874   1.682
58832W        W30558   0.344   9.584  10.614
58833W        W30559  36.899   3.235  13.146
58834W        W30560  44.728  44.068  10.968
58835W        W30561  11.724  39.390   4.290
58836W        W30562  12.850  40.055   0.398
58837W        W30563  22.910   8.830  12.573
58838W        W30564   2.540  14.585  10.659
58839W        W30565  43.407  31.190  12.625
58840W        W30566  39.496   6.870   0.909
58841W        W30567  29.497   5.775   1.866
58842W        W30568  19.930   1.837  10.814
58843W        W30569  39.971  17.168   0.483
58844W        W30570  25.701  33.088   4.955
58845W        W30571  15.696   0.458   3.303
58846W        W30572   6.249  19.067   3.368
58847W        W30573  20.605  33.033  10.411
58848W        W30574  43.962  26.259  12.013
58849W        W30575  10.152  38.416   3.529
58850W        W30576   5.963   2.889   3.213
58851W        W30577  23.138  32.501  13.802
58852W        W30578  41.404  20.222   5.303
58853W        W30579  24.653  41.261  11.118
58854W        W30580   0.386  11.677   0.199
58855W        W30581  39.916  28.194  14.430
58856W        W30582  44.220  19.929   2.604
58857W        W30583  14.511  10.181   2.728
58858W        W30584  34.924  10.707   2.244
58859W        W30585  22.679   9.081  10.184
58860W        W30586  10.580  15.413   3.937
58861W        W30587  23.528  35.450  13.518
58862W        W30588  34.161  26.435   3.714
58863W        W30589  29.103  19.177  12.555
58864W        W30590  20.052  18.679  11.890
58865W        W30591   4.484  40.777  11.629
58866W        W30592  43.266  32.496   2.075
58867W        W30593  21.853  25.680   4.874
58868W        W30594  42.458  30.121   3.806
58869W        W30595  14.898  34.206  10.085
58870W        W30596  22.546   4.029  12.691
58871W        W30597  29.174  19.137   4.632
58872W        W30598  30.609  25.254  12.084
58873W        W30599  24.188  22.307   0.868
58874W        W30600  42.333  42.234  13.496
58875W        W30601   3.519  24.036  12.545
58876W        W30602   0.802   0.674  11.441
58877W        W30603  35.650  19.598  12.540
58878W        W30604   0.834  22.022  10.480
58879W        W30605   5.310   6.464  13.936
58880W        W30606  22.958   7.825  13.988
58881W        W30607  11.532   4.877  12.194
58882W        W30608  27.358  30.381  12.903
58883W        W30609  23.707   9.702   0.337
58884W        W30610  14.653  42.341   2.108
58885W        W30611   2.757  44.085  12.868
58886W        W30612  38.584  30.660   1.763
58887W        W30613  10.322  43.403  11.973
58888W        W30614   6.975  30.162   2.903
58889W        W30615  37.921  15.114   2.322
58890W        W30616  27.159  17.941  13.509
58891W        W30617  19.525  30.047  11.402
58892W        W30618  17.081   2.939   2.141
58893W        W30619  41.022   8.833   3.872
58894W        W30620   1.409   2.465  14.628
58895W        W30621  14.876  16.740   1.879
58896W        W30622  35.588  39.536   1.178
58897W        W30623  19.227  26.124  10.710
58898W        W30624  41.329   2.593  11.399
58899W        W30625  39.007  35.551  13.809
58900W        W30626  18.772  22.599  11.803
58901W        W30627  43.584  27.455   0.360
58902W        W30628   9.668   7.308  12.613
58903W        W30629  37.317  12.740  13.023
58904W        W30630  33.123  18.673   1.518
58905W        W30631  10.776  20.287  14.225
58906W        W30632   7.423   6.704  13.587
58907W        W30633  17.874   2.396   1.299
58908W        W30634  30.026  43.480   4.339
58909W        W30635  25.995  36.999   2.452
58910W        W30636   1.663  21.553  13.435
58911W        W30637   7.585   3.386   2.666
58912W        W30638  15.518  41.432   1.838
58913W        W30639  32.300  17.850   4.326
58914W        W30640  41.483  27.956  12.467
58915W        W30641  33.414  30.630   1.757
58916W        W30642  17.114  23.988   3.122
58917W        W30643  41.908   3.332  11.870
58918W        W30644  31.989  38.357   4.917
58919W        W30645  31.779  28.418   4.349
58920W        W30646  42.435  37.096  12.618
58921W        W30647  39.380  18.555  14.545
58922W        W30648  24.212  42.215   2.211
58923W        W30649  13.382   0.936   2.001
58924W        W30650  29.485  30.019   2.932
58925W        W30651  10.558  13.640  11.629
58926W        W30652  33.074  16.139  13.850
58927W        W30653   7.131  35.963  13.901
58928W        W30654   8.627  19.700   2.834
58929W        W30655   3.853  42.259   4.223
58930W        W30656  31.039  20.562  14.500
58931W        W30657  42.908  27.956  14.963
58932W        W30658  21.211  24.629   4.830
58933W        W30659   9.691  15.678  12.524
58934W        W30660   4.794  40.987  14.789
58935W        W30661  36.043   0.487   3.201
58936W        W30662  42.041  26.512  14.077
58937W        W30663  16.759  21.475  10.562
58938W        W30664   9.222  26.021  14.383
58939W        W30665  35.935  15.808  13.827
58940W        W30666  35.940  34.873   1.455
58941W        W30667  42.757  15.058   4.138
58942W        W30668  14.017  34.830   3.670
58943W        W30669  40.325   1.815  13.935
58944W        W30670  36.863  25.051   4.420
58945W        W30671   7.705  31.668   3.721
58946W        W30672  29.831  28.152   3.670
58947W        W30673  44.494  27.143   4.440
58948W        W30674  24.936  26.572   2.282
58949W        W30675  32.158  12.743  10.028
58950W        W30676  21.943  32.839  13.771
58951W        W30677  39.552  10.278   3.222
58952W        W30678  28.057   7.799  13.503
58953W        W30679  42.746  17.251   1.828
58954W        W30680  37.945  28.181  10.667
58955W        W30681  27.585  44.888   1.698
58956W        W30682   9.847   8.874   2.878
58957W        W30683  18.691   6.879   1.300
58958W        W30684  27.954  35.161   2.219
58959W        W30685  17.898  37.888  13.567
58960W        W30686   4.742   0.495  11.516
58961W        W30687  27.003  36.037   0.867
58962W        W30688  15.271  40.689   5.169
58963W        W30689  11.639  14.468  10.368
58964W        W30690   1.428  31.863  12.907
58965W        W30691   8.366  33.654   0.459
58966W        W30692  32.666   5.201  14.590
58967W        W30693  21.083  36.964   2.906
58968W        W30694  27.782   4.915  14.956
58969W        W30695  35.766  29.553   4.689
58970W        W30696  14.239  13.283  11.030
58971W        W30697  29.497  42.659   2.160
58972W        W30698  29.939  37.260   2.297
58973W        W30699   9.557  43.462   2.131
58974W        W30700  29.591   6.554  14.552
58975W        W30701  18.515  16.306   4.444
58976W        W30702  15.156  11.561   3.719
58977W        W30703  39.511  15.573   0.088
58978W        W30704  35.656   2.006  12.948
58979W        W30705  21.035  26.554   1.684
58980W        W30706  16.414  20.559   2.340
58981W        W30707  44.743  25.954   0.825
58982W        W30708  13.761  42.263   2.403
58983W        W30709  14.679  39.611  12.512
58984W        W30710   0.465  20.971  12.497
58985W        W30711  27.981   2.760   1.315
58986W        W30712   7.791  43.843   4.163
58987W        W30713  15.073  43.706   4.182
58988W        W30714  29.440  32.532   0.529
58989W        W30715   5.722  28.974  10.677
58990W        W30716  13.652  31.549  11.611
58991W        W30717  19.775   6.062   3.225
58992W        W30718  34.517  39.356  14.472
58993W        W30719  29.566  43.480   4.590
58994W        W30720  43.777   9.378  12.107
58995W        W30721   1.931  23.200   3.736
58996W        W30722   5.847  24.619   1.365
58997W        W30723  15.664  17.524   2.899
58998W        W30724  32.004   8.333  13.566
58999W        W30725   0.919  43.826   1.223
59000W        W30726  30.035  11.353  13.797
59001W        W30727  33.929  24.562  12.604
59002W        W30728  16.793  36.472   4.952
59003W        W30729  40.662  44.897   1.787
59004W        W30730   6.779   2.086   1.671
59005W        W30731   4.406  35.725   4.608
59006W        W30732  17.110  44.990  10.643
59007W        W30733  28.347  35.944   2.473
59008W        W30734  24.635   4.583   1.504
59009W        W30735  40.558  11.351  13.815
59010W        W30736  26.672  15.275  14.109
59011W        W30737  41.892  29.554   1.520
59012W        W30738   8.228  22.112  14.445
59013W        W30739   7.852  40.583   4.678
59014W        W30740   6.993  44.498   3.320
59015W        W30741  44.503   3.716   4.068
59016W        W30742  41.839  36.025   3.222
59017W        W30743  42.953   2.138   1.264
59018W        W30744  21.382  32.819   2.588
59019W        W30745   5.654  43.965  12.778
59020W        W30746   6.332  17.867   4.282
59021W        W30747  34.366  33.987   4.157
59022W        W30748   1.949  27.268   3.232
59023W        W30749  10.928  18.503  12.082
59024W        W30750  19.127  11.302  12.386
59025W        W30751  38.944   2.685  13.440
59026W        W30752  16.147   3.034  14.071
59027W        W30753  31.129  32.859  14.811
59028W        W30754  29.453  10.145   4.157
59029W        W30755   4.976  21.911   4.025
59030W        W30756   1.296  37.857  13.413
59031W        W30757  20.308  11.131  12.463
59032W        W30758  41.931   9.864   3.890
59033W        W30759  18.313  25.030  14.066
59034W        W30760  41.371   1.438  11.991
59035W        W30761  31.186  44.723  12.496
59036W        W30762   7.178   7.603  10.688
59037W        W30763  26.771   6.049  12.559
59038W        W30764  35.880   5.463   4.158
59039W        W30765  15.548  33.202  12.276
59040W        W30766  35.709  29.155  12.927
59041W        W30767  23.713  41.962  14.401
59042W        W30768  15.232   3.378   4.274
59043W        W30769  10.536  28.237  11.736
59044W        W30770  16.640  38.538  10.266
59045W        W30771  28.501  35.621  11.570
59046W        W30772   0.233   3.675  11.158
59047W        W30773  35.074  10.284  13.535
59048W        W30774  22.089  42.092   1.387
59049W        W30775   2.268   2.411   4.024
59050W        W30776  19.260  19.203   2.711
59051W        W30777  21.760   3.811  13.479
59052W        W30778  21.331   0.134   3.718
59053W        W30779  11.568  37.841   3.935
59054W        W30780  34.487  19.318  10.971
59055W        W30781  28.957  36.997   4.381
59056W        W30782  21.454   8.269   2.444
59057W        W30783   3.222  42.815  10.249
59058W        W30784  20.782  27.546  13.851
59059W        W30785  13.894  15.812  11.925
59060W        W30786  32.454  10.662   2.631
59061W        W30787  10.342   1.429  13.797
59062W        W30788  31.529  29.673  13.382
59063W        W30789   1.821  19.994   2.143
59064W        W30790  34.868  36.019   4.611
59065W        W30791  38.816   8.308  11.715
59066W        W30792  14.650  17.516   1.340
59067W        W30793  28.670  18.272  14.470
59068W        W30794  27.069  13.783   3.441
59069W        W30795  27.447   7.933   3.396
59070W        W30796  20.079  14.940   4.348
59071W        W30797  35.673   8.102  12.674
59072W        W30798  12.298   4.823   4.385
59073W        W30799  22.497  13.590  12.116
59074W        W30800  44.916  10.697  14.735
59075W        W30801   2.651  26.034   0.350
59076W        W30802  42.086  22.085  12.183
59077W        W30803  28.012  22.208   2.772
59078W        W30804  22.224  34.502  13.359
59079W        W30805  12.800  20.338  12.544
59080W        W30806  38.386  10.375  11.871
59081W        W30807  30.152  38.428  10.594
59082W        W30808   9.568  41.608   2.668
59083W        W30809  26.470  20.233  10.592
59084W        W30810  40.151  19.694   4.626
59085W        W30811   3.270  42.988  12.016
59086W        W30812  29.064  23.166  13.416
59087W        W30813  28.535  40.477  14.420
59088W        W30814  29.856  19.347   0.122
59089W        W30815  38.268   8.200   3.918
59090W        W30816  33.803  27.883   1.696
59091W        W30817  29.140  10.743   4.270
59092W        W30818  10.153  25.654  12.104
59093W        W30819   8.405  22.108   0.860
59094W        W30820  15.960  31.488  14.435
59095W        W30821  25.494  23.960   4.473
59096W        W30822  14.591  41.296  14.776
59097W        W30823   0.424  34.116   4.105
59098W        W30824  17.160  21.744  10.747
59099W        W30825   9.225   7.548  12.009
59100W        W30826  17.657  36.225   4.700
59101W        W30827  18.260  32.497  14.772
59102W        W30828   3.884  23.497   3.853
59103W        W30829   0.123  12.553   3.227
59104W        W30830  30.818  30.256  12.074
59105W        W30831  23.197  16.862  10.682
59106W        W30832  21.624  10.124   4.783
59107W        W30833  19.590  25.233  12.077
59108W        W30834  19.571  28.266  12.194
59109W        W30835  21.103  11.734  11.970
59110W        W30836  33.805  35.062   0.873
59111W        W30837  38.740  34.565   4.957
59112W        W30838  13.665   1.961   1.271
59113W        W30839  26.923   2.407   4.159
59114W        W30840  21.835  38.575  11.035
59115W        W30841  13.077   7.388   3.650
59116W        W30842  28.662  26.567   4.650
59117W        W30843  11.627  33.882  11.180
59118W        W30844   2.375  12.214   3.607
59119W        W30845   6.104  40.765   3.616
59120W        W30846  34.398  44.263  10.346
59121W        W30847   4.778  11.940   0.757
59122W        W30848  34.931  10.585   1.220
59123W        W30849  35.054  39.590   2.427
59124W        W30850  19.783  17.334   2.748
59125W        W30851  33.474  38.759   0.230
59126W        W30852  11.371  33.837  14.998
59127W        W30853  14.758   0.856   0.199
59128W        W30854  28.399  38.059  11.094
59129W        W30855   2.308  23.044   2.837
59130W        W30856  33.495  29.339   3.653
59131W        W30857   4.417  34.242  11.197
59132W        W30858  16.291   8.419  13.249
59133W        W30859  23.971  11.448  11.203
59134W        W30860  12.061  37.931   2.279
59135W        W30861   0.126  34.607   4.050
59136W        W30862  19.859  12.328   1.754
59137W        W30863  14.316  29.856  11.576
59138W        W30864  33.063  34.047   4.653
59139W        W30865  23.479  36.587   0.520
59140W        W30866  41.933  34.829  12.079
59141W        W30867  18.469  15.278   3.707
59142W        W30868  38.007  32.064  12.004
59143W        W30869  40.834  35.188  11.981
59144W        W30870   4.267  15.283  14.871
59145W        W30871  21.924  38.267  14.328
59146W        W30872  38.964   7.916   1.680
59147W        W30873  22.500  16.838  14.457
59148W        W30874  22.508  24.240  12.470
59149W        W30875  23.671  41.245  13.184
59150W        W30876  26.499  10.852   0.772
59151W        W30877  33.944  17.047  11.400
59152W        W30878  22.508   3.909  10.636
59153W        W30879   6.039  13.080  11.513
59154W        W30880  30.024   7.884  14.083
59155W        W30881  20.743   7.721   0.756
59156W        W30882  31.287  34.567   3.791
59157W        W30883  18.736  18.750  13.399
59158W        W30884  13.188   6.628   3.285
59159W        W30885  26.068  40.940   2.270
59160W        W30886  42.485   9.799   4.734
59161W        W30887  14.896  26.466  10.534
59162W        W30888  20.016  43.812  11.104
59163W        W30889   2.714  23.840  11.558
59164W        W30890  36.358   9.750   2.803
59165W        W30891  19.945  33.620   3.203
59166W        W30892  20.061  19.077  13.149
59167W        W30893  33.072  11.843  11.465
59168W        W30894   1.508   3.736  14.708
59169W        W30895  16.865  25.510   1.643
59170W        W30896  24.453  37.217   0.935
59171W        W30897   1.768   4.751  10.602
59172W        W30898  42.281  27.503  13.489
59173W        W30899  32.846   2.406   3.617
59174W        W30900  37.864  32.414  14.894
59175W        W30901  27.072   8.939   1.410
59176W        W30902  35.956  31.706   4.705
59177W        W30903   1.699  29.899  14.272
59178W        W30904  31.968  42.749   0.850
59179W        W30905  22.225  20.965   3.574
59180W        W30906  21.124  32.614  10.855
59181W        W30907  26.942  16.562  14.043
59182W        W30908  15.539  41.344  13.741
59183W        W30909  37.270  43.299  12.203
59184W        W30910  32.978  18.487   4.283
59185W        W30911  35.168  34.021   2.843
59186W        W30912  37.796  36.885  13.095
59187W        W30913  15.226  28.537  12.144
59188W        W30914  36.358  22.418   5.016
59189W        W30915  36.587  37.286   2.313
59190W        W30916  37.443  12.993  13.896
59191W        W30917  41.856  13.660   1.754
59192W        W30918   6.405  12.077   3.215
59193W        W30919  10.819  35.701   3.101
59194W        W30920  19.506   2.909   3.280
59195W        W30921  42.094  20.617  12.257
59196W        W30922   3.811  14.520  12.431
59197W        W30923  32.980   0.461   3.441
59198W        W30924   2.732  10.896  10.749
59199W        W30925  28.163  34.786   1.304
59200W        W30926   1.459  12.548   2.224
59201W        W30927  16.545  18.162  13.584
59202W        W30928  35.130  19.657  12.583
59203W        W30929  16.715   3.597  10.013
59204W        W30930  25.067   1.965  11.477
59205W        W30931  32.587  19.618  11.621
59206W        W30932  11.257   3.708   1.820
59207W        W30933  34.518  17.250   3.137
59208W        W30934  29.833  34.341   3.676
59209W        W30935  44.228   8.909  14.519
59210W        W30936  26.359  28.168   3.345
59211W        W30937  29.602   4.436   4.463
59212W        W30938   2.041  27.972  11.921
59213W        W30939  13.832   3.317   4.642
59214W        W30940  40.329  15.067  13.749
59215W        W30941  12.873   3.284   3.748
59216W        W30942  24.553   5.374   2.767
59217W        W30943  21.193   7.669   0.513
59218W        W30944   4.849  39.918  12.154
59219W        W30945  19.691  19.498   0.712
59220W        W30946   4.759  42.572   3.248
59221W        W30947  44.911  44.033   3.254
59222W        W30948  39.122  19.372  11.582
59223W        W30949  13.655  29.017   0.372
59224W        W30950  30.828  25.607  11.515
59225W        W30951  14.842  18.133  11.071
59226W        W30952  29.497  16.612  12.541
59227W        W30953  17.858  21.389   2.876
59228W        W30954   7.323  28.947  14.999
59229W        W30955   1.462  12.959   0.336
59230W        W30956  41.359   0.399  13.553
59231W        W30957   8.355   2.756  12.613
59232W        W30958   1.915   6.674  14.420
59233W        W30959  38.345  23.773   3.217
59234W        W30960  20.906  28.922  13.997
59235W        W30961  42.918   0.730   2.911
59236W        W30962   5.794   8.993   3.101
59237W        W30963  22.973   1.956  13.010
59238W        W30964  41.950  16.061  10.868
59239W        W30965  18.047  34.561   4.463
59240W        W30966  15.746  40.764   2.229
59241W        W30967  17.142  12.320  13.332
59242W        W30968  43.022  43.992  13.084
59243W        W30969   7.349  28.010  12.927
59244W        W30970   3.483  41.000   2.636
59245W        W30971  22.065  37.606   0.893
59246W        W30972   3.804  30.482   3.245
59247W        W30973  25.828  29.111   1.780
59248W        W30974  33.585  29.865   1.867
59249W        W30975  37.288  37.981   4.470
59250W        W30976  42.366  12.066  11.600
59251W        W30977  13.647   7.850  11.252
59252W        W30978  31.245  12.510   1.214
59253W        W30979  19.278  34.264  11.003
59254W        W30980  22.216  21.937  10.737
59255W        W30981  13.091   9.248  11.697
59256W        W30982  11.906  44.842  11.738
59257W        W30983  11.267  19.262  14.342
59258W        W30984  18.832  26.594   2.859
59259W        W30985  16.782  33.962   3.295
59260W        W30986  25.504  10.794   0.354
59261W        W30987  20.547  25.173   2.781
59262W        W30988  31.070  21.782   0.447
59263W        W30989  39.716  44.754  11.648
59264W        W30990  39.045  42.531   4.232
59265W        W30991  30.907  11.450   3.754
59266W        W30992  36.970  37.267  11.695
59267W        W30993  26.526  21.824  14.618
59268W        W30994  37.928  16.509  14.458
59269W        W30995   6.410   1.441   1.257
59270W        W30996  29.422  43.564  13.913
59271W        W30997   4.354  42.662   3.855
59272W        W30998  29.407  27.961   0.063
59273W        W30999  25.440  33.636  13.888
59274W        W31000   5.276  11.151  14.614
59275W        W31001  22.251  22.154   4.287
59276W        W31002   7.279  27.284   4.584
59277W        W31003  22.180  25.495  12.669
59278W        W31004  21.115  24.967  13.431
59279W        W31005  20.455  35.625   0.023
59280W        W31006   8.408  26.608  12.386
59281W        W31007  25.505  16.070   4.653
59282W        W31008  11.112  16.328  12.582
59283W        W31009  23.314  23.154  12.443
59284W        W31010   8.371  40.789   2.176
59285W        W31011   2.495  42.239  12.466
59286W        W31012  31.485  23.718  12.649
59287W        W31013  22.663  13.727  10.233
59288W        W31014   0.786  11.134  13.497
59289W        W31015  23.114  18.610   1.843
59290W        W31016  43.205  24.438  13.030
59291W        W31017  25.651   8.260  14.394
59292W        W31018  36.564   8.242  12.770
59293W        W31019  12.333  25.221   2.514
59294W        W31020  18.144  21.920   1.506
59295W        W31021  28.891  24.253   3.197
59296W        W31022  26.220  12.209  13.806
59297W        W31023   4.197  44.775  11.561
59298W        W31024   0.720  24.763  11.071
59299W        W31025   4.182  21.809  13.118
59300W        W31026  35.860   1.837   1.484
59301W        W31027   1.284   1.509  11.340
59302W        W31028  18.209  37.168   0.309
59303W        W31029  11.395  26.061  12.076
59304W        W31030   4.596  31.245   2.770
59305W        W31031  26.103  27.611  13.457
59306W        W31032  10.381   8.833  10.262
59307W        W31033  12.847  29.077  14.883
59308W        W31034  24.550  35.853   2.179
59309W        W31035  26.975  15.117  13.014
59310W        W31036  16.314  29.032   4.220
59311W        W31037   9.824  19.912  13.366
59312W        W31038  16.720  44.501   1.344
59313W        W31039   3.843  44.472  14.410
59314W        W31040  39.805  18.154  11.526
59315W        W31041  32.353  30.898   0.801
59316W        W31042  18.747  20.458   0.483
59317W        W31043  24.328  19.628  12.064
59318W        W31044  21.787  12.843  13.369
59319W        W31045  41.155  16.189   3.360
59320W        W31046  29.943   2.003  12.576
59321W        W31047   9.929  35.621   4.054
59322W        W31048  22.800  19.771  14.989
59323W        W31049  32.607  37.362  14.043
59324W        W31050  32.567  29.935   3.597
59325W        W31051  11.645  42.909  13.047
59326W        W31052  18.533  16.276  11.603
59327W        W31053  38.561  39.500  13.408
59328W        W31054  44.445  23.719  13.037
59329W        W31055  12.360  30.329  13.300
59330W        W31056  15.020  23.647   1.269
59331W        W31057   4.712  34.627   3.841
59332W        W31058  14.702  38.404   9.828
59333W        W31059  19.142   9.024  10.463
59334W        W31060   0.471  37.199   0.139
59335W        W31061  13.279  22.922  11.709
59336W        W31062  42.834  23.233   1.390
59337W        W31063  17.659  28.559   2.120
59338W        W31064  22.784  43.634   0.718
59339W        W31065  12.446  37.942  10.863
59340W        W31066  21.582  40.202  13.034
59341W        W31067  15.402  21.557   4.743
59342W        W31068   4.646  44.073   0.845
59343W        W31069  19.457  19.740   4.990
59344W        W31070   8.623  42.531   1.312
59345W        W31071  37.314  44.807  14.853
59346W        W31072  11.156   0.900  12.445
59347W        W31073   9.409  21.618  10.484
59348W        W31074  38.400   5.615  12.180
59349W        W31075   2.493  42.459   4.153
59350W        W31076  29.172  44.388  12.076
59351W        W31077  15.672  36.695  12.894
59352W        W31078   2.935  42.986  10.655
59353W        W31079  31.259  15.003  13.488
59354W        W31080  22.071  30.171   0.376
59355W        W31081  23.753  42.258  11.491
59356W        W31082  20.475  26.861   5.187
59357W        W31083   7.411  19.344   4.801
59358W        W31084   0.407  15.943   3.601
59359W        W31085  15.534   9.838  13.890
59360W        W31086  35.777  25.992   3.359
59361W        W31087  39.742  25.940   0.035
59362W        W31088   9.174  14.761  12.276
59363W        W31089  33.508   9.958   4.734
59364W        W31090  43.834  36.405  13.509
59365W        W31091  35.288   4.865  10.760
59366W        W31092  13.803  31.043  12.497
59367W        W31093   0.264   6.438  11.588
59368W        W31094  24.108  15.232   0.677
59369W        W31095  15.665  26.039   1.655
59370W        W31096  44.881  19.863   4.386
59371W        W31097  18.745  25.580  14.939
59372W        W31098   0.684   6.703   0.292
59373W        W31099   2.443  13.611   0.512
59374W        W31100  43.357  35.200   1.258
59375W        W31101  20.598  30.152  11.986
59376W        W31102   3.781   0.978   1.811
59377W        W31103  43.345  18.161  14.518
59378W        W31104  11.590  37.533  13.809
59379W        W31105  34.062  40.301  11.674
59380W        W31106  13.591  14.221   1.065
59381W        W31107   7.639  31.622   4.540
59382W        W31108  21.174   4.389  10.434
59383W        W31109  44.218  12.116   0.823
59384W        W31110  30.234   6.731  12.146
59385W        W31111   5.080   6.780   2.420
59386W        W31112  38.496  40.154   3.139
59387W        W31113   2.242  24.739   4.152
59388W        W31114  27.980  19.494  12.328
59389W        W31115  34.560  39.017   4.466
59390W        W31116  26.130  35.472   3.525
59391W        W31117  39.302   2.316   0.235
59392W        W31118  16.613  20.833   1.827
59393W        W31119   6.856  27.113  13.902
59394W        W31120  41.064   9.879   1.166
59395W        W31121  34.760  43.083  10.522
59396W        W31122  39.411  22.264   3.645
59397W        W31123  24.920  40.703  11.606
59398W        W31124  40.430  26.972   1.381
59399W        W31125  13.786   0.160   2.068
59400W        W31126   4.782  23.483   1.285
59401W        W31127  34.977  19.809  13.581
59402W        W31128  30.970   3.429   4.779
59403W        W31129   5.131  28.887   0.728
59404W        W31130  32.894   2.275   0.767
59405W        W31131  34.993  10.222   1.990
59406W        W31132  43.289  20.169  14.753
59407W        W31133  15.777   8.369   3.332
59408W        W31134  26.947  34.519   1.500
59409W        W31135  23.271  40.846   2.220
59410W        W31136   0.535   5.843   2.363
59411W        W31137  26.625  15.552   2.176
59412W        W31138  10.694  38.274  14.307
59413W        W31139  25.976  33.943  11.075
59414W        W31140  39.607  20.191   3.910
59415W        W31141  39.874  33.116   1.338
59416W        W31142  43.967  11.830  11.350
59417W        W31143   7.621  40.613  13.492
59418W        W31144  25.508  27.698   2.320
59419W        W31145  15.055  19.210   4.778
59420W        W31146  15.523  23.594  12.286
59421W        W31147  35.179  35.167   0.755
59422W        W31148  41.888   8.867   0.567
59423W        W31149  12.262   5.310   0.264
59424W        W31150  28.640  25.766   3.767
59425W        W31151   9.766   4.131   4.853
59426W        W31152   1.916  18.219   4.553
59427W        W31153   9.028   6.188   3.959
59428W        W31154  14.080   5.703   4.647
59429W        W31155  10.819  19.690   4.063
59430W        W31156  10.331   2.059   4.095
59431W        W31157  42.830  43.664  11.296
59432W        W31158  26.200  17.849   0.350
59433W        W31159  23.652  32.022  13.419
59434W        W31160  13.869  25.518   2.857
59435W        W31161  26.580  18.499  13.059
59436W        W31162  33.073  25.752  10.757
59437W        W31163  29.173  33.437   2.588
59438W        W31164  13.064  41.829  12.980
59439W        W31165  43.093  33.424  14.660
59440W        W31166  31.010  26.222   5.162
59441W        W31167  26.925   5.907   1.927
59442W        W31168  10.769  35.983  13.885
59443W        W31169  36.570  33.996  10.722
59444W        W31170  40.976   8.160  14.600
59445W        W31171  36.193   6.650  12.916
59446W        W31172  27.941  43.262  11.426
59447W        W31173  24.807   8.745  13.519
59448W        W31174  13.827  23.121   0.513
59449W        W31175  37.546  38.324  12.598
59450W        W31176   9.801  41.394   3.090
59451W        W31177   7.939  37.003   3.181
59452W        W31178  37.010  39.550  11.673
59453W        W31179  33.739   0.047   2.873
59454W        W31180   4.013  38.304   1.768
59455W        W31181  19.732   1.409  13.979
59456W        W31182   1.753   6.446  13.968
59457W        W31183  38.522  43.451  12.100
59458W        W31184  36.121  43.959  12.956
59459W        W31185  43.319   6.295  11.538
59460W        W31186  14.282  34.755   0.386
59461W        W31187  42.912  21.687   1.719
59462W        W31188   3.551   8.610  13.523
59463W        W31189  31.503  24.632   4.565
59464W        W31190  16.800  18.945   0.899
59465W        W31191  14.663  12.403   1.815
59466W        W31192  13.820  32.415  14.816
59467W        W31193  38.792  42.622  11.144
59468W        W31194  43.174  13.675  12.425
59469W        W31195  17.300  12.809   3.978
59470W        W31196   2.363   4.492  13.386
59471W        W31197  32.344  14.638   1.483
59472W        W31198  25.075   0.619   0.116
59473W        W31199  24.316  44.733  12.919
59474W        W31200   7.530   6.279   0.409
59475W        W31201   4.652   5.391   2.398
59476W        W31202  43.971  18.756  11.185
59477W        W31203   4.334  36.238   4.548
59478W        W31204  42.934   1.041   3.919
59479W        W31205   4.947   9.018  11.169
59480W        W31206  42.553  40.684   1.949
59481W        W31207  18.515  22.207   2.323
59482W        W31208  16.512  11.161  13.343
59483W        W31209   6.692  42.884   2.627
59484W        W31210   6.887  34.745  11.415
59485W        W31211  10.509  42.406   0.526
59486W        W31212  13.952   2.917  11.599
59487W        W31213  16.922  26.712  12.009
59488W        W31214  23.111  14.621  14.130
59489W        W31215  15.167  34.523   2.178
59490W        W31216  25.956  22.576   2.159
59491W        W31217  29.019   1.868  14.010
59492W        W31218   2.292  42.996  13.229
59493W        W31219  36.742  20.231   2.529
59494W        W31220  34.022  11.155  12.593
59495W        W31221  26.756  35.883  11.952
59496W        W31222  43.057  28.864   0.263
59497W        W31223   7.358  26.531   2.265
59498W        W31224  14.128   6.572   3.327
59499W        W31225  35.014  27.740  14.435
59500W        W31226  23.461  23.613   3.852
59501W        W31227  25.034   4.767  11.999
59502W        W31228  22.097  35.463   0.266
59503W        W31229  44.444  32.104   4.706
59504W        W31230   1.976  37.750  11.547
59505W        W31231  37.963  19.726   3.118
59506W        W31232  23.650  30.664  11.036
59507W        W31233  12.456  38.463  14.807
59508W        W31234  34.071   0.675  12.925
59509W        W31235  39.360   5.358   4.370
59510W        W31236   7.166   7.250   1.222
59511W        W31237  25.866  10.088  13.471
59512W        W31238  11.403  28.350   4.151
59513W        W31239  29.610   8.681   0.452
59514W        W31240  18.075  30.665   3.943
59515W        W31241  22.274   8.681   1.929
59516W        W31242  16.646  12.838   1.425
59517W        W31243   4.374   9.695  14.383
59518W        W31244  37.253  15.210  12.855
59519W        W31245   3.915  41.789   4.069
59520W        W31246  22.473  37.622  12.785
59521W        W31247  22.201  34.189   2.318
59522W        W31248  27.155  28.074   3.383
59523W        W31249   4.460  34.217   2.233
59524W        W31250  16.317  15.475  13.871
59525W        W31251  24.184  44.870  11.094
59526W        W31252  23.992  14.601   3.355
59527W        W31253   6.238  25.545  12.909
59528W        W31254  11.211  44.216  12.834
59529W        W31255  17.523  15.191   0.023
59530W        W31256   5.563  38.851   3.816
59531W        W31257  11.864  43.277  11.135
59532W        W31258   8.267  38.951  13.910
59533W        W31259   6.464  29.182   3.617
59534W        W31260  42.361  11.165  12.074
59535W        W31261  37.134  19.167   0.275
59536W        W31262   3.459  35.683  13.996
59537W        W31263  16.568  12.051  14.497
59538W        W31264  33.083  36.492  12.104
59539W        W31265   1.256  35.384   3.097
59540W        W31266  23.353  41.246   1.394
59541W        W31267   6.975   7.200   2.113
59542W        W31268  32.897   8.107  12.494
59543W        W31269  38.574  24.765   2.917
59544W        W31270  27.479   0.191  13.499
59545W        W31271  22.461  27.000   0.244
59546W        W31272   7.645  17.160   3.710
59547W        W31273  10.769   4.915   0.335
59548W        W31274  25.251  37.888  13.058
59549W        W31275  27.569  35.054  11.214
59550W        W31276  17.199  34.350   4.659
59551W        W31277  38.059  40.488  14.985
59552W        W31278   8.221  13.877  13.142
59553W        W31279  38.754  37.599  10.295
59554W        W31280  39.876  31.949   3.029
59555W        W31281  14.853  37.819   0.083
59556W        W31282  21.495  21.649  10.555
59557W        W31283  28.963  26.523  13.146
59558W        W31284   4.132  35.332   1.364
59559W        W31285   9.048  28.095  10.336
59560W        W31286  15.755  37.430  12.491
59561W        W31287  22.630  15.350   1.652
59562W        W31288   8.832  31.685  13.405
59563W        W31289  33.809  35.602   0.013
59564W        W31290  43.025  20.180  13.375
59565W        W31291  44.279   6.570  13.618
59566W        W31292  41.318  32.538  10.569
59567W        W31293  10.182  34.693  11.435
59568W        W31294  26.298  30.528  11.517
59569W        W31295  17.345  28.911   3.305
59570W        W31296  20.650   4.829  10.908
59571W        W31297  22.688  12.172   3.242
59572W        W31298   4.103  31.993   1.837
59573W        W31299  11.469  16.165  12.278
59574W        W31300  10.263  34.074   2.846
59575W        W31301  10.939  33.543   0.110
59576W        W31302  39.431  20.840   2.712
59577W        W31303  13.887  18.345   5.004
59578W        W31304  41.227   3.019  10.696
59579W        W31305   0.260  22.962   4.201
59580W        W31306  37.511  10.357   5.161
59581W        W31307  32.630  28.689  14.530
59582W        W31308  14.391  14.365   3.604
59583W        W31309  19.104   5.027  12.021
59584W        W31310  42.728  36.097  11.683
59585W        W31311   0.684   6.175  10.470
59586W        W31312   6.534  17.609  11.516
59587W        W31313  31.490  25.206   3.859
59588W        W31314  28.917  27.729  13.819
59589W        W31315  27.181  26.597  12.760
59590W        W31316  23.069  14.433   4.587
59591W        W31317  37.293  26.301  13.861
59592W        W31318   7.336  42.804  12.880
59593W        W31319  42.456   9.882   2.150
59594W        W31320  26.491  22.513   2.699
59595W        W31321   4.836   7.253  10.543
59596W        W31322  13.224  11.702  14.016
59597W        W31323  15.600  19.803  11.225
59598W        W31324  26.937  12.628   4.720
59599W        W31325  27.982  16.270  12.116
59600W        W31326  19.100  12.310   4.820
59601W        W31327  13.800  39.376  13.492
59602W        W31328  40.316  18.018   2.266
59603W        W31329  15.089  10.258  14.652
59604W        W31330  43.939  24.905  13.088
59605W        W31331   7.276  28.214  11.197
59606W        W31332  14.675  44.504  10.261
59607W        W31333   6.751  27.158   3.943
59608W        W31334   8.289  42.774  10.367
59609W        W31335   0.848  15.709  13.973
59610W        W31336   7.071  13.184   2.257
59611W        W31337   4.745  18.649  12.282
59612W        W31338  22.262  16.557  13.519
59613W        W31339  20.785   7.207   4.848
59614W        W31340   1.870  23.753  12.937
59615W        W31341   4.070  17.811   3.399
59616W        W31342  27.226  42.785  11.532
59617W        W31343   7.360  36.717  11.711
59618W        W31344   9.027  37.534  14.895
59619W        W31345  12.282  40.066  14.027
59620W        W31346  20.651  26.997  12.081
59621W        W31347   7.811   6.160   5.330
59622W        W31348  10.854  21.056  11.341
59623W        W31349   4.165  30.137  10.673
59624W        W31350  26.636  13.630  13.010
59625W        W31351  35.843  12.472  13.352
59626W        W31352  13.350  32.528   1.940
59627W        W31353   7.634  17.561   3.344
59628W        W31354  41.931  40.759  11.994
59629W        W31355  30.010   9.179   2.733
59630W        W31356   5.798  37.589   2.876
59631W        W31357  16.597  43.072  11.626
59632W        W31358   5.087   1.876  14.741
59633W        W31359  13.399  19.033  14.888
59634W        W31360   6.912  33.307   4.288
59635W        W31361  35.658  36.063   1.933
59636W        W31362  11.115   3.835   4.105
59637W        W31363   4.718  13.797   4.599
59638W        W31364  37.652  14.270  12.851
59639W        W31365  15.670  41.567  12.481
59640W        W31366  26.608  15.782   0.848
59641W        W31367  20.307  14.463   3.454
59642W        W31368   2.845   6.166  14.910
59643W        W31369  17.108  10.953   3.800
59644W        W31370   3.504  42.244  11.591
59645W        W31371   1.846  27.693  13.800
59646W        W31372  42.382   4.806   1.491
59647W        W31373  26.657  42.150  12.533
59648W        W31374  17.854  27.070  12.924
59649W        W31375  13.789  20.330   4.274
59650W        W31376  19.557   5.194  13.969
59651W        W31377  38.576  11.207   0.275
59652W        W31378   0.437  35.322  11.068
59653W        W31379  20.053  42.108  14.932
59654W        W31380  34.011  32.890  13.444
59655W        W31381  39.008  23.075  10.675
59656W        W31382  21.657  14.607  11.136
59657W        W31383  38.803   1.497   0.071
59658W        W31384  35.103   8.114   1.786
59659W        W31385   0.813  25.035   4.833
59660W        W31386  37.988  26.066  10.646
59661W        W31387  32.536  25.186  14.491
59662W        W31388   5.928   0.876  13.930
59663W        W31389   7.398  30.380  10.791
59664W        W31390  27.100  36.289   1.310
59665W        W31391  19.048  20.013  10.699
59666W        W31392  36.027  27.576  14.047
59667W        W31393  43.339  44.935  11.544
59668W        W31394  17.193  44.709  12.580
59669W        W31395  24.614  18.817   3.745
59670W        W31396  10.753  22.986   5.609
59671W        W31397  41.018  16.074  13.963
59672W        W31398   4.368  41.234   5.011
59673W        W31399  36.325   0.675  13.728
59674W        W31400  23.561   7.247  14.516
59675W        W31401  16.487  10.073   1.846
59676W        W31402  31.483  18.548  14.044
59677W        W31403  23.677  12.578  10.771
59678W        W31404  32.702  38.809  13.492
59679W        W31405   3.340  38.049   1.325
59680W        W31406  34.461  23.729  13.619
59681W        W31407  24.106  43.550  11.628
59682W        W31408  37.105  37.448   3.316
59683W        W31409  29.103  34.313   2.451
59684W        W31410  25.626  21.052  12.684
59685W        W31411  15.339   2.738  11.591
59686W        W31412  35.541   4.583   0.342
59687W        W31413  42.949   1.842  12.530
59688W        W31414  34.822   4.277  11.141
59689W        W31415  13.705  19.788  13.866
59690W        W31416  15.054  42.940  10.685
59691W        W31417   1.341  21.695   0.288
59692W        W31418  17.709   9.097  13.985
59693W        W31419   0.836  10.340   1.512
59694W        W31420  14.408  34.032   4.716
59695W        W31421  24.860  36.011   1.729
59696W        W31422  25.518  25.626   0.930
59697W        W31423  43.417  39.206  11.173
59698W        W31424  42.686  34.420  13.337
59699W        W31425  15.265  30.643   1.324
59700W        W31426  16.311  14.857   3.113
59701W        W31427   5.691  11.772  13.566
59702W        W31428   3.933   4.204   1.051
59703W        W31429  34.836  41.356  12.416
59704W        W31430  12.397  11.643  13.509
59705W        W31431  23.498   4.956  14.021
59706W        W31432  30.844  35.555   0.213
59707W        W31433  12.198  13.520  12.454
59708W        W31434   4.198  25.701   1.360
59709W        W31435   8.338  37.602   0.401
59710W        W31436  25.498  33.011   0.767
59711W        W31437  25.198  42.813  10.600
59712W        W31438  34.804  19.429   4.173
59713W        W31439   6.023   2.532  14.386
59714W        W31440  29.086  16.781  10.595
59715W        W31441   7.607  13.139   1.196
59716W        W31442  39.802  10.260   1.788
59717W        W31443  23.706  18.123  13.748
59718W        W31444   3.396  39.096   0.482
59719W        W31445  37.996  44.231  14.313
59720W        W31446  44.191   3.221   5.171
59721W        W31447   5.426  29.150  13.503
59722W        W31448  15.477  23.652  11.654
59723W        W31449   1.415  10.704  13.842
59724W        W31450  29.043  21.031  10.441
59725W        W31451  33.507  32.452  11.190
59726W        W31452  36.447  15.398  10.877
59727W        W31453  31.562  30.950  12.667
59728W        W31454  25.638  33.677   1.269
59729W        W31455  27.957  12.738   0.746
59730W        W31456   3.593  44.490  13.295
59731W        W31457  18.173  39.557  12.432
59732W        W31458  35.836  17.683   3.680
59733W        W31459  11.585  25.192   3.315
59734W        W31460  13.344  26.318   2.234
59735W        W31461  19.873  13.657   4.181
59736W        W31462  29.436  16.750  10.978
59737W        W31463   1.179  18.825   4.366
59738W        W31464  22.915  42.983  10.318
59739W        W31465  14.036  43.681  12.935
59740W        W31466  19.636   5.214   0.020
59741W        W31467   6.810  33.016  10.811
59742W        W31468  21.976  38.967   3.315
59743W        W31469  12.235  23.222  13.064
59744W        W31470  11.329   2.240  12.429
59745W        W31471  33.509   3.235   0.520
59746W        W31472  30.598  35.290   0.838
59747W        W31473  20.266  25.115   3.639
59748W        W31474  39.099  14.145  11.553
59749W        W31475  11.540  15.641   4.221
59750W        W31476   2.685   5.289  14.374
59751W        W31477  20.152  44.890  11.853
59752W        W31478  37.936  14.638  14.993
59753W        W31479  26.439  14.406  14.771
59754W        W31480  44.691  25.996   4.673
59755W        W31481  28.145   4.232  12.550
59756W        W31482  38.811   2.059   0.893
59757W        W31483   0.909  25.717  13.931
59758W        W31484  30.337  29.168  13.481
59759W        W31485  38.092  31.939   4.677
59760W        W31486  25.575  18.759  12.598
59761W        W31487   1.326  20.624   1.871
59762W        W31488   4.324  39.307   4.666
59763W        W31489  39.474  29.163  11.179
59764W        W31490  40.724  21.075  14.020
59765W        W31491  16.321  12.334   2.333
59766W        W31492  20.944   9.104  14.944
59767W        W31493  20.103   3.848  14.011
59768W        W31494  44.150  28.231   3.313
59769W        W31495  43.550  25.579  10.802
59770W        W31496  37.151  15.911   2.818
59771W        W31497  18.443  37.720  11.159
59772W        W31498   7.699  32.572   0.318
59773W        W31499  35.746  27.222   4.650
59774W        W31500  34.492  29.078   4.748
59775W        W31501  42.550   2.335  13.831
59776W        W31502   0.452  16.557   1.795
59777W        W31503  18.777   7.696  11.839
59778W        W31504  15.932  27.140   4.157
59779W        W31505  35.960  10.127   0.754
59780W        W31506   0.477  15.744  12.468
59781W        W31507   4.996  20.930   3.283
59782W        W31508  33.991  38.012  12.857
59783W        W31509   0.992  15.910  12.492
59784W        W31510  22.088  42.370  12.537
59785W        W31511  16.352  38.215   5.071
59786W        W31512  37.938  18.787   0.755
59787W        W31513  11.718   9.280  14.847
59788W        W31514  27.481   9.224  11.904
59789W        W31515  23.647  36.405   1.993
59790W        W31516   4.870  32.039   5.045
59791W        W31517  12.825   6.983   4.229
59792W        W31518  23.006   9.824  12.372
59793W        W31519  43.606  22.516  11.158
59794W        W31520  30.688  40.908  14.026
59795W        W31521  43.421   5.850   3.710
59796W        W31522   8.151  23.596   1.098
59797W        W31523   1.761  28.567   2.008
59798W        W31524  26.875  24.178  14.749
59799W        W31525  11.706  20.171  11.674
59800W        W31526   0.367  11.749  14.343
59801W        W31527   0.934   2.867   0.439
59802W        W31528  10.104  23.150   2.813
59803W        W31529   1.239  32.197  10.151
59804W        W31530  36.847  13.943   2.397
59805W        W31531  15.203  15.862  14.415
59806W        W31532  35.857  30.017   4.269
59807W        W31533   7.441  36.886   3.249
59808W        W31534  31.982  27.129  12.430
59809W        W31535  16.079  19.766  11.060
59810W        W31536  32.416  28.534  10.742
59811W        W31537   1.414   4.792  11.888
59812W        W31538  16.841  39.397  14.895
59813W        W31539  39.507  22.272   1.846
59814W        W31540   0.552  37.386   2.797
59815W        W31541  27.397  25.079   4.236
59816W        W31542  24.616  38.970  14.445
59817W        W31543  43.791  33.528   2.739
59818W        W31544  36.647   1.532   1.833
59819W        W31545  11.225  28.529   0.436
59820W        W31546  25.738  15.803  11.898
59821W        W31547  15.762  42.604   5.007
59822W        W31548  38.099  24.498  14.528
59823W        W31549  31.395  38.301   0.267
59824W        W31550   1.448  15.647  11.656
59825W        W31551   9.833   5.014  13.418
59826W        W31552  10.188  12.222  12.146
59827W        W31553   4.703   8.735   0.012
59828W        W31554  41.038  14.174  12.522
59829W        W31555  14.557  21.825   1.667
59830W        W31556  24.986   4.509  11.565
59831W        W31557   5.369  43.842   0.879
59832W        W31558  28.943   0.472  10.724
59833W        W31559   7.635  10.284   3.601
59834W        W31560  12.202  23.058   1.174
59835W        W31561  40.756  12.554   3.855
59836W        W31562  42.100  42.493  14.989
59837W        W31563  19.529  24.110   1.398
59838W        W31564  42.342  16.385   3.077
59839W        W31565  22.992  32.371   1.376
59840W        W31566  32.073   9.381  13.584
59841W        W31567   2.305  23.591   3.317
59842W        W31568  16.364  32.538   3.292
59843W        W31569   4.837  21.465  10.453
59844W        W31570  23.536  31.538  10.647
59845W        W31571  29.217  10.897  11.695
59846W        W31572  26.082   5.551  14.636
59847W        W31573  11.103  16.832   2.551
59848W        W31574  43.105  24.822  14.890
59849W        W31575  26.215  24.564  11.014
59850W        W31576  26.518   7.905   0.349
59851W        W31577  35.977  43.867  11.628
59852W        W31578  35.301  40.190  12.058
59853W        W31579   7.716  39.334   0.526
59854W        W31580   2.517  39.069   4.193
59855W        W31581  23.468  26.455  12.460
59856W        W31582  21.088   6.178   0.373
59857W        W31583  16.197  24.500  13.418
59858W        W31584  21.337  14.850  10.430
59859W        W31585  28.525  23.981   1.213
59860W        W31586  41.838  35.739  10.334
59861W        W31587   7.615  15.043  13.891
59862W        W31588  10.006  25.813   9.782
59863W        W31589  18.737   9.548   1.857
59864W        W31590  29.026  44.208   2.898
59865W        W31591  18.253  44.026  14.526
59866W        W31592  29.365  35.080  11.635
59867W        W31593   5.330  35.958   1.643
59868W        W31594  25.158  35.125  12.604
59869W        W31595  43.783  32.991  14.068
59870W        W31596  17.140  10.384   3.960
59871W        W31597  17.827  21.705   2.058
59872W        W31598  38.214   7.491  12.656
59873W        W31599  13.750   8.167   1.778
59874W        W31600  41.987  36.366   1.864
59875W        W31601  11.181  37.888   4.793
59876W        W31602   5.117  22.082  14.506
59877W        W31603  17.184  37.911   5.467
59878W        W31604   5.434  27.519  12.666
59879W        W31605  22.234  16.651  11.409
59880W        W31606  30.958  32.114  13.795
59881W        W31607  41.004  37.385   2.759
59882W        W31608  23.014  29.976  12.452
59883W        W31609   7.239  20.813  14.873
59884W        W31610   5.805   7.122   0.668
59885W        W31611   3.995  26.686   1.196
59886W        W31612  41.251  43.977   0.423
59887W        W31613  38.290  43.436  11.638
59888W        W31614  14.570  24.441   4.091
59889W        W31615   4.418  23.069   4.588
59890W        W31616   1.230   1.895   3.361
59891W        W31617   9.312   0.946   2.736
59892W        W31618  13.604   3.818   2.227
59893W        W31619  23.807  33.751   4.685
59894W        W31620   3.779  16.480  14.125
59895W        W31621  39.964  12.082   3.129
59896W        W31622   9.504  11.395  12.623
59897W        W31623  42.995  26.379  11.603
59898W        W31624  11.174  38.998  12.655
59899W        W31625   6.457   0.337   4.153
59900W        W31626   1.066  11.232   3.382
59901W        W31627  13.527  13.096  13.977
59902W        W31628   4.648  13.839  14.689
59903W        W31629   4.340  20.242  14.928
59904W        W31630  32.349   9.935  14.708
59905W        W31631  14.606  37.987  14.443
59906W        W31632  37.373   3.325  14.054
59907W        W31633  16.663  40.446   3.759
59908W        W31634  27.014   0.629  14.032
59909W        W31635  31.144  11.356  11.160
59910W        W31636  40.897  11.335   4.005
59911W        W31637   6.683  13.482  13.377
59912W        W31638  27.757   5.920  14.843
59913W        W31639  23.532  18.996   1.502
59914W        W31640  31.614  20.629   2.729
59915W        W31641   8.624  35.268   1.348
59916W        W31642  16.236   8.868   1.724
59917W        W31643  20.702  29.349   2.697
59918W        W31644  42.463   6.285  13.442
59919W        W31645  41.512  42.305  13.584
59920W        W31646  12.385  17.685  12.847
59921W        W31647  22.130  17.058   0.249
59922W        W31648  37.502  24.641   3.718
59923W        W31649  44.266  35.945  10.663
59924W        W31650   4.146  20.007  14.129
59925W        W31651  43.237  40.050   4.579
59926W        W31652   4.513  17.210   0.194
59927W        W31653  20.182   4.090   0.786
59928W        W31654   3.981  33.960  13.539
59929W        W31655  39.376  38.447   3.507
59930W        W31656  14.272  38.224  13.247
59931W        W31657  31.655  21.143   4.593
59932W        W31658  17.651  11.276  10.889
59933W        W31659   3.854  41.337   1.208
59934W        W31660  35.336  17.761   3.758
59935W        W31661  13.564  42.510  12.547
59936W        W31662  41.303  32.924   2.837
59937W        W31663  24.520  43.462   1.121
59938W        W31664  14.110  44.219  12.067
59939W        W31665  17.920  40.465  11.173
59940W        W31666  25.020  32.050  13.891
59941W        W31667  35.362  44.471   1.577
59942W        W31668  14.125  18.630  10.747
59943W        W31669  19.700  42.257  12.348
59944W        W31670  13.665  32.041  14.489
59945W        W31671  44.298  43.502   2.734
59946W        W31672   6.065  13.068   1.481
59947W        W31673  19.108  33.639  13.475
59948W        W31674  40.480  17.635   1.512
59949W        W31675  37.811  31.229  12.641
59950W        W31676  42.032  33.132   2.749
59951W        W31677   7.712  20.240  13.903
59952W        W31678  21.991   1.249  10.837
59953W        W31679  25.560   9.877  13.060
59954W        W31680  30.322  21.548  12.565
59955W        W31681   2.878  28.474  13.532
59956W        W31682  40.079  12.856   2.758
59957W        W31683  44.878  27.883   0.022
59958W        W31684   9.783   3.293   4.235
59959W        W31685  22.642  32.861   0.863
59960W        W31686  25.917  11.557  14.752
59961W        W31687  13.521  11.254  13.941
59962W        W31688  37.335  35.864  13.227
59963W        W31689  30.092  27.670   1.906
59964W        W31690  36.599  14.665   4.883
59965W        W31691  19.642  13.825  11.908
59966W        W31692  14.161   9.407   3.159
59967W        W31693  14.240   6.933  12.113
59968W        W31694  44.778  27.020  14.147
59969W        W31695  36.962  14.097   4.118
59970W        W31696  13.839  26.030   0.006
59971W        W31697   8.147  16.377  11.102
59972W        W31698  14.492   9.396   2.768
59973W        W31699  17.235  17.781   4.164
59974W        W31700   4.686   8.595  11.122
59975W        W31701  14.344   0.045   0.107
59976W        W31702  40.524  35.460   3.576
59977W        W31703  22.194   1.971  14.853
59978W        W31704   0.711  32.033   5.094
59979W        W31705  35.968  11.151  13.832
59980W        W31706  41.927  24.934  13.464
59981W        W31707   9.131  39.438   1.342
59982W        W31708  23.769  27.519  13.887
59983W        W31709  29.636  35.842  12.928
59984W        W31710  31.014  41.098  14.414
59985W        W31711  39.984  11.853  11.616
59986W        W31712  41.361  15.715  12.840
59987W        W31713  18.012  23.876  13.455
59988W        W31714   6.758   1.741  12.216
59989W        W31715  40.508  33.565  11.006
59990W        W31716  20.572   3.001  13.278
59991W        W31717  12.474  22.857   4.306
59992W        W31718  17.026  43.791  11.113
59993W        W31719   1.491  24.046  11.109
59994W        W31720  41.978  31.657   2.746
59995W        W31721  19.624  35.832   3.649
59996W        W31722  43.922  20.736   3.391
59997W        W31723  24.752  43.601  14.175
59998W        W31724   0.136  38.113  12.098
59999W        W31725   0.083   3.512   3.644
60000W        W31726  31.614   7.328  12.806
60001W        W31727  28.142  14.734  14.629
60002W        W31728  38.415  19.837   1.141
60003W        W31729   3.215  31.227   3.247
60004W        W31730  41.943  15.462   2.290
60005W        W31731  26.975  29.209  13.510
60006W        W31732   4.417   3.876   3.124
60007W        W31733   6.791   7.010   9.800
60008W        W31734  15.089  26.229   2.809
60009W        W31735  14.456  29.631   1.421
60010W        W31736  19.539   5.790   0.709
60011W        W31737  36.151  42.939   1.803
60012W        W31738  33.879   3.791   0.637
60013W        W31739  10.208  17.434   1.485
60014W        W31740   4.325  16.080   3.382
60015W        W31741   3.245  37.121   3.430
60016W        W31742   1.936  17.252  11.930
60017W        W31743   4.733   7.289   4.230
60018W        W31744  28.839  12.551   1.113
60019W        W31745   9.084   3.917   2.013
60020W        W31746  31.737  40.575   4.764
60021W        W31747   6.177  15.651   4.738
60022W        W31748  44.364  40.309  10.955
60023W        W31749  30.627   4.938   1.068
60024W        W31750  36.779  34.233  14.800
60025W        W31751   0.570  16.812  11.454
60026W        W31752   3.866  10.691   0.396
60027W        W31753   6.346  18.449  13.871
60028W        W31754  29.187  30.061   4.236
60029W        W31755  44.832  36.596   0.449
60030W        W31756  15.277  10.528   3.653
60031W        W31757  16.556  13.628  12.422
60032W        W31758  30.638  16.372  11.201
60033W        W31759   2.193   2.434   0.861
60034W        W31760  43.931  23.878  13.022
60035W        W31761   5.222  15.591   4.209
60036W        W31762  44.835  22.204   0.035
60037W        W31763  41.339  10.771   4.525
60038W        W31764  10.803  15.375   1.876
60039W        W31765  21.328  23.138   1.352
60040W        W31766  22.584   4.984  12.534
60041W        W31767  20.253   3.482   1.290
60042W        W31768   0.853  35.638  11.081
60043W        W31769  30.135  18.191   4.115
60044W        W31770  20.282  31.378   1.753
60045W        W31771  24.461  13.569   3.861
60046W        W31772  23.177  34.159  11.352
60047W        W31773  36.106  30.916  14.212
60048W        W31774  19.342  20.278   2.223
60049W        W31775   6.359  21.578   4.070
60050W        W31776   7.910  39.340   2.748
60051W        W31777   1.213  27.018   0.365
60052W        W31778   3.034   7.101  13.019
60053W        W31779  25.011  16.812  10.421
60054W        W31780  12.744  44.879   1.974
60055W        W31781  18.297  15.033   3.282
60056W        W31782  15.302  43.617   0.322
60057W        W31783  26.098  33.446   1.167
60058W        W31784   8.090   9.748  14.026
60059W        W31785  16.648  32.216  13.786
60060W        W31786  13.493  26.021   1.500
60061W        W31787  35.408  36.804   0.186
60062W        W31788  27.974   1.177   3.788
60063W        W31789   7.914   8.945  14.927
60064W        W31790  12.868  19.198   4.270
60065W        W31791  24.558  42.087  10.725
60066W        W31792  29.402  44.314  11.620
60067W        W31793  17.185  20.674   4.560
60068W        W31794  10.267  33.242   0.744
60069W        W31795  27.552  26.836  14.285
60070W        W31796  30.852  11.829  14.481
60071W        W31797  32.976  44.856  13.594
60072W        W31798  32.128  44.283   2.662
60073W        W31799  11.155   5.596  14.936
60074W        W31800   2.811  33.792   2.242
60075W        W31801  12.033  39.495   3.068
60076W        W31802  23.174   6.517   1.673
60077W        W31803  34.847  38.865  14.776
60078W        W31804  22.501  23.095  13.001
60079W        W31805  20.748  44.954  11.074
60080W        W31806   4.391  15.675   3.693
60081W        W31807  40.357  40.642  11.244
60082W        W31808   0.454   5.924   3.368
60083W        W31809   4.332  15.367  12.437
60084W        W31810  25.261  39.441  14.416
60085W        W31811  41.116  22.527   0.881
60086W        W31812  34.931  42.228  14.267
60087W        W31813  10.698   7.942   3.185
60088W        W31814  40.764  31.090  12.540
60089W        W31815   5.428   7.407   4.920
60090W        W31816  23.753  36.903  13.996
60091W        W31817  11.035  16.838  14.259
60092W        W31818   7.963  18.040   3.215
60093W        W31819  33.397  36.809  11.582
60094W        W31820  35.102  33.531  12.937
60095W        W31821  24.910   6.916  10.795
60096W        W31822  34.989   1.522  12.949
60097W        W31823  16.117  22.676  13.944
60098W        W31824   4.299  23.651   1.250
60099W        W31825   1.497  40.860   4.221
60100W        W31826  12.314   2.317   4.305
60101W        W31827  11.149  37.534  12.626
60102W        W31828   4.399  18.215  13.005
60103W        W31829   6.261  31.152   3.136
60104W        W31830  24.257  26.218   9.746
60105W        W31831  22.239  28.673   4.965
60106W        W31832   8.671  42.628   3.672
60107W        W31833  15.439  37.413   5.351
60108W        W31834  39.415   3.287   4.981
60109W        W31835  18.108  38.835  13.385
60110W        W31836  13.283  23.426  11.661
60111W        W31837  18.051  40.896   3.874
60112W        W31838  22.818  33.411  13.966
60113W        W31839  32.983  39.843  13.418
60114W        W31840  44.580  22.606   4.642
60115W        W31841   3.867  24.719   3.459
60116W        W31842  21.845  19.721   1.339
60117W        W31843  38.615   4.794   1.455
60118W        W31844  43.520  32.684  14.404
60119W        W31845  39.881  32.588   4.513
60120W        W31846  44.013  34.053  11.122
60121W        W31847  40.929  34.677  11.098
60122W        W31848  23.080  31.383   2.894
60123W        W31849   6.198  41.030   2.734
60124W        W31850  21.485  17.349  14.519
60125W        W31851  23.197   9.221  11.864
60126W        W31852  24.934  36.113  12.571
60127W        W31853  32.066  44.310   4.507
60128W        W31854  15.667   6.626  12.398
60129W        W31855  33.592   4.161   0.347
60130W        W31856  32.811  42.269  14.945
60131W        W31857  41.951  26.623   0.367
60132W        W31858  10.969  28.052   4.861
60133W        W31859   4.733  16.045  11.966
60134W        W31860  34.025   7.700  13.900
60135W        W31861  16.565  42.067   1.383
60136W        W31862  10.203  12.841  10.508
60137W        W31863  32.548  14.211   4.954
60138W        W31864   9.731  14.994   4.216
60139W        W31865  39.407  40.618  14.456
60140W        W31866  34.344   7.437   0.363
60141W        W31867   8.743  18.673   1.372
60142W        W31868  15.923  25.656  12.598
60143W        W31869  25.647   0.570   3.756
60144W        W31870  10.822  23.090   4.223
60145W        W31871  29.127  13.883  12.497
60146W        W31872   6.189  32.177  12.887
60147W        W31873  11.686  14.722  13.573
60148W        W31874   6.672  13.836  11.486
60149W        W31875  40.509  26.571  14.962
60150W        W31876   3.360  17.563  11.176
60151W        W31877   6.958  31.869   0.349
60152W        W31878  38.407  43.711  12.539
60153W        W31879   5.291  22.674  10.699
60154W        W31880  25.866   4.288   1.670
60155W        W31881   4.808  11.636  14.845
60156W        W31882  30.572   4.942   2.867
60157W        W31883  43.739  29.612   3.693
60158W        W31884  33.435  36.411   1.144
60159W        W31885  34.884  41.357  11.593
60160W        W31886  30.900  21.148   2.211
60161W        W31887  39.100  31.873   2.600
60162W        W31888   8.471  39.606  11.800
60163W        W31889  10.312  43.323  11.057
60164W        W31890  27.531  36.218  11.031
60165W        W31891  23.046  44.893   0.183
60166W        W31892  13.867  16.566  11.570
60167W        W31893  38.770  25.413  14.901
60168W        W31894  27.504  26.307   4.563
60169W        W31895  33.362  25.947   1.302
60170W        W31896   3.966  28.694   3.408
60171W        W31897   8.049  14.184  11.985
60172W        W31898  40.426  11.607  10.926
60173W        W31899   9.379  35.045   4.696
60174W        W31900  32.899   3.457   1.691
60175W        W31901  31.423   6.415  13.122
60176W        W31902  41.426  23.514  13.071
60177W        W31903  31.332  15.716   3.268
60178W        W31904  37.065  12.215  14.837
60179W        W31905  34.851   1.459  13.446
60180W        W31906  23.984   1.208  13.533
60181W        W31907  42.411  44.616   0.949
60182W        W31908  43.058   6.935   1.295
60183W        W31909  18.874  11.799   4.937
60184W        W31910  21.261  38.708  12.320
60185W        W31911   3.920  42.144   3.259
60186W        W31912  31.977   7.673   3.188
60187W        W31913  41.048   0.907  11.230
60188W        W31914   1.000  14.299  11.580
60189W        W31915   8.426  40.398   1.123
60190W        W31916  27.854  35.460   0.393
60191W        W31917  20.376  17.138  10.338
60192W        W31918  12.202  34.419   1.860
60193W        W31919  33.516   6.756  12.082
60194W        W31920   5.413   0.498   1.256
60195W        W31921  29.530  23.977   3.282
60196W        W31922  19.963  24.047   3.193
60197W        W31923   9.771  34.153   5.421
60198W        W31924  40.277   1.953  10.740
60199W        W31925  36.384  16.968   2.689
60200W        W31926  34.134   1.180  11.076
60201W        W31927  32.484  17.149  10.600
60202W        W31928  30.338  13.415   2.108
60203W        W31929  26.752  26.934  13.171
60204W        W31930  35.250  10.107  14.468
60205W        W31931  35.419  22.105   4.976
60206W        W31932   4.733  15.648  14.205
60207W        W31933   5.441  41.741   0.015
60208W        W31934   8.661  38.092   0.406
60209W        W31935   6.649   0.104  14.354
60210W        W31936  11.197   1.680   1.655
60211W        W31937  42.350  15.058   2.834
60212W        W31938  12.991   6.304   4.463
60213W        W31939  16.688  15.787  14.055
60214W        W31940  33.438   1.719   2.310
60215W        W31941  27.087  35.856  11.552
60216W        W31942  44.285  31.741  13.907
60217W        W31943  32.312  40.800   4.196
60218W        W31944  32.172   4.467   4.316
60219W        W31945   9.718  21.578  14.285
60220W        W31946  11.301   6.825  11.837
60221W        W31947  30.967  26.574   1.920
60222W        W31948  41.796   7.223  14.041
60223W        W31949  24.336  43.601   0.664
60224W        W31950   6.934  20.481   4.058
60225W        W31951  24.914  26.566   5.565
60226W        W31952   0.229  18.284  14.331
60227W        W31953   5.194  31.474  11.138
60228W        W31954  20.210  11.152  14.273
60229W        W31955  39.024  14.383  14.428
60230W        W31956  32.864  34.113   0.975
60231W        W31957  20.697  37.355   0.852
60232W        W31958  17.056   1.308   1.492
60233W        W31959   7.843  36.089  10.129
60234W        W31960  11.320  36.953   3.289
60235W        W31961  12.301   6.934  11.428
60236W        W31962  27.947  10.085  12.076
60237W        W31963  36.016  18.887  12.938
60238W        W31964  36.899  27.984   3.252
60239W        W31965  18.149  21.833  13.920
60240W        W31966   1.056  19.226  11.515
60241W        W31967  42.774   8.226  12.847
60242W        W31968  38.105  38.352   3.324
60243W        W31969  25.657  39.335  10.697
60244W        W31970  43.397   6.694  14.109
60245W        W31971  20.588  32.747   1.276
60246W        W31972  15.011  26.075   3.679
60247W        W31973  17.579  42.212   2.212
60248W        W31974   4.438  34.451  14.007
60249W        W31975  30.946  16.155   1.846
60250W        W31976   2.380  24.458  11.135
60251W        W31977  36.546  44.052  11.608
60252W        W31978  18.540  28.541   3.928
60253W        W31979  25.020  32.072   0.933
60254W        W31980  18.068  37.990   1.868
60255W        W31981  29.366  24.184  14.724
60256W        W31982  27.123  11.683   2.868
60257W        W31983  27.003  34.989  14.356
60258W        W31984  14.547  12.141   0.444
60259W        W31985  10.080  18.574  14.898
60260W        W31986  27.446  36.159   2.836
60261W        W31987  27.978   6.886   4.470
60262W        W31988   6.833  28.593   3.678
60263W        W31989   3.805  21.898   2.316
60264W        W31990  34.525  23.447   0.056
60265W        W31991  20.824   5.947   2.551
60266W        W31992  33.270   9.962  14.350
60267W        W31993   7.551  21.238   1.742
60268W        W31994   3.415  10.865   3.276
60269W        W31995  17.610  27.930  11.942
60270W        W31996  34.206  30.849   3.904
60271W        W31997  20.302  33.291   4.053
60272W        W31998  17.177  18.300   4.168
60273W        W31999  18.005  28.428  13.849
60274W        W32000  13.197   2.199  11.583
60275W        W32001  29.894  36.090  14.038
60276W        W32002   8.791  18.373  11.048
60277W        W32003   8.015   1.777  13.402
60278W        W32004  20.889  44.446   9.965
60279W        W32005  36.086  26.311   2.230
60280W        W32006  39.599  35.970  14.550
60281W        W32007   4.995  15.854  10.640
60282W        W32008  34.828  17.806  11.224
60283W        W32009   8.349   8.666   1.179
60284W        W32010  32.254  28.250   3.355
60285W        W32011  28.998  26.951   0.928
60286W        W32012  27.160   3.303   1.714
60287W        W32013  19.584  33.394  13.477
60288W        W32014  40.470  38.811   1.225
60289W        W32015   2.425  17.224  12.689
60290W        W32016  30.334  36.897   4.681
60291W        W32017  21.571  18.860  10.740
60292W        W32018  36.315   0.297   0.414
60293W        W32019  38.357  27.709   2.917
60294W        W32020  20.050  11.568  14.531
60295W        W32021  15.243   5.600   3.712
60296W        W32022  34.268  37.319   2.734
60297W        W32023  17.672  40.562   1.817
60298W        W32024  17.105  17.922  10.892
60299W        W32025  33.929  12.161  12.408
60300W        W32026  17.713  39.463   4.566
60301W        W32027  23.620   7.275   2.340
60302W        W32028  28.696  35.495   0.807
60303W        W32029  13.872   8.797  12.008
60304W        W32030  15.344  20.415  14.860
60305W        W32031  27.206  38.311  14.810
60306W        W32032  37.378   6.423   1.788
60307W        W32033  18.443   6.858  13.040
60308W        W32034  41.696  23.616   0.999
60309W        W32035  38.418  43.187  12.562
60310W        W32036   7.573  21.607  10.879
60311W        W32037  12.312  27.522   4.898
60312W        W32038  23.985  32.073  14.663
60313W        W32039  43.708   7.142   1.278
60314W        W32040  36.345  41.347   0.362
60315W        W32041  17.428  38.521   1.364
60316W        W32042  14.323  24.938  11.392
60317W        W32043   6.909  34.340  11.116
60318W        W32044  43.843   4.344  11.455
60319W        W32045   0.877   0.226  10.801
60320W        W32046   8.287  10.483   0.845
60321W        W32047  29.331  43.149   2.161
60322W        W32048  43.443  16.125  11.684
60323W        W32049  28.146  24.030  13.482
60324W        W32050  11.056  34.108   3.166
60325W        W32051  23.760  26.370  12.889
60326W        W32052  40.543  35.039   0.903
60327W        W32053  14.738   0.352   0.332
60328W        W32054   0.576  40.480   4.411
60329W        W32055  13.303  20.423   0.043
60330W        W32056   1.879  31.517   3.116
60331W        W32057  17.072   2.257  12.054
60332W        W32058  30.541   4.639   5.085
60333W        W32059  41.999  12.037   2.208
60334W        W32060  41.143  12.225  13.930
60335W        W32061  18.585   1.836  14.435
60336W        W32062   4.815  32.285  12.140
60337W        W32063  30.633  38.363  11.566
60338W        W32064   2.705  30.942  10.662
60339W        W32065  22.264  12.399  13.883
60340W        W32066  29.478  12.983  11.205
60341W        W32067  34.808  29.355   0.233
60342W        W32068  38.558  33.370   4.921
60343W        W32069  14.377  44.093   3.711
60344W        W32070  23.977  38.515   4.654
60345W        W32071  16.713  36.933  10.480
60346W        W32072  24.566  41.895   3.674
60347W        W32073  40.858   3.693  12.098
60348W        W32074  15.591  13.569   2.248
60349W        W32075  31.494   5.867   0.834
60350W        W32076  40.533  14.664   0.022
60351W        W32077   6.052  19.551   0.399
60352W        W32078  42.336  10.978  13.469
60353W        W32079  27.679  18.089   3.105
60354W        W32080  14.425  28.879   1.970
60355W        W32081   2.459   6.321   1.129
60356W        W32082   0.523  23.709  12.979
60357W        W32083  15.672  14.726   4.043
60358W        W32084  38.886   4.359   3.136
60359W        W32085  41.349   5.828  10.664
60360W        W32086  39.466  17.557   0.897
60361W        W32087  20.585  29.166   1.080
60362W        W32088   1.459  14.657  12.201
60363W        W32089  31.668  16.089  14.311
60364W        W32090  36.387  41.048   4.310
60365W        W32091  41.985   7.112  13.025
60366W        W32092  35.822   4.120  12.716
60367W        W32093  43.798  16.353  14.958
60368W        W32094   8.450  29.517  13.816
60369W        W32095   7.755  34.901   0.329
60370W        W32096  37.504  25.977  10.528
60371W        W32097  35.537  16.279  14.126
60372W        W32098  15.589  26.021  14.518
60373W        W32099  21.019  23.705   4.069
60374W        W32100  35.009  34.002  12.542
60375W        W32101   9.942   9.659  11.512
60376W        W32102  41.174   8.797  11.471
60377W        W32103  19.273  31.261   1.393
60378W        W32104  22.464  44.304  14.950
60379W        W32105   0.452   0.326   2.630
60380W        W32106  14.714  25.085  14.014
60381W        W32107  29.416   7.161   2.719
60382W        W32108  33.002   4.728   2.207
60383W        W32109  27.757  13.225   0.709
60384W        W32110  28.398  42.260  13.627
60385W        W32111  31.159  36.375  11.548
60386W        W32112  40.322  24.581   3.356
60387W        W32113  43.755   3.186  13.335
60388W        W32114  17.023  37.487  10.109
60389W        W32115  25.127  43.077  14.866
60390W        W32116  17.026  11.173  13.210
60391W        W32117  14.850  15.551  10.684
60392W        W32118  13.561   1.459   1.471
60393W        W32119  19.628  34.942   2.840
60394W        W32120   3.804  22.570   2.345
60395W        W32121  16.810  15.047  11.133
60396W        W32122  12.340  15.148   0.497
60397W        W32123   1.281   0.537   4.613
60398W        W32124  24.080  40.832  14.512
60399W        W32125  11.571   8.791   3.503
60400W        W32126  41.380  41.746   2.888
60401W        W32127  31.163  23.296   3.380
60402W        W32128  28.953  10.662   0.389
60403W        W32129  14.054   4.472   2.894
60404W        W32130  22.688  19.988   4.238
60405W        W32131  24.259  10.102  13.384
60406W        W32132   8.588  14.044  14.859
60407W        W32133  16.726  41.032  11.887
60408W        W32134  43.400  22.330  12.138
60409W        W32135  23.945   9.081  13.305
60410W        W32136  33.940   1.508   2.372
60411W        W32137  17.008   5.385  10.316
60412W        W32138  32.962   2.368   0.248
60413W        W32139  44.259  20.583  11.948
60414W        W32140   4.398  38.809  12.424
60415W        W32141  33.300  42.406  11.514
60416W        W32142  17.795  12.528  14.676
60417W        W32143  19.030  14.902  12.590
60418W        W32144  32.405  28.167  12.426
60419W        W32145   4.356  44.847   4.309
60420W        W32146   9.754  24.057  11.161
60421W        W32147  34.846   4.270   0.649
60422W        W32148   2.278   8.304  14.372
60423W        W32149  38.499   8.326  14.085
60424W        W32150  18.656  43.737   1.716
60425W        W32151  33.661  30.347  12.663
60426W        W32152  41.451   0.262  14.925
60427W        W32153  41.478  41.333   4.917
60428W        W32154  30.826  32.080   4.793
60429W        W32155  14.755  31.264   0.841
60430W        W32156  27.580  41.979   4.362
60431W        W32157  25.956  17.368   4.642
60432W        W32158  25.863  35.875  14.043
60433W        W32159  16.028  40.868  10.702
60434W        W32160   6.858  30.375   1.937
60435W        W32161  44.782  36.737   0.964
60436W        W32162  38.663   5.252  10.288
60437W        W32163  32.017  41.205  10.298
60438W        W32164  39.932  16.133  12.612
60439W        W32165  10.183  29.563   2.355
60440W        W32166  27.391   8.204  14.430
60441W        W32167   0.536  39.567  10.008
60442W        W32168  18.280  28.033  14.956
60443W        W32169  32.490  11.788  10.733
60444W        W32170  23.776   8.441  12.459
60445W        W32171   8.342  37.910   0.841
60446W        W32172  18.690  32.585  10.594
60447W        W32173  18.458   1.391   4.855
60448W        W32174  24.124  32.640  11.854
60449W        W32175   1.006  40.283  11.137
60450W        W32176  22.169  27.383  12.881
60451W        W32177  17.991  24.674   2.851
60452W        W32178   6.481  32.952  13.980
60453W        W32179  23.099  39.343   4.506
60454W        W32180  22.951  38.854  14.624
60455W        W32181  43.801  27.402   0.821
60456W        W32182   4.850  11.388  14.380
60457W        W32183  41.591  17.981  14.509
60458W        W32184  43.254  23.586  14.612
60459W        W32185  14.846  16.559   3.258
60460W        W32186  12.249   2.940  13.857
60461W        W32187  19.121  38.292   1.106
60462W        W32188  22.011  28.960  10.993
60463W        W32189  44.877  42.867  14.763
60464W        W32190  20.656   3.841  14.058
60465W        W32191   2.267  23.249  12.464
60466W        W32192  28.255  36.918  11.792
60467W        W32193  24.226  37.511   1.366
60468W        W32194   2.528   9.730   0.277
60469W        W32195  32.778  14.964  14.961
60470W        W32196  19.663  15.124  12.585
60471W        W32197   9.248  29.553  13.479
60472W        W32198  31.048  35.115   3.326
60473W        W32199   2.902  10.932   0.384
60474W        W32200  17.694   2.503   1.779
60475W        W32201  30.614  35.588   1.275
60476W        W32202  10.253  35.589   1.847
60477W        W32203   9.917  13.314   3.378
60478W        W32204   5.328  15.068   0.068
60479W        W32205  20.197  15.978   1.406
60480W        W32206   3.828   3.789   1.784
60481W        W32207   7.681  30.683  11.211
60482W        W32208  27.387  25.806   0.799
60483W        W32209  43.526  22.575   0.042
60484W        W32210  30.621  16.297   4.143
60485W        W32211  11.407  15.387  12.887
60486W        W32212   4.775  23.693  12.463
60487W        W32213  18.567  38.316   1.882
60488W        W32214  36.595  29.831  11.506
60489W        W32215  25.076  23.145  11.524
60490W        W32216  32.111  30.186  13.940
60491W        W32217  40.213   4.811   0.376
60492W        W32218   1.269  12.078  11.014
60493W        W32219  38.892  30.966   0.029
60494W        W32220  34.112  27.978   4.812
60495W        W32221  40.789  25.523   4.337
60496W        W32222  19.190  15.122   1.799
60497W        W32223  20.084  21.287  14.670
60498W        W32224  24.053  24.161   1.310
60499W        W32225  13.667  38.386   4.561
60500W        W32226  19.430  37.112  13.638
60501W        W32227  40.810   5.996  14.982
60502W        W32228  32.407  28.151   1.801
60503W        W32229  35.816  17.101   1.160
60504W        W32230   3.792  36.945  10.730
60505W        W32231   2.740  21.911  12.470
60506W        W32232  36.415  13.401  12.874
60507W        W32233   3.027  19.009  11.108
60508W        W32234  11.260  34.109  14.587
60509W        W32235  12.310  24.821  11.875
60510W        W32236   7.339  17.872   0.504
60511W        W32237  23.945  25.036  11.388
60512W        W32238  30.207   1.417  12.881
60513W        W32239  28.149  42.044   4.595
60514W        W32240  23.580  32.501  14.778
60515W        W32241  26.554  18.279   1.741
60516W        W32242  31.382  36.390  14.840
60517W        W32243  39.812  29.405   2.723
60518W        W32244   5.005  24.255   1.725
60519W        W32245  41.791  20.256  11.480
60520W        W32246   0.545   4.636  11.068
60521W        W32247  15.539   5.414   0.918
60522W        W32248  22.919  18.603  11.260
60523W        W32249   6.368  32.197   2.118
60524W        W32250  21.060  25.337  11.253
60525W        W32251  20.460  24.037   3.343
60526W        W32252  19.612  14.244   0.473
60527W        W32253   8.221  35.113   0.409
60528W        W32254  38.089   9.432  12.325
60529W        W32255   3.313  28.260  11.111
60530W        W32256  35.935   7.226  11.884
60531W        W32257  44.393   0.439  13.325
60532W        W32258  20.941  43.530   0.547
60533W        W32259  12.342  37.790   1.871
60534W        W32260  37.309  12.543   3.765
60535W        W32261  22.591  35.005   1.944
60536W        W32262   9.789   0.369   2.356
60537W        W32263  31.404  43.826  12.397
60538W        W32264  34.081  43.294  14.449
60539W        W32265  32.059  36.322   4.160
60540W        W32266  18.673   6.665   2.692
60541W        W32267  26.304  37.549   0.721
60542W        W32268  23.812  12.188   4.622
60543W        W32269   4.798  38.789  13.099
60544W        W32270   8.517  44.881  10.507
60545W        W32271  11.096  26.606   0.275
60546W        W32272  42.478  38.043   2.320
60547W        W32273   4.845  29.123   3.161
60548W        W32274  18.064  14.223   0.019
60549W        W32275   1.182  16.377   2.002
60550W        W32276  39.526  27.552  12.394
60551W        W32277  29.514   4.867   2.898
60552W        W32278  13.591  21.259  11.053
60553W        W32279  36.366   3.297   1.116
60554W        W32280   8.591  25.142   0.750
60555W        W32281  18.805  31.527  10.904
60556W        W32282  13.861  41.005   3.823
60557W        W32283   1.438   8.424   2.489
60558W        W32284  35.993   1.972  13.820
60559W        W32285   8.730   3.891   3.299
60560W        W32286   4.007  31.595  14.284
60561W        W32287  34.422   4.700  14.382
60562W        W32288   5.243   8.232  14.563
60563W        W32289   3.672   8.895  11.072
60564W        W32290  20.726  17.232   0.303
60565W        W32291  23.214   3.788   2.733
60566W        W32292  28.004  16.605   3.146
60567W        W32293  19.223  28.777  13.068
60568W        W32294  22.602   3.902   2.159
60569W        W32295  40.164  36.476  11.680
60570W        W32296  24.480  29.048  11.580
60571W        W32297  19.315  18.859   1.961
60572W        W32298  43.191   9.346  14.857
60573W        W32299  39.507  19.255  14.283
60574W        W32300   2.306  22.476  11.471
60575W        W32301  28.502  35.033   3.458
60576W        W32302  20.381   2.148   3.903
60577W        W32303  28.537  43.517  14.862
60578W        W32304  44.753  24.118  12.942
60579W        W32305  42.881   7.266  11.699
60580W        W32306   3.288  10.914  14.872
60581W        W32307  36.819  15.777  12.635
60582W        W32308  23.693  41.405   3.647
60583W        W32309  31.904  27.746  11.960
60584W        W32310  10.325  39.097  10.711
60585W        W32311  15.850   3.992  14.364
60586W        W32312  18.003  41.544   1.793
60587W        W32313   5.798  27.816   2.860
60588W        W32314   8.536   5.538  14.842
60589W        W32315   8.647  18.175   9.849
60590W        W32316  22.720  17.723  12.532
60591W        W32317  10.398   2.749   1.955
60592W        W32318  11.434  10.783  13.033
60593W        W32319  40.969  26.007  11.362
60594W        W32320  33.507  18.052  12.094
60595W        W32321  13.568  20.008  10.670
60596W        W32322  36.109   3.811  12.986
60597W        W32323   2.654  29.497  14.405
60598W        W32324  20.254  23.247   1.357
60599W        W32325  35.074  15.988  11.539
60600W        W32326  13.141  11.627   0.331
60601W        W32327  43.305  32.403   2.575
60602W        W32328  42.253   5.116  14.418
60603W        W32329   9.051  43.429   1.972
60604W        W32330  16.639  14.809   2.682
60605W        W32331  13.153  40.937   4.584
60606W        W32332  42.468   4.146  12.449
60607W        W32333   4.787  11.273  12.917
60608W        W32334   6.851  39.079  13.923
60609W        W32335   1.870  29.556   3.863
60610W        W32336  25.093  20.786   1.797
60611W        W32337  30.573  41.878   4.789
60612W        W32338  31.698  14.534   0.323
60613W        W32339  36.517  32.940   1.361
60614W        W32340  18.044  39.943   2.306
60615W        W32341  14.337  39.015   0.708
60616W        W32342  21.549  38.447  11.943
60617W        W32343  43.717  30.932   2.389
60618W        W32344  37.995  25.985   2.668
60619W        W32345   6.425  11.839  12.161
60620W        W32346  33.647  40.649  12.452
60621W        W32347  37.882  29.961   5.035
60622W        W32348   9.324   7.386   2.489
60623W        W32349  39.952   7.658  14.301
60624W        W32350  18.118  34.887   0.445
60625W        W32351   5.333   4.056   2.685
60626W        W32352  40.903   5.455   1.332
60627W        W32353  38.892  10.418   2.716
60628W        W32354  12.478  44.177   2.673
60629W        W32355  13.424  11.839  14.463
60630W        W32356  26.637  25.669   2.309
60631W        W32357  32.902  19.056   1.216
60632W        W32358  27.803  40.918  13.018
60633W        W32359  35.067  21.333   5.025
60634W        W32360  18.522  35.927   2.414
60635W        W32361  36.294  38.851   3.237
60636W        W32362   4.274  24.994  14.035
60637W        W32363  29.673  28.616  11.087
60638W        W32364  34.883   2.435   3.918
60639W        W32365  26.488  31.493  13.889
60640W        W32366  29.568  35.030  10.283
60641W        W32367  38.707  20.909  11.251
60642W        W32368  44.949  41.229   0.357
60643W        W32369  33.957   5.185  11.142
60644W        W32370   0.707  24.416  14.439
60645W        W32371  13.862  20.205  11.044
60646W        W32372  41.486  22.020  14.917
60647W        W32373   9.636   1.914   2.501
60648W        W32374   9.372  29.732  11.232
60649W        W32375  21.227  40.308  11.120
60650W        W32376  26.762  12.150   1.783
60651W        W32377  20.580  14.289   2.837
60652W        W32378  18.726  16.156  14.545
60653W        W32379   7.159  18.530  12.391
60654W        W32380  11.923  10.719   4.111
60655W        W32381  32.146  17.090  14.332
60656W        W32382   7.165  23.101  12.916
60657W        W32383  26.748  27.900  11.096
60658W        W32384   4.920   7.326   3.747
60659W        W32385   4.489  31.258  11.997
60660W        W32386  19.155  15.107  11.442
60661W        W32387  27.100  32.376  14.962
60662W        W32388  16.947  20.448   3.128
60663W        W32389   2.482  27.115   4.052
60664W        W32390  37.759  17.555  11.573
60665W        W32391  21.236  18.641  13.092
60666W        W32392  38.923  32.029  10.141
60667W        W32393  40.973  25.436  10.694
60668W        W32394   1.770   9.275  12.588
60669W        W32395  25.982  23.546  14.289
60670W        W32396   0.402  36.411  11.079
60671W        W32397   5.538  10.057   2.435
60672W        W32398   2.686  26.779  12.133
60673W        W32399  15.652   4.278  13.852
60674W        W32400  34.412  31.696  14.255
60675W        W32401  19.532  17.227  14.198
60676W        W32402   1.722  40.051  14.576
60677W        W32403  24.975  11.704  11.999
60678W        W32404   5.745  29.527   2.124
60679W        W32405  43.138  39.310  13.861
60680W        W32406  40.880   4.579  14.736
60681W        W32407  22.071  19.053  14.988
60682W        W32408  28.658  31.496   4.241
60683W        W32409  13.888  42.710   3.248
60684W        W32410  37.733  24.021  14.827
60685W        W32411  10.431  10.280  11.300
60686W        W32412   1.931  39.377  11.224
60687W        W32413  26.513  13.307  13.841
60688W        W32414   3.885  33.556   0.708
60689W        W32415   0.534  38.355   2.780
60690W        W32416  24.207  25.464  12.114
60691W        W32417  30.229   9.669   4.108
60692W        W32418   7.173  24.759   0.880
60693W        W32419  12.716  29.486  13.887
60694W        W32420  31.175   4.094  12.005
60695W        W32421   8.864  15.189   3.871
60696W        W32422  10.302  14.004  14.502
60697W        W32423  34.946  30.506  14.556
60698W        W32424  30.908  28.100  12.791
60699W        W32425  29.251   5.052   3.776
60700W        W32426  34.302  30.375   3.661
60701W        W32427   1.612  23.989  12.138
60702W        W32428  38.731  42.003  14.997
60703W        W32429  33.614  38.528  13.476
60704W        W32430  26.993   1.733   3.689
60705W        W32431  25.555   7.334  13.444
60706W        W32432  28.643  10.360   1.921
60707W        W32433   2.840  22.565   2.225
60708W        W32434  39.516  10.732   4.869
60709W        W32435  26.898  10.614  11.082
60710W        W32436  39.890  14.110  14.341
60711W        W32437  19.188  28.499   1.600
60712W        W32438  43.305  31.006  11.577
60713W        W32439  38.002  22.635   2.766
60714W        W32440  20.032  15.265   3.781
60715W        W32441   9.104  20.136   4.344
60716W        W32442  14.126  24.515   3.802
60717W        W32443  18.486   2.905   3.932
60718W        W32444  26.474   8.381   0.556
60719W        W32445  30.642  10.670   0.809
60720W        W32446  24.734  22.789  13.849
60721W        W32447  40.597  26.641  12.483
60722W        W32448  10.927  37.866   3.280
60723W        W32449   5.945  14.498   0.389
60724W        W32450  41.420  18.142   3.388
60725W        W32451  11.325  12.056   3.118
60726W        W32452   5.075  21.191  14.441
60727W        W32453   4.633  44.745  13.977
60728W        W32454   2.688  44.919  13.442
60729W        W32455  18.697  11.809  14.878
60730W        W32456  43.467   7.314   2.904
60731W        W32457  23.154  34.101  11.845
60732W        W32458  12.926  38.536  14.987
60733W        W32459   9.152  38.515  13.851
60734W        W32460  24.526  22.651  10.714
60735W        W32461  29.205  19.551  10.658
60736W        W32462  19.272   2.457  14.520
60737W        W32463  36.871  42.359  12.092
60738W        W32464  39.339  42.096  14.455
60739W        W32465  33.950  20.065   3.068
60740W        W32466   2.190   5.318   1.503
60741W        W32467   4.702   3.689  13.505
60742W        W32468  39.930  44.391   1.382
60743W        W32469  34.848  26.087  11.935
60744W        W32470  17.534  11.203  13.078
60745W        W32471  25.316   7.821   4.224
60746W        W32472  16.093  26.546   3.188
60747W        W32473  22.936  11.652  12.438
60748W        W32474  44.495  26.416   0.644
60749W        W32475  32.520  28.532  13.108
60750W        W32476  31.347  27.137  14.847
60751W        W32477  44.463  38.857  11.546
60752W        W32478  15.173   8.910   4.544
60753W        W32479  12.650  44.301  13.662
60754W        W32480   4.181  26.006  12.893
60755W        W32481   4.179  33.957   0.875
60756W        W32482  29.663  15.084   3.668
60757W        W32483  30.535  16.057  10.820
60758W        W32484  32.968  42.459  14.485
60759W        W32485  15.571  28.673  13.080
60760W        W32486  36.363  16.215  10.449
60761W        W32487   2.957  40.695   4.667
60762W        W32488  15.259  38.125  14.880
60763W        W32489  28.085  25.593  12.425
60764W        W32490  33.692  34.030   1.790
60765W        W32491  23.491  43.501  11.926
60766W        W32492  12.222  29.692   4.567
60767W        W32493   4.173  41.256  11.137
60768W        W32494   0.359  39.014  11.398
60769W        W32495  44.260  29.425  14.878
60770W        W32496  44.912  41.814   0.334
60771W        W32497  36.554   1.214   3.229
60772W        W32498  22.410  35.362   0.754
60773W        W32499  16.825   0.452  14.557
60774W        W32500  37.816  34.388   2.773
60775W        W32501   6.186   0.345   4.583
60776W        W32502  12.521  26.233   0.383
60777W        W32503   0.874  35.003  11.898
60778W        W32504  36.404  36.371  12.991
60779W        W32505  42.725  44.933   0.337
60780W        W32506  37.569   1.029   0.346
60781W        W32507  23.725  36.146   0.131
60782W        W32508  10.223  44.331   3.156
60783W        W32509  11.089  24.735  13.482
60784W        W32510  18.162  33.447   0.522
60785W        W32511  12.646  15.625   0.332
60786W        W32512  15.456  26.717  11.949
60787W        W32513  35.199   7.528  11.176
60788W        W32514  19.957   7.364   1.747
60789W        W32515  37.151   0.301  13.518
60790W        W32516  43.763  26.221  13.930
60791W        W32517  22.819  41.371   4.654
60792W        W32518  11.878  42.472  12.935
60793W        W32519   6.719  15.656   2.469
60794W        W32520  34.822  19.222  12.548
60795W        W32521  17.690  34.362  10.880
60796W        W32522  20.249   3.812   4.492
60797W        W32523   2.216  38.261  13.363
60798W        W32524   6.749  21.086  11.013
60799W        W32525  44.837  30.080   0.646
60800W        W32526  36.235  13.156   4.973
60801W        W32527  20.262  30.404   1.660
60802W        W32528  18.209   2.293  13.479
60803W        W32529  38.356  29.147  10.540
60804W        W32530  41.672  12.205  13.966
60805W        W32531   2.652  33.410   4.445
60806W        W32532   0.734  40.930   3.769
60807W        W32533  24.263  40.570  10.718
60808W        W32534  11.121  11.773  13.033
60809W        W32535  34.947  40.199  11.180
60810W        W32536  21.539  11.574   0.666
60811W        W32537  32.484  38.608  10.895
60812W        W32538  34.066  37.630  14.394
60813W        W32539  23.809  37.317  11.217
60814W        W32540  33.778   6.645  10.756
60815W        W32541  13.591   4.496   2.681
60816W        W32542  31.446   5.941   0.315
60817W        W32543  27.367  26.015  13.941
60818W        W32544  15.851  38.374   2.415
60819W        W32545  18.087  39.514   1.000
60820W        W32546  26.149   8.915  10.504
60821W        W32547   6.463   3.836  13.099
60822W        W32548  42.301  18.692  10.705
60823W        W32549  35.112  16.349   0.817
60824W        W32550  38.241   5.853  14.970
60825W        W32551   5.439  33.954  11.199
60826W        W32552  44.830   2.530  14.450
60827W        W32553  35.854   1.674  14.221
60828W        W32554  10.226  30.949  14.752
60829W        W32555  24.118   4.138  12.880
60830W        W32556  44.981  17.370   2.327
60831W        W32557  16.279  33.266  10.744
60832W        W32558  22.418  23.083  10.976
60833W        W32559   7.051  24.157  13.052
60834W        W32560   8.157  16.694   4.170
60835W        W32561  29.627  38.890   1.195
60836W        W32562  41.852  38.922  11.581
60837W        W32563  17.655   9.638  13.537
60838W        W32564  41.343  22.425   2.231
60839W        W32565  26.954   8.368   0.355
60840W        W32566  12.245  13.755   4.735
60841W        W32567  22.574  33.620   0.292
60842W        W32568  40.953   7.657   2.305
60843W        W32569  29.476  25.534  12.458
60844W        W32570  42.499  32.429  14.457
60845W        W32571  16.762   0.893   1.374
60846W        W32572  38.962  24.529   2.685
60847W        W32573  36.695   5.030   1.369
60848W        W32574  40.664  12.045   3.729
60849W        W32575  39.940  17.965  11.064
60850W        W32576  27.130   2.496   1.323
60851W        W32577  37.693  37.374   5.081
60852W        W32578  41.212  23.652  10.666
60853W        W32579  32.605   0.902   1.219
60854W        W32580  44.454  34.309  11.142
60855W        W32581  20.928  21.823  13.987
60856W        W32582  39.055  22.179   2.086
60857W        W32583  13.088   9.895   1.754
60858W        W32584  13.708  13.906  14.676
60859W        W32585  24.016  36.571   4.152
60860W        W32586  39.074  34.409   3.150
60861W        W32587  31.421  26.107   4.014
60862W        W32588  39.074  12.171  10.462
60863W        W32589  43.764  27.499  13.333
60864W        W32590  15.251   7.341  12.887
60865W        W32591  10.209  40.738   1.331
60866W        W32592  19.313  24.517   0.239
60867W        W32593  43.022  29.694   3.182
60868W        W32594  28.654  22.247   1.670
60869W        W32595  22.423   9.245  14.822
60870W        W32596   4.617  19.097  13.498
60871W        W32597  22.749  25.026  12.886
60872W        W32598  25.387   0.715   4.634
60873W        W32599  24.954  31.537   2.167
60874W        W32600  38.872  23.526  14.978
60875W        W32601  11.350  14.094   3.640
60876W        W32602  44.736  34.561   2.822
60877W        W32603  27.736  35.222  13.158
60878W        W32604  42.383  12.386   4.369
60879W        W32605   0.015  27.624  11.662
60880W        W32606   7.133  35.975   2.256
60881W        W32607   5.006  12.891  11.537
60882W        W32608  18.566  37.677   3.621
60883W        W32609  29.051   9.283   2.578
60884W        W32610  25.700  17.527  11.206
60885W        W32611   0.943   0.216  14.001
60886W        W32612  12.196  22.599  11.957
60887W        W32613  30.839  30.912   3.284
60888W        W32614  17.606   2.757  12.337
60889W        W32615  41.881   6.032   4.130
60890W        W32616   0.216   1.872  10.669
60891W        W32617  13.943  42.362   1.516
60892W        W32618  44.457  41.305  11.908
60893W        W32619   5.742  18.254   2.417
60894W        W32620  39.475  13.492  11.070
60895W        W32621  16.182  43.835   4.894
60896W        W32622   4.516  26.664  12.345
60897W        W32623  17.054  31.762   0.456
60898W        W32624  35.010  18.793   1.605
60899W        W32625  20.107  29.703  11.406
60900W        W32626  37.130   5.399   0.482
60901W        W32627  39.199  44.880  12.102
60902W        W32628   5.389  25.571   4.168
60903W        W32629  21.469  36.062   1.362
60904W        W32630   8.148   9.183  10.748
60905W        W32631   4.403  37.554   4.209
60906W        W32632  10.172   6.847  13.071
60907W        W32633  33.468   7.398   4.309
60908W        W32634   9.232  10.867   3.496
60909W        W32635  35.226  11.035   3.224
60910W        W32636   9.959   9.778  12.467
60911W        W32637  18.277  43.323   1.705
60912W        W32638  29.937  31.081   1.766
60913W        W32639  41.812  17.182  12.686
60914W        W32640  15.118  41.103  12.875
60915W        W32641  39.300   0.367   3.852
60916W        W32642  41.217   4.647   4.517
60917W        W32643  39.069  42.383  14.870
60918W        W32644   0.432  17.326  12.608
60919W        W32645  15.316  26.606   0.953
60920W        W32646  17.174  34.174   4.167
60921W        W32647  27.716  39.190  13.397
60922W        W32648  30.381   7.139  13.533
60923W        W32649   9.620  17.331  12.364
60924W        W32650  12.084  24.231  14.000
60925W        W32651  29.108  33.014  13.958
60926W        W32652   2.775  37.622  11.191
60927W        W32653  18.020  16.307  11.559
60928W        W32654  13.628  13.493  10.803
60929W        W32655   7.713  22.662   2.717
60930W        W32656  43.642  18.235   2.833
60931W        W32657  31.054  23.964  11.072
60932W        W32658  14.501  30.702  14.336
60933W        W32659   2.813   6.343  12.968
60934W        W32660   2.710   0.991  12.059
60935W        W32661  32.314   9.869   0.630
60936W        W32662  17.880  42.919  13.502
60937W        W32663  30.590   0.519  13.975
60938W        W32664   6.154  28.426  13.249
60939W        W32665  17.986  11.260  13.987
60940W        W32666  37.267  18.967   1.401
60941W        W32667  40.542  21.182   3.659
60942W        W32668  12.076   8.151  11.986
60943W        W32669   6.292  26.608   1.519
60944W        W32670  16.079  20.717  11.295
60945W        W32671  33.347  23.658   2.143
60946W        W32672  22.736  36.126   4.131
60947W        W32673   9.777  26.514  11.705
60948W        W32674  38.487   8.483   2.790
60949W        W32675  29.152  36.487  10.658
60950W        W32676  19.039  36.453   4.809
60951W        W32677  20.196   0.636   4.708
60952W        W32678  43.987  17.037  12.293
60953W        W32679  33.772   9.349  13.132
60954W        W32680   7.288  24.687   3.778
60955W        W32681  15.499  31.942   0.848
60956W        W32682  28.715  34.384  11.190
60957W        W32683  28.482  23.187   3.688
60958W        W32684   7.480  25.432   0.281
60959W        W32685  29.740   9.134  12.930
60960W        W32686  41.934  28.226  10.804
60961W        W32687  42.803  35.013   0.251
60962W        W32688  17.132  33.669  13.101
60963W        W32689  24.149   7.783   2.662
60964W        W32690  31.208   8.597  10.998
60965W        W32691  24.050   0.810   0.243
60966W        W32692   1.257  30.729  11.075
60967W        W32693   7.679   5.884  14.653
60968W        W32694  11.763  31.240  12.489
60969W        W32695  31.931  25.097   1.921
60970W        W32696  28.466  14.661   0.716
60971W        W32697  20.943  32.024   2.121
60972W        W32698   3.193   2.237   0.957
60973W        W32699  25.567  14.316  14.946
60974W        W32700  23.705  28.560  12.534
60975W        W32701  13.732  26.661  12.754
60976W        W32702  23.841   4.718   3.616
60977W        W32703  15.920  29.621  10.534
60978W        W32704   2.926  12.250  13.981
60979W        W32705  29.323   9.194   2.143
60980W        W32706  28.544   7.189   4.289
60981W        W32707  27.085  32.575   0.459
60982W        W32708  14.889  39.774   1.222
60983W        W32709  21.046   7.104  14.815
60984W        W32710  31.097  12.033  14.055
60985W        W32711  29.904  40.131   2.357
60986W        W32712  14.642   5.793   3.244
60987W        W32713  19.434   1.871  10.654
60988W        W32714   2.335   4.654   4.026
60989W        W32715  43.718  41.862  10.627
60990W        W32716  13.697  34.627   4.601
60991W        W32717   9.745  26.564   4.660
60992W        W32718  16.586   7.700  12.842
60993W        W32719  17.734  11.751  13.097
60994W        W32720  42.275  23.023   3.693
60995W        W32721  15.829  38.567   4.243
60996W        W32722  15.576  19.038  11.450
60997W        W32723  39.303  21.349   2.819
60998W        W32724   8.832  32.382  12.335
60999W        W32725  29.215  14.995  14.881
61000W        W32726  37.152  10.843   1.448
61001W        W32727   7.502  33.604  13.445
61002W        W32728  16.532  14.553   2.245
61003W        W32729  25.398  37.436   0.661
61004W        W32730  30.173  12.513  10.877
61005W        W32731  13.583  37.935   1.344
61006W        W32732  24.620   5.969   2.764
61007W        W32733  31.393   4.290  13.886
61008W        W32734  11.624  44.244   1.530
61009W        W32735  22.704   2.388  14.248
61010W        W32736  37.375  33.506   4.224
61011W        W32737  44.831  14.064  12.091
61012W        W32738  21.449  26.611  11.462
61013W        W32739  44.428   9.548  10.758
61014W        W32740  20.525  23.126  11.518
61015W        W32741  39.450   6.118   2.103
61016W        W32742  22.148   9.720  14.825
61017W        W32743   8.788   5.401  12.012
61018W        W32744  15.202  29.968  11.576
61019W        W32745   3.994  11.790  14.231
61020W        W32746  17.022  17.195  11.350
61021W        W32747  32.849  30.806   2.931
61022W        W32748  25.428   4.961   3.878
61023W        W32749  34.924  30.357   0.571
61024W        W32750  23.221  29.391  14.948
61025W        W32751  31.731  44.596   5.096
61026W        W32752   5.226   2.572  12.614
61027W        W32753   0.939  18.303   3.288
61028W        W32754   9.287  18.376   0.114
61029W        W32755  36.866  36.894  10.665
61030W        W32756  18.389  19.505  13.135
61031W        W32757  38.599  33.986  13.610
61032W        W32758   0.189  32.881   2.336
61033W        W32759   9.340  22.842   5.063
61034W        W32760   0.459   5.372   4.179
61035W        W32761  30.406   8.183  14.304
61036W        W32762  43.578  20.179  11.224
61037W        W32763  16.244  43.472   2.263
61038W        W32764  42.078  36.167   4.551
61039W        W32765  39.383  38.806   2.049
61040W        W32766  15.370  37.503   3.649
61041W        W32767  33.979  22.775  13.993
61042W        W32768  38.549  39.590   0.476
61043W        W32769  20.499   9.333   3.745
61044W        W32770  30.975  34.335   2.849
61045W        W32771   5.886  27.566   0.251
61046W        W32772   5.171   6.662  12.537
61047W        W32773  27.994  29.881  13.374
61048W        W32774   8.401  42.050  13.540
61049W        W32775   5.928  18.379   3.490
61050W        W32776  37.501  28.574   1.206
61051W        W32777  40.415  23.909  13.027
61052W        W32778   2.248  42.975   2.247
61053W        W32779  12.268  12.841   4.735
61054W        W32780  40.420   3.620   2.196
61055W        W32781  28.594   6.802   0.930
61056W        W32782  28.107  23.979  14.406
61057W        W32783  29.097   2.929   3.769
61058W        W32784  33.430  27.722   4.637
61059W        W32785  24.594  32.902   0.052
61060W        W32786  13.661  15.954   1.648
61061W        W32787  27.736  31.655   0.166
61062W        W32788  21.161  35.136  12.001
61063W        W32789  25.407  36.957   4.268
61064W        W32790  27.100  37.530  11.156
61065W        W32791  39.901  24.434   2.638
61066W        W32792   9.343  17.370  11.049
61067W        W32793  34.462  24.329   4.183
61068W        W32794   8.808  22.055   1.838
61069W        W32795  36.925  34.025   3.973
61070W        W32796  29.924   6.947  12.496
61071W        W32797   2.955  26.501   0.431
61072W        W32798  20.341  26.282   2.274
61073W        W32799  19.252  10.840   2.787
61074W        W32800  12.313   0.439   3.851
61075W        W32801  39.434  41.446   1.003
61076W        W32802  39.874  24.686   3.637
61077W        W32803  26.569   9.402  12.353
61078W        W32804  39.476  22.781   2.795
61079W        W32805   8.766  28.506  11.530
61080W        W32806  16.660   7.918   3.268
61081W        W32807  19.326  13.744   2.993
61082W        W32808  44.429  41.427   2.471
61083W        W32809  37.817  44.477  10.606
61084W        W32810   6.910  12.679   2.166
61085W        W32811   9.208  37.994   0.053
61086W        W32812  19.728  31.459  12.450
61087W        W32813   0.401  32.353  11.684
61088W        W32814  20.009  44.416  14.977
61089W        W32815   2.756  43.406  13.405
61090W        W32816  41.906  15.653  11.194
61091W        W32817  20.723   9.788  12.155
61092W        W32818   1.265  13.402   1.623
61093W        W32819  27.421  33.485  13.834
61094W        W32820  12.195  37.091  13.907
61095W        W32821  10.633  13.296  14.957
61096W        W32822  42.014   2.818  11.984
61097W        W32823   1.992  33.385  11.476
61098W        W32824  42.429  43.539  12.782
61099W        W32825  28.103  24.793  10.529
61100W        W32826  33.455  18.760   3.099
61101W        W32827  15.917  30.233  10.442
61102W        W32828  23.498  26.131  12.004
61103W        W32829   1.419  41.948  13.823
61104W        W32830   9.240  29.988  14.038
61105W        W32831  38.921  24.572  10.676
61106W        W32832  12.943   0.234   4.661
61107W        W32833  38.816  43.557  13.974
61108W        W32834  33.795   7.215  14.296
61109W        W32835  32.823  14.657   3.620
61110W        W32836  31.405   3.983  14.319
61111W        W32837  14.400   3.725   3.347
61112W        W32838  41.104   7.896   3.647
61113W        W32839  41.614  20.904  13.872
61114W        W32840   1.024  32.186  11.895
61115W        W32841  10.804   7.105   3.532
61116W        W32842  10.157  38.312   1.574
61117W        W32843  14.592  33.993   1.406
61118W        W32844  18.402   2.472   1.985
61119W        W32845   4.650  27.465  11.980
61120W        W32846   5.730  17.785   2.678
61121W        W32847  12.860  11.734  12.549
61122W        W32848   7.129   6.415   4.247
61123W        W32849  42.328  38.931   0.500
61124W        W32850   8.977  12.080   5.123
61125W        W32851  32.844  25.290  10.683
61126W        W32852  40.930   2.982  12.535
61127W        W32853   4.965  23.850  11.566
61128W        W32854  13.138  30.521  11.362
61129W        W32855  11.674  22.180  10.783
61130W        W32856  36.495  31.879   4.164
61131W        W32857  43.432  28.390   2.343
61132W        W32858  28.500  42.825   0.179
61133W        W32859  27.077  14.989   1.775
61134W        W32860  39.693   8.154   0.240
61135W        W32861  23.222  29.425   0.951
61136W        W32862  23.996  10.365  13.012
61137W        W32863   8.129   6.719   0.917
61138W        W32864  10.561  37.213   3.696
61139W        W32865  17.275  25.204   2.391
61140W        W32866  32.541  32.066   2.686
61141W        W32867   4.428  14.740  14.342
61142W        W32868   9.380  26.533  11.371
61143W        W32869  31.659  18.061   2.828
61144W        W32870  39.306  23.487   4.106
61145W        W32871  20.685  11.240   2.742
61146W        W32872  37.257   5.643  11.624
61147W        W32873  14.294  35.575  13.196
61148W        W32874   0.750  20.648  13.672
61149W        W32875  29.287  37.533   4.904
61150W        W32876  10.145  11.336   2.226
61151W        W32877  18.434  23.105   0.953
61152W        W32878  30.689   2.824   4.446
61153W        W32879   7.174   2.290   3.070
61154W        W32880  41.993   9.793   0.776
61155W        W32881  29.711  10.582  12.945
61156W        W32882   9.054  13.610  13.390
61157W        W32883  30.885  19.179  13.022
61158W        W32884  43.286  38.977  11.622
61159W        W32885  42.743  35.326  14.335
61160W        W32886   4.443  36.095  12.925
61161W        W32887  13.650  33.567  14.104
61162W        W32888  26.540  17.340   4.533
61163W        W32889   8.675  22.821   0.167
61164W        W32890   1.810  43.529   0.326
61165W        W32891   6.974  12.174   2.436
61166W        W32892  30.064   1.517   0.805
61167W        W32893   5.633   5.777   4.621
61168W        W32894  38.746  21.198  12.074
61169W        W32895   2.788  43.920   2.761
61170W        W32896  16.558  28.819   0.807
61171W        W32897  18.979   1.323   2.783
61172W        W32898  43.566   7.107   9.968
61173W        W32899  44.008  36.596  14.523
61174W        W32900  32.530  25.239  10.204
61175W        W32901   2.462  32.149  10.871
61176W        W32902  30.856  44.740  14.260
61177W        W32903  15.099  44.491   1.336
61178W        W32904  29.430   9.511   4.769
61179W        W32905  22.755   1.235   2.645
61180W        W32906  20.711  35.895  12.515
61181W        W32907  25.181   3.183   0.347
61182W        W32908  16.612  38.333  13.317
61183W        W32909  27.016  41.749  12.603
61184W        W32910  26.555   5.248   0.816
61185W        W32911  31.416   3.217  11.726
61186W        W32912  34.085  34.173   0.528
61187W        W32913  20.756  21.500   3.641
61188W        W32914  26.993   6.968   0.437
61189W        W32915  17.361  40.797   0.855
61190W        W32916   9.812  35.907   3.620
61191W        W32917  21.824  17.807  10.774
61192W        W32918  15.315  14.361  13.357
61193W        W32919   4.513  12.352   2.275
61194W        W32920  25.841   1.513  13.534
61195W        W32921  29.953  13.327   3.947
61196W        W32922  30.605  40.359  10.755
61197W        W32923  15.605  16.144  12.239
61198W        W32924  30.979  13.311  10.608
61199W        W32925   4.806  19.231   0.952
61200W        W32926   0.693  43.143  14.852
61201W        W32927   0.458  21.443   1.416
61202W        W32928  19.773  25.570  14.801
61203W        W32929  18.208  16.646   3.594
61204W        W32930  18.120   6.392   3.347
61205W        W32931  28.097  22.790   4.234
61206W        W32932  34.397  29.683  12.324
61207W        W32933   9.419  19.363  14.001
61208W        W32934  30.365  23.808  11.041
61209W        W32935  43.993  32.115  14.405
61210W        W32936  19.791  39.249  14.864
61211W        W32937  32.191   7.956   3.579
61212W        W32938  17.295  31.732  13.497
61213W        W32939  11.122   6.650   1.927
61214W        W32940  20.064   1.559  12.138
61215W        W32941  35.330   3.811  13.599
61216W        W32942   6.823   8.611   2.693
61217W        W32943   2.440  38.287   0.212
61218W        W32944  17.201  37.312   0.945
61219W        W32945  25.018  29.299   5.034
61220W        W32946  35.084  14.050  10.689
61221W        W32947   7.998  25.946  12.114
61222W        W32948   4.177  13.725  14.520
61223W        W32949   5.946  41.541  14.231
61224W        W32950  39.354  22.730  10.869
61225W        W32951  40.752  15.251  12.070
61226W        W32952  41.384  24.587   3.346
61227W        W32953  37.524  25.079   3.108
61228W        W32954  17.043   2.470   3.867
61229W        W32955  18.522   2.313   5.063
61230W        W32956  10.569  26.971  11.920
61231W        W32957   0.744  21.101  11.496
61232W        W32958  21.788  10.826   3.736
61233W        W32959  17.638  21.734  13.110
61234W        W32960  16.208  42.855  14.799
61235W        W32961   5.694  22.089  13.552
61236W        W32962   0.006  42.546  11.496
61237W        W32963  42.341  38.380   2.704
61238W        W32964  12.442  43.239  11.215
61239W        W32965  33.183  11.599   0.878
61240W        W32966  19.830  11.311   1.132
61241W        W32967  27.686  28.578  14.619
61242W        W32968  10.725   1.697   1.425
61243W        W32969  41.279  38.012  12.508
61244W        W32970  21.314  19.044   3.647
61245W        W32971  13.164  16.544   1.375
61246W        W32972   9.663  39.347  10.749
61247W        W32973  40.514  39.442   1.748
61248W        W32974  19.140   0.636   3.565
61249W        W32975  23.604  32.984   1.132
61250W        W32976  15.615  41.787  13.303
61251W        W32977  10.336  44.935   1.365
61252W        W32978  30.125  29.727   0.224
61253W        W32979  43.881  17.024  12.808
61254W        W32980  36.008   5.286   0.706
61255W        W32981  39.323  42.787   4.672
61256W        W32982  40.042   7.446   1.095
61257W        W32983  37.788  28.415   0.813
61258W        W32984  31.029  20.087  12.052
61259W        W32985  17.415  26.850   4.327
61260W        W32986   8.932  23.026  12.065
61261W        W32987   3.594  38.917   1.471
61262W        W32988   9.506  20.325   0.432
61263W        W32989  10.100  15.943   4.367
61264W        W32990  22.215  26.427  11.985
61265W        W32991  19.742  10.623  10.551
61266W        W32992   4.943  42.762   0.519
61267W        W32993  32.330  32.550   3.343
61268W        W32994   3.229  27.423   4.196
61269W        W32995  22.498  43.897   3.559
61270W        W32996  26.036  33.728   2.357
61271W        W32997  25.117  31.263  14.633
61272W        W32998   7.119  32.165  10.594
61273W        W32999  12.848  36.805   0.267
61274W        W33000   6.269  12.067   4.797
61275W        W33001   2.459  44.350   2.767
61276W        W33002  22.588  12.292   1.866
61277W        W33003   5.764   0.907  12.357
61278W        W33004  20.975  20.257   2.773
61279W        W33005  11.775   0.764  14.131
61280W        W33006  35.844   9.916   1.695
61281W        W33007  11.327  35.064   3.162
61282W        W33008   9.145  20.297   4.826
61283W        W33009  44.341  31.655   3.920
61284W        W33010  10.732  25.332  12.880
61285W        W33011  35.412  32.661  10.938
61286W        W33012  35.351  22.926   4.128
61287W        W33013  10.928  26.556  11.241
61288W        W33014  25.924  13.179  12.465
61289W        W33015   8.746  40.753  13.036
61290W        W33016  20.776  29.143  12.361
61291W        W33017  33.000  12.916  12.348
61292W        W33018  16.303  18.723   3.177
61293W        W33019  16.762  33.604   2.170
61294W        W33020   7.648  11.721  14.488
61295W        W33021   6.864  35.306   1.805
61296W        W33022  30.872  31.262  12.245
61297W        W33023  23.453  20.642  14.376
61298W        W33024  42.505  31.061  14.646
61299W        W33025  27.587  32.542  14.808
61300W        W33026  37.545   4.995  14.821
61301W        W33027  22.732  11.839  10.538
61302W        W33028  28.605   6.239  13.138
61303W        W33029  27.549  31.233  14.963
61304W        W33030   5.030   5.409  10.970
61305W        W33031  29.638  32.437   4.513
61306W        W33032   0.973   7.448  14.887
61307W        W33033   3.416  21.244   4.131
61308W        W33034   5.852  10.368  12.957
61309W        W33035  39.463  16.237   1.426
61310W        W33036  32.986  17.244  10.872
61311W        W33037  37.278  22.318  12.868
61312W        W33038  13.928  11.754  14.614
61313W        W33039  33.700  34.857  13.939
61314W        W33040   3.034  10.131  11.186
61315W        W33041  16.598  39.551   0.335
61316W        W33042  33.413  22.761  12.572
61317W        W33043  22.475  14.092  12.061
61318W        W33044  39.950  33.842   4.020
61319W        W33045   0.841   2.254   4.199
61320W        W33046  41.096  27.435  14.535
61321W        W33047  44.228  39.970  14.442
61322W        W33048  38.912  26.759  14.441
61323W        W33049   3.168  29.456  14.203
61324W        W33050  12.830  43.561  11.071
61325W        W33051   3.937  11.630   0.215
61326W        W33052  20.821   4.282   4.688
61327W        W33053  15.913  31.230   5.024
61328W        W33054  24.944  43.730  12.029
61329W        W33055  30.725   3.465   1.416
61330W        W33056  27.038   6.293  10.369
61331W        W33057  41.099  20.005   3.532
61332W        W33058  18.156  35.436  14.652
61333W        W33059  29.068   5.807  13.094
61334W        W33060  32.419  39.511   3.746
61335W        W33061   1.748  36.622   2.737
61336W        W33062   1.989   5.535   4.103
61337W        W33063  32.989  43.234   1.981
61338W        W33064  37.149  26.249   0.325
61339W        W33065  33.828  26.897   0.396
61340W        W33066  10.180  44.063   5.204
61341W        W33067   6.862  25.484  12.422
61342W        W33068  32.002   1.289  10.586
61343W        W33069  40.796  17.354   0.787
61344W        W33070   4.772   1.308  12.878
61345W        W33071  24.550  34.662   2.630
61346W        W33072  36.625   4.858   4.584
61347W        W33073  18.200  18.674  13.134
61348W        W33074  22.168  15.447   1.912
61349W        W33075  28.558  42.491  11.513
61350W        W33076  42.015  11.876  14.205
61351W        W33077  36.052  43.826   1.415
61352W        W33078   0.962  40.490   3.621
61353W        W33079   2.954  21.803   0.660
61354W        W33080  35.867  21.043   1.689
61355W        W33081  41.853  42.033  11.538
61356W        W33082  14.628  34.296  14.709
61357W        W33083  30.592   4.810  13.601
61358W        W33084   0.422  33.518  13.811
61359W        W33085  17.326   8.265  12.587
61360W        W33086   0.774  38.485   0.005
61361W        W33087  37.034  11.400  12.103
61362W        W33088   7.518  44.268   3.138
61363W        W33089  34.496  28.063  11.012
61364W        W33090  38.883  38.297  13.821
61365W        W33091  17.631  14.240   3.398
61366W        W33092  20.362  17.273   0.788
61367W        W33093  29.649   8.253   1.203
61368W        W33094   7.348  11.856   4.642
61369W        W33095  11.778  19.731  14.395
61370W        W33096   9.875  33.994  11.940
61371W        W33097  26.583  25.197   3.245
61372W        W33098  12.800  38.894  10.727
61373W        W33099  42.743  11.299  13.339
61374W        W33100  15.511  40.952  14.861
61375W        W33101  14.037  28.662  11.153
61376W        W33102   9.282  32.857   1.051
61377W        W33103  42.823  23.464   2.675
61378W        W33104  22.836  42.785   3.734
61379W        W33105  13.048  11.823  14.840
61380W        W33106  15.082  25.756   4.095
61381W        W33107   0.314  27.225   0.770
61382W        W33108  24.932  39.024  11.011
61383W        W33109   6.344  10.123  13.857
61384W        W33110   2.152  14.846   1.386
61385W        W33111  26.565  15.814   4.047
61386W        W33112  34.439  35.625   4.244
61387W        W33113  29.063  36.986   3.131
61388W        W33114  40.988   4.433  11.697
61389W        W33115  37.390  30.936   0.004
61390W        W33116  34.290  38.075  14.044
61391W        W33117  43.829   2.226  12.154
61392W        W33118  21.963  19.420  13.747
61393W        W33119  32.968  16.820   0.042
61394W        W33120   6.705  33.946   3.286
61395W        W33121  13.980  11.860   4.537
61396W        W33122  29.928  39.545  11.211
61397W        W33123  34.578  38.570  13.311
61398W        W33124  27.995   0.762  12.593
61399W        W33125   4.825  42.126  13.041
61400W        W33126  12.777  12.695  12.122
61401W        W33127  30.251  27.470  14.455
61402W        W33128  14.710  10.056  14.324
61403W        W33129  27.545  12.325  10.562
61404W        W33130   8.597   7.212  11.488
61405W        W33131  39.047  25.609   3.732
61406W        W33132  28.999  23.462  14.410
61407W        W33133  38.144  39.363  11.035
61408W        W33134  36.571  40.944  14.421
61409W        W33135  29.206  36.395   4.331
61410W        W33136  34.020  36.872  11.962
61411W        W33137   7.714  11.396  14.904
61412W        W33138   0.028  25.960   3.714
61413W        W33139  15.705  20.331   1.818
61414W        W33140  12.226  31.005  14.545
61415W        W33141  19.002  17.133  12.447
61416W        W33142  32.511  25.628   3.383
61417W        W33143  37.369  35.494   2.194
61418W        W33144  14.915  20.687   2.322
61419W        W33145  17.133  32.213  14.489
61420W        W33146  16.950  41.383   1.269
61421W        W33147   4.943  34.138  12.063
61422W        W33148  34.984  11.603   9.815
61423W        W33149  42.081   8.777  10.961
61424W        W33150  44.756  39.128   4.138
61425W        W33151   9.343  40.795   4.627
61426W        W33152   4.018   2.368  11.011
61427W        W33153   0.735   5.911   2.949
61428W        W33154  19.569  34.239  14.605
61429W        W33155  30.161  40.487   1.935
61430W        W33156  12.860  40.904  12.019
61431W        W33157   2.941   1.999  10.543
61432W        W33158  10.439  19.567   5.112
61433W        W33159  42.356   9.411   1.891
61434W        W33160   7.503   1.788  13.424
61435W        W33161  13.168  27.450  14.002
61436W        W33162  31.342  29.211  10.659
61437W        W33163  19.800  15.898  11.999
61438W        W33164  34.039  21.076  11.281
61439W        W33165  20.125   2.771   0.957
61440W        W33166   1.241  26.224  11.610
61441W        W33167  14.817   7.934   1.260
61442W        W33168   6.677   8.439   5.143
61443W        W33169  12.274  11.808  14.301
61444W        W33170  11.815  25.079   2.827
61445W        W33171  21.478   0.473  11.334
61446W        W33172  30.069   5.161   4.202
61447W        W33173  30.540  10.785  11.980
61448W        W33174   8.413  20.171  12.559
61449W        W33175  32.511  17.187  12.158
61450W        W33176  39.007  28.444  12.095
61451W        W33177  24.370  12.665  14.418
61452W        W33178  18.521  19.748  11.116
61453W        W33179  17.820   9.843  14.510
61454W        W33180  39.569  20.691  11.994
61455W        W33181  42.049  30.895   1.567
61456W        W33182  16.856  43.638  12.356
61457W        W33183  39.475  39.759   3.114
61458W        W33184   3.861  37.382   1.850
61459W        W33185  28.621  26.228  13.416
61460W        W33186  19.544  44.198  14.921
61461W        W33187  18.518   8.740  14.193
61462W        W33188  33.437  12.255   4.045
61463W        W33189  32.130  25.608  10.234
61464W        W33190  19.776  25.087  14.507
61465W        W33191   6.108  17.272   2.000
61466W        W33192  44.317  24.771   3.207
61467W        W33193  33.860  31.970   1.173
61468W        W33194  18.634   0.655   3.117
61469W        W33195   5.956   9.925  12.646
61470W        W33196  25.035  12.169  11.379
61471W        W33197  10.938  40.359   2.989
61472W        W33198  34.657   3.430  12.227
61473W        W33199  25.560   3.890  13.520
61474W        W33200  18.340  26.445  12.455
61475W        W33201  38.533  24.517   0.321
61476W        W33202  16.476  29.617  14.338
61477W        W33203   7.325   3.360   3.132
61478W        W33204  30.265  15.685   0.984
61479W        W33205   0.702  35.013  10.508
61480W        W33206  18.898  11.764   2.649
61481W        W33207  40.521   9.807  10.385
61482W        W33208  30.762  26.598   1.432
61483W        W33209   3.276  27.386  12.162
61484W        W33210  38.413  30.967  14.788
61485W        W33211  14.749  12.189  13.950
61486W        W33212  10.249   2.042  10.526
61487W        W33213  16.722  11.110   4.189
61488W        W33214  39.316   3.618  14.412
61489W        W33215  37.791  24.664   3.280
61490W        W33216   1.855  26.515   1.877
61491W        W33217  30.677  15.601   2.214
61492W        W33218  44.377   5.226  14.312
61493W        W33219   0.919  43.866  14.337
61494W        W33220   9.140  37.811  14.408
61495W        W33221  29.057  30.638   2.434
61496W        W33222  10.724   8.914   0.243
61497W        W33223  42.445  11.091  12.953
61498W        W33224  19.847  38.385  13.628
61499W        W33225  22.273  36.487   2.759
61500W        W33226  14.172  36.656  11.997
61501W        W33227  26.635  38.379  13.423
61502W        W33228  31.126  28.971   0.376
61503W        W33229  17.689  31.546   4.640
61504W        W33230  17.475  31.980   4.374
61505W        W33231  23.257  25.649  11.847
61506W        W33232  21.225   4.185  11.833
61507W        W33233  15.573  17.469  11.092
61508W        W33234  10.357  32.436  12.782
61509W        W33235  10.366   4.945   1.757
61510W        W33236  19.153  40.883   2.472
61511W        W33237  11.695  35.657   0.936
61512W        W33238  19.790  37.060   0.879
61513W        W33239  42.338  11.248   3.913
61514W        W33240  32.405  14.565  14.889
61515W        W33241   0.051  41.806   0.944
61516W        W33242  16.280  39.786  11.724
61517W        W33243  20.646  12.382  14.259
61518W        W33244  11.897  17.701  14.732
61519W        W33245  42.293   5.141  12.500
61520W        W33246  20.078  33.976  12.009
61521W        W33247  28.626  17.279  14.401
61522W        W33248  30.018  17.036  10.549
61523W        W33249   1.827  24.250   0.899
61524W        W33250   1.927   3.385   1.891
61525W        W33251  22.778  44.398  13.564
61526W        W33252  17.176   8.722   0.750
61527W        W33253   4.893  29.682  10.793
61528W        W33254  33.657   0.613   0.957
61529W        W33255  27.991  37.550   4.567
61530W        W33256  12.578  35.323   2.975
61531W        W33257  22.642  31.755   0.091
61532W        W33258  10.845  42.304   3.310
61533W        W33259  29.940  39.269   1.334
61534W        W33260  15.501  16.181   3.777
61535W        W33261  37.804  10.433   3.847
61536W        W33262   4.607  40.568  12.644
61537W        W33263  23.254  23.212   4.112
61538W        W33264  14.186  27.452  11.415
61539W        W33265  15.777  26.994  10.715
61540W        W33266  19.219  39.811  12.038
61541W        W33267  28.220  36.124  14.903
61542W        W33268   6.883  30.411   3.335
61543W        W33269  17.489  36.926   0.728
61544W        W33270  21.487  39.081   3.253
61545W        W33271   0.192  28.235  14.330
61546W        W33272  23.281  44.317  13.794
61547W        W33273  43.496  38.215  12.494
61548W        W33274  19.021  11.434   1.397
61549W        W33275  42.692  38.944   2.274
61550W        W33276  42.287  12.270   1.392
61551W        W33277  39.016  22.956  11.178
61552W        W33278   3.851   8.113  13.653
61553W        W33279  15.469   9.167   4.210
61554W        W33280  21.260   4.689  12.066
61555W        W33281  13.604  25.282   3.251
61556W        W33282   9.159   1.904  10.427
61557W        W33283  31.215  39.919   0.742
61558W        W33284  12.598  15.039  10.807
61559W        W33285  11.753   4.378   0.806
61560W        W33286  40.938  41.116  12.683
61561W        W33287  22.765  15.821   9.913
61562W        W33288   6.244   2.266  11.176
61563W        W33289  33.809  32.852  12.117
61564W        W33290  29.423   2.269   1.783
61565W        W33291  18.771  32.940  11.269
61566W        W33292  42.573  13.306   4.358
61567W        W33293   2.295  42.317   4.629
61568W        W33294   1.643  38.974   4.479
61569W        W33295   5.588   6.630   4.288
61570W        W33296  41.425  23.462   2.402
61571W        W33297  37.465  29.374   4.127
61572W        W33298  10.785  44.489  11.730
61573W        W33299   7.758  37.852   4.474
61574W        W33300   3.893  21.290   4.388
61575W        W33301  32.191  42.522   4.558
61576W        W33302  34.052  22.743  14.886
61577W        W33303  20.988  34.407   1.864
61578W        W33304  43.993  14.245   0.692
61579W        W33305  33.966  35.359  13.388
61580W        W33306  17.833  11.117   1.873
61581W        W33307  36.789   8.984  12.918
61582W        W33308  21.996   4.675  13.048
61583W        W33309  15.272   8.434   3.290
61584W        W33310  34.124  10.431   4.279
61585W        W33311  13.811  18.565  13.418
61586W        W33312   7.045   7.447   9.679
61587W        W33313  29.436  31.186   2.712
61588W        W33314   0.042   5.685  10.383
61589W        W33315  10.863  17.707  13.837
61590W        W33316  19.987  43.750  13.204
61591W        W33317  13.267  23.071   4.729
61592W        W33318  33.302  39.302   1.774
61593W        W33319  13.657  29.377   2.913
61594W        W33320  33.529  32.855   4.893
61595W        W33321   6.795  30.059   0.353
61596W        W33322  23.872  14.616   9.736
61597W        W33323   5.791  11.253  14.839
61598W        W33324  36.827  38.931   3.239
61599W        W33325  26.481  44.346  11.330
61600W        W33326  39.343   7.356  14.106
61601W        W33327  29.138  19.413   0.349
61602W        W33328   9.270  18.214   4.508
61603W        W33329  37.662  18.112  10.305
61604W        W33330  42.333  14.746   4.197
61605W        W33331  13.601   3.105  10.437
61606W        W33332  21.480  44.966  11.498
61607W        W33333  38.522  23.276  12.977
61608W        W33334  31.165  41.932   3.108
61609W        W33335  22.462  23.983   1.270
61610W        W33336  31.526  24.291  13.881
61611W        W33337  31.543  43.396   1.470
61612W        W33338  14.778  30.604  12.491
61613W        W33339   6.664  35.989   2.477
61614W        W33340  20.240  30.870  13.587
61615W        W33341   4.006  42.436   2.462
61616W        W33342   9.602   8.898   3.730
61617W        W33343  26.522  33.125  11.194
61618W        W33344   3.879   9.173   4.559
61619W        W33345  17.261  29.192   2.876
61620W        W33346  31.306  13.690   1.832
61621W        W33347  25.932  40.751   3.971
61622W        W33348  12.908   8.752   2.405
61623W        W33349  33.397  31.082  10.375
61624W        W33350  20.567  31.457   4.123
61625W        W33351  35.999   8.259   1.311
61626W        W33352  33.810   6.533  11.540
61627W        W33353  20.497  14.824   2.675
61628W        W33354   5.065   5.856   1.790
61629W        W33355  36.053  43.154   3.541
61630W        W33356  20.560  16.143  11.512
61631W        W33357  29.644  41.919   2.858
61632W        W33358  16.671   4.109   2.983
61633W        W33359  23.011  20.455   3.629
61634W        W33360  29.749  27.581  11.696
61635W        W33361   3.823   7.163  11.309
61636W        W33362  31.378  40.647   3.249
61637W        W33363  20.620   5.130   5.051
61638W        W33364  16.301  22.517   0.453
61639W        W33365  17.100  26.726   4.745
61640W        W33366  18.723  25.199   1.430
61641W        W33367  40.527   8.727   2.625
61642W        W33368  38.423   8.422  14.584
61643W        W33369  11.454   3.392   0.967
61644W        W33370  14.638   8.120   1.718
61645W        W33371  30.978  10.834   0.422
61646W        W33372  29.900  40.888   4.333
61647W        W33373  16.609  22.495   4.583
61648W        W33374  29.686  39.319   4.235
61649W        W33375  13.814  22.716  13.921
61650W        W33376  15.606  34.222   2.133
61651W        W33377  20.364  13.936   1.701
61652W        W33378  41.053   1.178  14.224
61653W        W33379  31.273  31.604   1.416
61654W        W33380   8.852   6.967   4.339
61655W        W33381   8.813   7.874  14.945
61656W        W33382  13.257  34.358  14.234
61657W        W33383  39.017  19.201   2.355
61658W        W33384  28.872  36.044  10.571
61659W        W33385  27.831   2.232   0.410
61660W        W33386   2.314  32.114   1.729
61661W        W33387   2.655  41.037   0.892
61662W        W33388  15.707  26.012  13.450
61663W        W33389  37.507  44.228  13.141
61664W        W33390  21.844  40.026   2.143
61665W        W33391  42.758  18.637  12.071
61666W        W33392  40.942  24.039   3.601
61667W        W33393  17.837  15.864  12.422
61668W        W33394  38.933  10.433  11.710
61669W        W33395  33.160  26.608  14.962
61670W        W33396   3.695  29.634  11.961
61671W        W33397  22.584  30.684   4.194
61672W        W33398   3.860  15.544   5.377
61673W        W33399  31.412   8.090   1.812
61674W        W33400  36.324  19.351   1.398
61675W        W33401  22.487  41.613   0.581
61676W        W33402  15.118   7.264  12.394
61677W        W33403  40.822   4.877   9.918
61678W        W33404  32.847  24.596   1.273
61679W        W33405  33.587  23.516  13.661
61680W        W33406   9.492  23.327   4.929
61681W        W33407  33.596   5.389   2.429
61682W        W33408   5.903  32.688   4.492
61683W        W33409  40.936  26.677   4.481
61684W        W33410  34.115  15.715   1.271
61685W        W33411  14.577  31.696   1.102
61686W        W33412  14.061  25.498   1.413
61687W        W33413  32.351  29.987  12.903
61688W        W33414  11.771  34.403   0.484
61689W        W33415  10.638  37.848   0.303
61690W        W33416  41.201   8.905   5.015
61691W        W33417  11.664  17.996  13.307
61692W        W33418  16.175  33.871   4.038
61693W        W33419   2.472  35.840   2.828
61694W        W33420  44.940  44.016   4.185
61695W        W33421  22.511  39.988  10.948
61696W        W33422  22.940   9.569   1.093
61697W        W33423  43.702  15.618   2.484
61698W        W33424  19.668  23.289   1.483
61699W        W33425  23.455  13.087  14.455
61700W        W33426  35.414  24.576  13.761
61701W        W33427  34.899  21.131   9.960
61702W        W33428  39.793  28.487  11.104
61703W        W33429  32.457   6.404   2.249
61704W        W33430  37.911   0.846  14.294
61705W        W33431  44.657   0.297   0.055
61706W        W33432  27.210  36.686   3.101
61707W        W33433  25.529  17.039  12.646
61708W        W33434   7.330  30.022  11.568
61709W        W33435  37.030  42.482   1.470
61710W        W33436  33.356   2.461   1.825
61711W        W33437  30.526  42.259  11.041
61712W        W33438   7.676  17.734  12.357
61713W        W33439  39.795  29.000  10.795
61714W        W33440  40.765   7.262  14.056
61715W        W33441  25.521  13.118  13.896
61716W        W33442  14.726  39.403   1.923
61717W        W33443  17.078   4.335   2.565
61718W        W33444  31.077  23.583  12.382
61719W        W33445  22.272   0.333   3.847
61720W        W33446  34.151  41.383  14.802
61721W        W33447  43.379  42.010   2.794
61722W        W33448  43.475  30.140  12.677
61723W        W33449  28.444  24.712  12.959
61724W        W33450  28.018  27.016   0.493
61725W        W33451  37.592  26.781   0.397
61726W        W33452  40.984  31.153   1.371
61727W        W33453  28.162  41.284  11.141
61728W        W33454  39.994  35.904   3.067
61729W        W33455  31.611  35.959   3.326
61730W        W33456  16.121  37.210  10.231
61731W        W33457  13.046  21.295   3.628
61732W        W33458  33.899  17.672  10.560
61733W        W33459  37.343  43.177   4.584
61734W        W33460  41.975   3.039  13.954
61735W        W33461   7.815  11.732  12.846
61736W        W33462  38.843  38.917   4.134
61737W        W33463  44.404  32.951  13.249
61738W        W33464   1.818   7.717  14.225
61739W        W33465   2.875   0.822   4.844
61740W        W33466   8.891  31.015   2.157
61741W        W33467  18.387  42.864  13.539
61742W        W33468  10.961  30.198  12.299
61743W        W33469  11.649  12.538  11.449
61744W        W33470  37.903   8.778  12.153
61745W        W33471  20.372  43.448   0.802
61746W        W33472  21.028   2.861   4.076
61747W        W33473  12.300  36.236  12.005
61748W        W33474  44.422  44.597   4.354
61749W        W33475  35.038  12.266  13.731
61750W        W33476  30.996   7.822   1.635
61751W        W33477  44.885  15.101  11.033
61752W        W33478  44.539  11.671   5.054
61753W        W33479  20.617  22.150   1.858
61754W        W33480  41.053  14.351   1.851
61755W        W33481   4.073   5.426  13.671
61756W        W33482  36.761  32.474   1.380
61757W        W33483  38.630  33.629  13.245
61758W        W33484  34.251  37.624   4.356
61759W        W33485  10.296  31.042   4.493
61760W        W33486  35.703  19.921   3.324
61761W        W33487  11.172  31.568   3.694
61762W        W33488  40.857  24.635   3.266
61763W        W33489  21.277  39.722  13.011
61764W        W33490   4.954  37.487   4.174
61765W        W33491   3.422  18.628   1.238
61766W        W33492  20.988  26.074   1.894
61767W        W33493  19.168   7.238   3.547
61768W        W33494  19.801   0.533  10.911
61769W        W33495   7.345   1.919   0.374
61770W        W33496  43.942  25.631   1.837
61771W        W33497  28.500  42.886  14.359
61772W        W33498  32.119   7.248   0.378
61773W        W33499   4.161  34.837  11.127
61774W        W33500  38.937   0.256  14.977
61775W        W33501   6.855  27.893   0.387
61776W        W33502  19.678  26.506   2.613
61777W        W33503  25.329  13.309   3.415
61778W        W33504  22.354   2.460  13.849
61779W        W33505   3.402   4.251  12.431
61780W        W33506  19.781  27.286  11.913
61781W        W33507   4.126   0.828  14.805
61782W        W33508  39.040  42.290   2.260
61783W        W33509  22.959  30.522   4.530
61784W        W33510  23.311  24.097   3.735
61785W        W33511  11.162  24.557   9.900
61786W        W33512  14.970  34.061   4.805
61787W        W33513  27.205   8.772   2.772
61788W        W33514  23.922  38.789  11.029
61789W        W33515   2.347  19.632   4.297
61790W        W33516  44.365  22.757  13.280
61791W        W33517   4.964   1.322   3.654
61792W        W33518  26.683   4.425  10.651
61793W        W33519   8.306  23.477   3.646
61794W        W33520   6.648  41.262   1.015
61795W        W33521  28.135  42.078  14.008
61796W        W33522  29.925   1.477   2.663
61797W        W33523  34.636  44.804   1.051
61798W        W33524   6.318  25.743   3.759
61799W        W33525  25.975  31.484  11.711
61800W        W33526   8.651  32.893   4.204
61801W        W33527  34.423  41.521   3.155
61802W        W33528  21.385   0.326   2.699
61803W        W33529  38.352  43.385   4.706
61804W        W33530  16.283  35.396   2.302
61805W        W33531   9.269  28.215  13.907
61806W        W33532  21.429   1.606   2.328
61807W        W33533  43.729  42.969  12.062
61808W        W33534  38.033  25.987   1.339
61809W        W33535  26.824  23.086  11.549
61810W        W33536  28.488  44.483  14.725
61811W        W33537   1.820  15.812  12.456
61812W        W33538  29.104  15.716  12.715
61813W        W33539   1.869  38.294   1.891
61814W        W33540  30.321  37.867   1.782
61815W        W33541  22.579  15.077  12.162
61816W        W33542  24.692  28.531  11.565
61817W        W33543  41.182  44.122   2.808
61818W        W33544   1.421  15.116  11.495
61819W        W33545  41.039  26.129  13.251
61820W        W33546   2.320  44.680  10.179
61821W        W33547   8.830   9.962   4.908
61822W        W33548   0.034  42.686   3.800
61823W        W33549  21.184  10.735  14.844
61824W        W33550  42.527   2.019   2.817
61825W        W33551  39.601  14.555   1.931
61826W        W33552  31.421  19.322  10.437
61827W        W33553   8.787   0.365  11.680
61828W        W33554  41.424   1.513  14.425
61829W        W33555  42.155  19.457  12.376
61830W        W33556  27.134  40.917  13.287
61831W        W33557  42.366  22.644   1.344
61832W        W33558  10.358  17.790   4.579
61833W        W33559  41.524  37.237  14.511
61834W        W33560  43.725  18.749   3.788
61835W        W33561  24.609   4.180   3.466
61836W        W33562  18.760  29.432  14.903
61837W        W33563  25.319  25.795   5.036
61838W        W33564   5.204  10.893  11.357
61839W        W33565  37.853   8.384  11.195
61840W        W33566  21.502  35.162   2.655
61841W        W33567  35.972   3.436   4.593
61842W        W33568  44.057  30.097   0.656
61843W        W33569  11.867  31.061   2.450
61844W        W33570   0.482   0.991  11.202
61845W        W33571  39.303  42.044  12.413
61846W        W33572  16.477   6.842   3.174
61847W        W33573  43.979   2.735  12.037
61848W        W33574  26.316  17.700   3.739
61849W        W33575  15.338  13.714  13.889
61850W        W33576  16.795  41.964   1.844
61851W        W33577  36.623  32.102   1.734
61852W        W33578  34.377  22.604  11.098
61853W        W33579  14.941  25.614  12.479
61854W        W33580  30.372  24.641  11.604
61855W        W33581   3.542   3.494   0.853
61856W        W33582  23.250  27.909   3.371
61857W        W33583  30.537  25.504   0.053
61858W        W33584  18.461  19.230   1.530
61859W        W33585  37.934  28.958   1.253
61860W        W33586  31.527  44.328  12.413
61861W        W33587  21.962  19.459   0.866
61862W        W33588  18.264  40.396   3.865
61863W        W33589  33.567  38.552   3.612
61864W        W33590  16.793   0.003   1.873
61865W        W33591  10.721  34.078   3.579
61866W        W33592   2.208  13.325  12.441
61867W        W33593  42.262  20.025  12.410
61868W        W33594  32.060  14.176  14.746
61869W        W33595   5.807   3.756   3.926
61870W        W33596  28.102  22.180   4.288
61871W        W33597  18.101  14.833  10.729
61872W        W33598  18.593  16.137   0.446
61873W        W33599  42.728   9.739   2.794
61874W        W33600  31.864  44.901  14.267
61875W        W33601  18.685  43.841   3.719
61876W        W33602  17.244  22.097  13.713
61877W        W33603  31.474  12.293   1.911
61878W        W33604   0.462  43.987   2.633
61879W        W33605  16.133  43.835  11.601
61880W        W33606  26.651  43.918   5.139
61881W        W33607  18.196  26.471  11.905
61882W        W33608  19.235  16.520   3.088
61883W        W33609  23.617  17.542  12.016
61884W        W33610  11.679  43.387  10.668
61885W        W33611  15.719  12.088   4.051
61886W        W33612  25.577   2.969   0.040
61887W        W33613  35.765   0.019  11.492
61888W        W33614   9.771   3.817  12.145
61889W        W33615  14.803  38.776   1.322
61890W        W33616  12.322  17.207   2.444
61891W        W33617  14.894  29.061   1.049
61892W        W33618  21.670  13.659  10.439
61893W        W33619   5.901  29.435   0.203
61894W        W33620  27.748  22.698  11.498
61895W        W33621  19.431  33.693   3.166
61896W        W33622  14.304  24.569   0.418
61897W        W33623  14.676  10.246   0.037
61898W        W33624   9.382   8.373   3.832
61899W        W33625  33.349   1.680   4.131
61900W        W33626  44.230  41.563  10.084
61901W        W33627  30.494  24.607   5.160
61902W        W33628  39.093  26.945   3.348
61903W        W33629  22.207  28.852   2.651
61904W        W33630  26.203   4.464   0.699
61905W        W33631  18.724  28.912   2.337
61906W        W33632  39.343  36.925   3.652
61907W        W33633  16.071   7.145  14.908
61908W        W33634  28.751  15.485  12.108
61909W        W33635  44.793  10.774   2.376
61910W        W33636   4.881  20.062   2.259
61911W        W33637   6.934  35.294   3.781
61912W        W33638   7.999   0.288  12.330
61913W        W33639   4.770  41.760   2.823
61914W        W33640  30.254  31.395   2.815
61915W        W33641  43.253  12.735   4.182
61916W        W33642   8.919   3.955   4.225
61917W        W33643  35.358  32.569   2.183
61918W        W33644  13.051  21.727   3.922
61919W        W33645  28.511  13.083  14.518
61920W        W33646  26.019   6.846  13.161
61921W        W33647  13.601  22.430   2.621
61922W        W33648  27.194   6.224  11.634
61923W        W33649  38.743   2.536  10.412
61924W        W33650  26.757  28.661   1.011
61925W        W33651   7.279   5.941   2.718
61926W        W33652  43.807  36.447  12.904
61927W        W33653  17.627  22.047  14.893
61928W        W33654  14.537  15.272  12.432
61929W        W33655  10.090  10.852   3.253
61930W        W33656  31.794   2.371   1.702
61931W        W33657  14.721  14.285  12.514
61932W        W33658  33.380  23.264   2.836
61933W        W33659   5.559   3.786   4.380
61934W        W33660   3.044  36.719  11.192
61935W        W33661  40.415  10.897   4.523
61936W        W33662  19.476   0.932   0.606
61937W        W33663   1.714  34.475   2.842
61938W        W33664   4.640  28.199   3.752
61939W        W33665  10.912  41.056   0.444
61940W        W33666   7.477  31.950   0.547
61941W        W33667  26.654  41.913   0.765
61942W        W33668  26.420  22.476  13.289
61943W        W33669   1.707  38.100  12.074
61944W        W33670  18.476   4.532  11.588
61945W        W33671  21.045  14.715   1.909
61946W        W33672  11.354  24.715  14.370
61947W        W33673  26.400  33.015  14.531
61948W        W33674  38.046  39.319  14.259
61949W        W33675  23.980  37.917  11.974
61950W        W33676  33.393   1.308   3.742
61951W        W33677  32.924  12.245   2.616
61952W        W33678   6.651  22.246  10.728
61953W        W33679  18.536  34.603   0.410
61954W        W33680   7.897  39.015  12.050
61955W        W33681  11.346  21.877   3.838
61956W        W33682   4.224   8.334   2.640
61957W        W33683  43.379   5.556   3.224
61958W        W33684  12.097  29.330  11.959
61959W        W33685  38.019  18.977  14.524
61960W        W33686  13.577   0.040  10.489
61961W        W33687  28.243  21.406   3.751
61962W        W33688  32.840   0.732   0.784
61963W        W33689  40.546  30.805  12.186
61964W        W33690  19.136  42.832  11.822
61965W        W33691  22.186  12.283   2.224
61966W        W33692  30.365  37.461  13.823
61967W        W33693  34.739  36.065  14.800
61968W        W33694  36.925   6.378   2.755
61969W        W33695  43.363  25.541   3.143
61970W        W33696   4.855   1.207  10.837
61971W        W33697  16.604  28.674   1.324
61972W        W33698  41.242  26.394  14.431
61973W        W33699  44.640   3.497  12.979
61974W        W33700  43.482  10.223  14.333
61975W        W33701   0.658   2.093  10.848
61976W        W33702  28.636  13.456  13.625
61977W        W33703   6.299  37.604   1.733
61978W        W33704  34.317  42.232   3.827
61979W        W33705  41.347  13.655   3.378
61980W        W33706  43.524  24.673   3.600
61981W        W33707  28.417  10.247  14.983
61982W        W33708  33.342  11.458  13.075
61983W        W33709  24.603  25.170   3.906
61984W        W33710  28.235  36.895  10.735
61985W        W33711  36.850   9.726   2.645
61986W        W33712  16.369  41.207   2.955
61987W        W33713  34.381  26.803  14.822
61988W        W33714  30.930   6.432  12.510
61989W        W33715  19.839  26.086   3.299
61990W        W33716  32.958  22.490   1.833
61991W        W33717   7.396  38.334  11.455
61992W        W33718  36.464  38.641  14.200
61993W        W33719  20.138  35.426  14.159
61994W        W33720  44.258  17.433   0.460
61995W        W33721  30.153  22.820   2.761
61996W        W33722  15.830   8.663  10.589
61997W        W33723  26.961   1.951   4.525
61998W        W33724  41.389   9.415  14.474
61999W        W33725  37.525   9.761   9.976
62000W        W33726  29.192  14.389   2.286
62001W        W33727  18.336   8.381   2.171
62002W        W33728   7.792  37.994  11.526
62003W        W33729  39.320  43.482   0.227
62004W        W33730  33.844  15.675  12.596
62005W        W33731  33.073  31.881   4.612
62006W        W33732  15.775  43.545   2.740
62007W        W33733  16.611  16.144   4.409
62008W        W33734  43.906  27.705  13.793
62009W        W33735  23.191  17.150   4.811
62010W        W33736   4.732  19.638   0.540
62011W        W33737  41.392  13.939   0.504
62012W        W33738  43.322  21.460  13.851
62013W        W33739  40.906  34.924  11.535
62014W        W33740  40.425  11.274   0.180
62015W        W33741  18.121   0.747  12.832
62016W        W33742  44.170  22.575  12.808
62017W        W33743   5.964   4.785   3.206
62018W        W33744  27.134  17.082   3.315
62019W        W33745   7.129  27.060   1.056
62020W        W33746  16.670  31.019   0.749
62021W        W33747   0.479   0.279   3.988
62022W        W33748   9.164  40.813   2.097
62023W        W33749  20.997  35.280  13.814
62024W        W33750  43.406  32.872   2.871
62025W        W33751  19.435  38.330  11.409
62026W        W33752  29.059   7.692  13.366
62027W        W33753  22.965  35.481   4.626
62028W        W33754   1.984   9.095   3.191
62029W        W33755  44.324  12.065  12.977
62030W        W33756  13.914  42.860   1.803
62031W        W33757   6.502  21.306   2.063
62032W        W33758  33.344  34.019  12.496
62033W        W33759  40.610  29.941  12.869
62034W        W33760   5.422  32.023   0.461
62035W        W33761  29.527  31.370  10.745
62036W        W33762   3.223   0.285   3.651
62037W        W33763  23.804  13.664  13.409
62038W        W33764   5.959  42.271  12.454
62039W        W33765  34.326  12.621   3.385
62040W        W33766  10.709  43.105  11.876
62041W        W33767  29.116  12.853  10.857
62042W        W33768  44.033  23.981   2.696
62043W        W33769  43.428  32.973   0.756
62044W        W33770   2.938   7.802  12.467
62045W        W33771  33.373  25.535   0.483
62046W        W33772  26.151   0.355   1.145
62047W        W33773  30.502   8.281   0.990
62048W        W33774   4.713  14.233  12.143
62049W        W33775   2.779  30.692  14.944
62050W        W33776  11.870  33.091   1.928
62051W        W33777  13.751  25.284  12.072
62052W        W33778  18.197  20.723  13.829
62053W        W33779   9.208  18.073  14.182
62054W        W33780   8.802  24.235  11.468
62055W        W33781   2.431   3.684  12.967
62056W        W33782  15.829  14.205  13.312
62057W        W33783  24.719  37.587   1.193
62058W        W33784  23.244   5.855   4.267
62059W        W33785   7.395  10.879  11.017
62060W        W33786  30.675  16.351  12.657
62061W        W33787  27.995   9.406   4.698
62062W        W33788   2.182   9.947  14.950
62063W        W33789   7.824  41.363  11.578
62064W        W33790  14.806  27.437  14.880
62065W        W33791  44.763  26.062  11.559
62066W        W33792  37.346  24.517  13.681
62067W        W33793  33.216  10.580   4.322
62068W        W33794  16.900   4.240   1.295
62069W        W33795  31.592   6.273  11.202
62070W        W33796  10.871   7.399   4.981
62071W        W33797  19.227  33.557  10.551
62072W        W33798  21.192  13.724  11.722
62073W        W33799  13.768  30.920   2.363
62074W        W33800  39.827  12.382   0.232
62075W        W33801  20.469   3.869   0.361
62076W        W33802  14.648  12.280  13.451
62077W        W33803  39.381  40.395  14.963
62078W        W33804  38.984  17.866  12.994
62079W        W33805   9.744  23.409  13.748
62080W        W33806  43.208  28.329  14.021
62081W        W33807  36.571  28.971  12.887
62082W        W33808   2.474  15.252   4.590
62083W        W33809   4.841   7.866   2.271
62084W        W33810  28.692   3.081  12.660
62085W        W33811  40.059  35.244   4.772
62086W        W33812   2.367  30.897   3.173
62087W        W33813  42.740  34.348   3.444
62088W        W33814  31.594   8.813  14.800
62089W        W33815  27.588   6.446   2.310
62090W        W33816  35.349  14.158   0.939
62091W        W33817   9.425  11.782  12.141
62092W        W33818  40.422   3.378   0.804
62093W        W33819  16.898  25.055  13.859
62094W        W33820  28.010  40.215  11.279
62095W        W33821  44.755  31.597   0.685
62096W        W33822  43.400   8.489  13.277
62097W        W33823  41.504  22.701   1.790
62098W        W33824  40.637  20.615   0.869
62099W        W33825  44.872  40.750  11.060
62100W        W33826   1.405  13.333  12.058
62101W        W33827  38.534  16.305  11.284
62102W        W33828  11.837  44.867  12.276
62103W        W33829  43.058   6.837  14.893
62104W        W33830  42.473  28.099   4.281
62105W        W33831   6.212  23.062  13.855
62106W        W33832  24.071   1.761  13.380
62107W        W33833   0.680  19.709  11.574
62108W        W33834  30.192  38.535  12.569
62109W        W33835  23.706  43.538  13.394
62110W        W33836  23.860  18.281   0.697
62111W        W33837   0.160   7.008  13.375
62112W        W33838   9.639  43.518  12.461
62113W        W33839   8.939  34.547   0.297
62114W        W33840  40.378  21.101   2.703
62115W        W33841  29.872   4.970  12.475
62116W        W33842  39.932  27.644  11.495
62117W        W33843  24.603  24.090   4.431
62118W        W33844  16.535  15.178   0.471
62119W        W33845  27.687  22.479   4.225
62120W        W33846  19.051  33.399  12.994
62121W        W33847  19.371  34.935   4.088
62122W        W33848  10.647   8.812  13.511
62123W        W33849  37.081  33.771  14.900
62124W        W33850  12.749  40.549   4.528
62125W        W33851  39.086  34.863   3.868
62126W        W33852   4.493  32.325   1.797
62127W        W33853  41.345  31.962  12.117
62128W        W33854   8.407  28.106   1.613
62129W        W33855  30.058  35.290   0.284
62130W        W33856  24.100  19.183   4.066
62131W        W33857   1.430   8.196  14.930
62132W        W33858  43.742   3.227  14.406
62133W        W33859  12.446  17.748   4.793
62134W        W33860  35.773  33.497   1.210
62135W        W33861   6.201   3.563  10.753
62136W        W33862  33.453  34.777   2.664
62137W        W33863  30.074  20.063   3.272
62138W        W33864  39.710  17.279   2.568
62139W        W33865  15.185  23.520  13.573
62140W        W33866  11.131   3.703   0.438
62141W        W33867  44.114  37.537  10.729
62142W        W33868   6.247  13.563   5.052
62143W        W33869  23.446  40.439  14.932
62144W        W33870  14.923  27.323  12.998
62145W        W33871  43.223   2.710  12.617
62146W        W33872  41.289  34.646   4.234
62147W        W33873  31.112  27.848  11.479
62148W        W33874  20.191   1.774  14.014
62149W        W33875  23.383  15.586  11.944
62150W        W33876  34.338  31.338  10.766
62151W        W33877   3.814  17.208   0.991
62152W        W33878  20.166   5.675  10.750
62153W        W33879   8.245   6.548   0.029
62154W        W33880  35.615  25.209  10.764
62155W        W33881  39.788   8.947   2.311
62156W        W33882  44.564  30.557   2.274
62157W        W33883  30.920   0.481  13.542
62158W        W33884   3.117  30.567   4.939
62159W        W33885  21.562   1.000  10.722
62160W        W33886  12.122  39.937   2.666
62161W        W33887  31.117  13.375  11.098
62162W        W33888   1.293  13.165  10.660
62163W        W33889  12.006   0.487  13.132
62164W        W33890  20.673   9.327  12.348
62165W        W33891  15.133  27.913   3.374
62166W        W33892   5.577  30.394  12.429
62167W        W33893  26.300  14.571  11.664
62168W        W33894  25.189  12.073   4.447
62169W        W33895   5.412   3.933   9.966
62170W        W33896  38.229   4.935  13.411
62171W        W33897  14.169  17.246   4.121
62172W        W33898   5.457   5.306  10.667
62173W        W33899  18.817  22.085  12.006
62174W        W33900  15.083  35.938   3.704
62175W        W33901   9.620  22.264   1.309
62176W        W33902  14.834  19.586  13.247
62177W        W33903   1.964  17.262  12.441
62178W        W33904   7.813   6.319   0.843
62179W        W33905  43.706  15.088   2.864
62180W        W33906  36.613  13.873   1.937
62181W        W33907  43.481   3.255  13.949
62182W        W33908  17.100  13.336  11.602
62183W        W33909  13.344  42.948   0.285
62184W        W33910   7.249   8.206  14.622
62185W        W33911  36.207  16.743   0.348
62186W        W33912  44.849  30.300   5.329
62187W        W33913  19.980   6.495   0.235
62188W        W33914  25.166  34.227   0.400
62189W        W33915  15.918   5.229  12.567
62190W        W33916   7.668  24.094   1.920
62191W        W33917  42.508  16.210   0.911
62192W        W33918  12.516  22.575   2.197
62193W        W33919   1.959  41.881  13.851
62194W        W33920  34.968  17.898   3.417
62195W        W33921   7.682  31.128  10.875
62196W        W33922  32.919   7.318   1.395
62197W        W33923  11.834   7.351  13.888
62198W        W33924   5.622  42.027  13.537
62199W        W33925  22.720  23.901  11.971
62200W        W33926  41.529  12.660   4.952
62201W        W33927   0.029  22.669   3.741
62202W        W33928  16.242  43.456  13.229
62203W        W33929  18.043  20.015   0.565
62204W        W33930   1.008  22.499   2.788
62205W        W33931   9.829  43.355  13.998
62206W        W33932  42.473   6.471  12.944
62207W        W33933  40.987  12.893   1.280
62208W        W33934  15.063  21.286   4.470
62209W        W33935   2.178  44.652   3.054
62210W        W33936   5.435  42.289  12.525
62211W        W33937  26.301  35.477  11.054
62212W        W33938  21.550  32.497  11.157
62213W        W33939  37.382  19.145  12.668
62214W        W33940  29.108  20.066  12.494
62215W        W33941  43.018  16.871  10.416
62216W        W33942  11.705   9.732  11.456
62217W        W33943  29.453  25.920   0.057
62218W        W33944  35.107  24.290   1.328
62219W        W33945  29.605  40.259  14.743
62220W        W33946  12.815  38.023   0.711
62221W        W33947   2.478  38.340   3.075
62222W        W33948  39.284  44.012   4.014
62223W        W33949  10.666  42.274  13.697
62224W        W33950  10.795  18.681   2.711
62225W        W33951   4.712  35.579  13.056
62226W        W33952  26.228  22.857   4.943
62227W        W33953   9.504  40.113  14.898
62228W        W33954  22.684  16.188  14.029
62229W        W33955  28.901  34.960   0.003
62230W        W33956  10.428   9.626  12.168
62231W        W33957  32.010  38.997   4.151
62232W        W33958  25.577  11.731   2.314
62233W        W33959  32.490   7.945  10.765
62234W        W33960   8.414  23.871  13.809
62235W        W33961  29.596  19.428  10.335
62236W        W33962  39.461  43.813  11.926
62237W        W33963  11.647  35.642  11.082
62238W        W33964  17.687  30.531   3.622
62239W        W33965  41.233  25.196   2.695
62240W        W33966  21.176  30.405   1.940
62241W        W33967  35.064  23.574  12.331
62242W        W33968  30.556  33.488   2.333
62243W        W33969   0.384  10.476   0.176
62244W        W33970  10.722  33.557  11.093
62245W        W33971  19.633  36.537  12.545
62246W        W33972   2.937  27.378  11.556
62247W        W33973  23.461   4.711  10.605
62248W        W33974   1.949  13.740   2.734
62249W        W33975   5.886   8.743  13.531
62250W        W33976  38.812  40.119  10.632
62251W        W33977   0.780   7.706   3.370
62252W        W33978   5.709   7.266  11.617
62253W        W33979  13.726  20.987   0.539
62254W        W33980  24.769  12.878  10.205
62255W        W33981   1.324  23.420   1.300
62256W        W33982  29.455  31.686   3.661
62257W        W33983  20.628  17.893   3.062
62258W        W33984  17.086  13.944  13.731
62259W        W33985   3.646  26.178   2.695
62260W        W33986  34.034   3.330   1.458
62261W        W33987   9.743  19.990   0.775
62262W        W33988   9.190  20.210  14.769
62263W        W33989   4.249  35.532   2.801
62264W        W33990  23.637   7.706   2.661
62265W        W33991  20.033  25.492   3.903
62266W        W33992  20.703  27.491  12.043
62267W        W33993  27.692  13.060  13.390
62268W        W33994   8.150  24.107  10.675
62269W        W33995   5.403  27.441  10.726
62270W        W33996  38.850  17.751  11.503
62271W        W33997  16.826  16.014   0.883
62272W        W33998  10.241  31.373   2.813
62273W        W33999  28.538  37.868   1.382
62274W        W34000  31.905   5.319   4.310
62275W        W34001  26.439  42.284  13.288
62276W        W34002  42.517  17.469  13.447
62277W        W34003  16.328  31.553  10.480
62278W        W34004  41.039  44.219  11.204
62279W        W34005  33.322   0.980   0.826
62280W        W34006  38.480  43.801   0.322
62281W        W34007  28.046  12.198  10.975
62282W        W34008  41.288  16.865  11.643
62283W        W34009  10.210  21.507   2.426
62284W        W34010  33.050  27.540   4.347
62285W        W34011  42.671   6.871  11.933
62286W        W34012  29.592  25.719   0.960
62287W        W34013  34.858  29.158  10.270
62288W        W34014  10.114  10.098  12.103
62289W        W34015  18.876  23.610   0.389
62290W        W34016   3.722  10.108  10.305
62291W        W34017  11.279  40.634  14.130
62292W        W34018  42.040  39.842  13.080
62293W        W34019  40.753  24.499  10.971
62294W        W34020  27.478  24.444   3.746
62295W        W34021   3.684  25.163  11.114
62296W        W34022  31.556  33.561  10.616
62297W        W34023   2.950  39.478  14.436
62298W        W34024  15.653  39.437   4.679
62299W        W34025  29.771  19.390   2.751
62300W        W34026   5.112  23.943   3.362
62301W        W34027  14.798  19.282  14.893
62302W        W34028  14.809  34.020   0.922
62303W        W34029  37.601   3.427  13.316
62304W        W34030  34.062   6.614  14.766
62305W        W34031   2.519  15.543   1.590
62306W        W34032  11.206  30.910   0.283
62307W        W34033  31.936  34.447  10.708
62308W        W34034  23.476  42.966  12.029
62309W        W34035  19.655  14.937   3.603
62310W        W34036  34.900  21.477   0.954
62311W        W34037  32.740  30.574  10.868
62312W        W34038  39.411  16.365  12.461
62313W        W34039  10.590   9.320  14.360
62314W        W34040  29.097  27.814   3.149
62315W        W34041  43.896  21.821   4.799
62316W        W34042  33.604  30.640  14.769
62317W        W34043  32.518  36.634  13.454
62318W        W34044   3.835   6.232   4.627
62319W        W34045  36.080   6.487   2.844
62320W        W34046   6.201  13.892  12.583
62321W        W34047  41.287  11.043  13.425
62322W        W34048  38.454  30.904   0.311
62323W        W34049   3.708  10.202   1.986
62324W        W34050  40.756  30.605   4.210
62325W        W34051   5.291  41.845  13.095
62326W        W34052  21.076  38.395  14.134
62327W        W34053  39.906  40.484   2.179
62328W        W34054  30.537  25.921   4.179
62329W        W34055  41.400   8.824   0.301
62330W        W34056  28.519  33.568   4.431
62331W        W34057   6.692  21.972   4.192
62332W        W34058  37.072   4.226   0.906
62333W        W34059  20.499  27.403  14.994
62334W        W34060  38.046   2.715  13.369
62335W        W34061   7.687  25.034   0.522
62336W        W34062  17.563  17.140  12.860
62337W        W34063  18.635  23.575   0.920
62338W        W34064  40.212  42.261   2.887
62339W        W34065  27.611   3.451  14.741
62340W        W34066  26.151  18.354  12.438
62341W        W34067   7.656  27.707   0.969
62342W        W34068  42.494  44.409   1.822
62343W        W34069  20.827  43.462  13.500
62344W        W34070  31.339   3.321   3.158
62345W        W34071  19.909  23.724  11.897
62346W        W34072  18.730   3.221  13.526
62347W        W34073  25.914  10.719  11.427
62348W        W34074   5.069   5.249   0.261
62349W        W34075  12.333  14.621  10.967
62350W        W34076  14.247  17.037   3.160
62351W        W34077   0.021  36.316  10.746
62352W        W34078   6.366  13.228   5.499
62353W        W34079  16.995  42.514  11.638
62354W        W34080   8.625  17.206  14.913
62355W        W34081  40.769   9.160   0.006
62356W        W34082   9.896  41.857   4.313
62357W        W34083  27.216  25.012   3.391
62358W        W34084  11.136  30.616  12.626
62359W        W34085  30.612   6.882   0.774
62360W        W34086   6.957  19.237   0.459
62361W        W34087   3.274   2.333  11.392
62362W        W34088  39.142  27.500  14.865
62363W        W34089   8.265   6.363  12.473
62364W        W34090  25.437  11.115   1.385
62365W        W34091   5.456   5.172  11.165
62366W        W34092  28.806  20.484  12.380
62367W        W34093   5.814  28.623  11.970
62368W        W34094  28.730   9.269  14.951
62369W        W34095  21.284   7.365  10.759
62370W        W34096   2.539   0.997  11.588
62371W        W34097   8.315  29.723  13.338
62372W        W34098  23.898  23.680   5.284
62373W        W34099  29.540  31.145  11.228
62374W        W34100  43.756  35.887  14.024
62375W        W34101   0.331   5.400  10.726
62376W        W34102  26.993  15.279  13.518
62377W        W34103   3.735  16.945  13.468
62378W        W34104  14.671  24.092   1.704
62379W        W34105  22.690   3.751   2.659
62380W        W34106   8.811  17.272  14.017
62381W        W34107  24.088   6.616   1.848
62382W        W34108   0.404  37.468   3.345
62383W        W34109  35.507  34.049   4.667
62384W        W34110  17.588  30.521   1.006
62385W        W34111   5.279   6.738  11.090
62386W        W34112  32.098   4.283   2.393
62387W        W34113  36.670   9.923  12.892
62388W        W34114  32.042   0.238   1.729
62389W        W34115  29.517   5.216  14.045
62390W        W34116  36.306  34.016  11.176
62391W        W34117  32.377  16.359  11.723
62392W        W34118  34.516   0.502  13.105
62393W        W34119  17.639  31.523  14.517
62394W        W34120  17.832  19.826   1.282
62395W        W34121  34.157  22.137   0.777
62396W        W34122   0.420  39.895  12.342
62397W        W34123  26.716  12.333  13.446
62398W        W34124  40.285  30.190   3.118
62399W        W34125  38.690   7.256   0.924
62400W        W34126  41.449  14.189  12.853
62401W        W34127   6.771  22.714  12.039
62402W        W34128  22.969  24.038   3.163
62403W        W34129  35.550  11.261  12.498
62404W        W34130  29.859  12.360  11.272
62405W        W34131   0.418   1.346   3.360
62406W        W34132  39.829   7.743   1.948
62407W        W34133  32.145   1.471  11.605
62408W        W34134   9.503  17.568   0.922
62409W        W34135  11.344  15.127  11.951
62410W        W34136  13.303  41.510   2.220
62411W        W34137   0.708  19.724  13.999
62412W        W34138   7.691  34.370  14.315
62413W        W34139   6.291  31.163  14.117
62414W        W34140  40.420  40.385  14.541
62415W        W34141   7.448   7.916  12.391
62416W        W34142  26.965  32.953   0.914
62417W        W34143  24.098  38.399  13.938
62418W        W34144  41.618  27.919   0.627
62419W        W34145  17.209  10.880   3.248
62420W        W34146  16.600  11.086  11.359
62421W        W34147  24.753  11.641  12.615
62422W        W34148  38.809   7.383   0.402
62423W        W34149   5.396  23.689  10.754
62424W        W34150  35.514  10.367  14.886
62425W        W34151  40.144  37.934  13.626
62426W        W34152  42.791  25.875   2.047
62427W        W34153   8.098   6.037  12.090
62428W        W34154   8.599   7.369  10.615
62429W        W34155   3.792  24.608   1.918
62430W        W34156   0.374   2.374   3.164
62431W        W34157  40.171  35.690  13.525
62432W        W34158  10.482  25.717   2.862
62433W        W34159  12.825  38.867  12.472
62434W        W34160   4.514   6.925  14.839
62435W        W34161   7.296   9.872   0.915
62436W        W34162  37.969  16.686   4.512
62437W        W34163  40.788  25.090  11.087
62438W        W34164   5.928  31.446  10.632
62439W        W34165  13.726   8.677   1.906
62440W        W34166  39.093  42.380  12.967
62441W        W34167  40.849  33.005  11.574
62442W        W34168  10.110   0.412  13.471
62443W        W34169   0.551  27.646  11.638
62444W        W34170  13.382  42.731   3.251
62445W        W34171   7.813  39.996   4.518
62446W        W34172  13.187  20.005  14.802
62447W        W34173  29.494   4.564   4.984
62448W        W34174  19.487  30.049  14.390
62449W        W34175  38.899   1.000  12.298
62450W        W34176   3.316  10.095  12.509
62451W        W34177  41.767  16.611  11.540
62452W        W34178  21.169  32.434  12.289
62453W        W34179   2.816  41.966  13.407
62454W        W34180  18.523  11.845  13.462
62455W        W34181  22.932   4.839   4.218
62456W        W34182  10.170   7.974  13.901
62457W        W34183  43.730  43.442  13.065
62458W        W34184  42.962  19.078  10.591
62459W        W34185  38.471  21.192   1.049
62460W        W34186  39.961  24.649  10.636
62461W        W34187  14.198  19.027   0.774
62462W        W34188  26.159   9.391  13.958
62463W        W34189   4.442  25.233  10.349
62464W        W34190  33.978  42.765  14.982
62465W        W34191  27.765  28.422   0.630
62466W        W34192   8.853  28.005   1.351
62467W        W34193  28.915  42.641   4.041
62468W        W34194   0.491  21.027   4.204
62469W        W34195  26.162   3.503   3.300
62470W        W34196  34.280  25.000  14.541
62471W        W34197  43.796  26.429   2.272
62472W        W34198  22.905  14.415   5.086
62473W        W34199   5.952   3.076  14.305
62474W        W34200  32.582  30.588   4.230
62475W        W34201  15.534  29.136   3.087
62476W        W34202  41.408  42.757  11.549
62477W        W34203  23.509  25.416  13.182
62478W        W34204   8.754  16.375  11.643
62479W        W34205   1.073  26.570   2.497
62480W        W34206  16.289  22.167  10.337
62481W        W34207  32.505  27.579  11.557
62482W        W34208   8.585  34.105   0.330
62483W        W34209  42.680  34.724  14.826
62484W        W34210  43.993  41.287   2.178
62485W        W34211  38.965  21.930   1.170
62486W        W34212   6.721  42.262  13.945
62487W        W34213   1.014  28.986   5.086
62488W        W34214   8.874  27.383  11.516
62489W        W34215  30.139   3.184  13.598
62490W        W34216  12.435  23.589   2.820
62491W        W34217  14.619  44.004   4.325
62492W        W34218  33.723  40.923   2.392
62493W        W34219  14.616  17.801   2.295
62494W        W34220  40.265  12.797  11.127
62495W        W34221   2.985   0.337  13.568
62496W        W34222  19.461   3.769   1.308
62497W        W34223  24.800  37.776   3.728
62498W        W34224  40.892  24.305  11.422
62499W        W34225  12.434  19.212   1.428
62500W        W34226   5.814  35.027   0.199
62501W        W34227  17.267  44.807  11.902
62502W        W34228  12.826  37.937  13.778
62503W        W34229  16.247   1.789   1.801
62504W        W34230   9.700   7.789   2.525
62505W        W34231   6.905   9.092   1.767
62506W        W34232  40.431  11.636  10.396
62507W        W34233  21.309  18.296  12.565
62508W        W34234  36.311  20.476  10.751
62509W        W34235  16.923  10.645  14.419
62510W        W34236  41.791  34.971   0.221
62511W        W34237  17.223  38.477   1.852
62512W        W34238  16.175  15.558   4.962
62513W        W34239  32.920  24.913  13.812
62514W        W34240  42.454  33.505  12.055
62515W        W34241  39.420  37.352  12.675
62516W        W34242  27.074  38.351  11.676
62517W        W34243  17.160  36.109   3.691
62518W        W34244  18.021  37.831   2.733
62519W        W34245  30.531  35.314  14.852
62520W        W34246  39.242   3.319  12.408
62521W        W34247  32.946  20.491   2.661
62522W        W34248  19.092  36.890  13.969
62523W        W34249  33.812  27.510  13.500
62524W        W34250  11.206   4.688  11.395
62525W        W34251  43.315  32.696  11.183
62526W        W34252  37.669  30.525  14.827
62527W        W34253  27.151  19.289  14.624
62528W        W34254   0.856  32.405  11.445
62529W        W34255  33.525   7.812  13.887
62530W        W34256  39.295  10.240  12.697
62531W        W34257   3.149   8.649   4.204
62532W        W34258  35.747  40.095  14.871
62533W        W34259  16.130   2.515  14.033
62534W        W34260   9.606   5.782   1.192
62535W        W34261  11.783  16.061  13.303
62536W        W34262  32.610  32.755   4.736
62537W        W34263  36.039  43.064  12.040
62538W        W34264  24.287  32.124   2.731
62539W        W34265  24.939  38.363   1.678
62540W        W34266  22.587  22.643  11.202
62541W        W34267  12.176   1.141  10.868
62542W        W34268   9.795  43.133   1.308
62543W        W34269  34.383  42.941  10.169
62544W        W34270  23.680   8.572   0.042
62545W        W34271  16.696   6.859  13.319
62546W        W34272  41.421  11.716   4.607
62547W        W34273  30.547   0.506  11.936
62548W        W34274  13.011  29.050  10.913
62549W        W34275  29.202  36.348  13.957
62550W        W34276  41.046  39.741  11.074
62551W        W34277  33.511  17.706  14.220
62552W        W34278   1.885   7.471  14.825
62553W        W34279  21.907   2.835   1.215
62554W        W34280  44.540  32.712  14.358
62555W        W34281  15.713  10.256   4.710
62556W        W34282  38.596  12.364  14.842
62557W        W34283  28.443   1.010  12.453
62558W        W34284  41.465  12.297   4.382
62559W        W34285   1.212   0.462   1.050
62560W        W34286  18.324  43.042   0.416
62561W        W34287  19.467   5.125   2.472
62562W        W34288  16.562   8.794   2.146
62563W        W34289   5.808   5.616   0.920
62564W        W34290  27.917   4.301  14.251
62565W        W34291  24.154  25.674  11.649
62566W        W34292   4.304  44.066   2.644
62567W        W34293  14.669  36.503  13.781
62568W        W34294   6.745   6.863   1.728
62569W        W34295  12.609  11.959  11.068
62570W        W34296  27.688  28.101  10.709
62571W        W34297  23.441  35.662  12.505
62572W        W34298  11.361  12.807   1.930
62573W        W34299   5.134  36.474  10.709
62574W        W34300  25.586  42.391  14.235
62575W        W34301  29.516  39.358  11.454
62576W        W34302  44.082  44.403   2.887
62577W        W34303   7.899   6.631   0.419
62578W        W34304  27.336  39.106  12.050
62579W        W34305  18.764  41.506  13.548
62580W        W34306  14.560  40.576   4.647
62581W        W34307   2.359   9.232   0.219
62582W        W34308  14.181  38.310   3.340
62583W        W34309  33.887  30.872   0.804
62584W        W34310  32.901  22.210   4.663
62585W        W34311  25.091  39.535   3.646
62586W        W34312  11.084  18.542   4.455
62587W        W34313  30.942  12.381   0.375
62588W        W34314  30.586  37.614   1.414
62589W        W34315  15.188  43.892  11.654
62590W        W34316   9.660   6.127   4.860
62591W        W34317  27.655   3.827   1.144
62592W        W34318  19.556  37.836   3.559
62593W        W34319  44.749  22.348  11.938
62594W        W34320  34.540  26.397  12.433
62595W        W34321   9.049  17.138  12.376
62596W        W34322  20.001   1.506   0.288
62597W        W34323   5.792  26.544   1.704
62598W        W34324  22.041  33.502   0.871
62599W        W34325   6.367   3.896   9.816
62600W        W34326   2.668  30.388   4.057
62601W        W34327  40.273  36.221  13.364
62602W        W34328  32.858  24.745   2.275
62603W        W34329  29.209  12.374   0.522
62604W        W34330  43.873  29.145   3.180
62605W        W34331  42.315  43.132   0.647
62606W        W34332  17.071  26.554   2.206
62607W        W34333  44.572  10.120   0.855
62608W        W34334  42.327  38.028   3.306
62609W        W34335  12.231   7.578   5.017
62610W        W34336  43.926  33.884  13.400
62611W        W34337   5.367   0.800   0.827
62612W        W34338  21.263  34.562  13.310
62613W        W34339  31.443  40.537  12.055
62614W        W34340  28.914  12.648  12.046
62615W        W34341  33.403  14.202   0.980
62616W        W34342  26.176  39.084   0.366
62617W        W34343  42.849   0.922   0.659
62618W        W34344  36.806   8.284  14.957
62619W        W34345  30.025  15.932   2.679
62620W        W34346  25.208  40.765   0.947
62621W        W34347  44.947   6.533   2.894
62622W        W34348  27.918   5.171   3.762
62623W        W34349  12.650  30.700  11.516
62624W        W34350  37.844  19.195  12.456
62625W        W34351   9.181  18.466  12.542
62626W        W34352  14.027  27.442   2.704
62627W        W34353  14.396  21.761   2.648
62628W        W34354  26.957   4.832  14.489
62629W        W34355  22.806   6.225  13.854
62630W        W34356  24.659  11.661   3.356
62631W        W34357   1.764  31.482  11.896
62632W        W34358   2.263  15.791  13.806
62633W        W34359  18.364   7.646  12.183
62634W        W34360   1.664  20.572   3.679
62635W        W34361   4.176  32.373   2.226
62636W        W34362  35.529   5.041  14.075
62637W        W34363   6.944   7.736  14.543
62638W        W34364   9.748  43.280   3.148
62639W        W34365  20.985  40.658  11.990
62640W        W34366   0.523  30.082   4.168
62641W        W34367  29.695  32.552   1.875
62642W        W34368   0.299  13.705   1.209
62643W        W34369  36.677   1.277   0.481
62644W        W34370  23.433  42.798  10.680
62645W        W34371  30.586  40.274   0.644
62646W        W34372   2.400  20.242  12.069
62647W        W34373   4.759   3.245   0.231
62648W        W34374  34.934  21.474  11.181
62649W        W34375  18.094  32.472  14.288
62650W        W34376  25.694   0.161   2.376
62651W        W34377   3.354  10.432   4.489
62652W        W34378  36.770   2.334   4.111
62653W        W34379   6.263   7.567  11.032
62654W        W34380  16.709   6.324   3.184
62655W        W34381  14.392  39.018  11.956
62656W        W34382  40.895  29.202   4.348
62657W        W34383  25.503  41.247   0.022
62658W        W34384  12.804   6.286   3.179
62659W        W34385  25.157  30.338   1.471
62660W        W34386  30.730  34.486   1.506
62661W        W34387  31.807  14.907   3.764
62662W        W34388   6.727  14.161   3.685
62663W        W34389  35.032  10.737   4.577
62664W        W34390  31.760  19.048  11.503
62665W        W34391   2.404  23.466  14.933
62666W        W34392  44.646  16.248  12.287
62667W        W34393  16.032  36.526  10.969
62668W        W34394  10.195  26.383   0.405
62669W        W34395  35.260  35.548   0.311
62670W        W34396  38.288   5.363  13.085
62671W        W34397  42.299  29.888   2.392
62672W        W34398  11.372  32.587   4.438
62673W        W34399  23.516  11.119  10.450
62674W        W34400   1.327  22.614   0.378
62675W        W34401  14.086  32.832  13.916
62676W        W34402  29.220  37.897   4.147
62677W        W34403  21.181  15.338   2.245
62678W        W34404  19.110  25.714   4.318
62679W        W34405  17.767  27.461   0.048
62680W        W34406  13.555  20.457   0.526
62681W        W34407   6.458  35.961  12.950
62682W        W34408  38.917  30.689   4.860
62683W        W34409  19.317  32.952  11.219
62684W        W34410   3.158  20.638  13.066
62685W        W34411  18.930   9.760  12.002
62686W        W34412  18.333  33.961   4.753
62687W        W34413  16.205  16.212  11.587
62688W        W34414   0.575  30.460  11.629
62689W        W34415  41.336  31.482  14.488
62690W        W34416   4.763   5.634   0.449
62691W        W34417   0.634  37.029  11.070
62692W        W34418  42.435  41.968  14.360
62693W        W34419  23.884  31.498   2.303
62694W        W34420  13.779  41.342  12.885
62695W        W34421  22.837  38.015  13.981
62696W        W34422  19.694  43.790   2.063
62697W        W34423  22.128  26.482   3.312
62698W        W34424  24.053  28.995  14.777
62699W        W34425  11.177  32.456  13.494
62700W        W34426  18.679  35.726  13.048
62701W        W34427  29.993  32.951  12.496
62702W        W34428  28.118  11.615  14.932
62703W        W34429  35.838  26.140  12.278
62704W        W34430  38.712   9.767  12.929
62705W        W34431  13.574   9.396  11.884
62706W        W34432   5.125  28.461   1.698
62707W        W34433  33.124  25.524   0.986
62708W        W34434  40.323  41.449   4.128
62709W        W34435  32.538  40.837   2.402
62710W        W34436   1.545   0.656  12.975
62711W        W34437  17.038   3.353   3.552
62712W        W34438  41.286  28.837   0.746
62713W        W34439   0.364  18.750  11.668
62714W        W34440  43.777  20.369  14.481
62715W        W34441  32.652  37.003   1.917
62716W        W34442  21.068  28.008   3.128
62717W        W34443  31.370  42.917   4.623
62718W        W34444  23.916  21.720   3.820
62719W        W34445   1.507  41.066  14.065
62720W        W34446  28.324  12.599  11.176
62721W        W34447  12.798  16.325  11.533
62722W        W34448  28.414  34.438  13.941
62723W        W34449  12.881  28.553  13.507
62724W        W34450  17.552  20.009  12.811
62725W        W34451  21.425  30.197  12.902
62726W        W34452  21.190  34.709   2.255
62727W        W34453   1.688  37.810   3.351
62728W        W34454  21.140  33.418   5.175
62729W        W34455  32.875  35.832  14.531
62730W        W34456   7.883  20.021  12.493
62731W        W34457   5.640   3.671   0.722
62732W        W34458  25.715  18.559  14.946
62733W        W34459   8.339  16.137   0.403
62734W        W34460   5.774   6.720   2.706
62735W        W34461  21.694   3.015  12.300
62736W        W34462  31.329  38.965  11.195
62737W        W34463  18.548  32.163   5.228
62738W        W34464  10.786  39.396   3.893
62739W        W34465   5.233  42.405   1.681
62740W        W34466  11.803  29.011   0.890
62741W        W34467  43.483  33.406  12.868
62742W        W34468   1.470  17.615   3.358
62743W        W34469  16.520  39.264   1.715
62744W        W34470  35.989   8.331  13.439
62745W        W34471  10.393  39.539  12.142
62746W        W34472  11.401  38.547   2.340
62747W        W34473   4.172  10.471   2.917
62748W        W34474  16.670  39.424  12.475
62749W        W34475  13.342  19.123   4.503
62750W        W34476   5.726  21.799   0.081
62751W        W34477  29.178  38.987  14.390
62752W        W34478  22.462  40.509   3.383
62753W        W34479  25.651   2.045  11.202
62754W        W34480  15.044  25.378  14.251
62755W        W34481   4.789  18.472   2.930
62756W        W34482  15.165  29.489  11.138
62757W        W34483  33.062  43.709  10.190
62758W        W34484  28.677   1.441  11.513
62759W        W34485  41.518  25.074  11.408
62760W        W34486  25.975  28.532  11.972
62761W        W34487  38.285   4.809  10.827
62762W        W34488  11.574  16.886   3.795
62763W        W34489   1.325  22.464  12.496
62764W        W34490  40.508  28.510  14.869
62765W        W34491  29.464   1.516  14.706
62766W        W34492  40.843  35.133  13.992
62767W        W34493   2.750  29.483  10.757
62768W        W34494  18.817  28.837   3.587
62769W        W34495  33.539  31.622  14.398
62770W        W34496  11.647  18.649   1.817
62771W        W34497   8.217   2.361   3.230
62772W        W34498  19.310  21.972   0.187
62773W        W34499  32.420   2.348  13.962
62774W        W34500  11.345  27.983   2.124
62775W        W34501  31.370  24.562   2.155
62776W        W34502  17.749   1.047  13.067
62777W        W34503  17.075  43.513   3.298
62778W        W34504   2.400  16.900  10.420
62779W        W34505   8.833  21.231  11.069
62780W        W34506   3.235  28.211   3.668
62781W        W34507  37.424  20.797   2.676
62782W        W34508  38.052  29.508   2.341
62783W        W34509  34.984  37.647   3.949
62784W        W34510   9.169  34.394  12.364
62785W        W34511  36.229   3.392   4.143
62786W        W34512   4.352  36.150  11.437
62787W        W34513  37.885  37.881   3.084
62788W        W34514  12.808  44.471   4.344
62789W        W34515  11.345  38.466  11.095
62790W        W34516   2.866  19.079  13.943
62791W        W34517   6.521  22.151  11.655
62792W        W34518  21.255  32.230   4.949
62793W        W34519   7.257  29.802   0.363
62794W        W34520  22.874   3.287  13.946
62795W        W34521  11.126  34.304   4.498
62796W        W34522   6.856  28.975   0.313
62797W        W34523  19.842   3.971  14.455
62798W        W34524  31.945  38.430   2.905
62799W        W34525  22.443  14.005   3.399
62800W        W34526  36.559   9.578  11.177
62801W        W34527  27.305  38.711   4.074
62802W        W34528  16.123   3.378   3.208
62803W        W34529  27.137  32.466  14.435
62804W        W34530  14.654  13.344  14.737
62805W        W34531  37.786   9.849   3.292
62806W        W34532  30.418  30.706  11.074
62807W        W34533  15.764  21.060  12.627
62808W        W34534   5.648   1.562  13.504
62809W        W34535  19.718   7.231   0.332
62810W        W34536  36.888   3.608   4.843
62811W        W34537   5.699  11.517  10.644
62812W        W34538  22.775  22.659  12.938
62813W        W34539  11.608  31.139   1.234
62814W        W34540  27.456  27.560   2.921
62815W        W34541  36.041  14.650   3.240
62816W        W34542  29.490  20.868  11.170
62817W        W34543  16.219  43.168   0.954
62818W        W34544   1.668  16.839  12.448
62819W        W34545  29.088  11.320   2.254
62820W        W34546  19.339   5.205  11.590
62821W        W34547  38.768   9.403   3.728
62822W        W34548  39.964  10.914   0.156
62823W        W34549   0.824   8.334   4.128
62824W        W34550   3.337  29.036   4.253
62825W        W34551  39.634  15.054   1.878
62826W        W34552  37.819  42.962  14.857
62827W        W34553   0.452   5.665  14.782
62828W        W34554  33.452  25.080  13.140
62829W        W34555   8.240  18.161  14.339
62830W        W34556  28.661   7.798   0.449
62831W        W34557   0.014  24.460   1.268
62832W        W34558  30.529  22.991  13.492
62833W        W34559  26.788  34.392   2.281
62834W        W34560  40.542   1.685   5.152
62835W        W34561   3.100  17.546   2.752
62836W        W34562  34.032  23.074   4.379
62837W        W34563  31.656  41.126   0.818
62838W        W34564  33.402  29.659   1.383
62839W        W34565  16.793   4.749   1.051
62840W        W34566   6.245  11.756   4.374
62841W        W34567   9.803   9.304   0.173
62842W        W34568  20.502  15.347   4.253
62843W        W34569  30.265  17.123  13.987
62844W        W34570  10.326   0.272   0.822
62845W        W34571   7.349  13.648  10.464
62846W        W34572  21.221  20.295   2.269
62847W        W34573  43.198   2.971   0.686
62848W        W34574  15.329   3.246  11.546
62849W        W34575  25.523   7.017   3.725
62850W        W34576  35.011   4.797  10.319
62851W        W34577  30.156  40.456   4.296
62852W        W34578  29.587  13.563   3.654
62853W        W34579  32.364  44.376  11.474
62854W        W34580  19.797  13.679   1.264
62855W        W34581   8.588  30.958  12.936
62856W        W34582   0.980  41.823  11.077
62857W        W34583   1.295  14.099  10.639
62858W        W34584  21.542  14.040  14.247
62859W        W34585  28.894  24.617   3.844
62860W        W34586  24.029  27.101  10.315
62861W        W34587  22.000  15.551   4.212
62862W        W34588  24.332   2.047   4.417
62863W        W34589  43.309  26.539   1.694
62864W        W34590  32.538  12.648  13.778
62865W        W34591  28.936  29.865  14.543
62866W        W34592  25.088   6.197   1.718
62867W        W34593  42.962  21.117   0.904
62868W        W34594  21.949  34.015   0.944
62869W        W34595   8.628  43.525  10.740
62870W        W34596   0.288  30.441   2.909
62871W        W34597  18.339  19.012  14.369
62872W        W34598   2.975  34.119   3.616
62873W        W34599  36.116   8.028   4.145
62874W        W34600  26.249  36.330  12.616
62875W        W34601  31.882   1.011   3.243
62876W        W34602  38.850  44.420   2.677
62877W        W34603  25.623   4.811  10.213
62878W        W34604   5.481  38.732   1.638
62879W        W34605  34.867   0.956  13.910
62880W        W34606   0.569  10.768  11.997
62881W        W34607   9.768  23.242   2.110
62882W        W34608  36.640  36.376  11.456
62883W        W34609   7.929   8.402  14.941
62884W        W34610   0.173  33.463  11.133
62885W        W34611  15.515   8.455   2.829
62886W        W34612  10.891  23.471   0.972
62887W        W34613  37.541  11.562   0.403
62888W        W34614  14.772  37.039   1.854
62889W        W34615   2.144  25.086   0.475
62890W        W34616  33.984  22.424  10.665
62891W        W34617   1.320  35.381  12.839
62892W        W34618  23.510  36.894  11.097
62893W        W34619  19.641  39.549  12.219
62894W        W34620   6.639  29.077   2.297
62895W        W34621  41.899   5.981   0.263
62896W        W34622  12.960  34.702   1.766
62897W        W34623  41.779   6.295   2.435
62898W        W34624   4.844   3.228  12.476
62899W        W34625   8.169  11.697   3.084
62900W        W34626  27.427  22.466  14.825
62901W        W34627   8.755  21.139  12.428
62902W        W34628   0.607  33.129  12.023
62903W        W34629  32.266  31.201   1.632
62904W        W34630  18.689   0.789   2.204
62905W        W34631   9.935  33.743   1.742
62906W        W34632   1.670  29.641  12.900
62907W        W34633  19.253   7.667   2.447
62908W        W34634  25.089  10.975   1.817
62909W        W34635  26.502  19.011  13.041
62910W        W34636   9.612  29.937  13.599
62911W        W34637  27.106  11.550   0.899
62912W        W34638   2.763  28.475   4.346
62913W        W34639  43.468  28.505   1.216
62914W        W34640  23.861  33.665  11.677
62915W        W34641  15.335  25.119  14.786
62916W        W34642  19.139  41.977  12.372
62917W        W34643  30.618   4.871  13.085
62918W        W34644  10.861  13.349   2.613
62919W        W34645  33.179  21.321   1.344
62920W        W34646  38.776  11.865  14.866
62921W        W34647  35.906  33.199   4.454
62922W        W34648  22.673  38.116   0.020
62923W        W34649   5.875  22.650  12.055
62924W        W34650  14.309  23.629  11.066
62925W        W34651  23.953  29.917   0.761
62926W        W34652  28.028  25.548  11.900
62927W        W34653   2.181  40.549   1.457
62928W        W34654  35.836  28.370  14.805
62929W        W34655  41.439   0.473   3.639
62930W        W34656  42.235  12.167  13.859
62931W        W34657   3.400  14.092  13.023
62932W        W34658  30.924   4.634   0.756
62933W        W34659   1.717  40.916  13.628
62934W        W34660   2.743  25.204  14.015
62935W        W34661  32.967  34.905  13.582
62936W        W34662  32.839   7.590  13.373
62937W        W34663  32.943   2.278  13.939
62938W        W34664  29.992  23.949  12.935
62939W        W34665   1.374  44.140  11.606
62940W        W34666   3.365  21.366   0.019
62941W        W34667  17.629  29.917   4.917
62942W        W34668  31.072  24.254   0.828
62943W        W34669  30.996  29.869   4.103
62944W        W34670  15.261   7.921   3.345
62945W        W34671   4.221  29.575   3.868
62946W        W34672  29.663  26.896   1.800
62947W        W34673  11.210   7.145   1.934
62948W        W34674  16.038  22.828   3.706
62949W        W34675  38.504  36.356  10.511
62950W        W34676  30.686   6.849   1.296
62951W        W34677  12.053   6.641   3.297
62952W        W34678  34.416  37.128  13.439
62953W        W34679   1.870  12.143   4.250
62954W        W34680  22.742   9.298  14.293
62955W        W34681   1.204  11.656  11.690
62956W        W34682  43.355  20.950  13.077
62957W        W34683  20.226  43.494   4.201
62958W        W34684  30.900  28.320  11.491
62959W        W34685  12.830  31.839  10.713
62960W        W34686  15.575  33.154  14.965
62961W        W34687   5.838  25.210   1.688
62962W        W34688   0.159   2.961   2.348
62963W        W34689  28.936  30.154   2.320
62964W        W34690  13.672  31.448   0.693
62965W        W34691  38.931  10.162   0.300
62966W        W34692  11.720  14.326   2.921
62967W        W34693   7.152   9.773   2.456
62968W        W34694  39.534   1.286  13.809
62969W        W34695  24.977  27.008  12.517
62970W        W34696  32.848   5.859   0.627
62971W        W34697  36.417  33.582   0.250
62972W        W34698  28.460  28.123   4.149
62973W        W34699  41.075   8.261   0.084
62974W        W34700  39.970  44.733   0.495
62975W        W34701  10.173  39.586  14.963
62976W        W34702  24.999   9.552  13.657
62977W        W34703  34.876   8.864  10.605
62978W        W34704   1.031  43.761  11.578
62979W        W34705  13.334  39.255   0.314
62980W        W34706  35.761  29.115  14.549
62981W        W34707  24.059   1.457   1.044
62982W        W34708  25.504  20.593  14.422
62983W        W34709  13.216  14.766  10.532
62984W        W34710  38.929   1.767   3.617
62985W        W34711   3.626  10.302   3.812
62986W        W34712  26.958  31.247  11.007
62987W        W34713  10.859  16.559  13.836
62988W        W34714  34.313   3.823  13.479
62989W        W34715  26.924  44.609  11.340
62990W        W34716  16.329  27.686  12.319
62991W        W34717  39.449  30.029   4.954
62992W        W34718   1.507   9.927   2.335
62993W        W34719   6.142  15.797   0.809
62994W        W34720  44.421  40.276   5.068
62995W        W34721  24.957  30.372  11.231
62996W        W34722  37.573  33.976   4.587
62997W        W34723  17.660  18.795   2.929
62998W        W34724  30.777   2.750   3.076
62999W        W34725  31.551  24.685   4.038
63000W        W34726   8.824   0.239   2.184
63001W        W34727  37.472  41.226  10.590
63002W        W34728  42.319  38.334   4.713
63003W        W34729   7.256  20.635  11.524
63004W        W34730   0.280  15.375   2.741
63005W        W34731  38.543  12.348  13.952
63006W        W34732  41.504  33.877   3.744
63007W        W34733  28.470  13.839   4.279
63008W        W34734  31.950  40.983   4.521
63009W        W34735  17.197  15.586  10.517
63010W        W34736  20.174  44.513   4.102
63011W        W34737  19.195   8.132  14.329
63012W        W34738  22.584  10.799   0.690
63013W        W34739  44.226  42.716  10.418
63014W        W34740  29.847  37.702  12.565
63015W        W34741  27.471   9.825  10.916
63016W        W34742  30.162   8.316  14.867
63017W        W34743  32.456  14.858  12.922
63018W        W34744  19.067  10.775  13.766
63019W        W34745  30.349   0.053  11.883
63020W        W34746  14.077  42.858  13.959
63021W        W34747  22.635  25.141  10.402
63022W        W34748  31.702  35.856   1.834
63023W        W34749  14.676   4.403   2.811
63024W        W34750  22.708   5.314  10.717
63025W        W34751   9.184  21.251   0.811
63026W        W34752  28.149   8.741   5.319
63027W        W34753  17.032  20.511  12.034
63028W        W34754  28.637  24.421  12.546
63029W        W34755  29.613  20.698  12.949
63030W        W34756  20.986  28.950  10.102
63031W        W34757  31.053  17.296   4.092
63032W        W34758   3.248  32.321  11.592
63033W        W34759  18.513  42.866   2.717
63034W        W34760   6.405  30.218   3.362
63035W        W34761  22.153  12.350   0.126
63036W        W34762  23.752   6.781  12.855
63037W        W34763  11.190  38.788  11.477
63038W        W34764   1.455   8.968  14.287
63039W        W34765  11.636  20.791  14.473
63040W        W34766   8.683  36.345   4.626
63041W        W34767  15.554  19.803  10.207
63042W        W34768  12.006   6.637   9.973
63043W        W34769  32.120  40.955   9.846
63044W        W34770  23.089  24.500  10.943
63045W        W34771   7.874  25.610   3.172
63046W        W34772  14.288   6.304  14.968
63047W        W34773  21.791   6.918   0.793
63048W        W34774  16.612   7.107  12.867
63049W        W34775  12.768   7.496   0.408
63050W        W34776   2.371  14.399  13.840
63051W        W34777  39.896  25.205  12.836
63052W        W34778  32.097  13.259   0.289
63053W        W34779  13.804  31.927   1.475
63054W        W34780  32.846  21.659  13.003
63055W        W34781  35.268  29.744  11.273
63056W        W34782  22.460  21.200  11.980
63057W        W34783  19.789  41.284  13.581
63058W        W34784  29.044   3.432   4.073
63059W        W34785  11.133  20.614  12.953
63060W        W34786  44.302  10.303   3.197
63061W        W34787  30.020  20.233   4.674
63062W        W34788  35.641  31.360   0.924
63063W        W34789  28.399  31.835  14.879
63064W        W34790  34.023  44.252  11.434
63065W        W34791   3.557  21.289   0.505
63066W        W34792  10.838  36.914  13.370
63067W        W34793   3.980  30.151  11.978
63068W        W34794   9.375  33.746  10.262
63069W        W34795  31.456  29.014  11.159
63070W        W34796  36.576   4.364   2.554
63071W        W34797  16.240  24.117  11.669
63072W        W34798  34.328  22.982   0.263
63073W        W34799  10.363  34.506   1.265
63074W        W34800  17.964  24.949   3.708
63075W        W34801  12.355  34.899   1.940
63076W        W34802   3.758  15.760  12.953
63077W        W34803  17.395  38.265   5.045
63078W        W34804  16.196  23.018  10.784
63079W        W34805  36.875  33.968   3.466
63080W        W34806   3.356   1.417   0.336
63081W        W34807  16.612   8.170  12.466
63082W        W34808  38.735   7.071  14.454
63083W        W34809  25.799  16.609  11.922
63084W        W34810  12.544  42.715  12.231
63085W        W34811  37.852  20.016  11.561
63086W        W34812  34.554  39.781  10.738
63087W        W34813   9.652  25.852  10.616
63088W        W34814   7.117   6.813   0.951
63089W        W34815   3.323  28.598  13.265
63090W        W34816  43.924  31.106  11.451
63091W        W34817  35.066  42.254  13.371
63092W        W34818  28.477  41.078   3.305
63093W        W34819  16.095  42.506  13.990
63094W        W34820   1.941  39.979  13.502
63095W        W34821  24.133  42.652   4.088
63096W        W34822  43.951  10.649   1.816
63097W        W34823   8.276  37.694  12.509
63098W        W34824  42.740  11.142   4.729
63099W        W34825   4.608  11.273   3.251
63100W        W34826  19.044   9.893   1.286
63101W        W34827  43.367  36.981   1.404
63102W        W34828   1.819  41.816   0.276
63103W        W34829  40.732  28.910  11.227
63104W        W34830  21.659   5.005  10.589
63105W        W34831   3.333  43.758   2.778
63106W        W34832  42.006   0.435   2.833
63107W        W34833  33.990  19.867   4.067
63108W        W34834  41.513   6.490   2.845
63109W        W34835  10.816   2.506   1.691
63110W        W34836  20.215  41.760   0.303
63111W        W34837   0.930  33.555   1.428
63112W        W34838  29.184   5.724   0.774
63113W        W34839  41.463   5.327  11.381
63114W        W34840  35.014  42.948   2.272
63115W        W34841  40.628  20.694  12.005
63116W        W34842  10.736  12.264  11.374
63117W        W34843   9.811  31.091  11.655
63118W        W34844  20.016  29.029  11.892
63119W        W34845  17.639   5.005   3.730
63120W        W34846  38.768  37.042   2.803
63121W        W34847   6.593  38.182  13.887
63122W        W34848  38.551  10.804   2.648
63123W        W34849  20.302  13.727  11.220
63124W        W34850  10.150  42.119   0.272
63125W        W34851   5.696  28.171  11.092
63126W        W34852  13.459  29.601  14.589
63127W        W34853  26.087   5.044  14.467
63128W        W34854  13.518   7.442   2.311
63129W        W34855  40.810   6.141  12.177
63130W        W34856  18.262  18.597   3.608
63131W        W34857  17.127  15.741   1.204
63132W        W34858   8.279  19.308   4.530
63133W        W34859  30.747  21.256  14.861
63134W        W34860  32.715  39.941   3.706
63135W        W34861  32.312   3.427  12.101
63136W        W34862  10.873  40.511  13.759
63137W        W34863  29.417  18.667   0.752
63138W        W34864  29.540  14.781   2.335
63139W        W34865  14.865  20.619   3.915
63140W        W34866  40.404  24.042   1.345
63141W        W34867  35.403  18.276   1.470
63142W        W34868  17.089  28.555   3.819
63143W        W34869  44.511  11.229   1.395
63144W        W34870   6.020  13.282   2.352
63145W        W34871  17.827  12.789  14.000
63146W        W34872  41.931   5.817  12.940
63147W        W34873  14.092   2.006  14.903
63148W        W34874  36.092  35.990   3.705
63149W        W34875  25.152  20.330   2.391
63150W        W34876   9.858  34.554  14.135
63151W        W34877  29.493  30.947  13.897
63152W        W34878  29.576  30.674  12.514
63153W        W34879  28.703  41.304  10.986
63154W        W34880   4.910  16.348   0.348
63155W        W34881  30.238  40.964   0.902
63156W        W34882   2.223   2.469  13.325
63157W        W34883   0.013  20.570  13.588
63158W        W34884  42.571  37.134   3.457
63159W        W34885  14.089  24.517  13.076
63160W        W34886   6.415  33.175  14.465
63161W        W34887   0.219  12.109   0.472
63162W        W34888  40.509  30.981  13.381
63163W        W34889  21.187  27.199   1.018
63164W        W34890  36.954  23.064   1.294
63165W        W34891  25.548  18.730   2.262
63166W        W34892  37.250  35.854  11.150
63167W        W34893  24.992  22.068   1.301
63168W        W34894   6.710  13.583   0.293
63169W        W34895   2.999  24.544   1.476
63170W        W34896  34.104  13.992   4.130
63171W        W34897  11.801  30.362   1.162
63172W        W34898  28.988  37.298  11.301
63173W        W34899  24.061  26.105   4.251
63174W        W34900  44.792  24.464  13.354
63175W        W34901   2.534  27.872   2.844
63176W        W34902  27.484   9.830  10.411
63177W        W34903  24.659  12.663   5.090
63178W        W34904   8.253   1.436  11.159
63179W        W34905  30.267   8.378   2.352
63180W        W34906  29.062   2.418  10.579
63181W        W34907   9.172  35.493  13.342
63182W        W34908   2.809  14.744   0.874
63183W        W34909  13.087   4.874  14.162
63184W        W34910  44.782  30.195  10.643
63185W        W34911  20.605  21.110   4.579
63186W        W34912  32.731  41.753   3.649
63187W        W34913  14.627  42.273   4.189
63188W        W34914  37.033  11.357  13.357
63189W        W34915   5.750   0.870   2.723
63190W        W34916   1.953  13.686  14.311
63191W        W34917  40.546  24.596   4.810
63192W        W34918  22.049  11.212  14.130
63193W        W34919   0.998  17.225   0.300
63194W        W34920  26.676  36.522  13.917
63195W        W34921   1.673  14.699   2.291
63196W        W34922  44.978  10.980   3.323
63197W        W34923  19.815  30.366   4.743
63198W        W34924   3.911  30.134   1.636
63199W        W34925  34.663  29.938   1.821
63200W        W34926  21.844  25.462  13.628
63201W        W34927   2.919  16.734   4.524
63202W        W34928  26.584  20.561   0.519
63203W        W34929  41.419  21.639  14.516
63204W        W34930  39.686  36.626  11.477
63205W        W34931  44.642  37.055  11.133
63206W        W34932   1.486  36.327  14.795
63207W        W34933  40.963   2.684  14.315
63208W        W34934  29.330   2.987   2.623
63209W        W34935  24.434  31.487   2.256
63210W        W34936   2.609  36.404   0.884
63211W        W34937  35.065   0.719   1.651
63212W        W34938   6.240  30.799  12.571
63213W        W34939  17.460  26.461   5.094
63214W        W34940  25.696  31.405  13.683
63215W        W34941  27.178  10.848   4.139
63216W        W34942   0.412   4.655  13.801
63217W        W34943  42.312  19.182   4.814
63218W        W34944  38.372  21.650   1.278
63219W        W34945  13.243  18.746   3.712
63220W        W34946  44.727   5.874   1.509
63221W        W34947   6.603  11.988   0.976
63222W        W34948  31.385   0.776   0.764
63223W        W34949  23.525  36.587   4.290
63224W        W34950   5.155  14.577  14.923
63225W        W34951  23.679  24.042  13.804
63226W        W34952  43.986  29.565  12.055
63227W        W34953  37.402   0.695   0.772
63228W        W34954  29.536  23.016  13.605
63229W        W34955  30.589  37.007   2.292
63230W        W34956  10.254  28.654   3.814
63231W        W34957  41.894  40.562  13.755
63232W        W34958  14.721  22.527   2.232
63233W        W34959  12.128  24.281   1.249
63234W        W34960  12.649  15.124   3.203
63235W        W34961  28.840  27.500  12.025
63236W        W34962  35.959  17.078  13.249
63237W        W34963  29.032  31.935   3.799
63238W        W34964  39.034  27.718  11.544
63239W        W34965  31.119   1.310  12.820
63240W        W34966  19.987  43.344   2.168
63241W        W34967   7.186  33.512   2.930
63242W        W34968  17.671  32.908  13.890
63243W        W34969  29.103   3.813  14.258
63244W        W34970  19.551  33.450  11.696
63245W        W34971  23.081  10.888   0.079
63246W        W34972  33.162   7.888   4.743
63247W        W34973  27.143  43.356   4.964
63248W        W34974   7.193  29.933  11.073
63249W        W34975   4.593  24.422   4.177
63250W        W34976  15.140  26.870  13.177
63251W        W34977  33.115  19.587  14.598
63252W        W34978  32.666  41.167  13.050
63253W        W34979  10.933   9.279   3.130
63254W        W34980  34.856  40.335   1.185
63255W        W34981   8.449  15.228  13.240
63256W        W34982  10.343   9.607   1.803
63257W        W34983  13.407   9.918  13.437
63258W        W34984   1.173   6.687   1.056
63259W        W34985   7.319  43.820  11.145
63260W        W34986  40.920   8.627   3.080
63261W        W34987  30.653  40.619   2.099
63262W        W34988   9.481  31.055   4.035
63263W        W34989  12.538   8.788   4.356
63264W        W34990   2.833   5.971   4.588
63265W        W34991  12.305  23.209   4.621
63266W        W34992  24.987  29.937  13.076
63267W        W34993  24.652   4.980  10.318
63268W        W34994   3.891  18.848   4.346
63269W        W34995   7.303  13.667   2.871
63270W        W34996   4.663  31.431  11.140
63271W        W34997  30.937  18.162   4.652
63272W        W34998  21.453  11.480   0.177
63273W        W34999  44.313  25.050   3.661
63274W        W35000  28.600   2.699   3.743
63275W        W35001   0.389   2.924   0.077
63276W        W35002  21.478  20.088   1.367
63277W        W35003  12.921   6.820  12.701
63278W        W35004  26.449  11.048   1.926
63279W        W35005  38.336  10.244  14.534
63280W        W35006   9.871  44.374  10.710
63281W        W35007  24.064   0.242   2.812
63282W        W35008   6.769  19.876   1.793
63283W        W35009   7.330  30.046   3.263
63284W        W35010  37.831   9.933   0.401
63285W        W35011  35.492   8.761   4.225
63286W        W35012  33.804  17.030  12.827
63287W        W35013   4.067  19.675  13.006
63288W        W35014  10.677  21.644   3.251
63289W        W35015   6.455   8.514  14.712
63290W        W35016  20.909  23.725   2.592
63291W        W35017   0.869  14.889  14.970
63292W        W35018  21.912  23.552  12.107
63293W        W35019  27.238  43.470   9.876
63294W        W35020  22.791  22.815   2.814
63295W        W35021  12.378  39.835   0.450
63296W        W35022   9.581   1.098  11.085
63297W        W35023  32.381  25.775   4.953
63298W        W35024  30.928  13.707  14.046
63299W        W35025  16.854  38.988   2.546
63300W        W35026   9.084   3.249   2.743
63301W        W35027  39.421  30.636   3.064
63302W        W35028   3.384  40.439   3.388
63303W        W35029  29.692  10.777   4.904
63304W        W35030  23.015  15.974  12.006
63305W        W35031  15.528  38.160   4.640
63306W        W35032   9.271  28.255   1.929
63307W        W35033   7.433  16.074  13.054
63308W        W35034  16.805  15.309  13.881
63309W        W35035  12.189  32.473  11.505
63310W        W35036  28.142   4.763   3.325
63311W        W35037  36.314  30.945   3.437
63312W        W35038  23.452  27.532  13.432
63313W        W35039  28.637  41.903  12.124
63314W        W35040  44.189   9.148   1.841
63315W        W35041  41.092  37.478  12.104
63316W        W35042   6.370  44.128  10.685
63317W        W35043  11.723  38.037  10.955
63318W        W35044  41.263   9.786  11.481
63319W        W35045  14.664  11.677  11.003
63320W        W35046  28.696  26.071  11.927
63321W        W35047  12.804  15.667  14.822
63322W        W35048   4.372  12.289   1.779
63323W        W35049  18.355  14.523   4.205
63324W        W35050  25.143   1.967   4.364
63325W        W35051   8.083   0.168   3.271
63326W        W35052  35.560  41.919   0.290
63327W        W35053  18.721  42.096   1.505
63328W        W35054  29.643   7.407  11.631
63329W        W35055  22.606  15.728   3.112
63330W        W35056   8.755  37.719   3.351
63331W        W35057  20.585  24.651   2.791
63332W        W35058  23.260  36.301   3.137
63333W        W35059   6.305  29.499  11.924
63334W        W35060  40.113   0.380  12.642
63335W        W35061   7.256  37.885   2.351
63336W        W35062  12.261  43.052   4.273
63337W        W35063  12.721  35.443  12.019
63338W        W35064  43.024   3.583  14.963
63339W        W35065  42.860  39.678   4.249
63340W        W35066  36.463  21.202  14.991
63341W        W35067   9.351   7.018   1.013
63342W        W35068  43.343   1.470   0.415
63343W        W35069  25.322  18.917  14.972
63344W        W35070   1.844  25.133   4.011
63345W        W35071  29.437   5.719  10.948
63346W        W35072  14.252  23.635   2.413
63347W        W35073  27.024   5.428  11.159
63348W        W35074  24.081  20.729  12.487
63349W        W35075  14.043   2.909   0.383
63350W        W35076   5.249  27.164   2.647
63351W        W35077  40.105  39.304   2.672
63352W        W35078  31.545  10.312  14.956
63353W        W35079  12.732   1.596  11.114
63354W        W35080   0.053   7.322  12.376
63355W        W35081  33.376   2.008   3.168
63356W        W35082  14.742   9.769  10.721
63357W        W35083  19.203  22.438   2.920
63358W        W35084  36.475  12.374   0.646
63359W        W35085  38.840  13.742   2.197
63360W        W35086   0.204  22.807   2.864
63361W        W35087  11.774  37.408  10.207
63362W        W35088  32.941  24.989  13.273
63363W        W35089  18.622  43.228  14.558
63364W        W35090  44.083   0.752  14.595
63365W        W35091  37.437  39.753  11.466
63366W        W35092  29.706  25.161   9.657
63367W        W35093  21.148  34.268  10.273
63368W        W35094  18.145  11.765   2.450
63369W        W35095   9.865  43.414  14.841
63370W        W35096  26.057  18.138  14.915
63371W        W35097  23.574  12.176   0.460
63372W        W35098  33.652  16.624   4.459
63373W        W35099   4.203  41.401   3.349
63374W        W35100  15.115  42.981  12.858
63375W        W35101  41.480   8.886   1.682
63376W        W35102  35.643  27.132   2.322
63377W        W35103   0.947  24.540   3.607
63378W        W35104  36.292  12.694  12.027
63379W        W35105   3.656  44.011  12.848
63380W        W35106  39.794  28.151   4.033
63381W        W35107  10.373  18.081   2.184
63382W        W35108   1.541  37.711  12.936
63383W        W35109  20.185  43.387  11.427
63384W        W35110   4.711  13.243  11.274
63385W        W35111  34.126  21.147   0.373
63386W        W35112   9.356  31.367   3.172
63387W        W35113   1.327  29.005   4.417
63388W        W35114  34.979  39.376  14.834
63389W        W35115  36.445  21.121   4.923
63390W        W35116  35.497  10.875   0.688
63391W        W35117  33.301  29.297  11.655
63392W        W35118  24.441  43.951  10.173
63393W        W35119   6.999  27.071   4.972
63394W        W35120  21.783  20.883   4.218
63395W        W35121  39.840  22.698   3.207
63396W        W35122   8.466  38.939   0.780
63397W        W35123  42.463  33.399   0.824
63398W        W35124   9.617  31.856   3.164
63399W        W35125  20.110  20.904   4.635
63400W        W35126  26.037  21.498   3.738
63401W        W35127  38.439  28.855  12.385
63402W        W35128  42.650  36.403  13.991
63403W        W35129  25.975  22.335   3.158
63404W        W35130  42.385   6.199   0.446
63405W        W35131   6.998  16.258  13.976
63406W        W35132   7.951   6.368   3.894
63407W        W35133  23.815  13.836  12.394
63408W        W35134  25.611  15.446  13.472
63409W        W35135  15.187   4.558  12.352
63410W        W35136  37.225  18.635   5.071
63411W        W35137   7.860  40.915   1.856
63412W        W35138  22.105  19.930  13.495
63413W        W35139  16.349   4.468  12.091
63414W        W35140  41.442  17.099   4.794
63415W        W35141  27.710  29.651   4.745
63416W        W35142  16.584  31.615  11.990
63417W        W35143  13.617   1.435   3.477
63418W        W35144  27.248  38.283  13.141
63419W        W35145  44.405  25.268  11.196
63420W        W35146  42.278  29.679   3.614
63421W        W35147   8.943   5.336   2.881
63422W        W35148  12.258  20.111   1.940
63423W        W35149   8.200   2.936   2.781
63424W        W35150  26.890  21.499  14.289
63425W        W35151  11.133  12.380   1.714
63426W        W35152  21.223  28.535   1.030
63427W        W35153   4.295  15.607  10.079
63428W        W35154  16.985  14.858   2.292
63429W        W35155  31.041  16.085  10.919
63430W        W35156  38.339  19.422  12.012
63431W        W35157  17.089  26.433   0.751
63432W        W35158   9.684  33.542  12.054
63433W        W35159  29.559  44.595  14.064
63434W        W35160  25.901  20.416   1.140
63435W        W35161  40.562  17.014   2.413
63436W        W35162  22.447  27.050  11.173
63437W        W35163   9.340   6.452   3.648
63438W        W35164  41.859  27.625   4.232
63439W        W35165  17.574  15.401  12.510
63440W        W35166  18.007   3.149   3.846
63441W        W35167  15.123   5.729   0.719
63442W        W35168   9.425   4.158   0.421
63443W        W35169  27.656  19.561   3.865
63444W        W35170   3.489   5.430  14.992
63445W        W35171   1.175  41.404   4.035
63446W        W35172  43.637  18.842  12.626
63447W        W35173  37.783  26.593  12.997
63448W        W35174  22.729  44.412   4.658
63449W        W35175  17.978  17.298   1.891
63450W        W35176  27.039  38.826  10.998
63451W        W35177  22.584  29.525   4.564
63452W        W35178   4.471  18.656  13.689
63453W        W35179  37.971   7.882  11.303
63454W        W35180   2.872  21.247   4.184
63455W        W35181   0.562  14.557   1.848
63456W        W35182  12.722   0.360  13.208
63457W        W35183   7.101  16.822   2.718
63458W        W35184  32.900  26.726  13.869
63459W        W35185  33.405  19.818   3.758
63460W        W35186  31.870   4.696  12.540
63461W        W35187  39.010   6.872   0.324
63462W        W35188  34.485  25.055   3.471
63463W        W35189  12.792   7.020   2.019
63464W        W35190  14.569  16.532   1.515
63465W        W35191  24.130   8.484   1.497
63466W        W35192  11.766   1.185  14.797
63467W        W35193  33.913  19.041   2.267
63468W        W35194  11.488  21.208  11.968
63469W        W35195  37.369  30.894   3.224
63470W        W35196  23.152  21.254   3.172
63471W        W35197  16.069   8.214  11.671
63472W        W35198  14.764  20.581  12.029
63473W        W35199   4.451   0.402  14.766
63474W        W35200  13.155   0.407  14.293
63475W        W35201  43.493  34.446  10.550
63476W        W35202   2.127  21.941   3.685
63477W        W35203   8.198  36.618  13.683
63478W        W35204  17.136  38.559   3.279
63479W        W35205  31.507  22.176   4.634
63480W        W35206  12.741   7.352   1.278
63481W        W35207  39.118  24.964  12.844
63482W        W35208  29.920  43.924  12.517
63483W        W35209  31.975  34.521  11.741
63484W        W35210  39.113  27.891   3.401
63485W        W35211  34.433  22.529  13.837
63486W        W35212  37.708  25.954   4.981
63487W        W35213  38.981  26.524  13.942
63488W        W35214  11.557  25.634  10.683
63489W        W35215  44.041  37.128   0.336
63490W        W35216  12.387  40.205   0.864
63491W        W35217  28.211  43.785  12.924
63492W        W35218  36.472  31.185  12.889
63493W        W35219  17.495  31.942  14.230
63494W        W35220  25.661   5.874  14.467
63495W        W35221  27.169  15.180  12.534
63496W        W35222  32.535  16.489   0.836
63497W        W35223  29.701  27.735   2.303
63498W        W35224   6.905   2.701  14.343
63499W        W35225   8.799  37.405  14.451
63500W        W35226  28.953  21.504   1.336
63501W        W35227  23.834   2.540   2.918
63502W        W35228  16.642  24.146   3.734
63503W        W35229  17.174   4.009   0.781
63504W        W35230  44.163  35.260  11.362
63505W        W35231   5.509   0.151   1.639
63506W        W35232  10.557  21.106   5.163
63507W        W35233  17.334  38.935   1.640
63508W        W35234  42.570  17.676  14.364
63509W        W35235   2.727  26.802   1.340
63510W        W35236  18.231  23.192  11.396
63511W        W35237  11.927  26.386   3.686
63512W        W35238  28.924  18.827  11.886
63513W        W35239  19.730  28.590   3.635
63514W        W35240  42.515   0.843  11.195
63515W        W35241  24.856  38.398   1.169
63516W        W35242  37.426   9.016   0.355
63517W        W35243  39.990   7.956  10.625
63518W        W35244  36.313   2.684  11.576
63519W        W35245  37.853   7.068  14.938
63520W        W35246   6.816  12.398  14.414
63521W        W35247  43.261  31.668   4.208
63522W        W35248  17.406  13.322  11.143
63523W        W35249   4.208  38.861  14.802
63524W        W35250  38.097  10.619  14.933
63525W        W35251  32.938  28.236  14.257
63526W        W35252  14.675  37.934   2.353
63527W        W35253  35.856  23.174  12.437
63528W        W35254  37.155  26.945   3.254
63529W        W35255   0.318  25.136   0.913
63530W        W35256  14.295  34.786  11.040
63531W        W35257  24.609   8.903  14.865
63532W        W35258  18.287  21.129  11.993
63533W        W35259  28.736  13.676  11.143
63534W        W35260  41.372  26.172   2.872
63535W        W35261  28.368  36.519   2.809
63536W        W35262  15.460  44.317   0.922
63537W        W35263  15.144  42.225   4.188
63538W        W35264   1.883  35.858   2.422
63539W        W35265  38.871  11.840   2.217
63540W        W35266   7.711  14.567   3.505
63541W        W35267  29.280  43.413   1.719
63542W        W35268   1.359  11.267  14.044
63543W        W35269  44.294  26.462   2.099
63544W        W35270  41.075   5.641  14.701
63545W        W35271  15.067  27.682  14.406
63546W        W35272  28.048  32.314  11.537
63547W        W35273  35.630   8.793   0.723
63548W        W35274  11.392  43.328  12.909
63549W        W35275  34.785  22.516   4.124
63550W        W35276   9.889  30.614  14.209
63551W        W35277  18.163  43.770   0.841
63552W        W35278  28.571  41.924   0.674
63553W        W35279  39.487   5.750   3.926
63554W        W35280   9.681  27.582   0.168
63555W        W35281  38.018  34.486  10.962
63556W        W35282  29.123  43.203   4.738
63557W        W35283  24.462   0.584   1.777
63558W        W35284  23.014   3.754  11.425
63559W        W35285   9.773  10.166  10.716
63560W        W35286  10.082   2.286   1.277
63561W        W35287  33.937  36.957   2.823
63562W        W35288   5.326  13.866  11.544
63563W        W35289   1.386   3.844   3.014
63564W        W35290  34.900   6.061  14.544
63565W        W35291  42.940  22.068  10.781
63566W        W35292  15.563   8.870  11.537
63567W        W35293   3.848  11.690   2.207
63568W        W35294   4.214   7.100   0.823
63569W        W35295   7.361   8.286   1.787
63570W        W35296   9.111  39.543  14.039
63571W        W35297  24.433   3.790   0.878
63572W        W35298  11.640  32.061   5.148
63573W        W35299   5.615  34.938  11.008
63574W        W35300   3.174  28.989   2.289
63575W        W35301  10.521  30.847   4.073
63576W        W35302  42.742   9.303  13.939
63577W        W35303  26.839  35.498  12.279
63578W        W35304   2.364  41.931  12.920
63579W        W35305  18.776   9.640   2.358
63580W        W35306   9.104  31.122  12.082
63581W        W35307  12.405  40.096  11.615
63582W        W35308  26.423  13.726  11.346
63583W        W35309  33.312  31.991  11.253
63584W        W35310   2.947   4.055   3.729
63585W        W35311  42.400   0.234  11.651
63586W        W35312  25.281  14.032  12.848
63587W        W35313   7.327  24.167  10.269
63588W        W35314  28.963   1.390  13.804
63589W        W35315  30.190  29.559  10.497
63590W        W35316  10.069  37.275  11.096
63591W        W35317  16.505   0.958   0.485
63592W        W35318  32.263  44.417   9.737
63593W        W35319  36.891  24.562  10.678
63594W        W35320  30.618  26.254   0.684
63595W        W35321  22.216  11.519   2.721
63596W        W35322  38.302   7.826  13.038
63597W        W35323  27.489   4.298   2.782
63598W        W35324  11.258   4.814   4.462
63599W        W35325  39.762  39.544  11.586
63600W        W35326  27.835   7.759  11.553
63601W        W35327  14.705  21.806  14.004
63602W        W35328  31.521  17.516  14.011
63603W        W35329  19.195  17.118  11.001
63604W        W35330  35.166  24.177   4.673
63605W        W35331  32.664  43.867   4.063
63606W        W35332  44.742  29.589   5.161
63607W        W35333  14.596   7.462  14.612
63608W        W35334  42.807  39.409   2.073
63609W        W35335  18.971  40.427   4.139
63610W        W35336   2.438  28.920   4.820
63611W        W35337  17.643   9.623   3.812
63612W        W35338  12.184  18.585  11.553
63613W        W35339  29.512  33.698   3.053
63614W        W35340  35.106  38.044   4.289
63615W        W35341  26.936  24.306  13.902
63616W        W35342   6.278  27.925   4.533
63617W        W35343   3.738  37.365  12.412
63618W        W35344  10.438  27.923  14.393
63619W        W35345   5.448  17.845   2.256
63620W        W35346  30.469  31.490  12.468
63621W        W35347   2.181  32.123  10.425
63622W        W35348  26.163   1.168  14.909
63623W        W35349  29.882  16.261  12.526
63624W        W35350  29.725  22.760   4.995
63625W        W35351  33.441  10.147   2.411
63626W        W35352  34.936  34.414   3.090
63627W        W35353  10.146   4.729  11.228
63628W        W35354   9.232   6.326   0.269
63629W        W35355  11.384  36.013   4.692
63630W        W35356  22.219   7.066  13.045
63631W        W35357  43.915  31.158   2.819
63632W        W35358  42.548  42.205   0.778
63633W        W35359  35.418  42.431  12.488
63634W        W35360  35.594  18.240   0.989
63635W        W35361  38.911  40.450   3.319
63636W        W35362  39.139  12.828  12.147
63637W        W35363  28.165  38.073  13.033
63638W        W35364  33.194  31.557   3.203
63639W        W35365  27.234  36.929  14.781
63640W        W35366  37.180   3.302  13.589
63641W        W35367  18.569  12.364  12.073
63642W        W35368  39.549  28.739   0.252
63643W        W35369   3.379   1.271   1.419
63644W        W35370  19.654  26.629  13.528
63645W        W35371   2.982  44.005   2.298
63646W        W35372   3.944  35.870  11.593
63647W        W35373  25.975  24.783   0.303
63648W        W35374  28.629  39.134   9.819
63649W        W35375   1.035   1.222   4.200
63650W        W35376   1.936   2.841   3.578
63651W        W35377  29.654   9.272   3.389
63652W        W35378  26.151  26.713  10.676
63653W        W35379  33.312  40.577   1.403
63654W        W35380   7.871  44.980  11.468
63655W        W35381  20.998  20.539  11.943
63656W        W35382  24.944  25.090   1.226
63657W        W35383  40.316  10.190  14.645
63658W        W35384  37.300  41.238  13.912
63659W        W35385  11.871  33.078  13.908
63660W        W35386  10.782  32.428  13.106
63661W        W35387  11.125  40.672  10.525
63662W        W35388  20.786  11.098   0.751
63663W        W35389  37.149   4.216  13.343
63664W        W35390  32.720  40.424  11.598
63665W        W35391  16.105  16.640  12.528
63666W        W35392  22.281   1.153   3.797
63667W        W35393  16.739   0.457   0.438
63668W        W35394  41.846  28.932   2.363
63669W        W35395  15.698  21.339   0.853
63670W        W35396  24.840   6.382   2.488
63671W        W35397  42.489  44.015   4.898
63672W        W35398  25.925   8.319  14.866
63673W        W35399  24.160  25.470  11.190
63674W        W35400  32.652  44.549   1.897
63675W        W35401  11.510  10.613   1.328
63676W        W35402   9.965   5.264  13.888
63677W        W35403  30.179   0.051   2.775
63678W        W35404  38.453   7.107   4.315
63679W        W35405   9.737   1.843   1.215
63680W        W35406   7.354  20.191   4.019
63681W        W35407  37.313  21.566  14.929
63682W        W35408   8.047  31.542  14.813
63683W        W35409  30.712  34.336  11.098
63684W        W35410  29.348   4.410   2.671
63685W        W35411  37.837  18.937   4.061
63686W        W35412  13.622  33.879   0.354
63687W        W35413  30.595  20.052   4.598
63688W        W35414  17.588  24.565   0.872
63689W        W35415   6.190  32.508  13.911
63690W        W35416  23.626  26.342   2.187
63691W        W35417  37.861  40.697  13.861
63692W        W35418  10.880  25.149   2.284
63693W        W35419  12.682  34.963  13.295
63694W        W35420  38.322   1.422  14.793
63695W        W35421   6.839  36.865   4.634
63696W        W35422  15.519  21.705  13.381
63697W        W35423  12.740  11.645  10.680
63698W        W35424   0.651  10.671  13.314
63699W        W35425  28.687  40.795  11.686
63700W        W35426  12.115  31.920   1.469
63701W        W35427  27.602  36.582  10.538
63702W        W35428  20.462   7.235   2.971
63703W        W35429  44.463  42.932  14.456
63704W        W35430  17.040  24.449   1.848
63705W        W35431  23.770  14.261   1.601
63706W        W35432  42.989  19.301  12.381
63707W        W35433   6.632  24.060  10.650
63708W        W35434  11.419  12.162   1.315
63709W        W35435   3.728  11.240  14.375
63710W        W35436  22.839  18.309   2.667
63711W        W35437  18.241  21.046  14.243
63712W        W35438   7.484  18.495  11.918
63713W        W35439  18.337  28.288  10.942
63714W        W35440  28.520   5.210   1.360
63715W        W35441   2.535  18.972   1.270
63716W        W35442   3.208   3.377   1.629
63717W        W35443  28.580  38.513  12.736
63718W        W35444  39.046  22.071  12.748
63719W        W35445  15.735  25.512   2.852
63720W        W35446  36.047  42.441   0.371
63721W        W35447  44.011  32.255   1.760
63722W        W35448  38.586  13.138  13.371
63723W        W35449   3.713  29.166  10.454
63724W        W35450   7.856  21.175  10.748
63725W        W35451  12.162   7.759  13.798
63726W        W35452  13.763  36.041  13.965
63727W        W35453  44.208  22.483   2.831
63728W        W35454  42.862  14.710  12.610
63729W        W35455  31.845   7.953  11.563
63730W        W35456  42.466  37.336   2.747
63731W        W35457  25.307   3.110   2.765
63732W        W35458  12.624  34.519   3.710
63733W        W35459  28.221   0.396   4.615
63734W        W35460  31.903  16.078   3.703
63735W        W35461  10.951  20.974   3.792
63736W        W35462  44.754  34.915   0.650
63737W        W35463  15.746   0.666   4.556
63738W        W35464  33.120  23.215   2.386
63739W        W35465   2.266   3.246  11.850
63740W        W35466   0.362  11.896   2.462
63741W        W35467  14.340   9.134  12.993
63742W        W35468  16.674  33.500  14.735
63743W        W35469   5.516  16.848  14.548
63744W        W35470   0.386  10.720   1.034
63745W        W35471  27.154   9.755   1.052
63746W        W35472  37.050  20.795  14.571
63747W        W35473  26.261   0.654  11.163
63748W        W35474  18.599  23.118  13.637
63749W        W35475   5.453   0.998   3.222
63750W        W35476  26.151   1.686  12.622
63751W        W35477   8.663  40.804  12.419
63752W        W35478  24.958   1.849  12.968
63753W        W35479  14.234   8.618  14.971
63754W        W35480  12.133  42.189   1.767
63755W        W35481  37.211   1.363   4.246
63756W        W35482   7.792  31.508   2.223
63757W        W35483  26.401  40.937  12.667
63758W        W35484  14.389  13.760   2.775
63759W        W35485  23.725   8.980   3.688
63760W        W35486   7.392  35.526  12.395
63761W        W35487  21.586  38.368  13.958
63762W        W35488  23.427   7.308   2.891
63763W        W35489  35.515  19.583  14.285
63764W        W35490  32.308  12.306   3.677
63765W        W35491  16.114  24.144   0.342
63766W        W35492  11.248  40.279  11.807
63767W        W35493  24.043  31.945  12.444
63768W        W35494  13.377  11.166   4.619
63769W        W35495  35.372  24.757   1.531
63770W        W35496  12.359  20.938  14.088
63771W        W35497  40.708  32.805   4.134
63772W        W35498  24.999  15.143  13.891
63773W        W35499   7.794  31.959   1.939
63774W        W35500   4.205  20.016   4.128
63775W        W35501   3.826  20.654   2.029
63776W        W35502   6.833   9.606   2.868
63777W        W35503  27.095  19.830   3.162
63778W        W35504  23.173  19.120   2.557
63779W        W35505   1.785   1.991   2.111
63780W        W35506   1.727  21.111   3.204
63781W        W35507  33.356  44.680  11.695
63782W        W35508  30.297  43.460  14.749
63783W        W35509  13.822   4.655   0.785
63784W        W35510   9.348  10.635   1.224
63785W        W35511  42.595   8.981   2.722
63786W        W35512  32.648  20.889   4.420
63787W        W35513  37.397  36.944  11.707
63788W        W35514   5.911  32.613  12.974
63789W        W35515  41.365  41.253   1.037
63790W        W35516  44.443  15.106  14.839
63791W        W35517  12.181  21.141   3.142
63792W        W35518  18.883  42.735  13.567
63793W        W35519  27.564   2.417  10.600
63794W        W35520  38.444  36.807   3.289
63795W        W35521  16.952  22.624  11.534
63796W        W35522  38.373  10.728   4.503
63797W        W35523  18.258  17.099   4.723
63798W        W35524   7.279  31.488  13.094
63799W        W35525  38.816   8.203   3.836
63800W        W35526   7.874  28.920  11.671
63801W        W35527  21.642  39.388   2.759
63802W        W35528  33.676   9.308   2.055
63803W        W35529  20.276   6.185   3.263
63804W        W35530   7.697  16.656  11.088
63805W        W35531  14.104  21.994   4.146
63806W        W35532  22.506  37.311   0.658
63807W        W35533   9.633  30.546   0.278
63808W        W35534  41.463  22.061   4.346
63809W        W35535   6.207   8.237   0.506
63810W        W35536  22.272  13.096  11.554
63811W        W35537  22.732  24.188   2.576
63812W        W35538  23.676  13.030   3.633
63813W        W35539  27.663   6.408  11.176
63814W        W35540  21.715  39.623  12.287
63815W        W35541  27.064  22.220   1.425
63816W        W35542  20.612  39.088   1.483
63817W        W35543  36.020   6.202   2.172
63818W        W35544  41.714  38.560  12.982
63819W        W35545  25.061  18.845  12.524
63820W        W35546  31.546  15.340   0.750
63821W        W35547  30.458  12.672   0.875
63822W        W35548  31.529  33.333  11.074
63823W        W35549  36.503  16.553   4.127
63824W        W35550   3.371  32.548   0.900
63825W        W35551  33.603  29.291  12.140
63826W        W35552  16.026  21.989   3.259
63827W        W35553  23.332  37.717   0.325
63828W        W35554  14.690  43.462   4.439
63829W        W35555  19.221  43.894   4.071
63830W        W35556   5.339  13.468  12.503
63831W        W35557  31.119  28.481   0.544
63832W        W35558  23.078  40.497   1.417
63833W        W35559  37.968   7.227   4.621
63834W        W35560  12.608  16.800   1.406
63835W        W35561  25.217   9.581   3.774
63836W        W35562  42.872  20.454   4.412
63837W        W35563  28.668   3.592  14.100
63838W        W35564  22.504  40.012   3.542
63839W        W35565  25.788  28.757   1.401
63840W        W35566  11.266  36.401   3.626
63841W        W35567  26.668  33.351   4.692
63842W        W35568   9.812  24.777   5.047
63843W        W35569   8.382  43.818  11.972
63844W        W35570   1.039  28.448   2.267
63845W        W35571  10.556  11.116  14.829
63846W        W35572  29.966  32.384   3.069
63847W        W35573  34.003  41.963  10.481
63848W        W35574  32.974  19.030   4.277
63849W        W35575  43.476   7.726   0.134
63850W        W35576  38.953  29.965  12.076
63851W        W35577  26.253  25.117  11.292
63852W        W35578  25.930  13.573  13.526
63853W        W35579  28.265  16.717  12.195
63854W        W35580  31.379  23.703  10.214
63855W        W35581   6.715  13.513   1.020
63856W        W35582   6.234   6.452   3.222
63857W        W35583  34.420  15.952   0.870
63858W        W35584   8.967   2.328   2.860
63859W        W35585  33.221  10.278  12.895
63860W        W35586   5.577  23.465   0.733
63861W        W35587  24.812  37.600  13.039
63862W        W35588   4.553  22.031  14.755
63863W        W35589  32.261   6.899  14.217
63864W        W35590   7.906  37.925   3.369
63865W        W35591  38.511  30.132   4.541
63866W        W35592  26.829  10.340   2.859
63867W        W35593  16.745  36.097  14.748
63868W        W35594  14.776  37.657   0.850
63869W        W35595  11.543  21.711  11.635
63870W        W35596   7.137   2.997  13.495
63871W        W35597  30.475  33.073   4.731
63872W        W35598  27.675  15.223  10.868
63873W        W35599  30.651  22.678   1.355
63874W        W35600  10.162  43.451   2.627
63875W        W35601  14.337   9.409   3.660
63876W        W35602  29.133  10.885   0.879
63877W        W35603  19.637  14.138   4.303
63878W        W35604  18.318  22.485  11.062
63879W        W35605   1.608   9.508   3.238
63880W        W35606  22.568  19.428  10.890
63881W        W35607  27.015  26.954  10.683
63882W        W35608   0.793  32.378   1.076
63883W        W35609  18.588  34.238  11.672
63884W        W35610  43.365  14.712  13.352
63885W        W35611  31.414   9.380  12.153
63886W        W35612  38.319  39.875   3.560
63887W        W35613  10.066  21.968  10.110
63888W        W35614  11.532  40.835  12.382
63889W        W35615   3.299  12.744   4.324
63890W        W35616  39.497  22.040   0.930
63891W        W35617  13.723  26.987   1.207
63892W        W35618  37.541  19.160   3.729
63893W        W35619  28.345  24.676   0.942
63894W        W35620  31.997  36.101  12.086
63895W        W35621  10.762   6.316  12.027
63896W        W35622  31.437  11.629   0.379
63897W        W35623  23.579  24.509   4.372
63898W        W35624   3.008  28.714  11.410
63899W        W35625   7.649  21.180   3.644
63900W        W35626  31.565  15.491  11.966
63901W        W35627   5.845  39.357   3.593
63902W        W35628  35.551   0.989   3.202
63903W        W35629  10.848  31.491   0.452
63904W        W35630  15.292  24.798   2.166
63905W        W35631   3.455  20.700  10.792
63906W        W35632   3.936  43.813   4.577
63907W        W35633   5.467  44.108   2.072
63908W        W35634  13.669  40.911   2.958
63909W        W35635  11.872   1.345  12.962
63910W        W35636   8.744   1.848   0.247
63911W        W35637  18.783  24.653  10.720
63912W        W35638  35.956  23.635   4.003
63913W        W35639  20.066   0.355  14.072
63914W        W35640  17.057  26.409   4.328
63915W        W35641  20.007   7.072   3.155
63916W        W35642  27.610  19.527  14.440
63917W        W35643  18.102  39.102   2.728
63918W        W35644  10.261  22.201   4.708
63919W        W35645   4.824   6.177  12.047
63920W        W35646  22.944  22.273  14.702
63921W        W35647  32.175  34.457   4.101
63922W        W35648   8.425  15.789  13.011
63923W        W35649  17.255   9.886  13.828
63924W        W35650  27.136  31.609  13.756
63925W        W35651   0.649   8.523   2.778
63926W        W35652  44.014  34.642  13.011
63927W        W35653   3.502  32.417   4.216
63928W        W35654  35.481   8.831  14.766
63929W        W35655  35.066  28.137  11.926
63930W        W35656  25.628  24.415   2.949
63931W        W35657  34.486  19.806   4.366
63932W        W35658   4.476  41.523   1.415
63933W        W35659  29.728  41.393   1.700
63934W        W35660  42.449  15.760   0.223
63935W        W35661  15.316   4.811  14.463
63936W        W35662  26.157  27.569   0.113
63937W        W35663  32.932  11.219  14.023
63938W        W35664   6.184  18.945   1.869
63939W        W35665  12.894  17.254   4.240
63940W        W35666   5.332  40.484   0.353
63941W        W35667  32.256  11.755  12.899
63942W        W35668  16.140   7.353   1.733
63943W        W35669  27.123  16.759   1.895
63944W        W35670  12.291  37.182  13.345
63945W        W35671  21.550  22.644   3.245
63946W        W35672  38.330  14.311   0.001
63947W        W35673  40.489  33.852  10.570
63948W        W35674  13.528  11.939   5.144
63949W        W35675   2.428  18.957  12.304
63950W        W35676   3.031  26.543  13.531
63951W        W35677  38.463  18.494   0.842
63952W        W35678   8.868  12.731  14.762
63953W        W35679  16.157   5.814   0.282
63954W        W35680   5.782  29.919  12.442
63955W        W35681  30.525  17.241   4.107
63956W        W35682  32.880  37.419  12.024
63957W        W35683  25.516  13.176   2.142
63958W        W35684  23.451  19.637  13.459
63959W        W35685  39.413  17.963   2.693
63960W        W35686   7.663  39.845   0.279
63961W        W35687  21.192  31.986   3.106
63962W        W35688   1.505  35.957  12.169
63963W        W35689  29.867  24.762  11.579
63964W        W35690  17.351  32.428  14.947
63965W        W35691  42.307  23.236  13.315
63966W        W35692  41.304  40.403  12.916
63967W        W35693   4.507   9.019   1.837
63968W        W35694  30.400  17.404   0.868
63969W        W35695  37.010   7.441  13.226
63970W        W35696  31.423  42.100   1.646
63971W        W35697   1.616  29.828   2.615
63972W        W35698  30.652  16.562  12.104
63973W        W35699  32.558  11.935  11.714
63974W        W35700  26.576   9.159  12.824
63975W        W35701   8.842  39.828  13.697
63976W        W35702  37.738  20.856   1.035
63977W        W35703  13.895  36.766   1.903
63978W        W35704   8.853  10.667   4.716
63979W        W35705  29.075  27.950  10.436
63980W        W35706  32.552  22.588   4.466
63981W        W35707  29.870  22.724   1.149
63982W        W35708   9.614  17.253  10.626
63983W        W35709  37.109  17.765  11.213
63984W        W35710  19.978  42.432   4.051
63985W        W35711  20.131  25.227  13.095
63986W        W35712  41.023  32.444   4.363
63987W        W35713   0.387   0.087   1.187
63988W        W35714   5.617  22.684   3.285
63989W        W35715  41.139  15.726   2.671
63990W        W35716  38.132  33.537   4.575
63991W        W35717  24.020   8.959   3.246
63992W        W35718  30.530  33.882  13.694
63993W        W35719  17.759   2.027   3.545
63994W        W35720   3.832  23.964   0.611
63995W        W35721  42.432  33.123  10.667
63996W        W35722  22.029  39.954   0.399
63997W        W35723  24.234  31.403  13.887
63998W        W35724  15.787  43.028   2.687
63999W        W35725  14.536  30.156  13.367
64000W        W35726  11.136  38.996  10.086
64001W        W35727  12.230   0.481  13.993
64002W        W35728  37.502  21.342  11.497
64003W        W35729  42.879  18.307  14.256
64004W        W35730  38.457  33.811  10.575
64005W        W35731   9.790  30.071   3.639
64006W        W35732  25.546  10.298  10.276
64007W        W35733  33.483  41.360  13.875
64008W        W35734   2.724  30.493  12.154
64009W        W35735  32.534   9.757   2.583
64010W        W35736  44.101  13.121  11.559
64011W        W35737  21.314   2.450   4.270
64012W        W35738   5.246   0.773  12.337
64013W        W35739  43.515  32.400  12.570
64014W        W35740  26.067   0.781  14.234
64015W        W35741  39.053  20.019   4.583
64016W        W35742   3.880  15.098  13.908
64017W        W35743   5.112  12.075  12.187
64018W        W35744  43.933  30.108   2.640
64019W        W35745  33.995  38.859  13.596
64020W        W35746   8.825  28.133   3.793
64021W        W35747  23.979  36.059   4.915
64022W        W35748   4.712  36.039   4.229
64023W        W35749  13.802  42.588   1.050
64024W        W35750  36.557   5.021  11.740
64025W        W35751  40.990  25.241  12.067
64026W        W35752  16.279  40.344  12.077
64027W        W35753  10.124   6.734  13.988
64028W        W35754  34.889  34.542   4.060
64029W        W35755  42.294  20.844   1.720
64030W        W35756  15.806  28.930  12.506
64031W        W35757  16.705  17.388   0.882
64032W        W35758   1.442  25.206  13.547
64033W        W35759   9.159  41.827  14.960
64034W        W35760  31.325   1.012  11.558
64035W        W35761   9.295  15.787  12.820
64036W        W35762  22.551   4.346  11.384
64037W        W35763  26.166   5.950  14.327
64038W        W35764  15.804  44.199   2.410
64039W        W35765  25.498   6.216   0.386
64040W        W35766  20.791  14.191  14.816
64041W        W35767  27.609  27.251   4.783
64042W        W35768  35.407  29.440  10.861
64043W        W35769  11.700  32.238  12.705
64044W        W35770   4.910   2.133   1.861
64045W        W35771  44.187  41.041  12.291
64046W        W35772  40.427   3.230  13.225
64047W        W35773   9.829   6.840   2.220
64048W        W35774  13.386  15.544   1.379
64049W        W35775  27.256  40.416   0.567
64050W        W35776  25.522  43.311   3.286
64051W        W35777   5.246  18.155  14.528
64052W        W35778  15.587  17.169   3.896
64053W        W35779   8.829  27.870   4.781
64054W        W35780   5.250  38.901   4.942
64055W        W35781  18.762  23.492   1.827
64056W        W35782   2.006  27.906   2.772
64057W        W35783  44.895  16.273  13.157
64058W        W35784  16.295  34.408  12.025
64059W        W35785  21.133  35.237   2.225
64060W        W35786  34.496  14.882  12.458
64061W        W35787  23.948   0.681   9.843
64062W        W35788  33.038  40.931  14.692
64063W        W35789   8.430  25.754   2.344
64064W        W35790   1.935  35.086  11.864
64065W        W35791   7.447   3.454   1.789
64066W        W35792  41.824  10.574   4.569
64067W        W35793  19.297  21.717   3.776
64068W        W35794  35.331  12.824  11.189
64069W        W35795  28.138   5.872  13.771
64070W        W35796  11.868   4.854  13.540
64071W        W35797  29.190  15.326   2.699
64072W        W35798  22.992  14.514  12.862
64073W        W35799   6.846   5.943   4.227
64074W        W35800   5.357   1.448  14.550
64075W        W35801  16.568  34.423   0.517
64076W        W35802  17.739   3.063   2.907
64077W        W35803   3.814  11.131   4.059
64078W        W35804  16.811  41.596  12.433
64079W        W35805   9.831  14.297   3.658
64080W        W35806  32.617  31.335   0.893
64081W        W35807  44.441  32.619   0.539
64082W        W35808   9.069   6.084  12.877
64083W        W35809  29.160  27.105  12.867
64084W        W35810  20.553  21.490   2.261
64085W        W35811  13.495   3.814   1.326
64086W        W35812  25.660  15.278  11.213
64087W        W35813  20.710  37.494  11.439
64088W        W35814  38.571  40.821  11.192
64089W        W35815  41.793  41.303  12.894
64090W        W35816  17.337  29.077  14.951
64091W        W35817  13.848   9.763   3.345
64092W        W35818   6.134  30.546   4.114
64093W        W35819  32.060  23.038   5.471
64094W        W35820  36.909   4.025   1.385
64095W        W35821  23.803  16.228   3.431
64096W        W35822  34.929  30.832   2.153
64097W        W35823  23.589  25.654   3.011
64098W        W35824  26.676  27.466   3.988
64099W        W35825  29.840  44.901  11.921
64100W        W35826   1.667  27.273  13.546
64101W        W35827  13.433  36.513  14.774
64102W        W35828  12.952  14.958   4.027
64103W        W35829  25.172  18.002   3.226
64104W        W35830  14.446  44.290  11.140
64105W        W35831  23.210  26.554   1.916
64106W        W35832   2.808   3.832   1.832
64107W        W35833  41.290  22.946   2.389
64108W        W35834  24.003   1.766   1.462
64109W        W35835  14.723  39.713  10.214
64110W        W35836   3.809  37.043   3.481
64111W        W35837   7.408  37.369  12.504
64112W        W35838  20.215  14.400   0.406
64113W        W35839  21.674  34.920   0.512
64114W        W35840   4.937   1.196   0.544
64115W        W35841  18.781  37.043  13.571
64116W        W35842  11.490  17.598  10.780
64117W        W35843   0.293  14.001  14.535
64118W        W35844   0.033   2.518  11.612
64119W        W35845  32.706  27.017  14.537
64120W        W35846  18.552  30.624  13.887
64121W        W35847  38.980  10.613   0.823
64122W        W35848  16.105  10.266  14.166
64123W        W35849   9.405  34.313  13.990
64124W        W35850   3.373  29.989  14.921
64125W        W35851  20.475   1.797   1.222
64126W        W35852  31.146   9.130  11.009
64127W        W35853  12.266  31.481   1.742
64128W        W35854  40.883  34.091   0.965
64129W        W35855  27.381  42.801  13.535
64130W        W35856  21.484  20.586  12.060
64131W        W35857  36.497  31.658  12.042
64132W        W35858  40.304  13.944  13.489
64133W        W35859   5.441  37.533   0.244
64134W        W35860  32.060  23.723   9.822
64135W        W35861   2.143  32.150   2.639
64136W        W35862  27.556   7.593  12.395
64137W        W35863   0.023  39.025  12.202
64138W        W35864   2.246   6.962   4.318
64139W        W35865  28.516  30.571   0.033
64140W        W35866   3.785  13.038   1.886
64141W        W35867   4.713   0.823  10.483
64142W        W35868  18.088  37.973  12.483
64143W        W35869  21.618  13.088   3.194
64144W        W35870   2.327  19.905   2.243
64145W        W35871  21.283  10.913   3.539
64146W        W35872  11.540  29.566   2.227
64147W        W35873   5.446  21.783   2.773
64148W        W35874  17.657   0.474  13.511
64149W        W35875  14.310   2.744   1.089
64150W        W35876   0.638  13.151   3.659
64151W        W35877  33.216  22.079  12.108
64152W        W35878  16.159   6.356  10.751
64153W        W35879   5.209  19.138  12.863
64154W        W35880  14.540   5.988   4.663
64155W        W35881  26.980  26.227   3.692
64156W        W35882  12.315  24.646  13.230
64157W        W35883  26.116   3.803   4.285
64158W        W35884  13.401  19.858  13.017
64159W        W35885  24.704  42.501   0.365
64160W        W35886  10.581  38.284   1.264
64161W        W35887   2.262  43.957   0.860
64162W        W35888   9.102  36.577  14.955
64163W        W35889   7.278  28.709   0.471
64164W        W35890  31.954   0.009  11.989
64165W        W35891   6.077  24.542  12.920
64166W        W35892  17.106  11.342   3.447
64167W        W35893  41.987   5.773  13.907
64168W        W35894  34.850  23.074  12.528
64169W        W35895   4.586  23.574   0.799
64170W        W35896  37.001  42.383   2.803
64171W        W35897  10.341  34.555   2.697
64172W        W35898  35.427  25.986   0.962
64173W        W35899   4.448  36.841   1.820
64174W        W35900  17.653   6.500   3.090
64175W        W35901  23.717  23.566  14.835
64176W        W35902   3.109  24.151   3.196
64177W        W35903  10.123  14.661   5.001
64178W        W35904  28.131  39.852   1.942
64179W        W35905  17.221   9.855  12.408
64180W        W35906   8.434  18.157  12.678
64181W        W35907  44.571  13.767   2.385
64182W        W35908  17.755  34.880  14.841
64183W        W35909  33.079  17.093   4.037
64184W        W35910  35.641  13.178   4.158
64185W        W35911  10.155  16.812   0.274
64186W        W35912  20.536  43.362  13.094
64187W        W35913  31.460  24.147   0.475
64188W        W35914   5.622  43.731  11.057
64189W        W35915  23.537  31.424   0.032
64190W        W35916   4.738  15.801   0.827
64191W        W35917  22.996  23.751   2.438
64192W        W35918  42.697  12.800   4.245
64193W        W35919  39.944  31.646   0.423
64194W        W35920   6.872  31.716   2.727
64195W        W35921  15.487   5.834  14.510
64196W        W35922  15.203  43.811  12.488
64197W        W35923  28.462  29.026   4.435
64198W        W35924  36.489  20.255   1.734
64199W        W35925   5.439  44.625  14.384
64200W        W35926  11.301  31.041   2.469
64201W        W35927  18.185  14.927  13.469
64202W        W35928  12.333  42.774  11.420
64203W        W35929   5.352  13.314   9.767
64204W        W35930  17.753  31.362  11.674
64205W        W35931  20.190  11.104   1.949
64206W        W35932  11.156  17.205  10.810
64207W        W35933   7.440  31.556   1.805
64208W        W35934  39.058  14.532  13.855
64209W        W35935  30.576  30.437   1.537
64210W        W35936  11.284  35.528  13.566
64211W        W35937  24.480  10.425  11.770
64212W        W35938   0.735  17.128   4.534
64213W        W35939  14.313  14.780   1.637
64214W        W35940  31.065  34.572   3.326
64215W        W35941  15.533  25.480  13.443
64216W        W35942  40.608  20.328   4.200
64217W        W35943  35.857   9.252   1.797
64218W        W35944  38.391  35.849  11.400
64219W        W35945  33.379  33.923   3.173
64220W        W35946   4.937  12.897   4.610
64221W        W35947  21.964  29.727  11.270
64222W        W35948  41.498  39.473  10.996
64223W        W35949  42.028  20.497   2.064
64224W        W35950  22.282  24.664  11.571
64225W        W35951  38.456  16.249   1.335
64226W        W35952  24.660  15.883   0.422
64227W        W35953   5.220  26.174  10.562
64228W        W35954   1.794  43.219  14.410
64229W        W35955  18.709  33.373  14.816
64230W        W35956  10.708  14.174  14.795
64231W        W35957  44.733  28.881  13.006
64232W        W35958  32.032  21.920   2.641
64233W        W35959  43.441   3.405   2.383
64234W        W35960   1.242  38.821  11.997
64235W        W35961  10.195  19.629  14.311
64236W        W35962  21.650  28.675   0.104
64237W        W35963  35.489  26.615  12.798
64238W        W35964  33.501  32.048  12.467
64239W        W35965  34.449  26.511  14.387
64240W        W35966  10.911  23.026  12.081
64241W        W35967  27.891   9.461   4.182
64242W        W35968  17.603   9.313   1.254
64243W        W35969  13.833   6.197   2.067
64244W        W35970  12.767  40.579   0.403
64245W        W35971  28.015  34.798   1.855
64246W        W35972  43.305  12.570  10.752
64247W        W35973  42.443  27.655  14.995
64248W        W35974  41.005  13.947  12.990
64249W        W35975   7.929  22.202   2.822
64250W        W35976  17.429   3.840   2.439
64251W        W35977  12.737  20.634   3.703
64252W        W35978  34.766  35.856  10.366
64253W        W35979  10.192  32.893   3.135
64254W        W35980  39.212   1.717  13.895
64255W        W35981  16.820   7.041   4.532
64256W        W35982  30.122  16.024  12.902
64257W        W35983  26.726  43.115  10.710
64258W        W35984  41.386  14.190   2.221
64259W        W35985  43.413  13.736   0.441
64260W        W35986  17.890  30.357  11.943
64261W        W35987  29.935  31.629   1.049
64262W        W35988  11.660  19.609   9.920
64263W        W35989   3.497  40.130  11.174
64264W        W35990  35.891   9.569   4.195
64265W        W35991  13.477  40.882  10.724
64266W        W35992  17.603   2.313   3.121
64267W        W35993  41.993  27.576   1.398
64268W        W35994   0.030  29.696   1.960
64269W        W35995  41.736  14.136  11.006
64270W        W35996  30.955  40.584   0.413
64271W        W35997  35.826  10.849   3.356
64272W        W35998  24.553  31.941  12.418
64273W        W35999  23.972  32.483   2.959
64274W        W36000  42.467   0.286  14.407
64275W        W36001  24.249  27.226  13.884
64276W        W36002  20.713  19.486  14.952
64277W        W36003  15.856  26.410  14.271
64278W        W36004   1.760  21.381   1.739
64279W        W36005  13.217   6.158  12.451
64280W        W36006   1.248  39.963   4.231
64281W        W36007  21.699  15.946  14.421
64282W        W36008  37.186   7.545  11.570
64283W        W36009  26.004  38.603   0.410
64284W        W36010   5.020   2.568   4.389
64285W        W36011  20.609  34.705   4.801
64286W        W36012  39.401  15.095   2.395
64287W        W36013   5.491  30.531   1.816
64288W        W36014  15.800  39.773   3.722
64289W        W36015  36.928  27.174   2.796
64290W        W36016  27.108  38.537  13.555
64291W        W36017  41.917  41.271  11.986
64292W        W36018  41.348  35.515   4.833
64293W        W36019  27.699  28.598  14.113
64294W        W36020   8.211  29.966  13.829
64295W        W36021   9.086   5.273  11.622
64296W        W36022   7.952  31.983  14.529
64297W        W36023  44.269  42.870  10.911
64298W        W36024  35.950  39.408   1.522
64299W        W36025  36.579  38.433   3.164
64300W        W36026   1.876  10.295  13.062
64301W        W36027  10.780  26.147   2.731
64302W        W36028  39.487  11.654  11.905
64303W        W36029  42.967  25.941  13.445
64304W        W36030  40.500  30.838   1.225
64305W        W36031  12.456  41.250   3.264
64306W        W36032  13.243  38.750   5.136
64307W        W36033  12.792   4.168   4.288
64308W        W36034   3.760  11.531  10.204
64309W        W36035  13.852  10.194  13.291
64310W        W36036  12.758   8.795  10.617
64311W        W36037  31.740  44.547  11.952
64312W        W36038   1.542  34.421   3.485
64313W        W36039  29.868  44.744   2.116
64314W        W36040  28.020  36.181  11.150
64315W        W36041   1.917   1.439  14.950
64316W        W36042  27.184  12.924  13.466
64317W        W36043  43.588  15.592  13.381
64318W        W36044  31.562   0.379   1.919
64319W        W36045  27.955   8.925   3.194
64320W        W36046  11.048  27.423   1.460
64321W        W36047  44.263  18.980  13.302
64322W        W36048  28.212  13.578  11.045
64323W        W36049  43.465  36.785  14.730
64324W        W36050  12.357  27.032  11.567
64325W        W36051  16.743  39.742   1.840
64326W        W36052  26.602  10.447  14.509
64327W        W36053  20.446  24.500  11.994
64328W        W36054  32.856  15.262   2.502
64329W        W36055  43.274   1.800  10.788
64330W        W36056  13.179  36.788  11.026
64331W        W36057  38.484  27.028  13.329
64332W        W36058  10.572  39.755   3.236
64333W        W36059  24.192  15.060  10.188
64334W        W36060   1.837   8.547  11.944
64335W        W36061  24.683   2.339   4.158
64336W        W36062   7.846  43.505  13.854
64337W        W36063  18.588  24.074   0.023
64338W        W36064  41.003   8.664  14.765
64339W        W36065  43.994  13.090   2.670
64340W        W36066  17.892   0.776  11.522
64341W        W36067  13.415  29.186  14.938
64342W        W36068  18.818  34.855   2.404
64343W        W36069   4.994   7.221  11.065
64344W        W36070  11.163  39.758  10.629
64345W        W36071  44.254  38.341   2.290
64346W        W36072  14.339   3.173   0.729
64347W        W36073   2.636  12.297  13.559
64348W        W36074   9.733  11.841  12.568
64349W        W36075   5.694  11.831   0.924
64350W        W36076   2.573   0.719   3.506
64351W        W36077   4.694  15.009  13.198
64352W        W36078  38.066   7.197   3.078
64353W        W36079  42.063  34.871   0.663
64354W        W36080  20.671  42.087  11.070
64355W        W36081  15.213  38.294  12.446
64356W        W36082   1.883  14.219   3.424
64357W        W36083  21.642   2.261  12.556
64358W        W36084  12.280   3.745   0.739
64359W        W36085   9.081  35.064  11.154
64360W        W36086  34.150  18.691   1.359
64361W        W36087  13.178  26.642  14.830
64362W        W36088  14.059  34.140  13.583
64363W        W36089  38.983  19.190   5.085
64364W        W36090  10.314   5.070   3.819
64365W        W36091   7.443   8.347   2.702
64366W        W36092  11.292  30.034  13.508
64367W        W36093  25.724   7.244   3.250
64368W        W36094  13.200  13.826  11.698
64369W        W36095   7.091   7.934  11.062
64370W        W36096  42.741   8.124  11.418
64371W        W36097  33.073  20.214  12.607
64372W        W36098  30.218   6.248   2.714
64373W        W36099  12.875  36.937   4.876
64374W        W36100  44.327   6.813   1.699
64375W        W36101  12.543  41.009  14.302
64376W        W36102  22.526  16.797  12.847
64377W        W36103  21.708  38.380   2.684
64378W        W36104  42.598  38.612   0.171
64379W        W36105  42.975  28.743   1.092
64380W        W36106  21.493  12.758  13.797
64381W        W36107  39.515   7.093  11.773
64382W        W36108  29.907  38.378   3.861
64383W        W36109  26.154  32.263  14.985
64384W        W36110   5.311  39.808  11.483
64385W        W36111  36.793  16.111  14.322
64386W        W36112  43.735  23.044   0.023
64387W        W36113  10.423  31.873  13.982
64388W        W36114  19.261   8.223  11.455
64389W        W36115  33.090  40.477   1.935
64390W        W36116   2.367  44.819   2.493
64391W        W36117   7.837  18.610   2.392
64392W        W36118  16.843  31.129  12.943
64393W        W36119  22.643   5.344   3.545
64394W        W36120  24.110   4.023   2.723
64395W        W36121  30.866  27.153  10.974
64396W        W36122  28.472   7.159   2.136
64397W        W36123  17.739  35.395  14.951
64398W        W36124  42.848  13.233   3.507
64399W        W36125  27.478   0.730   1.360
64400W        W36126  22.410  23.643   3.733
64401W        W36127  12.799   7.145  13.974
64402W        W36128  39.054  17.206   5.015
64403W        W36129  20.737  42.492   1.848
64404W        W36130  35.621   2.803  10.991
64405W        W36131  23.994  17.678  11.719
64406W        W36132  37.376  37.492   4.694
64407W        W36133  18.682   5.369   0.398
64408W        W36134  38.378  20.842  10.655
64409W        W36135   8.057  10.925  14.525
64410W        W36136  21.086  26.243  12.002
64411W        W36137  28.576  29.331   2.171
64412W        W36138  12.085  39.036   2.851
64413W        W36139   2.259   8.289  12.082
64414W        W36140  34.491   7.211   4.775
64415W        W36141  33.915  12.383   1.152
64416W        W36142  13.614  21.894   0.861
64417W        W36143  43.537  17.719   2.832
64418W        W36144   1.907  22.750  11.222
64419W        W36145   8.806  30.191   4.269
64420W        W36146  41.960  29.584   1.016
64421W        W36147  29.641  10.655   4.114
64422W        W36148  16.701  22.659   1.870
64423W        W36149  36.556  14.395  12.990
64424W        W36150  37.964  42.067  11.941
64425W        W36151   2.802  23.227   4.129
64426W        W36152  14.640  31.422   4.223
64427W        W36153  15.026  18.758   2.673
64428W        W36154  25.114  25.418  13.952
64429W        W36155  42.578  23.707  11.088
64430W        W36156   2.278  38.625   1.713
64431W        W36157  13.459  40.271   1.427
64432W        W36158  18.081   7.342   1.735
64433W        W36159   2.336   8.186   3.291
64434W        W36160  24.977  12.405  10.402
64435W        W36161  28.038  21.040   5.054
64436W        W36162  31.035  22.955   4.849
64437W        W36163  28.634  32.832  11.217
64438W        W36164  21.300  22.060   2.252
64439W        W36165  22.651  39.333   2.451
64440W        W36166  23.647   5.209   0.709
64441W        W36167  27.845  33.507   2.706
64442W        W36168   5.887  43.329  11.307
64443W        W36169  14.509   1.817   3.663
64444W        W36170  11.244  43.336   1.928
64445W        W36171  31.871   3.016  11.420
64446W        W36172  32.668   1.826  12.968
64447W        W36173  20.521  24.018   2.437
64448W        W36174   2.024  19.082   1.231
64449W        W36175  13.175   2.788  12.510
64450W        W36176  22.156  15.121  13.630
64451W        W36177  23.113   3.972   2.255
64452W        W36178   2.344  12.982   2.318
64453W        W36179   0.431   5.461   0.724
64454W        W36180  15.465  40.808   9.724
64455W        W36181  38.094  37.286  13.121
64456W        W36182  18.744  15.554   2.245
64457W        W36183  23.283  11.206  12.482
64458W        W36184   8.828  44.085  13.845
64459W        W36185  41.418  40.873  13.526
64460W        W36186  29.623  16.672   2.683
64461W        W36187   4.341  12.099  14.438
64462W        W36188  11.649  33.616   3.613
64463W        W36189  21.721  36.742   0.783
64464W        W36190  12.147   9.732   2.838
64465W        W36191  10.494   3.194  14.535
64466W        W36192  34.836  12.102   1.248
64467W        W36193   4.567  39.022   3.898
64468W        W36194  35.282  36.890   2.368
64469W        W36195  30.459  11.399  14.094
64470W        W36196  38.445  11.686  11.760
64471W        W36197  22.176   2.554   2.983
64472W        W36198  16.860  13.570  11.194
64473W        W36199  44.860  22.806  14.738
64474W        W36200  21.106  20.999  11.087
64475W        W36201  44.195   8.620   1.900
64476W        W36202  40.377  13.435  13.486
64477W        W36203  21.569  16.093  11.901
64478W        W36204  30.253  11.079  11.517
64479W        W36205   7.934  19.237  11.652
64480W        W36206   0.225  20.498   1.356
64481W        W36207  26.742  23.253  14.558
64482W        W36208  13.341  30.565   3.198
64483W        W36209  26.027  33.932   1.019
64484W        W36210  38.766  37.845   0.431
64485W        W36211   4.210  34.774   4.700
64486W        W36212  32.229  12.313  12.814
64487W        W36213  19.637  44.933  12.110
64488W        W36214  28.403  25.477   4.717
64489W        W36215  43.004  32.444  12.512
64490W        W36216  30.362   0.802   4.225
64491W        W36217   9.678  36.075  12.429
64492W        W36218  21.350  17.150  12.843
64493W        W36219  38.955  38.827   1.413
64494W        W36220   1.755   7.328   1.814
64495W        W36221   4.810  12.241  12.583
64496W        W36222  33.945  27.024  10.730
64497W        W36223   7.584  20.743  10.614
64498W        W36224   4.331  41.466   1.902
64499W        W36225  16.525  40.998   4.534
64500W        W36226  29.594  16.520  13.533
64501W        W36227  16.104   5.915   3.715
64502W        W36228  30.051  15.379  12.124
64503W        W36229   5.629   7.823   3.645
64504W        W36230  35.967  38.024  13.027
64505W        W36231  42.032  35.759   2.321
64506W        W36232   0.849  40.140  12.030
64507W        W36233  33.593  10.509  13.896
64508W        W36234   7.731   4.277  11.337
64509W        W36235  21.285  14.278   1.728
64510W        W36236  33.358   3.341  10.735
64511W        W36237  21.199  14.354   3.625
64512W        W36238  31.356  36.390  11.038
64513W        W36239   9.507  42.226   3.316
64514W        W36240  38.880  29.362   0.890
64515W        W36241  21.634  33.423   4.392
64516W        W36242  11.226  35.118   5.122
64517W        W36243  38.044  31.225  14.032
64518W        W36244  23.951   5.254   4.367
64519W        W36245  21.078  42.394   1.030
64520W        W36246  33.606  10.394   3.362
64521W        W36247   5.924  34.148  12.876
64522W        W36248  10.602  30.940  14.299
64523W        W36249  34.756  23.514  12.803
64524W        W36250  37.555  10.876   2.734
64525W        W36251  35.767  10.361   3.731
64526W        W36252  13.556  11.364   0.428
64527W        W36253   8.196  17.150  12.661
64528W        W36254  33.314  37.322  12.761
64529W        W36255  24.215  35.581   1.880
64530W        W36256   7.459   4.030   5.147
64531W        W36257  25.197  26.141   2.246
64532W        W36258  40.012  27.638   1.198
64533W        W36259  13.299  41.445   4.678
64534W        W36260  17.884  23.368  12.120
64535W        W36261  12.768  44.025   3.513
64536W        W36262  17.155  36.339   2.673
64537W        W36263  34.380   0.028   0.290
64538W        W36264  32.889   3.423   4.362
64539W        W36265  20.659  16.990  10.759
64540W        W36266   5.811  30.627  11.060
64541W        W36267  21.127  27.375   2.330
64542W        W36268  17.096  26.147  11.553
64543W        W36269  32.878  21.710  13.893
64544W        W36270  20.968  18.734  13.522
64545W        W36271  10.091  41.548   2.700
64546W        W36272  11.651  38.986   4.614
64547W        W36273  20.259  11.063   2.514
64548W        W36274   5.516   7.901   2.804
64549W        W36275  42.253  32.033   3.274
64550W        W36276  10.821  21.510   4.958
64551W        W36277  34.964  34.868   0.372
64552W        W36278  34.825  18.848  13.379
64553W        W36279  18.079  39.023   5.048
64554W        W36280  27.403  36.885   3.672
64555W        W36281   4.730  23.362   4.233
64556W        W36282  22.618  44.102   2.373
64557W        W36283  19.772  29.496   2.399
64558W        W36284  16.604  44.789   2.329
64559W        W36285  40.847  40.069   4.500
64560W        W36286  28.475  33.118   1.338
64561W        W36287  41.660  12.964   4.075
64562W        W36288  36.454  23.646   3.312
64563W        W36289  33.457  25.602  14.324
64564W        W36290  44.447  15.675  13.996
64565W        W36291   2.489  17.277  14.067
64566W        W36292   0.476  31.421   4.732
64567W        W36293  28.578  29.526   2.673
64568W        W36294  18.275  10.637  11.177
64569W        W36295  16.999  29.042   3.695
64570W        W36296  23.074  13.727   1.154
64571W        W36297   4.415  32.443  11.654
64572W        W36298  39.798   5.762  13.431
64573W        W36299  33.566  36.392  12.956
64574W        W36300  39.649   4.944   4.230
64575W        W36301   1.957  16.863  13.278
64576W        W36302  24.964  26.086   3.786
64577W        W36303   0.892  21.774  14.967
64578W        W36304  26.946  13.830  13.445
64579W        W36305  30.579  42.915   1.813
64580W        W36306   8.862  39.694  11.470
64581W        W36307  23.494   4.700   3.213
64582W        W36308   2.473  40.311  11.207
64583W        W36309  17.776  26.129  11.849
64584W        W36310   8.447   1.347  13.869
64585W        W36311  43.939  20.115   0.432
64586W        W36312   3.539  19.603  13.854
64587W        W36313  37.776   3.505  13.781
64588W        W36314  21.293  38.642  13.180
64589W        W36315   0.884  11.150  12.076
64590W        W36316  15.555  29.403   0.379
64591W        W36317  10.994  14.724   3.091
64592W        W36318  21.720   8.115   4.621
64593W        W36319  29.055   9.855  14.749
64594W        W36320  27.146  40.967  13.793
64595W        W36321   7.323  43.862  13.940
64596W        W36322   5.479  36.114   4.725
64597W        W36323  23.400   1.696  12.857
64598W        W36324  28.183  31.654  12.971
64599W        W36325  24.988  35.977   3.360
64600W        W36326  32.604  17.606  10.875
64601W        W36327  40.093  32.586   3.034
64602W        W36328   3.819  25.794   2.323
64603W        W36329  30.542  42.828  12.370
64604W        W36330   8.070   9.304   2.369
64605W        W36331  15.803  13.780   3.999
64606W        W36332  14.496  41.966  10.799
64607W        W36333  37.497  27.406  12.988
64608W        W36334  35.381  12.159  12.696
64609W        W36335   4.329  42.976   4.262
64610W        W36336  37.578  18.819  13.916
64611W        W36337  43.604  37.478  10.730
64612W        W36338  37.779  26.704   0.878
64613W        W36339  42.458  32.807   2.814
64614W        W36340  12.919  36.443  14.718
64615W        W36341   2.395  19.427  14.606
64616W        W36342  37.607   7.866  14.848
64617W        W36343   0.861  14.305   2.358
64618W        W36344   6.246  10.622  14.062
64619W        W36345  37.500  22.451   4.630
64620W        W36346   0.532  17.887  14.532
64621W        W36347   8.486  16.571   3.196
64622W        W36348  17.610  28.671   0.242
64623W        W36349  38.473  31.975   0.459
64624W        W36350  18.583   6.469  13.510
64625W        W36351  11.749  32.631  14.221
64626W        W36352  36.545  27.411   1.766
64627W        W36353  27.125  10.768   2.694
64628W        W36354   2.620   2.874  13.374
64629W        W36355  13.587   8.251   2.770
64630W        W36356  26.818  28.152  11.928
64631W        W36357  37.560   2.898  12.590
64632W        W36358  42.680  28.223  13.988
64633W        W36359  39.581  43.247  11.928
64634W        W36360  26.582  20.668   3.914
64635W        W36361  41.023  19.881  11.708
64636W        W36362  20.750   1.154   4.114
64637W        W36363  12.871  42.361  11.441
64638W        W36364  43.572  16.982   2.294
64639W        W36365  27.513  29.497  14.761
64640W        W36366  19.322  24.807   4.810
64641W        W36367  16.597   4.338  14.882
64642W        W36368  28.177  22.115  12.063
64643W        W36369  19.661  17.866  11.195
64644W        W36370  14.867   7.092   0.338
64645W        W36371  22.090  35.056   3.944
64646W        W36372  33.626  22.996   0.049
64647W        W36373  38.598   9.246  11.506
64648W        W36374   1.859  43.492  13.421
64649W        W36375  13.210  14.690  13.115
64650W        W36376  21.034  17.405   4.044
64651W        W36377  27.694  20.363  13.929
64652W        W36378  32.568  44.196  13.027
64653W        W36379  40.247  33.991   0.120
64654W        W36380   6.061  27.782   3.619
64655W        W36381  31.070  15.471  13.536
64656W        W36382  22.031  18.247  11.128
64657W        W36383  41.535   0.255   0.783
64658W        W36384  21.791  44.492   1.328
64659W        W36385   6.400  37.164   3.219
64660W        W36386  39.288   1.192   4.958
64661W        W36387  25.676  24.026  13.127
64662W        W36388  13.017  32.292   4.618
64663W        W36389  38.618   6.218  13.668
64664W        W36390  13.400  24.070   0.304
64665W        W36391   7.773  10.310   3.092
64666W        W36392  13.339  16.889   2.326
64667W        W36393  39.807  18.486  11.097
64668W        W36394  28.823  44.773  12.085
64669W        W36395  33.104  22.760   1.225
64670W        W36396  33.098  43.947   2.210
64671W        W36397  33.634   9.823  11.056
64672W        W36398   4.314   7.877  13.825
64673W        W36399   6.326  31.294  12.632
64674W        W36400  12.145  10.433   0.821
64675W        W36401  22.320  30.383  13.026
64676W        W36402  12.520  43.019   1.761
64677W        W36403  30.894   7.309  14.401
64678W        W36404   5.972  35.514   3.840
64679W        W36405  36.841  32.730  14.022
64680W        W36406   0.430  37.487   1.184
64681W        W36407   8.732  43.879   1.326
64682W        W36408  14.181  12.744  10.509
64683W        W36409  43.867  37.570  12.076
64684W        W36410   9.637  36.386   3.699
64685W        W36411  19.226   2.704  14.003
64686W        W36412   0.887  35.504   3.856
64687W        W36413  40.839   0.719   3.239
64688W        W36414  26.921  36.564   0.875
64689W        W36415  42.217  24.703  12.098
64690W        W36416  38.039  28.232   1.755
64691W        W36417  30.189  13.635   4.276
64692W        W36418  36.202   7.467   0.763
64693W        W36419  32.121   4.304  10.841
64694W        W36420  19.055  44.477   4.657
64695W        W36421   6.406  22.291   3.583
64696W        W36422  33.374  24.455   0.355
64697W        W36423  42.974  43.924   4.651
64698W        W36424  37.780   7.196  12.537
64699W        W36425   3.769   4.909   4.089
64700W        W36426   9.976  44.154  11.158
64701W        W36427  40.346  44.726   1.395
64702W        W36428  36.854   1.527   1.112
64703W        W36429  27.937   9.902   4.496
64704W        W36430  18.000   0.855  12.350
64705W        W36431  10.343   6.184   2.353
64706W        W36432  21.090  37.711   2.126
64707W        W36433  27.244  17.180  12.833
64708W        W36434  36.114   1.901   2.835
64709W        W36435  13.801  40.114  12.185
64710W        W36436  24.128  12.487  14.847
64711W        W36437  20.633  35.627   4.503
64712W        W36438  17.959  11.411  12.128
64713W        W36439  37.932  33.022  13.068
64714W        W36440  11.200  44.828  14.711
64715W        W36441  17.286  44.826   1.881
64716W        W36442   6.058  29.121  14.733
64717W        W36443   6.895  35.595  11.050
64718W        W36444  36.558   1.633   2.872
64719W        W36445  24.572  43.295  13.298
64720W        W36446  22.884   6.358   0.686
64721W        W36447  26.663  14.235  12.027
64722W        W36448   3.850   6.358   3.239
64723W        W36449  37.383  20.770  13.767
64724W        W36450   6.299  15.287  14.847
64725W        W36451  11.118  36.641  12.648
64726W        W36452  21.241  31.388  14.028
64727W        W36453  15.299  41.128  14.382
64728W        W36454   5.772   8.313   0.840
64729W        W36455  19.652  35.277   0.197
64730W        W36456  16.315   6.206  14.924
64731W        W36457   0.007   3.215  14.834
64732W        W36458  18.330  16.903  14.464
64733W        W36459  13.100  15.411   4.994
64734W        W36460  24.234  40.032   4.625
64735W        W36461  14.062  19.638   4.472
64736W        W36462  20.632  15.055   0.924
64737W        W36463   2.742   6.930  13.411
64738W        W36464  12.740   8.730   2.892
64739W        W36465   4.874  11.165   2.788
64740W        W36466  26.475   8.814  10.893
64741W        W36467  25.678   7.239   4.182
64742W        W36468  28.619  29.038  11.140
64743W        W36469   1.015  40.284   4.628
64744W        W36470  31.761   2.314  11.897
64745W        W36471   3.367  18.032  14.881
64746W        W36472  39.342  23.745  12.086
64747W        W36473  36.670  33.089  12.841
64748W        W36474  32.467  20.778   0.603
64749W        W36475  31.384  29.107  11.973
64750W        W36476  13.777  17.067  11.583
64751W        W36477  28.467  15.594  12.539
64752W        W36478  21.774  10.845   3.225
64753W        W36479  11.341  33.222   0.350
64754W        W36480  39.053   7.107   1.270
64755W        W36481   5.112  18.229   2.295
64756W        W36482  15.578  12.992  12.334
64757W        W36483   1.154  21.107  14.235
64758W        W36484  34.908  28.634  14.654
64759W        W36485  28.591  34.659   3.139
64760W        W36486   6.242  43.702   0.870
64761W        W36487  31.457  36.118   0.985
64762W        W36488  13.699  25.700  11.752
64763W        W36489  22.028  17.986  14.832
64764W        W36490  18.470  22.857   0.493
64765W        W36491  23.716   9.830  14.818
64766W        W36492  30.514  25.825   1.909
64767W        W36493  11.696  12.397  14.961
64768W        W36494  10.495  16.759  11.528
64769W        W36495  31.642   2.845  14.006
64770W        W36496  39.632  30.461   0.150
64771W        W36497  27.119  40.352  10.234
64772W        W36498  31.018   4.713  10.675
64773W        W36499  10.263  44.773   3.897
64774W        W36500  17.010  17.523   1.656
64775W        W36501  11.904   2.426   0.865
64776W        W36502   3.256  29.536   0.156
64777W        W36503  33.410  27.477   2.229
64778W        W36504  27.913  36.395   0.431
64779W        W36505  34.345  39.520  12.552
64780W        W36506  33.975  44.745  10.997
64781W        W36507  42.931  31.932  13.861
64782W        W36508  14.349  44.297  10.617
64783W        W36509  42.478   7.449  11.924
64784W        W36510   1.824   2.100   0.783
64785W        W36511   9.975  36.350   4.939
64786W        W36512  31.374  40.326  14.501
64787W        W36513  23.091  36.071  13.391
64788W        W36514   8.295  40.505   0.170
64789W        W36515  21.683  34.474   2.224
64790W        W36516  44.982  35.345   0.873
64791W        W36517  21.483  20.306   2.716
64792W        W36518  21.898  35.067   1.362
64793W        W36519  39.601  12.338  13.891
64794W        W36520  26.270  37.802   3.757
64795W        W36521   4.871  21.424   0.486
64796W        W36522  42.896  23.167  14.615
64797W        W36523   4.246  11.659  11.421
64798W        W36524   2.190  44.863   0.920
64799W        W36525  19.528  36.328  14.640
64800W        W36526  27.498  14.686  11.151
64801W        W36527   3.155  28.553  11.979
64802W        W36528  41.494  23.136   0.769
64803W        W36529   9.224   1.184   2.261
64804W        W36530  27.880  34.031   3.445
64805W        W36531  23.409   9.521   2.745
64806W        W36532  25.797   9.239   1.232
64807W        W36533  28.228  20.249  10.771
64808W        W36534  21.034   9.196  13.169
64809W        W36535  41.537  10.410  12.277
64810W        W36536  27.477   2.873   1.342
64811W        W36537  43.362   3.902  14.609
64812W        W36538  12.232  22.215   2.509
64813W        W36539  19.290  30.572  13.477
64814W        W36540  20.717  28.347   0.020
64815W        W36541  29.717  20.218   4.163
64816W        W36542  19.073  11.024   2.320
64817W        W36543  44.271  24.534   4.091
64818W        W36544  23.755  13.257  13.997
64819W        W36545  29.448  16.217  11.734
64820W        W36546  37.500  40.759  11.649
64821W        W36547  40.070  14.163   1.840
64822W        W36548  26.479  22.158   3.104
64823W        W36549  14.520  43.465  14.390
64824W        W36550  39.118   7.888   4.678
64825W        W36551  25.093  31.586  12.178
64826W        W36552  28.160  29.466  13.050
64827W        W36553  20.868   9.808   2.411
64828W        W36554  26.498   9.952   3.031
64829W        W36555   1.997  12.651  14.343
64830W        W36556  31.071  38.609  14.504
64831W        W36557  33.779  29.459  13.395
64832W        W36558  23.821  42.008   1.643
64833W        W36559  11.139  37.413   3.091
64834W        W36560  28.908  13.246  11.609
64835W        W36561   9.093  12.359   0.831
64836W        W36562   2.776  43.819   1.795
64837W        W36563  43.583  10.269  14.856
64838W        W36564  40.859  33.204  11.105
64839W        W36565  30.437  11.684   0.476
64840W        W36566  19.829  43.108   0.260
64841W        W36567  38.403  31.658   2.244
64842W        W36568  38.063  36.295   1.820
64843W        W36569  44.984  44.198   2.777
64844W        W36570  11.210  21.586  14.011
64845W        W36571   5.242  37.302   0.663
64846W        W36572   4.670  41.344   2.308
64847W        W36573  38.990  31.641   9.600
64848W        W36574  17.734  24.472  14.938
64849W        W36575  44.876  17.772   3.615
64850W        W36576  35.772  12.424  10.647
64851W        W36577  38.151  31.185   1.277
64852W        W36578   1.322  32.816  14.970
64853W        W36579  29.114  13.718   4.100
64854W        W36580  44.806  20.185   1.277
64855W        W36581  32.503  32.999   1.377
64856W        W36582  32.983  29.412   2.770
64857W        W36583   8.083  15.153  11.311
64858W        W36584  31.049  12.372  11.767
64859W        W36585  21.132  11.714   1.435
64860W        W36586  39.310  14.935  12.600
64861W        W36587  40.044  11.422   3.809
64862W        W36588  28.507  44.282   2.722
64863W        W36589  35.470  40.300   3.229
64864W        W36590  11.498  34.160   5.001
64865W        W36591  10.798  38.928   0.577
64866W        W36592   0.902  38.115   0.368
64867W        W36593  34.006   3.322  14.369
64868W        W36594   0.836  42.497   1.067
64869W        W36595   7.150   7.698   1.929
64870W        W36596  32.136  35.488  12.458
64871W        W36597  10.044  44.260   4.706
64872W        W36598  20.593   6.347   0.461
64873W        W36599  25.508   2.765   4.309
64874W        W36600  31.602  33.364   2.328
64875W        W36601  41.321   9.477   3.332
64876W        W36602  25.086  43.273  14.393
64877W        W36603  27.589  39.656  14.976
64878W        W36604   4.638  14.273  14.971
64879W        W36605  32.591   6.957   2.237
64880W        W36606  25.734  23.615  10.938
64881W        W36607  18.192  33.863   2.927
64882W        W36608  26.968  24.054   0.709
64883W        W36609  42.912   8.307   4.616
64884W        W36610  15.566  20.818   1.755
64885W        W36611  41.083  21.696  12.992
64886W        W36612  29.649   0.298  10.380
64887W        W36613  15.117  36.072   4.621
64888W        W36614  32.706  24.650  11.913
64889W        W36615  22.091   0.510  12.514
64890W        W36616   4.550   1.834  12.906
64891W        W36617   8.145  12.656  11.949
64892W        W36618  28.098   9.393  12.617
64893W        W36619  30.662   0.077   3.187
64894W        W36620   3.300  29.798   3.636
64895W        W36621  40.024  12.247   2.621
64896W        W36622  13.174  39.224  11.572
64897W        W36623  38.845  32.198  11.662
64898W        W36624   2.983  35.939  14.209
64899W        W36625  28.191   1.012   2.426
64900W        W36626  35.969  40.217  13.836
64901W        W36627  13.175  37.263   0.320
64902W        W36628  36.850  32.818   0.915
64903W        W36629  28.051   0.950   4.815
64904W        W36630  30.426   9.723   4.924
64905W        W36631   6.171  16.781  14.781
64906W        W36632  36.599  13.291  13.486
64907W        W36633  43.296  34.453   0.912
64908W        W36634   8.903  18.144   2.278
64909W        W36635  43.366  40.421  11.957
64910W        W36636   4.409  32.015  10.473
64911W        W36637  38.958   6.906   4.277
64912W        W36638  35.540  14.218   4.382
64913W        W36639  36.452   2.386   2.500
64914W        W36640  41.898  41.676   4.915
64915W        W36641  43.654  11.757   3.970
64916W        W36642  42.960  23.559  12.921
64917W        W36643  27.020  26.465   4.508
64918W        W36644  13.883   7.619  11.669
64919W        W36645  22.593   7.445   5.109
64920W        W36646  30.291   9.009  11.067
64921W        W36647   6.154   8.792   2.778
64922W        W36648  20.144  44.248  10.771
64923W        W36649  10.642  20.700   4.579
64924W        W36650  26.969   9.668  13.470
64925W        W36651   5.351  16.607   0.405
64926W        W36652  10.871  40.962  14.010
64927W        W36653  26.160  34.572  11.221
64928W        W36654   4.692  22.677   4.203
64929W        W36655  29.100  25.125  13.455
64930W        W36656  31.803  35.528  14.776
64931W        W36657  43.261  32.409   4.703
64932W        W36658  13.332  11.816  12.799
64933W        W36659  24.198  28.166   3.018
64934W        W36660   6.815   1.783   0.334
64935W        W36661  26.653  37.377   1.809
64936W        W36662  34.411  17.706   0.796
64937W        W36663  33.954  10.140   2.587
64938W        W36664  16.424   9.278   3.396
64939W        W36665   2.918   1.474   1.248
64940W        W36666  44.418   2.466  12.131
64941W        W36667  31.071  44.938   0.747
64942W        W36668  37.140  10.371  12.078
64943W        W36669   1.264  43.010   0.792
64944W        W36670   9.257   5.775   4.134
64945W        W36671  21.829  43.561  13.300
64946W        W36672  17.169   6.945  12.317
64947W        W36673  25.020  17.441   5.071
64948W        W36674  22.230  36.651  13.400
64949W        W36675  26.453   7.285  13.905
64950W        W36676  38.173  23.129  10.725
64951W        W36677  30.535  44.459  10.217
64952W        W36678  18.995   3.359  12.843
64953W        W36679   7.738   4.813  13.500
64954W        W36680   6.198  17.331   0.695
64955W        W36681  14.063  35.332  12.358
64956W        W36682  35.588  30.651  10.467
64957W        W36683  20.032  25.664  10.758
64958W        W36684  21.150  17.060   3.136
64959W        W36685  29.993  14.669   3.490
64960W        W36686   1.019  17.586  13.808
64961W        W36687  30.863  32.937  10.685
64962W        W36688  12.170   9.173  13.024
64963W        W36689  39.357  31.865   0.699
64964W        W36690  32.924  20.911  12.052
64965W        W36691  11.272  35.701  12.269
64966W        W36692  21.457  16.626   2.336
64967W        W36693  26.026  28.963   2.236
64968W        W36694  19.098   5.376   0.701
64969W        W36695  39.364  10.217   2.712
64970W        W36696  33.931   2.159  12.710
64971W        W36697   4.748  41.489  13.847
64972W        W36698  40.844   2.024  11.592
64973W        W36699   2.509  28.672   3.504
64974W        W36700  33.540   1.745  14.282
64975W        W36701  21.296  13.443  10.749
64976W        W36702  39.423  43.987  13.491
64977W        W36703   7.442  38.363   2.807
64978W        W36704   9.429  33.420  11.622
64979W        W36705  25.723  30.567  10.718
64980W        W36706  42.978  30.104   2.762
64981W        W36707   6.723  23.262  12.046
64982W        W36708  30.453  40.854   4.486
64983W        W36709  33.344  38.360  13.075
64984W        W36710  12.868  14.185  13.186
64985W        W36711   2.152  26.775   5.080
64986W        W36712  22.950  21.497  13.372
64987W        W36713  22.579  28.097   1.233
64988W        W36714  24.996  43.606  14.787
64989W        W36715  14.767  10.255  13.851
64990W        W36716  31.766  12.479  13.418
64991W        W36717  41.634  30.690   3.842
64992W        W36718  24.547   1.659  14.986
64993W        W36719   7.250  30.843  10.983
64994W        W36720  23.065   2.176   2.266
64995W        W36721  39.932   7.375  10.622
64996W        W36722  41.755  21.245  11.730
64997W        W36723  43.781   4.841   0.913
64998W        W36724   3.371  21.282   2.672
64999W        W36725  43.839  37.994  12.847
65000W        W36726  30.109   1.166   3.899
65001W        W36727  40.340  24.701   1.877
65002W        W36728  16.246  44.507  10.476
65003W        W36729  42.253   4.838  14.859
65004W        W36730  33.019  35.115   2.668
65005W        W36731  26.535  28.980   4.148
65006W        W36732   6.275  44.474  11.066
65007W        W36733  34.098  38.381  13.363
65008W        W36734   5.356   0.075  10.713
65009W        W36735  21.554  28.658   0.620
65010W        W36736   7.361   3.292  12.081
65011W        W36737  26.839   0.358  10.303
65012W        W36738  42.618  31.670   3.427
65013W        W36739  16.504  29.000  10.485
65014W        W36740  18.265  30.712  12.676
65015W        W36741  33.737   9.177  14.790
65016W        W36742  14.285  10.218   2.263
65017W        W36743  37.081   6.271   1.381
65018W        W36744  39.587  42.290  10.783
65019W        W36745  34.057   5.192   2.222
65020W        W36746  21.970  24.785   1.011
65021W        W36747   0.736   8.081   3.699
65022W        W36748   8.070  17.078   0.881
65023W        W36749  43.934  10.230  14.014
65024W        W36750  35.776  13.188  14.834
65025W        W36751  41.577  12.728   3.542
65026W        W36752   8.763  15.578  14.983
65027W        W36753  33.666  36.533   3.661
65028W        W36754  12.185  35.806   1.031
65029W        W36755  11.663  23.464  13.922
65030W        W36756  40.988  18.856   3.397
65031W        W36757   6.481  42.386   0.324
65032W        W36758  21.854  33.349   1.342
65033W        W36759  13.601  22.946   0.936
65034W        W36760  38.618  31.148   1.969
65035W        W36761  15.842  24.219  13.953
65036W        W36762  20.294   1.729   1.715
65037W        W36763  17.882  24.090  11.580
65038W        W36764  24.223   2.912   1.833
65039W        W36765  35.548  32.553  14.362
65040W        W36766  23.266  31.911  10.929
65041W        W36767  21.775  20.618  12.507
65042W        W36768  34.637  41.254  10.696
65043W        W36769  12.318   1.989  10.406
65044W        W36770   1.568  29.123  12.317
65045W        W36771  33.861  17.394  14.502
65046W        W36772  40.879  33.522   1.761
65047W        W36773  44.515   8.262  10.720
65048W        W36774   9.225  33.804   2.184
65049W        W36775  37.884   5.373   1.773
65050W        W36776  34.502  12.794  14.967
65051W        W36777  14.288  39.322  13.316
65052W        W36778  16.739  23.332   0.763
65053W        W36779   2.453   1.198   3.587
65054W        W36780  31.863  26.898   4.357
65055W        W36781  35.527  39.382   2.435
65056W        W36782  12.858  18.010  10.728
65057W        W36783  17.585   5.136  13.827
65058W        W36784  21.150   3.198  14.563
65059W        W36785  43.692  22.821   3.578
65060W        W36786  23.659  44.245   4.742
65061W        W36787  28.936  21.825  13.248
65062W        W36788  34.009  31.909  13.342
65063W        W36789  35.604  40.323  11.650
65064W        W36790  30.808  40.452  11.235
65065W        W36791   9.766   7.132   0.737
65066W        W36792  22.763  30.364   5.052
65067W        W36793  36.383   6.426  14.798
65068W        W36794  22.386  19.578   3.264
65069W        W36795  42.796  12.819  12.593
65070W        W36796   6.331  13.216   0.457
65071W        W36797   9.785   5.931  11.096
65072W        W36798  40.525   0.739  11.212
65073W        W36799  39.399  32.394   3.919
65074W        W36800  38.440  16.284   0.159
65075W        W36801  34.822   6.581  12.342
65076W        W36802  14.277  42.330   1.097
65077W        W36803  17.217  10.111   1.206
65078W        W36804  35.055   2.170   1.374
65079W        W36805  26.444   6.468   1.219
65080W        W36806  32.531  41.952  13.534
65081W        W36807  17.166  37.158  11.061
65082W        W36808  29.186  29.678   0.873
65083W        W36809   4.740  40.045  12.634
65084W        W36810   1.297   9.230   3.605
65085W        W36811  24.943  27.326  11.908
65086W        W36812  33.000   5.725  13.067
65087W        W36813  13.093  10.242  12.551
65088W        W36814  29.914   1.494  12.441
65089W        W36815  12.283  37.149  10.991
65090W        W36816   7.542  13.111   0.657
65091W        W36817  26.414  19.154  14.805
65092W        W36818  15.758   6.914   4.847
65093W        W36819   3.155  37.008   0.400
65094W        W36820  15.312  23.586   0.031
65095W        W36821  25.434  23.563   2.411
65096W        W36822  31.230  14.368   1.289
65097W        W36823  22.361   7.044  13.770
65098W        W36824  25.750  42.347   2.715
65099W        W36825  16.197  32.023   4.648
65100W        W36826  10.232  15.111   3.691
65101W        W36827  39.918  14.334   2.292
65102W        W36828  31.825  27.647  14.289
65103W        W36829  38.040  17.730   4.712
65104W        W36830  31.597  42.343  13.715
65105W        W36831  31.536   4.162   4.914
65106W        W36832  17.088   9.670   0.474
65107W        W36833   2.671  13.755  10.518
65108W        W36834  13.195   8.689   0.423
65109W        W36835  34.147  29.746  10.704
65110W        W36836  22.094   4.149  14.492
65111W        W36837  44.486   8.378   4.405
65112W        W36838  28.498  13.210   2.252
65113W        W36839  38.234  12.821   1.179
65114W        W36840   2.919  29.523   1.331
65115W        W36841  18.509  21.690   4.286
65116W        W36842   2.475   1.392   0.958
65117W        W36843  33.331   2.758  13.363
65118W        W36844  20.911  26.610  10.165
65119W        W36845  20.567  28.906  11.957
65120W        W36846  17.297  18.160  14.234
65121W        W36847  34.349  26.048  12.069
65122W        W36848   3.983  12.704   2.918
65123W        W36849  25.753  23.336   0.361
65124W        W36850   7.729  18.482   3.254
65125W        W36851  35.647   0.542   4.389
65126W        W36852  39.079   9.652   4.110
65127W        W36853  35.836  20.511   2.238
65128W        W36854  42.744  21.596  10.754
65129W        W36855  20.518  28.753   2.395
65130W        W36856  22.541  21.813   3.823
65131W        W36857  18.764  38.086   1.440
65132W        W36858  25.172  35.252   1.213
65133W        W36859   1.457  41.852  14.346
65134W        W36860   1.347   3.816   2.508
65135W        W36861  40.547  17.098  14.221
65136W        W36862  23.024  10.602  13.161
65137W        W36863  41.306  33.877   0.793
65138W        W36864   5.919  33.248   3.192
65139W        W36865  20.766  37.794  10.563
65140W        W36866  30.197  15.578   2.365
65141W        W36867  19.994  28.592  12.711
65142W        W36868  29.405  28.396  12.054
65143W        W36869  40.496   4.323  11.471
65144W        W36870  12.151  33.155   3.191
65145W        W36871  13.791  22.634  11.172
65146W        W36872   9.268  33.251   3.304
65147W        W36873  37.838  19.994  14.389
65148W        W36874  27.337  23.452  14.784
65149W        W36875  10.695  13.289   1.609
65150W        W36876   1.498  20.628   1.375
65151W        W36877  12.333  22.517  11.466
65152W        W36878  25.928  14.864   1.794
65153W        W36879  33.374  36.517  14.628
65154W        W36880   9.284  21.238   3.332
65155W        W36881  14.369  33.071  11.435
65156W        W36882   2.395  31.664   4.213
65157W        W36883  42.077   5.997   3.648
65158W        W36884   9.790  40.845   4.364
65159W        W36885   4.544  10.579  13.077
65160W        W36886   0.572  40.415  13.344
65161W        W36887  36.406  22.141  11.967
65162W        W36888   7.803   3.368  13.919
65163W        W36889  36.290  32.840   4.511
65164W        W36890  33.437   2.669  12.445
65165W        W36891  36.120   7.851  13.569
65166W        W36892  26.191  26.867  14.382
65167W        W36893  39.116  21.145   9.842
65168W        W36894  25.704  42.826  14.865
65169W        W36895  29.987  28.273  14.036
65170W        W36896  43.008  10.601   0.939
65171W        W36897  35.144   6.936  13.958
65172W        W36898  29.164  22.604   3.265
65173W        W36899  37.488  24.477   2.138
65174W        W36900  38.861  44.763   3.762
65175W        W36901  31.540   4.669   1.375
65176W        W36902  32.609  19.455   2.425
65177W        W36903   0.892  37.911   1.934
65178W        W36904  28.227   8.734   2.797
65179W        W36905  26.146  20.467   0.274
65180W        W36906  36.890  34.589  11.173
65181W        W36907   9.251  34.349  12.887
65182W        W36908   0.876  40.901   0.255
65183W        W36909  33.147  43.871   0.351
65184W        W36910   9.660  16.926  11.560
65185W        W36911  10.249  39.798   3.740
65186W        W36912  27.171   6.450  12.094
65187W        W36913   5.970   7.842   4.761
65188W        W36914  16.314  24.406   3.424
65189W        W36915  34.773   5.631  13.923
65190W        W36916  30.472  19.667   0.816
65191W        W36917  36.905   8.985   3.162
65192W        W36918   9.629  39.915  12.924
65193W        W36919  36.385  31.695  12.580
65194W        W36920  25.461  23.795  14.101
65195W        W36921  18.958  12.197  13.385
65196W        W36922  41.431   2.995  14.297
65197W        W36923   2.892  34.826  13.160
65198W        W36924   2.311  40.551   4.210
65199W        W36925  34.517  33.566   3.375
65200W        W36926  29.224   3.868  11.197
65201W        W36927  12.170  37.575  13.658
65202W        W36928  34.493  33.974  12.464
65203W        W36929   7.574  10.795   2.805
65204W        W36930   5.712  12.886   5.053
65205W        W36931  17.617  31.276   1.385
65206W        W36932  26.120  32.845   4.077
65207W        W36933  33.616  14.929  11.545
65208W        W36934  36.052  28.751  12.996
65209W        W36935  35.028  35.150  13.582
65210W        W36936  28.070  21.884   3.786
65211W        W36937  42.825  27.622   3.181
65212W        W36938  21.148  38.254   3.325
65213W        W36939   4.040  40.871   1.142
65214W        W36940  13.274   1.735   0.282
65215W        W36941  30.104  12.200   2.916
65216W        W36942  15.608  14.141  13.772
65217W        W36943  19.142  40.885  11.640
65218W        W36944  40.718  36.902   2.338
65219W        W36945   2.366  36.315  11.602
65220W        W36946  34.846  27.641   0.396
65221W        W36947  11.620  40.958  10.537
65222W        W36948  17.471  11.378  11.356
65223W        W36949  10.676  44.769  14.593
65224W        W36950   9.765   8.342  13.944
65225W        W36951  29.421  36.054  10.799
65226W        W36952  32.818  40.829   4.169
65227W        W36953  18.648  43.642  13.310
65228W        W36954  31.514  27.535  11.690
65229W        W36955  17.332  39.249  12.260
65230W        W36956  35.179   4.324   2.114
65231W        W36957  37.600  29.440   0.857
65232W        W36958  14.447   7.745   0.954
65233W        W36959  31.597  27.234  12.108
65234W        W36960  42.310   9.594  13.868
65235W        W36961   9.246   7.203   1.488
65236W        W36962  16.707  21.779   3.873
65237W        W36963  33.431  43.923  14.914
65238W        W36964  31.814   4.428   3.903
65239W        W36965  23.474  11.267  12.963
65240W        W36966   3.808  38.758   1.948
65241W        W36967  22.210  14.194   4.412
65242W        W36968  32.932  25.722   4.089
65243W        W36969  33.268  16.641   1.590
65244W        W36970   7.144  28.998  10.528
65245W        W36971   6.849  34.060   4.611
65246W        W36972  37.084  35.728  14.013
65247W        W36973  37.862  36.638   0.376
65248W        W36974  12.179   5.345   3.701
65249W        W36975  13.839   5.688  12.021
65250W        W36976  42.066   0.018   0.956
65251W        W36977  18.143  34.573   0.032
65252W        W36978  16.232  28.618  11.919
65253W        W36979  16.945  35.843   1.886
65254W        W36980  26.177   7.882  14.956
65255W        W36981  32.954   0.380  14.311
65256W        W36982  33.157   8.473   3.286
65257W        W36983   3.948  31.064   0.719
65258W        W36984  38.386  26.981   0.809
65259W        W36985  40.843   5.809   0.808
65260W        W36986  20.215  16.274   4.473
65261W        W36987  41.621  15.429   1.890
65262W        W36988  11.989  22.942   0.684
65263W        W36989  16.599  10.798   3.786
65264W        W36990   3.871  43.904   0.456
65265W        W36991   8.610  34.782   4.590
65266W        W36992  43.001  12.033   1.593
65267W        W36993   7.879   2.238   1.795
65268W        W36994  29.501  42.278  12.310
65269W        W36995  12.342   4.902   1.771
65270W        W36996  27.377  18.235   1.346
65271W        W36997   0.005  40.859   1.321
65272W        W36998  30.181  19.798  11.507
65273W        W36999  32.136  23.980   3.613
65274W        W37000  24.303  17.329   4.047
65275W        W37001   3.729   9.791   3.897
65276W        W37002  16.901  12.648  12.520
65277W        W37003  23.011  43.501   1.186
65278W        W37004  28.528  32.648   2.796
65279W        W37005  44.121  10.358   5.117
65280W        W37006  34.680  40.091  13.877
65281W        W37007  24.381  12.854  11.516
65282W        W37008  25.181  26.947   4.367
65283W        W37009  40.533  11.528   1.879
65284W        W37010  10.302  33.571  11.393
65285W        W37011  25.700   7.181  11.979
65286W        W37012  27.031   2.115   0.007
65287W        W37013  25.050  13.806   1.197
65288W        W37014  24.707  12.861  11.930
65289W        W37015   8.400  36.998  14.077
65290W        W37016  34.931  32.081   0.960
65291W        W37017  16.630  19.430   1.014
65292W        W37018  37.172   2.829   0.883
65293W        W37019  10.906   5.330   2.226
65294W        W37020  39.192  35.015  12.121
65295W        W37021   1.457  38.014  12.510
65296W        W37022  20.251  44.021   4.187
65297W        W37023  23.344  31.961  11.925
65298W        W37024  44.439  21.695   2.299
65299W        W37025  43.415  21.351   1.047
65300W        W37026   8.373  44.972  12.068
65301W        W37027  41.751  28.634   2.802
65302W        W37028  44.423   1.715  12.534
65303W        W37029  21.376  38.025  12.356
65304W        W37030  28.278  40.918   0.761
65305W        W37031  10.397  22.224  13.747
65306W        W37032   8.207  38.795  14.395
65307W        W37033  13.906  24.141  13.424
65308W        W37034  13.545   5.845   3.757
65309W        W37035   9.256  27.708   4.272
65310W        W37036  24.902  36.930  11.511
65311W        W37037  23.955  28.491  12.096
65312W        W37038   1.748  28.675  12.480
65313W        W37039  10.223  41.249   1.392
65314W        W37040   6.930  15.756  11.591
65315W        W37041  28.910  32.536  12.813
65316W        W37042   2.589  15.269  12.985
65317W        W37043  35.041   7.244   4.141
65318W        W37044  33.815  40.494   1.317
65319W        W37045  27.946  14.224   2.770
65320W        W37046  18.494   9.542   0.246
65321W        W37047  36.515  14.730   1.371
65322W        W37048  10.231  20.765   1.695
65323W        W37049  16.799  43.727   0.315
65324W        W37050  29.232  12.208   1.017
65325W        W37051  36.287   1.726  14.508
65326W        W37052   0.808  34.910   0.187
65327W        W37053  27.002  43.199   2.640
65328W        W37054  23.638  22.671   3.205
65329W        W37055  27.340  30.973   4.075
65330W        W37056  31.234  31.125  13.590
65331W        W37057  19.247  17.839   2.434
65332W        W37058  12.266  31.442   3.782
65333W        W37059  17.179  39.927   0.466
65334W        W37060  26.551   9.288   0.465
65335W        W37061  23.473  37.303  13.850
65336W        W37062  40.364  17.492   0.532
65337W        W37063  26.553   9.660  13.755
65338W        W37064  38.121  17.114  12.681
65339W        W37065   9.448  14.124   0.694
65340W        W37066  13.758   0.010  14.789
65341W        W37067  34.484  23.288   0.644
65342W        W37068   4.841  13.225   4.999
65343W        W37069   0.737  29.606  12.796
65344W        W37070  21.880  17.887   3.688
65345W        W37071  39.676   2.382  12.024
65346W        W37072   0.475   6.139  11.201
65347W        W37073  24.525  19.272   2.826
65348W        W37074  20.949  31.941  14.723
65349W        W37075  19.613  26.544   4.130
65350W        W37076   7.115  28.099  12.451
65351W        W37077  33.257   3.727   4.653
65352W        W37078   8.288   3.913   1.370
65353W        W37079  31.159  15.267  12.980
65354W        W37080   0.805  17.295   2.860
65355W        W37081  39.077  24.116   3.210
65356W        W37082  26.464  44.780  11.594
65357W        W37083  10.385  19.346   0.424
65358W        W37084  10.993  28.418  11.872
65359W        W37085   1.505  21.694  12.968
65360W        W37086  21.223   1.930   0.593
65361W        W37087  32.919  23.152   0.268
65362W        W37088  39.815  26.483  11.220
65363W        W37089  27.628   4.380  13.843
65364W        W37090  43.696  24.928   4.461
65365W        W37091  34.165  19.125   1.051
65366W        W37092  39.512  19.996  13.778
65367W        W37093   2.307  21.987  11.201
65368W        W37094   3.668  40.447   0.351
65369W        W37095   7.046  33.451  11.586
65370W        W37096  21.628  31.369   2.416
65371W        W37097  27.456  31.465  11.039
65372W        W37098  19.262  10.569  12.837
65373W        W37099  30.255  44.690   1.144
65374W        W37100   7.670  10.168   5.275
65375W        W37101  11.189  36.057   3.089
65376W        W37102  13.074  28.223   4.259
65377W        W37103  31.250   0.810  14.934
65378W        W37104  21.320   7.478  13.038
65379W        W37105  19.503  26.418   2.105
65380W        W37106  16.776  33.523   0.771
65381W        W37107  26.065  22.480  12.915
65382W        W37108  31.260  35.827  11.592
65383W        W37109  14.114  10.718  14.272
65384W        W37110  38.000  35.398   1.903
65385W        W37111  29.948   9.211   4.109
65386W        W37112   0.418  15.038   1.727
65387W        W37113  36.873  43.438   1.387
65388W        W37114  11.140  33.755   3.659
65389W        W37115   5.365  12.159  10.638
65390W        W37116   4.264  40.861  14.793
65391W        W37117  24.174   3.537  14.001
65392W        W37118  40.938  33.292   3.987
65393W        W37119  10.642  19.308  11.637
65394W        W37120  24.727  30.473   0.289
65395W        W37121  30.933  21.103   3.187
65396W        W37122  41.398   6.026   3.292
65397W        W37123  22.031  30.188   1.258
65398W        W37124  18.513  12.117   2.654
65399W        W37125  14.839  18.783   0.738
65400W        W37126  27.582   5.895   4.862
65401W        W37127  36.490  13.776  14.954
65402W        W37128  14.560  36.926  13.414
65403W        W37129  36.826  23.042   2.627
65404W        W37130  19.738  32.032  12.983
65405W        W37131  10.329   8.253   2.427
65406W        W37132  30.596  11.182   0.634
65407W        W37133  24.668  25.140  12.625
65408W        W37134  42.511  43.613   0.733
65409W        W37135  44.101  35.522  10.903
65410W        W37136  11.058   4.367   4.223
65411W        W37137  21.093  14.557  14.278
65412W        W37138  34.084  26.205  14.172
65413W        W37139  34.306  44.345   3.150
65414W        W37140  19.277  14.670   2.886
65415W        W37141  19.758  14.685  14.724
65416W        W37142  26.924  39.486   0.684
65417W        W37143  18.551   7.100  11.211
65418W        W37144  39.254  15.236   5.020
65419W        W37145  16.582  10.187   2.653
65420W        W37146  20.052  24.006  13.152
65421W        W37147  26.644  33.132   4.194
65422W        W37148  38.260  24.310  11.953
65423W        W37149  26.682  39.496  12.331
65424W        W37150   3.773   5.693   4.144
65425W        W37151  32.905  35.893  13.981
65426W        W37152  10.725  24.461  10.925
65427W        W37153  36.796  38.910  13.485
65428W        W37154  32.652  24.580   3.287
65429W        W37155  26.279   2.989  13.432
65430W        W37156  10.348  14.821  10.821
65431W        W37157  35.461   2.365   2.832
65432W        W37158  39.081  15.804  13.071
65433W        W37159  44.217   6.513   0.650
65434W        W37160  24.546  19.037   2.351
65435W        W37161  42.537  26.016   5.049
65436W        W37162   5.342  18.648  12.984
65437W        W37163  10.361  25.762  11.191
65438W        W37164  32.092  13.021  13.319
65439W        W37165   8.929  26.453   3.651
65440W        W37166  29.155   7.666   3.604
65441W        W37167  25.952   1.707  14.011
65442W        W37168  11.272  41.631   3.003
65443W        W37169   9.610   7.771   4.625
65444W        W37170  15.218  33.959  11.270
65445W        W37171  20.307  11.159  11.738
65446W        W37172   3.259   5.913   1.909
65447W        W37173   3.656  15.296  10.663
65448W        W37174   5.379  12.181  11.743
65449W        W37175  40.540  11.835  13.536
65450W        W37176  41.732  38.931   5.051
65451W        W37177  29.520  38.772  13.391
65452W        W37178   2.285  43.868   2.765
65453W        W37179  15.782  38.110   2.886
65454W        W37180  16.240  39.450  11.139
65455W        W37181  29.464  36.844   0.005
65456W        W37182   1.841  11.457   2.658
65457W        W37183  10.214  31.481  14.917
65458W        W37184   4.392  39.037   0.291
65459W        W37185  10.722   1.322   5.021
65460W        W37186  18.308  34.384  13.945
65461W        W37187   1.421  41.630  14.909
65462W        W37188  44.026  11.766  14.832
65463W        W37189  40.576  38.918   2.764
65464W        W37190   4.841   6.696  11.783
65465W        W37191  42.053   2.012  14.843
65466W        W37192  17.329  20.577   1.344
65467W        W37193  24.014  30.730   3.192
65468W        W37194   3.919  12.698   4.718
65469W        W37195  26.067  21.272  13.340
65470W        W37196   4.362  22.213   4.298
65471W        W37197   0.316  13.873  12.260
65472W        W37198  25.662  24.734  14.033
65473W        W37199  39.461  37.835  10.532
65474W        W37200   3.344  36.228   3.266
65475W        W37201   5.349  28.205   1.275
65476W        W37202  16.510  40.605   9.789
65477W        W37203  24.613  41.809   3.152
65478W        W37204  33.659  24.107  11.016
65479W        W37205   5.507  16.434   1.757
65480W        W37206  37.134  37.792   5.044
65481W        W37207  40.526  12.250   2.354
65482W        W37208   2.189  40.834   0.999
65483W        W37209  22.488   7.208  14.817
65484W        W37210  36.879  29.210   1.203
65485W        W37211  14.753  41.481   2.752
65486W        W37212  24.636  16.222   3.764
65487W        W37213  25.556  18.148  13.782
65488W        W37214  11.461  33.029   4.702
65489W        W37215  36.836  25.275   0.294
65490W        W37216  34.178  21.268  13.687
65491W        W37217  23.244  33.875   3.083
65492W        W37218  28.496  42.399  14.175
65493W        W37219  26.148   1.832  11.137
65494W        W37220  16.566   6.496  14.393
65495W        W37221   4.228   0.010   0.935
65496W        W37222  12.781  31.926   2.320
65497W        W37223  34.586  23.015   2.311
65498W        W37224  42.924  28.265   0.857
65499W        W37225  12.234   5.569  11.925
65500W        W37226  40.136  28.510   1.579
65501W        W37227  16.780  36.729   1.395
65502W        W37228  33.409   3.347   4.228
65503W        W37229  24.666  25.652   3.648
65504W        W37230  33.875  16.831   0.820
65505W        W37231  39.310   5.174  11.874
65506W        W37232   5.665  21.202  13.567
65507W        W37233   5.240  30.016  12.446
65508W        W37234  44.403  33.102  14.697
65509W        W37235  43.251  39.282   1.762
65510W        W37236  38.145   0.284  13.454
65511W        W37237  39.788  32.598  11.022
65512W        W37238  31.347  42.467  11.174
65513W        W37239  28.442  30.398   0.813
65514W        W37240  39.464  43.318   1.672
65515W        W37241  36.350  23.260  11.963
65516W        W37242  22.157  32.118   4.544
65517W        W37243  38.822   6.356  11.826
65518W        W37244  14.724   9.930   2.251
65519W        W37245  12.574  42.482   1.815
65520W        W37246  15.294   8.071   4.211
65521W        W37247  18.710   3.694  12.133
65522W        W37248   3.700   2.732  11.270
65523W        W37249  10.570  37.298   0.380
65524W        W37250  29.860  20.118   2.818
65525W        W37251  44.682   5.795  11.002
65526W        W37252   1.868  44.791  13.773
65527W        W37253  36.312  11.923   3.161
65528W        W37254  39.315  20.791  12.442
65529W        W37255  39.537  29.382  12.527
65530W        W37256  36.650  43.948  12.940
65531W        W37257   8.030  37.945  12.022
65532W        W37258  18.324  37.431   1.746
65533W        W37259  31.490  26.992  13.086
65534W        W37260  25.907   4.924   3.741
65535W        W37261  20.855  27.529  10.048
65536W        W37262  18.637  26.511   2.372
65537W        W37263  19.373  25.832  13.479
65538W        W37264   5.764  29.570   1.626
65539W        W37265  33.967   5.246   4.102
65540W        W37266  39.708  19.693   3.707
65541W        W37267  23.504  29.076   4.578
65542W        W37268  43.315  15.577  13.819
65543W        W37269  22.924  40.879   3.625
65544W        W37270  25.745  14.206   0.439
65545W        W37271   0.437  28.568  13.619
65546W        W37272  18.536  12.730  10.834
65547W        W37273  20.971  24.030  13.451
65548W        W37274  30.346  24.039  14.476
65549W        W37275  34.844  17.636   2.990
65550W        W37276  32.574   3.388  11.187
65551W        W37277   6.015  43.106   5.090
65552W        W37278  36.524  22.627   4.558
65553W        W37279  21.141  10.660   0.371
65554W        W37280   2.954  30.053  12.971
65555W        W37281  43.383  13.774   1.432
65556W        W37282  12.761   6.677  11.277
65557W        W37283  44.028  19.621  13.086
65558W        W37284  22.292  23.117   2.199
65559W        W37285   9.205  12.812   3.359
65560W        W37286   2.296  21.498  11.061
65561W        W37287  38.951  40.498  12.000
65562W        W37288  12.321  28.680  10.521
65563W        W37289  12.093  28.065  14.549
65564W        W37290  20.961   1.893  12.131
65565W        W37291  29.419  34.913  14.896
65566W        W37292   4.448  21.726  10.657
65567W        W37293  39.299  23.491   2.246
65568W        W37294  28.538  32.149   2.808
65569W        W37295  34.011  20.836   1.696
65570W        W37296  33.809  11.184  13.050
65571W        W37297  31.620  19.134   2.416
65572W        W37298  31.832  25.484  10.676
65573W        W37299  30.050  26.612   3.083
65574W        W37300   2.100  30.351  10.153
65575W        W37301   4.240  15.325  10.710
65576W        W37302  34.377   6.637   2.321
65577W        W37303  18.770  35.620   2.068
65578W        W37304  24.987  14.794  12.015
65579W        W37305  41.885  36.417  12.682
65580W        W37306  24.948  15.084   0.473
65581W        W37307  24.478  13.168  12.605
65582W        W37308  16.302  26.042  12.837
65583W        W37309   7.171  21.681  10.516
65584W        W37310  36.779  21.251  14.455
65585W        W37311  16.643  32.186   4.243
65586W        W37312  10.600   8.396  14.395
65587W        W37313   1.389  11.605  12.890
65588W        W37314  29.189  18.579  10.684
65589W        W37315  18.177  23.426  13.646
65590W        W37316  43.760  22.564  13.782
65591W        W37317  42.779   4.111  12.934
65592W        W37318  32.997  18.693  12.709
65593W        W37319  40.011   2.954  13.384
65594W        W37320  35.344  21.073   2.688
65595W        W37321  11.755  16.403   3.742
65596W        W37322  17.311  21.525   1.160
65597W        W37323  26.070  24.007   3.740
65598W        W37324  24.604  43.899   1.865
65599W        W37325  21.263  44.232   3.665
65600W        W37326   9.255  20.506   4.032
65601W        W37327  19.167  39.534  14.039
65602W        W37328   0.099  21.715   4.807
65603W        W37329  23.594  13.328  12.599
65604W        W37330   8.152  13.225   4.564
65605W        W37331  18.055  32.345   1.389
65606W        W37332  38.875  13.500  10.552
65607W        W37333  13.812  24.190  12.789
65608W        W37334  41.007   7.839   0.357
65609W        W37335  37.538  42.428  12.764
65610W        W37336  31.240  44.410  11.927
65611W        W37337   2.266   2.759   4.812
65612W        W37338   0.043  16.849   3.274
65613W        W37339   2.892  36.875   1.776
65614W        W37340  24.411  32.418   4.287
65615W        W37341  26.037  30.620  13.292
65616W        W37342  39.316  35.517  14.628
65617W        W37343  23.675   2.752  12.932
65618W        W37344  31.464   0.261   2.401
65619W        W37345  38.919  16.722  11.466
65620W        W37346  23.738   2.229  13.838
65621W        W37347  41.031  13.769  12.150
65622W        W37348  35.509  23.455   1.407
65623W        W37349  17.005  25.286   4.519
65624W        W37350  30.714  26.893   2.935
65625W        W37351  11.110  33.170  14.417
65626W        W37352  40.158   7.351   2.029
65627W        W37353  43.914  24.001  14.967
65628W        W37354  42.337  22.721   2.676
65629W        W37355  27.228  18.269  11.416
65630W        W37356  30.894  35.968  12.445
65631W        W37357  39.442  13.754  11.510
65632W        W37358  25.524   5.606  10.239
65633W        W37359   7.316  13.211  10.744
65634W        W37360   0.932  31.679  13.025
65635W        W37361   6.371  14.131  13.441
65636W        W37362  20.311   2.487  14.350
65637W        W37363  25.285  42.043  13.980
65638W        W37364  22.331   9.843  14.319
65639W        W37365  25.259  30.673  13.512
65640W        W37366  25.992  22.541   3.729
65641W        W37367   9.688  44.904   0.491
65642W        W37368  31.777  27.912   4.207
65643W        W37369   5.884  32.105   2.239
65644W        W37370  42.227  43.357   1.597
65645W        W37371   1.030   0.017   1.842
65646W        W37372   5.418  20.176   4.776
65647W        W37373  33.432  10.209   1.422
65648W        W37374  39.658  37.310   5.051
65649W        W37375  17.190  21.266  11.202
65650W        W37376   0.327  32.415   1.403
65651W        W37377  31.436   7.151  11.312
65652W        W37378   4.409  10.872  12.106
65653W        W37379  30.551  27.662   0.672
65654W        W37380   8.725  21.125  10.204
65655W        W37381  42.459  14.722   4.690
65656W        W37382  18.329  12.139   1.094
65657W        W37383   7.490  29.973  14.534
65658W        W37384   9.826  24.753   3.282
65659W        W37385  19.576   2.969   4.634
65660W        W37386  44.401   8.751  10.827
65661W        W37387  21.911   4.663   1.026
65662W        W37388  26.660  37.377  10.391
65663W        W37389   5.767  30.274   0.799
65664W        W37390  18.066   5.376  11.086
65665W        W37391  16.303  22.614  11.964
65666W        W37392   1.801  18.555   1.214
65667W        W37393   8.926  33.336  11.540
65668W        W37394  11.422   3.395   2.680
65669W        W37395  39.819  12.294  13.412
65670W        W37396   1.235   5.298   3.613
65671W        W37397  13.172  17.630  11.414
65672W        W37398   9.596  41.377   1.815
65673W        W37399   3.501  12.838   1.376
65674W        W37400  36.153   7.259   1.788
65675W        W37401   0.291  13.530  14.762
65676W        W37402  17.568   1.320   3.209
65677W        W37403  18.080  15.299   0.280
65678W        W37404  21.384   7.814  13.434
65679W        W37405  18.103  36.422   3.591
65680W        W37406   7.759  30.379   3.286
65681W        W37407   6.919  29.539  14.112
65682W        W37408   0.439  39.414  11.106
65683W        W37409   7.472  19.610   0.842
65684W        W37410  14.138  10.352   0.955
65685W        W37411  33.888  20.086  14.824
65686W        W37412   6.466  13.160  11.256
65687W        W37413  35.448  23.534   0.385
65688W        W37414   7.511   1.055  14.896
65689W        W37415  20.337  16.092  11.053
65690W        W37416  22.245  33.682   2.232
65691W        W37417  15.565  41.174   4.126
65692W        W37418  44.855  10.851   1.773
65693W        W37419   7.853  15.078   9.984
65694W        W37420  44.499  16.148  14.893
65695W        W37421  40.347   3.161   0.350
65696W        W37422  12.634  29.834  11.144
65697W        W37423  44.064  20.827  14.388
65698W        W37424  14.149  28.632   1.616
65699W        W37425  21.224  14.140  11.429
65700W        W37426  16.254  12.212  12.792
65701W        W37427   4.677  24.726   3.197
65702W        W37428   2.275  28.607   1.373
65703W        W37429  44.695  44.948   3.076
65704W        W37430   1.296  27.402   0.911
65705W        W37431  43.187  32.615  10.675
65706W        W37432   1.191  44.704   4.002
65707W        W37433  41.904  27.195  14.475
65708W        W37434  20.137  44.487  12.689
65709W        W37435  26.505  34.350   2.772
65710W        W37436  18.765   5.943   1.309
65711W        W37437   8.396  18.570  13.387
65712W        W37438  34.305  38.955   4.031
65713W        W37439   3.000  18.086  14.024
65714W        W37440  24.859  36.857  10.627
65715W        W37441  11.626  18.149  14.742
65716W        W37442  38.424  37.637   4.375
65717W        W37443  19.083  18.250   3.725
65718W        W37444  22.877  27.810   9.554
65719W        W37445  42.012   7.917   0.401
65720W        W37446  12.307  44.048  12.145
65721W        W37447  26.073  11.179   2.257
65722W        W37448   9.396   2.333  14.389
65723W        W37449   5.514  14.741   1.392
65724W        W37450   8.947  18.214   1.428
65725W        W37451  40.770   8.665   2.180
65726W        W37452  11.232  13.167   4.967
65727W        W37453  17.774  10.377   2.319
65728W        W37454   8.769  14.306   1.321
65729W        W37455  34.637  12.786   3.754
65730W        W37456  43.390   2.417   3.598
65731W        W37457  20.948  44.731  11.526
65732W        W37458  19.576  37.991   1.149
65733W        W37459  30.688   9.360  11.082
65734W        W37460  12.345  36.943  12.474
65735W        W37461  33.714  43.307   4.614
65736W        W37462   9.242  16.629   1.230
65737W        W37463  40.087  10.026   2.395
65738W        W37464  25.615  17.039  14.722
65739W        W37465  17.700  42.286   1.321
65740W        W37466   8.821  13.773   4.388
65741W        W37467  22.024  36.708  12.560
65742W        W37468  41.557  41.370  13.414
65743W        W37469  13.997  35.813  13.547
65744W        W37470  24.655   8.756  11.225
65745W        W37471  20.646  10.832   0.307
65746W        W37472  32.273  14.195  13.883
65747W        W37473  42.967  41.534   0.398
65748W        W37474   0.923   9.608   3.568
65749W        W37475   2.298  24.179   2.051
65750W        W37476  39.518  32.628   0.768
65751W        W37477  43.369  20.014   3.410
65752W        W37478   0.033  37.161   1.542
65753W        W37479  14.208   3.508  11.888
65754W        W37480   0.253   3.307   4.160
65755W        W37481   5.212  37.748  13.507
65756W        W37482   8.261  19.939   0.049
65757W        W37483  12.457   1.664  14.341
65758W        W37484  21.130  27.108   1.523
65759W        W37485  44.815   6.367   4.464
65760W        W37486  10.976  25.422   2.741
65761W        W37487  21.506  36.854   3.686
65762W        W37488  10.386  41.424  11.195
65763W        W37489   9.739  20.929  11.134
65764W        W37490  27.607  19.267   2.206
65765W        W37491  11.869   8.442  11.058
65766W        W37492   5.001  13.671   2.012
65767W        W37493   4.651  17.665   5.012
65768W        W37494   5.815  36.515  14.397
65769W        W37495  41.560  11.873  12.453
65770W        W37496  41.421  19.483   4.944
65771W        W37497  14.569  43.243   2.523
65772W        W37498  24.608   5.889   1.857
65773W        W37499  24.636  15.882  11.262
65774W        W37500  18.348  31.100  11.945
65775W        W37501  37.067   6.733  12.186
65776W        W37502  14.344  42.301  14.765
65777W        W37503  23.386   2.142  14.219
65778W        W37504  38.892   6.898  10.972
65779W        W37505  29.143   4.759  11.113
65780W        W37506  35.080  23.857   2.332
65781W        W37507  30.643  13.648  13.053
65782W        W37508   0.557  38.947   0.577
65783W        W37509  26.760  41.374   3.377
65784W        W37510  22.008  32.427   3.255
65785W        W37511  40.784  31.563   2.259
65786W        W37512   9.265  14.907   4.526
65787W        W37513   0.604  40.071  10.127
65788W        W37514   4.131  43.057  11.075
65789W        W37515  40.431  44.375  11.240
65790W        W37516  31.655  26.592   3.623
65791W        W37517  34.868  39.900   4.929
65792W        W37518  35.618  10.114  13.599
65793W        W37519  16.328   3.898   3.943
65794W        W37520   8.223   9.799  12.921
65795W        W37521  44.208  44.285   1.022
65796W        W37522   6.354  36.844  11.065
65797W        W37523  21.515  17.320  11.551
65798W        W37524  16.580  41.399  11.108
65799W        W37525  44.926  36.992   0.086
65800W        W37526  16.191   5.891  12.895
65801W        W37527  41.778  32.902   2.320
65802W        W37528   8.980  44.927  13.803
65803W        W37529  32.183  38.063  13.495
65804W        W37530  33.510  41.516   1.304
65805W        W37531   2.789  43.494  12.913
65806W        W37532  21.063  35.444   2.689
65807W        W37533  33.537  11.403  14.456
65808W        W37534  27.178  26.303   0.638
65809W        W37535   8.607  26.641   1.375
65810W        W37536  18.814  32.026  14.001
65811W        W37537   4.442   0.465  13.867
65812W        W37538   3.562  20.845  11.668
65813W        W37539  10.287   4.504  13.470
65814W        W37540  30.642  22.658   0.437
65815W        W37541  21.658  14.698  12.049
65816W        W37542   6.200  42.734  12.450
65817W        W37543   2.939  35.325  13.019
65818W        W37544   9.294   1.945  10.913
65819W        W37545   6.245   2.779   5.059
65820W        W37546  30.115  32.952  14.199
65821W        W37547  28.964  16.227  11.914
65822W        W37548  15.491   2.456   2.596
65823W        W37549  36.211  44.084  11.209
65824W        W37550  26.649  39.725   4.779
65825W        W37551   0.839  43.048   2.268
65826W        W37552   2.120  25.509  12.801
65827W        W37553  11.372  35.609   5.607
65828W        W37554   5.100  13.153   2.112
65829W        W37555   9.241  15.708   3.839
65830W        W37556  17.179  42.041  11.567
65831W        W37557  11.561  16.346   3.249
65832W        W37558  37.858  18.946  10.737
65833W        W37559  38.023  12.292  10.505
65834W        W37560  30.736  23.244   3.086
65835W        W37561  20.569   8.586   2.928
65836W        W37562  19.264   8.216   2.453
65837W        W37563   3.925  25.946  14.856
65838W        W37564  24.549   0.547  13.013
65839W        W37565  26.133  13.832  12.963
65840W        W37566  12.685  13.661  11.657
65841W        W37567  44.877  38.841   3.727
65842W        W37568  35.488  33.652   3.191
65843W        W37569  32.940  16.146  14.887
65844W        W37570  37.037  31.013   0.531
65845W        W37571   7.151  20.458   3.600
65846W        W37572   8.702  29.573   0.402
65847W        W37573  37.486  20.670   4.110
65848W        W37574  11.245  22.080  12.851
65849W        W37575   3.202  18.351  14.482
65850W        W37576   9.365  27.733   4.790
65851W        W37577   0.360  26.506  10.538
65852W        W37578   1.045   6.263  12.934
65853W        W37579  10.245  10.106   1.862
65854W        W37580  25.477   9.147  11.999
65855W        W37581  23.069  38.195   3.185
65856W        W37582  19.091   0.350  11.171
65857W        W37583  29.464  12.542   4.400
65858W        W37584  15.729   1.848   2.277
65859W        W37585   1.040  24.695  14.138
65860W        W37586  32.309   6.521   4.180
65861W        W37587  34.323  20.039   1.295
65862W        W37588   2.387  32.515   0.778
65863W        W37589  17.061  13.239  12.546
65864W        W37590  21.001   4.224  13.812
65865W        W37591  27.426  37.447   2.150
65866W        W37592  32.069   1.751   4.560
65867W        W37593  33.156   3.403   3.591
65868W        W37594  27.842  23.682  11.139
65869W        W37595  29.513   5.477   3.548
65870W        W37596   3.862   9.649  14.345
65871W        W37597  14.063   2.706  13.550
65872W        W37598   6.476  38.988   2.003
65873W        W37599   0.065   1.753  13.775
65874W        W37600   4.863  32.663  11.803
65875W        W37601  15.112  39.099   1.619
65876W        W37602  43.923   9.708  13.327
65877W        W37603  28.709   5.316   1.833
65878W        W37604  12.539  17.593  10.753
65879W        W37605   9.332  12.488  14.569
65880W        W37606  14.313  41.537   3.763
65881W        W37607   5.019  12.161  13.969
65882W        W37608  38.243  26.906  12.335
65883W        W37609   3.100  28.714   2.754
65884W        W37610  13.352   2.956  12.054
65885W        W37611  24.554  37.284   4.571
65886W        W37612  29.095  10.284  12.302
65887W        W37613  44.453  42.073   4.547
65888W        W37614  23.522  41.028  11.144
65889W        W37615  27.351  30.758  10.909
65890W        W37616  44.323  20.511   1.774
65891W        W37617   1.838  21.054  14.989
65892W        W37618  33.332  39.616   0.507
65893W        W37619  44.723  26.726   4.692
65894W        W37620   2.865  15.387   3.636
65895W        W37621  23.211   5.114   2.959
65896W        W37622  12.715   4.153  11.245
65897W        W37623  27.228  30.295  11.196
65898W        W37624  10.013  20.297   0.349
65899W        W37625  44.528   3.392  14.828
65900W        W37626  37.516  16.119  13.783
65901W        W37627  32.069  41.015   3.654
65902W        W37628   3.502  36.193   4.856
65903W        W37629  34.781   7.399  14.425
65904W        W37630  34.524  34.375   4.966
65905W        W37631  19.905  30.543  10.563
65906W        W37632  32.034  29.692  14.067
65907W        W37633  15.866  20.670  14.096
65908W        W37634  33.351   3.524   1.924
65909W        W37635   7.198  25.385  14.838
65910W        W37636  36.397  23.725  13.475
65911W        W37637   7.918  21.112   1.214
65912W        W37638  41.113  14.103   2.650
65913W        W37639  25.551   6.180  12.796
65914W        W37640  34.364  36.082  13.574
65915W        W37641  28.516  11.111   3.657
65916W        W37642  41.583  28.705  13.507
65917W        W37643  40.502  32.871  10.499
65918W        W37644  31.217  31.326  12.601
65919W        W37645  12.704  25.076   1.742
65920W        W37646  10.971  38.018   0.724
65921W        W37647  25.517  10.169  14.763
65922W        W37648  40.552  36.953  12.755
65923W        W37649  12.205  10.460  11.113
65924W        W37650  40.906  30.180   2.353
65925W        W37651   9.610   6.299  13.492
65926W        W37652   7.124  12.735  13.786
65927W        W37653  21.133  26.045   2.817
65928W        W37654  32.450  20.780  13.083
65929W        W37655  25.532  41.310   0.529
65930W        W37656  36.123   2.260   1.462
65931W        W37657  14.325   6.601   1.345
65932W        W37658  13.631  38.450   0.866
65933W        W37659   4.550  30.368   4.199
65934W        W37660   1.323  12.941   3.207
65935W        W37661  16.903  21.204  13.030
65936W        W37662  38.064  31.368   3.142
65937W        W37663   6.419  40.986  13.147
65938W        W37664   2.925  12.909   1.370
65939W        W37665  43.438  13.223   4.169
65940W        W37666  19.528  31.835   1.710
65941W        W37667  40.921  18.835   0.414
65942W        W37668  44.537  29.686  11.267
65943W        W37669  32.159  20.749  10.705
65944W        W37670  43.984  22.624  14.242
65945W        W37671   9.703  33.380  13.386
65946W        W37672  38.994   6.405   4.133
65947W        W37673   5.557  15.552   2.461
65948W        W37674  16.187  25.143   4.557
65949W        W37675   6.854  34.966   4.668
65950W        W37676  25.197  15.303   0.862
65951W        W37677  34.613  36.269  14.357
65952W        W37678   6.478  25.059   4.987
65953W        W37679  29.238   2.251  12.454
65954W        W37680  14.306  14.284  14.331
65955W        W37681  22.017  44.348   0.817
65956W        W37682  33.903  18.430   3.837
65957W        W37683  44.884  26.962   0.916
65958W        W37684   0.170   1.006  11.598
65959W        W37685   9.613  27.020  13.325
65960W        W37686  30.142   2.730   2.878
65961W        W37687  39.606  36.673   2.675
65962W        W37688  39.859  39.060   3.085
65963W        W37689  16.183   2.264  11.304
65964W        W37690  41.750  35.180  13.767
65965W        W37691  23.859  17.291  13.786
65966W        W37692  11.455   6.497  10.891
65967W        W37693  40.939   5.360   2.361
65968W        W37694  31.457  12.889   4.402
65969W        W37695  28.988  29.412  13.189
65970W        W37696  34.688  22.042  14.116
65971W        W37697  22.042   7.786  10.865
65972W        W37698  39.261   9.791   0.465
65973W        W37699   0.861  39.343  13.356
65974W        W37700   7.747  11.891   0.835
65975W        W37701  36.877   9.403   4.792
65976W        W37702   3.675  42.566   0.863
65977W        W37703  12.188   8.558  13.883
65978W        W37704   4.878  39.818   2.805
65979W        W37705  40.076  24.066   2.317
65980W        W37706  34.126  39.355   2.750
65981W        W37707   8.232  38.123  13.443
65982W        W37708   9.733   7.802   0.955
65983W        W37709  21.271  43.832  12.654
65984W        W37710   9.309  19.711   0.605
65985W        W37711  21.993  43.341  11.982
65986W        W37712  29.454  40.064   2.107
65987W        W37713  19.092  35.311   0.330
65988W        W37714  16.194  31.307   0.530
65989W        W37715  30.033  26.298   2.662
65990W        W37716  11.274   1.835   2.134
65991W        W37717   7.217  41.947  11.246
65992W        W37718   6.939  35.133  14.358
65993W        W37719  34.232   4.309   3.599
65994W        W37720  28.682  14.107   1.399
65995W        W37721  18.181   5.808  14.032
65996W        W37722  38.042  39.970   0.034
65997W        W37723  15.165  27.157  14.613
65998W        W37724  20.987  42.319  14.968
65999W        W37725  43.437  41.936  14.547
66000W        W37726  14.153  12.164  10.419
66001W        W37727  37.018   7.251   2.324
66002W        W37728  12.861  38.543   1.487
66003W        W37729  26.157  29.019  10.917
66004W        W37730   6.825  21.125   4.675
66005W        W37731  19.956  13.336  14.491
66006W        W37732  14.041  29.566   4.692
66007W        W37733   4.229  25.635  10.641
66008W        W37734  35.729  10.610  12.539
66009W        W37735  26.506  16.276  13.874
66010W        W37736  32.398  33.399  12.876
66011W        W37737  12.927  17.527   3.024
66012W        W37738  16.607  11.089  14.497
66013W        W37739  28.473  19.257   4.149
66014W        W37740  11.380  42.290  11.501
66015W        W37741  20.836  29.144  13.364
66016W        W37742  15.618  27.375  14.430
66017W        W37743  43.408  16.170  12.201
66018W        W37744  35.639  31.931   2.594
66019W        W37745  34.529  23.334   4.393
66020W        W37746  27.884   8.336  14.479
66021W        W37747   3.684  21.304  10.636
66022W        W37748  37.598  38.563  10.343
66023W        W37749  11.174  21.777   4.660
66024W        W37750  19.533  33.971  10.649
66025W        W37751  25.024  10.860  14.515
66026W        W37752  26.656  25.116  10.353
66027W        W37753  42.388  23.770  13.088
66028W        W37754  27.037  37.797   2.144
66029W        W37755  20.541  44.896  13.928
66030W        W37756  29.601  20.004  12.577
66031W        W37757  16.921  38.984   0.217
66032W        W37758  35.862   7.762   3.246
66033W        W37759   0.435  39.476  11.645
66034W        W37760  20.814  43.493   2.677
66035W        W37761  37.195  14.133  11.632
66036W        W37762  39.434  29.660   3.576
66037W        W37763  33.478   4.478   5.129
66038W        W37764  14.221  26.377   4.180
66039W        W37765  39.529  10.724   1.956
66040W        W37766  16.178  29.599  11.869
66041W        W37767  27.052  44.992   2.387
66042W        W37768  20.445  16.705   4.644
66043W        W37769  35.653  35.691   1.593
66044W        W37770  36.820  39.143   5.005
66045W        W37771  31.863   0.745   1.714
66046W        W37772   4.514  42.408   2.389
66047W        W37773  21.605   1.318  11.402
66048W        W37774  33.559  16.235   1.728
66049W        W37775  24.181  19.090  13.513
66050W        W37776  44.493  11.561  13.004
66051W        W37777  43.800  11.739   1.668
66052W        W37778  35.950  40.898   1.849
66053W        W37779  35.850   2.520   4.233
66054W        W37780  34.526  15.399  12.504
66055W        W37781   4.301  17.183  11.106
66056W        W37782   2.972  12.172   2.339
66057W        W37783   3.177  29.052  11.884
66058W        W37784  23.163  43.200   3.754
66059W        W37785  44.804  19.610  11.185
66060W        W37786   8.748  17.883   0.720
66061W        W37787   8.769   9.413   0.182
66062W        W37788  16.147  28.444   1.524
66063W        W37789  11.783  40.142   3.765
66064W        W37790  29.123  33.017  11.611
66065W        W37791  25.089  22.428  12.935
66066W        W37792  29.414  21.566   1.639
66067W        W37793   4.127   1.546  11.171
66068W        W37794   5.927  11.400   3.204
66069W        W37795  15.653  25.685   9.860
66070W        W37796  18.787  36.007  14.296
66071W        W37797  40.045  24.636   0.249
66072W        W37798  28.688   5.942   2.255
66073W        W37799   3.271  38.823   1.858
66074W        W37800  18.144  16.971   0.387
66075W        W37801  20.068  37.911   1.374
66076W        W37802  10.675  43.795   4.659
66077W        W37803  21.658  27.420   4.586
66078W        W37804   2.717   5.085   3.681
66079W        W37805  21.020  43.758  10.531
66080W        W37806  35.861  26.159  14.782
66081W        W37807  21.985  34.421   2.746
66082W        W37808  24.956  15.073   2.277
66083W        W37809  25.468  43.889   4.110
66084W        W37810  29.137  17.684  13.780
66085W        W37811  25.626   2.016   3.603
66086W        W37812  26.078  43.429  14.108
66087W        W37813  28.080  22.999  14.481
66088W        W37814  19.279   6.867  14.669
66089W        W37815   1.784  12.256   0.196
66090W        W37816  16.869  44.311   3.657
66091W        W37817   4.895   3.423   4.913
66092W        W37818  15.212  20.056   1.840
66093W        W37819  31.703  40.202   3.325
66094W        W37820  12.426  40.308  12.675
66095W        W37821  42.604  28.770  11.160
66096W        W37822  22.831   4.753   0.913
66097W        W37823   5.468   8.811   3.822
66098W        W37824  42.015   5.298  14.838
66099W        W37825  44.367  31.559   3.399
66100W        W37826  14.800   7.472  13.612
66101W        W37827  22.931  21.172  12.152
66102W        W37828  18.045  22.563   3.466
66103W        W37829   6.957  31.096  11.889
66104W        W37830  14.784  31.245  13.606
66105W        W37831  27.506  32.363  12.905
66106W        W37832  36.092  43.426  14.540
66107W        W37833  39.294  12.854  12.873
66108W        W37834  40.818  10.283  14.490
66109W        W37835   1.376  18.153  12.116
66110W        W37836  31.585  23.283   5.468
66111W        W37837   0.912  41.350   0.482
66112W        W37838  13.278  36.991   2.443
66113W        W37839  40.810  21.169  12.037
66114W        W37840  16.770  19.125   1.442
66115W        W37841  18.080  18.233   4.693
66116W        W37842   1.261  15.488  12.323
66117W        W37843  26.671  15.180   4.756
66118W        W37844  16.661  44.765   3.848
66119W        W37845   9.653  32.990   9.971
66120W        W37846  20.186  23.095  13.099
66121W        W37847  10.665  43.572   4.173
66122W        W37848  19.641   9.872  11.219
66123W        W37849  17.583  38.508  13.406
66124W        W37850   2.288  44.042  11.129
66125W        W37851  35.363   9.632  10.573
66126W        W37852   3.253   1.476   4.176
66127W        W37853  42.028  17.049  14.596
66128W        W37854  37.149  10.093  10.138
66129W        W37855  26.008   9.067   3.614
66130W        W37856  33.083  18.995   2.763
66131W        W37857  16.278   1.284   1.825
66132W        W37858  21.314  14.691  13.446
66133W        W37859  20.790  35.004  12.602
66134W        W37860  21.889  41.090   1.298
66135W        W37861  39.273  41.712  12.025
66136W        W37862   5.657  14.241  12.041
66137W        W37863  24.898  10.129   3.640
66138W        W37864  40.495   5.581  14.815
66139W        W37865  34.247   9.547   0.777
66140W        W37866   2.070  26.969   2.831
66141W        W37867  37.800   9.677  11.605
66142W        W37868  26.666  39.578   4.245
66143W        W37869  24.275   8.561  12.502
66144W        W37870   2.693   4.324   1.679
66145W        W37871  37.338   5.478  14.712
66146W        W37872  28.505  33.491  10.788
66147W        W37873   3.075  29.028  13.397
66148W        W37874  14.369   6.717   2.558
66149W        W37875  32.646  43.985   5.041
66150W        W37876  34.944  44.158  12.847
66151W        W37877   1.745   3.943  13.471
66152W        W37878  33.473  14.181   2.907
66153W        W37879   6.264  10.207   3.401
66154W        W37880  29.045  17.695  14.287
66155W        W37881  32.973  24.261  12.249
66156W        W37882  20.597  11.193  11.042
66157W        W37883  36.269  29.206  14.551
66158W        W37884  19.743   0.298  11.773
66159W        W37885   7.482  16.960   2.325
66160W        W37886  34.140  27.953  12.903
66161W        W37887  27.648  26.231  11.313
66162W        W37888  31.416  17.849   3.258
66163W        W37889  22.019  35.317   4.605
66164W        W37890  22.753  10.403   0.964
66165W        W37891  17.185  28.442  14.436
66166W        W37892  41.301  18.452   2.644
66167W        W37893   0.939   1.625  11.695
66168W        W37894  32.084  44.826   4.527
66169W        W37895  25.252  12.852   0.432
66170W        W37896  22.448   0.544  12.120
66171W        W37897  28.587  42.385  12.883
66172W        W37898  24.198  27.933   1.488
66173W        W37899  21.449   1.860   1.451
66174W        W37900   7.879   7.937  11.605
66175W        W37901  10.804  22.796  12.517
66176W        W37902   6.128  35.003  11.140
66177W        W37903  18.967  38.862   3.171
66178W        W37904  33.040  30.202  13.581
66179W        W37905  15.125  17.136  14.740
66180W        W37906  36.966  31.058  14.443
66181W        W37907  25.843  32.637   0.827
66182W        W37908   2.424  31.269  11.039
66183W        W37909  30.208  17.620   1.283
66184W        W37910  33.206  39.077  12.941
66185W        W37911  39.996  12.915  11.560
66186W        W37912  25.996  34.383   2.913
66187W        W37913  34.132  23.574  14.427
66188W        W37914  40.368  14.656   1.421
66189W        W37915  38.526  38.288   2.265
66190W        W37916   0.247   9.476   2.983
66191W        W37917  32.343  16.668  13.397
66192W        W37918  16.088   1.570   3.768
66193W        W37919  30.309  31.980   2.102
66194W        W37920  20.055  16.847  13.545
66195W        W37921  41.487   1.214  12.555
66196W        W37922  30.963  43.210   3.725
66197W        W37923  10.585  36.930  11.954
66198W        W37924   3.541  15.023  14.344
66199W        W37925  18.758  19.557  10.677
66200W        W37926   9.072  25.558   3.399
66201W        W37927  23.147  22.768  13.286
66202W        W37928  14.396  41.451   1.353
66203W        W37929  27.972  44.410   4.502
66204W        W37930  43.324   7.556   2.117
66205W        W37931  39.877  25.592   3.355
66206W        W37932  40.539  39.435   2.351
66207W        W37933  41.213  25.616  13.082
66208W        W37934  38.881  26.530   4.126
66209W        W37935  33.996  35.865  13.312
66210W        W37936  27.570  13.343   1.209
66211W        W37937   1.899  13.256   2.204
66212W        W37938  27.140  22.440   1.912
66213W        W37939   9.250  24.441  13.398
66214W        W37940  17.101  41.264   0.787
66215W        W37941  18.881   3.559  10.166
66216W        W37942  26.033   3.201  14.092
66217W        W37943   5.772   4.569  11.852
66218W        W37944  29.691   5.885   3.844
66219W        W37945  10.631   0.418  13.408
66220W        W37946  14.127  11.350  13.030
66221W        W37947   2.035  40.009   1.449
66222W        W37948  16.831   0.685  13.843
66223W        W37949   0.772  43.969   1.750
66224W        W37950  20.470   9.807   1.192
66225W        W37951  26.766  41.613  11.114
66226W        W37952  42.743   6.302   2.222
66227W        W37953  19.675  21.495  14.369
66228W        W37954  15.803   6.035  14.128
66229W        W37955  17.414  20.825   2.327
66230W        W37956  35.846  21.332   0.754
66231W        W37957   0.032  34.867   2.063
66232W        W37958   4.668  37.874  10.665
66233W        W37959  27.061   9.414   0.393
66234W        W37960   4.312   1.508  13.837
66235W        W37961  13.238  39.988   3.659
66236W        W37962  27.583  23.983   2.774
66237W        W37963  13.768  11.640   1.671
66238W        W37964  10.080  16.345  10.451
66239W        W37965   7.358  13.651  13.646
66240W        W37966  19.344  13.679  11.095
66241W        W37967  39.491   8.490  11.047
66242W        W37968   0.846  41.203   2.712
66243W        W37969  37.078  35.439  13.395
66244W        W37970  36.231  18.647  13.396
66245W        W37971  25.887  18.876  12.213
66246W        W37972   3.398   1.818   0.705
66247W        W37973   4.314  41.254  14.454
66248W        W37974  44.466  41.972  14.064
66249W        W37975  42.670   0.685  11.658
66250W        W37976  36.913  20.671   2.298
66251W        W37977  42.763  32.245  12.915
66252W        W37978   7.271  23.117   0.490
66253W        W37979  41.525  16.595  11.995
66254W        W37980  40.460  42.281  13.795
66255W        W37981   4.021  35.203  13.559
66256W        W37982  38.360  42.855  10.930
66257W        W37983  43.937  36.383   0.883
66258W        W37984  31.067  39.080  10.088
66259W        W37985  33.611   2.071  13.892
66260W        W37986  12.251   8.773   2.730
66261W        W37987  35.483  25.688  10.593
66262W        W37988  36.628  38.283   2.359
66263W        W37989  42.709   7.205   0.055
66264W        W37990  29.718   5.814   2.334
66265W        W37991  12.593   6.539   1.706
66266W        W37992  24.940  41.758  10.553
66267W        W37993  12.115  11.840  11.116
66268W        W37994   5.354   4.692  11.004
66269W        W37995  31.178  27.264   4.262
66270W        W37996  27.994   4.493   2.898
66271W        W37997  34.494  33.569   0.308
66272W        W37998  44.485  11.258   4.191
66273W        W37999  38.993  25.668  14.517
66274W        W38000   2.343  37.604   0.504
66275W        W38001  37.936  17.526  10.707
66276W        W38002  18.748  33.708  10.277
66277W        W38003  13.339  13.560   3.682
66278W        W38004  43.744  22.926  12.978
66279W        W38005  42.249   3.817  12.076
66280W        W38006  44.359  30.926  13.475
66281W        W38007  42.386  27.508   3.468
66282W        W38008  44.428  20.854  12.760
66283W        W38009  44.893  35.778  13.341
66284W        W38010  20.831   7.291  13.007
66285W        W38011  16.624   1.293   0.088
66286W        W38012  43.460   6.454  11.072
66287W        W38013  33.143  21.039   4.653
66288W        W38014  35.408  14.001   3.411
66289W        W38015  15.237  44.526  13.819
66290W        W38016  23.149   4.906  14.713
66291W        W38017  18.039  15.198  12.063
66292W        W38018  27.995   4.341  10.958
66293W        W38019  22.544  22.560  11.682
66294W        W38020   7.315  35.663  13.523
66295W        W38021  32.093  15.576   4.520
66296W        W38022  39.015  43.477   1.888
66297W        W38023  15.577   8.333   1.494
66298W        W38024  29.414   8.848  11.550
66299W        W38025  10.013  33.778  12.419
66300W        W38026   3.282   3.073   2.064
66301W        W38027  23.011  17.988  12.061
66302W        W38028   9.108  38.504   2.923
66303W        W38029   8.194   3.256   4.548
66304W        W38030  35.997  34.907  14.452
66305W        W38031   5.234  41.332   1.793
66306W        W38032  33.646   9.698  11.552
66307W        W38033  20.014  36.151   3.827
66308W        W38034  41.848   9.135  14.380
66309W        W38035  36.090  41.313  13.021
66310W        W38036  43.723  31.440   1.091
66311W        W38037   6.738  39.080   2.440
66312W        W38038  37.969  20.890  10.284
66313W        W38039  41.769  44.897  12.991
66314W        W38040  21.753   2.418  13.028
66315W        W38041  31.516  27.114   0.325
66316W        W38042   9.149   7.220   0.340
66317W        W38043  35.420  42.779   0.850
66318W        W38044  42.911   7.595  14.116
66319W        W38045  41.554  19.261  14.934
66320W        W38046  21.268  28.434   3.718
66321W        W38047   3.430   9.036   1.669
66322W        W38048   9.326  44.523   2.655
66323W        W38049  14.785  19.835  14.902
66324W        W38050   4.388  15.068  11.959
66325W        W38051  12.469  18.777   2.177
66326W        W38052  10.603  22.567   3.308
66327W        W38053  27.923   9.680  10.658
66328W        W38054   8.290  18.058   4.017
66329W        W38055   4.405   3.816  10.940
66330W        W38056  36.413   6.822  11.448
66331W        W38057  26.055  40.630  11.986
66332W        W38058   0.005  30.316   3.419
66333W        W38059   5.449   9.128  12.868
66334W        W38060   0.415  26.280  14.434
66335W        W38061  33.849   0.046   1.283
66336W        W38062  35.376  14.373  14.236
66337W        W38063  43.936  27.522  12.404
66338W        W38064   4.822  20.345  14.765
66339W        W38065  37.450  23.165   0.232
66340W        W38066  42.489  31.118   1.761
66341W        W38067   9.444  38.608  13.246
66342W        W38068   0.478   1.688   1.846
66343W        W38069   3.709  29.699   1.848
66344W        W38070  27.947  44.386  14.553
66345W        W38071  14.001  41.736  10.747
66346W        W38072   7.990  29.943   3.159
66347W        W38073  22.195  42.310   2.895
66348W        W38074   0.981  12.676   2.909
66349W        W38075   4.367  39.885  11.438
66350W        W38076  26.531   8.223  14.079
66351W        W38077  44.689  19.540  12.653
66352W        W38078  42.736  39.784  10.715
66353W        W38079  32.496  20.448   2.335
66354W        W38080  23.550  12.691   3.203
66355W        W38081   3.794  11.891  11.473
66356W        W38082  41.903  25.941  14.847
66357W        W38083   2.538  17.803  14.042
66358W        W38084  33.367  20.128  14.853
66359W        W38085  42.788  36.999  11.646
66360W        W38086  29.495   5.139  13.145
66361W        W38087  19.216  19.529  13.258
66362W        W38088  12.788  40.457  11.466
66363W        W38089  28.654  20.539  11.478
66364W        W38090  44.509  37.780   4.072
66365W        W38091   7.172   8.535  13.222
66366W        W38092  15.747  20.207   4.065
66367W        W38093  37.018  26.155   9.973
66368W        W38094  15.963  33.690   3.578
66369W        W38095   1.526  14.028  14.252
66370W        W38096  15.280   2.822   1.776
66371W        W38097   9.598  22.493  11.961
66372W        W38098   1.861  11.727   3.123
66373W        W38099  43.831  20.267  13.979
66374W        W38100  26.735  22.603  13.652
66375W        W38101  15.353  39.265   2.615
66376W        W38102  10.744  37.105   2.591
66377W        W38103  41.838   9.222  13.021
66378W        W38104   1.391   5.085  14.780
66379W        W38105  32.198   3.896   0.683
66380W        W38106  28.298  28.338   0.658
66381W        W38107  30.384   5.013  12.622
66382W        W38108  33.522  42.507   3.606
66383W        W38109  19.072   0.364  13.887
66384W        W38110  13.144  43.664  11.902
66385W        W38111  40.346   9.817  13.892
66386W        W38112  44.711   1.710  12.086
66387W        W38113  11.390  28.407   1.821
66388W        W38114   5.692  17.153   2.855
66389W        W38115   0.338  18.326  12.251
66390W        W38116  15.616  32.178   3.645
66391W        W38117  11.169  11.647  10.756
66392W        W38118  31.535   1.236  13.377
66393W        W38119  34.063  18.725  11.893
66394W        W38120  28.222   8.961  10.337
66395W        W38121   0.868   4.940   3.668
66396W        W38122   3.829  33.076   2.465
66397W        W38123   2.750   7.656   1.635
66398W        W38124  39.179  16.920   4.078
66399W        W38125  41.328   0.005  11.794
66400W        W38126  36.437   6.456  14.248
66401W        W38127  27.639  41.055   4.615
66402W        W38128   7.742  39.015  14.253
66403W        W38129   1.000  27.024   4.493
66404W        W38130  42.994  36.335   3.752
66405W        W38131  43.726  25.318   1.477
66406W        W38132   3.534  31.454   1.341
66407W        W38133  42.957  39.147   1.292
66408W        W38134  18.800  13.662  13.495
66409W        W38135  14.297  31.938   5.174
66410W        W38136   9.765  29.427  13.499
66411W        W38137  15.273  27.653  14.886
66412W        W38138  32.974  18.260   1.883
66413W        W38139  30.715  23.257   5.542
66414W        W38140  31.908  26.848   9.788
66415W        W38141   9.643  13.765   3.279
66416W        W38142   0.326  37.490  13.353
66417W        W38143  42.182  18.835   3.958
66418W        W38144  37.456  41.906  12.636
66419W        W38145  42.261  25.972  10.690
66420W        W38146  41.999  16.175   0.772
66421W        W38147   6.160  23.514  12.945
66422W        W38148   4.559  40.998  13.862
66423W        W38149  13.098  19.168  12.363
66424W        W38150  37.942  16.685  12.423
66425W        W38151  15.095  34.890   1.257
66426W        W38152  26.639  12.231   2.296
66427W        W38153  40.767  26.269  10.984
66428W        W38154  44.566  37.480  13.942
66429W        W38155   2.220  41.720   3.692
66430W        W38156  24.595   6.288   0.444
66431W        W38157  13.913  31.926   4.819
66432W        W38158  44.819   6.785   3.335
66433W        W38159  38.138  24.953  13.748
66434W        W38160  42.550  10.798   0.717
66435W        W38161   4.761  39.932   3.669
66436W        W38162  16.201   1.448  14.819
66437W        W38163  32.498   3.940   2.361
66438W        W38164  14.129  32.111   4.164
66439W        W38165  26.074  37.614   4.996
66440W        W38166  20.566  40.470   1.320
66441W        W38167  24.676   6.477  12.894
66442W        W38168   3.179  33.912   0.171
66443W        W38169  35.828  13.138  13.908
66444W        W38170  35.652  20.258  11.104
66445W        W38171  13.415   8.300   4.598
66446W        W38172  29.220  11.397  12.185
66447W        W38173   8.057  41.486   4.033
66448W        W38174  43.560  15.204  10.779
66449W        W38175  40.578  33.620   0.334
66450W        W38176  34.064  22.122   2.163
66451W        W38177  17.495  34.000  10.553
66452W        W38178  41.358  20.723   4.564
66453W        W38179  16.992  12.447   4.143
66454W        W38180   1.957  21.779   0.296
66455W        W38181  43.335  19.110  14.752
66456W        W38182  44.736  30.535  11.068
66457W        W38183  12.407   8.794   2.224
66458W        W38184  30.019  27.708   4.544
66459W        W38185  38.820  15.174  11.984
66460W        W38186   5.257  37.686  11.743
66461W        W38187  38.425  41.243  12.877
66462W        W38188  27.042  18.764   2.454
66463W        W38189  40.800  27.425   4.344
66464W        W38190  44.426   9.387   2.547
66465W        W38191  33.644  10.153   0.953
66466W        W38192   9.132  41.835   1.782
66467W        W38193  30.452   5.848   2.945
66468W        W38194  33.468  19.944   2.190
66469W        W38195  32.704  39.979  12.938
66470W        W38196   2.691  41.518  10.706
66471W        W38197   1.515  24.574  14.935
66472W        W38198  34.427   1.364   3.728
66473W        W38199  19.747   9.346  12.412
66474W        W38200  37.720   8.661   4.191
66475W        W38201  11.867  17.654   1.656
66476W        W38202  25.035  22.754   2.640
66477W        W38203  29.519  12.635  13.941
66478W        W38204   9.390  35.766   1.934
66479W        W38205  44.607  41.565  14.971
66480W        W38206  32.825  13.584  14.876
66481W        W38207   5.991   4.323   3.672
66482W        W38208  31.375  21.377   0.502
66483W        W38209  39.146  10.674  12.459
66484W        W38210  16.625   6.419  13.596
66485W        W38211   8.998  25.158  14.012
66486W        W38212  18.804  27.500   0.980
66487W        W38213  15.472  30.984   0.183
66488W        W38214  10.800  17.741   2.869
66489W        W38215   6.337   1.370   4.429
66490W        W38216  34.134  20.157  10.973
66491W        W38217  32.692  17.524   0.198
66492W        W38218  26.057  27.397  14.282
66493W        W38219  16.573  11.565  14.329
66494W        W38220  32.968  35.496   3.620
66495W        W38221   4.594  18.246   2.381
66496W        W38222   7.651   5.791  12.012
66497W        W38223  10.842  31.356  14.519
66498W        W38224   1.508  43.856   3.449
66499W        W38225  37.846  38.521  11.938
66500W        W38226  15.638  31.030   1.184
66501W        W38227  39.228   4.914  14.414
66502W        W38228  14.126  25.636  12.130
66503W        W38229   6.750  31.196  11.393
66504W        W38230   0.908  20.709   3.167
66505W        W38231   3.543  19.715  14.398
66506W        W38232  22.785  24.107  12.880
66507W        W38233   8.856  41.277   1.483
66508W        W38234   4.289  14.161  13.869
66509W        W38235   5.590  41.972   4.265
66510W        W38236  16.735  27.498   0.585
66511W        W38237  40.341  37.833   3.186
66512W        W38238  22.977  39.291  12.856
66513W        W38239   1.417  22.617   4.546
66514W        W38240  31.547  35.932  14.547
66515W        W38241  18.832  34.392  13.968
66516W        W38242  25.707  17.667   0.344
66517W        W38243  24.991  42.209   4.129
66518W        W38244   3.336  11.403   0.106
66519W        W38245  13.582  11.628   3.028
66520W        W38246   7.436   9.363   2.630
66521W        W38247  28.962  31.728  13.479
66522W        W38248  18.549  41.520  12.978
66523W        W38249  10.210  37.603   2.304
66524W        W38250   7.986  18.671   3.676
66525W        W38251   0.076   9.924   0.781
66526W        W38252  32.063  15.618   3.817
66527W        W38253  26.282  38.682  13.657
66528W        W38254  43.903  43.194   4.188
66529W        W38255  43.071  25.522  10.599
66530W        W38256  30.042  30.336  11.110
66531W        W38257   1.456   4.822   1.975
66532W        W38258  20.483   2.818  11.009
66533W        W38259  26.062   2.417  13.435
66534W        W38260   6.253  16.833   4.165
66535W        W38261  36.324  20.488  13.316
66536W        W38262   0.946  36.653   3.796
66537W        W38263  39.526   0.022   0.488
66538W        W38264  29.730   2.353  13.441
66539W        W38265  35.858  34.386  14.476
66540W        W38266   6.242  23.001   2.987
66541W        W38267  14.895  17.031  10.313
66542W        W38268  24.903   5.074   0.945
66543W        W38269  20.858  16.569  11.502
66544W        W38270  17.836  35.771   0.374
66545W        W38271  22.755  16.684  13.857
66546W        W38272   5.441  32.969  13.002
66547W        W38273   2.926  18.553  13.799
66548W        W38274   9.773  21.779  11.438
66549W        W38275  43.277  27.058   0.521
66550W        W38276  28.526  29.939   3.390
66551W        W38277  16.824  15.246  12.998
66552W        W38278   2.490  41.078   2.782
66553W        W38279  22.972   4.913  13.851
66554W        W38280  42.697   3.367   1.827
66555W        W38281  23.149  35.838  12.897
66556W        W38282  36.666   1.917  13.123
66557W        W38283  38.312  43.235   1.206
66558W        W38284  18.363  37.009   4.969
66559W        W38285  26.887  11.671  12.121
66560W        W38286  10.693  42.313  14.224
66561W        W38287  31.203  31.730   2.873
66562W        W38288  33.374   9.560  14.677
66563W        W38289  34.479  29.512  12.815
66564W        W38290  40.409  25.069   4.556
66565W        W38291  38.013  15.122  14.763
66566W        W38292  31.998   1.083   2.246
66567W        W38293  30.726  37.416  14.181
66568W        W38294  37.642  37.886   3.552
66569W        W38295   4.396  33.200   2.940
66570W        W38296  11.665  33.472  12.093
66571W        W38297  19.346  26.867   1.867
66572W        W38298  43.674  21.155   3.194
66573W        W38299  11.172  44.408   0.432
66574W        W38300  35.806  30.204  11.828
66575W        W38301  32.319  28.773   1.835
66576W        W38302   2.294  21.532  14.334
66577W        W38303  30.131  38.451  11.478
66578W        W38304  16.546   8.145  11.962
66579W        W38305  34.665  34.365  11.598
66580W        W38306  18.085   3.780   1.222
66581W        W38307  20.703  12.164  11.200
66582W        W38308  16.019  37.330   4.329
66583W        W38309  13.254  38.848  12.795
66584W        W38310  32.854  18.063  10.959
66585W        W38311  22.967  34.819   3.446
66586W        W38312   9.731  17.310   2.018
66587W        W38313  42.766  33.993  11.189
66588W        W38314  11.339   7.681   0.932
66589W        W38315  29.240  15.818  12.060
66590W        W38316  22.407  12.701   3.840
66591W        W38317  19.334  34.842   2.395
66592W        W38318   2.669  14.892   1.357
66593W        W38319  31.977  25.579  12.139
66594W        W38320  17.056  40.903   4.408
66595W        W38321  44.772  23.546  14.228
66596W        W38322  15.164  44.877  11.584
66597W        W38323  30.094  43.861  13.056
66598W        W38324  18.595  10.907   3.201
66599W        W38325  31.370   0.209  12.507
66600W        W38326  11.905  29.842  14.419
66601W        W38327  25.716  27.539   4.135
66602W        W38328  35.339   2.523  13.913
66603W        W38329  22.715   7.813   0.905
66604W        W38330   9.428   9.642  11.541
66605W        W38331  13.818  35.215  14.598
66606W        W38332   6.284  26.110   1.268
66607W        W38333  20.511   0.051  11.515
66608W        W38334  26.670  12.135  11.153
66609W        W38335  37.319  21.222   1.876
66610W        W38336   2.581  11.283   3.126
66611W        W38337  37.780  21.944  11.049
66612W        W38338  38.005   4.542  13.810
66613W        W38339  39.260  29.723  14.939
66614W        W38340  43.750  40.012  14.204
66615W        W38341   9.002  28.241  11.169
66616W        W38342  34.029  11.831   4.585
66617W        W38343   7.742   5.617   4.060
66618W        W38344  14.799  42.221  12.095
66619W        W38345  16.574  10.272  13.414
66620W        W38346  11.687  23.144  10.514
66621W        W38347  21.361   7.151  11.191
66622W        W38348  23.189  39.199  14.313
66623W        W38349  30.684   9.265   1.218
66624W        W38350  26.995  31.513   3.872
66625W        W38351  10.861  37.523   0.777
66626W        W38352   1.727  17.162  13.635
66627W        W38353  22.036  11.172  10.674
66628W        W38354  44.811  20.129  11.326
66629W        W38355  44.449   1.342  10.729
66630W        W38356  28.035  30.143  12.491
66631W        W38357  18.491  17.149   1.834
66632W        W38358  11.106   6.120  10.715
66633W        W38359  43.408  39.091  13.487
66634W        W38360  13.976  44.392  10.961
66635W        W38361   5.718  29.140   3.381
66636W        W38362  43.146  18.155  11.452
66637W        W38363  43.691  18.743   2.863
66638W        W38364  16.080  13.703  12.669
66639W        W38365  11.607  42.999  12.555
66640W        W38366  25.901  24.574   2.014
66641W        W38367  17.857  23.074   1.630
66642W        W38368  15.267  20.539   4.393
66643W        W38369  17.138  32.267   0.437
66644W        W38370  24.241  29.447  12.076
66645W        W38371  19.317  39.789  13.059
66646W        W38372  16.712  37.358  14.090
66647W        W38373   9.656  26.110  13.326
66648W        W38374  37.144  21.059   4.174
66649W        W38375  11.514  14.771   1.682
66650W        W38376  22.172  17.688   1.692
66651W        W38377   4.977  18.772  13.331
66652W        W38378   0.879  25.561   4.869
66653W        W38379  14.670  10.934   2.291
66654W        W38380  17.296  42.902  14.623
66655W        W38381   4.422  34.854  12.446
66656W        W38382   6.808  16.809  13.352
66657W        W38383  18.494   5.639  11.177
66658W        W38384   2.283  41.789   4.721
66659W        W38385  12.314  38.975  12.993
66660W        W38386  41.024  26.533  10.632
66661W        W38387  30.686  42.264   0.609
66662W        W38388   5.886  20.461   4.708
66663W        W38389  30.041   5.774   1.904
66664W        W38390  24.671  29.603  12.481
66665W        W38391  27.191  28.326   0.299
66666W        W38392  10.215  33.563  13.352
66667W        W38393  34.892   4.187  12.052
66668W        W38394  22.555  15.384  10.706
66669W        W38395  25.090  11.701  13.064
66670W        W38396  31.418  18.347  13.584
66671W        W38397   4.452  42.354  12.415
66672W        W38398  39.026  16.137  11.325
66673W        W38399  28.499  14.174  12.369
66674W        W38400   1.254  29.394   2.648
66675W        W38401   5.578  38.143  13.772
66676W        W38402   0.769  36.815  14.406
66677W        W38403  33.109  10.437  11.598
66678W        W38404   2.307  17.340  10.652
66679W        W38405  32.169  16.531   2.183
66680W        W38406  21.766  38.848  11.498
66681W        W38407   3.884   9.253  14.008
66682W        W38408  43.418  18.219   3.745
66683W        W38409   3.457  27.916   3.303
66684W        W38410  33.942  14.760  11.183
66685W        W38411  40.592  16.849  10.577
66686W        W38412  15.847  30.972  12.907
66687W        W38413  18.950  22.128   3.721
66688W        W38414  14.804  15.783  13.537
66689W        W38415   4.685  20.673  12.874
66690W        W38416   5.933  28.174  13.926
66691W        W38417  30.899  44.093  10.233
66692W        W38418   6.970  28.191  10.773
66693W        W38419  14.503  21.558  12.439
66694W        W38420  10.328   7.802   0.728
66695W        W38421  30.991  11.361   0.365
66696W        W38422  17.672   6.672  13.528
66697W        W38423  26.037   9.704   2.304
66698W        W38424  42.103  41.017  13.921
66699W        W38425  11.338  10.031  12.587
66700W        W38426  42.352  39.452   1.803
66701W        W38427   0.294   7.906  10.665
66702W        W38428  17.104  29.375   3.335
66703W        W38429   0.397  42.224   4.366
66704W        W38430  26.016  42.386  11.394
66705W        W38431   0.252  22.293   2.798
66706W        W38432  33.289  14.906  14.969
66707W        W38433  32.908  14.146   3.722
66708W        W38434  41.840  42.098   1.197
66709W        W38435  43.935  30.235   0.175
66710W        W38436   9.324  42.360  12.644
66711W        W38437  17.582  16.321   1.275
66712W        W38438  20.374  37.434   2.704
66713W        W38439  28.607   5.818  12.854
66714W        W38440  28.125  32.157  12.029
66715W        W38441  24.535  16.566   3.230
66716W        W38442   6.162  29.887   2.811
66717W        W38443  10.869  13.276   2.097
66718W        W38444  31.279  43.431   0.083
66719W        W38445  37.069  31.277  12.263
66720W        W38446   2.932  25.164  14.956
66721W        W38447  29.001   8.243  11.597
66722W        W38448  14.138  38.591   0.934
66723W        W38449  13.654   6.677   0.722
66724W        W38450   2.200  16.789  12.447
66725W        W38451  36.534  26.526  14.852
66726W        W38452  27.148  28.388  10.565
66727W        W38453  25.537  44.053   0.755
66728W        W38454  19.134  37.837   0.702
66729W        W38455  14.770  28.767   0.398
66730W        W38456  35.027  27.576  11.496
66731W        W38457  12.538  14.731   1.859
66732W        W38458   6.080  37.571   0.845
66733W        W38459  10.201   3.129  13.246
66734W        W38460   7.233  34.626  13.414
66735W        W38461  29.421  24.067   0.215
66736W        W38462   3.716  24.438  10.406
66737W        W38463  41.158  32.959   4.345
66738W        W38464  38.014  22.102  11.489
66739W        W38465  15.854  21.446  10.665
66740W        W38466   3.719  16.837   4.168
66741W        W38467  44.417  11.755  11.071
66742W        W38468   6.649  36.407  10.655
66743W        W38469  44.683  32.098  13.080
66744W        W38470  20.689  20.112   0.001
66745W        W38471  13.670  14.101  12.595
66746W        W38472   1.368   0.988   1.289
66747W        W38473  33.037  24.058  11.591
66748W        W38474  38.091  42.053   0.960
66749W        W38475  15.132  31.172  10.930
66750W        W38476   8.975  28.020  14.318
66751W        W38477  24.249   6.734  13.924
66752W        W38478   0.210  35.793  10.522
66753W        W38479  25.187  43.480  11.134
66754W        W38480  19.739   5.835   4.139
66755W        W38481   8.403  22.581  14.348
66756W        W38482   1.606  41.412  10.673
66757W        W38483  31.460   2.788  11.205
66758W        W38484  36.518  16.611  11.194
66759W        W38485  37.404  34.953   3.397
66760W        W38486  40.031  43.445   1.009
66761W        W38487  12.565  11.599   1.297
66762W        W38488  44.775  29.758   0.260
66763W        W38489   5.715  34.964  12.390
66764W        W38490  40.879   5.262  10.615
66765W        W38491  23.723  10.779   3.109
66766W        W38492   1.943  15.528  11.578
66767W        W38493   4.707  36.096  11.078
66768W        W38494  39.249  38.261  14.774
66769W        W38495  13.175  29.760  12.508
66770W        W38496  15.988  24.445  11.345
66771W        W38497  17.266   2.855  10.494
66772W        W38498   7.795   0.347   2.177
66773W        W38499   3.100  14.453  11.880
66774W        W38500  18.266  35.917  14.440
66775W        W38501  12.729  19.809  14.001
66776W        W38502  26.454   5.897   2.793
66777W        W38503  12.714  37.770  14.840
66778W        W38504  28.046  23.855  10.696
66779W        W38505  42.878  30.449  13.444
66780W        W38506  32.913  24.065   2.803
66781W        W38507  21.531  36.659  10.885
66782W        W38508  15.175  36.761  10.242
66783W        W38509  10.025  32.550  11.106
66784W        W38510  41.327  21.981   1.914
66785W        W38511  44.827  13.791  10.655
66786W        W38512   1.456  13.561   2.367
66787W        W38513  19.982  12.854  11.159
66788W        W38514   7.194  29.374   1.741
66789W        W38515   7.351  28.097   2.280
66790W        W38516  29.601  42.140   2.134
66791W        W38517  18.000  14.913   4.289
66792W        W38518  13.186   7.169   0.458
66793W        W38519  27.591  42.778  13.013
66794W        W38520   2.910  44.349  11.129
66795W        W38521  21.590  17.474   2.733
66796W        W38522  24.155  23.160   1.270
66797W        W38523  15.886   2.101   4.570
66798W        W38524  44.431  43.775   3.218
66799W        W38525  27.579  42.516   2.618
66800W        W38526   4.622  25.173  11.205
66801W        W38527  25.548  17.399  14.366
66802W        W38528  21.891   8.410  12.196
66803W        W38529  29.108   2.335  14.197
66804W        W38530  28.737   0.491  13.754
66805W        W38531   7.339   9.766  10.959
66806W        W38532  11.631   7.917   3.639
66807W        W38533   9.050  40.282  14.676
66808W        W38534  33.491  44.458  10.736
66809W        W38535  19.315  29.592   1.247
66810W        W38536  20.021   5.133  12.542
66811W        W38537  24.425  19.288  10.591
66812W        W38538  19.884  23.106  13.502
66813W        W38539   5.705  20.130  12.516
66814W        W38540  20.690  41.498  14.207
66815W        W38541  33.513  14.713  12.643
66816W        W38542  23.547  27.603  12.911
66817W        W38543   4.439   1.194  13.439
66818W        W38544  27.674  19.101   1.726
66819W        W38545  34.094   0.331   4.065
66820W        W38546   3.309  13.880   5.038
66821W        W38547  40.242  25.767  12.759
66822W        W38548   6.459  28.191  10.694
66823W        W38549  17.373   1.679   4.468
66824W        W38550   5.523  26.560  14.333
66825W        W38551   3.944  27.275  12.017
66826W        W38552  32.953  30.881   1.667
66827W        W38553  24.767   5.742  12.381
66828W        W38554  43.427   1.459  14.534
66829W        W38555  40.662   0.807  14.259
66830W        W38556   7.850   8.643  12.075
66831W        W38557  34.457  36.765  14.390
66832W        W38558  20.754  13.342  13.777
66833W        W38559  21.982  26.830  11.036
66834W        W38560   8.239  18.376  13.868
66835W        W38561  28.098  30.855   4.539
66836W        W38562   6.945  11.733   2.151
66837W        W38563  29.011  15.002   1.343
66838W        W38564  16.435  29.518  10.454
66839W        W38565  21.002  44.267   4.655
66840W        W38566   1.605  27.823   0.867
66841W        W38567  36.547  39.324  11.565
66842W        W38568  41.813  25.473   4.215
66843W        W38569   0.183  18.948  11.203
66844W        W38570  20.940  13.776   1.725
66845W        W38571  44.529  28.402  13.167
66846W        W38572  38.806  12.649   5.059
66847W        W38573  11.147  27.835  10.641
66848W        W38574  11.130  25.585  13.807
66849W        W38575   5.360  16.341  11.616
66850W        W38576  27.634   1.965  13.817
66851W        W38577  34.946  30.734  11.987
66852W        W38578  13.437  44.790   0.343
66853W        W38579   0.580  28.164  13.348
66854W        W38580  11.625  31.402  13.000
66855W        W38581  40.273   2.363  13.285
66856W        W38582   9.773  19.513   2.772
66857W        W38583  25.543   0.819  14.993
66858W        W38584  32.579  34.427   3.106
66859W        W38585  10.596  24.777   4.542
66860W        W38586  29.578  35.530  11.009
66861W        W38587  43.134  41.364  11.840
66862W        W38588  22.144  33.180   3.739
66863W        W38589  24.100  40.399  14.239
66864W        W38590  19.283   7.734   1.910
66865W        W38591  14.232  28.719  13.378
66866W        W38592   8.902  42.226  12.393
66867W        W38593  22.433  41.803   2.811
66868W        W38594   4.796  10.310   1.704
66869W        W38595  28.892  14.033  13.769
66870W        W38596  36.374   0.529   1.894
66871W        W38597  13.620  25.236   1.356
66872W        W38598  11.828  34.531   3.109
66873W        W38599  32.633  14.850  10.738
66874W        W38600  16.323  41.271   3.694
66875W        W38601  16.900  27.962   0.427
66876W        W38602  30.502  13.247  10.798
66877W        W38603   1.969   2.218   3.330
66878W        W38604  23.102  25.501   2.826
66879W        W38605  27.364  17.726   2.946
66880W        W38606  41.056  33.659   3.641
66881W        W38607   7.754  39.529  14.320
66882W        W38608  43.269  26.488   4.786
66883W        W38609  36.991   4.792  14.254
66884W        W38610   2.369  41.860   2.214
66885W        W38611  10.284  35.952   3.827
66886W        W38612  37.716  38.459  14.742
66887W        W38613  12.264  27.057   2.699
66888W        W38614   4.381   2.339   1.952
66889W        W38615   5.327  29.241  11.139
66890W        W38616  41.413  39.531  13.290
66891W        W38617  20.239   5.794   0.025
66892W        W38618  37.743  20.144   0.962
66893W        W38619  22.655  31.753   5.069
66894W        W38620  34.372  12.309   3.848
66895W        W38621  24.297  31.944  11.120
66896W        W38622  20.947  20.799  14.727
66897W        W38623   3.168  11.639   0.936
66898W        W38624  17.711  21.528   4.863
66899W        W38625  18.636  30.360  11.011
66900W        W38626   5.128  19.293  13.926
66901W        W38627  29.999  30.525  14.921
66902W        W38628  20.776  25.723  12.473
66903W        W38629  15.260   1.473  14.826
66904W        W38630  24.191  25.480   1.487
66905W        W38631  26.696  26.590   2.567
66906W        W38632  33.997  43.900  11.895
66907W        W38633  38.290  43.455  13.980
66908W        W38634  17.231   3.531  12.579
66909W        W38635  32.629  28.580   0.932
66910W        W38636  25.037  22.781   2.124
66911W        W38637  29.981  11.879  12.533
66912W        W38638  37.307  21.606  11.905
66913W        W38639   1.398  42.235  13.357
66914W        W38640  30.423  13.024  13.850
66915W        W38641   5.190  23.326  13.026
66916W        W38642  22.605   8.590   3.239
66917W        W38643   8.372   0.827   3.305
66918W        W38644  39.086  23.699   0.431
66919W        W38645  42.017  22.715   3.353
66920W        W38646  30.141   1.442   2.181
66921W        W38647  11.454  18.674   0.973
66922W        W38648  26.432  41.015   3.218
66923W        W38649  26.049  43.416  11.977
66924W        W38650   1.299  29.115   3.329
66925W        W38651  40.115  39.963  14.510
66926W        W38652  34.153  21.770   3.377
66927W        W38653   4.183   3.637  13.435
66928W        W38654  38.465  20.946   3.289
66929W        W38655  19.840  38.382   2.715
66930W        W38656  38.034  19.465  14.852
66931W        W38657  16.367  36.375  13.351
66932W        W38658   8.380  10.185  11.642
66933W        W38659  25.745   3.618   0.937
66934W        W38660  15.612  35.391  11.153
66935W        W38661  37.046  11.661   3.680
66936W        W38662  30.742  27.237   5.552
66937W        W38663   0.103  43.235  12.012
66938W        W38664  15.111   0.400  11.659
66939W        W38665  33.547  16.713  13.943
66940W        W38666   9.154   4.772  11.113
66941W        W38667  34.607  23.616   1.030
66942W        W38668  41.475  23.497  12.089
66943W        W38669  19.674  38.049  12.792
66944W        W38670  40.373  18.049  13.351
66945W        W38671   2.974  34.871   1.341
66946W        W38672   7.708  19.310  12.083
66947W        W38673  26.443  15.291   3.302
66948W        W38674  12.078   5.630   2.228
66949W        W38675   6.337  34.202   1.507
66950W        W38676  42.061  43.736   4.641
66951W        W38677   0.591  28.553  14.614
66952W        W38678  15.559  22.700   2.815
66953W        W38679  17.080  32.252   4.527
66954W        W38680   0.306  33.215  12.930
66955W        W38681  26.059  31.530  10.577
66956W        W38682   5.918  26.062   4.672
66957W        W38683  37.934  31.416   2.252
66958W        W38684  27.635  12.019   2.240
66959W        W38685  37.174  39.844  11.051
66960W        W38686  30.419  20.624  12.546
66961W        W38687   9.630  35.606  11.663
66962W        W38688  32.163  37.372   0.760
66963W        W38689  36.936  20.688   0.262
66964W        W38690   8.263  21.646   4.339
66965W        W38691  30.727  28.475   4.674
66966W        W38692  19.636  19.227  12.892
66967W        W38693  19.014  34.451  12.325
66968W        W38694  16.319  32.498   0.951
66969W        W38695   2.031  32.568   0.037
66970W        W38696   0.243  24.732  13.479
66971W        W38697   0.906   3.326   0.912
66972W        W38698   6.256  17.592  13.050
66973W        W38699  11.404  14.755   2.783
66974W        W38700  41.033  27.083  13.282
66975W        W38701  37.185  25.274  12.915
66976W        W38702  36.126   8.721   4.689
66977W        W38703  28.625   8.335  13.880
66978W        W38704  15.655  36.959   4.563
66979W        W38705  24.055  36.061  14.548
66980W        W38706   0.732   2.465   2.317
66981W        W38707  27.001  33.519   0.097
66982W        W38708   6.122  27.516   3.149
66983W        W38709  38.455   0.740  12.525
66984W        W38710  35.349  23.171  12.484
66985W        W38711  36.629   2.829   1.935
66986W        W38712  10.517  19.249  13.449
66987W        W38713  27.287  13.613   2.590
66988W        W38714   9.869  37.469   1.461
66989W        W38715  42.381  39.697   3.150
66990W        W38716   8.944  20.700   2.469
66991W        W38717  15.792  39.978  11.589
66992W        W38718   1.252   3.712  13.456
66993W        W38719   8.183   9.926  12.030
66994W        W38720  22.608   3.997   0.763
66995W        W38721   9.843  28.931   3.739
66996W        W38722  27.097  17.777  14.504
66997W        W38723  30.371  30.109   0.821
66998W        W38724  18.224  43.087   4.325
66999W        W38725  17.311  11.712  13.945
67000W        W38726  10.362   3.995  12.880
67001W        W38727  14.699  26.932   2.587
67002W        W38728   1.415  18.023   4.616
67003W        W38729  38.048   6.166  14.604
67004W        W38730  20.722  24.153   2.894
67005W        W38731   7.166  32.566   0.757
67006W        W38732  28.692  31.546  11.715
67007W        W38733  30.419  43.542  12.819
67008W        W38734  19.683  15.806  14.978
67009W        W38735   3.809  10.840  10.931
67010W        W38736  27.044  16.040   0.960
67011W        W38737  30.901  18.662   2.840
67012W        W38738  39.431   6.703   4.114
67013W        W38739  26.940  31.180   0.322
67014W        W38740  15.229  10.995  14.986
67015W        W38741   5.201  23.671   1.998
67016W        W38742  24.464   8.644  14.424
67017W        W38743  33.532   7.719  12.117
67018W        W38744   7.464  14.895  14.381
67019W        W38745  21.682   7.067   1.298
67020W        W38746   5.914  34.359  11.553
67021W        W38747  40.359   4.904  10.671
67022W        W38748  14.566   0.288   1.324
67023W        W38749  33.204  20.604  14.493
67024W        W38750   6.971  28.690   2.416
67025W        W38751  20.064  41.543   4.049
67026W        W38752  24.754  17.983  14.389
67027W        W38753  22.061  19.584  14.500
67028W        W38754   6.781   0.101   1.892
67029W        W38755  22.024  33.054  14.235
67030W        W38756  29.547   5.399   4.542
67031W        W38757  25.244  39.070   2.716
67032W        W38758   5.783  36.453   0.246
67033W        W38759  32.400  22.745  14.888
67034W        W38760  23.930  39.789   0.537
67035W        W38761  13.627  30.912   2.867
67036W        W38762  25.952  15.799   4.646
67037W        W38763  27.429  12.760   4.510
67038W        W38764  43.286   7.963   4.477
67039W        W38765  14.792  20.837   4.393
67040W        W38766  11.386  36.870   4.729
67041W        W38767   8.390   5.271  12.793
67042W        W38768  39.978  29.531   1.743
67043W        W38769  33.008  33.847   4.165
67044W        W38770  22.747   7.274   4.242
67045W        W38771  30.396  39.527   3.329
67046W        W38772   0.456  25.878   4.865
67047W        W38773  21.007   3.014   0.908
67048W        W38774  43.615  36.351  12.396
67049W        W38775  10.358  35.136  14.606
67050W        W38776  30.542  22.498  12.633
67051W        W38777  34.675  28.072   4.714
67052W        W38778  41.934  18.006  10.854
67053W        W38779  39.148  28.150   5.226
67054W        W38780  19.580  24.102  14.985
67055W        W38781   1.399  36.066   2.335
67056W        W38782  25.489  42.459   4.694
67057W        W38783  21.112  34.122   1.414
67058W        W38784   9.414  12.082   3.711
67059W        W38785  32.967  38.514  10.693
67060W        W38786   8.699  28.574   0.644
67061W        W38787   1.950  44.005  13.436
67062W        W38788  35.930   8.770   2.017
67063W        W38789  32.648  22.213  13.924
67064W        W38790  27.748  15.551   1.768
67065W        W38791  39.384  40.781  13.923
67066W        W38792  25.402  43.259   9.820
67067W        W38793  36.018  35.807   4.593
67068W        W38794  36.609  16.272  12.549
67069W        W38795  23.116   6.645  14.417
67070W        W38796  15.669  25.546  14.858
67071W        W38797  15.217   9.569   2.056
67072W        W38798  16.155  39.289  12.579
67073W        W38799  15.700   2.286  10.643
67074W        W38800  39.243   9.766  12.912
67075W        W38801  32.376   3.426   2.369
67076W        W38802  31.738  33.511  12.788
67077W        W38803   3.252  39.756  11.425
67078W        W38804   2.359  44.416   4.336
67079W        W38805  12.758  44.550  10.119
67080W        W38806   0.299   3.811  11.997
67081W        W38807  40.592  32.079   4.490
67082W        W38808  33.006   5.908   3.736
67083W        W38809  29.995   8.892  12.527
67084W        W38810  15.365  35.988  13.812
67085W        W38811   2.381  10.973  14.912
67086W        W38812  42.544  34.705  12.886
67087W        W38813  23.477  25.536  13.674
67088W        W38814  32.418  21.632   3.796
67089W        W38815   6.857  32.431   4.308
67090W        W38816   3.544  12.634  11.695
67091W        W38817  34.297  27.597  13.697
67092W        W38818  32.033  10.167   4.691
67093W        W38819   9.326  36.444   3.204
67094W        W38820  28.591  43.525  12.617
67095W        W38821  34.521  42.804   0.955
67096W        W38822   9.135  17.709  12.987
67097W        W38823  16.794  40.883  10.866
67098W        W38824  34.174   2.585  10.995
67099W        W38825   7.779  38.926   1.809
67100W        W38826  37.854  40.627  10.610
67101W        W38827  30.033  37.849  12.114
67102W        W38828  28.640  35.261   4.932
67103W        W38829  18.170   5.165   0.263
67104W        W38830  44.624   0.585  11.354
67105W        W38831  27.897  41.577   2.632
67106W        W38832  21.076  35.944   1.044
67107W        W38833   1.794  43.762  12.982
67108W        W38834  43.960  41.994  14.505
67109W        W38835   9.622  12.355  12.431
67110W        W38836  38.087   6.838   3.833
67111W        W38837  28.436  42.445   0.891
67112W        W38838  39.466  37.978   1.090
67113W        W38839  17.069  15.933  10.054
67114W        W38840  29.988  14.790  14.029
67115W        W38841  21.549  18.652   3.947
67116W        W38842  29.465  21.747  12.094
67117W        W38843  16.589  36.844   3.623
67118W        W38844   0.857  10.681  13.798
67119W        W38845  21.503  33.521  12.037
67120W        W38846  28.963  19.565   1.010
67121W        W38847   3.267  43.032  11.201
67122W        W38848  32.140  13.390  11.795
67123W        W38849  10.915  36.891  10.622
67124W        W38850   1.331  23.277   0.341
67125W        W38851   5.040  16.965  14.684
67126W        W38852  36.073  23.012   0.848
67127W        W38853  38.068  40.310   3.433
67128W        W38854  24.906   3.381   1.222
67129W        W38855   1.957  39.343  10.718
67130W        W38856  27.447   0.579   5.052
67131W        W38857   5.394  14.953   0.937
67132W        W38858  41.302  15.710  14.285
67133W        W38859  30.448   2.209  14.123
67134W        W38860  37.974  44.495  11.508
67135W        W38861  41.148  29.141   3.336
67136W        W38862  26.411  12.196  14.363
67137W        W38863   2.568  11.225   1.342
67138W        W38864  28.328   7.787  11.689
67139W        W38865  18.453  35.167  10.278
67140W        W38866  14.275  43.976   1.811
67141W        W38867  14.447  12.669   9.966
67142W        W38868   7.636  29.951   4.694
67143W        W38869  25.070  39.021   0.485
67144W        W38870  20.760  19.056  11.359
67145W        W38871  44.874  16.850  10.705
67146W        W38872  38.406  32.800  11.538
67147W        W38873  25.116  41.493  14.776
67148W        W38874  15.768  28.264   1.189
67149W        W38875  37.979  24.433   2.344
67150W        W38876  12.778  29.396   4.275
67151W        W38877  16.692   9.970   0.717
67152W        W38878  19.164  22.978   4.692
67153W        W38879   1.849  35.874  13.929
67154W        W38880  33.630   1.525  13.819
67155W        W38881  32.488  37.381   0.088
67156W        W38882  40.839  11.569   4.738
67157W        W38883  39.806  17.820   2.357
67158W        W38884  44.475   9.652   0.724
67159W        W38885   7.664  36.729   2.823
67160W        W38886  39.173   2.216   1.607
67161W        W38887  30.924  29.970  13.964
67162W        W38888  43.808  42.235   2.595
67163W        W38889  24.870  39.991   2.312
67164W        W38890  33.848  18.729  13.454
67165W        W38891   5.924  44.899   4.608
67166W        W38892  28.740   3.239   4.819
67167W        W38893   1.043  34.866  12.372
67168W        W38894  29.146  26.521  11.609
67169W        W38895   2.843  39.622   0.836
67170W        W38896   6.808  17.289   1.464
67171W        W38897  33.104  33.365   0.741
67172W        W38898  21.608  31.086  14.250
67173W        W38899  32.537   5.791  13.352
67174W        W38900   5.619  32.850  11.604
67175W        W38901   7.646  14.764   3.036
67176W        W38902   0.314  13.591  13.738
67177W        W38903  38.076   7.725   3.862
67178W        W38904  39.647  10.569   1.410
67179W        W38905  20.715   2.061  11.701
67180W        W38906  21.649  21.768   4.619
67181W        W38907  25.289   0.335  13.449
67182W        W38908  12.396  40.806   1.850
67183W        W38909  10.394  34.190  14.948
67184W        W38910  28.261  38.967   2.860
67185W        W38911  32.930  34.402   2.400
67186W        W38912  15.539  19.999  14.507
67187W        W38913  26.381   2.737   3.551
67188W        W38914  15.770  24.111  13.052
67189W        W38915   8.457  24.979  11.158
67190W        W38916   9.859  30.058   3.128
67191W        W38917  23.857  38.332   2.741
67192W        W38918  32.506  33.430  12.008
67193W        W38919  27.629  14.627  12.096
67194W        W38920  10.633  27.984  13.498
67195W        W38921  25.460  29.254   4.689
67196W        W38922   6.987   4.759  13.977
67197W        W38923   5.417   7.616   1.410
67198W        W38924  21.323  28.394  12.809
67199W        W38925  38.507  32.357   3.812
67200W        W38926  42.048   3.805  13.504
67201W        W38927  28.644  33.974  13.782
67202W        W38928  12.152  24.100  14.974
67203W        W38929  33.065   3.218  13.014
67204W        W38930  26.884  36.949   3.763
67205W        W38931   6.194  29.094   3.189
67206W        W38932  41.519  28.921   1.194
67207W        W38933  40.202   5.429   3.082
67208W        W38934  43.739  12.776   1.881
67209W        W38935  13.835   7.521  12.563
67210W        W38936  36.268   9.400   3.323
67211W        W38937   7.547  24.355   5.358
67212W        W38938  41.526   2.792  13.806
67213W        W38939  15.519  29.114   4.582
67214W        W38940  44.308  40.031  10.515
67215W        W38941  27.129  26.078  13.504
67216W        W38942   3.111   2.274  13.934
67217W        W38943   9.387  31.315  13.037
67218W        W38944  11.277  22.560  12.426
67219W        W38945  41.836  34.920  10.644
67220W        W38946   8.694  34.194  14.489
67221W        W38947   5.975   0.821   4.569
67222W        W38948   5.521   9.849  10.781
67223W        W38949   8.779  17.762  14.327
67224W        W38950  32.817  38.905   2.596
67225W        W38951  13.214  41.188  14.938
67226W        W38952  38.255  11.463  10.540
67227W        W38953  13.077  19.789   0.291
67228W        W38954  20.778  27.725   5.502
67229W        W38955  34.694  26.523   1.662
67230W        W38956  43.380  39.771   4.137
67231W        W38957   9.108   3.375  14.995
67232W        W38958  29.069  42.330   2.714
67233W        W38959  24.751  28.036  12.022
67234W        W38960   5.042  26.286  10.079
67235W        W38961  25.138   2.680   0.291
67236W        W38962  19.064  20.664   3.918
67237W        W38963   3.840  21.132  13.015
67238W        W38964  29.637  27.882   4.156
67239W        W38965   9.250  23.065   2.810
67240W        W38966  22.645  42.425  11.681
67241W        W38967  33.323  17.580   2.862
67242W        W38968  10.823  21.175   2.329
67243W        W38969  22.996  16.603   1.307
67244W        W38970  37.029   1.736  13.806
67245W        W38971  32.033   7.714   4.061
67246W        W38972  26.552   3.247   3.632
67247W        W38973  15.187   2.549  11.151
67248W        W38974  38.156  14.122  14.152
67249W        W38975  36.787  34.618  11.844
67250W        W38976  37.294  29.493  11.163
67251W        W38977  35.373  12.315   4.688
67252W        W38978  18.238   8.325  12.941
67253W        W38979  20.610  18.750   4.111
67254W        W38980  13.963  16.192  14.556
67255W        W38981   9.261  21.769   0.727
67256W        W38982  22.117  31.469   1.836
67257W        W38983  31.089  32.001  13.296
67258W        W38984  24.408  44.988   3.757
67259W        W38985  27.883  30.557  11.647
67260W        W38986   0.351  28.940   2.171
67261W        W38987  27.995   7.359  12.625
67262W        W38988  20.254   2.029  13.451
67263W        W38989  14.693   0.119  11.067
67264W        W38990   2.252   3.781   2.428
67265W        W38991   0.988  12.549  13.023
67266W        W38992  30.480  14.723  13.096
67267W        W38993   9.190   4.985   3.496
67268W        W38994  15.283   9.827   0.548
67269W        W38995  29.026  38.283  12.060
67270W        W38996   4.132  28.618   2.929
67271W        W38997  44.355  23.108   1.261
67272W        W38998   8.147  21.743   2.973
67273W        W38999  30.229  21.202   1.549
67274W        W39000  40.510   1.691  12.590
67275W        W39001  12.941  39.539  11.056
67276W        W39002  16.034  44.672  11.961
67277W        W39003  30.452  35.850   2.775
67278W        W39004  43.074  20.440   3.393
67279W        W39005  26.152   6.201   1.539
67280W        W39006   9.918  26.171   5.349
67281W        W39007  27.029   0.710   3.828
67282W        W39008   3.188  24.746   2.842
67283W        W39009  32.985  25.734   3.180
67284W        W39010  32.416   1.690  12.542
67285W        W39011  28.978  29.729  13.618
67286W        W39012  36.544   6.178  13.699
67287W        W39013   5.312  22.161  11.608
67288W        W39014  36.379  41.702   1.973
67289W        W39015  22.163  33.922   0.455
67290W        W39016  40.994  44.544   2.593
67291W        W39017  16.029  41.209  12.530
67292W        W39018  14.627  31.812  13.158
67293W        W39019   2.444  10.806   3.370
67294W        W39020  19.173   6.421  11.524
67295W        W39021  16.155   4.375   4.665
67296W        W39022  31.593  21.737   2.427
67297W        W39023  42.246  22.669  10.518
67298W        W39024  29.279  26.459   0.340
67299W        W39025  19.309   1.359   1.837
67300W        W39026   2.231  13.316   4.469
67301W        W39027  26.292  28.114  12.013
67302W        W39028  35.290   8.346  14.851
67303W        W39029  30.150   7.279  10.721
67304W        W39030  17.270  17.012   5.112
67305W        W39031  39.959  19.003   0.818
67306W        W39032   9.692  14.476  13.587
67307W        W39033  28.930   6.987  14.383
67308W        W39034  13.893   6.857  11.271
67309W        W39035  25.991  24.442  14.302
67310W        W39036  41.394  24.602   0.348
67311W        W39037   0.082  34.866   4.827
67312W        W39038  36.148  21.218   3.150
67313W        W39039  29.216  34.489  11.160
67314W        W39040  21.802   7.718  13.135
67315W        W39041  38.462  33.516  11.001
67316W        W39042  16.669  36.039  10.609
67317W        W39043  41.489  40.842   1.352
67318W        W39044  40.338   5.129  12.074
67319W        W39045  23.156  29.987  11.972
67320W        W39046  35.075   4.747   2.859
67321W        W39047  32.049  44.353  12.377
67322W        W39048  25.206   1.919  12.478
67323W        W39049  23.553   8.982  13.871
67324W        W39050  23.021  42.265   3.412
67325W        W39051   8.643  14.185   0.339
67326W        W39052  19.757  41.785   3.607
67327W        W39053  37.642  44.201   4.033
67328W        W39054  13.665  10.439   4.134
67329W        W39055   7.966   3.476  14.398
67330W        W39056   2.704  18.531  12.489
67331W        W39057  17.362   5.507  13.558
67332W        W39058   6.425  39.384   4.565
67333W        W39059  24.085  32.450  13.869
67334W        W39060  32.675  13.165  14.294
67335W        W39061  41.364  42.400   0.420
67336W        W39062   3.219  19.568   0.187
67337W        W39063  43.479   6.259   2.769
67338W        W39064  21.273  25.461  13.660
67339W        W39065  12.392  24.224  13.547
67340W        W39066  41.007  35.082  12.537
67341W        W39067   9.100  28.948  10.746
67342W        W39068  12.624   6.684   4.600
67343W        W39069  41.699  11.558  10.547
67344W        W39070  39.525  24.437   3.967
67345W        W39071  44.506  17.238   2.491
67346W        W39072  21.974  43.898   3.582
67347W        W39073  13.418   0.918  10.919
67348W        W39074   0.329  35.512   3.089
67349W        W39075   9.726  19.016   2.684
67350W        W39076  36.128  34.526  11.804
67351W        W39077  14.316  19.738   1.504
67352W        W39078  27.086  29.352   1.514
67353W        W39079   1.759  27.743   2.317
67354W        W39080  38.966  41.331  11.508
67355W        W39081  23.012   4.994  12.862
67356W        W39082  42.230   4.505   2.867
67357W        W39083  26.552  15.116   2.442
67358W        W39084  42.970  39.870  12.023
67359W        W39085  26.273  32.014   1.806
67360W        W39086  11.268  35.132  14.474
67361W        W39087  27.176  44.275  12.103
67362W        W39088  28.494  32.052   1.423
67363W        W39089  33.695  30.320  14.361
67364W        W39090   5.311  20.502   1.699
67365W        W39091  35.852  17.433   3.218
67366W        W39092  36.325  29.995  11.918
67367W        W39093  17.735  23.281   4.119
67368W        W39094  33.437  35.862  13.982
67369W        W39095  41.633  16.678  10.709
67370W        W39096   1.039  44.452   5.085
67371W        W39097  28.853  37.785  11.231
67372W        W39098  37.898  39.482   1.667
67373W        W39099  43.379  35.488   2.218
67374W        W39100  40.005   4.248  11.211
67375W        W39101  32.424  11.662  13.418
67376W        W39102   0.317  14.979  14.439
67377W        W39103  39.350   9.260  12.971
67378W        W39104  14.158   6.420  13.009
67379W        W39105   1.647  15.610   2.357
67380W        W39106   0.965   7.752   0.317
67381W        W39107   4.131  23.201  13.045
67382W        W39108   2.019  29.986   4.101
67383W        W39109  22.755  29.923  10.660
67384W        W39110  24.494   2.976   0.659
67385W        W39111  39.894  29.554  12.075
67386W        W39112  23.444  37.835   1.042
67387W        W39113  37.771  15.861  11.133
67388W        W39114  38.761  37.044  14.428
67389W        W39115  30.007  19.314  12.428
67390W        W39116  12.937  12.219   3.271
67391W        W39117  39.789  15.551  13.564
67392W        W39118  27.907   7.223   3.584
67393W        W39119  25.007  29.066   1.293
67394W        W39120  33.478  17.377  10.685
67395W        W39121  19.002  18.066  13.964
67396W        W39122   1.733   7.333   0.376
67397W        W39123  37.131  20.989   3.398
67398W        W39124   2.479   3.305   2.395
67399W        W39125  26.601   1.248   1.323
67400W        W39126   7.733  34.832  13.455
67401W        W39127  30.172  20.126   2.141
67402W        W39128  12.330  27.532  10.654
67403W        W39129  35.119  25.400  13.456
67404W        W39130   3.742   0.004   2.922
67405W        W39131  35.100  16.562  14.339
67406W        W39132   9.355  35.954   1.022
67407W        W39133  35.574  16.785   3.620
67408W        W39134   7.991  41.865  10.806
67409W        W39135  39.885  36.515  14.126
67410W        W39136  44.340  41.338   3.973
67411W        W39137  24.151  40.376   1.161
67412W        W39138  26.556  27.427  14.464
67413W        W39139  17.814  40.307   1.396
67414W        W39140  36.169  44.940   3.292
67415W        W39141  20.151  13.569   4.626
67416W        W39142   2.883  43.234   1.735
67417W        W39143  25.865  42.214  12.411
67418W        W39144  44.323  35.102   0.420
67419W        W39145   5.323  23.709  13.448
67420W        W39146  30.372  16.075  14.085
67421W        W39147  39.010   5.099   5.115
67422W        W39148  34.888  34.143  14.894
67423W        W39149  39.446  33.136   0.751
67424W        W39150  27.541  16.964  11.583
67425W        W39151   9.833  19.099  10.694
67426W        W39152  27.502   4.335  11.911
67427W        W39153  17.705  42.708   2.259
67428W        W39154  22.010  12.305  11.081
67429W        W39155  33.523   5.344  10.378
67430W        W39156  34.470  32.863  13.926
67431W        W39157  16.179  18.100   4.558
67432W        W39158   8.216  26.056  14.796
67433W        W39159  41.981  16.678   3.294
67434W        W39160  22.260  10.502   2.534
67435W        W39161  10.280   9.152   0.399
67436W        W39162  39.412  29.261   0.149
67437W        W39163  19.198  33.512   3.872
67438W        W39164  13.543  37.511  12.579
67439W        W39165   5.237   2.457   3.166
67440W        W39166  38.518  28.488   0.436
67441W        W39167  24.770  38.998  12.359
67442W        W39168   0.284   4.399  10.680
67443W        W39169  23.963  27.734  12.582
67444W        W39170  10.692  33.369  10.036
67445W        W39171  32.171  15.873   5.072
67446W        W39172  32.070  24.973   0.366
67447W        W39173  34.188   5.195  14.464
67448W        W39174  30.449  18.222   2.023
67449W        W39175  13.770   5.243   2.251
67450W        W39176  19.845  35.142   4.124
67451W        W39177  38.348  26.177  11.565
67452W        W39178  27.732  21.288   3.742
67453W        W39179  32.527  17.596  13.967
67454W        W39180  30.559  39.777  14.405
67455W        W39181  25.957  11.385  12.954
67456W        W39182  23.782   3.934  13.226
67457W        W39183  23.531  32.335   2.199
67458W        W39184  35.889  21.418  14.429
67459W        W39185  31.546  39.039  14.856
67460W        W39186  25.068  12.847  14.052
67461W        W39187   5.189  20.238  12.557
67462W        W39188  32.027   8.955  10.434
67463W        W39189  20.852  35.533   1.803
67464W        W39190  35.717  13.344   1.910
67465W        W39191  38.058  35.196  11.437
67466W        W39192  31.859  42.327  10.409
67467W        W39193  37.927  22.345  12.220
67468W        W39194  33.924   3.848  12.092
67469W        W39195  12.415  44.861   0.433
67470W        W39196   0.182  32.138  12.927
67471W        W39197  39.981   2.416   3.627
67472W        W39198  11.534   5.855  14.123
67473W        W39199  43.983   3.502   0.691
67474W        W39200  26.898  17.031  13.815
67475W        W39201  20.015  38.454  11.563
67476W        W39202  23.200  43.443   3.288
67477W        W39203   7.189  12.227   2.936
67478W        W39204  24.987  15.598   2.340
67479W        W39205  36.815   0.891  13.721
67480W        W39206   9.139   5.184   2.281
67481W        W39207  14.063  36.529   1.478
67482W        W39208  29.654  37.691   2.193
67483W        W39209  18.242   9.873  14.882
67484W        W39210  16.909   5.189   2.382
67485W        W39211  43.756  32.381  11.170
67486W        W39212   4.989  26.180   2.567
67487W        W39213   8.748  39.503   3.954
67488W        W39214  11.725  17.757  10.344
67489W        W39215  44.781  11.284   0.959
67490W        W39216  42.743  13.911   5.102
67491W        W39217  37.364   2.978   0.380
67492W        W39218  28.700  17.140   2.742
67493W        W39219   8.636  31.632   4.888
67494W        W39220  17.546  26.013   2.656
67495W        W39221   8.129  34.439   3.657
67496W        W39222   9.135  16.791  13.419
67497W        W39223  13.565   1.928  14.901
67498W        W39224  22.607  15.251  11.211
67499W        W39225  35.915  42.259   4.475
67500W        W39226  26.851   4.707   2.491
67501W        W39227   8.127  31.044  13.212
67502W        W39228  37.391  13.581  10.620
67503W        W39229  36.556   3.275  10.661
67504W        W39230  18.140  21.262   2.122
67505W        W39231  36.321  27.656   0.503
67506W        W39232  29.027  19.295   1.741
67507W        W39233  28.558  40.844   2.856
67508W        W39234   8.929  41.718  12.652
67509W        W39235  20.384  41.296  13.660
67510W        W39236  36.863  13.765  10.644
67511W        W39237  22.189  34.923   0.934
67512W        W39238   1.013  32.686   1.435
67513W        W39239  36.622   7.404   2.020
67514W        W39240  35.558  12.736   4.437
67515W        W39241  29.278  42.886   4.346
67516W        W39242  11.009  44.865   2.733
67517W        W39243  26.462  44.670   4.491
67518W        W39244  40.288   4.306  13.992
67519W        W39245  32.481  44.399   0.318
67520W        W39246  34.808  42.849   2.732
67521W        W39247  13.847  31.867   0.480
67522W        W39248  22.575  17.609  13.608
67523W        W39249  32.296  14.739  13.400
67524W        W39250  36.689  12.153  12.799
67525W        W39251  11.353  44.399  14.479
67526W        W39252  11.870   7.729  10.699
67527W        W39253   5.506  38.536  12.116
67528W        W39254   9.282  13.707   0.954
67529W        W39255  44.879  25.678   0.406
67530W        W39256  22.346  37.128  13.960
67531W        W39257  14.503  33.913  13.355
67532W        W39258   3.451   7.955   2.212
67533W        W39259  29.619  11.295  13.494
67534W        W39260  42.993  20.711  10.838
67535W        W39261  30.568   0.585   3.359
67536W        W39262  13.206  11.331  13.518
67537W        W39263  14.687   6.365  11.632
67538W        W39264  30.892   1.987  13.415
67539W        W39265  15.097   0.075  10.756
67540W        W39266  43.414  38.607  13.323
67541W        W39267  31.867  15.742  13.885
67542W        W39268   6.032  14.431  13.744
67543W        W39269  38.455  16.762  12.527
67544W        W39270   2.358  29.063  13.125
67545W        W39271  33.846  27.553   2.933
67546W        W39272  38.953   4.483  10.369
67547W        W39273  32.834   3.312  10.734
67548W        W39274  42.251  34.381  14.492
67549W        W39275  16.165   6.974   0.725
67550W        W39276   2.938  35.080  12.173
67551W        W39277  33.441   6.315  12.358
67552W        W39278  38.004   8.838  10.686
67553W        W39279  21.242  42.594  11.179
67554W        W39280  41.745  36.529   3.383
67555W        W39281  12.197  42.662   2.661
67556W        W39282  40.410  11.067   1.714
67557W        W39283  43.220  33.379  10.151
67558W        W39284   8.074  28.997   2.189
67559W        W39285  28.095  21.196   2.809
67560W        W39286  40.314  28.596   0.944
67561W        W39287  11.950  33.875  14.485
67562W        W39288  42.552   3.675   4.245
67563W        W39289  44.570  42.023   0.778
67564W        W39290  35.727   0.910  12.959
67565W        W39291  13.644   1.590  12.990
67566W        W39292  13.144  10.715   4.716
67567W        W39293  36.304  38.801  13.651
67568W        W39294  41.507  24.499   1.449
67569W        W39295   2.341  32.567  13.549
67570W        W39296  31.859  32.222  13.981
67571W        W39297  33.855  27.766  13.948
67572W        W39298  31.664   5.261  11.056
67573W        W39299   8.416   4.796   0.931
67574W        W39300   6.430  17.108  11.587
67575W        W39301  14.947  14.182   4.481
67576W        W39302  12.404  13.182   0.042
67577W        W39303  25.273   0.344  12.539
67578W        W39304  26.164   9.781  11.089
67579W        W39305   2.707  13.196   0.860
67580W        W39306  40.429  26.699   2.917
67581W        W39307  27.396  12.053   3.968
67582W        W39308   4.462  29.448  12.484
67583W        W39309  29.569  39.989   2.716
67584W        W39310  39.538  40.993  10.997
67585W        W39311   8.134  34.206   5.362
67586W        W39312  14.755  40.258   1.291
67587W        W39313   3.307  13.999  14.362
67588W        W39314   9.327  44.821  13.399
67589W        W39315  14.670   3.742  12.040
67590W        W39316  36.202  18.169  11.249
67591W        W39317  31.428  41.778  12.477
67592W        W39318  30.067  12.252  13.576
67593W        W39319  15.277  20.562  14.357
67594W        W39320  30.821  23.300  14.176
67595W        W39321  38.860  27.119   2.381
67596W        W39322  40.325  36.350   3.136
67597W        W39323   8.588   5.641  10.487
67598W        W39324  19.783  34.868  12.408
67599W        W39325  16.506  27.703   3.710
67600W        W39326  13.172  33.498   2.013
67601W        W39327  34.908  44.350  10.240
67602W        W39328  35.552  17.455  14.971
67603W        W39329   1.861  29.859  11.922
67604W        W39330  38.756   3.892  12.099
67605W        W39331  10.453   1.101  10.501
67606W        W39332  20.495  40.459  10.486
67607W        W39333  39.406  22.033   3.178
67608W        W39334  16.857  44.315   0.894
67609W        W39335  16.621  30.377   2.844
67610W        W39336   6.209  43.183   0.874
67611W        W39337  42.565  44.223  14.979
67612W        W39338   3.870  36.665   1.039
67613W        W39339  13.739  23.317   4.936
67614W        W39340  38.343   6.167   0.857
67615W        W39341   6.258  15.841   5.302
67616W        W39342  43.394  14.681   2.915
67617W        W39343  24.770   1.731  11.129
67618W        W39344  33.448  28.428  10.619
67619W        W39345  42.846  24.096   3.659
67620W        W39346   0.063  32.123  12.000
67621W        W39347  36.924  37.482  10.781
67622W        W39348  16.787   3.810  11.577
67623W        W39349  36.072  37.310   2.319
67624W        W39350  24.260  16.044  14.199
67625W        W39351  29.664  22.537  12.466
67626W        W39352  30.062  37.005  11.483
67627W        W39353  43.997  13.477  12.026
67628W        W39354  20.235  16.726  14.967
67629W        W39355  33.443  44.741   3.214
67630W        W39356  35.453   4.935  11.602
67631W        W39357   3.285  42.221  13.400
67632W        W39358   0.302  29.470  14.111
67633W        W39359  37.592   2.244   3.826
67634W        W39360  34.537   2.580   0.295
67635W        W39361   1.585  16.878   4.883
67636W        W39362  31.930  37.203   4.119
67637W        W39363  37.939  29.651  12.512
67638W        W39364  34.377   0.335  12.626
67639W        W39365   1.961  18.749   3.226
67640W        W39366  25.954  27.894   0.867
67641W        W39367  22.150   6.851   1.194
67642W        W39368  26.522  32.883   3.732
67643W        W39369  34.917  28.970  13.835
67644W        W39370  25.100  16.464   3.762
67645W        W39371   8.872   1.392  11.910
67646W        W39372   9.607  29.183   1.129
67647W        W39373  33.587   3.989   1.969
67648W        W39374  44.482   0.065   0.818
67649W        W39375   7.044  42.602  12.258
67650W        W39376  37.976  40.209  14.552
67651W        W39377  37.355  16.524  12.199
67652W        W39378  44.282  20.742   1.176
67653W        W39379  16.177  20.257  14.020
67654W        W39380  34.792  33.548  12.510
67655W        W39381  25.447   9.222   1.865
67656W        W39382  14.726  32.076  14.458
67657W        W39383  41.041  24.506  14.050
67658W        W39384  12.081   9.908   0.981
67659W        W39385   4.417  27.535   0.796
67660W        W39386   6.752  44.260  11.121
67661W        W39387  39.975  38.114  12.665
67662W        W39388   3.505  41.507   3.844
67663W        W39389  41.109  20.602   0.014
67664W        W39390  16.212  24.059   0.860
67665W        W39391   4.797  24.418  13.329
67666W        W39392  34.597  40.910   0.516
67667W        W39393  39.020   6.862   1.770
67668W        W39394  28.530  34.073  14.314
67669W        W39395  32.934  20.070   3.292
67670W        W39396  28.262  44.943  12.910
67671W        W39397  16.666  42.241  13.306
67672W        W39398   6.617  29.966   1.717
67673W        W39399  28.153  25.595   3.876
67674W        W39400  30.059  28.628   1.977
67675W        W39401  14.208  31.171   2.302
67676W        W39402  31.125  15.174   0.445
67677W        W39403  41.520  37.355  11.812
67678W        W39404  20.767  28.789  14.585
67679W        W39405  22.447   6.547  13.617
67680W        W39406  22.575  42.207  13.485
67681W        W39407   8.416   9.228   3.900
67682W        W39408  20.304  25.092  14.471
67683W        W39409   4.439  36.745   4.575
67684W        W39410  39.945  14.088  13.824
67685W        W39411  19.822  14.847   1.232
67686W        W39412  34.111  25.100   1.896
67687W        W39413   3.137  26.995  12.441
67688W        W39414  38.191  21.110  13.768
67689W        W39415  19.954  41.902  14.440
67690W        W39416  35.722  34.852   2.478
67691W        W39417   4.697  24.659  12.526
67692W        W39418  29.988  24.265  11.537
67693W        W39419  31.195  31.399  14.083
67694W        W39420  21.194  13.752  14.786
67695W        W39421  31.256  44.714   0.320
67696W        W39422  41.019  15.688  12.149
67697W        W39423  25.529  19.480   1.301
67698W        W39424  27.013   9.258   2.762
67699W        W39425  43.309  22.709   2.624
67700W        W39426  42.518  20.836   0.822
67701W        W39427   7.496  16.122  12.154
67702W        W39428  41.369   3.661  10.426
67703W        W39429   4.068  25.093   4.832
67704W        W39430   5.270  35.143   4.485
67705W        W39431  18.866  15.987  10.224
67706W        W39432  17.685  30.914   2.413
67707W        W39433  19.792  18.750  12.824
67708W        W39434   8.399  34.153   2.787
67709W        W39435  41.423  13.898  10.674
67710W        W39436   7.659  33.562  12.537
67711W        W39437  27.190  27.598  11.226
67712W        W39438  41.973  12.625  13.924
67713W        W39439  25.126  34.141  13.626
67714W        W39440  41.932  29.402  11.802
67715W        W39441  12.138  10.726  11.533
67716W        W39442  35.340   7.655   1.878
67717W        W39443  23.602  16.110  13.398
67718W        W39444  25.695  43.422   0.460
67719W        W39445  22.090  25.340   2.238
67720W        W39446   1.209  21.122   3.263
67721W        W39447  34.008  42.648   3.754
67722W        W39448  16.146  15.912   4.100
67723W        W39449  25.674  43.285   0.965
67724W        W39450  30.658  15.106  13.972
67725W        W39451   0.954  12.053   4.253
67726W        W39452  15.385  43.315   3.545
67727W        W39453  22.613  21.348   4.746
67728W        W39454  24.738   6.892  13.857
67729W        W39455  14.275  38.148  10.675
67730W        W39456  41.331  21.636   4.660
67731W        W39457  37.153  41.596   2.302
67732W        W39458   4.863  40.723  10.676
67733W        W39459  36.352  28.970  12.034
67734W        W39460  14.973  31.637  14.577
67735W        W39461   7.690  16.611   0.957
67736W        W39462  19.702  28.797  14.815
67737W        W39463  21.163  30.093   4.587
67738W        W39464  33.559  10.575  14.914
67739W        W39465  34.824  26.626  10.625
67740W        W39466  40.071  20.286   3.208
67741W        W39467  35.849  44.988   2.264
67742W        W39468   2.829  35.357   1.443
67743W        W39469  24.179  22.845   0.770
67744W        W39470  20.987  38.453   1.988
67745W        W39471  13.383  31.618  14.326
67746W        W39472   8.390   9.994  13.434
67747W        W39473  10.387  11.546  11.152
67748W        W39474  11.901  38.878   4.163
67749W        W39475  18.533  21.994   4.708
67750W        W39476  39.777  14.325   2.778
67751W        W39477  21.629   0.387  11.807
67752W        W39478  22.911  36.500  10.921
67753W        W39479  32.005  30.203   2.918
67754W        W39480  17.635  30.584   4.186
67755W        W39481  30.634  39.837  14.925
67756W        W39482  37.407   4.874   2.237
67757W        W39483  34.231  41.843   3.516
67758W        W39484  36.242  25.678  12.007
67759W        W39485  36.389  42.250   1.972
67760W        W39486  14.952  24.157   1.224
67761W        W39487  32.723  14.317   3.233
67762W        W39488  21.622   7.579   1.241
67763W        W39489  27.431  25.811   4.609
67764W        W39490  35.875  25.627  12.367
67765W        W39491  15.229   2.159  10.410
67766W        W39492  12.902  43.591   3.796
67767W        W39493  36.044  27.994   3.328
67768W        W39494  20.818   4.060   5.145
67769W        W39495   4.363  27.717   1.274
67770W        W39496  33.988  26.757  11.830
67771W        W39497  30.014  27.119  11.620
67772W        W39498  14.320  10.726   2.682
67773W        W39499  10.412  18.636   2.283
67774W        W39500   0.681   7.303  11.588
67775W        W39501  36.896  24.326   0.155
67776W        W39502  38.297  39.758  13.742
67777W        W39503  15.656  19.334  11.053
67778W        W39504   4.075  16.063   4.482
67779W        W39505  27.274  28.489  11.691
67780W        W39506  32.661  40.138   0.781
67781W        W39507  19.085  34.985  10.741
67782W        W39508  25.433  37.590  14.412
67783W        W39509  43.239  21.253   0.393
67784W        W39510   7.704   7.218   3.204
67785W        W39511   9.176  17.075  14.899
67786W        W39512   5.962  13.917  13.752
67787W        W39513  21.594  41.969   3.412
67788W        W39514  20.477  43.830  13.371
67789W        W39515  41.003  10.408   2.313
67790W        W39516  26.114  42.391  13.915
67791W        W39517  14.891  11.002   4.167
67792W        W39518  21.545   8.320   1.936
67793W        W39519  38.054  16.689   3.046
67794W        W39520   3.102  36.421   0.721
67795W        W39521  25.135  14.243  10.084
67796W        W39522  32.530  28.910   3.835
67797W        W39523  14.083  26.508  13.114
67798W        W39524  25.751  10.342   0.305
67799W        W39525  43.523  43.419   3.366
67800W        W39526  21.187  24.580   1.344
67801W        W39527  33.924  18.625   0.886
67802W        W39528  34.730  22.127  14.851
67803W        W39529  15.924  20.732   0.340
67804W        W39530   5.196  18.783   2.838
67805W        W39531  32.068  32.062   2.890
67806W        W39532   6.607  22.474   4.040
67807W        W39533  37.598   6.780   2.668
67808W        W39534  44.207  17.618   1.236
67809W        W39535  34.399  14.719  13.868
67810W        W39536  38.075  24.619   4.277
67811W        W39537  10.167  23.737  10.687
67812W        W39538  37.939  37.508   0.031
67813W        W39539   0.893  16.439  11.647
67814W        W39540   0.065  33.650   0.013
67815W        W39541  24.475   6.261   0.946
67816W        W39542  18.130  21.344  12.442
67817W        W39543   6.307  40.367   2.156
67818W        W39544  30.846  43.479  10.744
67819W        W39545  21.053   6.644  12.003
67820W        W39546  44.834  37.849  14.345
67821W        W39547  19.142  37.296  14.314
67822W        W39548  16.367  34.228   0.988
67823W        W39549  38.730  16.660  10.992
67824W        W39550  19.018  26.997  10.618
67825W        W39551  21.921   4.885   4.109
67826W        W39552  21.793   8.329   3.759
67827W        W39553  21.005  27.635  11.223
67828W        W39554  36.859   6.596  13.962
67829W        W39555   1.002  26.916  14.853
67830W        W39556  41.919  15.024   4.059
67831W        W39557  37.539  43.272  12.671
67832W        W39558  10.784  32.608  11.742
67833W        W39559   5.731  10.723  14.804
67834W        W39560  10.844   6.847  12.096
67835W        W39561  25.639  32.205   4.616
67836W        W39562  41.505  23.294  14.353
67837W        W39563   7.856  24.863   1.408
67838W        W39564  13.148  11.421   1.703
67839W        W39565  42.305  38.810  13.872
67840W        W39566  22.969   8.921  10.635
67841W        W39567  24.218  32.887   4.331
67842W        W39568   9.381  42.190  11.211
67843W        W39569   1.020  18.046  11.658
67844W        W39570   3.963  21.183  13.688
67845W        W39571  37.909  22.035   2.774
67846W        W39572  17.743   5.362   1.751
67847W        W39573  44.544  29.400   1.796
67848W        W39574  39.638  41.029   2.818
67849W        W39575   6.325   1.246  14.018
67850W        W39576  26.764  15.782  12.143
67851W        W39577   1.971  44.519  10.540
67852W        W39578  13.995  12.782   2.628
67853W        W39579  24.062  13.191  10.193
67854W        W39580   1.355   0.182  10.601
67855W        W39581  12.539  39.336   0.822
67856W        W39582  35.302  22.418   4.111
67857W        W39583   5.721  23.203  14.409
67858W        W39584  21.518  19.690  12.436
67859W        W39585  43.267   5.125  10.543
67860W        W39586  13.677  18.163   0.755
67861W        W39587  28.146  43.814   3.857
67862W        W39588   4.259  16.826   2.372
67863W        W39589  19.135  20.618   4.932
67864W        W39590   3.899  43.262   4.227
67865W        W39591  25.153  40.959  14.760
67866W        W39592  19.476  35.436  13.298
67867W        W39593  42.403  44.508   2.882
67868W        W39594  33.232  40.524   0.459
67869W        W39595  25.396  39.935   0.092
67870W        W39596  32.160  11.646   1.733
67871W        W39597  28.236   3.743   3.287
67872W        W39598  38.789   8.764  11.164
67873W        W39599  34.899   1.742   4.241
67874W        W39600  33.952  27.915   0.840
67875W        W39601  13.798  12.637  12.482
67876W        W39602  31.059   1.611  10.780
67877W        W39603  42.611   4.338   0.373
67878W        W39604  32.559  11.865  11.226
67879W        W39605  33.398  30.199   2.717
67880W        W39606   1.521   7.291   4.825
67881W        W39607  42.545   8.814   3.266
67882W        W39608  30.616  42.303  13.531
67883W        W39609  37.344   3.755   0.791
67884W        W39610  42.923  39.496  12.370
67885W        W39611  29.152  16.772   0.834
67886W        W39612  28.946  10.079   1.255
67887W        W39613  16.647   7.396   2.303
67888W        W39614  30.529  43.355   4.448
67889W        W39615  17.196  38.068   1.508
67890W        W39616  26.249   6.509  14.944
67891W        W39617  23.046  15.588   1.416
67892W        W39618  37.966  19.742   0.727
67893W        W39619  29.815  32.861   3.168
67894W        W39620  42.545  30.302  10.625
67895W        W39621   5.236   7.460   4.390
67896W        W39622  40.002  12.140   4.051
67897W        W39623  16.064   8.129  13.628
67898W        W39624   8.217   4.508   4.280
67899W        W39625  28.944   5.195  11.328
67900W        W39626  21.775   7.360  10.885
67901W        W39627   2.375  38.411  11.027
67902W        W39628  16.413  22.056  13.301
67903W        W39629  34.169  35.352  14.718
67904W        W39630   2.303  43.343  13.609
67905W        W39631  16.290  21.997   0.294
67906W        W39632  26.427  21.790   4.577
67907W        W39633  23.621  35.679   0.326
67908W        W39634  42.169  32.908   1.355
67909W        W39635   1.196  35.996   1.869
67910W        W39636  41.040  25.128  13.439
67911W        W39637  11.279  44.976   4.537
67912W        W39638  28.732  29.217  14.514
67913W        W39639  13.223  24.449   3.832
67914W        W39640  27.776  19.840  14.011
67915W        W39641  14.249  12.661   1.622
67916W        W39642  18.700   8.783   2.161
67917W        W39643  25.395  16.869  13.121
67918W        W39644  32.587  13.456   1.748
67919W        W39645   9.250   3.533   1.435
67920W        W39646   4.422   9.286  14.016
67921W        W39647  40.343   9.807   3.175
67922W        W39648   2.914  19.672  14.350
67923W        W39649  36.105   2.971   1.908
67924W        W39650   3.278   5.837  11.575
67925W        W39651  25.133   0.952   2.653
67926W        W39652  16.233  25.836  11.172
67927W        W39653  10.861  32.590   4.575
67928W        W39654  23.903  14.122  10.315
67929W        W39655  30.442  19.670   2.190
67930W        W39656  13.165  27.346  11.221
67931W        W39657  18.211  22.083   1.010
67932W        W39658  20.168   4.085   3.229
67933W        W39659  17.943  17.757  12.620
67934W        W39660   9.357  19.693  11.982
67935W        W39661  29.231  22.631   2.737
67936W        W39662  21.654  19.178   1.871
67937W        W39663   2.529   0.671  12.409
67938W        W39664  27.372  41.618   2.655
67939W        W39665   7.241  19.211  11.218
67940W        W39666   4.877  22.179   1.832
67941W        W39667  14.251  31.154  14.352
67942W        W39668  19.884  32.985   4.208
67943W        W39669  16.818  31.371  14.337
67944W        W39670  41.826  17.283   4.481
67945W        W39671  42.057   1.184  14.341
67946W        W39672  28.622  44.423   0.232
67947W        W39673   7.719  37.223   2.683
67948W        W39674  39.579  16.862   2.250
67949W        W39675  28.988  15.998  10.569
67950W        W39676  13.769  36.101   4.568
67951W        W39677  13.838   1.756  12.019
67952W        W39678  10.559   1.844  11.211
67953W        W39679  35.365   5.892  12.955
67954W        W39680  44.695  35.741  12.032
67955W        W39681  11.799  32.100  14.027
67956W        W39682  41.294  24.550  10.790
67957W        W39683  21.703  40.366   2.688
67958W        W39684  29.637   7.386   1.330
67959W        W39685  18.550  35.954   2.937
67960W        W39686  32.511  32.051  14.690
67961W        W39687  29.734  31.451  14.028
67962W        W39688  13.103   0.881  12.380
67963W        W39689  30.713  28.629  12.911
67964W        W39690   1.440  12.848   4.672
67965W        W39691  29.424  26.686  14.496
67966W        W39692  23.488  17.354  10.543
67967W        W39693  11.194  31.915  12.127
67968W        W39694  11.357  25.692   4.301
67969W        W39695  10.779   7.912  13.499
67970W        W39696   4.335   0.992   3.277
67971W        W39697   3.329  17.570   3.236
67972W        W39698  13.997  36.810  11.514
67973W        W39699   1.191  36.860   1.480
67974W        W39700  16.823   8.624   1.737
67975W        W39701  19.545  13.592   0.817
67976W        W39702  28.216  35.152   4.601
67977W        W39703  19.465   4.179  12.618
67978W        W39704   2.383   5.379  14.918
67979W        W39705   5.930   3.858  13.041
67980W        W39706  14.834  35.968   3.233
67981W        W39707  18.530  38.474  13.557
67982W        W39708  42.828  19.334  12.952
67983W        W39709  27.427  18.164  13.919
67984W        W39710   8.360  32.418  12.986
67985W        W39711   5.102  10.312   0.947
67986W        W39712  23.144   4.506   4.591
67987W        W39713  28.656  23.795  11.894
67988W        W39714  44.032   8.128   1.816
67989W        W39715   2.994  21.757   0.113
67990W        W39716  27.422  21.580  12.983
67991W        W39717   7.141  17.199  10.807
67992W        W39718  34.608  25.093  14.123
67993W        W39719   2.260   4.507  11.222
67994W        W39720  28.867  35.296   3.190
67995W        W39721  34.673  40.819   1.400
67996W        W39722  26.125  41.342  12.907
67997W        W39723  37.284   0.891  13.992
67998W        W39724  37.191  41.884   1.848
67999W        W39725  23.136  40.536  10.439
68000W        W39726  11.743  25.514  14.324
68001W        W39727  33.459   0.448  12.911
68002W        W39728  17.644  32.950  12.962
68003W        W39729  44.956  19.728  13.519
68004W        W39730  32.346   6.709  12.786
68005W        W39731  29.033  43.453  11.918
68006W        W39732  15.708  17.856  12.976
68007W        W39733  29.900  11.768  13.509
68008W        W39734  21.840  35.397  14.774
68009W        W39735   6.862  34.848   3.085
68010W        W39736   2.134   8.614   3.034
68011W        W39737   8.220  43.216   3.753
68012W        W39738  15.273   6.129   4.004
68013W        W39739  31.346  32.654   0.342
68014W        W39740  32.311  14.628   2.360
68015W        W39741  15.738  19.225   4.306
68016W        W39742  28.673  26.435   0.288
68017W        W39743  22.071  43.262  12.966
68018W        W39744  27.271   5.343  10.709
68019W        W39745  32.328  44.656  13.060
68020W        W39746   6.213   9.380  13.399
68021W        W39747  22.187  14.237  14.972
68022W        W39748  41.467  10.181  13.911
68023W        W39749  19.732  15.782  10.670
68024W        W39750  31.929   5.822   4.480
68025W        W39751  17.950  32.250  13.337
68026W        W39752  39.480  33.958  12.899
68027W        W39753  39.328  44.082  12.345
68028W        W39754  34.930   8.828   3.080
68029W        W39755  31.200  33.442  12.853
68030W        W39756  31.657  25.785   5.688
68031W        W39757  26.456   5.844   3.704
68032W        W39758  14.579   6.363   4.318
68033W        W39759  22.814  36.669   1.235
68034W        W39760  44.739  25.291   1.412
68035W        W39761  40.523   0.965   0.885
68036W        W39762  29.852  36.776   2.059
68037W        W39763   9.133   8.501  12.091
68038W        W39764  12.509  13.477  14.311
68039W        W39765  19.356   5.147   3.498
68040W        W39766   7.987  27.998  13.377
68041W        W39767  11.651  15.367  10.689
68042W        W39768   9.369  35.852  12.056
68043W        W39769  31.365   5.865   3.301
68044W        W39770  43.900   8.643  10.765
68045W        W39771  31.151  10.070  14.141
68046W        W39772  34.046  27.061   3.182
68047W        W39773   3.323  15.653   3.536
68048W        W39774  15.141   7.949   0.428
68049W        W39775  33.679  11.218   3.116
68050W        W39776  18.375  13.350  11.656
68051W        W39777   1.484  19.719   2.431
68052W        W39778  14.129  42.840   4.189
68053W        W39779  34.363   5.968   1.232
68054W        W39780  15.580   5.260  12.184
68055W        W39781   5.458  28.713   2.594
68056W        W39782  11.221   3.018   3.758
68057W        W39783  37.905  19.252   3.381
68058W        W39784  26.730  19.579  14.739
68059W        W39785  18.078  17.883   2.778
68060W        W39786  26.516  16.291   2.641
68061W        W39787  11.808  21.266   2.387
68062W        W39788   4.738  40.177  10.693
68063W        W39789  29.034  27.546   3.632
68064W        W39790  44.658  13.217   3.689
68065W        W39791  24.701  31.376   3.246
68066W        W39792  22.981  25.383   5.489
68067W        W39793  26.021   7.394   2.272
68068W        W39794  31.535  39.293  14.387
68069W        W39795  36.892   6.977   1.395
68070W        W39796   7.032   1.816  10.685
68071W        W39797   8.161  13.634   4.202
68072W        W39798  34.820  24.987  11.107
68073W        W39799  37.775  32.078   4.248
68074W        W39800  24.415  23.728   0.263
68075W        W39801   9.245  12.148   1.268
68076W        W39802  23.116  21.938  14.330
68077W        W39803  27.102   4.727  11.433
68078W        W39804  26.425  40.550   4.106
68079W        W39805  17.658  43.910  13.189
68080W        W39806  21.765  25.613  11.466
68081W        W39807   7.469  23.900  14.823
68082W        W39808  14.652   8.628  11.685
68083W        W39809  19.759  44.485   0.545
68084W        W39810  12.924  16.242   4.894
68085W        W39811  40.936  18.803  14.511
68086W        W39812   7.436  34.871  12.997
68087W        W39813   1.713  32.905  10.552
68088W        W39814  30.561   5.335   3.747
68089W        W39815   9.752  17.685  11.074
68090W        W39816  15.594  11.084  13.658
68091W        W39817  19.284  29.705  14.887
68092W        W39818  24.903  18.259   2.823
68093W        W39819  33.357  31.660   0.410
68094W        W39820  16.225  12.325  13.281
68095W        W39821  44.758  31.512  13.898
68096W        W39822  20.491  30.043   4.443
68097W        W39823   2.184  29.709  14.338
68098W        W39824  17.602   6.592   2.574
68099W        W39825  19.088  21.028  11.549
68100W        W39826  23.763  35.519   2.830
68101W        W39827  23.720  14.903   0.472
68102W        W39828  19.641   8.785   3.649
68103W        W39829  15.141  19.002  11.194
68104W        W39830  43.050   3.328  10.692
68105W        W39831   1.926   3.898   3.655
68106W        W39832   3.215  37.399  11.363
68107W        W39833  18.989  40.516   3.239
68108W        W39834  13.119  26.284  13.421
68109W        W39835  28.207  16.292  14.361
68110W        W39836  34.509  31.764  11.577
68111W        W39837  40.230   4.851   4.680
68112W        W39838  35.353  39.219  11.145
68113W        W39839  13.846  10.869   1.291
68114W        W39840   0.180   1.566   0.513
68115W        W39841  25.493  31.874  13.822
68116W        W39842   8.205  40.049  12.020
68117W        W39843   7.852  20.941   3.199
68118W        W39844  14.069  15.168   4.886
68119W        W39845  16.254  17.118   0.695
68120W        W39846  34.459  24.590  13.288
68121W        W39847  17.600  30.596   0.504
68122W        W39848  10.192  38.546  10.762
68123W        W39849   6.888  39.205   0.300
68124W        W39850  37.547  14.600   1.490
68125W        W39851  40.402  41.969  12.430
68126W        W39852   0.199  31.675  11.103
68127W        W39853  44.332   2.192  11.035
68128W        W39854  23.619  43.451   3.622
68129W        W39855   6.693  24.861  10.956
68130W        W39856  14.321  21.013   4.174
68131W        W39857   2.955  18.360   4.566
68132W        W39858  38.258  25.034   2.390
68133W        W39859  27.826  20.307  12.867
68134W        W39860  29.257  18.726  14.962
68135W        W39861   0.350  35.624   2.560
68136W        W39862  28.435   1.505  13.722
68137W        W39863  26.055  29.575  14.878
68138W        W39864  42.505   7.690  12.375
68139W        W39865  16.118  13.135  11.174
68140W        W39866  35.381  14.453  10.557
68141W        W39867  30.425  37.537   0.179
68142W        W39868  13.256   2.334  13.565
68143W        W39869  41.546  21.525   1.457
68144W        W39870  43.093  29.631   0.798
68145W        W39871   9.356  35.086  11.610
68146W        W39872  39.407  23.276  10.417
68147W        W39873   4.146  25.579  13.680
68148W        W39874  20.275  29.174  12.300
68149W        W39875  24.259  10.815  12.939
68150W        W39876  22.102   1.410  12.621
68151W        W39877  40.456  10.720   3.191
68152W        W39878  19.654  24.165   4.863
68153W        W39879  43.884   5.710   2.573
68154W        W39880   2.796  12.086  14.460
68155W        W39881  16.803  21.280   2.884
68156W        W39882  20.455  32.585   0.755
68157W        W39883  19.678  10.301  10.946
68158W        W39884  44.010  41.735  13.984
68159W        W39885   8.171   1.204   3.578
68160W        W39886  42.010  18.677   1.212
68161W        W39887  14.859  44.197  10.640
68162W        W39888  18.956  29.059  12.006
68163W        W39889  18.657  22.745  14.147
68164W        W39890   5.972  12.618   3.701
68165W        W39891  38.062  41.466  10.225
68166W        W39892  11.174  21.428   3.267
68167W        W39893  31.139   9.775   4.407
68168W        W39894  25.027  29.165  12.469
68169W        W39895  33.968  34.044  11.444
68170W        W39896  16.328  38.421  14.772
68171W        W39897  14.112  21.415  11.069
68172W        W39898   3.634  36.438   1.988
68173W        W39899   3.086   3.183  14.606
68174W        W39900  23.162  28.573   5.727
68175W        W39901  16.587  34.076   2.819
68176W        W39902  37.160  22.596   1.391
68177W        W39903  12.418   0.674  14.452
68178W        W39904  36.536  35.818   4.611
68179W        W39905   4.855  16.704  10.577
68180W        W39906  33.874  27.227  14.822
68181W        W39907  31.521  39.739  12.574
68182W        W39908  43.805  40.039  11.645
68183W        W39909  13.360  43.845   3.710
68184W        W39910  15.278   8.333  14.492
68185W        W39911  20.843   1.907   0.226
68186W        W39912  28.180  18.637   2.585
68187W        W39913   1.946  40.831  12.417
68188W        W39914  12.820  14.163  11.714
68189W        W39915  16.905  15.720   4.548
68190W        W39916   1.359   5.387  12.544
68191W        W39917  25.630  18.763  11.739
68192W        W39918  32.607  34.371   3.640
68193W        W39919  31.164   1.073   2.092
68194W        W39920  20.578  34.416  12.470
68195W        W39921   2.939   6.980  11.931
68196W        W39922  36.417   3.820  12.113
68197W        W39923  29.840  30.335   2.139
68198W        W39924  33.807   1.816   1.018
68199W        W39925  10.612   4.758   3.494
68200W        W39926  44.862  31.163  12.934
68201W        W39927  17.231  42.292   4.799
68202W        W39928  10.091  31.893   2.872
68203W        W39929  20.125   0.343  14.599
68204W        W39930   2.197  12.672   1.387
68205W        W39931  33.407  34.619  13.585
68206W        W39932  27.541   6.228  14.508
68207W        W39933  18.755  34.342  13.059
68208W        W39934  24.569  32.983   0.978
68209W        W39935  32.159  22.688   0.354
68210W        W39936  19.334  27.300   0.445
68211W        W39937   0.488  12.763   0.307
68212W        W39938  25.968  29.083  14.966
68213W        W39939  15.629  33.585   0.887
68214W        W39940  10.237  17.714  12.132
68215W        W39941  31.613  22.591   4.922
68216W        W39942   0.313  12.514  13.444
68217W        W39943  40.476  18.044  10.394
68218W        W39944  18.955  24.508   1.848
68219W        W39945   7.722  19.390   4.053
68220W        W39946  24.627   9.840  13.040
68221W        W39947  33.844  29.840  14.510
68222W        W39948  16.269  28.683  12.451
68223W        W39949  40.355  23.197   3.729
68224W        W39950  29.029  24.008  13.024
68225W        W39951  22.506  27.949   3.123
68226W        W39952  14.607  20.862  10.498
68227W        W39953  16.586  40.292  13.041
68228W        W39954  18.086  15.226   2.800
68229W        W39955   1.483  41.990  11.114
68230W        W39956  39.349  30.912  14.292
68231W        W39957  41.915  30.353  11.476
68232W        W39958   9.157   1.932  14.954
68233W        W39959   2.201  22.087  10.715
68234W        W39960  21.533   8.094   4.146
68235W        W39961  39.533   5.922  13.889
68236W        W39962  11.980  15.354  13.772
68237W        W39963  38.932  26.503   1.212
68238W        W39964  37.357  12.288  14.423
68239W        W39965   5.857  16.333   0.457
68240W        W39966  15.339  35.831  14.317
68241W        W39967  35.398   2.391   3.977
68242W        W39968  19.152  41.030  13.968
68243W        W39969  38.748  31.946   4.102
68244W        W39970   5.191  22.548  14.245
68245W        W39971  15.824  22.604   0.245
68246W        W39972   0.447  14.716   3.189
68247W        W39973  11.941  23.353   2.856
68248W        W39974   4.746   9.145   4.576
68249W        W39975  17.314  12.827   3.192
68250W        W39976  10.793  35.867   1.277
68251W        W39977   4.910  42.265  10.719
68252W        W39978  37.219   2.700  13.883
68253W        W39979   1.877  32.048  13.150
68254W        W39980  11.406  13.696  14.748
68255W        W39981  16.267  33.951  12.744
68256W        W39982  12.441   5.935  13.530
68257W        W39983  15.267  18.255  10.668
68258W        W39984   3.716  13.233  11.406
68259W        W39985  35.968   1.451  13.775
68260W        W39986   5.437  22.205  14.888
68261W        W39987  30.643  38.342   3.331
68262W        W39988   4.513  31.924   3.671
68263W        W39989  25.379  42.916   4.364
68264W        W39990   3.365  39.795  12.860
68265W        W39991   2.728   1.793  13.112
68266W        W39992   8.413  26.242  13.813
68267W        W39993  35.522  10.860   4.730
68268W        W39994  10.353  30.132  13.013
68269W        W39995  43.347  26.929  14.145
68270W        W39996   4.725   3.674  14.267
68271W        W39997   1.816  35.808  12.576
68272W        W39998  35.940  28.684  12.144
68273W        W39999  15.552  10.266  11.648
68274W        W40000  23.853  40.182  10.783
68275W        W40001  22.084  33.669   3.605
68276W        W40002  11.157  38.994   2.285
68277W        W40003  38.516  43.357  14.859
68278W        W40004  23.809  35.090   0.788
68279W        W40005  15.751  41.859   0.689
68280W        W40006   6.647  26.500  13.952
68281W        W40007  10.447  38.433   3.091
68282W        W40008  23.186  36.614   2.223
68283W        W40009   9.264  17.517   1.954
68284W        W40010  13.174  23.790   1.631
68285W        W40011  22.702   4.844   5.213
68286W        W40012  21.910  20.103  13.022
68287W        W40013  19.762  12.966   3.820
68288W        W40014  11.220  28.400  13.143
68289W        W40015  30.082  21.040  12.402
68290W        W40016  19.120  42.677   3.718
68291W        W40017  22.523  30.073   0.997
68292W        W40018   7.706  25.000  13.443
68293W        W40019   5.392   8.807  13.431
68294W        W40020   9.299  34.634   1.279
68295W        W40021  32.472  12.263  10.898
68296W        W40022  15.181  38.613  12.884
68297W        W40023  29.430  40.720  11.074
68298W        W40024   3.868  40.358   2.643
68299W        W40025   6.662   2.945  13.354
68300W        W40026   9.176  11.686   2.934
68301W        W40027  41.512  26.503  14.011
68302W        W40028   7.166  39.766   2.419
68303W        W40029  29.862  18.211  10.346
68304W        W40030  31.148  27.076   0.692
68305W        W40031  25.612  12.422   4.138
68306W        W40032  42.956  18.688   2.419
68307W        W40033   6.547  27.768   3.352
68308W        W40034  30.002  31.626   3.682
68309W        W40035  30.825   2.742  12.924
68310W        W40036  30.394  10.212   2.711
68311W        W40037  34.963   4.510  12.473
68312W        W40038  33.605   3.343  14.695
68313W        W40039  14.401  35.172   3.759
68314W        W40040   7.869  23.554   2.778
68315W        W40041  34.457  30.897   1.883
68316W        W40042  42.761  23.178   3.725
68317W        W40043  18.769  15.867   4.499
68318W        W40044  20.040   7.663  13.139
68319W        W40045  22.372  41.738  13.208
68320W        W40046  41.816   9.283  10.822
68321W        W40047   4.158  15.740   2.789
68322W        W40048   8.887  28.246  12.493
68323W        W40049  15.080   5.545   3.239
68324W        W40050  34.930  35.967   3.583
68325W        W40051  26.630  25.208   1.241
68326W        W40052  32.995  34.323  13.568
68327W        W40053  32.874  36.981  11.449
68328W        W40054  41.366  27.819  11.553
68329W        W40055   6.595  10.812  10.618
68330W        W40056  40.513  14.084   4.596
68331W        W40057  16.322   3.972   0.805
68332W        W40058  43.970  14.679   4.086
68333W        W40059  35.237  44.329  11.211
68334W        W40060  36.744   9.688  10.703
68335W        W40061  18.055  34.029  14.337
68336W        W40062  36.462  30.465   3.576
68337W        W40063  19.779  13.081  13.162
68338W        W40064  15.260  15.870   1.347
68339W        W40065   2.594  29.405   0.937
68340W        W40066  34.800   5.782  10.661
68341W        W40067  27.496  33.713  11.301
68342W        W40068  29.461  20.032  14.407
68343W        W40069  33.123  20.548   3.150
68344W        W40070  25.718   6.897   0.903
68345W        W40071  31.793  16.928   2.261
68346W        W40072  23.867  12.555  14.361
68347W        W40073  16.766   4.987   0.574
68348W        W40074  13.153   1.229   3.294
68349W        W40075   2.486  21.328  13.003
68350W        W40076  21.454   5.301  12.367
68351W        W40077  19.155  39.292  13.086
68352W        W40078  29.535  41.028   3.372
68353W        W40079  14.029  38.539   2.642
68354W        W40080  36.606  32.537   4.920
68355W        W40081  15.206  23.867  13.166
68356W        W40082  32.553  22.178  11.111
68357W        W40083  36.356  43.406   1.397
68358W        W40084   9.736  33.954   2.205
68359W        W40085  13.218   5.940   1.396
68360W        W40086   0.333  32.604  12.131
68361W        W40087   1.309  42.404  10.871
68362W        W40088  11.638  20.430   4.714
68363W        W40089  28.913  38.763  11.070
68364W        W40090  43.517   9.347  14.469
68365W        W40091  35.600   9.840  14.042
68366W        W40092  42.543  17.736  11.650
68367W        W40093  11.366  20.056  13.118
68368W        W40094   6.201  28.215   4.112
68369W        W40095  36.494  21.986  13.385
68370W        W40096   9.267  43.208   3.302
68371W        W40097  35.546  40.056   4.065
68372W        W40098  17.015  16.379  11.641
68373W        W40099  13.314  44.237  12.953
68374W        W40100  39.218   2.422   4.387
68375W        W40101  15.000  25.604   2.390
68376W        W40102   9.130   4.776  12.992
68377W        W40103   6.152  29.587   3.813
68378W        W40104   2.764  28.839  12.159
68379W        W40105   1.052  23.565   1.977
68380W        W40106  21.572  33.609   2.738
68381W        W40107  25.952   4.366   3.455
68382W        W40108  10.153  20.864   4.485
68383W        W40109  29.148   1.010   3.659
68384W        W40110  33.132   1.842   2.730
68385W        W40111  21.748  10.403   4.331
68386W        W40112   3.589   8.752  14.931
68387W        W40113  14.034   8.877   3.299
68388W        W40114  19.307  37.411   2.747
68389W        W40115  43.610  13.231  11.635
68390W        W40116  34.346  27.131   4.663
68391W        W40117  28.073  35.914  11.569
68392W        W40118   0.089   2.803   4.104
68393W        W40119   5.100  42.803  11.098
68394W        W40120  11.588   0.792  11.505
68395W        W40121  29.095  17.157   3.516
68396W        W40122  19.507   7.377  11.507
68397W        W40123  24.426   2.988  12.320
68398W        W40124   4.286  39.389  10.718
68399W        W40125  19.687   2.166  12.946
68400W        W40126  25.110  19.816   2.314
68401W        W40127  35.683  39.365   0.716
68402W        W40128  17.521  42.919   1.417
68403W        W40129  18.230  39.772  14.427
68404W        W40130   3.089  23.165  12.813
68405W        W40131   5.985  42.569  11.951
68406W        W40132  17.045  11.255  14.714
68407W        W40133   8.859  15.444  13.531
68408W        W40134  20.506  19.201  12.941
68409W        W40135  43.262   7.274   0.343
68410W        W40136   8.799  26.040  14.063
68411W        W40137  35.102  16.052  13.402
68412W        W40138  18.594  33.312   0.761
68413W        W40139  28.193  31.196  10.943
68414W        W40140  42.619   1.767   4.038
68415W        W40141  17.666  21.173  12.336
68416W        W40142   7.306  44.044   4.874
68417W        W40143  41.302  44.985  10.765
68418W        W40144  40.744  32.087  13.364
68419W        W40145  16.843  26.993  12.921
68420W        W40146  33.908  20.946   2.846
68421W        W40147   9.738   6.904   0.255
68422W        W40148  28.070  21.701   2.858
68423W        W40149  31.979  32.024  12.641
68424W        W40150  39.960   8.643  13.398
68425W        W40151  32.854   4.804   3.386
68426W        W40152  27.102   0.908  13.196
68427W        W40153  44.356  13.114  14.795
68428W        W40154  31.749   4.916  11.453
68429W        W40155   9.893   6.291   4.338
68430W        W40156  24.691  40.271   4.345
68431W        W40157  13.625  27.049  11.095
68432W        W40158  25.060   0.990  10.716
68433W        W40159  19.615   6.119   0.239
68434W        W40160  16.812  24.450   0.064
68435W        W40161  29.543  38.036  12.175
68436W        W40162   6.332   0.491  10.692
68437W        W40163  15.244  38.360  11.082
68438W        W40164  42.061  14.085  12.935
68439W        W40165  26.078  22.286   4.185
68440W        W40166  23.669  36.621   2.449
68441W        W40167  23.653   3.955   2.468
68442W        W40168  18.270  43.266  13.247
68443W        W40169  38.984  32.085   0.308
68444W        W40170  20.972   8.922  14.444
68445W        W40171  15.134  28.949   4.278
68446W        W40172  42.871  18.176   4.349
68447W        W40173  18.172  12.069  13.835
68448W        W40174   9.157  29.532   3.707
68449W        W40175   3.813  20.449   0.983
68450W        W40176   5.934  24.663  10.472
68451W        W40177  35.427   7.947  10.886
68452W        W40178  26.143   3.730  12.419
68453W        W40179  44.784   3.717  12.471
68454W        W40180  34.455  32.521  10.864
68455W        W40181  19.669  39.277  11.272
68456W        W40182  43.050  22.795   1.914
68457W        W40183  29.646  44.448  13.582
68458W        W40184   4.421  27.140  14.837
68459W        W40185  31.690  33.795  12.100
68460W        W40186  10.400   2.630   3.306
68461W        W40187  13.440   4.324  12.878
68462W        W40188   9.144   9.706   4.062
68463W        W40189  10.632   9.586   2.850
68464W        W40190  22.076  28.794   9.692
68465W        W40191  32.315  21.754  13.058
68466W        W40192   2.287  22.118  14.063
68467W        W40193  14.770   5.374  14.848
68468W        W40194  30.605  25.097  10.437
68469W        W40195  38.949  16.613  12.577
68470W        W40196  36.059   1.817   0.512
68471W        W40197  44.264  30.453  12.548
68472W        W40198  15.062  36.302  11.164
68473W        W40199   0.801  29.455  13.760
68474W        W40200  34.067   2.749   0.790
68475W        W40201   0.953  22.521   4.781
68476W        W40202  34.643  20.624  11.600
68477W        W40203  28.599   5.981   3.071
68478W        W40204   7.386  23.244  12.411
68479W        W40205  30.607  32.910  11.201
68480W        W40206  40.973  18.855  11.748
68481W        W40207  21.724  16.579   0.891
68482W        W40208  44.482   1.036  11.140
68483W        W40209  23.684  43.822  11.566
68484W        W40210  27.941  13.701  11.491
68485W        W40211  33.646  42.977  12.472
68486W        W40212  20.915  12.606  10.983
68487W        W40213   7.357  16.690   3.822
68488W        W40214   5.750  34.349   3.293
68489W        W40215   3.005  42.254  12.344
68490W        W40216  36.911  12.187   3.748
68491W        W40217  43.948  33.902   4.540
68492W        W40218  38.054  15.338   2.800
68493W        W40219  33.016  27.617   0.898
68494W        W40220  27.054  38.009  13.539
68495W        W40221  22.203  44.051  13.862
68496W        W40222  23.737  29.096   0.500
68497W        W40223   6.355   1.500  14.458
68498W        W40224  32.345  19.723  11.188
68499W        W40225  32.576  44.594  14.846
68500W        W40226  17.790  30.159   0.727
68501W        W40227  44.587  29.666   2.256
68502W        W40228  41.511  17.135  10.460
68503W        W40229   0.243  24.155   1.672
68504W        W40230   7.843  22.011  10.685
68505W        W40231   1.195  15.875   5.102
68506W        W40232   7.275  43.246  14.445
68507W        W40233  19.095  27.884  10.489
68508W        W40234  22.615  29.177   2.720
68509W        W40235  31.083   9.470  12.813
68510W        W40236  39.895  10.302  14.302
68511W        W40237  16.722  17.213   1.392
68512W        W40238  32.625   2.780  12.836
68513W        W40239   7.418  17.298   1.406
68514W        W40240  42.752  24.169  14.102
68515W        W40241   0.433   2.215   1.764
68516W        W40242   3.268  21.518   3.116
68517W        W40243  11.661  22.669   3.198
68518W        W40244  27.002  42.935   2.167
68519W        W40245  24.449   4.265   0.694
68520W        W40246  26.010  21.291   3.232
68521W        W40247   2.683   3.428   1.525
68522W        W40248  40.539  17.260  11.274
68523W        W40249   6.099  30.690   0.605
68524W        W40250  22.017  40.248   3.392
68525W        W40251  19.717  16.809  13.947
68526W        W40252  40.491   6.679   2.434
68527W        W40253  34.634   0.065   2.768
68528W        W40254  33.947   6.161  13.026
68529W        W40255  15.335   0.286   4.487
68530W        W40256   5.145  27.971   3.694
68531W        W40257  11.012   3.454  12.066
68532W        W40258  42.071  21.661   1.331
68533W        W40259   9.738  30.382  13.324
68534W        W40260  17.009  14.287  12.060
68535W        W40261  27.770   7.537   2.705
68536W        W40262  32.657  42.857   1.774
68537W        W40263  11.206  29.453  11.987
68538W        W40264  41.395  24.497   2.366
68539W        W40265   1.307  40.091  13.806
68540W        W40266  43.921  25.715  12.036
68541W        W40267  25.468  15.025  12.051
68542W        W40268  34.562  31.177   2.339
68543W        W40269  32.887  15.687  14.018
68544W        W40270  39.017   8.515   2.829
68545W        W40271  41.565  37.544   1.164
68546W        W40272  19.090  22.668   1.758
68547W        W40273  32.692  33.059  14.993
68548W        W40274  25.186  44.857  13.257
68549W        W40275  36.333   2.752   4.269
68550W        W40276  23.083  14.793   1.789
68551W        W40277  43.292   4.704   4.628
68552W        W40278   6.715  13.168   2.818
68553W        W40279  19.121  34.985   2.851
68554W        W40280  21.695  12.039   0.836
68555W        W40281  44.280  29.785  14.413
68556W        W40282  15.830   4.743  12.063
68557W        W40283  35.604  14.699  13.314
68558W        W40284  37.648  28.908   0.825
68559W        W40285  26.788  28.185   3.014
68560W        W40286  23.340  41.967  12.123
68561W        W40287  27.943   0.511   5.049
68562W        W40288  35.081  12.753  12.758
68563W        W40289  39.121  25.850  12.846
68564W        W40290  40.111  30.674  10.343
68565W        W40291  27.570  28.927  11.037
68566W        W40292  19.553   5.161  12.330
68567W        W40293   7.284  43.019   4.976
68568W        W40294   4.458  33.514   3.353
68569W        W40295  32.630  20.495  12.649
68570W        W40296  36.029   2.400   4.752
68571W        W40297   5.119  42.604   1.211
68572W        W40298   0.786  19.165  12.917
68573W        W40299  24.913   6.391  10.834
68574W        W40300  29.577   3.949   0.280
68575W        W40301   8.604  31.223  13.363
68576W        W40302  32.682  41.998  11.072
68577W        W40303  28.598  28.940  14.953
68578W        W40304   4.283  13.319  11.596
68579W        W40305   0.995  22.075   2.056
68580W        W40306  27.070  41.343   2.363
68581W        W40307  39.608  33.951   3.601
68582W        W40308  35.478  27.398  12.208
68583W        W40309  10.134  10.729   1.059
68584W        W40310  13.217  24.560   3.315
68585W        W40311   7.697  42.771  13.510
68586W        W40312  38.566  30.917  13.379
68587W        W40313  27.590   3.320   0.556
68588W        W40314  17.643  34.583   0.280
68589W        W40315   3.858   1.977  11.288
68590W        W40316  22.770  29.207   0.786
68591W        W40317  41.847  35.190   3.764
68592W        W40318  10.852   3.930  13.013
68593W        W40319  32.228  10.659   4.430
68594W        W40320  19.619  30.661   2.594
68595W        W40321  27.045  35.741   4.046
68596W        W40322   2.219  27.965   0.231
68597W        W40323   5.670  31.818   4.401
68598W        W40324  15.845  41.444   2.805
68599W        W40325   7.461  33.195  13.787
68600W        W40326   3.940  18.693   4.831
68601W        W40327  34.018   4.749  11.945
68602W        W40328  17.088  39.043  13.271
68603W        W40329   0.488  30.081  13.493
68604W        W40330   3.247  18.075   3.316
68605W        W40331   4.411   4.293  12.402
68606W        W40332   8.485  10.297   3.844
68607W        W40333  41.858  14.846  14.079
68608W        W40334  14.772  18.293   1.758
68609W        W40335  38.262  15.669  10.078
68610W        W40336  15.055  41.285   4.121
68611W        W40337  13.872  13.664  11.225
68612W        W40338  20.154  32.554  12.485
68613W        W40339  40.440  12.899   3.141
68614W        W40340  41.981  25.655  10.371
68615W        W40341  14.322  28.064  14.952
68616W        W40342  25.651   0.340   1.336
68617W        W40343  10.368  35.011   4.721
68618W        W40344   1.378  13.653  10.869
68619W        W40345  20.605  14.564  10.802
68620W        W40346  28.074  14.865  12.141
68621W        W40347  34.409  41.438  14.099
68622W        W40348  11.249  37.017  11.910
68623W        W40349  37.352  23.115   3.987
68624W        W40350  25.161  26.551  10.672
68625W        W40351   9.561   1.483   3.680
68626W        W40352  26.475  32.454   1.505
68627W        W40353   6.118   4.846  13.090
68628W        W40354   0.779  35.532   2.833
68629W        W40355  33.604  11.896  13.107
68630W        W40356   4.222   9.695   2.534
68631W        W40357  38.453  23.523  11.625
68632W        W40358  13.698   6.386   0.285
68633W        W40359  31.881  40.922   1.732
68634W        W40360  12.904  19.683   0.776
68635W        W40361  28.097  22.493  14.340
68636W        W40362  10.171   1.238  11.639
68637W        W40363  15.428   5.909   5.105
68638W        W40364  29.119  30.932  14.305
68639W        W40365  41.881  38.446  13.540
68640W        W40366  16.283   7.714   3.577
68641W        W40367  19.792  37.572  10.030
68642W        W40368  44.518  20.729   0.158
68643W        W40369  43.531  29.189   2.754
68644W        W40370  44.973  36.441  11.625
68645W        W40371  16.075  20.583  12.209
68646W        W40372  29.185  18.346  14.557
68647W        W40373  36.643  19.555  12.493
68648W        W40374  34.818  10.815   0.328
68649W        W40375   9.646  15.777  11.542
68650W        W40376  11.269  33.892  13.696
68651W        W40377  40.996  24.155  10.620
68652W        W40378  24.892   5.876  12.888
68653W        W40379   1.720  11.416  10.576
68654W        W40380  14.230  33.910   2.816
68655W        W40381  31.842   3.401   3.280
68656W        W40382  31.050   5.694  14.889
68657W        W40383  11.684  12.770  12.849
68658W        W40384   7.458   0.212  13.790
68659W        W40385  14.363  12.544  14.889
68660W        W40386  39.882  18.557  13.020
68661W        W40387   9.060  26.384   1.313
68662W        W40388  42.345  30.141  12.403
68663W        W40389   2.316   8.302   2.215
68664W        W40390  38.212  41.909   3.666
68665W        W40391   9.202   6.678  14.068
68666W        W40392   5.391  41.049   1.367
68667W        W40393   9.906  32.885  13.464
68668W        W40394   9.688  36.074   0.216
68669W        W40395  40.970  10.208   3.109
68670W        W40396  12.784  17.278  11.448
68671W        W40397   6.884  29.939   2.210
68672W        W40398   3.893   3.152  13.930
68673W        W40399  33.981  17.253  12.398
68674W        W40400   7.485  28.998  12.021
68675W        W40401  38.124  38.396   0.774
68676W        W40402  10.041  11.271  11.459
68677W        W40403  44.866   9.979  13.481
68678W        W40404  13.751  24.225   2.214
68679W        W40405  42.707  42.015   3.965
68680W        W40406  43.778   0.799   0.927
68681W        W40407  43.618  32.867  11.995
68682W        W40408   9.770  15.103  14.287
68683W        W40409  12.879  14.217  10.868
68684W        W40410  22.113  31.494   0.930
68685W        W40411  20.703  34.442   3.229
68686W        W40412  30.395  26.472  14.234
68687W        W40413   9.070   1.419  12.457
68688W        W40414   7.638  19.784   4.999
68689W        W40415   6.907   3.925   4.986
68690W        W40416   1.397   6.627  13.589
68691W        W40417  24.280  42.785   4.921
68692W        W40418   2.899  12.875   0.491
68693W        W40419  22.038  27.065   1.620
68694W        W40420  35.130  12.260   3.348
68695W        W40421  30.976  35.581   2.153
68696W        W40422  34.545  18.815  11.194
68697W        W40423  13.633   5.858  12.455
68698W        W40424  24.764  30.255  14.800
68699W        W40425  25.191  28.067  11.128
68700W        W40426  35.036  44.509   3.693
68701W        W40427  10.265  41.568   4.514
68702W        W40428  14.691   1.933   1.672
68703W        W40429  40.316  25.431   1.303
68704W        W40430   1.699  27.127  10.690
68705W        W40431  10.377  27.407   4.584
68706W        W40432   2.256  12.899   0.887
68707W        W40433  21.890  25.818  10.261
68708W        W40434   6.809   8.341  14.365
68709W        W40435  21.246  22.607  12.969
68710W        W40436  14.740  15.192   0.162
68711W        W40437  12.152   0.329   0.381
68712W        W40438  41.850  26.951   2.768
68713W        W40439  43.692  16.325   3.418
68714W        W40440  40.421  44.993   0.348
68715W        W40441  41.306  12.406   0.441
68716W        W40442   7.294  31.749   2.353
68717W        W40443   5.084  34.449   5.265
68718W        W40444   3.961  10.204   0.205
68719W        W40445  29.580   4.444  10.554
68720W        W40446  39.252   6.142   4.670
68721W        W40447  21.395  27.046  10.548
68722W        W40448  42.902  11.025  14.964
68723W        W40449  43.671  26.768   4.536
68724W        W40450  38.995  14.352   3.196
68725W        W40451  33.906  23.748   3.259
68726W        W40452  33.203  17.332  13.422
68727W        W40453  42.635   6.207  10.471
68728W        W40454  30.247  25.525   3.126
68729W        W40455  29.669  44.762  12.412
68730W        W40456   7.347  35.055   2.396
68731W        W40457  24.117   4.855  14.174
68732W        W40458   1.688  40.069   2.312
68733W        W40459  28.675  10.322  10.906
68734W        W40460  29.022  20.954  13.473
68735W        W40461   7.920  38.151   2.889
68736W        W40462  41.354  44.679   4.182
68737W        W40463  42.819  37.930   4.162
68738W        W40464   5.323  36.993  13.011
68739W        W40465  28.070  21.145   1.256
68740W        W40466  34.026  22.028  11.604
68741W        W40467   7.231  32.771  13.506
68742W        W40468  30.119  17.593  11.837
68743W        W40469   7.237  23.190  10.733
68744W        W40470  42.696  15.102   0.672
68745W        W40471  34.882  29.600  10.987
68746W        W40472   1.268   9.144   2.667
68747W        W40473  40.151  29.616   0.434
68748W        W40474  22.083   6.862  14.748
68749W        W40475  15.657   0.463  14.434
68750W        W40476  10.081  19.892   2.908
68751W        W40477  36.636  16.669   2.239
68752W        W40478   2.486  19.691  10.859
68753W        W40479  23.771  21.534   0.361
68754W        W40480  40.913   1.190  11.918
68755W        W40481  18.542  26.422  14.720
68756W        W40482   4.442  24.750   1.320
68757W        W40483  35.984  43.363   4.543
68758W        W40484  12.357  27.624   2.124
68759W        W40485  10.155   3.208  10.275
68760W        W40486   4.296   6.843  11.928
68761W        W40487  19.073  34.925   3.679
68762W        W40488  23.402   8.796  12.455
68763W        W40489  35.383  40.530  11.219
68764W        W40490   4.899   6.383  10.519
68765W        W40491  14.389  11.246   2.904
68766W        W40492  37.738  26.804  12.368
68767W        W40493  22.714  17.978   4.038
68768W        W40494  44.327  41.296   3.439
68769W        W40495  13.298  23.359  11.140
68770W        W40496   2.938  14.112   4.390
68771W        W40497   7.173   8.696   4.360
68772W        W40498   0.214  25.709  13.319
68773W        W40499  31.520  40.863   2.196
68774W        W40500   0.078  21.001   1.351
68775W        W40501  17.020  36.834   1.839
68776W        W40502  19.067  11.956   1.372
68777W        W40503  27.117  36.416  10.575
68778W        W40504  23.232  16.363  12.373
68779W        W40505  34.938   9.882  10.765
68780W        W40506  19.748  20.617   0.948
68781W        W40507  28.451  13.616   3.325
68782W        W40508   9.469  33.013   4.563
68783W        W40509  27.999  11.826  13.217
68784W        W40510   9.304  33.225  10.272
68785W        W40511   4.765   7.748  15.000
68786W        W40512  35.984  35.888   5.121
68787W        W40513   4.848  30.048   0.252
68788W        W40514  13.020  11.864   1.308
68789W        W40515  24.064  17.964  10.670
68790W        W40516  24.923  12.675  12.962
68791W        W40517  16.549   3.553  14.538
68792W        W40518  34.210  20.802   0.821
68793W        W40519  20.758  22.698   2.712
68794W        W40520  16.104  12.916   4.134
68795W        W40521  16.651  11.302   3.713
68796W        W40522  37.125  37.865  13.943
68797W        W40523   5.294  10.360  12.057
68798W        W40524  21.805  43.338   0.934
68799W        W40525  41.523  19.740   2.302
68800W        W40526  32.301   2.962  11.134
68801W        W40527  10.383  26.700  13.026
68802W        W40528  21.160  33.200  13.479
68803W        W40529  10.267  14.071  12.096
68804W        W40530  35.084  14.319   2.690
68805W        W40531  36.265  26.023   3.176
68806W        W40532  20.244  42.382  11.912
68807W        W40533   4.317  44.855  11.017
68808W        W40534  34.280  31.916   1.981
68809W        W40535  28.707   8.875   4.249
68810W        W40536   4.516   7.175   1.711
68811W        W40537  41.229  10.848   2.638
68812W        W40538  21.125   9.243   3.104
68813W        W40539  30.033  28.395  12.838
68814W        W40540  20.557  26.000  12.059
68815W        W40541  40.800   2.735   2.693
68816W        W40542   4.861  32.815  12.292
68817W        W40543  10.658  31.051  11.970
68818W        W40544  31.975  18.672   2.018
68819W        W40545  43.018   8.757  13.984
68820W        W40546  40.832  44.754  13.439
68821W        W40547  33.960  29.972  11.156
68822W        W40548   3.997  18.598  11.196
68823W        W40549  30.168   8.124  13.178
68824W        W40550  11.349  40.399  11.328
68825W        W40551   8.348  40.104   0.518
68826W        W40552  30.516  16.836  11.400
68827W        W40553  16.686   7.878  14.264
68828W        W40554  11.253  41.585  14.360
68829W        W40555  38.498  10.074   0.585
68830W        W40556  24.620  10.145   0.247
68831W        W40557  16.571  13.234  11.437
68832W        W40558  14.042   5.182   0.978
68833W        W40559  37.864  33.106   3.238
68834W        W40560  32.982  36.771   3.155
68835W        W40561  39.820  29.983  14.209
68836W        W40562  19.641  18.596   4.083
68837W        W40563  38.975  26.348   9.836
68838W        W40564  15.777  37.024  11.180
68839W        W40565  44.818  19.044   0.785
68840W        W40566  10.356  26.986  13.471
68841W        W40567   0.591  11.817   3.964
68842W        W40568   2.750  41.826   3.422
68843W        W40569  43.488  44.003  12.350
68844W        W40570  39.323  14.756   3.887
68845W        W40571   8.811   5.676  11.447
68846W        W40572  13.083  12.462  13.357
68847W        W40573  27.892  37.159   4.909
68848W        W40574  16.712   6.111  13.070
68849W        W40575  36.588  21.181   2.327
68850W        W40576  20.585   2.116  14.796
68851W        W40577  26.581  26.189   0.643
68852W        W40578  40.972  27.053   1.180
68853W        W40579  22.732   9.657   2.087
68854W        W40580   9.704  35.009  13.845
68855W        W40581   5.693   1.439   2.323
68856W        W40582  40.322  30.809   1.712
68857W        W40583  12.886   1.770  10.649
68858W        W40584  38.324  37.335  12.219
68859W        W40585  44.514  24.440   1.407
68860W        W40586  29.124   8.266   1.043
68861W        W40587  20.157   7.597   3.248
68862W        W40588  37.390   4.319   0.436
68863W        W40589  29.841  22.172   3.277
68864W        W40590  22.251  38.975  11.719
68865W        W40591  14.945  10.463   4.171
68866W        W40592  42.912  13.684   1.164
68867W        W40593   8.711  31.445   3.898
68868W        W40594  30.484  43.432   2.400
68869W        W40595  43.896  18.919   3.306
68870W        W40596  25.656   2.115   3.104
68871W        W40597  40.718  27.510  13.046
68872W        W40598  32.132  16.721  10.638
68873W        W40599   7.282  30.206  12.517
68874W        W40600  24.353   1.349   5.215
68875W        W40601  12.656  35.465  14.460
68876W        W40602  19.798  36.041  12.558
68877W        W40603   0.295  27.739   0.786
68878W        W40604  18.787  31.633   0.543
68879W        W40605  20.932  23.604  12.135
68880W        W40606  14.299  40.052   3.720
68881W        W40607   2.837  19.408  10.595
68882W        W40608  39.323  21.138  10.742
68883W        W40609  22.055  26.786  13.963
68884W        W40610   9.073  25.113   5.477
68885W        W40611  15.398  34.014   3.566
68886W        W40612  16.372  25.563  11.950
68887W        W40613  43.529  26.143  12.312
68888W        W40614  15.801  31.927   3.222
68889W        W40615  21.629   8.621   4.246
68890W        W40616  30.044   6.314   1.375
68891W        W40617  33.522  28.577  14.883
68892W        W40618  22.561  39.642  12.872
68893W        W40619  18.291  36.401   1.195
68894W        W40620  13.312  42.371  13.875
68895W        W40621  28.005   9.654  14.714
68896W        W40622  26.543  17.262  13.477
68897W        W40623   6.882   4.414   2.386
68898W        W40624   5.567  31.747  12.530
68899W        W40625  27.870  32.695  12.757
68900W        W40626  14.169  16.333   3.828
68901W        W40627  18.256  44.500   1.761
68902W        W40628   9.621  15.603   3.149
68903W        W40629  20.088  30.096   0.281
68904W        W40630  44.139  44.326   1.533
68905W        W40631   0.517  30.465   3.370
68906W        W40632  18.772   9.161   0.871
68907W        W40633  41.313  11.927  10.586
68908W        W40634  28.773   6.132   3.642
68909W        W40635   5.327  32.144   0.952
68910W        W40636   6.264  18.315  12.832
68911W        W40637  38.249  40.910   1.815
68912W        W40638   7.768  18.588  13.809
68913W        W40639  44.139  17.022   5.053
68914W        W40640  11.739  26.060   1.996
68915W        W40641  16.245  35.755   2.682
68916W        W40642  33.196   5.450   1.706
68917W        W40643  20.704  41.262   4.331
68918W        W40644   5.502  17.352  11.510
68919W        W40645  35.371  31.787   0.874
68920W        W40646   8.834   1.711   1.723
68921W        W40647  36.340  34.623  14.960
68922W        W40648  39.963  21.333  11.545
68923W        W40649  36.331  27.929  14.901
68924W        W40650  24.043   1.275  11.077
68925W        W40651  12.760  23.011   3.409
68926W        W40652  37.366  29.779  14.177
68927W        W40653   7.829  44.034   1.768
68928W        W40654  24.680  39.365   1.527
68929W        W40655  42.845  43.246  11.618
68930W        W40656  10.239  44.788   4.435
68931W        W40657  39.281  12.670  10.597
68932W        W40658  41.488  20.162   4.340
68933W        W40659  16.206  17.739  12.287
68934W        W40660  42.292   5.669   0.440
68935W        W40661  20.960  24.541  11.967
68936W        W40662  15.321  34.980   0.805
68937W        W40663  29.588  17.554  12.035
68938W        W40664   8.161  11.232  13.981
68939W        W40665  36.935  40.919   4.420
68940W        W40666  38.073  20.193   3.370
68941W        W40667   7.966  38.328   4.634
68942W        W40668  30.323  39.133  12.188
68943W        W40669  29.244   5.855   1.404
68944W        W40670  39.804  30.020   1.671
68945W        W40671  14.704  44.550   3.714
68946W        W40672  12.747   5.948  12.536
68947W        W40673  21.278  39.094  11.449
68948W        W40674   0.297   8.944   2.841
68949W        W40675  19.044   5.850   0.871
68950W        W40676  44.424  37.042   1.216
68951W        W40677   1.485   6.280   1.257
68952W        W40678  44.039   1.823   2.647
68953W        W40679  10.473  18.370   1.252
68954W        W40680  16.698  31.879   4.669
68955W        W40681   9.014  18.970  12.505
68956W        W40682  18.620  25.938   4.148
68957W        W40683  15.641   3.331   2.957
68958W        W40684  35.350   3.273   9.884
68959W        W40685  12.174  35.043   0.070
68960W        W40686  10.084  12.194  12.658
68961W        W40687  20.598  30.655  11.885
68962W        W40688  38.953  39.480  12.033
68963W        W40689  13.497  30.544   1.572
68964W        W40690  41.910  37.569  10.499
68965W        W40691   6.828  21.647   0.354
68966W        W40692  28.728   6.362   4.538
68967W        W40693  40.567  29.592  12.465
68968W        W40694  39.600  32.539  14.398
68969W        W40695  16.182  30.896  13.856
68970W        W40696  32.717  40.523   0.390
68971W        W40697  19.641   2.133   4.993
68972W        W40698  30.672  12.684   5.046
68973W        W40699   5.245  27.009   0.196
68974W        W40700  19.849  43.222   3.730
68975W        W40701   5.922  31.756   2.606
68976W        W40702  26.156   6.600   4.176
68977W        W40703  38.271  34.697  14.925
68978W        W40704  15.210  23.124   0.229
68979W        W40705   7.886  17.610   4.798
68980W        W40706  30.389  31.184   3.342
68981W        W40707  29.010  21.004   2.413
68982W        W40708  29.522   2.237  10.743
68983W        W40709   0.443  41.563  12.071
68984W        W40710  19.065   1.618   0.963
68985W        W40711  32.729  24.160   0.226
68986W        W40712  31.542   2.923  10.719
68987W        W40713  40.624  34.110  14.144
68988W        W40714  18.481  15.257  14.601
68989W        W40715  19.518   1.692  12.159
68990W        W40716  17.152  35.612  12.925
68991W        W40717  21.018  30.235   2.857
68992W        W40718   0.347  41.603   1.329
68993W        W40719  15.284  37.140   3.286
68994W        W40720  28.408  17.987  13.154
68995W        W40721   1.475   9.278  10.983
68996W        W40722  19.735  22.348  12.954
68997W        W40723   0.149  39.268  12.686
68998W        W40724  40.937  39.988  13.907
68999W        W40725  38.906  37.754  11.622
69000W        W40726  36.967  24.226  13.474
69001W        W40727  12.111  14.042  12.411
69002W        W40728  12.879  31.953   3.277
69003W        W40729  41.118  44.583  11.997
69004W        W40730  38.773  18.407   0.003
69005W        W40731  23.606  31.101  14.452
69006W        W40732   4.235   6.067   3.648
69007W        W40733  20.873  13.242   0.676
69008W        W40734  35.070  35.185  14.965
69009W        W40735  39.750  25.594  11.563
69010W        W40736  38.953  35.643  14.310
69011W        W40737  15.938   7.719  11.643
69012W        W40738  36.265  21.611  14.746
69013W        W40739   4.741  34.625   1.731
69014W        W40740  29.831  16.146   3.511
69015W        W40741  39.888  40.500  13.844
69016W        W40742   7.239  29.092  11.026
69017W        W40743  20.537   5.408  13.851
69018W        W40744  23.752  22.975   0.495
69019W        W40745  37.002  18.549   1.285
69020W        W40746  41.813  10.332   3.655
69021W        W40747  39.409  15.318  10.729
69022W        W40748   4.903  43.258   4.089
69023W        W40749  38.002  32.033  12.965
69024W        W40750   0.204  26.654   2.537
69025W        W40751   6.710  31.829  14.862
69026W        W40752  34.496   5.870  11.099
69027W        W40753  14.242  22.442   1.320
69028W        W40754  41.258  16.564   2.596
69029W        W40755   0.296  28.698  12.106
69030W        W40756  12.889  29.705  11.589
69031W        W40757  17.456   6.542  11.976
69032W        W40758  11.547   5.332   1.322
69033W        W40759  25.304  26.486   3.625
69034W        W40760  18.925  10.912   1.458
69035W        W40761   2.482  27.125  11.758
69036W        W40762  33.466   2.985   1.916
69037W        W40763  20.050  10.686  11.645
69038W        W40764  40.943   5.802   3.204
69039W        W40765   4.560  29.883  11.155
69040W        W40766   3.912  24.091   1.611
69041W        W40767  32.597  43.016  12.417
69042W        W40768   4.813   8.249  14.839
69043W        W40769  26.460  18.848  13.995
69044W        W40770  33.525  27.149   0.727
69045W        W40771  24.509  33.503  11.643
69046W        W40772   0.524  27.153   4.696
69047W        W40773   3.207   6.821   0.481
69048W        W40774  17.262  42.460  10.694
69049W        W40775  12.814  10.678   1.364
69050W        W40776  36.798  32.966   4.485
69051W        W40777  22.242  43.805  14.871
69052W        W40778  10.499  31.859  13.453
69053W        W40779  11.365   2.205   0.400
69054W        W40780   4.706  38.130  11.952
69055W        W40781  18.488  19.057  11.498
69056W        W40782  38.027  15.603  14.967
69057W        W40783  41.003  23.251  12.887
69058W        W40784   9.065  25.649  11.263
69059W        W40785  22.274   5.417   3.194
69060W        W40786  10.136  36.330   3.512
69061W        W40787  44.299   3.361   3.289
69062W        W40788  15.132  28.423   4.247
69063W        W40789   7.014  43.558   3.357
69064W        W40790   8.378   5.483  11.062
69065W        W40791  22.187  14.556   0.380
69066W        W40792  32.203  24.586  12.018
69067W        W40793  26.263  25.705  12.404
69068W        W40794  39.013  39.782   1.320
69069W        W40795  40.925  20.909   0.510
69070W        W40796   0.292  24.079  11.678
69071W        W40797  38.968  16.082   2.158
69072W        W40798  22.989  10.330   3.429
69073W        W40799  34.150  33.257  14.351
69074W        W40800  44.852  42.371  13.541
69075W        W40801  13.655  31.482  14.709
69076W        W40802   3.230  10.124   3.513
69077W        W40803   3.220  37.825   3.461
69078W        W40804  17.219  15.656  11.862
69079W        W40805  36.989  13.868   4.581
69080W        W40806  30.913  14.815  12.187
69081W        W40807  13.677  14.774  13.339
69082W        W40808  34.609   2.778  11.195
69083W        W40809  28.686   6.946   3.243
69084W        W40810  16.734   0.266  13.535
69085W        W40811   7.735  29.154  11.215
69086W        W40812  11.033  26.032   4.125
69087W        W40813  44.473  10.130  14.738
69088W        W40814  35.283  23.035   0.445
69089W        W40815  11.242  34.604   4.969
69090W        W40816  36.837  26.095  13.975
69091W        W40817   5.984  27.459  11.705
69092W        W40818   5.199  20.779   3.726
69093W        W40819  25.814  43.675   4.585
69094W        W40820  16.564  21.074   2.435
69095W        W40821   1.349  30.920   0.427
69096W        W40822  11.437  13.620  13.921
69097W        W40823  37.147  44.535  12.400
69098W        W40824  11.714  39.853  10.654
69099W        W40825  26.597  39.390   1.642
69100W        W40826  21.617  34.782   1.028
69101W        W40827  10.591  42.089  11.761
69102W        W40828  23.443  17.229   2.906
69103W        W40829  34.035  40.400  14.928
69104W        W40830  39.275   5.363   2.541
69105W        W40831   7.390  26.710  14.444
69106W        W40832  40.072  27.524  12.396
69107W        W40833  24.920  11.166   1.352
69108W        W40834  14.120  25.351  11.688
69109W        W40835  36.639   7.945  12.317
69110W        W40836   6.438   5.671   4.393
69111W        W40837  19.072  18.805   0.973
69112W        W40838  19.196   8.454   2.917
69113W        W40839   5.363  26.470  10.942
69114W        W40840  22.076  10.737   0.445
69115W        W40841  25.847  24.064  13.911
69116W        W40842   5.349  42.751   2.311
69117W        W40843   6.402  29.742   4.302
69118W        W40844  20.521   6.378   2.846
69119W        W40845  20.067   6.887  12.036
69120W        W40846   4.384  21.764  12.206
69121W        W40847  19.819  26.957  14.797
69122W        W40848   6.180   4.839   0.799
69123W        W40849  12.844  35.489   4.092
69124W        W40850  10.379  42.024  14.822
69125W        W40851  26.765  17.760   1.837
69126W        W40852  28.496  20.563  11.979
69127W        W40853  30.443  10.780   0.335
69128W        W40854  12.871   8.148   4.532
69129W        W40855  33.368   2.754   1.413
69130W        W40856  33.940  13.454   2.032
69131W        W40857  37.312  25.011  14.461
69132W        W40858  35.118  41.380   3.301
69133W        W40859   4.324  18.141   3.788
69134W        W40860   1.949  29.110  10.596
69135W        W40861   1.710   3.776  11.229
69136W        W40862  16.862  43.461  11.457
69137W        W40863  26.585  34.643   5.204
69138W        W40864  14.258  18.245  14.448
69139W        W40865  26.149  16.709  12.327
69140W        W40866  31.979  12.028   1.186
69141W        W40867  14.490   5.357   0.743
69142W        W40868  14.065  22.654   2.409
69143W        W40869  36.891  43.107   4.334
69144W        W40870  33.320   0.748   3.119
69145W        W40871  28.114   8.788   1.888
69146W        W40872  18.769  11.853  12.088
69147W        W40873  32.453   9.164  14.213
69148W        W40874  29.433  14.742  11.567
69149W        W40875  15.280  20.775   3.630
69150W        W40876  13.592  24.460  12.389
69151W        W40877  26.716   0.383  11.088
69152W        W40878  25.758  20.749   4.105
69153W        W40879  37.522  33.289  13.265
69154W        W40880  38.901  13.135  13.774
69155W        W40881  31.502   7.852   3.156
69156W        W40882  20.845   4.989   2.161
69157W        W40883   3.790  42.997  13.433
69158W        W40884  32.638  29.544  12.319
69159W        W40885  12.303  44.874  12.058
69160W        W40886  41.201   2.538  14.753
69161W        W40887   5.896  38.391   0.835
69162W        W40888   2.404   9.619   0.776
69163W        W40889  14.225  16.950   0.895
69164W        W40890  17.651  18.525   2.295
69165W        W40891  38.016   8.238  12.153
69166W        W40892  20.201  15.527   3.267
69167W        W40893  33.174  30.885  13.431
69168W        W40894  43.965  25.279   0.544
69169W        W40895  35.964  35.056   4.361
69170W        W40896  42.042  17.287  13.604
69171W        W40897  44.861  33.585   1.010
69172W        W40898  30.403  44.438  13.126
69173W        W40899  35.333  29.963  10.803
69174W        W40900  39.070  11.924  14.423
69175W        W40901  15.640  41.768   3.376
69176W        W40902  32.485  24.051  13.714
69177W        W40903  10.273  26.930   3.165
69178W        W40904  42.402  18.164   2.450
69179W        W40905  25.379  42.813   3.402
69180W        W40906  16.561  30.956  13.381
69181W        W40907  44.132  26.042  10.934
69182W        W40908   9.476  19.840  13.775
69183W        W40909  27.312  34.393  13.919
69184W        W40910   2.366  26.374   2.085
69185W        W40911   7.519  33.904   2.893
69186W        W40912   0.987  26.988   0.871
69187W        W40913  32.713  37.482   4.567
69188W        W40914  26.161  41.950   3.701
69189W        W40915  39.298   3.114   2.047
69190W        W40916  23.923  40.375  14.747
69191W        W40917  18.708  37.740  14.013
69192W        W40918  21.724  43.576   4.168
69193W        W40919   2.907  14.412  12.846
69194W        W40920  21.912  39.931   1.239
69195W        W40921   7.396  44.226  12.965
69196W        W40922  22.511  20.963  10.626
69197W        W40923  39.582   8.877  11.438
69198W        W40924   9.480   1.806  14.516
69199W        W40925  20.370  42.410   0.871
69200W        W40926  22.983   2.776   1.216
69201W        W40927  16.824  23.598   2.886
69202W        W40928  41.831  34.935   2.156
69203W        W40929  44.491  19.851  13.014
69204W        W40930  43.995  28.781   3.520
69205W        W40931  39.053  16.597   2.245
69206W        W40932   9.195   3.004   1.740
69207W        W40933  42.888  20.257  14.324
69208W        W40934  42.959  35.364  11.632
69209W        W40935   8.760  35.581  10.110
69210W        W40936  19.240   3.852  10.497
69211W        W40937  31.972   5.409  11.534
69212W        W40938  35.897  24.580   4.830
69213W        W40939  39.242  34.602   1.033
69214W        W40940   6.649  28.986  12.272
69215W        W40941  29.638  35.847  12.102
69216W        W40942  35.005  21.034  11.433
69217W        W40943  35.998  24.303   2.268
69218W        W40944  26.476  42.981  12.024
69219W        W40945  38.798  24.651  11.944
69220W        W40946  44.198  17.069   3.714
69221W        W40947  23.748  22.268   3.821
69222W        W40948   3.158   1.238  12.117
69223W        W40949  22.582  37.308  11.276
69224W        W40950  26.161  25.197  12.451
69225W        W40951  23.289   9.171  13.027
69226W        W40952   1.482  28.616   3.746
69227W        W40953  29.995   4.566   1.802
69228W        W40954  24.571  43.295  10.920
69229W        W40955  17.494   7.890  12.888
69230W        W40956  33.865  43.669  13.475
69231W        W40957   1.378  24.764  10.751
69232W        W40958  20.406   2.536  13.475
69233W        W40959  36.967  28.655  12.969
69234W        W40960   2.578  10.247   4.077
69235W        W40961   7.682  23.362   4.933
69236W        W40962  31.994  19.054   2.937
69237W        W40963  24.602   1.164  12.356
69238W        W40964  20.084  20.481   1.322
69239W        W40965  15.044  21.605  13.638
69240W        W40966   3.070   6.369  11.547
69241W        W40967  23.296  20.270  12.494
69242W        W40968  44.674  21.541   0.693
69243W        W40969   0.933   5.440  14.838
69244W        W40970  17.204  32.180  10.816
69245W        W40971   3.251  39.386   3.175
69246W        W40972   3.189   0.261   1.733
69247W        W40973  22.145  30.427  14.836
69248W        W40974  33.903  14.821  13.880
69249W        W40975   3.842  17.862   1.672
69250W        W40976  18.186  17.351  13.321
69251W        W40977   0.845  37.075  13.042
69252W        W40978   1.932  27.173  13.095
69253W        W40979  37.489  15.187   1.221
69254W        W40980   1.347   3.460  10.714
69255W        W40981  35.000  40.366  13.544
69256W        W40982  36.021  13.849  14.796
69257W        W40983  16.783   7.568   0.235
69258W        W40984   8.275  11.208  11.728
69259W        W40985  26.136  16.080   0.869
69260W        W40986  20.528   9.142   1.942
69261W        W40987  34.571  19.788  11.677
69262W        W40988  34.135   0.452   0.891
69263W        W40989  36.413  16.189   0.971
69264W        W40990  36.181   4.593   4.388
69265W        W40991  24.470  14.778  12.925
69266W        W40992  41.540  28.914  13.006
69267W        W40993  33.015  20.975   2.846
69268W        W40994  33.421  41.957   5.001
69269W        W40995  10.349  37.449  14.947
69270W        W40996   1.394  18.235  13.087
69271W        W40997  25.621   3.309  11.694
69272W        W40998  24.556  22.451   2.428
69273W        W40999  29.542  15.781  13.004
69274W        W41000  12.740  33.690   1.773
69275W        W41001  32.865  22.330  12.574
69276W        W41002   8.660  20.678  13.233
69277W        W41003  28.135  40.889   2.446
69278W        W41004  43.210  29.292  13.065
69279W        W41005  37.053  26.751   0.353
69280W        W41006  22.362   4.068   1.729
69281W        W41007   9.939  24.472   0.527
69282W        W41008   4.884   5.875   2.286
69283W        W41009  28.474   6.714   1.889
69284W        W41010   7.637  15.192   1.525
69285W        W41011  31.053   9.893   2.865
69286W        W41012  24.809  26.639  12.853
69287W        W41013  33.107  33.802  13.607
69288W        W41014  20.676   5.939  14.734
69289W        W41015  33.368  33.872  14.040
69290W        W41016   9.623   1.371   0.304
69291W        W41017  23.424  37.043  12.464
69292W        W41018  21.750  21.043   3.287
69293W        W41019  21.937  36.294  11.828
69294W        W41020  13.503   5.202  12.867
69295W        W41021  33.085  30.902   4.856
69296W        W41022  27.001  17.481  13.608
69297W        W41023  28.973  11.355  11.606
69298W        W41024  18.061   1.383   4.067
69299W        W41025  28.010  14.327   0.597
69300W        W41026  10.845  11.247  10.681
69301W        W41027  39.578  38.208  12.981
69302W        W41028  28.155  15.083   3.524
69303W        W41029  17.789  28.563   2.617
69304W        W41030  17.787   8.496   0.388
69305W        W41031  33.390  41.425  11.895
69306W        W41032   3.479  36.945   3.863
69307W        W41033  39.981   9.794   1.940
69308W        W41034  43.901  28.157   2.186
69309W        W41035  35.921  17.102  11.761
69310W        W41036  23.725  38.023   4.518
69311W        W41037  42.963  30.944  11.966
69312W        W41038  39.513  11.720   0.430
69313W        W41039   1.282  18.478  11.634
69314W        W41040  29.807   5.153   0.186
69315W        W41041  20.191  34.234  14.256
69316W        W41042  33.992  22.372  13.631
69317W        W41043   9.647  34.550  12.627
69318W        W41044  31.661  20.724  14.950
69319W        W41045   6.954  42.439   4.207
69320W        W41046  23.860  30.518   4.639
69321W        W41047  39.385  23.745  14.975
69322W        W41048  40.625  19.482   2.224
69323W        W41049  40.325  42.745  13.601
69324W        W41050   1.223   8.227   3.763
69325W        W41051  33.219  22.701   0.259
69326W        W41052  27.478   5.133   0.321
69327W        W41053  30.652  11.640  14.974
69328W        W41054  25.532  17.260  11.692
69329W        W41055  29.490  39.605   2.361
69330W        W41056  14.375  17.731   4.092
69331W        W41057  10.816  36.096   1.748
69332W        W41058  17.734  12.728   0.149
69333W        W41059  36.240  29.531   2.931
69334W        W41060  40.360  27.148   1.849
69335W        W41061  42.789   6.588   1.803
69336W        W41062   5.129   3.413   1.610
69337W        W41063  16.014  41.869  14.339
69338W        W41064  38.241  24.230  14.992
69339W        W41065  14.140  12.672   0.350
69340W        W41066  15.608  44.326  14.464
69341W        W41067  37.459  35.969   2.392
69342W        W41068  13.070  21.610  11.655
69343W        W41069  13.779  35.389  13.330
69344W        W41070  11.762  34.673  11.039
69345W        W41071  34.402  36.635   4.174
69346W        W41072  12.657  35.002   3.879
69347W        W41073  25.212  36.305   1.443
69348W        W41074  30.681  27.433   3.137
69349W        W41075   1.654  35.413   2.776
69350W        W41076  21.087  40.024   0.849
69351W        W41077  31.122  18.606   0.260
69352W        W41078   5.921   4.218   5.063
69353W        W41079  34.484  11.314   4.177
69354W        W41080  36.871  29.836  13.960
69355W        W41081  22.651   9.482   4.097
69356W        W41082  20.167  42.879   3.906
69357W        W41083  23.549  17.286  12.453
69358W        W41084  39.662  19.289   1.158
69359W        W41085  30.761  32.470  11.452
69360W        W41086   5.189  28.936  14.476
69361W        W41087  16.071   5.267   3.184
69362W        W41088  29.355  43.686   0.774
69363W        W41089  15.943  34.859   2.759
69364W        W41090  42.791  12.780   2.608
69365W        W41091  43.815  39.079  11.498
69366W        W41092  29.763  23.072   3.285
69367W        W41093  21.040  18.148  12.986
69368W        W41094   6.417  38.605   0.116
69369W        W41095  43.852   5.187  14.511
69370W        W41096  14.275  35.939  14.860
69371W        W41097  12.495   8.283   2.827
69372W        W41098   6.871  13.946  13.283
69373W        W41099  34.846  18.328  11.284
69374W        W41100  17.411  25.098  14.286
69375W        W41101  22.627  29.896  14.982
69376W        W41102  26.025  15.280   1.470
69377W        W41103  21.333  42.252  14.551
69378W        W41104  43.258   3.713  12.001
69379W        W41105   0.386  11.584  13.868
69380W        W41106   8.241  41.223   4.788
69381W        W41107  16.243   7.430  11.984
69382W        W41108  20.096  30.149   2.091
69383W        W41109   6.615  13.966  14.939
69384W        W41110  25.120  36.367   2.778
69385W        W41111  32.465  43.984  12.542
69386W        W41112  29.700  17.614   1.345
69387W        W41113   4.424  30.971  11.133
69388W        W41114  19.445  29.121   0.365
69389W        W41115   7.621  43.535   2.714
69390W        W41116  36.011   7.177  12.383
69391W        W41117  30.657  11.339   3.332
69392W        W41118  29.864   6.213   0.256
69393W        W41119  42.363  12.231   1.912
69394W        W41120  16.708   4.625   1.551
69395W        W41121   4.700   2.664  14.376
69396W        W41122  19.460  26.772   0.569
69397W        W41123  38.632  19.653  12.398
69398W        W41124  37.596  35.036  14.312
69399W        W41125  11.439  16.248   4.808
69400W        W41126  21.063  37.867   2.988
69401W        W41127  31.096  11.980  10.514
69402W        W41128   3.200  38.646   3.767
69403W        W41129  23.480  12.355  14.978
69404W        W41130  32.072  43.527   3.781
69405W        W41131  11.172  41.611  12.459
69406W        W41132  43.135  43.962   2.811
69407W        W41133   8.552  12.222  11.120
69408W        W41134  25.076  28.432   2.102
69409W        W41135   8.657   0.426  13.699
69410W        W41136  32.960   5.248  12.922
69411W        W41137  13.709   8.841   0.302
69412W        W41138  39.108  13.224  11.490
69413W        W41139  16.151  21.293  11.953
69414W        W41140  12.617  25.480  12.886
69415W        W41141  32.495  21.613   0.730
69416W        W41142  42.243  21.214  11.588
69417W        W41143  32.920  18.527  11.199
69418W        W41144  15.303   4.255   4.762
69419W        W41145  15.320  40.579   1.948
69420W        W41146  26.777  19.412  12.894
69421W        W41147  15.368  38.058   4.160
69422W        W41148  36.288  15.853  12.650
69423W        W41149  34.806   2.391   4.820
69424W        W41150  23.643  30.395  13.627
69425W        W41151   7.978   3.822  11.977
69426W        W41152  21.736  23.505   2.454
69427W        W41153  30.845   2.437  13.861
69428W        W41154  35.969   0.701  11.278
69429W        W41155  19.612  39.511  14.444
69430W        W41156   6.106  12.183  12.368
69431W        W41157  17.677   2.940   1.501
69432W        W41158  11.145  28.241  14.985
69433W        W41159  22.607  20.634  14.064
69434W        W41160  17.729  14.308  12.991
69435W        W41161  32.969  36.406  13.381
69436W        W41162  14.705  23.191   0.452
69437W        W41163  41.012  40.751  14.661
69438W        W41164  41.283   5.770  11.680
69439W        W41165   2.534  42.712  14.100
69440W        W41166  30.317  15.277  12.603
69441W        W41167  37.901   8.522   2.440
69442W        W41168   1.600   9.884   0.964
69443W        W41169  42.174  26.030  12.044
69444W        W41170   5.376  43.692  12.434
69445W        W41171  37.890   3.307  14.237
69446W        W41172  36.610  24.747  14.972
69447W        W41173  25.897  39.032   4.795
69448W        W41174   0.294  25.791   2.860
69449W        W41175  29.146  44.961  12.972
69450W        W41176  22.074  29.229  11.427
69451W        W41177   4.161  12.137  12.099
69452W        W41178  36.906  35.930  11.593
69453W        W41179  44.937   9.121  11.455
69454W        W41180  42.962  28.289   3.599
69455W        W41181  26.794  41.927   0.273
69456W        W41182  11.712  28.015  12.431
69457W        W41183  13.311  29.436   0.399
69458W        W41184  10.216  40.434  12.619
69459W        W41185   4.696  43.364  13.831
69460W        W41186  10.862  36.057   3.482
69461W        W41187  24.035   5.172  12.953
69462W        W41188   0.879  37.850   2.813
69463W        W41189  18.295  23.833   1.702
69464W        W41190  25.117  24.702   0.865
69465W        W41191   8.506  30.426  11.589
69466W        W41192  21.641  44.390  13.298
69467W        W41193  22.527  42.786   1.371
69468W        W41194  11.931  16.372   4.649
69469W        W41195  18.765  17.264   4.693
69470W        W41196  28.150   7.503   4.106
69471W        W41197   2.937  41.919  14.008
69472W        W41198  32.044  24.219   1.127
69473W        W41199  27.085  34.171   1.886
69474W        W41200  14.780  36.610  12.349
69475W        W41201   3.008  32.650  14.621
69476W        W41202  25.261   4.253  13.821
69477W        W41203  15.244  37.504   0.717
69478W        W41204  17.998  37.022   1.709
69479W        W41205  32.958  13.263   1.429
69480W        W41206   3.146  32.659   4.749
69481W        W41207  29.924   7.199  12.005
69482W        W41208  19.134  38.229  14.344
69483W        W41209  27.681  43.223   5.025
69484W        W41210  37.862  41.876   0.537
69485W        W41211  14.250   4.315  12.568
69486W        W41212  31.655   5.204  12.462
69487W        W41213   6.467  19.632   0.710
69488W        W41214   3.476   5.309  11.494
69489W        W41215  23.687   1.982   0.516
69490W        W41216  30.043  10.335  14.779
69491W        W41217   3.684  10.097  14.735
69492W        W41218   5.869  36.166  14.793
69493W        W41219  28.248  14.379   1.449
69494W        W41220  12.149  32.378  14.905
69495W        W41221  17.776  29.045   2.390
69496W        W41222  37.778   4.776  10.685
69497W        W41223  21.716  15.577   0.781
69498W        W41224   8.435  11.465   0.955
69499W        W41225  37.581  26.414   0.034
69500W        W41226  24.444   2.297   3.698
69501W        W41227  40.292  35.178   4.090
69502W        W41228   3.217  44.915  13.782
69503W        W41229  10.135  24.183  10.441
69504W        W41230  39.919   1.074  10.501
69505W        W41231  28.014  27.570  11.770
69506W        W41232  29.917  27.021  14.422
69507W        W41233  20.826  35.959  14.238
69508W        W41234  21.128  13.941  10.850
69509W        W41235   6.880  41.366  14.610
69510W        W41236  23.025   5.595  11.565
69511W        W41237  38.386   5.066  12.106
69512W        W41238  21.627  29.412  13.838
69513W        W41239  42.577  39.561  11.889
69514W        W41240  10.480  13.999  11.230
69515W        W41241  27.170  12.323   4.361
69516W        W41242   0.371  38.983   0.090
69517W        W41243   9.719  25.705   2.138
69518W        W41244   2.177   0.781  13.457
69519W        W41245  32.463  27.024  13.989
69520W        W41246  20.238  42.727  10.296
69521W        W41247   7.833  33.374  14.367
69522W        W41248  18.641  14.689  13.643
69523W        W41249   9.203  16.801   0.325
69524W        W41250   7.327   7.834  13.744
69525W        W41251   2.010  42.870   0.270
69526W        W41252  22.479  30.484   0.225
69527W        W41253  32.129  44.200  11.898
69528W        W41254  29.320   4.480   0.780
69529W        W41255   4.697  20.803  11.660
69530W        W41256  10.970   1.473   4.418
69531W        W41257  15.217  36.069   2.139
69532W        W41258   3.994  11.641   1.562
69533W        W41259  33.521  38.276   4.997
69534W        W41260  33.363  15.702   4.234
69535W        W41261  40.473  29.992   2.678
69536W        W41262  35.349   4.698  13.324
69537W        W41263  34.086  20.303  13.414
69538W        W41264   4.258   2.045  14.819
69539W        W41265  29.525  30.472   2.619
69540W        W41266  26.818  12.366  10.330
69541W        W41267  30.513   3.003   2.643
69542W        W41268  31.069  22.018   3.693
69543W        W41269  16.685  41.070   4.047
69544W        W41270  38.985  38.018   2.936
69545W        W41271  19.843  43.245  14.062
69546W        W41272  13.811  25.186  14.531
69547W        W41273  40.864  37.485  11.637
69548W        W41274   0.473  31.643  14.550
69549W        W41275  44.416   3.862   3.149
69550W        W41276  38.822  16.020   0.415
69551W        W41277  40.842  24.548  14.570
69552W        W41278  36.034  20.137  10.490
69553W        W41279  30.952  14.202  10.619
69554W        W41280  39.064  15.725   2.699
69555W        W41281  26.164  11.484  11.658
69556W        W41282  28.646   4.496   3.252
69557W        W41283  37.308  36.955  14.741
69558W        W41284  31.784  43.524  14.931
69559W        W41285  22.949  27.919  10.044
69560W        W41286   6.119  31.968   3.044
69561W        W41287  30.266  32.992  12.043
69562W        W41288  43.029   3.718   4.105
69563W        W41289   6.975  14.753  14.444
69564W        W41290  33.298  12.526  11.435
69565W        W41291  43.482  18.072  14.011
69566W        W41292  21.857  28.346  11.362
69567W        W41293  40.369  32.382   1.284
69568W        W41294  24.003   9.954  12.453
69569W        W41295  18.340  23.202  14.076
69570W        W41296   5.588  20.340   4.314
69571W        W41297  23.823  18.293  12.401
69572W        W41298  10.592  42.524  13.175
69573W        W41299  30.506  26.929  13.451
69574W        W41300  13.243   8.091   1.877
69575W        W41301  31.530  40.865   1.286
69576W        W41302  35.336  17.162  14.044
69577W        W41303  35.438  17.256  10.655
69578W        W41304  25.213  36.490   3.319
69579W        W41305  13.523  11.815   2.486
69580W        W41306  19.065  16.785   4.765
69581W        W41307   8.160  14.788  14.902
69582W        W41308  21.549  36.027  13.882
69583W        W41309  21.644  12.171   3.379
69584W        W41310  18.235  33.631   3.870
69585W        W41311  34.282  15.204   3.585
69586W        W41312  42.591  11.778  12.359
69587W        W41313  42.253  13.926  11.053
69588W        W41314  26.818  44.019  11.107
69589W        W41315  37.990  28.432   1.296
69590W        W41316  40.708  26.349   4.793
69591W        W41317  12.612  43.352  14.425
69592W        W41318  39.248  15.603   3.898
69593W        W41319  33.025  17.222   4.517
69594W        W41320  44.814  20.674  13.089
69595W        W41321  40.009  16.075   1.311
69596W        W41322  22.683  42.526   3.103
69597W        W41323  26.076   1.770   4.351
69598W        W41324  43.349  16.520   2.217
69599W        W41325  41.976  36.553   4.864
69600W        W41326  36.441  12.600   4.350
69601W        W41327  40.446  34.911   3.669
69602W        W41328  20.801   8.413  12.392
69603W        W41329   1.277  10.251   3.727
69604W        W41330  16.764  29.681  13.867
69605W        W41331   2.830  42.714   1.846
69606W        W41332   9.773   2.791   1.288
69607W        W41333   2.819  17.228  11.876
69608W        W41334  44.916  40.479   3.186
69609W        W41335  30.053   6.670   3.311
69610W        W41336  33.369  22.233   2.777
69611W        W41337  14.718   6.840  11.427
69612W        W41338  10.878   9.798  13.465
69613W        W41339  26.082   8.937  11.665
69614W        W41340   7.868   1.915  11.969
69615W        W41341  14.175  35.269   4.338
69616W        W41342  38.570  34.023  14.534
69617W        W41343   1.387   2.511  14.120
69618W        W41344  22.591   6.429  14.307
69619W        W41345  35.055  40.810   4.036
69620W        W41346  18.469  13.247   0.332
69621W        W41347   6.175  33.686  13.644
69622W        W41348   0.390  44.749   3.790
69623W        W41349  25.941  15.808   2.241
69624W        W41350  38.081  37.193   2.386
69625W        W41351  39.142   3.341  11.521
69626W        W41352  29.267   6.839   3.953
69627W        W41353  22.788  20.379  12.517
69628W        W41354   3.143  21.705   4.047
69629W        W41355  23.980  15.267  14.710
69630W        W41356   0.659   3.008  13.660
69631W        W41357   1.951  31.321  10.849
69632W        W41358  17.159  26.715   3.901
69633W        W41359   0.500  15.835   1.416
69634W        W41360   6.706  20.987  13.555
69635W        W41361  20.677  32.702  14.895
69636W        W41362  17.787  26.629  13.169
69637W        W41363   1.640  15.113   1.137
69638W        W41364  23.664  32.850  13.927
69639W        W41365   1.298  30.638  13.522
69640W        W41366  18.548  44.290  12.409
69641W        W41367  25.540   9.436  11.543
69642W        W41368  14.277  11.695   0.433
69643W        W41369  30.610   2.849  10.722
69644W        W41370  31.201  43.136  13.375
69645W        W41371  11.801   2.520   3.238
69646W        W41372  40.764  21.159   0.940
69647W        W41373  19.148  19.181   0.051
69648W        W41374  20.774   6.951  13.450
69649W        W41375  19.895  38.030  14.716
69650W        W41376  19.543  22.544  14.350
69651W        W41377  31.968   1.254   1.757
69652W        W41378  37.048  15.508   1.205
69653W        W41379   8.140  34.867   4.797
69654W        W41380   4.285  38.747  13.899
69655W        W41381  16.241  38.074   3.201
69656W        W41382  34.676  16.299   0.550
69657W        W41383  12.252  34.781  12.982
69658W        W41384  31.674  38.546   4.132
69659W        W41385   2.233  16.195   4.948
69660W        W41386  42.682  11.919  13.571
69661W        W41387   8.181   4.317  14.384
69662W        W41388  30.091  18.217   0.336
69663W        W41389  32.356  11.125   3.691
69664W        W41390   7.838   2.418   3.620
69665W        W41391   3.488   6.799  13.947
69666W        W41392  15.356  28.928   0.845
69667W        W41393  21.125  24.174   4.196
69668W        W41394  10.382   4.908  11.659
69669W        W41395  20.301   0.608   0.539
69670W        W41396   4.731   6.379   2.352
69671W        W41397  43.925  28.202  12.041
69672W        W41398  15.714   8.634  12.405
69673W        W41399  17.021  22.531  12.999
69674W        W41400  37.949  28.993  12.788
69675W        W41401   7.774   2.893  12.957
69676W        W41402  41.228  34.147  14.905
69677W        W41403  16.628   7.621  13.810
69678W        W41404  22.646  13.124  10.285
69679W        W41405  39.517  32.788  12.341
69680W        W41406   0.865  12.624   0.942
69681W        W41407  12.926  40.449  12.903
69682W        W41408  18.628  22.572   4.099
69683W        W41409  39.942  41.028  13.925
69684W        W41410  38.469  34.883  12.847
69685W        W41411  35.932  32.156   1.129
69686W        W41412  42.854   9.622   4.343
69687W        W41413  20.601  34.208   4.600
69688W        W41414  42.621  42.482  14.312
69689W        W41415  43.511   4.878   1.388
69690W        W41416  34.847  42.802  12.800
69691W        W41417  29.958   2.844  11.500
69692W        W41418   4.812  41.214   4.183
69693W        W41419  20.739   0.019   3.627
69694W        W41420  41.430  26.508   0.311
69695W        W41421  15.807  39.059  11.451
69696W        W41422   9.714  22.074  13.103
69697W        W41423   9.116  16.724  12.892
69698W        W41424  10.912  29.165  14.721
69699W        W41425  30.553  33.415  13.458
69700W        W41426  17.059  24.151   1.430
69701W        W41427   2.348  41.766  11.025
69702W        W41428  14.332  15.330   4.431
69703W        W41429  14.258  30.369  10.596
69704W        W41430  38.327  40.753  12.952
69705W        W41431  31.375  33.472   3.753
69706W        W41432   7.814  22.527  10.748
69707W        W41433  10.271  18.357   0.332
69708W        W41434  18.707   0.289  11.509
69709W        W41435  31.025  42.540   9.898
69710W        W41436  18.502   5.831  13.042
69711W        W41437  25.161  14.842   1.305
69712W        W41438  33.401  12.084  11.121
69713W        W41439  36.216  18.092  13.847
69714W        W41440  25.485  19.143   3.063
69715W        W41441   0.726  23.215   4.079
69716W        W41442   3.271  22.635  14.787
69717W        W41443  28.651   4.150  14.104
69718W        W41444   4.577  30.331  10.262
69719W        W41445  25.257  41.098   2.410
69720W        W41446  14.023  23.514   1.407
69721W        W41447  35.551  24.049  11.522
69722W        W41448  18.554  23.529  14.400
69723W        W41449  11.272  14.635   1.240
69724W        W41450  29.063  27.866  10.943
69725W        W41451  44.947  35.771  14.434
69726W        W41452   1.368  37.811  14.859
69727W        W41453  35.007  14.217   0.191
69728W        W41454  19.084  16.147  14.129
69729W        W41455  39.989  20.619   2.067
69730W        W41456  23.752  39.120   3.188
69731W        W41457  12.721  23.767   1.195
69732W        W41458  43.024  11.871  12.665
69733W        W41459  12.078  21.756   3.318
69734W        W41460  13.414   7.881   0.055
69735W        W41461  42.023  37.773   2.372
69736W        W41462  22.166  37.358   1.357
69737W        W41463  23.062  43.823   2.427
69738W        W41464   6.824   8.860   2.222
69739W        W41465  25.034  43.416   3.411
69740W        W41466  27.091  19.269   2.306
69741W        W41467  40.647   0.491   3.653
69742W        W41468  42.218  32.123   5.055
69743W        W41469  36.144  21.780   0.660
69744W        W41470   1.961  16.768  11.186
69745W        W41471  12.205  42.520   3.181
69746W        W41472  38.334  20.556  11.075
69747W        W41473   5.222  11.588  12.998
69748W        W41474  16.587  14.565  14.481
69749W        W41475  24.665  39.881  12.917
69750W        W41476  14.878   1.634   0.610
69751W        W41477  39.029   1.872   0.415
69752W        W41478  14.444  19.474   4.147
69753W        W41479  13.436  24.033  13.125
69754W        W41480  18.574   1.563   1.150
69755W        W41481  18.107  44.585   9.671
69756W        W41482   0.287   3.207  11.417
69757W        W41483   4.104  38.334   0.955
69758W        W41484   5.704  38.398   1.305
69759W        W41485  40.440   9.736  10.890
69760W        W41486  32.925   8.423   0.047
69761W        W41487  11.775  31.417  11.554
69762W        W41488  43.741  29.291  12.998
69763W        W41489   9.987   0.015  13.934
69764W        W41490  10.342  24.013   0.706
69765W        W41491   8.814  27.108   1.203
69766W        W41492   9.897  23.225   3.292
69767W        W41493   2.798  26.712  13.950
69768W        W41494  15.559   4.303  12.015
69769W        W41495  39.844  23.175   3.709
69770W        W41496  11.570  14.170   4.128
69771W        W41497  37.859  31.497   4.139
69772W        W41498  17.977  31.808   2.230
69773W        W41499   4.620  10.226   3.581
69774W        W41500  11.324  17.567  12.115
69775W        W41501  34.802  20.279  13.820
69776W        W41502  12.266   9.109  12.146
69777W        W41503  30.435   1.962  11.638
69778W        W41504  32.706  42.385  11.921
69779W        W41505  19.247  40.986   0.888
69780W        W41506  13.208  20.842   3.790
69781W        W41507  38.628  11.137   4.256
69782W        W41508  30.444  30.601  13.361
69783W        W41509  35.844   4.973   4.298
69784W        W41510  18.304  19.003   3.916
69785W        W41511  42.505  10.724  11.393
69786W        W41512  17.302  28.965  13.268
69787W        W41513  18.841  40.364  12.466
69788W        W41514   5.492   4.835   2.329
69789W        W41515  16.100  34.224  11.433
69790W        W41516  15.208  11.541   0.871
69791W        W41517  42.094  40.582   1.742
69792W        W41518  16.123  21.372   3.680
69793W        W41519  33.949  41.563   4.649
69794W        W41520   0.761  17.979   4.757
69795W        W41521  41.895  27.589  12.440
69796W        W41522  19.360   9.759   4.453
69797W        W41523   8.408  41.516   4.409
69798W        W41524  28.503  13.670   4.913
69799W        W41525  26.252  33.802  12.187
69800W        W41526  34.802  36.098  13.895
69801W        W41527  40.847  30.414  10.660
69802W        W41528  22.125  15.127  11.408
69803W        W41529  12.529  42.806   3.576
69804W        W41530  27.198  39.068  14.358
69805W        W41531  37.590  41.242   1.282
69806W        W41532  21.354  28.355  11.469
69807W        W41533  35.438   9.715   4.045
69808W        W41534  26.511   2.351   3.855
69809W        W41535  24.649  42.639  10.786
69810W        W41536   8.403   6.705  13.069
69811W        W41537   6.592   9.293  10.605
69812W        W41538  32.873  32.083  13.969
69813W        W41539  32.599  42.259   2.756
69814W        W41540   7.892   4.812   4.642
69815W        W41541  17.086  44.914   1.184
69816W        W41542  26.170  23.641   2.897
69817W        W41543  36.910  22.273  13.563
69818W        W41544   3.695  35.623   1.330
69819W        W41545  11.247  30.424   1.623
69820W        W41546  28.470   7.331  10.905
69821W        W41547  29.632  40.941  11.495
69822W        W41548   2.911   2.874  10.744
69823W        W41549  31.680   1.840  13.066
69824W        W41550  32.029  33.097  12.671
69825W        W41551   6.196  33.224   3.618
69826W        W41552  20.053  12.551   4.628
69827W        W41553  10.417  28.800   1.796
69828W        W41554  23.435  31.743   4.142
69829W        W41555  30.823  44.989   3.989
69830W        W41556  43.575  20.479   0.518
69831W        W41557  32.966   5.765   1.349
69832W        W41558  16.567  19.015  13.960
69833W        W41559  10.114  20.266  13.108
69834W        W41560  20.952  27.592   3.690
69835W        W41561  15.788  21.052   3.305
69836W        W41562   6.251  32.655   0.632
69837W        W41563   7.683   3.293  11.688
69838W        W41564   8.283  14.882  12.328
69839W        W41565  30.565   7.856   0.686
69840W        W41566  22.225  41.978  14.536
69841W        W41567  42.335   5.452  12.949
69842W        W41568  27.504   4.411  10.884
69843W        W41569  36.796  26.558  12.034
69844W        W41570  31.760  43.233  10.743
69845W        W41571  33.231  12.602  11.980
69846W        W41572  36.154  42.959   0.287
69847W        W41573  32.235  38.852  13.296
69848W        W41574  32.624  27.446  14.246
69849W        W41575  15.398   5.187   1.844
69850W        W41576  43.292  32.228   0.278
69851W        W41577   4.280  13.573  13.508
69852W        W41578  44.868   2.170   2.959
69853W        W41579  32.652  27.572  10.682
69854W        W41580   9.320  30.075   3.057
69855W        W41581  10.242  15.584   1.155
69856W        W41582  14.402  31.427   3.407
69857W        W41583   7.882  37.828   3.930
69858W        W41584  17.691  37.014   1.233
69859W        W41585  12.793  34.115  12.836
69860W        W41586   8.572  43.588   3.629
69861W        W41587   4.650   1.359   2.344
69862W        W41588  17.392  37.065   3.119
69863W        W41589   8.402  24.102   3.267
69864W        W41590  20.281  36.764   0.743
69865W        W41591   3.560  19.722  12.907
69866W        W41592  28.943   5.716   0.308
69867W        W41593  17.568  19.477  12.621
69868W        W41594  11.261  28.236  14.110
69869W        W41595   1.427   4.382  12.249
69870W        W41596  18.329  11.364   0.990
69871W        W41597  35.558  33.915  10.709
69872W        W41598  20.707  28.651   1.030
69873W        W41599  22.151  43.342   2.377
69874W        W41600  35.621  33.504  11.091
69875W        W41601  21.793   5.467  10.933
69876W        W41602   7.629  12.514   0.019
69877W        W41603   9.750  30.788  12.945
69878W        W41604  41.042  31.463  14.064
69879W        W41605  39.391   8.326  14.251
69880W        W41606  34.283  33.550  12.702
69881W        W41607  27.971  40.376   4.692
69882W        W41608   2.401   9.625  13.319
69883W        W41609  42.729   5.119  12.969
69884W        W41610  27.432  13.474  14.612
69885W        W41611  11.278  15.783   4.645
69886W        W41612  29.826  36.773  12.873
69887W        W41613  43.456  19.620  14.941
69888W        W41614  35.917  25.327   4.088
69889W        W41615  19.182  39.247  14.483
69890W        W41616  44.802  23.238  10.866
69891W        W41617  22.623  36.808   0.768
69892W        W41618   9.787  32.035   0.295
69893W        W41619  41.426  15.813   3.109
69894W        W41620   5.861   7.303   3.664
69895W        W41621  32.179  34.972   3.308
69896W        W41622   4.368  36.821   0.950
69897W        W41623  17.106  12.577  12.036
69898W        W41624  27.569   3.560   1.906
69899W        W41625  36.549  40.920   4.794
69900W        W41626  39.170  27.582   0.708
69901W        W41627   2.971   2.541   1.337
69902W        W41628   8.459  18.953  12.517
69903W        W41629  44.576  16.103  12.795
69904W        W41630  10.401   0.477  14.796
69905W        W41631   8.239  36.418  11.729
69906W        W41632  17.094  44.690  13.449
69907W        W41633  10.855  36.501  10.273
69908W        W41634  20.142   1.176  14.884
69909W        W41635  39.542  29.503  14.257
69910W        W41636  15.621   1.365   3.408
69911W        W41637  20.405  32.625   2.440
69912W        W41638  16.616  26.217   0.534
69913W        W41639  25.666  24.351  13.514
69914W        W41640   9.687  42.377   1.713
69915W        W41641  21.787  36.511   2.467
69916W        W41642  13.366  43.070   2.277
69917W        W41643  27.448  34.082  14.286
69918W        W41644  11.912  30.646   4.877
69919W        W41645  34.461  40.155   2.751
69920W        W41646  31.821  30.088   2.231
69921W        W41647  36.072  12.195   2.417
69922W        W41648  32.066  25.544  13.033
69923W        W41649  41.538  38.824   1.320
69924W        W41650  10.561  43.096   3.382
69925W        W41651  17.764  43.403  13.342
69926W        W41652  17.657   1.049   0.886
69927W        W41653  18.507  28.892   5.018
69928W        W41654  12.729  24.625  11.598
69929W        W41655  38.923  19.693   3.094
69930W        W41656  30.203  34.462   1.472
69931W        W41657  12.685  19.223  12.659
69932W        W41658   6.861  37.184   0.008
69933W        W41659   9.057  33.573   5.452
69934W        W41660  39.301  39.859  11.649
69935W        W41661  37.104   0.042   3.265
69936W        W41662  18.422  36.928   2.871
69937W        W41663   5.258  16.147  13.799
69938W        W41664  15.240  37.270   4.530
69939W        W41665  24.080   9.370  10.456
69940W        W41666  30.425   1.372   2.599
69941W        W41667  10.580   0.394   1.274
69942W        W41668   6.425  29.405   0.016
69943W        W41669  28.624  42.808  10.936
69944W        W41670  25.088  20.535  12.181
69945W        W41671  39.532   6.861   2.416
69946W        W41672  11.129  30.409  14.843
69947W        W41673  29.561  41.585   2.145
69948W        W41674   6.035  18.286   1.976
69949W        W41675  12.310  29.183   3.800
69950W        W41676  12.357  30.374   0.211
69951W        W41677  35.889  17.141   2.767
69952W        W41678   4.121   5.668  11.170
69953W        W41679  30.099  33.942  11.213
69954W        W41680  28.064  20.981  13.340
69955W        W41681   7.136  32.422  14.353
69956W        W41682  23.556   7.418   3.742
69957W        W41683   9.065  37.576  12.672
69958W        W41684  24.888  18.737  14.743
69959W        W41685  25.182  23.484   3.767
69960W        W41686  11.880  20.735   3.320
69961W        W41687   3.479  19.081   4.085
69962W        W41688  24.166  38.897  14.037
69963W        W41689  34.549  29.969  10.413
69964W        W41690  34.279  11.703  14.837
69965W        W41691   5.657  33.164  10.700
69966W        W41692  17.172  39.429  11.254
69967W        W41693  17.799  41.790  14.208
69968W        W41694  37.730  11.750   4.995
69969W        W41695   5.654  28.369  12.435
69970W        W41696  40.414  34.905  13.250
69971W        W41697   7.845   1.046   0.959
69972W        W41698  37.054  14.687  14.802
69973W        W41699  15.031  20.112  14.510
69974W        W41700  37.698  39.074  11.029
69975W        W41701  30.676  23.907   0.705
69976W        W41702  31.954  17.623  12.091
69977W        W41703  25.603   9.192  14.843
69978W        W41704  23.253  43.945   1.932
69979W        W41705  27.240   7.951   4.421
69980W        W41706  34.822   3.725  14.418
69981W        W41707  11.320   2.222   3.280
69982W        W41708  33.553   8.740   2.801
69983W        W41709  19.036   8.200  11.933
69984W        W41710  13.289  32.047   2.151
69985W        W41711  39.164  41.501   0.415
69986W        W41712  15.870  10.780   0.407
69987W        W41713  35.668  33.458   2.163
69988W        W41714   9.964  10.192   2.362
69989W        W41715   5.370  39.849  12.005
69990W        W41716  11.155  27.062   3.644
69991W        W41717  39.965   6.161  13.688
69992W        W41718  36.234  15.382  12.881
69993W        W41719  17.740  44.877  14.851
69994W        W41720   9.848  10.003   4.150
69995W        W41721  36.852   2.365  12.133
69996W        W41722  34.459  16.846   4.986
69997W        W41723   0.495  27.158   2.851
69998W        W41724  38.509   9.791  14.819
69999W        W41725  42.262  33.961  11.932
70000W        W41726  32.335  23.578  10.233
70001W        W41727  31.113  32.171   3.837
70002W        W41728  23.241  35.353   2.871
70003W        W41729  12.861  34.409   0.027
70004W        W41730  36.588  40.875   0.436
70005W        W41731  20.008   4.376   2.843
70006W        W41732  40.845  30.805  12.985
70007W        W41733  24.757   0.198   1.651
70008W        W41734  34.498  10.828   4.339
70009W        W41735   4.384  20.615  10.901
70010W        W41736  11.118  39.863  12.067
70011W        W41737  37.985  33.820   2.322
70012W        W41738  32.476   2.022  10.815
70013W        W41739  16.150  26.274  11.468
70014W        W41740   9.763   3.890  11.643
70015W        W41741  41.703  44.093   2.932
70016W        W41742  18.532  30.093  10.587
70017W        W41743  15.271  32.551   3.610
70018W        W41744  29.621   9.120  11.085
70019W        W41745  13.778  17.290   0.923
70020W        W41746  20.298  32.506   0.250
70021W        W41747   0.309  11.043  13.324
70022W        W41748   7.178  21.426  12.071
70023W        W41749  44.070  17.659  14.379
70024W        W41750  11.362  34.913  10.599
70025W        W41751  12.301  17.138  11.651
70026W        W41752  26.665  38.337   2.803
70027W        W41753  29.232   0.149   0.354
70028W        W41754  22.649   2.264  12.770
70029W        W41755  16.402  30.150   3.634
70030W        W41756   5.905  41.400  11.385
70031W        W41757  44.391  17.166  14.002
70032W        W41758   3.188  39.558   1.320
70033W        W41759   1.863  22.245   1.936
70034W        W41760  42.565  41.223   2.286
70035W        W41761  18.218  17.173   0.882
70036W        W41762  11.240  28.447   4.661
70037W        W41763  12.244  19.206   4.589
70038W        W41764   5.000  43.270  10.368
70039W        W41765   2.105  18.899   2.444
70040W        W41766  28.598  13.186  12.017
70041W        W41767  27.426  44.948  11.402
70042W        W41768  10.731  37.565   2.247
70043W        W41769   2.150  20.945   0.870
70044W        W41770   3.968  15.233  11.134
70045W        W41771  10.310  21.708   2.903
70046W        W41772   4.229  30.936   1.902
70047W        W41773   9.225  21.480   1.451
70048W        W41774  12.275  28.296   0.429
70049W        W41775  39.769  32.099  10.939
70050W        W41776   0.818  20.558  14.663
70051W        W41777   3.728  20.069  13.838
70052W        W41778  20.875  25.706  10.253
70053W        W41779  27.897   2.729   3.119
70054W        W41780  36.301  31.115   1.893
70055W        W41781   7.321  38.969   0.488
70056W        W41782  28.778  18.787  13.306
70057W        W41783   6.870  19.855   4.735
70058W        W41784  36.159  36.009   2.801
70059W        W41785  37.135   8.896  11.171
70060W        W41786  13.685  18.689   4.661
70061W        W41787  23.670   5.898   2.283
70062W        W41788  20.640  24.029  10.354
70063W        W41789  33.703  22.413   2.414
70064W        W41790  29.754  43.338   1.896
70065W        W41791  10.123   7.640  11.023
70066W        W41792  14.217  12.006  11.680
70067W        W41793  30.893  20.711  12.390
70068W        W41794  24.662  28.566   4.610
70069W        W41795  15.049  18.681  12.541
70070W        W41796  41.990  29.110   1.270
70071W        W41797  34.027  16.849   1.521
70072W        W41798  17.689   7.793   1.386
70073W        W41799  35.505   3.465   3.504
70074W        W41800  19.522  44.183  11.581
70075W        W41801  29.538  25.221   0.730
70076W        W41802  13.744   4.283   1.185
70077W        W41803  36.784  29.762  11.980
70078W        W41804  31.881  33.508   1.904
70079W        W41805  33.338  20.002  13.910
70080W        W41806  13.776  28.639   4.408
70081W        W41807  10.680  37.906  13.408
70082W        W41808  32.956  43.022  10.944
70083W        W41809  36.267  11.734   2.274
70084W        W41810  16.024  34.475  10.985
70085W        W41811  41.020   0.309   3.941
70086W        W41812  15.360  28.497  10.767
70087W        W41813  43.296  27.887   0.431
70088W        W41814   6.496  34.874  13.034
70089W        W41815   6.766  35.668   0.023
70090W        W41816  15.087  21.086  10.471
70091W        W41817  36.429  19.050  13.696
70092W        W41818  16.579   1.038  11.047
70093W        W41819  17.237  22.079  13.199
70094W        W41820  17.602  32.103   1.967
70095W        W41821  29.796  32.081   2.112
70096W        W41822  22.048  28.110  13.940
70097W        W41823   9.200  40.239  11.987
70098W        W41824  26.061  37.724  12.592
70099W        W41825  25.428  26.589  11.145
70100W        W41826  34.081   5.467  12.486
70101W        W41827  24.624  22.042   0.787
70102W        W41828   5.978  35.900  12.769
70103W        W41829   5.237  26.122   1.678
70104W        W41830  37.522  40.071  14.852
70105W        W41831  31.100   8.698   0.653
70106W        W41832  14.220   0.213  14.626
70107W        W41833  23.538  25.037   1.117
70108W        W41834   1.320   4.226  13.527
70109W        W41835   4.265  41.020   2.150
70110W        W41836  27.615  31.120   4.511
70111W        W41837  34.913   7.305   1.262
70112W        W41838  41.036   3.348  14.299
70113W        W41839   3.945  20.189   0.275
70114W        W41840  11.466  29.170   5.043
70115W        W41841  11.719  41.380   0.864
70116W        W41842  13.180   6.954  14.976
70117W        W41843   2.333  35.309  13.437
70118W        W41844  42.257  21.944  11.128
70119W        W41845   4.191   8.834  14.099
70120W        W41846   6.941  34.599  12.854
70121W        W41847   9.409  20.712   3.281
70122W        W41848   4.897  32.167  11.627
70123W        W41849  38.500  31.200  12.962
70124W        W41850  31.772  42.512   3.749
70125W        W41851  40.081   1.531  10.266
70126W        W41852   6.429  40.946   0.263
70127W        W41853   1.866   2.337  14.205
70128W        W41854  24.944  11.836   2.105
70129W        W41855  44.617  17.340   3.764
70130W        W41856  26.747  22.349   4.372
70131W        W41857  39.523  16.503   1.002
70132W        W41858  37.138  14.720  10.403
70133W        W41859  42.000  37.308  12.494
70134W        W41860  42.742  24.666   0.837
70135W        W41861  12.122  44.333   1.381
70136W        W41862  35.006  29.974   3.353
70137W        W41863  28.894  13.431  12.400
70138W        W41864  24.470  40.951  11.655
70139W        W41865   9.107   7.317  10.655
70140W        W41866  24.138   3.457  10.590
70141W        W41867  32.999  37.859   4.364
70142W        W41868  41.941  17.122  10.760
70143W        W41869  37.544   0.184   0.628
70144W        W41870  22.046   3.812  11.902
70145W        W41871  12.802  23.594  11.578
70146W        W41872  21.567  38.061   3.066
70147W        W41873  33.212  39.517  13.899
70148W        W41874  15.307  39.822  13.508
70149W        W41875  44.787   9.136  12.003
70150W        W41876  38.072   8.044   2.602
70151W        W41877  32.336  20.295  12.141
70152W        W41878  20.195  36.894   1.240
70153W        W41879  28.390  44.820   2.790
70154W        W41880  22.694  38.880  12.663
70155W        W41881  26.974  39.897  14.376
70156W        W41882  40.812   2.917   1.616
70157W        W41883  44.322  33.522   4.507
70158W        W41884  27.160  40.880   2.681
70159W        W41885  32.476   7.694  13.019
70160W        W41886   2.185  22.650   1.909
70161W        W41887  14.533  27.993   2.066
70162W        W41888  22.060  19.103  10.731
70163W        W41889  17.108   3.309   0.180
70164W        W41890  29.363  15.872   4.593
70165W        W41891  42.837  19.028   0.912
70166W        W41892  37.884  17.753  12.477
70167W        W41893  20.420  28.945  14.237
70168W        W41894  10.107  25.909  14.385
70169W        W41895  20.160  41.147   3.697
70170W        W41896   9.682  10.344  14.788
70171W        W41897   8.364   5.338  12.297
70172W        W41898  25.939  36.817  10.810
70173W        W41899  27.831  35.156   4.952
70174W        W41900  25.257  35.342  10.697
70175W        W41901  12.407  14.290  14.266
70176W        W41902  33.072  41.883   0.606
70177W        W41903  31.607  12.164   2.834
70178W        W41904  25.917  23.610  13.308
70179W        W41905   0.960   0.372   2.711
70180W        W41906  16.756   1.503  13.445
70181W        W41907   1.877   3.019   4.577
70182W        W41908   9.466  20.491  11.171
70183W        W41909  11.411  34.318  10.986
70184W        W41910  36.653   9.385   2.984
70185W        W41911  27.729  13.152  13.892
70186W        W41912  39.227  33.368  10.546
70187W        W41913  16.170   6.770  12.552
70188W        W41914   6.163  10.777   2.820
70189W        W41915  26.921  19.241   0.099
70190W        W41916  21.558  44.423  12.798
70191W        W41917  11.814  20.633  10.900
70192W        W41918  32.118  16.059   2.416
70193W        W41919   9.206  23.395  13.450
70194W        W41920  21.272  27.682  13.747
70195W        W41921  40.286  26.518   4.544
70196W        W41922  26.728  24.442   0.387
70197W        W41923  43.443  26.457   3.134
70198W        W41924  10.853  44.967   1.367
70199W        W41925   1.927   1.439   0.879
70200W        W41926  43.463   3.875   0.110
70201W        W41927  26.070   7.846   0.881
70202W        W41928  23.842   6.376   2.756
70203W        W41929  23.130  24.312  13.549
70204W        W41930  21.265   7.044   4.125
70205W        W41931  24.167   6.436  14.790
70206W        W41932  11.738  23.959   9.828
70207W        W41933  31.462  35.423  14.381
70208W        W41934  30.299  42.479   4.087
70209W        W41935   8.162  31.688   4.638
70210W        W41936  36.997   1.498   3.781
70211W        W41937   9.866   8.469   3.682
70212W        W41938  22.564  38.765   4.983
70213W        W41939   3.992  31.400  13.821
70214W        W41940  31.101  14.270   3.446
70215W        W41941  18.096   0.790  13.336
70216W        W41942  18.171  28.475   0.745
70217W        W41943  34.816  30.080  10.834
70218W        W41944  25.633  35.573   3.724
70219W        W41945  38.839  20.808   4.800
70220W        W41946   0.795  22.531  13.529
70221W        W41947  21.369   8.060   5.129
70222W        W41948   0.663  34.572   4.116
70223W        W41949  31.656  19.684   0.962
70224W        W41950  30.850  28.496   2.354
70225W        W41951  39.496  16.068  12.883
70226W        W41952  11.505   1.746  12.451
70227W        W41953  32.093  28.537   0.212
70228W        W41954   7.380   1.470  13.814
70229W        W41955   9.278  19.536   2.963
70230W        W41956   9.711  25.252   4.349
70231W        W41957  13.644  44.228   4.623
70232W        W41958   7.328  18.744   0.644
70233W        W41959  14.818  41.761  11.164
70234W        W41960  24.001  26.201  10.193
70235W        W41961  20.758  25.412  11.682
70236W        W41962   5.210  12.733  14.420
70237W        W41963  15.016  34.049   2.317
70238W        W41964  10.586  37.904  14.735
70239W        W41965  17.031   8.253  12.128
70240W        W41966  35.560  38.467  12.265
70241W        W41967   6.319  17.989   1.642
70242W        W41968   8.868  26.474  13.755
70243W        W41969  29.087   1.521   3.731
70244W        W41970   9.914  38.115   3.166
70245W        W41971  34.426  33.575   3.860
70246W        W41972  33.395  17.527  12.065
70247W        W41973  44.404  43.383  10.767
70248W        W41974  29.031  37.933  10.758
70249W        W41975  44.456  44.558   3.830
70250W        W41976  16.317  23.676   2.926
70251W        W41977  21.477  23.644  12.422
70252W        W41978  27.484  10.665   1.613
70253W        W41979  38.808   8.670   4.091
70254W        W41980  29.876  34.669  10.550
70255W        W41981   5.991  30.932   3.823
70256W        W41982  34.194  41.382   0.924
70257W        W41983  27.729  36.030   0.008
70258W        W41984  11.766   1.027  10.538
70259W        W41985  32.126  16.810  13.880
70260W        W41986  26.033  22.774   1.301
70261W        W41987   1.303  29.984  12.090
70262W        W41988  29.091   2.378   4.380
70263W        W41989  23.722   9.467  13.010
70264W        W41990  24.648  16.267  13.952
70265W        W41991  31.040  32.125   4.334
70266W        W41992  44.277   9.860   1.173
70267W        W41993   3.659  18.105  10.565
70268W        W41994   2.136  37.019  13.099
70269W        W41995  17.784  36.245  12.217
70270W        W41996  25.621  38.266   4.555
70271W        W41997  29.718  36.158  12.521
70272W        W41998  27.987  32.183  14.982
70273W        W41999  37.014   3.163   0.010
70274W        W42000  31.116  35.303   3.825
70275W        W42001  37.464  10.576  13.202
70276W        W42002  16.881   5.408  13.439
70277W        W42003  13.007  20.894  10.262
70278W        W42004  36.410  32.957  11.832
70279W        W42005  22.515  38.331   4.710
70280W        W42006  32.889   1.827  13.432
70281W        W42007  28.693  39.849  13.828
70282W        W42008   7.749   8.617   1.700
70283W        W42009  21.674  11.643   4.143
70284W        W42010  21.575  24.442  11.140
70285W        W42011  25.139  21.532   4.700
70286W        W42012  12.149  29.953   3.199
70287W        W42013  34.886  28.505  11.600
70288W        W42014  31.497  38.060   0.722
70289W        W42015  18.291  23.214   4.598
70290W        W42016  40.242  18.316  11.822
70291W        W42017  39.829  15.160   0.949
70292W        W42018   5.347  37.529  13.069
70293W        W42019  39.944  24.942   4.105
70294W        W42020   5.097  28.572  10.661
70295W        W42021  11.328   2.981  12.042
70296W        W42022   3.365  25.384  13.707
70297W        W42023  20.537  34.121   1.888
70298W        W42024  18.256  13.108   3.181
70299W        W42025  27.173  26.481  10.547
70300W        W42026  38.862  44.414  12.826
70301W        W42027   9.565  22.770   0.738
70302W        W42028  14.033  41.908  12.090
70303W        W42029  39.420  28.024   1.733
70304W        W42030  22.487   4.541   1.879
70305W        W42031   1.822  12.693  13.450
70306W        W42032   5.275  24.696  11.515
70307W        W42033   3.656   7.583   1.888
70308W        W42034  37.540  21.971  14.707
70309W        W42035   7.478  19.244   0.482
70310W        W42036  12.330  10.787  14.499
70311W        W42037  14.374  42.774   3.382
70312W        W42038  17.099  42.751   2.896
70313W        W42039   2.478  15.090   3.821
70314W        W42040  14.781  37.307  11.672
70315W        W42041  41.524  10.864   0.936
70316W        W42042  12.404   0.883  11.829
70317W        W42043   7.327   6.188   4.667
70318W        W42044  30.931   4.344   2.651
70319W        W42045  16.677  35.069   2.117
70320W        W42046  18.573  17.820   3.052
70321W        W42047   9.216  12.880   1.777
70322W        W42048  25.755  28.121  12.721
70323W        W42049  35.592   6.598  11.123
70324W        W42050  34.340  22.026  14.502
70325W        W42051  21.955  33.267   2.665
70326W        W42052  43.494  40.314   3.217
70327W        W42053  11.856  39.384   1.908
70328W        W42054  16.532  11.741   0.851
70329W        W42055  41.269  30.450   3.544
70330W        W42056   9.087  25.428   5.064
70331W        W42057  41.407  20.597  14.390
70332W        W42058  24.394  15.741  12.033
70333W        W42059  33.369  15.738   2.330
70334W        W42060  36.456  29.162   4.232
70335W        W42061  41.267  44.176   4.235
70336W        W42062   0.781  24.756  13.513
70337W        W42063   4.258  11.345  12.534
70338W        W42064  35.920   3.705   1.372
70339W        W42065   2.239  37.008   2.390
70340W        W42066  37.671   2.857   0.788
70341W        W42067  28.132  19.553   1.399
70342W        W42068  17.528  42.380  12.954
70343W        W42069  23.941  13.598   3.880
70344W        W42070  22.063   1.440   2.734
70345W        W42071  20.321   0.319  13.617
70346W        W42072  37.085  16.066   3.871
70347W        W42073  12.305  30.112  11.436
70348W        W42074  23.802  30.626  12.383
70349W        W42075  12.184  30.855   0.065
70350W        W42076  39.900  22.038  10.806
70351W        W42077  11.283  22.911   5.432
70352W        W42078  43.946  23.919   0.478
70353W        W42079  32.206   9.375   3.825
70354W        W42080  35.071  25.660   0.796
70355W        W42081  13.881   3.392   0.672
70356W        W42082  41.781  24.171   4.864
70357W        W42083   1.706  10.637   0.457
70358W        W42084   9.666  36.800  13.597
70359W        W42085  19.840  28.083  10.615
70360W        W42086  17.241  34.634   3.884
70361W        W42087  13.203  11.949   2.889
70362W        W42088   9.591  37.355   2.821
70363W        W42089   0.196   4.253  14.027
70364W        W42090  20.193  29.162  11.432
70365W        W42091   4.402  19.165   3.839
70366W        W42092  32.652  31.031   0.399
70367W        W42093   7.884  37.279   1.322
70368W        W42094  29.214   8.410   3.163
70369W        W42095   0.527  24.293  13.484
70370W        W42096  15.672   4.837  10.996
70371W        W42097  39.929  13.926  11.517
70372W        W42098  25.555  41.826   0.535
70373W        W42099  10.233  25.148  12.970
70374W        W42100  17.148  13.110   3.597
70375W        W42101  38.968  28.013   1.013
70376W        W42102  40.348   7.820  14.601
70377W        W42103  43.071  25.114   0.369
70378W        W42104  29.155  31.467  14.245
70379W        W42105  18.214   4.180   1.972
70380W        W42106  20.075  24.810  10.997
70381W        W42107  22.214  12.278  12.826
70382W        W42108  37.100  20.767  12.567
70383W        W42109  26.222  42.305  12.807
70384W        W42110  37.439  40.795   1.481
70385W        W42111  23.227  42.919  12.538
70386W        W42112  41.440  27.225   3.662
70387W        W42113  39.761  29.963  11.582
70388W        W42114  33.701  21.637  10.352
70389W        W42115   0.269  17.642  10.995
70390W        W42116  15.743   1.201  14.872
70391W        W42117  22.997  34.552   4.196
70392W        W42118  36.565  20.737   4.584
70393W        W42119   5.228  39.533   4.204
70394W        W42120   2.916  28.974   4.569
70395W        W42121  14.344  25.511   4.572
70396W        W42122  28.242  33.980  13.380
70397W        W42123  15.258   4.737  12.916
70398W        W42124  37.443   3.284   5.064
70399W        W42125  22.228   1.401   1.654
70400W        W42126  22.538   1.922   3.251
70401W        W42127   1.909   9.920  10.628
70402W        W42128  30.584  39.314   4.288
70403W        W42129  33.529  27.595   1.005
70404W        W42130  41.843  31.799   1.365
70405W        W42131  15.471  18.958  11.949
70406W        W42132   2.033  22.296  12.046
70407W        W42133  36.338  18.655  11.201
70408W        W42134  25.958  21.547   1.869
70409W        W42135  32.643   9.703   1.577
70410W        W42136  32.883  35.549   4.843
70411W        W42137  11.237   8.801   1.359
70412W        W42138  23.325   3.784   0.011
70413W        W42139  17.653  35.581  14.485
70414W        W42140  23.876  23.922  13.305
70415W        W42141  15.668  16.537  14.005
70416W        W42142  10.551  39.344   0.368
70417W        W42143  25.033  13.941  14.816
70418W        W42144  13.122  32.124  14.965
70419W        W42145  18.530  36.211  13.869
70420W        W42146  22.642  18.148  13.338
70421W        W42147   9.689  10.896  12.549
70422W        W42148   0.779  44.541   3.148
70423W        W42149  29.054  41.922  11.128
70424W        W42150  12.619  44.960   0.921
70425W        W42151  11.812  29.222   1.674
70426W        W42152  32.607  24.332   1.848
70427W        W42153   9.225  37.724   3.622
70428W        W42154  38.344   3.882   1.120
70429W        W42155   9.505  38.921  10.045
70430W        W42156  13.379  36.796   1.980
70431W        W42157  28.146  13.329   1.875
70432W        W42158  35.630  30.444   4.027
70433W        W42159  15.756  24.035  11.503
70434W        W42160  34.419  27.635   4.574
70435W        W42161  37.509   1.681  13.615
70436W        W42162  23.047  36.911   3.759
70437W        W42163  24.667   4.810  14.941
70438W        W42164   5.734   4.823   3.724
70439W        W42165  28.342  40.887   1.968
70440W        W42166   5.950  26.399   2.721
70441W        W42167  25.043  18.027   1.929
70442W        W42168  17.080  22.629  12.477
70443W        W42169   9.243  18.343   4.995
70444W        W42170  29.250  31.124  12.854
70445W        W42171  37.497  34.148  11.689
70446W        W42172  39.603   4.541  11.022
70447W        W42173  37.090  32.893  11.175
70448W        W42174  35.539   5.876   1.827
70449W        W42175   7.076   8.298   0.337
70450W        W42176  26.433  42.738   1.381
70451W        W42177  29.074  17.287   3.041
70452W        W42178   1.258  20.997   0.643
70453W        W42179  17.666  13.203  14.919
70454W        W42180   1.730  25.730   2.317
70455W        W42181  13.099  22.107  14.981
70456W        W42182  16.343  27.283  11.483
70457W        W42183   3.784  29.281   0.956
70458W        W42184  34.208   0.765   1.928
70459W        W42185  31.862  22.681  13.085
70460W        W42186  33.125  38.476   1.410
70461W        W42187  44.393   1.572   0.931
70462W        W42188  20.103  27.969   1.465
70463W        W42189  18.648  36.354   4.132
70464W        W42190  38.717   3.491   1.231
70465W        W42191  14.239  26.734   2.445
70466W        W42192  41.936  32.502   1.933
70467W        W42193   8.995  16.991   4.093
70468W        W42194  15.840  13.794  14.590
70469W        W42195  27.551  38.155  13.599
70470W        W42196  16.178  20.353   3.825
70471W        W42197  38.278  30.489  11.556
70472W        W42198  27.493   9.767  11.927
70473W        W42199   6.043   3.583  12.114
70474W        W42200  37.908  44.513   3.686
70475W        W42201  38.172  10.285  13.681
70476W        W42202  21.501  38.983  11.008
70477W        W42203  16.986   3.405   2.535
70478W        W42204  38.548  44.032  12.141
70479W        W42205   2.914  44.821  14.859
70480W        W42206   5.408  33.419   4.148
70481W        W42207   9.233  28.448   3.743
70482W        W42208  24.970   5.516  11.439
70483W        W42209  20.242  10.587   2.721
70484W        W42210  38.371  19.672   4.021
70485W        W42211  28.514  13.554  13.134
70486W        W42212  25.772   2.215   4.953
70487W        W42213  20.262   9.568   1.721
70488W        W42214   3.865  28.634  11.200
70489W        W42215  39.121   2.927  13.869
70490W        W42216  29.470  31.884  14.036
70491W        W42217  13.658  39.536   1.377
70492W        W42218  43.388  32.550   4.214
70493W        W42219  19.749  31.357   1.610
70494W        W42220  37.503   9.428   3.142
70495W        W42221  12.530  35.430   0.925
70496W        W42222  12.776  12.262  14.939
70497W        W42223  18.228   2.158   3.745
70498W        W42224  11.274   1.044  14.935
70499W        W42225  42.797  41.349  13.981
70500W        W42226  37.881  33.338   4.139
70501W        W42227   8.425  19.641  12.366
70502W        W42228   9.132   9.220  11.607
70503W        W42229  42.287  20.125  13.013
70504W        W42230  37.478  26.555   1.268
70505W        W42231  36.446   3.796  10.611
70506W        W42232   2.508  43.668   3.195
70507W        W42233   6.245  36.653   0.936
70508W        W42234  14.378  36.458   0.109
70509W        W42235   6.935  14.848  13.486
70510W        W42236   0.480  41.196   3.428
70511W        W42237  39.092  22.153  12.235
70512W        W42238  11.847   0.311  12.547
70513W        W42239   4.272  37.084   3.207
70514W        W42240   8.451  22.947   3.034
70515W        W42241  14.084  23.623  12.106
70516W        W42242  22.242  37.359  14.472
70517W        W42243  31.846  24.227  11.449
70518W        W42244  33.522  11.104  14.913
70519W        W42245   9.400  34.230   3.650
70520W        W42246  26.587  26.066  12.642
70521W        W42247  43.424  44.804   4.705
70522W        W42248  11.403  37.908   1.711
70523W        W42249  43.914  43.205  10.726
70524W        W42250  37.058  39.324  13.980
70525W        W42251   2.253  23.058  11.499
70526W        W42252  21.227  34.010   3.914
70527W        W42253  23.678  30.459   3.614
70528W        W42254   5.228  19.684   3.209
70529W        W42255  37.546  42.614   1.413
70530W        W42256   0.575   8.392  14.520
70531W        W42257   6.661   3.264   4.404
70532W        W42258  41.951  26.661  12.661
70533W        W42259  15.827   8.643  14.928
70534W        W42260  15.370  30.978  14.185
70535W        W42261  10.253  29.275  13.687
70536W        W42262  24.297  23.915   2.256
70537W        W42263  28.758  42.960  14.783
70538W        W42264  10.737  26.654  13.517
70539W        W42265  37.555  11.596  13.568
70540W        W42266  22.003  13.864   3.148
70541W        W42267  27.538  38.093   1.352
70542W        W42268   7.782  43.811  14.265
70543W        W42269  20.047  14.553  13.907
70544W        W42270  38.504  37.107  11.033
70545W        W42271  31.534   0.403  14.384
70546W        W42272  18.757  39.807   1.911
70547W        W42273  18.709  39.482  13.402
70548W        W42274  12.541  44.522   3.517
70549W        W42275  36.109  39.725  13.958
70550W        W42276  22.232  21.598  14.036
70551W        W42277  18.804  36.415   1.717
70552W        W42278  19.520  31.119  12.785
70553W        W42279  37.321  39.085  14.382
70554W        W42280  41.291  36.848  10.642
70555W        W42281  13.134  39.588   2.300
70556W        W42282   3.695  17.581  12.429
70557W        W42283   8.534  20.975  11.918
70558W        W42284  24.198  39.782   4.122
70559W        W42285  38.499   6.684  12.074
70560W        W42286  39.031  43.027   1.638
70561W        W42287  27.172  12.171  13.008
70562W        W42288  16.140  32.525  12.567
70563W        W42289  26.982  23.068  13.616
70564W        W42290  25.518  44.244  11.546
70565W        W42291  24.526  19.482  13.415
70566W        W42292  24.229  41.391  12.336
70567W        W42293  39.457  30.702   1.219
70568W        W42294  10.140  40.564   4.660
70569W        W42295  21.225  13.895  10.347
70570W        W42296  14.762   7.592   0.467
70571W        W42297  17.537  22.684   3.397
70572W        W42298  36.598  32.783   3.950
70573W        W42299  27.190  29.256  11.115
70574W        W42300   2.188  39.881   2.446
70575W        W42301  42.881   5.369  10.777
70576W        W42302  34.466  12.434  13.064
70577W        W42303  42.537  21.678   4.083
70578W        W42304  43.512  15.016  12.971
70579W        W42305  26.630  41.669   4.273
70580W        W42306  20.878  27.984  12.968
70581W        W42307  42.855   1.431   3.551
70582W        W42308   5.854  16.545  11.634
70583W        W42309   4.465  41.751  11.325
70584W        W42310  12.075  29.938   1.360
70585W        W42311  36.562  14.792   0.848
70586W        W42312  12.239  41.413  11.893
70587W        W42313  24.203  16.949  10.748
70588W        W42314  26.949  38.708  13.096
70589W        W42315   7.842  14.578  13.595
70590W        W42316  23.277  44.634  11.510
70591W        W42317  24.369  39.047   1.247
70592W        W42318  15.646  25.161  11.118
70593W        W42319  11.132   6.671   3.433
70594W        W42320  42.173  39.052   0.014
70595W        W42321  11.552  28.537   3.690
70596W        W42322  43.151  11.516  11.675
70597W        W42323   6.376  23.552   2.910
70598W        W42324  42.065  38.778   4.707
70599W        W42325  43.406  23.072  14.622
70600W        W42326  16.798  32.381  11.566
70601W        W42327   1.698  39.910   2.816
70602W        W42328  26.689  19.660  14.227
70603W        W42329  43.953  41.925   1.270
70604W        W42330  22.084  27.672   2.928
70605W        W42331  41.703  33.861  14.873
70606W        W42332  28.973  26.139  12.339
70607W        W42333  44.369  42.460  13.292
70608W        W42334   5.913   4.486   2.304
70609W        W42335  19.783  19.312   1.796
70610W        W42336  37.235   5.232   3.195
70611W        W42337  13.667  38.382  10.654
70612W        W42338  27.116   4.092  13.861
70613W        W42339  14.568   8.648  13.001
70614W        W42340  25.956  23.606   2.416
70615W        W42341  31.696  36.818  14.887
70616W        W42342  42.427  32.305   2.136
70617W        W42343  14.775  23.251  12.398
70618W        W42344  29.637  28.526   1.232
70619W        W42345  37.292  42.873  12.887
70620W        W42346   6.637   0.843   5.011
70621W        W42347  35.033  41.169   1.253
70622W        W42348  31.725   1.851  10.298
70623W        W42349  16.364   9.377   4.710
70624W        W42350  34.553  27.622  11.666
70625W        W42351  20.639   8.308  13.534
70626W        W42352  41.184   5.990  13.396
70627W        W42353  29.830  16.373   0.369
70628W        W42354  18.956  28.944  13.683
70629W        W42355   6.285   5.803  13.344
70630W        W42356   0.932  27.996   2.707
70631W        W42357   4.134  32.031  13.098
70632W        W42358  21.355  40.048   4.965
70633W        W42359   0.396   4.467   0.529
70634W        W42360  21.718   5.170  14.003
70635W        W42361  35.006  14.827   4.438
70636W        W42362   0.424  32.082  14.249
70637W        W42363  10.585  22.589  12.073
70638W        W42364  14.839  22.612  14.532
70639W        W42365  32.972   2.576  14.382
70640W        W42366  41.612   5.195   3.752
70641W        W42367  21.188  26.272  10.426
70642W        W42368   6.362  32.142   0.703
70643W        W42369  41.779  22.276   1.932
70644W        W42370  27.349   6.226  10.790
70645W        W42371  12.415  35.916   4.713
70646W        W42372   5.810  29.904  13.329
70647W        W42373  42.856   4.117   1.483
70648W        W42374  31.685  41.963   3.731
70649W        W42375  28.404  16.805  14.385
70650W        W42376  14.581   9.679  12.087
70651W        W42377  39.612  18.067  10.684
70652W        W42378  20.573  28.398  12.064
70653W        W42379  23.969   6.756   3.385
70654W        W42380  27.200  20.670   2.163
70655W        W42381  11.635  40.857   2.382
70656W        W42382  22.559  15.823   3.635
70657W        W42383  23.191  44.641  13.381
70658W        W42384  11.571  14.326  13.259
70659W        W42385   1.873   9.133   1.317
70660W        W42386  41.271  26.379  11.077
70661W        W42387  42.756  28.137  10.606
70662W        W42388  17.553   7.819  12.391
70663W        W42389  34.576  12.056   2.884
70664W        W42390  32.072  34.858   1.905
70665W        W42391  13.240   8.631   2.826
70666W        W42392  25.883   8.330   1.761
70667W        W42393  38.310  17.266   2.383
70668W        W42394   1.928  36.085  14.878
70669W        W42395  33.614  28.975  13.463
70670W        W42396   0.479   5.953  11.675
70671W        W42397   4.858  10.880  14.355
70672W        W42398  27.978  26.680   1.863
70673W        W42399  24.737  19.721  11.738
70674W        W42400  18.258  12.211   4.518
70675W        W42401  16.730   9.279  14.537
70676W        W42402  38.629  26.974   4.278
70677W        W42403   6.880  14.430  13.142
70678W        W42404   3.029  12.537  11.587
70679W        W42405  13.687  22.627  11.665
70680W        W42406  37.027  20.842  11.192
70681W        W42407  28.687  12.601   3.223
70682W        W42408  24.113  41.451  10.195
70683W        W42409  26.881  11.249  10.502
70684W        W42410  18.135  36.183   2.192
70685W        W42411   3.816  21.626  12.811
70686W        W42412  40.286  12.389   3.706
70687W        W42413   1.241  14.640   4.366
70688W        W42414   2.262  18.629   0.999
70689W        W42415   5.795  13.669  12.334
70690W        W42416  25.575  20.226  11.545
70691W        W42417  35.313   5.910  10.737
70692W        W42418  18.651  26.612  10.643
70693W        W42419  28.900  39.098  13.971
70694W        W42420  11.840  16.147   1.837
70695W        W42421   6.833   0.987  13.338
70696W        W42422   8.689   3.025   1.986
70697W        W42423   4.933   3.923   2.964
70698W        W42424  39.105  15.186   3.562
70699W        W42425  12.799  42.248   2.243
70700W        W42426  16.131  35.836   0.354
70701W        W42427  35.964  16.296   3.970
70702W        W42428  15.629  17.185   3.382
70703W        W42429   6.921  23.933   0.737
70704W        W42430  34.457  29.844  11.112
70705W        W42431  44.279  17.653  12.954
70706W        W42432  11.692  13.859  10.752
70707W        W42433  18.782   6.986  13.411
70708W        W42434  32.009  31.697  13.101
70709W        W42435  42.355  10.146  10.774
70710W        W42436  17.796   5.199   4.176
70711W        W42437  42.495  35.504   2.724
70712W        W42438  23.901  35.592   4.581
70713W        W42439   5.696   4.353   4.620
70714W        W42440  36.833  22.633   2.273
70715W        W42441  18.753   4.943  13.568
70716W        W42442  35.976  24.184  13.254
70717W        W42443   5.899  25.383   0.799
70718W        W42444  32.636  24.642  12.949
70719W        W42445   9.568  38.081   2.252
70720W        W42446   0.201  41.269   4.436
70721W        W42447  36.468  18.622   3.304
70722W        W42448  22.240  27.096  12.461
70723W        W42449   1.163  38.244  11.989
70724W        W42450  21.736  17.111   0.859
70725W        W42451  44.943  42.731  10.917
70726W        W42452  34.665  14.013   4.102
70727W        W42453  12.817  32.421   4.131
70728W        W42454  11.568  19.790   2.214
70729W        W42455  39.581  11.145  13.920
70730W        W42456  44.255  28.185  12.425
70731W        W42457   6.648  25.725  11.062
70732W        W42458  41.978  13.193   2.708
70733W        W42459  22.194   9.157  13.940
70734W        W42460  27.700   7.685  12.879
70735W        W42461  28.003  24.260   2.952
70736W        W42462  15.472  26.755   4.585
70737W        W42463  14.527   2.061   2.840
70738W        W42464  25.660   7.867   3.871
70739W        W42465   8.894  11.844  14.852
70740W        W42466   0.546  30.931   2.171
70741W        W42467  37.058  31.282  13.966
70742W        W42468   5.396  33.275   0.746
70743W        W42469  16.778  12.834   3.832
70744W        W42470  40.814  20.381  11.289
70745W        W42471  27.049  17.318   2.845
70746W        W42472  29.025  19.467   3.362
70747W        W42473  15.604   6.705  14.958
70748W        W42474  21.958   3.763   2.264
70749W        W42475  20.873   6.449  12.451
70750W        W42476  33.095  11.851  12.489
70751W        W42477  24.206   4.852   0.241
70752W        W42478   3.259  35.153   0.990
70753W        W42479  41.416  13.656  11.128
70754W        W42480  31.633   4.085   2.282
70755W        W42481  15.324  35.028   2.164
70756W        W42482  14.326  19.977  10.987
70757W        W42483   4.235  37.980   2.620
70758W        W42484   8.759  13.842   2.723
70759W        W42485   7.326  27.595   4.991
70760W        W42486  14.629  17.098  14.835
70761W        W42487  13.880  31.456  13.431
70762W        W42488  36.962  33.608  11.670
70763W        W42489   2.815  12.691  13.285
70764W        W42490  30.793  15.677   3.320
70765W        W42491   0.231  14.361  13.054
70766W        W42492   3.636  24.356   0.905
70767W        W42493  23.504   6.626  12.069
70768W        W42494  22.528  28.554   4.556
70769W        W42495   2.645  39.482  12.032
70770W        W42496  41.327  25.857   5.079
70771W        W42497  42.464  42.876  12.426
70772W        W42498  10.594  31.781   2.757
70773W        W42499  21.394  39.879   1.226
70774W        W42500  29.962   6.187   3.172
70775W        W42501  10.568  17.814  11.566
70776W        W42502   2.890  21.978   2.876
70777W        W42503  15.698  22.764   5.030
70778W        W42504  23.324  22.457  11.820
70779W        W42505  39.390  31.507  10.694
70780W        W42506  10.957  11.254  14.536
70781W        W42507  39.115  17.018  11.073
70782W        W42508   5.691   9.872  12.173
70783W        W42509   7.288  32.044   1.930
70784W        W42510  39.288  32.248   4.945
70785W        W42511  29.475   8.855  12.431
70786W        W42512  27.570  35.104   3.748
70787W        W42513  14.827  32.701   0.308
70788W        W42514  38.403   9.846   4.492
70789W        W42515   7.909  41.035   4.418
70790W        W42516  14.441   2.749  11.643
70791W        W42517   5.139  44.135   4.035
70792W        W42518  27.080  24.722   2.821
70793W        W42519  22.099  44.881   0.057
70794W        W42520  20.214  30.998  10.648
70795W        W42521  21.637   7.469  14.235
70796W        W42522  16.668   4.421   3.403
70797W        W42523   2.178  27.306  13.538
70798W        W42524  17.661  22.218   2.115
70799W        W42525  19.342   7.201  11.050
70800W        W42526   8.194  19.022   1.752
70801W        W42527  36.947  44.185   1.752
70802W        W42528  30.966  42.757  11.376
70803W        W42529  16.346  40.450  10.665
70804W        W42530  16.739   3.641   3.192
70805W        W42531   9.010  42.023  14.410
70806W        W42532   4.783  21.252  14.883
70807W        W42533  27.741  37.447  14.949
70808W        W42534  35.515  22.441   4.597
70809W        W42535  32.233  13.620   2.179
70810W        W42536  37.011  25.712  10.236
70811W        W42537  22.182  24.935  10.225
70812W        W42538   9.827  30.813  11.221
70813W        W42539  10.240  11.354  13.279
70814W        W42540  21.471  22.524  12.491
70815W        W42541  24.033  32.459   2.364
70816W        W42542  28.632  30.374  12.714
70817W        W42543  29.046  17.568   1.289
70818W        W42544  28.171  31.921   3.620
70819W        W42545   0.743  37.608   2.360
70820W        W42546   9.516  43.797   4.899
70821W        W42547  41.808  38.892   9.751
70822W        W42548  35.997  33.855  12.545
70823W        W42549   8.702   4.194  14.472
70824W        W42550  32.152  23.878   4.138
70825W        W42551   5.700   8.075   4.296
70826W        W42552  44.342  31.886  14.835
70827W        W42553  29.939   3.321  12.230
70828W        W42554  22.833  17.602   3.669
70829W        W42555  41.511   3.349  11.538
70830W        W42556  18.564   2.898   1.643
70831W        W42557   7.639   9.063   2.235
70832W        W42558  17.312  25.780  13.010
70833W        W42559  37.873  24.229   0.862
70834W        W42560  17.160  30.190   1.980
70835W        W42561  21.057  21.290  11.515
70836W        W42562  44.749   8.263   0.228
70837W        W42563   0.316  17.286  11.368
70838W        W42564  37.059  41.079   2.206
70839W        W42565  24.265  18.281   1.053
70840W        W42566  27.443   0.085   0.428
70841W        W42567  12.610  12.620   3.276
70842W        W42568  22.196   2.250  10.680
70843W        W42569  36.971  36.607   0.513
70844W        W42570  41.401  18.316  14.833
70845W        W42571  17.583  34.642  14.383
70846W        W42572  43.392  18.911   4.166
70847W        W42573  34.064  33.657  13.956
70848W        W42574  42.354  26.152   4.047
70849W        W42575   4.314  42.483   4.380
70850W        W42576  29.948  36.059  14.988
70851W        W42577   2.629  34.099   0.178
70852W        W42578   1.578  35.796   0.954
70853W        W42579   1.699  41.546   0.832
70854W        W42580  21.955  11.836  12.029
70855W        W42581  20.759  15.051   2.223
70856W        W42582  26.063   4.765  10.504
70857W        W42583  24.022   2.430  14.853
70858W        W42584  38.430  38.567   4.303
70859W        W42585   7.716  40.727   0.844
70860W        W42586  15.642  15.215   3.767
70861W        W42587  21.525   0.558   2.233
70862W        W42588   8.797  34.920  12.453
70863W        W42589  44.790  32.763  10.554
70864W        W42590  43.249  22.157  14.901
70865W        W42591  36.861  31.412   0.275
70866W        W42592  15.710   2.839  12.553
70867W        W42593  26.963  31.577  13.270
70868W        W42594  30.630   7.392   0.901
70869W        W42595  26.140   8.152  12.394
70870W        W42596  17.201   3.846   3.346
70871W        W42597  23.577  42.989   3.335
70872W        W42598   7.094   3.445   1.409
70873W        W42599   3.985  38.416   4.858
70874W        W42600  14.715  19.314  13.971
70875W        W42601  44.498   3.684   1.758
70876W        W42602  32.212   4.638  11.243
70877W        W42603  26.769  32.420   2.909
70878W        W42604   7.386  37.595  14.870
70879W        W42605   1.067  38.989   1.464
70880W        W42606  26.125  24.748   4.300
70881W        W42607  24.420  26.784  11.077
70882W        W42608  19.073  29.662  11.376
70883W        W42609  35.833  24.181  12.304
70884W        W42610   0.831  42.238   0.067
70885W        W42611  24.274  38.102  11.589
70886W        W42612  40.126   6.451  12.676
70887W        W42613  32.367  11.172   1.886
70888W        W42614   0.793  44.896  14.377
70889W        W42615   3.949  42.367   0.392
70890W        W42616   7.221  31.176  10.594
70891W        W42617  20.100  36.480  10.687
70892W        W42618  20.234  22.469  14.889
70893W        W42619   0.095  27.041   1.364
70894W        W42620  43.965  41.465  13.082
70895W        W42621  26.640  37.514   0.102
70896W        W42622  28.409  24.071   2.662
70897W        W42623  16.598  30.117  12.988
70898W        W42624  28.044  35.151  14.796
70899W        W42625  22.182  41.980   4.123
70900W        W42626  25.020  17.245   2.758
70901W        W42627  22.593  43.030   3.242
70902W        W42628  43.974  36.097   0.414
70903W        W42629  34.093   9.336  13.573
70904W        W42630  25.836  14.621  12.486
70905W        W42631  18.723   9.882  14.377
70906W        W42632  13.840  14.364  13.036
70907W        W42633  33.569  22.166   4.165
70908W        W42634   2.680   9.200   0.988
70909W        W42635  20.219   2.378  12.491
70910W        W42636   9.061  14.698   2.462
70911W        W42637  19.729  37.910  13.810
70912W        W42638   7.656  38.922  12.501
70913W        W42639  37.550  26.159   4.535
70914W        W42640  44.888  22.107   3.583
70915W        W42641   1.876   7.629  12.385
70916W        W42642  21.214  20.074   1.795
70917W        W42643  34.829  44.407   0.065
70918W        W42644   0.001  25.597   4.824
70919W        W42645  44.548  39.835  14.051
70920W        W42646   4.915  14.253   3.678
70921W        W42647  22.512  19.129  10.472
70922W        W42648  36.926  36.832   0.980
70923W        W42649  23.488   7.925  13.783
70924W        W42650  41.828   8.874   2.057
70925W        W42651   2.775  22.711   0.686
70926W        W42652   1.106  19.679  11.279
70927W        W42653   7.001  17.707  11.339
70928W        W42654  42.860  40.097  11.112
70929W        W42655  12.133  39.187   4.510
70930W        W42656  11.979  40.429  12.961
70931W        W42657  37.127   8.513   3.265
70932W        W42658  19.585   0.432   2.783
70933W        W42659   4.744   2.236   0.514
70934W        W42660   1.832   0.215   3.539
70935W        W42661   8.156  24.216   3.722
70936W        W42662  40.832  31.031   0.375
70937W        W42663  28.974  19.094   3.024
70938W        W42664  33.934  43.020  14.001
70939W        W42665   1.795  36.126   0.405
70940W        W42666   7.342  42.769   4.109
70941W        W42667   2.096  29.565   0.969
70942W        W42668  40.981  32.904  10.715
70943W        W42669  28.646   0.373   0.229
70944W        W42670  36.939  40.070  13.008
70945W        W42671   8.711  11.584  12.885
70946W        W42672  12.914   3.321  11.181
70947W        W42673  14.839  14.804   2.458
70948W        W42674  13.380  44.785  11.175
70949W        W42675  42.993  14.241  14.075
70950W        W42676  29.946   7.883   3.692
70951W        W42677  12.645   7.809   2.659
70952W        W42678   0.956  32.133  10.998
70953W        W42679  27.544  41.663   1.715
70954W        W42680  40.902  42.765  11.337
70955W        W42681  11.069  44.332  14.912
70956W        W42682  43.423  17.158   1.017
70957W        W42683  29.921   8.467  13.457
70958W        W42684  23.551  25.410   0.322
70959W        W42685   1.673  23.655   4.125
70960W        W42686  17.155  23.475   1.020
70961W        W42687  19.189  43.300  12.034
70962W        W42688   3.469  13.353  13.714
70963W        W42689   7.369  22.202   1.728
70964W        W42690  14.824  16.219  14.394
70965W        W42691  36.346  38.054  12.085
70966W        W42692  30.094  20.296  11.499
70967W        W42693  37.832  25.194   5.149
70968W        W42694  10.211  41.309  14.382
70969W        W42695  17.189  25.930   1.874
70970W        W42696   8.724  25.166   1.637
70971W        W42697   8.145  36.345  14.804
70972W        W42698   6.167  33.485   2.809
70973W        W42699  23.549   4.596   1.675
70974W        W42700   9.375  15.474  10.731
70975W        W42701   0.987  22.955  14.458
70976W        W42702  43.253  27.634   4.077
70977W        W42703  27.281  36.021   3.637
70978W        W42704  17.518  28.630  14.082
70979W        W42705  42.785  29.308   0.325
70980W        W42706   9.726   5.826   0.250
70981W        W42707  44.296  20.776  11.458
70982W        W42708  21.966  38.146   0.916
70983W        W42709  43.574  40.631  10.242
70984W        W42710  41.956  37.514   2.825
70985W        W42711   0.669  21.064  12.951
70986W        W42712  41.020  36.906   3.859
70987W        W42713  32.375  35.611  14.558
70988W        W42714   5.846  44.446   1.119
70989W        W42715  24.431   0.776  14.267
70990W        W42716   3.423  20.188  14.544
70991W        W42717  40.856   7.182  10.803
70992W        W42718  20.693  39.779  12.003
70993W        W42719  30.013   6.332  14.735
70994W        W42720   4.263  44.942   2.643
70995W        W42721  35.292  28.796  11.495
70996W        W42722  30.368  18.795  13.621
70997W        W42723  30.579   4.000  12.453
70998W        W42724  18.603   2.500   3.625
70999W        W42725  15.219   0.703  13.365
71000W        W42726  36.961   0.718  13.267
71001W        W42727  26.500  33.452   2.419
71002W        W42728  27.888  43.415   0.248
71003W        W42729  38.551  25.097  10.696
71004W        W42730  24.712  34.434  13.356
71005W        W42731  25.985  43.830   1.660
71006W        W42732  24.534  17.981   4.067
71007W        W42733  16.683  26.087  11.155
71008W        W42734  22.570   0.739   3.756
71009W        W42735  13.871  38.872   4.740
71010W        W42736  28.004  35.283   1.284
71011W        W42737  27.209  43.259   3.879
71012W        W42738  36.046   9.400   0.289
71013W        W42739  22.055  32.028  13.349
71014W        W42740   4.768  19.188   4.625
71015W        W42741  18.154  41.034   3.393
71016W        W42742  24.187  31.226   3.172
71017W        W42743  33.489   9.345  12.303
71018W        W42744   9.956  17.737  10.615
71019W        W42745  19.638  29.932   3.328
71020W        W42746  26.338  10.790  14.169
71021W        W42747   3.177  30.100  12.471
71022W        W42748  22.250  15.186   2.391
71023W        W42749  44.865  19.028   4.495
71024W        W42750   2.707   0.477  11.944
71025W        W42751   9.284  10.848  13.465
71026W        W42752  22.618  21.975   0.488
71027W        W42753  25.484  17.269  13.518
71028W        W42754   0.620  28.144   0.725
71029W        W42755   4.226  23.172   4.128
71030W        W42756  40.330  40.273  13.525
71031W        W42757  25.455  35.089  13.926
71032W        W42758  30.647   6.705  13.507
71033W        W42759  34.987  31.487  11.612
71034W        W42760  28.484   8.730   0.566
71035W        W42761  13.275  18.870   3.209
71036W        W42762  34.565   6.978   2.882
71037W        W42763  42.473  10.868  10.677
71038W        W42764  28.912  41.492   2.610
71039W        W42765   4.205  22.462  14.763
71040W        W42766  23.776  29.566   2.306
71041W        W42767   7.036  19.498   3.450
71042W        W42768   7.181  20.825   1.595
71043W        W42769   9.623   9.542   4.176
71044W        W42770  10.209  39.068  13.521
71045W        W42771   1.763  43.334   4.737
71046W        W42772   8.340   1.243  14.809
71047W        W42773   1.302  38.343  14.732
71048W        W42774  17.188   9.886   4.664
71049W        W42775  14.701  41.836   2.378
71050W        W42776  42.393   9.770   0.218
71051W        W42777  44.214  40.760  13.107
71052W        W42778  32.100  10.327   0.874
71053W        W42779  26.708  44.237   3.588
71054W        W42780  26.059   1.806   3.853
71055W        W42781  37.556   6.212   2.227
71056W        W42782  10.375   2.690   1.438
71057W        W42783  19.592  38.066   0.591
71058W        W42784  35.468   2.926   1.249
71059W        W42785   4.862  42.414  14.860
71060W        W42786  14.193  17.080   2.650
71061W        W42787  17.235  33.379   4.748
71062W        W42788  19.116   1.380   0.127
71063W        W42789   9.888  13.251   2.276
71064W        W42790  41.960  11.038  11.094
71065W        W42791  32.988  40.060   0.361
71066W        W42792  10.357   9.640  10.695
71067W        W42793   1.313   5.731   1.200
71068W        W42794   2.506  30.806   2.265
71069W        W42795   0.439  12.238  14.497
71070W        W42796  38.093   6.293   0.385
71071W        W42797  28.410  27.447   0.148
71072W        W42798  34.371  43.673  14.703
71073W        W42799   8.276  31.574  10.621
71074W        W42800   6.260  27.005   1.166
71075W        W42801  13.858  16.567  12.406
71076W        W42802   2.933  41.489   0.881
71077W        W42803  20.731  23.566  10.623
71078W        W42804  31.888  35.974   1.357
71079W        W42805  20.257  17.603   1.330
71080W        W42806  28.039  38.058   0.761
71081W        W42807  10.154  40.900  10.426
71082W        W42808  24.179  13.177   3.678
71083W        W42809   2.874  24.666   3.858
71084W        W42810  19.979   5.318   4.630
71085W        W42811  17.661   4.251   3.247
71086W        W42812  38.879  32.138  11.170
71087W        W42813  34.716  33.585   4.279
71088W        W42814  40.541   3.383  11.839
71089W        W42815  23.651   1.449  13.234
71090W        W42816   5.332   1.182  13.632
71091W        W42817  30.342  15.741  13.684
71092W        W42818   2.806  20.698   1.984
71093W        W42819  34.417  20.636  11.128
71094W        W42820  15.171  26.921   3.310
71095W        W42821  39.478  24.718  12.526
71096W        W42822   9.512   9.862   3.716
71097W        W42823  33.389  10.098   4.233
71098W        W42824  26.899  12.304  12.558
71099W        W42825   0.334  20.955  13.927
71100W        W42826  23.499   1.009  10.550
71101W        W42827  16.865  28.095   4.541
71102W        W42828   5.948  19.313  11.370
71103W        W42829  29.908   5.317   3.138
71104W        W42830  37.305  16.630  13.875
71105W        W42831  32.894  33.384   3.624
71106W        W42832   4.932  33.503  11.517
71107W        W42833   7.641  11.111   1.495
71108W        W42834  18.228  37.129  12.966
71109W        W42835  22.230  11.609  11.675
71110W        W42836   7.432  25.009   4.159
71111W        W42837   4.915  41.089  11.556
71112W        W42838   6.719   1.140  14.398
71113W        W42839   6.290  20.992  12.975
71114W        W42840  41.687  43.368   4.659
71115W        W42841  20.205  40.031  12.083
71116W        W42842   7.161   2.418   0.451
71117W        W42843  41.061  11.372   2.332
71118W        W42844  19.238  32.088  14.940
71119W        W42845   8.820  14.510  13.569
71120W        W42846  19.511  23.128  10.633
71121W        W42847  27.673  24.723   2.264
71122W        W42848  27.711  41.944   4.856
71123W        W42849  16.272  41.970  11.966
71124W        W42850  18.594  41.708   0.555
71125W        W42851  13.903  11.579   0.099
71126W        W42852  17.553  44.270   2.306
71127W        W42853  40.604  44.602  12.104
71128W        W42854  26.770   1.327   5.346
71129W        W42855  30.162  39.872   3.672
71130W        W42856   8.256  43.746   3.983
71131W        W42857  40.905  16.888   3.521
71132W        W42858  13.288  43.352  10.926
71133W        W42859   7.332  25.131   2.357
71134W        W42860   6.457  13.786  10.625
71135W        W42861  33.814  32.471   1.687
71136W        W42862  34.031   5.275   0.367
71137W        W42863  26.561  44.899  11.119
71138W        W42864  27.401  42.824   4.849
71139W        W42865  16.802  20.600   1.352
71140W        W42866  43.261  18.548  13.930
71141W        W42867  19.166  16.525   1.744
71142W        W42868  39.438   0.211   1.182
71143W        W42869   8.893  16.816   3.394
71144W        W42870  28.273  38.704  10.748
71145W        W42871  36.066   3.536   2.823
71146W        W42872  30.738  20.723  14.887
71147W        W42873  17.400  37.992  13.634
71148W        W42874  19.155  20.987   1.208
71149W        W42875  42.396  38.536   2.175
71150W        W42876  38.408   3.815   1.621
71151W        W42877  17.591  21.676  11.027
71152W        W42878   8.816   3.010  13.357
71153W        W42879   5.081  29.710  14.938
71154W        W42880   5.044   5.017  10.542
71155W        W42881  42.755  40.303  14.840
71156W        W42882  37.125   7.766  10.652
71157W        W42883  30.216  17.984   2.730
71158W        W42884  35.924  34.072   0.963
71159W        W42885  26.548  22.983  13.329
71160W        W42886   1.735  21.952   3.370
71161W        W42887  41.875  41.204   0.380
71162W        W42888   8.546  43.739  12.437
71163W        W42889  43.446  17.167  13.991
71164W        W42890   8.526  19.342   2.220
71165W        W42891  34.609  23.067  11.236
71166W        W42892   7.192  19.164   0.930
71167W        W42893  28.616  43.859   3.597
71168W        W42894  27.994  12.698  10.789
71169W        W42895  15.660  11.210   2.375
71170W        W42896  16.624   1.918  13.075
71171W        W42897  11.792  43.633  14.754
71172W        W42898  35.978  24.178   3.145
71173W        W42899   1.770   4.924   2.792
71174W        W42900   9.772  12.203  14.484
71175W        W42901  40.508   7.706   1.380
71176W        W42902  34.389  10.199  13.894
71177W        W42903  32.421   9.173  12.803
71178W        W42904   9.832   5.446  12.952
71179W        W42905  41.312   5.220   1.561
71180W        W42906  34.381   8.090  14.040
71181W        W42907  13.879  37.012   1.415
71182W        W42908   9.728  36.443  11.632
71183W        W42909  28.546  39.495   0.865
71184W        W42910  22.970  42.993  13.002
71185W        W42911  31.843   6.212  12.915
71186W        W42912  24.394  10.459   5.106
71187W        W42913  10.470   5.431   4.138
71188W        W42914   3.681  25.097  12.048
71189W        W42915  42.909  31.202   0.851
71190W        W42916  15.236  37.739  12.483
71191W        W42917  16.150  23.636  12.915
71192W        W42918  25.349  14.170   3.350
71193W        W42919  44.964  17.265  14.134
71194W        W42920  24.169  37.208   1.887
71195W        W42921  40.304  36.791  13.427
71196W        W42922  41.948  21.924   2.887
71197W        W42923  18.313  28.959   3.718
71198W        W42924  23.432   8.317  12.075
71199W        W42925  25.463  21.641  13.541
71200W        W42926  44.501  25.778  12.431
71201W        W42927  43.599  30.898   3.157
71202W        W42928  11.126  10.343  13.037
71203W        W42929   5.841  32.112  13.930
71204W        W42930  15.053  11.201  11.664
71205W        W42931   1.296   2.806   3.085
71206W        W42932  20.408  37.826  14.531
71207W        W42933  26.005  25.924   1.433
71208W        W42934  44.493  23.196  13.017
71209W        W42935  33.414   8.582  10.273
71210W        W42936  11.855  36.524  11.891
71211W        W42937   6.899  24.573   1.286
71212W        W42938  18.723  23.642   3.694
71213W        W42939   4.350  38.400  12.785
71214W        W42940  14.953   3.761   3.411
71215W        W42941  27.541  33.878  13.328
71216W        W42942  35.318   8.462   2.122
71217W        W42943   0.680  22.264   5.157
71218W        W42944  15.239  22.190  11.762
71219W        W42945  44.210  11.195   2.320
71220W        W42946   2.812  28.289   2.775
71221W        W42947  14.195   0.542   0.976
71222W        W42948   3.533   4.155   2.008
71223W        W42949   8.645  17.630   4.325
71224W        W42950  44.455  33.993   4.744
71225W        W42951   3.991  17.424   1.456
71226W        W42952  33.631  43.998   0.420
71227W        W42953  23.405   2.130  12.145
71228W        W42954  18.067  41.314  11.183
71229W        W42955   0.770  11.152   3.802
71230W        W42956  29.519  22.779  12.016
71231W        W42957  32.551  10.624  11.606
71232W        W42958   0.695  29.531   2.889
71233W        W42959  38.638  13.158   1.360
71234W        W42960  31.087   9.532  14.952
71235W        W42961   1.741  43.324   4.224
71236W        W42962  35.677  28.698   4.256
71237W        W42963  30.573  34.371  13.509
71238W        W42964  18.059  18.756   2.591
71239W        W42965  40.761   9.681   4.523
71240W        W42966  39.566   1.886   0.403
71241W        W42967   9.846  30.245  12.834
71242W        W42968  10.742  11.387  11.952
71243W        W42969   2.902  36.473   4.327
71244W        W42970  20.291   1.899   4.548
71245W        W42971   4.882  25.597   3.924
71246W        W42972  12.584  19.981  10.742
71247W        W42973  41.927  20.147   1.677
71248W        W42974  22.907  20.234  10.612
71249W        W42975  20.997  15.753   9.893
71250W        W42976  25.591  17.386   2.191
71251W        W42977  17.096  17.992   3.713
71252W        W42978   0.482   1.095   1.416
71253W        W42979  32.106  15.666  14.725
71254W        W42980  44.850  33.756  10.805
71255W        W42981  13.060   7.806  14.676
71256W        W42982  38.864  43.292   1.203
71257W        W42983   3.215  27.012   0.203
71258W        W42984  28.040  32.264   1.298
71259W        W42985  19.196   8.535  10.605
71260W        W42986  12.035  43.269   2.935
71261W        W42987   8.441  39.830  14.047
71262W        W42988   4.846  13.079   4.128
71263W        W42989  25.757   2.492  14.795
71264W        W42990  40.035  36.635   0.584
71265W        W42991  39.001   4.022  14.541
71266W        W42992  32.127  31.097  11.686
71267W        W42993  27.966  33.137   3.398
71268W        W42994  27.425  20.490   3.463
71269W        W42995   2.517  34.521   3.224
71270W        W42996  25.958  30.983   0.066
71271W        W42997   6.479  43.914  14.578
71272W        W42998   6.945  41.908   2.207
71273W        W42999  17.559  27.129  10.933
71274W        W43000  19.098  20.766  13.816
71275W        W43001  42.520  19.109  12.244
71276W        W43002   1.081  17.317   9.781
71277W        W43003  10.913  39.944  11.577
71278W        W43004  20.686  32.120   0.882
71279W        W43005  34.993   5.025  12.527
71280W        W43006  32.977  44.404  12.482
71281W        W43007  32.052  20.064   3.058
71282W        W43008  17.684  21.513  14.898
71283W        W43009  38.927  23.643  12.948
71284W        W43010  23.548  35.018   1.624
71285W        W43011  42.327  14.876   3.328
71286W        W43012   4.518  26.159   2.242
71287W        W43013  37.343  27.608  13.907
71288W        W43014  20.663  26.223  12.528
71289W        W43015  44.998  18.534   1.766
71290W        W43016  18.235  40.339  12.124
71291W        W43017   8.796  42.078   4.920
71292W        W43018  32.618  10.838  14.228
71293W        W43019  37.419  12.580   2.332
71294W        W43020   5.221  38.129  11.983
71295W        W43021  30.049  19.522  11.102
71296W        W43022  14.766  40.877   0.561
71297W        W43023  25.619  11.430  11.115
71298W        W43024   6.743   7.356  13.459
71299W        W43025  36.357  23.596  10.582
71300W        W43026  10.012  12.864   4.003
71301W        W43027  22.794  24.027   3.642
71302W        W43028  13.839  34.477   1.376
71303W        W43029  15.093   1.202   2.205
71304W        W43030   2.825  33.869  14.765
71305W        W43031  41.797   3.895   4.905
71306W        W43032  31.136  44.192  13.377
71307W        W43033   0.333  27.754  14.283
71308W        W43034  20.369   8.720  12.006
71309W        W43035  39.486  22.224  10.485
71310W        W43036  43.381  35.863  12.486
71311W        W43037  10.326  13.499  11.098
71312W        W43038  14.208  13.440   0.906
71313W        W43039  29.873  43.247   0.044
71314W        W43040  39.029  29.937   3.742
71315W        W43041  15.101  34.807  11.219
71316W        W43042  34.825  24.006  12.471
71317W        W43043  43.423  28.212   4.826
71318W        W43044  15.760  17.741   4.649
71319W        W43045  36.450  32.470  14.257
71320W        W43046  25.564  25.985  14.517
71321W        W43047  10.789  22.826  11.633
71322W        W43048  12.444  32.373  12.874
71323W        W43049  32.021  42.188   3.389
71324W        W43050   8.112  27.041  12.366
71325W        W43051  22.698  39.324  13.309
71326W        W43052  19.053  33.978   1.316
71327W        W43053  24.896  36.864  12.414
71328W        W43054  38.555  33.993  12.906
71329W        W43055  19.272   5.519   4.373
71330W        W43056   8.215  35.819  12.422
71331W        W43057  29.998   9.362  13.471
71332W        W43058  36.723  35.125  13.107
71333W        W43059  44.491   8.872   4.206
71334W        W43060  19.348   9.682  12.424
71335W        W43061  13.449  38.294   2.579
71336W        W43062  39.838  30.936  12.682
71337W        W43063  26.803  26.478   0.285
71338W        W43064  17.141  39.861  14.922
71339W        W43065  23.974   5.815   3.132
71340W        W43066  34.396  38.923  10.837
71341W        W43067  21.574  32.059  13.998
71342W        W43068  27.091  16.200   1.460
71343W        W43069  43.428  25.722   4.226
71344W        W43070  44.547   1.877  11.627
71345W        W43071  23.553  43.492  11.000
71346W        W43072   5.060   6.949  12.948
71347W        W43073  44.095  29.623   2.441
71348W        W43074  18.041  11.149   1.380
71349W        W43075  27.579  14.565   2.356
71350W        W43076   1.034  42.880  12.876
71351W        W43077  36.092  28.076   0.340
71352W        W43078   8.087   8.700   0.350
71353W        W43079  17.624  22.616  12.527
71354W        W43080  17.996  34.652   3.283
71355W        W43081  37.997  25.030  12.709
71356W        W43082  41.477  21.517   0.070
71357W        W43083  38.981   3.027   0.689
71358W        W43084  12.134  39.719   4.379
71359W        W43085   7.350  22.994   3.630
71360W        W43086   1.265  18.009  14.017
71361W        W43087  35.610  11.581  11.531
71362W        W43088   3.304  44.349   4.593
71363W        W43089  18.571  35.399   2.505
71364W        W43090  43.008   8.804  10.245
71365W        W43091  41.491  40.935   3.332
71366W        W43092   9.312  18.651  13.456
71367W        W43093  20.686  29.836  11.598
71368W        W43094  25.240  32.897  13.921
71369W        W43095   9.933  21.606  10.494
71370W        W43096  26.697   7.148   3.305
71371W        W43097  12.615  18.008   2.322
71372W        W43098  20.240  10.415   4.163
71373W        W43099  32.078  20.765   0.255
71374W        W43100  18.506   2.439   2.798
71375W        W43101  39.454  15.237   1.317
71376W        W43102  35.590  44.774   4.591
71377W        W43103   7.598  23.875   5.031
71378W        W43104  37.290  38.238  14.554
71379W        W43105  24.042  16.063  11.600
71380W        W43106  21.231  29.837   1.384
71381W        W43107  27.676  31.366  13.748
71382W        W43108   5.933  23.125  14.870
71383W        W43109  39.874  37.517  13.448
71384W        W43110  30.603  20.135  11.571
71385W        W43111   2.882  22.854  14.264
71386W        W43112  10.200  37.449  10.213
71387W        W43113   3.661  43.725  10.824
71388W        W43114  40.833  15.040  13.905
71389W        W43115  31.887  28.168  12.495
71390W        W43116  35.510  41.327   1.841
71391W        W43117  36.270  17.164  12.807
71392W        W43118  12.633  39.568   1.312
71393W        W43119  39.531  17.720  12.886
71394W        W43120  41.388  19.131   4.574
71395W        W43121  10.220   0.208  11.589
71396W        W43122   9.251  24.700   2.514
71397W        W43123  12.717  27.117   0.407
71398W        W43124  37.629  31.296   4.575
71399W        W43125   6.111  41.449  11.875
71400W        W43126  21.835   0.934  13.439
71401W        W43127  35.890  17.890   0.017
71402W        W43128  33.000  39.270   4.559
71403W        W43129   0.490  43.087  13.984
71404W        W43130  12.900  37.801  13.260
71405W        W43131  11.301  34.433  12.378
71406W        W43132  18.750   1.708   3.161
71407W        W43133   6.049  31.630  11.958
71408W        W43134  11.759  30.382  10.709
71409W        W43135  20.597  23.373  12.950
71410W        W43136  25.062  22.461   9.794
71411W        W43137  30.561   8.913  12.094
71412W        W43138   3.844  25.552   4.866
71413W        W43139  39.227  17.228  14.942
71414W        W43140  18.264   8.637   3.415
71415W        W43141  16.084  34.078   1.898
71416W        W43142  37.927  29.193   0.278
71417W        W43143  10.763  20.447   2.877
71418W        W43144   7.645  20.654   1.271
71419W        W43145   5.839  35.561  14.056
71420W        W43146  22.687   0.412   4.720
71421W        W43147  37.010  31.209  10.962
71422W        W43148  11.224  11.602  11.591
71423W        W43149  33.704   0.625   1.829
71424W        W43150   5.465  37.356  12.613
71425W        W43151  14.132  43.286   4.651
71426W        W43152  21.198  10.959  12.491
71427W        W43153  42.001  44.716   4.678
71428W        W43154   7.000  19.284   5.150
71429W        W43155   9.309  24.133  11.453
71430W        W43156  40.121  22.996   4.137
71431W        W43157  14.926  42.933  14.264
71432W        W43158  32.118  26.996  10.967
71433W        W43159  16.237  24.887   2.351
71434W        W43160  39.434  31.449   4.211
71435W        W43161  10.819  38.777  12.320
71436W        W43162  11.785  22.212   2.250
71437W        W43163  16.098  16.192   1.670
71438W        W43164  32.232  17.503   4.704
71439W        W43165   4.375  16.742  11.376
71440W        W43166  15.599   8.841   3.212
71441W        W43167  29.352  20.251  12.953
71442W        W43168  15.667   6.385   0.846
71443W        W43169  41.556  33.535   1.304
71444W        W43170  41.571  10.049   4.230
71445W        W43171  28.931  34.355   2.937
71446W        W43172   9.432  38.820   4.152
71447W        W43173  18.778  43.239  13.615
71448W        W43174  23.312  18.311  12.325
71449W        W43175   6.362   6.910  10.099
71450W        W43176  31.565  12.317  14.262
71451W        W43177   0.485   9.849   4.921
71452W        W43178  34.761  37.460  13.870
71453W        W43179  18.113  18.081   1.877
71454W        W43180  11.684   2.265  11.549
71455W        W43181  20.465   6.434  11.164
71456W        W43182  33.080  41.875   1.116
71457W        W43183   7.206  26.396  14.846
71458W        W43184   4.673  42.567   0.936
71459W        W43185   0.279  10.607   3.176
71460W        W43186  34.079   3.729   4.473
71461W        W43187  27.405  30.112  14.199
71462W        W43188  12.112  27.736  11.070
71463W        W43189  35.605  33.557   4.859
71464W        W43190  25.617  28.406  10.527
71465W        W43191  37.867  15.655  12.512
71466W        W43192  12.260  42.309   2.262
71467W        W43193  35.352  10.234  12.614
71468W        W43194  11.397   8.614   0.890
71469W        W43195  34.592   3.833  13.942
71470W        W43196  11.362  37.358   0.810
71471W        W43197  33.519  39.113  11.664
71472W        W43198  44.305  13.357  13.391
71473W        W43199  14.276  34.027   0.889
71474W        W43200  34.893   7.369   2.162
71475W        W43201  19.578   4.210   3.050
71476W        W43202  25.647   3.311   0.524
71477W        W43203  12.648  10.893   4.610
71478W        W43204   7.621  37.414  13.872
71479W        W43205  20.389  26.460   4.599
71480W        W43206  44.798  11.898   4.629
71481W        W43207   9.650  33.384  14.873
71482W        W43208  20.782   2.930  11.409
71483W        W43209   8.297  17.740   0.520
71484W        W43210  42.316   7.137   0.510
71485W        W43211   1.910  15.665  14.999
71486W        W43212   9.333  22.555   4.132
71487W        W43213  40.900  14.697  11.202
71488W        W43214  25.498  22.239  14.160
71489W        W43215  38.987  21.082  11.651
71490W        W43216  44.899  27.967  13.953
71491W        W43217   8.716  39.584  14.412
71492W        W43218  18.340   2.451   0.468
71493W        W43219  12.399   9.386  14.299
71494W        W43220  32.540  15.481   3.841
71495W        W43221  25.125  13.726   3.201
71496W        W43222  19.134  43.752  12.291
71497W        W43223  14.713  29.475   3.474
71498W        W43224   1.204  16.332  13.318
71499W        W43225  12.196  23.571   2.362
71500W        W43226   5.704  23.256  12.798
71501W        W43227  41.795  40.980   0.880
71502W        W43228  34.485  34.543   0.503
71503W        W43229  44.042  32.637  14.362
71504W        W43230  44.053  34.806  13.524
71505W        W43231  23.833  30.684   2.707
71506W        W43232  28.593  39.522  10.883
71507W        W43233  14.475  44.451   0.742
71508W        W43234  22.188  38.302   2.380
71509W        W43235  10.242  37.765  11.255
71510W        W43236  24.456  20.008   0.813
71511W        W43237  13.180  27.159   4.742
71512W        W43238  21.213  38.936   1.373
71513W        W43239   7.394  32.223   5.051
71514W        W43240  36.315  24.467   4.520
71515W        W43241  32.065  22.598  10.674
71516W        W43242  35.103  38.848   1.814
71517W        W43243   8.469  41.805   3.329
71518W        W43244   7.821  43.394   4.410
71519W        W43245   2.412  19.322   2.715
71520W        W43246  25.571   8.950   0.302
71521W        W43247   5.774  43.250  10.823
71522W        W43248  16.147   9.449   2.404
71523W        W43249  18.811  37.922  10.850
71524W        W43250  15.317   1.862   0.449
71525W        W43251  30.408  17.507   4.569
71526W        W43252  21.070  19.523  11.208
71527W        W43253  38.018  15.431  10.962
71528W        W43254   9.656  28.605   1.947
71529W        W43255  23.815  14.493  13.799
71530W        W43256   6.566  43.340  12.022
71531W        W43257  33.825  32.923  10.221
71532W        W43258  33.874  13.242   1.020
71533W        W43259  20.710   3.506   1.574
71534W        W43260  12.747  21.000  10.699
71535W        W43261  34.638  16.213   0.038
71536W        W43262  19.602  39.885  13.503
71537W        W43263   2.752  11.298  12.068
71538W        W43264  37.321  16.360   4.486
71539W        W43265  19.473  31.913  11.989
71540W        W43266  26.929  12.627  13.057
71541W        W43267  20.237  17.079   1.263
71542W        W43268   1.699  13.386   3.695
71543W        W43269  32.995  17.174   2.777
71544W        W43270  35.589  38.094   4.160
71545W        W43271   0.547  38.146  14.087
71546W        W43272  23.579  13.506   0.303
71547W        W43273  40.896   9.599  10.692
71548W        W43274  29.206  32.978   3.900
71549W        W43275  34.496  17.128   1.629
71550W        W43276  39.033  11.110   0.981
71551W        W43277  38.489  44.212  14.492
71552W        W43278  29.646   1.277   4.098
71553W        W43279   4.338  39.596   3.714
71554W        W43280  35.817  27.239   3.758
71555W        W43281  36.535  10.213   0.065
71556W        W43282  25.579  23.010  11.589
71557W        W43283  24.169   2.997  14.016
71558W        W43284  44.534  41.436  10.516
71559W        W43285  29.413  43.335   0.312
71560W        W43286   8.347  37.930   3.081
71561W        W43287  40.598  37.164  14.541
71562W        W43288  42.639   4.880   0.211
71563W        W43289  44.416  31.647  14.392
71564W        W43290  30.980  12.692   4.189
71565W        W43291   6.317  35.474  13.865
71566W        W43292  27.623  32.550   1.356
71567W        W43293  24.922  10.285  13.953
71568W        W43294   7.697  32.463   2.163
71569W        W43295  35.370   4.699   1.779
71570W        W43296   8.989   5.229  14.824
71571W        W43297  35.111  26.869   1.402
71572W        W43298  43.404  33.082   1.347
71573W        W43299  40.622  26.421  10.304
71574W        W43300  20.017   6.222   2.791
71575W        W43301   8.748   1.445   2.234
71576W        W43302  38.852  22.786   0.709
71577W        W43303  31.619   3.860   4.063
71578W        W43304  11.671  19.377   5.069
71579W        W43305  27.391   0.164  14.078
71580W        W43306   9.778  23.730   2.269
71581W        W43307  14.208  35.823   4.542
71582W        W43308   2.234  41.544  11.516
71583W        W43309  38.828  30.129  10.815
71584W        W43310  10.452  35.108  13.461
71585W        W43311   1.024  38.257   0.864
71586W        W43312  17.245  36.948  14.286
71587W        W43313  11.621   7.381  11.893
71588W        W43314  11.366  32.142   4.716
71589W        W43315  33.147  32.496   2.346
71590W        W43316   4.865  19.828  12.535
71591W        W43317  23.549  14.304   9.999
71592W        W43318   7.192  34.640  11.871
71593W        W43319  34.777  19.171   2.784
71594W        W43320  26.735  33.714   0.939
71595W        W43321  18.475  25.722  12.431
71596W        W43322  30.586  22.648  10.702
71597W        W43323   9.513  29.669   3.306
71598W        W43324  32.542  41.509  11.167
71599W        W43325   9.110  39.027  13.931
71600W        W43326  40.883   3.340  12.989
71601W        W43327  19.074   4.209   2.937
71602W        W43328   5.737   7.454   4.520
71603W        W43329  31.526  39.301   1.252
71604W        W43330  40.685   7.765  12.871
71605W        W43331  28.204  11.315   3.250
71606W        W43332  26.628   7.667   3.931
71607W        W43333  26.312   8.089   1.848
71608W        W43334  29.895   0.740   3.214
71609W        W43335  42.631  16.668  10.680
71610W        W43336   4.464  44.325  11.657
71611W        W43337  26.648  42.895  12.512
71612W        W43338  43.390  28.689   2.761
71613W        W43339  28.122  31.469   2.903
71614W        W43340  26.225  26.963   0.736
71615W        W43341  22.302  42.903  11.224
71616W        W43342  24.565  31.979   4.532
71617W        W43343  20.081  17.809   2.280
71618W        W43344  36.417   6.758   0.226
71619W        W43345  31.963  14.758  11.419
71620W        W43346  44.637  22.467   5.145
71621W        W43347   8.853  41.156  12.047
71622W        W43348  39.500  29.608   1.949
71623W        W43349  28.659   4.757   4.594
71624W        W43350  32.561   0.518   3.754
71625W        W43351   6.435  35.593   4.556
71626W        W43352  40.529  36.369  12.601
71627W        W43353  17.188   0.528   3.443
71628W        W43354   3.267  43.849   1.891
71629W        W43355   8.974  22.723   2.374
71630W        W43356   3.323  30.975   4.181
71631W        W43357  44.914   5.699  14.557
71632W        W43358  36.923  40.933  14.815
71633W        W43359  12.736  24.598   4.521
71634W        W43360  13.890  28.388   3.141
71635W        W43361  43.938  36.377  14.966
71636W        W43362  30.443  21.782   4.572
71637W        W43363  24.622  38.079  12.852
71638W        W43364   3.428  31.102  12.015
71639W        W43365  11.615  24.410   3.646
71640W        W43366  38.576  35.330   3.221
71641W        W43367  34.944  11.079   1.440
71642W        W43368  16.046  30.120   1.617
71643W        W43369  31.010  19.985   4.938
71644W        W43370  36.181  15.833  10.764
71645W        W43371   0.892  13.998  12.505
71646W        W43372  43.455  36.846  12.439
71647W        W43373  43.116  15.316   1.804
71648W        W43374  11.457  27.648  13.798
71649W        W43375  19.602  24.070  13.514
71650W        W43376  26.122  13.112   3.520
71651W        W43377  28.119   5.795   3.163
71652W        W43378  18.980  38.571  11.348
71653W        W43379  24.592  16.818  11.055
71654W        W43380  38.193  33.608  12.870
71655W        W43381   9.381  31.711  11.126
71656W        W43382  10.516  33.713  14.808
71657W        W43383  11.345  31.627   0.398
71658W        W43384  38.533  26.347   4.601
71659W        W43385  31.462  29.999   0.798
71660W        W43386  41.609  33.471  13.035
71661W        W43387  13.254  31.001  11.447
71662W        W43388  44.008  32.534   3.013
71663W        W43389  34.466  39.326  13.029
71664W        W43390  15.176  28.695   4.708
71665W        W43391  30.656  22.001   0.699
71666W        W43392  31.862  31.101   3.371
71667W        W43393  41.289  34.627  12.660
71668W        W43394  31.844  27.429   1.356
71669W        W43395  22.167  36.180   3.202
71670W        W43396  43.484  44.823   3.549
71671W        W43397  10.090  27.144  12.069
71672W        W43398   9.855  25.390  13.509
71673W        W43399  43.664  22.435  12.865
71674W        W43400  31.162  28.965   3.222
71675W        W43401  12.341  25.774  12.119
71676W        W43402  20.173  44.194  10.254
71677W        W43403  16.716   0.685   3.714
71678W        W43404   6.771  24.210   2.434
71679W        W43405  44.985   0.237  13.064
71680W        W43406  13.825   8.564   0.776
71681W        W43407  29.747  29.002  10.322
71682W        W43408  14.542  44.804   1.508
71683W        W43409   7.805  18.555  11.022
71684W        W43410  26.054  17.234   2.510
71685W        W43411   0.337  37.010   3.100
71686W        W43412  34.113  18.589  11.413
71687W        W43413  25.588   6.534  13.172
71688W        W43414  26.776  19.901   0.886
71689W        W43415  40.098  37.596  11.995
71690W        W43416   1.028  19.651  13.046
71691W        W43417  24.569  10.886   1.708
71692W        W43418  22.528   2.436  14.725
71693W        W43419  37.828  38.534  12.978
71694W        W43420  27.961  44.531   2.043
71695W        W43421  42.538   2.480  10.793
71696W        W43422  31.119  25.286   2.497
71697W        W43423   0.066   1.781   2.648
71698W        W43424  21.790  37.874  10.489
71699W        W43425  38.501  17.386   3.792
71700W        W43426  38.959  15.139  14.843
71701W        W43427  16.730   2.420  13.148
71702W        W43428  40.922  11.167   1.865
71703W        W43429  21.148  19.466  12.057
71704W        W43430  25.473  20.610   0.387
71705W        W43431  19.005   1.441   4.862
71706W        W43432   5.929  33.153  12.914
71707W        W43433  20.491  15.743   1.782
71708W        W43434  40.502  17.794   4.501
71709W        W43435  14.821  11.558   2.910
71710W        W43436  42.021  32.549  11.635
71711W        W43437  19.222  10.076  11.544
71712W        W43438  13.550  19.730   3.176
71713W        W43439  21.502  37.474  13.112
71714W        W43440   7.529  33.651  11.547
71715W        W43441   8.345  23.001   1.901
71716W        W43442  44.703   6.251   3.271
71717W        W43443  14.730  11.904  14.376
71718W        W43444  34.348   9.098  10.735
71719W        W43445   7.852  16.913  13.943
71720W        W43446  17.252  44.281   2.739
71721W        W43447  31.541  13.287   3.261
71722W        W43448   8.476  36.090   5.045
71723W        W43449  30.988  38.582   0.515
71724W        W43450  18.471  39.063   2.328
71725W        W43451  37.097  12.778   2.708
71726W        W43452  13.626  16.176  13.142
71727W        W43453  44.056  13.555   3.896
71728W        W43454  36.270  28.576   0.768
71729W        W43455   7.711  34.957   4.028
71730W        W43456  32.474  42.595  13.719
71731W        W43457  35.900  38.923  10.668
71732W        W43458  28.616  19.547   3.683
71733W        W43459  40.088  32.335   1.742
71734W        W43460   1.272  30.514   4.684
71735W        W43461  39.888  11.685   4.293
71736W        W43462   8.890  39.020   0.465
71737W        W43463   6.412  38.969   4.269
71738W        W43464  27.910  40.646  13.840
71739W        W43465  13.841  18.240  11.009
71740W        W43466  15.458  25.486  12.462
71741W        W43467  38.059  32.707  13.935
71742W        W43468   7.124  22.688   0.864
71743W        W43469  37.048  43.885   0.453
71744W        W43470   5.800   2.238  11.428
71745W        W43471  15.042  39.330   0.259
71746W        W43472  29.949  42.001  13.484
71747W        W43473  23.262  16.842   2.611
71748W        W43474  20.979  18.610  11.278
71749W        W43475  36.064  13.153  14.386
71750W        W43476  29.182   4.829  11.647
71751W        W43477  13.852  37.608   2.121
71752W        W43478  33.246   9.105   2.594
71753W        W43479   3.486  35.044  12.107
71754W        W43480  25.295  13.227   4.741
71755W        W43481   0.648  32.618   2.395
71756W        W43482  31.449  32.315  11.063
71757W        W43483  31.148  29.217   2.741
71758W        W43484  18.115   3.975   3.237
71759W        W43485  20.115  35.653  11.207
71760W        W43486  25.045  26.211  12.694
71761W        W43487  38.485  26.573  14.233
71762W        W43488   2.656  21.724   4.185
71763W        W43489   6.417  11.167   3.097
71764W        W43490  39.937  23.145  11.657
71765W        W43491  27.039  19.784  12.114
71766W        W43492  23.192  10.608  11.596
71767W        W43493  32.586  24.234   3.661
71768W        W43494  34.910  16.620   2.871
71769W        W43495  18.300  34.066  13.406
71770W        W43496  12.656   2.841  12.470
71771W        W43497  40.728  34.222  12.049
71772W        W43498  38.269   4.239  12.329
71773W        W43499  19.799  40.162   0.395
71774W        W43500  10.926  38.572   0.182
71775W        W43501  16.729  16.900   0.694
71776W        W43502   9.381   9.619   3.140
71777W        W43503  29.506  42.541  10.516
71778W        W43504  26.174  28.390  12.442
71779W        W43505  25.987  34.889  13.002
71780W        W43506   1.892   5.362  12.536
71781W        W43507  19.187  25.047  14.276
71782W        W43508  19.640  31.980  12.476
71783W        W43509  17.772  14.773  12.092
71784W        W43510  10.329   4.938  13.744
71785W        W43511  30.046  18.338   3.639
71786W        W43512  38.507  38.012  10.961
71787W        W43513  18.595  44.006  10.719
71788W        W43514  25.132  37.681   0.296
71789W        W43515  12.038  11.627  14.733
71790W        W43516  16.866  37.716   0.889
71791W        W43517  16.873  27.925   1.825
71792W        W43518  43.900  43.083   2.291
71793W        W43519  29.495  24.680   5.496
71794W        W43520  28.742  29.244  11.593
71795W        W43521  33.869  20.622   3.673
71796W        W43522  18.178   6.816  13.576
71797W        W43523  27.208  32.818  13.014
71798W        W43524   4.961  38.571  12.091
71799W        W43525  40.880  13.007   4.117
71800W        W43526  40.541  13.814   3.740
71801W        W43527  22.111   6.895   2.625
71802W        W43528   2.975  38.772  12.637
71803W        W43529  20.947  34.554  12.836
71804W        W43530  35.064  43.170  13.115
71805W        W43531  15.708   0.330  12.971
71806W        W43532  22.102   2.821   0.703
71807W        W43533  24.590   1.852  10.641
71808W        W43534  40.011   6.389   1.806
71809W        W43535  21.516  11.301   3.288
71810W        W43536  44.294  31.824  12.494
71811W        W43537  44.739  43.100   3.661
71812W        W43538   4.676  40.833  11.154
71813W        W43539  20.597   7.763   1.262
71814W        W43540   2.929  40.252  12.549
71815W        W43541  34.438   2.986   2.350
71816W        W43542  17.977  19.056  11.510
71817W        W43543  30.609  30.944   0.612
71818W        W43544  10.150  12.386   0.821
71819W        W43545  39.476  25.699   2.349
71820W        W43546  29.281  39.834  11.524
71821W        W43547  15.641   8.180   0.091
71822W        W43548  31.019   1.523   0.904
71823W        W43549  11.553  12.212   3.674
71824W        W43550  40.881  22.133   2.189
71825W        W43551   3.723  40.552  11.376
71826W        W43552   2.389  20.405   2.133
71827W        W43553  31.406   2.261   2.053
71828W        W43554  41.623  43.027   5.018
71829W        W43555  39.561  10.168   4.166
71830W        W43556  40.621  19.091   3.099
71831W        W43557  16.611  21.224  11.040
71832W        W43558  37.940   6.304  11.491
71833W        W43559  40.350  19.096  11.231
71834W        W43560  38.440  12.374  12.527
71835W        W43561   1.370  13.762   0.885
71836W        W43562  44.753  26.873   3.668
71837W        W43563  42.047  20.008  14.000
71838W        W43564  36.166   1.882  12.977
71839W        W43565  31.807  22.165  10.477
71840W        W43566  12.810  33.948  14.788
71841W        W43567  10.957  14.085  13.110
71842W        W43568  16.285   6.410   2.886
71843W        W43569  38.389  36.178   0.295
71844W        W43570  44.424   4.618  13.463
71845W        W43571  25.597  10.709  10.615
71846W        W43572  33.853   3.426   1.923
71847W        W43573  37.360  27.468   4.135
71848W        W43574  37.053   4.347  10.604
71849W        W43575  18.322  26.612   2.779
71850W        W43576  26.485  10.244  12.969
71851W        W43577  39.976  19.607  13.140
71852W        W43578  27.075  35.040   3.353
71853W        W43579  33.565  10.200  11.377
71854W        W43580  37.054  27.451  14.334
71855W        W43581   5.305  34.751  13.271
71856W        W43582  12.058  41.128  12.303
71857W        W43583  34.687  30.918   4.861
71858W        W43584   8.480   0.483  12.089
71859W        W43585   5.021  15.393   0.974
71860W        W43586  20.637  15.638  10.283
71861W        W43587  27.925  26.029   4.659
71862W        W43588  40.470   2.355  13.772
71863W        W43589  17.052   3.414  14.345
71864W        W43590  38.428  22.008   0.919
71865W        W43591  36.789  36.117   0.547
71866W        W43592  35.413  16.028   2.337
71867W        W43593  36.120  32.803  11.058
71868W        W43594  43.569  29.753  11.156
71869W        W43595  17.152  12.021   3.720
71870W        W43596   3.436  39.323  14.972
71871W        W43597  42.037  35.305  12.306
71872W        W43598  29.135  23.495  12.967
71873W        W43599  37.810  36.314   1.368
71874W        W43600  35.551   0.054   2.689
71875W        W43601   2.309  29.020   0.718
71876W        W43602  20.848  32.149   4.638
71877W        W43603  33.602  10.779   1.735
71878W        W43604  39.416  35.313  11.474
71879W        W43605  21.612  43.250  14.912
71880W        W43606  15.566  28.892   0.355
71881W        W43607  36.673  23.978  13.863
71882W        W43608  36.422   2.432  10.712
71883W        W43609  16.247  20.340  14.927
71884W        W43610  42.898  30.510  12.351
71885W        W43611  26.184   2.367   2.721
71886W        W43612   0.738   3.477   4.180
71887W        W43613  27.038  28.569  12.992
71888W        W43614  39.436  44.915  13.631
71889W        W43615  24.831  22.463  13.453
71890W        W43616  18.497   9.836   1.118
71891W        W43617   0.887  37.999  14.860
71892W        W43618  27.101  30.254   1.759
71893W        W43619  43.875  34.422  11.858
71894W        W43620  23.978   0.422   0.990
71895W        W43621  15.930   6.603  11.132
71896W        W43622  12.663  22.929  13.168
71897W        W43623  20.030   1.795   4.103
71898W        W43624   8.826  27.435   2.058
71899W        W43625  23.727  39.483  13.465
71900W        W43626  25.198   4.764   0.451
71901W        W43627  35.362  26.920   0.056
71902W        W43628  13.735  25.649   4.227
71903W        W43629  23.870  16.590   4.033
71904W        W43630  43.269  20.026   1.236
71905W        W43631  39.718   0.678  12.930
71906W        W43632   9.495   0.490  12.104
71907W        W43633   6.531  34.690  11.051
71908W        W43634  18.118  24.220   0.232
71909W        W43635  34.419  19.800   2.234
71910W        W43636  29.759  21.517  14.877
71911W        W43637  37.404  42.239  10.658
71912W        W43638  42.272   8.614  12.618
71913W        W43639  19.959  21.634  10.782
71914W        W43640   0.074  26.308   4.850
71915W        W43641  19.351  34.337  13.812
71916W        W43642  12.158   4.839  13.006
71917W        W43643   1.853  38.514   1.415
71918W        W43644  25.836  25.454  14.258
71919W        W43645  44.957  29.046   4.415
71920W        W43646  12.226  25.513  12.544
71921W        W43647  42.903  40.004  12.517
71922W        W43648  33.828   6.281   2.849
71923W        W43649  15.525  21.392   4.234
71924W        W43650   0.468  17.225   4.084
71925W        W43651   4.771  17.382   4.555
71926W        W43652  26.220  42.007   4.233
71927W        W43653  31.888   0.032   2.200
71928W        W43654   7.198  11.852  11.177
71929W        W43655  10.692  21.099   0.303
71930W        W43656  22.546   0.066   4.256
71931W        W43657  29.390  16.413   1.111
71932W        W43658  19.052   4.770   4.510
71933W        W43659   0.488  28.379   1.482
71934W        W43660   0.414  42.623  11.196
71935W        W43661  35.964  44.749   1.775
71936W        W43662  10.755  21.112  10.315
71937W        W43663  22.057  13.730   0.100
71938W        W43664   2.470   5.774  10.994
71939W        W43665  38.965   1.004   1.692
71940W        W43666  43.775  26.624  12.936
71941W        W43667  34.354  39.013   2.433
71942W        W43668   5.753  29.407   1.142
71943W        W43669  18.487  18.809  11.030
71944W        W43670   9.714  43.261   3.990
71945W        W43671  22.098  16.630   1.236
71946W        W43672  32.016  37.927  13.039
71947W        W43673  41.036  19.833   1.477
71948W        W43674   5.407  13.618  14.779
71949W        W43675   0.405  25.897   0.447
71950W        W43676  16.047  41.424   3.274
71951W        W43677  27.715  38.868  14.288
71952W        W43678  28.218  13.059   3.940
71953W        W43679  13.223  25.911   4.094
71954W        W43680  31.996  30.646   3.189
71955W        W43681  42.304  12.132   0.418
71956W        W43682  15.274   5.169   3.989
71957W        W43683  12.115  41.780   2.427
71958W        W43684  36.030   1.091  10.610
71959W        W43685  44.034   7.398   0.902
71960W        W43686   4.439   9.377   3.743
71961W        W43687  22.211  21.788   2.219
71962W        W43688  36.994  16.588   3.947
71963W        W43689  43.463  38.965   0.547
71964W        W43690  31.850  26.035  10.326
71965W        W43691  13.091  39.433   0.898
71966W        W43692  33.327  36.478  11.151
71967W        W43693  12.736   2.492   1.312
71968W        W43694  24.729  35.431   4.111
71969W        W43695   2.870  25.477  14.512
71970W        W43696   8.234  24.994  13.411
71971W        W43697  21.632  21.045  12.182
71972W        W43698  32.031  17.111  12.404
71973W        W43699  42.220   8.126  13.621
71974W        W43700  28.891  23.827   3.953
71975W        W43701  35.172  27.082  11.424
71976W        W43702  18.260  18.022   1.006
71977W        W43703  36.877   0.700   0.741
71978W        W43704  43.813  39.354  11.930
71979W        W43705  12.873  30.595   4.077
71980W        W43706  18.608  26.520   4.116
71981W        W43707   3.991  10.930   0.831
71982W        W43708  20.742  35.041  11.580
71983W        W43709  10.218  25.258   4.231
71984W        W43710   6.824  13.854  10.265
71985W        W43711  32.138  43.436   3.247
71986W        W43712  20.630  25.195  13.333
71987W        W43713  41.273  21.004   2.198
71988W        W43714  37.495  23.050   1.169
71989W        W43715  39.122  29.072  13.418
71990W        W43716  41.613   8.211   3.311
71991W        W43717  14.889  37.894   3.318
71992W        W43718  44.442  14.073  14.965
71993W        W43719  44.990  35.367   1.813
71994W        W43720  28.481  18.044   1.840
71995W        W43721  18.668  40.109  10.751
71996W        W43722  13.075  28.953   2.314
71997W        W43723   0.530  39.109   2.262
71998W        W43724   6.562   6.249   1.445
71999W        W43725  37.497  41.342  12.472
72000W        W43726  31.586  41.591  14.939
72001W        W43727   3.986  18.359   1.712
72002W        W43728  14.404  25.563   0.566
72003W        W43729  16.031  39.830  12.614
72004W        W43730  32.957  40.395  12.951
72005W        W43731  10.048  14.284  13.261
72006W        W43732  41.040  14.466  13.953
72007W        W43733  26.278  13.717   4.117
72008W        W43734   8.907  18.690  11.924
72009W        W43735  41.858   8.290  11.091
72010W        W43736  31.060  38.823   4.517
72011W        W43737  22.719  14.242  11.630
72012W        W43738  41.859  10.797  13.603
72013W        W43739  22.719  25.404   3.888
72014W        W43740  16.310  33.235  14.305
72015W        W43741   7.452  28.010  10.765
72016W        W43742  23.110  35.288   3.354
72017W        W43743  12.730  28.681  11.556
72018W        W43744   5.710  24.493  12.506
72019W        W43745  12.762  41.884  11.603
72020W        W43746   6.839   0.759  11.340
72021W        W43747  20.640   0.236  12.315
72022W        W43748  29.702   6.193   2.719
72023W        W43749  21.167  41.264  14.121
72024W        W43750  20.428  31.578  11.959
72025W        W43751  26.388   8.990  10.040
72026W        W43752   7.168  38.058   0.038
72027W        W43753  32.391  40.446  10.419
72028W        W43754  22.542   0.373   3.402
72029W        W43755  19.609  16.651   3.983
72030W        W43756  44.980   5.552   4.234
72031W        W43757   6.791   5.860  11.150
72032W        W43758   0.804  42.787   2.734
72033W        W43759  28.179  39.320   1.186
72034W        W43760  28.035  32.886   1.931
72035W        W43761  18.715   0.225  12.522
72036W        W43762  33.211   6.827  11.655
72037W        W43763  40.560  34.608  11.752
72038W        W43764  19.370  18.852   4.474
72039W        W43765  13.353   1.910  10.339
72040W        W43766  43.275   6.698   1.714
72041W        W43767  42.092  39.705  12.102
72042W        W43768  18.036  34.109   3.771
72043W        W43769  33.706  41.993   4.563
72044W        W43770  33.416  40.125   2.714
72045W        W43771   5.960   2.846  12.055
72046W        W43772  38.438  22.944  14.501
72047W        W43773  13.504  29.434  12.696
72048W        W43774  30.563  13.207  13.388
72049W        W43775  21.795   1.221   1.868
72050W        W43776  13.880  41.014  12.033
72051W        W43777  32.997  24.779   1.759
72052W        W43778  18.192  32.465   4.533
72053W        W43779  22.230   3.275   0.461
72054W        W43780  39.932  22.335  11.816
72055W        W43781  25.751  36.448   3.335
72056W        W43782  24.605   5.248  11.171
72057W        W43783  11.752  19.994   1.780
72058W        W43784  44.681  33.008   2.257
72059W        W43785   7.787   4.413   0.379
72060W        W43786  11.921  21.017  13.842
72061W        W43787  26.036  27.862  12.391
72062W        W43788  25.740  35.543   2.251
72063W        W43789   9.890  18.041  12.940
72064W        W43790  41.041   9.404  13.483
72065W        W43791   4.258  39.359   4.167
72066W        W43792  16.242  25.258  12.860
72067W        W43793  23.338  42.627   3.629
72068W        W43794  21.579   7.691  11.212
72069W        W43795  20.475  22.611  11.594
72070W        W43796  36.431   3.683   4.561
72071W        W43797   5.341   7.165   1.056
72072W        W43798  19.574   0.262  11.291
72073W        W43799  30.071  36.953   4.202
72074W        W43800  32.578  42.699  11.103
72075W        W43801   8.231  25.528  11.877
72076W        W43802  12.908  18.303  13.043
72077W        W43803  14.322  25.763   1.054
72078W        W43804  30.660  15.216   3.568
72079W        W43805  32.421  37.966   3.716
72080W        W43806  38.530  40.049   0.233
72081W        W43807  29.698   1.279   3.086
72082W        W43808  25.810  43.762   2.639
72083W        W43809   4.809  35.613  14.921
72084W        W43810  43.040  42.427  14.019
72085W        W43811  43.338   7.441  11.903
72086W        W43812  19.201  17.748   3.738
72087W        W43813  20.650  42.714  11.934
72088W        W43814  16.722  40.794  12.743
72089W        W43815  15.600  16.041  13.082
72090W        W43816  35.049   9.191  14.488
72091W        W43817  15.604  10.219   2.675
72092W        W43818  32.335  24.093  10.203
72093W        W43819  11.110  38.442  14.567
72094W        W43820   4.936  36.729   1.302
72095W        W43821  42.108  15.223   1.810
72096W        W43822  34.207   0.829   2.833
72097W        W43823  37.848  12.339   3.630
72098W        W43824   1.279  41.224  12.410
72099W        W43825  39.904  28.065   1.931
72100W        W43826  26.980  29.150   4.397
72101W        W43827  35.577   8.084  14.391
72102W        W43828   6.770  16.762   1.875
72103W        W43829  24.144   4.427  12.409
72104W        W43830   7.279  12.395  13.418
72105W        W43831  30.008  13.077  10.754
72106W        W43832   2.771  32.711  11.242
72107W        W43833  33.996  20.707  13.938
72108W        W43834   5.300   1.512  14.030
72109W        W43835  12.974   5.874  11.154
72110W        W43836  34.019  39.795  11.578
72111W        W43837  31.064   1.143  11.001
72112W        W43838  14.308   1.803   4.136
72113W        W43839  36.066  24.283   0.454
72114W        W43840  39.008   4.929  11.518
72115W        W43841  26.971  20.158   0.406
72116W        W43842  42.821   0.345   5.182
72117W        W43843  11.575  27.077   2.279
72118W        W43844  27.691  30.437   0.271
72119W        W43845  17.522   1.284  12.306
72120W        W43846  36.454  39.946   1.424
72121W        W43847  33.180  24.479  11.835
72122W        W43848  11.825  38.591   1.596
72123W        W43849   9.873  13.317  12.912
72124W        W43850  31.736  32.876  13.904
72125W        W43851  31.933  19.518   1.778
72126W        W43852   9.754   4.416  10.750
72127W        W43853   4.081  44.213   3.156
72128W        W43854  38.875  27.091   2.902
72129W        W43855  30.415  12.415   4.543
72130W        W43856  25.405  38.883   1.402
72131W        W43857   4.820  39.009  11.186
72132W        W43858  30.628  38.820   4.092
72133W        W43859  13.179   0.257  12.940
72134W        W43860  12.349  25.069  13.540
72135W        W43861   0.830  42.365   0.579
72136W        W43862  10.974  31.167  11.581
72137W        W43863  34.434  35.659  11.174
72138W        W43864  34.978  24.977   3.621
72139W        W43865  43.910  30.270  11.818
72140W        W43866  19.701  39.828   0.817
72141W        W43867  12.229  15.749  13.332
72142W        W43868  38.069   5.835   1.940
72143W        W43869  20.413  16.853   0.455
72144W        W43870  33.468  31.268  13.607
72145W        W43871  19.188  16.806  14.923
72146W        W43872   9.406  32.396   1.953
72147W        W43873  29.312  22.092   3.322
72148W        W43874   7.911  25.617   4.514
72149W        W43875  39.758  41.820  14.770
72150W        W43876  34.554  25.599   0.829
72151W        W43877  16.632  30.822  10.740
72152W        W43878  17.316  23.060  14.942
72153W        W43879  25.429  17.130   4.873
72154W        W43880  20.550  13.351   1.686
72155W        W43881   4.409  16.747   0.930
72156W        W43882  10.231  23.486   2.050
72157W        W43883  38.398  39.696   0.962
72158W        W43884  10.438   8.783  11.097
72159W        W43885  17.135  28.420   1.443
72160W        W43886  17.188  29.863   3.442
72161W        W43887  19.693   8.846  11.400
72162W        W43888  23.186  19.296  13.811
72163W        W43889   9.395  23.959  11.939
72164W        W43890   1.359  20.009  12.112
72165W        W43891  24.138  10.292   1.432
72166W        W43892   0.299  28.569  11.609
72167W        W43893  20.211  42.870  11.675
72168W        W43894  29.945  15.523  12.850
72169W        W43895   2.880  25.523   3.666
72170W        W43896   6.791  25.847  10.585
72171W        W43897  40.739  19.047  12.158
72172W        W43898  30.120  43.717   5.281
72173W        W43899  39.001  13.287   4.467
72174W        W43900  41.389   6.838   4.418
72175W        W43901  22.278  28.081   3.599
72176W        W43902   9.659  19.438  13.498
72177W        W43903   0.647  27.748   3.082
72178W        W43904  29.420  30.048  14.406
72179W        W43905  14.089  30.545   3.559
72180W        W43906  29.245  23.085   3.159
72181W        W43907  22.768  17.106   3.170
72182W        W43908  39.783  36.134  11.591
72183W        W43909   3.632  36.845  12.470
72184W        W43910   5.960  24.692  14.334
72185W        W43911   2.747   8.204   0.789
72186W        W43912  44.187  39.508  12.619
72187W        W43913   3.439   3.742  10.701
72188W        W43914  20.210  16.046  12.947
72189W        W43915  33.903  30.619   0.200
72190W        W43916  37.094  20.377  14.884
72191W        W43917  14.224  25.088  12.293
72192W        W43918  16.334  22.109   2.875
72193W        W43919  44.725  34.707  11.975
72194W        W43920  32.363  18.944  13.379
72195W        W43921  33.149  30.167   1.824
72196W        W43922  11.582  21.702   3.401
72197W        W43923   3.377  21.797   2.669
72198W        W43924  33.141   2.498  11.138
72199W        W43925   6.541  16.305   1.288
72200W        W43926  35.519  41.025  13.590
72201W        W43927  37.267  19.698   0.167
72202W        W43928   1.428  36.999   4.900
72203W        W43929  40.751  42.955  10.480
72204W        W43930  14.327  22.912   2.063
72205W        W43931   1.257  44.643  11.582
72206W        W43932  17.642  19.798  13.281
72207W        W43933   2.279  19.137   1.704
72208W        W43934  11.155  12.617  11.441
72209W        W43935  16.812  28.680   3.360
72210W        W43936  26.308  16.051   4.989
72211W        W43937   5.417  21.616   4.139
72212W        W43938   3.799   8.086  12.122
72213W        W43939  41.894  36.183  11.075
72214W        W43940  40.595  25.469  11.388
72215W        W43941   6.198  16.681   1.210
72216W        W43942  19.650  12.837   4.429
72217W        W43943  13.567   9.870   2.716
72218W        W43944   3.900   3.339   5.101
72219W        W43945  36.630  15.556   4.596
72220W        W43946  24.707  14.688  11.571
72221W        W43947  17.497  44.853   0.278
72222W        W43948  35.314  42.405  10.686
72223W        W43949  11.306   2.740  12.489
72224W        W43950   7.848  38.538  11.334
72225W        W43951  39.199   0.059   1.624
72226W        W43952  41.373  21.571  12.577
72227W        W43953  40.938   3.416   3.761
72228W        W43954   1.490  12.584  14.437
72229W        W43955  41.565  43.336  12.522
72230W        W43956  44.248  31.045  12.240
72231W        W43957  35.098  25.191  10.711
72232W        W43958  38.987   3.203  13.406
72233W        W43959  13.127  26.408  12.436
72234W        W43960  35.147  13.740   0.434
72235W        W43961  24.104  24.235   4.540
72236W        W43962  29.426  32.482  12.792
72237W        W43963  10.695  13.136  13.856
72238W        W43964  42.974  41.089   3.726
72239W        W43965  19.075  41.307  14.385
72240W        W43966  34.822   1.686  10.532
72241W        W43967  14.872   8.450  11.224
72242W        W43968  44.896  41.689   3.733
72243W        W43969   6.012  25.991  11.846
72244W        W43970   7.974   5.520   0.550
72245W        W43971   2.396   7.618  13.513
72246W        W43972  36.909  35.855   1.450
72247W        W43973  40.476   5.757   1.324
72248W        W43974  42.604   2.156  12.981
72249W        W43975  36.071   1.015   3.165
72250W        W43976   7.709  11.551   4.333
72251W        W43977  15.677   4.647   0.166
72252W        W43978  44.288  19.459   2.807
72253W        W43979  13.641  10.651   1.761
72254W        W43980  21.180  27.122   0.495
72255W        W43981   5.390  22.258   1.759
72256W        W43982   9.784  41.988   3.741
72257W        W43983  18.929  42.530  12.976
72258W        W43984   7.202  38.846  12.817
72259W        W43985  36.157  43.427   3.079
72260W        W43986  15.296  40.289   2.854
72261W        W43987  25.910  35.553  14.711
72262W        W43988   5.167  14.083  10.273
72263W        W43989  40.856  41.121  14.985
72264W        W43990  33.357  39.811  14.325
72265W        W43991  16.875   7.720  12.020
72266W        W43992  30.822  44.487  12.802
72267W        W43993   2.989  23.440  10.669
72268W        W43994  14.732  42.777  11.091
72269W        W43995   1.472  10.617  12.984
72270W        W43996  19.083  23.353   2.494
72271W        W43997   9.173   8.938  14.345
72272W        W43998  44.926  34.147   4.908
72273W        W43999   1.845   0.363  13.904
72274W        W44000  29.455  10.784  13.377
72275W        W44001  26.235   9.400  10.353
72276W        W44002  42.026   2.907   1.449
72277W        W44003  17.162  44.867   4.590
72278W        W44004   0.966  31.402  12.534
72279W        W44005  34.553  37.860  14.414
72280W        W44006  35.206  41.004  14.552
72281W        W44007  18.127   7.922  14.861
72282W        W44008   4.236  12.536  11.044
72283W        W44009  23.691  19.512   2.381
72284W        W44010  15.383   1.715  13.479
72285W        W44011  14.303  34.983   1.925
72286W        W44012  26.996   3.934  13.393
72287W        W44013  33.913  24.877  11.160
72288W        W44014  21.067   7.629  11.150
72289W        W44015   9.761   3.164  12.962
72290W        W44016  38.613  28.550  11.804
72291W        W44017  43.357  27.046   3.800
72292W        W44018  18.807  32.666  13.450
72293W        W44019  44.046  43.816   0.827
72294W        W44020  39.862  42.436  12.518
72295W        W44021   3.256  17.320  11.623
72296W        W44022  39.963  24.525  11.545
72297W        W44023  13.792  44.050  14.047
72298W        W44024  31.118  33.975  14.562
72299W        W44025   5.151  18.695   3.715
72300W        W44026  39.803  25.649  14.024
72301W        W44027  15.030   5.766  11.568
72302W        W44028   0.913  33.476  12.246
72303W        W44029  10.114  17.221   2.362
72304W        W44030  23.785  18.527   3.305
72305W        W44031  37.150  28.876   0.012
72306W        W44032  33.896   6.416   3.341
72307W        W44033  34.002  40.834   2.816
72308W        W44034  36.418  22.103   9.624
72309W        W44035   9.830   9.427   5.038
72310W        W44036  14.165  19.288   0.321
72311W        W44037  17.757  33.325   4.465
72312W        W44038   8.343   9.124   4.940
72313W        W44039  13.036   2.693   2.647
72314W        W44040  19.278  43.347  13.488
72315W        W44041   9.951  34.446   5.022
72316W        W44042   4.902   6.220   5.317
72317W        W44043  16.806  25.913  12.683
72318W        W44044  37.309  43.599  14.578
72319W        W44045  29.682   6.772   3.661
72320W        W44046  10.710   8.655  14.816
72321W        W44047  37.816  33.142   0.419
72322W        W44048   5.086   0.984  14.351
72323W        W44049  35.585  39.544  12.389
72324W        W44050   5.148  22.524   3.180
72325W        W44051  18.619  17.112  12.084
72326W        W44052  11.046  20.717  13.792
72327W        W44053  16.033  18.697   1.246
72328W        W44054   3.254   8.309   0.896
72329W        W44055  11.751   0.350   3.937
72330W        W44056  41.326   9.172   2.870
72331W        W44057  39.157  38.073  11.953
72332W        W44058   4.320  25.654   2.137
72333W        W44059  34.003   9.627   3.992
72334W        W44060  22.287  29.144  12.417
72335W        W44061  34.503  20.722  13.838
72336W        W44062  35.758  24.452  12.846
72337W        W44063  11.876  44.782   4.578
72338W        W44064  11.056  23.716  10.614
72339W        W44065  12.846   5.691   1.671
72340W        W44066   8.746  20.784  11.467
72341W        W44067   0.887  13.322  10.349
72342W        W44068  44.324  13.159   4.060
72343W        W44069  42.909   8.215  10.944
72344W        W44070  11.144  20.062   2.963
72345W        W44071  22.442  30.493   4.664
72346W        W44072  27.196  39.092   0.500
72347W        W44073  37.869   1.692   1.684
72348W        W44074   5.817  17.224  13.775
72349W        W44075   3.463   8.903  11.952
72350W        W44076   2.154  27.438   0.270
72351W        W44077  21.720  34.432  14.290
72352W        W44078  27.453  43.391  11.353
72353W        W44079  41.417  41.746   1.188
72354W        W44080  42.781  25.911   4.237
72355W        W44081   7.920  44.257   0.340
72356W        W44082  39.716  26.566   2.587
72357W        W44083  13.063  15.135   1.468
72358W        W44084   0.482   0.555   4.437
72359W        W44085  22.148  31.478   0.027
72360W        W44086  36.914  23.408  11.218
72361W        W44087  28.611   5.470   3.023
72362W        W44088   4.957  21.748  12.798
72363W        W44089  36.364  20.046   0.878
72364W        W44090  40.692  44.990   3.665
72365W        W44091  18.611  24.267   3.712
72366W        W44092  28.118   5.635  10.801
72367W        W44093  37.743  32.503   1.104
72368W        W44094  36.418  34.906   3.607
72369W        W44095   5.712  15.731   0.433
72370W        W44096   4.543   0.829  13.062
72371W        W44097  18.994  28.026   0.867
72372W        W44098   6.821   3.380  13.063
72373W        W44099  34.536   4.208   4.129
72374W        W44100   9.838   5.629   4.971
72375W        W44101  37.357  35.474  14.985
72376W        W44102  36.502  38.105  14.915
72377W        W44103  40.284   6.887  14.855
72378W        W44104   8.158  17.792  10.497
72379W        W44105  40.086  17.551  13.929
72380W        W44106  33.895   8.231  13.878
72381W        W44107  17.746  19.262   0.561
72382W        W44108   6.922  24.724   4.119
72383W        W44109   1.482  37.972   2.792
72384W        W44110  14.472  14.055   4.296
72385W        W44111  41.515  38.999  12.529
72386W        W44112   0.517   9.124  11.355
72387W        W44113  19.036  11.778  12.549
72388W        W44114  13.269  40.758  13.534
72389W        W44115   0.944  19.275   3.607
72390W        W44116   4.405   8.472   4.572
72391W        W44117  43.821  19.244   4.238
72392W        W44118  12.251   0.726   2.351
72393W        W44119  43.844  23.146  11.163
72394W        W44120  13.456  19.534   1.700
72395W        W44121   0.850  13.017  12.865
72396W        W44122   4.437   6.820   3.715
72397W        W44123  28.482   7.839  14.874
72398W        W44124  29.438   3.875  13.865
72399W        W44125  34.091   1.811  11.703
72400W        W44126  20.981  34.941   1.809
72401W        W44127  28.393  19.720  13.467
72402W        W44128  33.593  26.701   1.050
72403W        W44129  19.135  26.718  14.269
72404W        W44130  18.787  27.538  12.003
72405W        W44131  31.375  31.956   2.177
72406W        W44132  29.229  23.671  14.848
72407W        W44133  12.277  21.361   2.635
72408W        W44134   7.710  14.884   2.538
72409W        W44135  21.828  15.886   2.918
72410W        W44136  23.497  18.195  12.786
72411W        W44137   8.116  27.063   4.587
72412W        W44138  39.255   1.934   3.224
72413W        W44139  37.208  22.486   1.913
72414W        W44140  22.109  21.702   4.062
72415W        W44141  40.252  32.833  13.909
72416W        W44142  16.775   5.936   1.906
72417W        W44143  19.199   7.927   2.901
72418W        W44144  37.397   5.751   4.146
72419W        W44145  42.834  20.311   1.414
72420W        W44146  43.889  24.447  11.121
72421W        W44147  13.279   1.522   3.891
72422W        W44148   2.846  19.708  11.623
72423W        W44149  44.937  33.463   3.623
72424W        W44150  34.369  21.138  12.594
72425W        W44151  11.886  20.116  10.276
72426W        W44152  27.544   9.889   0.031
72427W        W44153  23.133   2.178  12.563
72428W        W44154   3.971  35.943  14.184
72429W        W44155   7.524  23.191  11.158
72430W        W44156  14.346   7.080   1.199
72431W        W44157  15.742  20.543   3.133
72432W        W44158  39.128   8.279   4.263
72433W        W44159  39.581  31.464   2.623
72434W        W44160  30.172  29.880  14.548
72435W        W44161  13.835   1.447  12.527
72436W        W44162  30.198  10.593  11.623
72437W        W44163  11.780  23.359   1.289
72438W        W44164   8.481  14.397   3.917
72439W        W44165  30.120  20.816  10.736
72440W        W44166  17.202   0.225  13.276
72441W        W44167  27.668  43.925  13.840
72442W        W44168  16.599   3.254  14.141
72443W        W44169  14.103  15.790  11.101
72444W        W44170   1.387  24.071   2.680
72445W        W44171  13.212  43.891  13.433
72446W        W44172  13.478  22.819  14.293
72447W        W44173  24.487  13.365   5.154
72448W        W44174   7.930  20.469   2.284
72449W        W44175   0.876   0.769  10.950
72450W        W44176   4.515   2.758  11.651
72451W        W44177  20.739  41.141  12.524
72452W        W44178   0.472  12.898   2.287
72453W        W44179   2.904  18.618   1.264
72454W        W44180  11.285  33.947   4.115
72455W        W44181  30.160  35.891  14.450
72456W        W44182  40.489  23.022   0.615
72457W        W44183  23.246  33.903   1.305
72458W        W44184   8.202  42.840   1.825
72459W        W44185  39.290  42.761  11.019
72460W        W44186  40.373  41.683  13.463
72461W        W44187   2.329  29.137   2.321
72462W        W44188  16.106  21.294   1.156
72463W        W44189  35.916  10.349  10.693
72464W        W44190   4.024  37.482   4.634
72465W        W44191   2.215  32.873   3.121
72466W        W44192  37.620  13.982  13.823
72467W        W44193  35.041  37.226  11.195
72468W        W44194   4.327  21.073  12.864
72469W        W44195  14.172  38.951   5.522
72470W        W44196  18.273  30.850  13.507
72471W        W44197  20.702  30.349  11.483
72472W        W44198  26.984   7.260   2.364
72473W        W44199  34.909  21.879   0.275
72474W        W44200  42.358  42.121   0.275
72475W        W44201  39.037  11.121   0.473
72476W        W44202   2.074  15.863   1.481
72477W        W44203  18.436  17.411  10.543
72478W        W44204   8.358  23.445   4.153
72479W        W44205   1.984  28.955   1.652
72480W        W44206  32.453  22.178  10.604
72481W        W44207  35.663  23.359  12.883
72482W        W44208  39.883  22.278  14.214
72483W        W44209  11.649  26.275   0.917
72484W        W44210  33.385  13.096   4.115
72485W        W44211  13.235  29.516   4.051
72486W        W44212  37.439  16.708  14.380
72487W        W44213  20.174  18.824   3.810
72488W        W44214  16.237   9.833  14.456
72489W        W44215  19.379   2.945   0.318
72490W        W44216   8.222   1.097   2.886
72491W        W44217   6.149  42.528   4.577
72492W        W44218  10.100  23.462   5.048
72493W        W44219   9.706  34.158   3.191
72494W        W44220  34.778  41.874   3.306
72495W        W44221  35.166  40.393   0.768
72496W        W44222   4.283  26.483  13.108
72497W        W44223  13.790  44.563  13.845
72498W        W44224  19.124  39.580   0.404
72499W        W44225  14.317   9.482  11.705
72500W        W44226  39.625   8.811  12.879
72501W        W44227  13.162  15.112   3.103
72502W        W44228  25.152  11.695  11.521
72503W        W44229  10.259  25.657  14.815
72504W        W44230  25.422  20.220   4.745
72505W        W44231   0.411  20.052  12.131
72506W        W44232  26.390  36.992  10.621
72507W        W44233  22.971   2.127   1.397
72508W        W44234  35.858  18.014   1.367
72509W        W44235  25.367  13.178   1.653
72510W        W44236  16.714  41.174   5.373
72511W        W44237  37.728  37.928   0.311
72512W        W44238  31.519  27.591   3.278
72513W        W44239   3.446  29.135   2.722
72514W        W44240  20.001  28.612   2.307
72515W        W44241  41.462   6.895  14.251
72516W        W44242  13.335  32.848  12.859
72517W        W44243   1.331  44.868   3.529
72518W        W44244  43.981  32.458  13.502
72519W        W44245  15.254   1.693   2.458
72520W        W44246   1.244  28.587   0.415
72521W        W44247  11.767  36.870  10.191
72522W        W44248  18.450  42.761   5.084
72523W        W44249   4.935  37.439  14.763
72524W        W44250  17.247  34.425   1.843
72525W        W44251   7.318  18.254  13.861
72526W        W44252  26.495   1.671   3.157
72527W        W44253  19.847  32.183  13.856
72528W        W44254  38.875   4.018   0.053
72529W        W44255  14.156  38.640   5.103
72530W        W44256  26.028  16.078   2.699
72531W        W44257  28.478  19.282  10.870
72532W        W44258  22.540  41.395  10.364
72533W        W44259  34.618  42.575   0.492
72534W        W44260  13.940  37.020   4.919
72535W        W44261  43.582   5.828   0.151
72536W        W44262  16.812  42.837   2.008
72537W        W44263  27.960  20.702   1.522
72538W        W44264  42.464  29.111   4.136
72539W        W44265  39.611   3.780  13.628
72540W        W44266  11.970  40.112  12.465
72541W        W44267  32.021  38.905  14.727
72542W        W44268  18.324  13.207  10.897
72543W        W44269  15.774  26.652   0.635
72544W        W44270   7.680   7.832  10.690
72545W        W44271  20.669  40.651  12.402
72546W        W44272  17.711   6.987   2.943
72547W        W44273   2.819  35.533  13.930
72548W        W44274  19.469  35.145  11.174
72549W        W44275  12.386  11.808   3.799
72550W        W44276  10.274  42.136  13.379
72551W        W44277  13.529  11.602   4.399
72552W        W44278  34.492   1.090  13.563
72553W        W44279  24.646  10.682   0.680
72554W        W44280  15.633  39.381   1.707
72555W        W44281  23.529  13.851  10.523
72556W        W44282  33.158   2.474   3.211
72557W        W44283   3.470  42.829  13.860
72558W        W44284  16.820  10.382   0.382
72559W        W44285   9.217   2.397  13.875
72560W        W44286   7.096  10.939   2.633
72561W        W44287  40.092  20.636  14.925
72562W        W44288  31.631  26.452   2.706
72563W        W44289   7.157  34.318   0.043
72564W        W44290   6.040  14.236   4.294
72565W        W44291  15.277  29.449  10.629
72566W        W44292  36.109  12.341  13.782
72567W        W44293  22.953  17.264   2.709
72568W        W44294   4.485  16.105   4.814
72569W        W44295   9.160   3.252   5.052
72570W        W44296  38.555  20.077   3.756
72571W        W44297  31.221   3.530   1.574
72572W        W44298  23.605  16.332   4.854
72573W        W44299  14.447  29.684  14.237
72574W        W44300  30.931  15.158   4.748
72575W        W44301  10.844  38.132  13.833
72576W        W44302   8.381  25.775   4.642
72577W        W44303  44.236   3.058   0.421
72578W        W44304   5.751  24.222   0.387
72579W        W44305  28.102  17.404   4.093
72580W        W44306   9.115  21.459   2.812
72581W        W44307  40.846  37.849   1.499
72582W        W44308  31.980  12.329  11.023
72583W        W44309   7.357  30.985  13.305
72584W        W44310  18.062   7.064  11.331
72585W        W44311   0.332  10.042  11.564
72586W        W44312  24.324  24.299  13.249
72587W        W44313  38.564  40.276   4.949
72588W        W44314  21.349  43.327   3.494
72589W        W44315   6.412  22.339   4.487
72590W        W44316  42.468  29.504  13.533
72591W        W44317  18.591  24.883   1.835
72592W        W44318  35.679  31.017  12.011
72593W        W44319  32.481   7.835   2.009
72594W        W44320  17.196  16.789  10.248
72595W        W44321  25.670  10.489  14.343
72596W        W44322  16.708  19.588  11.447
72597W        W44323  25.206  31.503  12.698
72598W        W44324  10.227   5.702   3.167
72599W        W44325  23.714  11.868  11.330
72600W        W44326  32.555  43.424   1.049
72601W        W44327  11.434  20.438   3.278
72602W        W44328  32.398  14.347  13.030
72603W        W44329   8.938  42.709  11.045
72604W        W44330  32.624  30.880   4.651
72605W        W44331  36.061  22.128   2.350
72606W        W44332  21.153  17.552   2.980
72607W        W44333  41.328  40.766   3.783
72608W        W44334  19.701  16.810   2.913
72609W        W44335  30.429  13.764  14.310
72610W        W44336   3.400  27.754  12.520
72611W        W44337  25.883  12.251  11.510
72612W        W44338  19.705  43.555   2.929
72613W        W44339  37.574  11.878   2.761
72614W        W44340   1.154  10.795  13.368
72615W        W44341  36.142  29.112   2.365
72616W        W44342  30.068  35.801  12.619
72617W        W44343  37.303  16.548   1.807
72618W        W44344  40.931  20.308  13.899
72619W        W44345  41.068  28.521   1.749
72620W        W44346  17.786  36.545   0.962
72621W        W44347   5.244  14.247   4.089
72622W        W44348  43.036  38.568   2.937
72623W        W44349  35.378   1.336  13.479
72624W        W44350  12.719  10.280   3.338
72625W        W44351  22.129  33.491  13.306
72626W        W44352  35.520  12.324   1.122
72627W        W44353  29.875  27.412  11.126
72628W        W44354  44.875  24.509   2.354
72629W        W44355  12.423  20.626   3.211
72630W        W44356  13.868  28.136   4.546
72631W        W44357  25.009  29.005  11.563
72632W        W44358  35.593  18.060  12.418
72633W        W44359  20.008  33.210   1.499
72634W        W44360  26.066  34.491   0.503
72635W        W44361  26.619  24.864  13.302
72636W        W44362  43.015  41.854  12.907
72637W        W44363  18.716   0.093   4.321
72638W        W44364   7.877  41.706   0.518
72639W        W44365  36.128  40.775   1.215
72640W        W44366   7.878  42.791  12.518
72641W        W44367  20.992  22.225  10.324
72642W        W44368  26.665  35.510  14.034
72643W        W44369  13.656  20.681  14.587
72644W        W44370  15.667  29.152  10.493
72645W        W44371  17.281  29.502  14.001
72646W        W44372  11.635  19.298  12.003
72647W        W44373   1.899  23.076   4.636
72648W        W44374  22.488   8.844  14.281
72649W        W44375  16.780  42.518   3.589
72650W        W44376   8.717  31.845   3.564
72651W        W44377   8.448  15.248  13.774
72652W        W44378  29.132  39.385   3.116
72653W        W44379  29.006   4.285  14.457
72654W        W44380   8.317  34.259   2.243
72655W        W44381   6.160  41.966   3.310
72656W        W44382  17.701  21.251   2.408
72657W        W44383   6.998  31.437   0.069
72658W        W44384  22.570   1.550  11.149
72659W        W44385   2.695   0.053  10.366
72660W        W44386  27.383  19.282   1.324
72661W        W44387  25.469  30.897  11.022
72662W        W44388  25.815  21.522   2.817
72663W        W44389   3.153  37.451  14.391
72664W        W44390  17.988  17.194  14.215
72665W        W44391  37.510  39.460  11.876
72666W        W44392  23.268  37.719   3.262
72667W        W44393  27.149   6.962  11.148
72668W        W44394  12.384  17.748  13.822
72669W        W44395  44.936  23.725   4.092
72670W        W44396  27.534   0.526  12.614
72671W        W44397   6.292  32.342   0.194
72672W        W44398  41.454  23.231  13.506
72673W        W44399  43.206  34.047  11.469
72674W        W44400   3.291  37.409  14.907
72675W        W44401  11.122  16.334  14.324
72676W        W44402  33.971  36.833  13.559
72677W        W44403  11.681  39.983  12.921
72678W        W44404  27.668  40.814   0.628
72679W        W44405  11.871  33.518   1.368
72680W        W44406   1.029  28.991  11.082
72681W        W44407  39.944   8.865  10.399
72682W        W44408   6.053  27.992   1.734
72683W        W44409   0.359  42.919  13.420
72684W        W44410  38.896  17.045   0.308
72685W        W44411  34.586  18.856   0.210
72686W        W44412  27.241  30.575   4.584
72687W        W44413  19.498  42.974  10.960
72688W        W44414  34.043  26.520   0.089
72689W        W44415  10.601  36.358   4.278
72690W        W44416  14.325  42.499  10.929
72691W        W44417  26.143  44.767  13.284
72692W        W44418  24.496  14.663   3.569
72693W        W44419  29.847  33.406  13.995
72694W        W44420   6.985   8.068  10.550
72695W        W44421  30.479  42.763   0.477
72696W        W44422  22.958   5.099  11.577
72697W        W44423  38.316  10.831   3.095
72698W        W44424  34.460   0.842  12.573
72699W        W44425  39.509   4.264  10.569
72700W        W44426  40.311  36.808   3.382
72701W        W44427  40.771  43.075   4.657
72702W        W44428  10.746  27.052   2.896
72703W        W44429  43.884   2.457   1.180
72704W        W44430   9.803  36.697   5.274
72705W        W44431  35.026  10.826  13.460
72706W        W44432  16.813  36.526   4.440
72707W        W44433  13.288  17.795   3.650
72708W        W44434  43.026  29.187   2.579
72709W        W44435  20.595  40.823   4.928
72710W        W44436  35.890   5.725   0.423
72711W        W44437  13.940   4.657   3.506
72712W        W44438  40.137   0.891  14.340
72713W        W44439  26.700  27.052   3.224
72714W        W44440  13.175  25.831   1.026
72715W        W44441   5.323  36.000  10.650
72716W        W44442  13.347   8.328  12.577
72717W        W44443  26.980  44.859  10.174
72718W        W44444  20.585  17.174  13.925
72719W        W44445  31.041  22.691   1.755
72720W        W44446   3.000   6.890   3.672
72721W        W44447  10.576   7.665   1.230
72722W        W44448  35.851  39.383  11.143
72723W        W44449  30.151   2.921   0.949
72724W        W44450  24.838   9.426   4.093
72725W        W44451  39.396  12.995  11.072
72726W        W44452  22.989   6.784   3.085
72727W        W44453   4.181  35.732   2.303
72728W        W44454  40.088   4.714   4.173
72729W        W44455  14.362  16.249   4.871
72730W        W44456  27.612  12.868  12.466
72731W        W44457   1.444   2.714   1.770
72732W        W44458  30.092   6.751  10.767
72733W        W44459  18.598  31.076   4.420
72734W        W44460  24.683   1.871  12.506
72735W        W44461  42.653  31.386   2.975
72736W        W44462   6.841  29.536   4.903
72737W        W44463  14.684  40.824   1.415
72738W        W44464   6.256  19.192   3.874
72739W        W44465  26.945  38.988   3.261
72740W        W44466  31.499  32.871   4.559
72741W        W44467  39.580  26.293   0.389
72742W        W44468  38.426  17.411  10.597
72743W        W44469  33.598   4.690   1.252
72744W        W44470   0.881   1.720   2.319
72745W        W44471  24.380  19.613   4.182
72746W        W44472  30.499  31.691  11.113
72747W        W44473  19.761  32.918  10.955
72748W        W44474  36.299  30.413  14.471
72749W        W44475  42.053  34.526  13.007
72750W        W44476  44.562  34.102   1.888
72751W        W44477  31.955   3.881   1.145
72752W        W44478  33.771  30.683  10.703
72753W        W44479  23.639  24.040   4.618
72754W        W44480   6.624  10.173  14.954
72755W        W44481  32.870  35.347  14.672
72756W        W44482  22.117  26.002  12.570
72757W        W44483  18.251  18.704   4.550
72758W        W44484  31.209  17.296   1.456
72759W        W44485  42.454   1.195   3.321
72760W        W44486  23.694  34.390  10.735
72761W        W44487  17.356  44.410   4.518
72762W        W44488  14.734  27.438   1.712
72763W        W44489  21.075  43.799   3.413
72764W        W44490  16.059  29.967  14.875
72765W        W44491  27.559  33.208  14.247
72766W        W44492  10.732  14.819  12.612
72767W        W44493   5.696  28.978  14.391
72768W        W44494  20.080  13.810  13.602
72769W        W44495  25.414  25.667  14.915
72770W        W44496  13.880  16.186  14.040
72771W        W44497   0.071  16.208  10.874
72772W        W44498  43.537  29.933   0.879
72773W        W44499  37.314  25.193  12.291
72774W        W44500  29.084  12.661  14.784
72775W        W44501  31.129   5.068   2.745
72776W        W44502  10.250  26.698  11.566
72777W        W44503  27.214   4.916  13.559
72778W        W44504  21.771  30.003  12.551
72779W        W44505   4.981  26.213  14.776
72780W        W44506  29.546  18.701  14.546
72781W        W44507  20.175  32.486  11.525
72782W        W44508  15.479   1.044  11.975
72783W        W44509  44.299  36.021   4.582
72784W        W44510  13.851  17.271   3.354
72785W        W44511  27.449  29.860  13.332
72786W        W44512  20.302   1.360   4.060
72787W        W44513   8.068  26.865  11.136
72788W        W44514  44.739   7.309   2.613
72789W        W44515  22.219  20.933   0.757
72790W        W44516  16.329  44.280   0.766
72791W        W44517   5.988  39.658  13.933
72792W        W44518   9.686  10.200  13.808
72793W        W44519  23.818   9.919  11.967
72794W        W44520  23.496  10.368  13.880
72795W        W44521   8.386  15.106   1.291
72796W        W44522  24.501  10.252   3.301
72797W        W44523  12.093  30.470  12.626
72798W        W44524   1.454   1.344   1.682
72799W        W44525  28.688  41.841  11.548
72800W        W44526  33.711  37.426   1.867
72801W        W44527   9.336  33.672  11.197
72802W        W44528  13.851  24.783   1.314
72803W        W44529   2.738   7.135   0.252
72804W        W44530   5.679  19.616   2.219
72805W        W44531  27.998   1.270  12.465
72806W        W44532   7.292  44.019  11.645
72807W        W44533  19.512  26.102   4.417
72808W        W44534  15.368   1.265   1.752
72809W        W44535  37.904   5.030  12.878
72810W        W44536  42.776  19.450   4.780
72811W        W44537  15.769  15.019  11.139
72812W        W44538   2.923  25.060   1.107
72813W        W44539   2.520   9.393  12.031
72814W        W44540  35.391  31.757  10.481
72815W        W44541  44.895   5.392   1.389
72816W        W44542   7.893  23.974  12.612
72817W        W44543  14.721  40.640   5.168
72818W        W44544  39.412  18.938   3.778
72819W        W44545  25.133  20.624   0.884
72820W        W44546  42.229  24.635   0.913
72821W        W44547  36.655  33.596   3.777
72822W        W44548  43.104  27.456   3.605
72823W        W44549  11.609  21.950   0.916
72824W        W44550   5.700  15.614  11.349
72825W        W44551   4.386   0.452   2.341
72826W        W44552  33.937  16.523  11.455
72827W        W44553  40.308  16.276  12.986
72828W        W44554  31.510  39.024  13.934
72829W        W44555  22.145  42.682   1.712
72830W        W44556   9.890  29.870  13.176
72831W        W44557  39.030   5.816  14.415
72832W        W44558  24.899  12.178   1.170
72833W        W44559  43.768   7.305   0.184
72834W        W44560   8.213  41.950  13.057
72835W        W44561  10.955   8.769  11.084
72836W        W44562  34.082   2.841   0.274
72837W        W44563   2.990  43.501   2.203
72838W        W44564  29.595  26.148  14.572
72839W        W44565  31.957   4.614  13.399
72840W        W44566  23.144  31.525   0.830
72841W        W44567  18.172   0.630   4.834
72842W        W44568  23.738  28.168   1.581
72843W        W44569  40.019   9.448  13.775
72844W        W44570   9.271   1.243  11.603
72845W        W44571  10.109  13.926  11.586
72846W        W44572   0.828  10.041   2.519
72847W        W44573  44.482  40.564   1.750
72848W        W44574   0.984   5.606   2.437
72849W        W44575  36.589   8.352   2.025
72850W        W44576  19.993   9.953   4.260
72851W        W44577  27.536  26.849  13.489
72852W        W44578  29.948  37.018  13.796
72853W        W44579  34.609   9.871   0.638
72854W        W44580  36.695  10.193   5.017
72855W        W44581  39.435  40.450  13.062
72856W        W44582  23.517  30.349   0.012
72857W        W44583  44.426   7.228  14.427
72858W        W44584  37.946  12.177   0.776
72859W        W44585   7.288  21.693   1.706
72860W        W44586  42.458   5.313   2.352
72861W        W44587  18.913   5.521  11.966
72862W        W44588  28.958  14.351  12.229
72863W        W44589  34.654  36.374   3.775
72864W        W44590  37.914  36.050  14.748
72865W        W44591  35.575  44.034   1.345
72866W        W44592  11.635  10.729  11.613
72867W        W44593  29.019  43.760  14.150
72868W        W44594  31.161  13.015  12.515
72869W        W44595   1.296  17.476   2.881
72870W        W44596  26.261  26.248  14.989
72871W        W44597  17.025  17.692   2.173
72872W        W44598  37.826  13.950   2.303
72873W        W44599  23.387  18.300   4.584
72874W        W44600   0.015  15.079   3.674
72875W        W44601  30.851  16.777   4.112
72876W        W44602   3.938  39.209   0.068
72877W        W44603  29.850  37.923  13.525
72878W        W44604  32.983  13.058   1.919
72879W        W44605  28.423  42.104   3.321
72880W        W44606  26.549  37.342   3.644
72881W        W44607   6.009  34.179  13.720
72882W        W44608  43.551  42.269  11.877
72883W        W44609  12.046   9.674  14.811
72884W        W44610   3.390  30.895   4.673
72885W        W44611  42.550   6.555   2.895
72886W        W44612  11.136   3.221  11.593
72887W        W44613   4.079  14.546   2.131
72888W        W44614   8.789  10.654   1.954
72889W        W44615  17.279  39.875  13.399
72890W        W44616  14.660  18.994  12.522
72891W        W44617  30.603   5.664   1.613
72892W        W44618   7.200   3.384  10.774
72893W        W44619  34.922  23.166  12.032
72894W        W44620  41.473  20.125  11.877
72895W        W44621  40.031  14.705  13.943
72896W        W44622   8.244  27.431   0.338
72897W        W44623  32.978  30.920   2.415
72898W        W44624   3.398  34.685  10.455
72899W        W44625   6.992   4.100  12.307
72900W        W44626   8.720  28.629   3.643
72901W        W44627   6.982  30.612  12.595
72902W        W44628   0.269   1.363  14.505
72903W        W44629   2.823  23.521   1.279
72904W        W44630  32.433  26.003  13.759
72905W        W44631  32.438  36.836  11.137
72906W        W44632   3.698  15.963  14.027
72907W        W44633  19.508  39.780   1.317
72908W        W44634   3.658  18.164   0.368
72909W        W44635  36.930  10.809   1.904
72910W        W44636   1.458  17.118   3.216
72911W        W44637  26.754  41.036   4.938
72912W        W44638   9.329   5.885  13.415
72913W        W44639  13.228  33.336  13.885
72914W        W44640   3.717   9.035   3.232
72915W        W44641  35.127  40.043   0.346
72916W        W44642   5.310  19.180   0.777
72917W        W44643  17.294  22.566  13.463
72918W        W44644  24.282   0.788  11.082
72919W        W44645  29.572  44.773  10.432
72920W        W44646  20.575  24.709   3.775
72921W        W44647  44.760   3.037  14.395
72922W        W44648   8.679  31.498  11.542
72923W        W44649  34.000   1.008  13.367
72924W        W44650   2.684  38.657   2.699
72925W        W44651  11.438  25.183   0.087
72926W        W44652  31.882  42.960   4.520
72927W        W44653  40.606  24.161   3.201
72928W        W44654  22.965  23.672   4.258
72929W        W44655  13.287   4.723   1.767
72930W        W44656  13.670  36.239   1.242
72931W        W44657  25.173  43.427  13.881
72932W        W44658  25.574  36.509   3.818
72933W        W44659   0.395   0.334  13.405
72934W        W44660  17.365  35.986   0.456
72935W        W44661  14.306   8.784   1.020
72936W        W44662  22.116   6.572  13.115
72937W        W44663  31.533  12.525   2.444
72938W        W44664  39.621  23.591   1.826
72939W        W44665   6.003   1.321   2.747
72940W        W44666   2.800  29.384  12.036
72941W        W44667   0.288  10.640  10.752
72942W        W44668  14.111   5.366  14.362
72943W        W44669  26.189  33.045   2.625
72944W        W44670  39.340  16.986   2.867
72945W        W44671  39.800   5.861   1.814
72946W        W44672   7.063  39.095  11.043
72947W        W44673  23.684   1.993  12.538
72948W        W44674  17.742  26.187  12.355
72949W        W44675  23.696  22.334  10.678
72950W        W44676   3.845   8.124  12.657
72951W        W44677  43.550  28.170   2.879
72952W        W44678  15.618  38.248  13.578
72953W        W44679  10.247  21.004  14.337
72954W        W44680  36.613  37.421   1.466
72955W        W44681  40.883  16.414   3.727
72956W        W44682   4.801   2.750   0.359
72957W        W44683  40.595  13.501  13.017
72958W        W44684  22.774  28.700   0.911
72959W        W44685  11.105  17.485   3.262
72960W        W44686   1.214  39.113   3.191
72961W        W44687  13.848  21.382   4.272
72962W        W44688   1.860   2.691  13.826
72963W        W44689  27.752  43.021  13.935
72964W        W44690  41.927   6.212   0.718
72965W        W44691  44.112  39.905   4.862
72966W        W44692  15.176  12.105   4.571
72967W        W44693  25.980  42.980   0.310
72968W        W44694  25.782   9.046   4.542
72969W        W44695  18.714  32.301  11.428
72970W        W44696  11.625  27.518   0.417
72971W        W44697   0.502  21.215   2.746
72972W        W44698  11.264   9.315  11.891
72973W        W44699  17.511  21.376   3.751
72974W        W44700  19.207  23.036   3.633
72975W        W44701   1.443  21.044  13.389
72976W        W44702  19.951  33.353   0.762
72977W        W44703   7.956  43.243   0.461
72978W        W44704   3.771   9.503   0.859
72979W        W44705  34.528  11.918  12.905
72980W        W44706  15.287  44.355  12.863
72981W        W44707  27.541  18.776   2.354
72982W        W44708   3.368   3.403  13.802
72983W        W44709  13.119  26.244  14.543
72984W        W44710  27.189  22.991  14.477
72985W        W44711  23.280  32.482  13.310
72986W        W44712   0.976  33.061   2.240
72987W        W44713  35.640  35.370  10.624
72988W        W44714  11.868  20.034  12.494
72989W        W44715  29.599  18.798  11.944
72990W        W44716  30.706  11.239  10.890
72991W        W44717   0.691  29.363  10.956
72992W        W44718  10.981  37.318   1.269
72993W        W44719  29.154   4.649   4.607
72994W        W44720  44.307  10.408  11.650
72995W        W44721  34.862  33.920   3.248
72996W        W44722  39.421  10.477  14.457
72997W        W44723  44.480  19.984   4.083
72998W        W44724  43.506   3.335   3.718
72999W        W44725   4.874  35.881  12.108
73000W        W44726  35.668  32.153   2.139
73001W        W44727  14.862  37.969   4.985
73002W        W44728   4.855  22.198   4.419
73003W        W44729   5.199  36.527  13.904
73004W        W44730  43.242   1.659  10.281
73005W        W44731  18.800  18.041   2.616
73006W        W44732   2.450  35.149  13.927
73007W        W44733  16.730  38.178   2.919
73008W        W44734   1.998  39.221  12.449
73009W        W44735  15.259  16.509   2.148
73010W        W44736  22.336  31.646   0.492
73011W        W44737  24.113   4.468  11.574
73012W        W44738   2.738   8.456  12.013
73013W        W44739   2.007  34.001   1.776
73014W        W44740   8.820  40.947   3.886
73015W        W44741  11.169   0.799   4.283
73016W        W44742   4.500  14.556  13.463
73017W        W44743  12.177  21.197   4.626
73018W        W44744  41.981  16.635  13.491
73019W        W44745  23.773  24.574   1.179
73020W        W44746  43.882  16.783  13.374
73021W        W44747  42.781  23.916  13.652
73022W        W44748   2.744  32.396  11.657
73023W        W44749  20.124  28.023  13.586
73024W        W44750  18.076  38.665   3.065
73025W        W44751   5.700  40.980   0.968
73026W        W44752  43.709  35.467  11.207
73027W        W44753  30.762  33.832  14.956
73028W        W44754  22.157  16.842   0.736
73029W        W44755  23.745  16.821  13.965
73030W        W44756  40.569  31.116   4.617
73031W        W44757  40.282   0.814   4.657
73032W        W44758  13.162  19.376  11.180
73033W        W44759  34.742  33.491   1.263
73034W        W44760  36.979  34.183   1.784
73035W        W44761  42.759  25.965   0.729
73036W        W44762   3.727  41.012   2.117
73037W        W44763  39.295  42.318  13.991
73038W        W44764  31.451   3.245   4.613
73039W        W44765  19.657  20.231   3.413
73040W        W44766  36.919  44.476  14.834
73041W        W44767  39.885   4.504   3.742
73042W        W44768   4.453  28.415   2.595
73043W        W44769  23.584   0.227   5.045
73044W        W44770  42.541  26.831   1.304
73045W        W44771   1.889  40.548   2.310
73046W        W44772  11.494  23.463   3.594
73047W        W44773  35.988  22.595  14.564
73048W        W44774  42.351   0.425   0.331
73049W        W44775  40.197  31.911  14.017
73050W        W44776  17.359   4.014  12.500
73051W        W44777  29.925  40.853  13.547
73052W        W44778  25.150  10.929   0.947
73053W        W44779   2.694  25.619   3.188
73054W        W44780  41.829  31.669  14.461
73055W        W44781  39.918  39.531  12.912
73056W        W44782  43.510  40.855   0.399
73057W        W44783  30.358  27.977   1.396
73058W        W44784  38.578  17.561  13.082
73059W        W44785   3.841  33.603   3.683
73060W        W44786  23.436  11.696  14.250
73061W        W44787   2.484   1.527  12.381
73062W        W44788  14.276  43.204  14.901
73063W        W44789  38.443  15.697   1.382
73064W        W44790  37.815  34.439   0.838
73065W        W44791   6.176  12.139   3.664
73066W        W44792  20.344  39.519  12.931
73067W        W44793   6.032   5.982  14.494
73068W        W44794  33.461   8.318   2.328
73069W        W44795  21.604   7.469   0.288
73070W        W44796  35.151   6.299  11.055
73071W        W44797  15.426  30.013   4.077
73072W        W44798   8.690  33.432   4.658
73073W        W44799  11.391  43.811  10.640
73074W        W44800  12.176  25.873   0.268
73075W        W44801  43.203   0.354   1.433
73076W        W44802  37.759  24.749   0.889
73077W        W44803   9.057   2.238   5.078
73078W        W44804  24.223  23.725  11.098
73079W        W44805  14.209  43.961  11.456
73080W        W44806  35.192  39.489  13.955
73081W        W44807   1.698  43.883   3.938
73082W        W44808  25.125  30.683   2.386
73083W        W44809  24.730  25.243  13.142
73084W        W44810  12.926  14.280  14.240
73085W        W44811  17.793  17.613  14.441
73086W        W44812  23.994   2.490  11.619
73087W        W44813  38.121  36.606  12.489
73088W        W44814  29.037  38.047  14.301
73089W        W44815  22.097  44.861   0.586
73090W        W44816   3.213  22.483   4.511
73091W        W44817  15.199  22.753   3.196
73092W        W44818   7.874  34.111  13.056
73093W        W44819  10.038  30.473  14.926
73094W        W44820  35.881  31.538  14.487
73095W        W44821   0.992  43.422  11.997
73096W        W44822  24.566  35.072   4.951
73097W        W44823  36.630   7.235  11.723
73098W        W44824   9.176  28.438  10.726
73099W        W44825   9.476   3.780  14.280
73100W        W44826  18.808  11.892   0.390
73101W        W44827   6.659  32.058  10.231
73102W        W44828  21.957  15.638   2.465
73103W        W44829  43.024   9.963  14.469
73104W        W44830  25.123  17.836  12.508
73105W        W44831  12.550  44.373  11.201
73106W        W44832  32.651   1.916   0.278
73107W        W44833   8.447  35.535   4.134
73108W        W44834  13.033  26.173   4.536
73109W        W44835  36.946  11.772  13.048
73110W        W44836  44.511   3.414   2.367
73111W        W44837  11.054  42.908   4.323
73112W        W44838  33.462  29.359   1.802
73113W        W44839  28.476  40.975   0.264
73114W        W44840  12.821  34.562  13.972
73115W        W44841   4.400  14.570  11.908
73116W        W44842  10.356  16.872   0.754
73117W        W44843  35.456   4.348   2.690
73118W        W44844  24.228  20.779   4.868
73119W        W44845  42.307  36.516   4.254
73120W        W44846  43.908  32.962  13.486
73121W        W44847  10.928  39.687  13.997
73122W        W44848  20.270  20.113  12.095
73123W        W44849  44.471  28.576  12.689
73124W        W44850  30.486  29.981   1.315
73125W        W44851   1.421  10.779  14.730
73126W        W44852  28.883  11.160   1.265
73127W        W44853   9.821  31.340  12.803
73128W        W44854  44.458   5.941   1.936
73129W        W44855   3.662  12.269   4.579
73130W        W44856  41.053  31.312   3.747
73131W        W44857   5.901  40.905   4.142
73132W        W44858  10.406  36.905  11.454
73133W        W44859   6.334  39.023  10.199
73134W        W44860  22.100  20.266  11.020
73135W        W44861  39.631   9.303   2.753
73136W        W44862   3.413  18.241   4.821
73137W        W44863  13.811  23.224  13.942
73138W        W44864  25.501  31.604   2.965
73139W        W44865  14.273  21.364   5.049
73140W        W44866  22.210  11.894  13.898
73141W        W44867  42.120   7.866   3.656
73142W        W44868  38.513  43.815  10.567
73143W        W44869  24.215  42.402  11.736
73144W        W44870  32.564  38.834   0.818
73145W        W44871   4.843  43.403   1.327
73146W        W44872  40.806  33.516  13.570
73147W        W44873  27.656  29.526  13.747
73148W        W44874   1.846  16.342  11.527
73149W        W44875  30.477  36.003   3.751
73150W        W44876  32.140  39.171  12.923
73151W        W44877  38.521  38.518   4.844
73152W        W44878  12.052  36.538   3.208
73153W        W44879  30.483   6.486   2.316
73154W        W44880   9.165  35.556   0.741
73155W        W44881  37.395  16.120  12.988
73156W        W44882  42.483  42.507  12.055
73157W        W44883  37.123  25.982   2.735
73158W        W44884  16.342   5.899  10.913
73159W        W44885  33.863  14.104   0.742
73160W        W44886  14.573  24.682  14.991
73161W        W44887  40.301  11.677   3.205
73162W        W44888  43.985  24.968   4.044
73163W        W44889  17.266  38.072   4.567
73164W        W44890  27.745   5.413  10.507
73165W        W44891  10.111  24.474  13.332
73166W        W44892   2.176  42.068  13.401
73167W        W44893  32.431   6.257  11.517
73168W        W44894   3.789  16.953   1.474
73169W        W44895  19.077  26.162  11.212
73170W        W44896   7.758  14.184  10.547
73171W        W44897  37.559  27.887  12.842
73172W        W44898   1.935  19.286  11.668
73173W        W44899   1.250  39.819  11.994
73174W        W44900  42.857  12.178   0.675
73175W        W44901  12.436  14.241   2.147
73176W        W44902   3.916  23.217  12.173
73177W        W44903   8.735  32.355  11.331
73178W        W44904  10.242  12.201   4.541
73179W        W44905  12.308   6.973   1.851
73180W        W44906  10.797  29.758  12.093
73181W        W44907  24.865  29.874   3.120
73182W        W44908  12.973  41.679   1.831
73183W        W44909  12.606  34.866   1.454
73184W        W44910  25.191  17.754  11.187
73185W        W44911  29.708  29.409  10.666
73186W        W44912  15.342  24.131  14.846
73187W        W44913  33.967  15.656   3.688
73188W        W44914   7.135  42.359  12.715
73189W        W44915  17.458  19.660  14.845
73190W        W44916  12.884  35.113   4.931
73191W        W44917   6.222  38.019   1.359
73192W        W44918   8.090  19.517   1.949
73193W        W44919  29.200  22.768  12.419
73194W        W44920  38.360  37.192   3.660
73195W        W44921  14.578  11.212  13.985
73196W        W44922  33.591   4.911  12.214
73197W        W44923  37.055   3.315   0.942
73198W        W44924  14.020   7.864   3.647
73199W        W44925  31.967   5.209  10.636
73200W        W44926   5.014  33.718   5.049
73201W        W44927  19.055  20.000   0.396
73202W        W44928   9.387  24.796  14.016
73203W        W44929  10.091  25.166   0.914
73204W        W44930  30.956  19.519   0.735
73205W        W44931  30.471   9.018   4.311
73206W        W44932  44.422  27.152   0.789
73207W        W44933  22.300  17.364  14.003
73208W        W44934  17.753  32.813   4.318
73209W        W44935  12.447  43.078  10.468
73210W        W44936  21.704  44.130   4.022
73211W        W44937  25.261   2.408  12.133
73212W        W44938  33.669  17.726   4.604
73213W        W44939  41.908  40.984  13.405
73214W        W44940  18.372  38.179  12.866
73215W        W44941  17.744  26.586  11.615
73216W        W44942  27.462  20.579   2.959
73217W        W44943  29.402   8.173  14.277
73218W        W44944  40.183  39.833   1.767
73219W        W44945  37.592  17.354  14.901
73220W        W44946  29.063   0.292  11.205
73221W        W44947  25.567  29.242   0.706
73222W        W44948  20.656   9.316   0.331
73223W        W44949  21.098  29.703   2.777
73224W        W44950  39.394  38.578   0.232
73225W        W44951  17.326  31.574   0.001
73226W        W44952  14.209   1.396  11.348
73227W        W44953   7.914  10.876  12.283
73228W        W44954  41.103  36.412   3.734
73229W        W44955   2.656  35.367   2.897
73230W        W44956  16.950  36.280   0.369
73231W        W44957  29.503  23.874   5.060
73232W        W44958  29.622  17.945  11.667
73233W        W44959  15.705  38.136  11.112
73234W        W44960   8.187   6.912   1.871
73235W        W44961  40.021   5.565   1.461
73236W        W44962  34.105  34.328  14.551
73237W        W44963  31.818   1.646   1.321
73238W        W44964  37.513  32.012  10.773
73239W        W44965  42.232   5.037   2.915
73240W        W44966  24.048  29.057   3.438
73241W        W44967  22.054  29.558   3.210
73242W        W44968  20.533   6.817  13.916
73243W        W44969  13.752  34.705  14.530
73244W        W44970  17.782  13.893   0.278
73245W        W44971  41.384  43.769  14.655
73246W        W44972  36.981  21.756  13.561
73247W        W44973  26.436  37.111   0.454
73248W        W44974   9.915   8.204  10.676
73249W        W44975  23.035  12.901  11.901
73250W        W44976  29.098  20.572  10.690
73251W        W44977  40.473   1.359  12.173
73252W        W44978   8.336   2.476  14.508
73253W        W44979  30.394  18.116  14.892
73254W        W44980   3.778  27.919   1.293
73255W        W44981   0.249  38.553  14.826
73256W        W44982  36.464   8.364   2.849
73257W        W44983  14.272  31.632  12.142
73258W        W44984  40.343  28.129   0.641
73259W        W44985   8.828  12.124  10.615
73260W        W44986   9.249  43.832   3.276
73261W        W44987  31.117  31.134  10.769
73262W        W44988  43.068  20.031   0.705
73263W        W44989  32.466  40.560  12.081
73264W        W44990  21.572  43.430  12.833
73265W        W44991  33.234  19.348  11.520
73266W        W44992  38.727  37.375   4.056
73267W        W44993  35.374  36.751  14.251
73268W        W44994  23.627  33.897   0.509
73269W        W44995  32.972   3.794  12.097
73270W        W44996  18.794  21.998   1.921
73271W        W44997  10.068   1.260   0.068
73272W        W44998   6.180  26.524  11.423
73273W        W44999  43.086  11.063  10.092
73274W        W45000  12.737  33.664   3.589
73275W        W45001  42.811  10.757  13.369
73276W        W45002   5.420  40.827   2.247
73277W        W45003  37.778  37.464  14.158
73278W        W45004  14.997  30.242  13.573
73279W        W45005  21.242  41.825  14.841
73280W        W45006  44.817  40.379  13.870
73281W        W45007   4.952  41.592  11.483
73282W        W45008  12.661  30.928   4.395
73283W        W45009   8.386  43.909   1.796
73284W        W45010   0.372  29.623   4.409
73285W        W45011  31.400  21.254   2.353
73286W        W45012   2.849   2.873   1.753
73287W        W45013  32.998   0.428  11.310
73288W        W45014  37.938  14.185   4.174
73289W        W45015  41.291   6.364   4.697
73290W        W45016  28.425   9.818  13.825
73291W        W45017  15.757  33.992  14.412
73292W        W45018  19.064   3.193  13.932
73293W        W45019  22.603  15.311  13.906
73294W        W45020  35.025  37.011  13.776
73295W        W45021  43.779  36.982  14.313
73296W        W45022  28.649  15.072  13.395
73297W        W45023  38.087  26.594   0.491
73298W        W45024  27.167  25.640   2.368
73299W        W45025  32.043  40.994   0.280
73300W        W45026  42.255   0.995   4.605
73301W        W45027  13.314   5.934  14.776
73302W        W45028   5.265  27.793  14.763
73303W        W45029  23.744  23.179  10.732
73304W        W45030  25.595  25.155   3.729
73305W        W45031  22.613  17.255  12.356
73306W        W45032   1.712  35.327   4.545
73307W        W45033   7.985  10.305   3.981
73308W        W45034  41.810  19.825  11.223
73309W        W45035  14.698  17.490  10.469
73310W        W45036  38.531  29.962   3.038
73311W        W45037   3.241  28.239  12.392
73312W        W45038  28.378  38.997  12.529
73313W        W45039   0.723  22.805  13.068
73314W        W45040  36.972  17.402   3.283
73315W        W45041   6.365  14.610   2.530
73316W        W45042  38.551   4.728   1.962
73317W        W45043  16.069   2.509   4.840
73318W        W45044   9.007  18.222  13.010
73319W        W45045   7.899  44.046  12.955
73320W        W45046  12.302  21.731   4.658
73321W        W45047  32.874  32.224  11.147
73322W        W45048  17.942  41.728  10.910
73323W        W45049  14.279  11.876  13.862
73324W        W45050  10.606  31.399   0.913
73325W        W45051  33.912  27.391  11.165
73326W        W45052   5.228   3.469   4.086
73327W        W45053  42.403  20.889   5.003
73328W        W45054  33.822  37.858   4.228
73329W        W45055   0.746  24.876   2.726
73330W        W45056  18.552  13.873   4.699
73331W        W45057  18.783   3.422   0.803
73332W        W45058  26.110  19.114   2.203
73333W        W45059  37.313  43.427   0.465
73334W        W45060   0.504  30.478   2.426
73335W        W45061   7.136  37.751   1.866
73336W        W45062  41.125  37.596   1.839
73337W        W45063  43.061   3.821  13.255
73338W        W45064  22.410  36.404  11.723
73339W        W45065   9.819  33.923   3.651
73340W        W45066  37.549   8.405   2.011
73341W        W45067  34.496  24.216  12.882
73342W        W45068  38.873   4.262  12.431
73343W        W45069  42.453  37.492  10.637
73344W        W45070  11.560  14.344   4.622
73345W        W45071  12.813  26.639  13.705
73346W        W45072  34.480   6.648  11.956
73347W        W45073  22.481  30.006  13.521
73348W        W45074  25.138   9.796   4.263
73349W        W45075  13.810  12.337  11.590
73350W        W45076  18.579  27.570  13.844
73351W        W45077   2.342   5.916  11.492
73352W        W45078   5.353  28.190   4.137
73353W        W45079  39.990   0.281   0.417
73354W        W45080  36.614  22.996  11.597
73355W        W45081   4.717  32.334   1.327
73356W        W45082   2.253   1.215  11.970
73357W        W45083   5.709  27.296   2.849
73358W        W45084  40.793  28.387  11.272
73359W        W45085  26.546  36.376   4.374
73360W        W45086   2.763  40.779  14.420
73361W        W45087  16.869  43.744  13.515
73362W        W45088  26.409  42.318   3.375
73363W        W45089  19.612  19.017   0.887
73364W        W45090   7.594   9.302  11.607
73365W        W45091  39.585  22.282   2.773
73366W        W45092   9.812  33.460  14.004
73367W        W45093  20.310  22.340  14.257
73368W        W45094  43.508  38.024   3.004
73369W        W45095  20.175  28.243  10.990
73370W        W45096  17.109   7.706   3.314
73371W        W45097   5.841  34.578  14.943
73372W        W45098  40.512  25.559   0.394
73373W        W45099  44.686   8.464   1.283
73374W        W45100  44.053  24.749   0.592
73375W        W45101  14.267  15.849  14.264
73376W        W45102  36.465   0.486   0.959
73377W        W45103  10.107   1.844   0.852
73378W        W45104  44.491  42.508   2.590
73379W        W45105  18.216  26.711   1.458
73380W        W45106  26.159  34.993  10.939
73381W        W45107  42.551  10.376   0.995
73382W        W45108  22.200  24.433   1.345
73383W        W45109  23.475  31.820   2.267
73384W        W45110  38.687  25.379   4.995
73385W        W45111  36.140  20.532  14.357
73386W        W45112   9.028  41.446   3.700
73387W        W45113  22.437  36.570   4.978
73388W        W45114   7.621   3.786   0.934
73389W        W45115   5.367  16.789  10.674
73390W        W45116   3.659  14.687   1.196
73391W        W45117  33.163   1.834   0.250
73392W        W45118   0.715  22.871   4.473
73393W        W45119  19.025  22.963   2.170
73394W        W45120   5.651  14.282  14.058
73395W        W45121  43.274  37.855   4.855
73396W        W45122  44.452  11.813  11.570
73397W        W45123  36.369  16.761   1.784
73398W        W45124   4.274  37.456  12.374
73399W        W45125  31.030   1.502   2.354
73400W        W45126  14.898  44.780  12.911
73401W        W45127  43.887  42.440   1.241
73402W        W45128  33.603  15.892   5.316
73403W        W45129   2.388  16.641  13.469
73404W        W45130  19.969  35.337   2.765
73405W        W45131   2.846  42.848   4.152
73406W        W45132  33.692  19.958   1.722
73407W        W45133  19.176  20.250   3.624
73408W        W45134  30.911  22.827  13.063
73409W        W45135  15.506  24.158  13.514
73410W        W45136  39.381  11.992   3.367
73411W        W45137  27.584   1.476   0.322
73412W        W45138  23.669  14.663  13.314
73413W        W45139   7.271   4.321   3.330
73414W        W45140  28.578   5.848  10.804
73415W        W45141  36.513  12.000   2.665
73416W        W45142   4.151  24.676   4.057
73417W        W45143  14.832  34.884   2.017
73418W        W45144  19.641  22.500  11.704
73419W        W45145  33.375  13.614  13.348
73420W        W45146  31.961  26.703  14.046
73421W        W45147  43.026  30.751   3.883
73422W        W45148  33.959  33.318  11.912
73423W        W45149  41.318  23.946   1.268
73424W        W45150  13.032   4.653   0.153
73425W        W45151  30.108   4.014  10.920
73426W        W45152  42.084  24.567   4.637
73427W        W45153   3.913   9.171  14.947
73428W        W45154  38.493  28.208   3.097
73429W        W45155  27.957  41.263   0.456
73430W        W45156  21.530  11.944  11.753
73431W        W45157  43.576  10.318  12.143
73432W        W45158   0.231  38.926  10.364
73433W        W45159   9.709  15.945  14.049
73434W        W45160  36.408  39.589   4.339
73435W        W45161  20.570   7.796  10.569
73436W        W45162  26.530  10.181   4.544
73437W        W45163  28.720  18.851  11.419
73438W        W45164  13.146  32.996  10.734
73439W        W45165  41.770  44.684  14.352
73440W        W45166  17.987  17.577   1.093
73441W        W45167   3.874   4.340   2.377
73442W        W45168  24.320  44.556   2.356
73443W        W45169  40.393   6.910   2.891
73444W        W45170  23.652   9.610  10.993
73445W        W45171   4.481   8.750  13.179
73446W        W45172  29.936  43.981   4.320
73447W        W45173  43.424  27.743  12.313
73448W        W45174  40.603  26.499  13.726
73449W        W45175  40.834  40.634   4.577
73450W        W45176  43.301  25.977  11.484
73451W        W45177  17.176  40.844  12.078
73452W        W45178  17.808  22.672  13.444
73453W        W45179  25.352  38.953   0.054
73454W        W45180  34.763  21.060   2.684
73455W        W45181   1.716  19.676   0.382
73456W        W45182  26.445  14.164   1.898
73457W        W45183  13.855  42.117   0.820
73458W        W45184  30.887  22.091  13.527
73459W        W45185   3.493  36.966  11.171
73460W        W45186  23.042  16.425  10.955
73461W        W45187   7.160  26.090   3.398
73462W        W45188  16.227   1.426  11.623
73463W        W45189   4.785  14.831   4.534
73464W        W45190  19.588  20.994   2.228
73465W        W45191  23.689  22.946   1.359
73466W        W45192  38.140  25.005  13.217
73467W        W45193  22.193  22.614   4.641
73468W        W45194  18.853  19.486  12.890
73469W        W45195  25.944  20.070   1.906
73470W        W45196  21.709  20.270   1.798
73471W        W45197  33.922  39.895   1.824
73472W        W45198   5.158  16.701   4.981
73473W        W45199  27.798  36.060  12.892
73474W        W45200   1.384  38.063  10.663
73475W        W45201   6.865  43.089   3.121
73476W        W45202  15.584  22.661  11.489
73477W        W45203   9.792  35.109   2.335
73478W        W45204  24.097  44.841  10.202
73479W        W45205  32.138  14.844   1.905
73480W        W45206   5.445  31.401   3.308
73481W        W45207   6.321  34.000   4.699
73482W        W45208  19.991  30.978  14.058
73483W        W45209  25.425  40.887   3.090
73484W        W45210  35.376   0.704  12.603
73485W        W45211  30.499  27.950  12.476
73486W        W45212   7.319   6.581  14.090
73487W        W45213   7.424  33.877   3.792
73488W        W45214  11.896   4.894   3.075
73489W        W45215  42.857   3.024  12.879
73490W        W45216   0.317  17.671  14.034
73491W        W45217  10.686  28.978  12.484
73492W        W45218  30.861  23.810  10.195
73493W        W45219  42.539  27.564   1.392
73494W        W45220  36.321  35.960  13.526
73495W        W45221   0.229  32.394   3.632
73496W        W45222   0.281  11.216   0.901
73497W        W45223  37.394   1.078   2.857
73498W        W45224  16.758  20.701  13.013
73499W        W45225  37.404  41.735  10.711
73500W        W45226  13.147  34.173  13.223
73501W        W45227  14.230  27.207  13.448
73502W        W45228  15.208  17.232   3.075
73503W        W45229  20.112  11.039  11.270
73504W        W45230  10.181  23.625   0.367
73505W        W45231  31.483  34.592  10.478
73506W        W45232  33.127   6.330   0.674
73507W        W45233  26.972   2.040  11.022
73508W        W45234  38.620   1.722  13.368
73509W        W45235  29.912   2.140   3.573
73510W        W45236  34.728  43.361  14.922
73511W        W45237  13.388  27.684  13.580
73512W        W45238  33.683  37.845  14.825
73513W        W45239  24.442   7.671  12.707
73514W        W45240  23.033  14.466   2.237
73515W        W45241  27.644  27.442   3.872
73516W        W45242   8.383  31.553   1.984
73517W        W45243  32.789  16.369   1.725
73518W        W45244  34.287  30.792  10.726
73519W        W45245   8.234  19.283  12.842
73520W        W45246   6.377  29.404  12.435
73521W        W45247  40.517  26.960   4.377
73522W        W45248  18.581   4.499   4.529
73523W        W45249  23.571  28.066  11.128
73524W        W45250   0.037   2.864   1.841
73525W        W45251  12.708  12.109   2.811
73526W        W45252  39.867   4.231   4.235
73527W        W45253  21.018   7.939  12.458
73528W        W45254  19.123  28.261  12.989
73529W        W45255  39.872  40.023  13.604
73530W        W45256  28.256  29.632   1.845
73531W        W45257  17.211  43.363   1.538
73532W        W45258   8.492   9.871   2.093
73533W        W45259  11.629   8.381   2.523
73534W        W45260  34.911   1.967   5.141
73535W        W45261  43.836  37.289   4.304
73536W        W45262  32.125  29.647   3.680
73537W        W45263  10.751   2.929   0.525
73538W        W45264  35.519  30.236  13.853
73539W        W45265  10.380  23.043   3.274
73540W        W45266  42.591  44.959  14.019
73541W        W45267  40.419  15.129   2.368
73542W        W45268  36.205  42.750  10.589
73543W        W45269  28.102  30.771   0.906
73544W        W45270  35.508   1.728  12.534
73545W        W45271   0.748  20.803   0.683
73546W        W45272   9.680   1.548   0.781
73547W        W45273  15.662   0.546  12.504
73548W        W45274  40.433  10.210  11.115
73549W        W45275  14.759   1.783   5.104
73550W        W45276  15.712   0.759  10.733
73551W        W45277   9.541  12.682   1.278
73552W        W45278  32.493  12.647  14.995
73553W        W45279  40.471   9.130   2.299
73554W        W45280  30.100   5.760  13.865
73555W        W45281   4.629  29.479  13.890
73556W        W45282   7.798   9.585  12.008
73557W        W45283  32.946  37.456   1.452
73558W        W45284  15.766  37.635  14.472
73559W        W45285  32.670  28.088  10.690
73560W        W45286  40.103  12.333  11.383
73561W        W45287   0.511  33.633   0.243
73562W        W45288  40.483  24.577  11.531
73563W        W45289  14.375  40.718   1.824
73564W        W45290  38.209   9.293  14.475
73565W        W45291  33.419  27.507  13.866
73566W        W45292  33.719  23.979   4.657
73567W        W45293   0.130  20.686   1.958
73568W        W45294  38.072   3.241  13.420
73569W        W45295  11.887   3.462  14.506
73570W        W45296  33.031  16.578  14.607
73571W        W45297  37.909  36.558  12.008
73572W        W45298  25.227  36.991   4.788
73573W        W45299  22.234  44.786  14.465
73574W        W45300   5.615   0.118  11.660
73575W        W45301  12.496  15.207  13.506
73576W        W45302  38.756   3.307  13.852
73577W        W45303   4.308  36.797  13.629
73578W        W45304  18.595  11.862   2.197
73579W        W45305  16.836  40.369  13.502
73580W        W45306   2.450  39.615   2.012
73581W        W45307   7.274  21.648   4.770
73582W        W45308  40.475  40.086   4.097
73583W        W45309   4.288  22.804   2.389
73584W        W45310  25.888  43.283  11.502
73585W        W45311   3.948  11.893  10.582
73586W        W45312  35.404  36.160  10.687
73587W        W45313  35.181  28.193   1.362
73588W        W45314  41.400  12.786  14.746
73589W        W45315  32.637  32.954  14.155
73590W        W45316   0.658   3.556   0.493
73591W        W45317  27.909  10.675   0.296
73592W        W45318  31.217  29.210  14.442
73593W        W45319  40.536  18.145   5.058
73594W        W45320  31.077  27.896  10.639
73595W        W45321   1.050  25.496  11.566
73596W        W45322  28.491  16.566   3.325
73597W        W45323  25.272  42.310   1.971
73598W        W45324   3.211   3.375  12.276
73599W        W45325  34.082  30.539  11.125
73600W        W45326  31.325  20.199   3.468
73601W        W45327  31.916  21.664   2.029
73602W        W45328  28.179   7.419   3.165
73603W        W45329   4.786  39.390   3.526
73604W        W45330   1.381  19.494   4.421
73605W        W45331   3.691  44.448  10.409
73606W        W45332  21.491  40.411  10.698
73607W        W45333  35.330  17.263   1.258
73608W        W45334  31.681  16.717  11.965
73609W        W45335  40.945  13.736   0.681
73610W        W45336  22.212  30.674   2.254
73611W        W45337  14.272  25.054  13.776
73612W        W45338  19.810   1.299  14.473
73613W        W45339   9.467  42.758   1.471
73614W        W45340  25.936  31.128   3.761
73615W        W45341  12.295   9.235   3.640
73616W        W45342  28.969  40.084   4.376
73617W        W45343   5.899  22.989  11.559
73618W        W45344  41.721  26.705  14.476
73619W        W45345   3.336  19.828  11.484
73620W        W45346   1.764  40.021  14.045
73621W        W45347  40.506  14.784  14.265
73622W        W45348   7.918   4.427  13.212
73623W        W45349   0.845  10.885  11.570
73624W        W45350  29.808  24.732  10.227
73625W        W45351  44.299   6.605   3.240
73626W        W45352   0.022   6.674   2.072
73627W        W45353  33.936  36.059  11.489
73628W        W45354  31.433  21.636   4.586
73629W        W45355   7.403  36.929   4.620
73630W        W45356  19.285  10.327   2.765
73631W        W45357  17.140  35.154  10.756
73632W        W45358  19.950  32.950   2.418
73633W        W45359  33.650  18.990   1.103
73634W        W45360  44.770  18.293  12.091
73635W        W45361  26.465  33.633   0.162
73636W        W45362  14.073  10.975  11.475
73637W        W45363  41.551  12.861  10.902
73638W        W45364  42.057  26.145   3.172
73639W        W45365  36.811  35.376   4.043
73640W        W45366   9.940  20.137  14.481
73641W        W45367  26.993   4.430   3.324
73642W        W45368   0.951   7.150   1.657
73643W        W45369  28.060  12.309  10.440
73644W        W45370  34.950  28.704   2.677
73645W        W45371  38.034  29.959   2.907
73646W        W45372  44.430  20.244   0.301
73647W        W45373  35.633  37.473  10.536
73648W        W45374  14.640  18.083   3.710
73649W        W45375  25.491  32.488  11.586
73650W        W45376  29.593  19.018  12.404
73651W        W45377  39.174   8.083  13.011
73652W        W45378  30.682  20.120  10.681
73653W        W45379  33.715  30.731   1.316
73654W        W45380   8.587  11.577   3.381
73655W        W45381   1.742   6.674  10.765
73656W        W45382  38.288  34.369  12.124
73657W        W45383  13.360  34.623   4.228
73658W        W45384  42.392  28.161   2.823
73659W        W45385  16.151  10.729  12.364
73660W        W45386   2.030  14.864   0.437
73661W        W45387  39.392   3.794  11.594
73662W        W45388   3.325  39.408  12.514
73663W        W45389  28.619   8.768   0.081
73664W        W45390  29.971  20.574   2.331
73665W        W45391   1.806  39.328   1.739
73666W        W45392  31.556   3.868   3.142
73667W        W45393  23.106   8.968  13.479
73668W        W45394  14.687  29.493   2.439
73669W        W45395  42.950  30.142   4.602
73670W        W45396  30.905  14.820   0.107
73671W        W45397  18.097  15.955   0.306
73672W        W45398  27.589  41.460   2.204
73673W        W45399   8.676  28.296  14.735
73674W        W45400   6.474  26.934  11.573
73675W        W45401  16.997  10.019  12.859
73676W        W45402   5.249   8.311   4.600
73677W        W45403  26.683   7.923  14.846
73678W        W45404  11.680   6.340   1.222
73679W        W45405  10.459   2.547  12.191
73680W        W45406   3.838  44.886  11.172
73681W        W45407   3.288  31.217   1.750
73682W        W45408  10.142  28.217  12.052
73683W        W45409  20.723  33.035   0.856
73684W        W45410  37.282  35.011  11.196
73685W        W45411  13.744  23.643   3.668
73686W        W45412   4.370  19.282  12.326
73687W        W45413  25.618  32.858  12.537
73688W        W45414  38.313  31.580  10.764
73689W        W45415   7.707  40.908  12.939
73690W        W45416   7.736  44.041   3.676
73691W        W45417  43.567  22.071   3.782
73692W        W45418  36.131  13.827  12.470
73693W        W45419  26.912  43.460   3.077
73694W        W45420  25.614  40.207   1.774
73695W        W45421  15.818   9.606  13.520
73696W        W45422   6.869  40.981   0.609
73697W        W45423   3.179  14.302  14.820
73698W        W45424  29.758  35.624  14.225
73699W        W45425  22.114  38.961   0.930
73700W        W45426   6.212  24.395   3.245
73701W        W45427  24.563  13.733  14.917
73702W        W45428  15.601  23.227   2.821
73703W        W45429  30.992  23.156  13.677
73704W        W45430  30.076  21.351  14.033
73705W        W45431   0.371  18.271  12.773
73706W        W45432  33.497   8.323   0.716
73707W        W45433  33.345  36.946   3.471
73708W        W45434  16.954  44.963  14.396
73709W        W45435  43.616  42.319  10.962
73710W        W45436  31.873   5.958   1.880
73711W        W45437   3.277  19.138   2.665
73712W        W45438   7.805  23.999   1.027
73713W        W45439   6.800   4.230   3.109
73714W        W45440  25.554  28.422   4.560
73715W        W45441   1.722  18.247   3.088
73716W        W45442   0.004  43.811  14.462
73717W        W45443  28.128  33.191  14.920
73718W        W45444  44.118  44.965  12.547
73719W        W45445  33.183   4.771   0.353
73720W        W45446  43.086   0.264  10.324
73721W        W45447  14.644   8.359  10.759
73722W        W45448  40.312  28.548  11.178
73723W        W45449  34.480   6.659  13.276
73724W        W45450  18.217  27.786  11.026
73725W        W45451  29.416   5.180   1.256
73726W        W45452  35.042  35.674   0.761
73727W        W45453   2.215  25.177   1.510
73728W        W45454  22.771  32.626  13.450
73729W        W45455  19.143   0.516   4.876
73730W        W45456  11.189  16.771   1.123
73731W        W45457  14.061   3.816  12.679
73732W        W45458  31.515  28.314   1.879
73733W        W45459   2.320  44.549  14.414
73734W        W45460  23.374  10.252  14.352
73735W        W45461  14.876  44.003   3.783
73736W        W45462  18.730  38.695   0.957
73737W        W45463  20.521  40.558   3.226
73738W        W45464  30.797  15.629  13.956
73739W        W45465  25.259   2.547  10.637
73740W        W45466  28.551  22.069   4.759
73741W        W45467  28.639  19.784   2.331
73742W        W45468  27.826  13.159  14.779
73743W        W45469  40.544  33.155  13.315
73744W        W45470  42.886  35.349   0.963
73745W        W45471   1.496  33.441  11.506
73746W        W45472  22.284  23.317  12.593
73747W        W45473  40.992  16.281   1.001
73748W        W45474  14.100   3.147   1.904
73749W        W45475   8.790   5.666   0.747
73750W        W45476  22.827  31.906  11.938
73751W        W45477   1.991  22.012   4.696
73752W        W45478   6.997  40.503   3.628
73753W        W45479  25.616   0.901   2.428
73754W        W45480  15.714  31.112  13.823
73755W        W45481  36.379  37.023   3.182
73756W        W45482  15.721  12.824   0.991
73757W        W45483   2.920  20.255  14.451
73758W        W45484  20.951  25.585   2.195
73759W        W45485   5.319   1.546   0.596
73760W        W45486  10.724  14.144   1.240
73761W        W45487  26.459  25.499   0.815
73762W        W45488   8.063  12.328   0.833
73763W        W45489  33.896  44.930   4.377
73764W        W45490  10.063   4.239   3.342
73765W        W45491   2.194  44.349   2.326
73766W        W45492  41.404  20.172  13.443
73767W        W45493  33.478  39.517  13.092
73768W        W45494  18.773  32.356  14.790
73769W        W45495  43.032  25.452   4.349
73770W        W45496   0.007  19.630   0.032
73771W        W45497  38.946  16.757   0.756
73772W        W45498  24.060  18.734   0.878
73773W        W45499  32.538   5.164   4.068
73774W        W45500  14.753  27.812  10.186
73775W        W45501  20.992   6.663   0.664
73776W        W45502  17.111  40.088  13.832
73777W        W45503  14.349   3.354   4.596
73778W        W45504  17.035   5.709  13.916
73779W        W45505  28.141  13.218   3.459
73780W        W45506  42.364  16.738   4.057
73781W        W45507  19.982  40.817  14.416
73782W        W45508  30.218  18.882   1.523
73783W        W45509  37.788  32.389  11.099
73784W        W45510  27.927  10.744  11.092
73785W        W45511  43.022   5.253   0.783
73786W        W45512  24.739  23.647   1.781
73787W        W45513   0.929  27.439   0.034
73788W        W45514  42.440  16.620   3.553
73789W        W45515  17.349  27.639   2.874
73790W        W45516  18.171  44.955   1.985
73791W        W45517  42.357  27.643   2.909
73792W        W45518  37.362   9.793  14.053
73793W        W45519  16.314  31.909  13.182
73794W        W45520  10.117  36.671  10.287
73795W        W45521   9.116   1.512   4.540
73796W        W45522  32.530  38.437   4.544
73797W        W45523  21.621   2.317  13.857
73798W        W45524   1.998  35.472   0.910
73799W        W45525  11.160  34.568   0.832
73800W        W45526   0.520  30.228  11.147
73801W        W45527  12.336  21.578  13.572
73802W        W45528   1.417  18.148   3.637
73803W        W45529  21.208  43.237  14.052
73804W        W45530   3.540  38.263  11.602
73805W        W45531   4.435   6.281   0.352
73806W        W45532  36.367  28.647  12.485
73807W        W45533  43.325  12.806  12.580
73808W        W45534   9.905  33.991  14.088
73809W        W45535   6.617  15.043   5.449
73810W        W45536  42.929  12.220   2.631
73811W        W45537  32.095  13.226  12.798
73812W        W45538   9.708  40.717   2.980
73813W        W45539   8.354  36.292   1.294
73814W        W45540  22.835  35.645   3.031
73815W        W45541   2.339   7.677  14.996
73816W        W45542  15.575  19.168  13.354
73817W        W45543   1.938  32.028   0.159
73818W        W45544  20.116   0.809  13.384
73819W        W45545  37.718  16.101  11.607
73820W        W45546  24.595   6.274   3.616
73821W        W45547   9.383  43.494  11.153
73822W        W45548  43.709  34.056  11.538
73823W        W45549  16.178  21.587  11.046
73824W        W45550  35.110  33.466  11.642
73825W        W45551  22.246   9.726  11.948
73826W        W45552  20.066   9.385  14.513
73827W        W45553  37.075   5.374   1.323
73828W        W45554  14.188  13.150   1.830
73829W        W45555  36.415  30.012   2.624
73830W        W45556  11.820  35.046   3.027
73831W        W45557  25.105  33.021   1.143
73832W        W45558  26.116   2.130  11.551
73833W        W45559  16.478   3.828   2.080
73834W        W45560  10.982  40.546   3.804
73835W        W45561   3.172  36.604   2.192
73836W        W45562  41.006  11.149   3.554
73837W        W45563  23.899  12.058   0.004
73838W        W45564  44.516   4.811   3.258
73839W        W45565  27.035  10.869  13.554
73840W        W45566   1.849  44.795  12.812
73841W        W45567  16.828  21.066  13.932
73842W        W45568  44.489  32.291  12.650
73843W        W45569   9.115   0.051   2.762
73844W        W45570  33.680  36.940   0.929
73845W        W45571   9.851  11.346   4.546
73846W        W45572   4.114  41.480  12.637
73847W        W45573  20.267  32.811   1.699
73848W        W45574  31.000  16.470   4.563
73849W        W45575  24.426  36.374   4.394
73850W        W45576  20.688  32.012  14.033
73851W        W45577  28.170  26.207   1.658
73852W        W45578  37.135   2.849  12.870
73853W        W45579  43.771  44.512   1.217
73854W        W45580  42.797   1.536   2.594
73855W        W45581  19.598  27.947   3.074
73856W        W45582  11.674  33.369   2.323
73857W        W45583  18.702  20.560   4.627
73858W        W45584   3.296  35.387  12.590
73859W        W45585  32.845  34.525  11.219
73860W        W45586  12.150  38.186  14.480
73861W        W45587   5.246  20.703   4.691
73862W        W45588  14.787   4.808  10.628
73863W        W45589   6.250  11.097   5.017
73864W        W45590  16.128   2.951   3.503
73865W        W45591   9.060  37.890  11.959
73866W        W45592  33.197  22.011   1.819
73867W        W45593  23.988   1.300  12.000
73868W        W45594  17.158  38.967   2.125
73869W        W45595   6.714   1.947   3.841
73870W        W45596  18.090  24.210  12.016
73871W        W45597  11.028  23.280   3.624
73872W        W45598  43.803  39.811  14.689
73873W        W45599  37.873  30.136  10.684
73874W        W45600  35.119   6.505   4.589
73875W        W45601  16.717   1.558   1.824
73876W        W45602   3.721  41.000  12.019
73877W        W45603  34.889  28.926   0.501
73878W        W45604  32.843   8.810  12.883
73879W        W45605   6.140  39.000   3.838
73880W        W45606  33.097  19.979  12.139
73881W        W45607  29.046  21.769   0.332
73882W        W45608  14.694  21.267  13.976
73883W        W45609  10.799  44.496  13.019
73884W        W45610  41.532  36.470  11.315
73885W        W45611  11.127   0.497  13.608
73886W        W45612  14.990  27.005   4.513
73887W        W45613  20.781  32.336   0.397
73888W        W45614  13.091  18.123  14.925
73889W        W45615  17.768  20.716   0.478
73890W        W45616  25.309   8.807  13.312
73891W        W45617  21.230  43.092  14.585
73892W        W45618  18.239  34.402  10.872
73893W        W45619  26.263   8.461  11.580
73894W        W45620  35.954   5.082  14.421
73895W        W45621  23.166  11.130  13.372
73896W        W45622   2.859  11.206  14.938
73897W        W45623  41.552  17.531  13.330
73898W        W45624  12.787  43.122  10.847
73899W        W45625  26.150  22.552   0.844
73900W        W45626  36.637  44.457   4.011
73901W        W45627  29.963  13.266   1.402
73902W        W45628  26.662  25.832  13.576
73903W        W45629   6.395  37.391   2.237
73904W        W45630  36.863  39.034   1.417
73905W        W45631  19.108   2.257   3.803
73906W        W45632  33.662  24.823   4.098
73907W        W45633   0.470  22.673   4.905
73908W        W45634  43.988  38.494  14.310
73909W        W45635  41.114  39.045  14.869
73910W        W45636  16.115  41.786  13.458
73911W        W45637  37.011  33.485   3.276
73912W        W45638   8.245  39.189   3.635
73913W        W45639  32.834  40.036  14.255
73914W        W45640   2.231   7.580  11.985
73915W        W45641  22.249  13.306  13.872
73916W        W45642  16.512  16.560  11.934
73917W        W45643  43.758  22.086  14.953
73918W        W45644   2.280  36.901   1.338
73919W        W45645  34.981  33.857  14.434
73920W        W45646  23.541   3.421   2.904
73921W        W45647   1.541  44.417   3.732
73922W        W45648  30.907  42.093  12.623
73923W        W45649   7.178  19.020   1.826
73924W        W45650  36.658  26.910  10.411
73925W        W45651   3.969  32.211   4.947
73926W        W45652  41.091  11.350  13.826
73927W        W45653  27.001  23.943  12.489
73928W        W45654  17.410  23.152  14.452
73929W        W45655   2.455  44.826   4.859
73930W        W45656  14.770  22.079  14.564
73931W        W45657  34.607  10.295   3.356
73932W        W45658  42.549  35.409  10.634
73933W        W45659   0.749  42.268  12.580
73934W        W45660   1.385  10.676   2.685
73935W        W45661  19.311  14.655   0.483
73936W        W45662  37.367  35.930   3.281
73937W        W45663  32.123  40.987   2.695
73938W        W45664   4.671  41.467   4.626
73939W        W45665  12.103  37.637  11.096
73940W        W45666  30.836   1.122  11.447
73941W        W45667   0.943  17.580   3.249
73942W        W45668  11.631   7.011  10.035
73943W        W45669  16.731   5.750  11.671
73944W        W45670   6.096  23.751   4.624
73945W        W45671  38.367   8.634  12.840
73946W        W45672  24.260  25.077  13.038
73947W        W45673  37.088  42.688   4.555
73948W        W45674  16.861   1.187  11.531
73949W        W45675  34.975   6.201   0.047
73950W        W45676  34.155  35.986   0.085
73951W        W45677  37.967  23.154  12.883
73952W        W45678  22.193  29.016  11.901
73953W        W45679  11.249   9.803  14.292
73954W        W45680  41.980   5.176   4.503
73955W        W45681   2.308   3.174  13.010
73956W        W45682  33.115  18.257   3.847
73957W        W45683   6.025   3.409  14.909
73958W        W45684   5.406  43.350   0.052
73959W        W45685   3.487  21.041   4.608
73960W        W45686  19.826  20.135  11.032
73961W        W45687  32.013  25.822   3.234
73962W        W45688  29.663  30.568   1.136
73963W        W45689   7.677  30.566   5.294
73964W        W45690   3.891  39.758  11.039
73965W        W45691  44.450  44.855  14.454
73966W        W45692   9.408  25.617  13.287
73967W        W45693  41.468  13.612  11.676
73968W        W45694   7.384  21.199   2.330
73969W        W45695   9.977  28.832   0.288
73970W        W45696  23.490  26.694  14.890
73971W        W45697   1.075  28.228  11.178
73972W        W45698  26.509  28.969  12.560
73973W        W45699  11.600  16.620   1.840
73974W        W45700   6.725  33.860  14.410
73975W        W45701   7.651  27.487  11.201
73976W        W45702   8.840   5.195  11.171
73977W        W45703  40.966   2.928   3.679
73978W        W45704  31.018  24.152  13.976
73979W        W45705  14.361  27.251   2.350
73980W        W45706  22.666  29.469   0.278
73981W        W45707  41.512  27.388  14.180
73982W        W45708  16.159   0.803  12.458
73983W        W45709  16.595  13.872   1.436
73984W        W45710  39.885  16.270  10.693
73985W        W45711  17.088  40.327   4.053
73986W        W45712  39.272   4.837  13.393
73987W        W45713  19.668  37.547   3.972
73988W        W45714  10.226   3.895  11.435
73989W        W45715   7.838  19.935   2.287
73990W        W45716   4.763  13.712  13.336
73991W        W45717  10.289  33.169  13.023
73992W        W45718  42.458  15.836   4.138
73993W        W45719  15.592   1.749   9.980
73994W        W45720   0.548  27.772  12.542
73995W        W45721  31.571  17.837  12.692
73996W        W45722  26.915   0.114  11.503
73997W        W45723  16.460  21.490   0.326
73998W        W45724  20.494   6.839   0.743
73999W        W45725   9.164  36.535   4.561
74000W        W45726  24.103  42.472  12.229
74001W        W45727   6.822   3.409  14.987
74002W        W45728  28.643  31.546   1.358
74003W        W45729  13.334  39.873  13.854
74004W        W45730  14.084  38.791   2.195
74005W        W45731  44.589  35.424   4.575
74006W        W45732   5.373  31.858  13.867
74007W        W45733  31.802   5.628   3.109
74008W        W45734  30.390   0.299  12.668
74009W        W45735  30.519   7.236   2.828
74010W        W45736  40.070  42.543   1.639
74011W        W45737  36.233  32.457   4.158
74012W        W45738  19.516  21.199  13.937
74013W        W45739  13.400  24.467  10.624
74014W        W45740   3.210   1.736  13.296
74015W        W45741  36.552  44.482  12.953
74016W        W45742  30.542  31.366   2.377
74017W        W45743  26.017   9.605  14.411
74018W        W45744  19.707  28.964   4.302
74019W        W45745  17.728  43.941   0.438
74020W        W45746  25.952  19.482  13.559
74021W        W45747   4.298  40.994   3.637
74022W        W45748  17.735  42.958  14.904
74023W        W45749  18.132   2.952  14.712
74024W        W45750  23.704  21.186  14.986
74025W        W45751  22.643  44.412   3.631
74026W        W45752  41.755  41.603  14.854
74027W        W45753  17.593  15.385   0.500
74028W        W45754  34.707  26.123   2.452
74029W        W45755  11.529  11.344   4.039
74030W        W45756   5.904   4.541  10.502
74031W        W45757  14.542  32.088   2.676
74032W        W45758  41.478  21.579   4.162
74033W        W45759  15.178  39.368   1.169
74034W        W45760  37.266  11.628  13.995
74035W        W45761  19.547  31.995  10.953
74036W        W45762  43.796   8.473  13.946
74037W        W45763  24.951  39.949   0.374
74038W        W45764  27.201  42.381  12.879
74039W        W45765   9.669   3.328  13.463
74040W        W45766  32.931  27.431   1.381
74041W        W45767  27.543   0.449  10.283
74042W        W45768   2.865  15.682   0.836
74043W        W45769   9.688  31.665   1.351
74044W        W45770  19.248  27.461  11.285
74045W        W45771  39.050  15.075  13.885
74046W        W45772   9.256  38.228   3.898
74047W        W45773  39.914  37.030  11.677
74048W        W45774  24.207  17.057  14.081
74049W        W45775  28.425  35.942   1.951
74050W        W45776   7.851  26.918  14.405
74051W        W45777  11.592  30.730   0.879
74052W        W45778  41.091  31.417   1.821
74053W        W45779  15.877  28.890  11.659
74054W        W45780  18.189  29.737  12.537
74055W        W45781  36.155  12.316  12.381
74056W        W45782  16.173  29.133   3.735
74057W        W45783  19.376  37.389   0.923
74058W        W45784   6.056  15.257  13.102
74059W        W45785   4.180  14.692   3.777
74060W        W45786   7.295  25.034  13.839
74061W        W45787   6.408   4.790   1.248
74062W        W45788  21.368   8.686   1.354
74063W        W45789   8.807   7.831  10.742
74064W        W45790  13.388  33.602  11.874
74065W        W45791   5.834  20.544   2.947
74066W        W45792  44.487  36.979  13.342
74067W        W45793  14.342   5.792   4.205
74068W        W45794  36.071  25.521   0.422
74069W        W45795  16.344  29.101  11.206
74070W        W45796  43.863  33.077  14.576
74071W        W45797  22.641  21.612   3.337
74072W        W45798   1.233  10.197   2.819
74073W        W45799  22.978  29.973   1.267
74074W        W45800  16.353  21.283  13.955
74075W        W45801  26.530  17.320  14.947
74076W        W45802   5.141  26.646   1.792
74077W        W45803  30.185  25.586   1.237
74078W        W45804   1.886  12.770   2.428
74079W        W45805   2.832   8.048  11.167
74080W        W45806  27.500  34.514  11.959
74081W        W45807   4.663  25.490   1.290
74082W        W45808   2.389  30.201  10.975
74083W        W45809  37.407  33.838   0.487
74084W        W45810   8.005  14.240   3.779
74085W        W45811   8.380  11.913   3.834
74086W        W45812  25.726   2.714   1.422
74087W        W45813  22.605  21.175  11.126
74088W        W45814   3.452  16.809   3.721
74089W        W45815  36.406  29.037  14.058
74090W        W45816  29.723  40.892  10.681
74091W        W45817   5.841  15.536  14.962
74092W        W45818   5.795  16.173   3.965
74093W        W45819  40.829  36.310   4.142
74094W        W45820  30.943  10.403   2.854
74095W        W45821  10.677  29.997   3.599
74096W        W45822   6.599  22.459   0.484
74097W        W45823  37.536  16.776  14.904
74098W        W45824  35.976   7.839  14.063
74099W        W45825   6.739   5.297   4.647
74100W        W45826  30.164  20.285  10.718
74101W        W45827  26.676   6.660  11.200
74102W        W45828   9.906   7.187  14.132
74103W        W45829  22.442  25.845   4.064
74104W        W45830   3.457  36.535   4.457
74105W        W45831  13.389  24.013   3.591
74106W        W45832  36.772  38.536  12.965
74107W        W45833   0.911  30.375   2.712
74108W        W45834  15.771   3.863   4.719
74109W        W45835  24.993  13.257  12.100
74110W        W45836  20.706  41.499   3.349
74111W        W45837   4.836  30.335   1.714
74112W        W45838  18.122  24.443   3.763
74113W        W45839  37.905   1.843   2.170
74114W        W45840  34.087  28.539  12.207
74115W        W45841  13.278  24.566  11.638
74116W        W45842  30.590   3.011   3.984
74117W        W45843  16.563  11.381   4.622
74118W        W45844  42.568  26.647  11.901
74119W        W45845   3.870  25.503  12.860
74120W        W45846  22.999  25.198  11.681
74121W        W45847  38.740  28.316  12.994
74122W        W45848  42.561  17.124   2.302
74123W        W45849  41.370  11.387   0.231
74124W        W45850  27.099  44.349  12.619
74125W        W45851  41.101  18.344   0.954
74126W        W45852  12.638   5.448  12.520
74127W        W45853   7.875   3.690   3.389
74128W        W45854  36.528  34.903  14.362
74129W        W45855  39.191   2.424  11.816
74130W        W45856   9.713  21.922   9.722
74131W        W45857   3.965   0.662   3.068
74132W        W45858  27.029  23.059  12.627
74133W        W45859  15.602   1.183   4.443
74134W        W45860  24.946  28.956  13.910
74135W        W45861  43.856   0.408  12.447
74136W        W45862  28.526  29.699  13.352
74137W        W45863  22.554  34.099  14.993
74138W        W45864   7.388  24.542  10.598
74139W        W45865  32.978   4.957   3.902
74140W        W45866   4.692  16.284   3.744
74141W        W45867  43.762  30.971  12.352
74142W        W45868  30.493  29.485  14.455
74143W        W45869  33.879  42.336   2.903
74144W        W45870  27.870  37.290  10.501
74145W        W45871  35.085   0.537  11.422
74146W        W45872  27.855  23.416  14.738
74147W        W45873   4.761  23.888   4.199
74148W        W45874  41.370  26.993   0.823
74149W        W45875  12.299  18.222   0.447
74150W        W45876  16.543  12.610  14.374
74151W        W45877  37.321  31.726   2.923
74152W        W45878  23.986   4.471  14.972
74153W        W45879  37.517  13.918  12.471
74154W        W45880   0.839  22.009  13.486
74155W        W45881   5.283   3.369  10.706
74156W        W45882   1.413  23.964  13.946
74157W        W45883  16.809  24.085   2.705
74158W        W45884   3.795  40.045  11.596
74159W        W45885  23.516   7.964  11.682
74160W        W45886  41.632   8.828  10.663
74161W        W45887   1.226  14.592  13.141
74162W        W45888  31.387   6.563   4.317
74163W        W45889  15.046   8.509   0.350
74164W        W45890  43.205  20.097  12.823
74165W        W45891  44.027  44.328   3.639
74166W        W45892   9.710  14.257   1.346
74167W        W45893  32.198  17.688   0.312
74168W        W45894   9.698  10.425  11.963
74169W        W45895  36.614  33.704  13.833
74170W        W45896  14.578   8.975  14.765
74171W        W45897  11.015  22.575  14.203
74172W        W45898  41.409   8.421   1.435
74173W        W45899  33.858  13.126   4.387
74174W        W45900  28.015  17.146   3.187
74175W        W45901  28.669  32.990  12.977
74176W        W45902  10.185  37.363  14.081
74177W        W45903   6.051  26.542   0.251
74178W        W45904  26.812  22.598   3.104
74179W        W45905  37.602  43.261   4.109
74180W        W45906  22.872  38.475   0.820
74181W        W45907  15.688  17.822  10.159
74182W        W45908  30.355  26.667   5.097
74183W        W45909  31.052  39.336   1.904
74184W        W45910  14.303  18.563   4.722
74185W        W45911  43.910  30.048   1.698
74186W        W45912   3.330  16.527  11.211
74187W        W45913  39.937  18.631  13.926
74188W        W45914  34.775  38.013  11.025
74189W        W45915  28.844  13.784  10.608
74190W        W45916  10.911  24.844  12.782
74191W        W45917   2.857   7.292  12.569
74192W        W45918  42.539  14.046   1.267
74193W        W45919   8.193  42.094   2.566
74194W        W45920  27.801  27.516  11.253
74195W        W45921   7.881  36.331   4.253
74196W        W45922  20.323  11.892  10.980
74197W        W45923   2.357  35.716   0.664
74198W        W45924  23.040  15.394   9.813
74199W        W45925   7.753  25.110  10.683
74200W        W45926  43.848  16.337  11.964
74201W        W45927   3.529   9.468  11.912
74202W        W45928  26.368   1.434   5.028
74203W        W45929   9.303   7.883  11.490
74204W        W45930  18.118   3.733   1.720
74205W        W45931   2.134  18.640   4.144
74206W        W45932  31.555  39.616  10.653
74207W        W45933  17.752   0.311  14.527
74208W        W45934   0.472  40.062  14.417
74209W        W45935   0.440  26.622  12.016
74210W        W45936  15.808   3.047  14.504
74211W        W45937  25.535  26.500  14.858
74212W        W45938  16.832  41.362  10.661
74213W        W45939  39.732  13.117  14.960
74214W        W45940  17.013  32.170   3.826
74215W        W45941  40.759  37.634   4.106
74216W        W45942   7.019  41.820  11.712
74217W        W45943  27.075   2.412  10.386
74218W        W45944  23.052  30.778   5.000
74219W        W45945  19.349  14.104   3.379
74220W        W45946  41.909  42.928   0.918
74221W        W45947  14.597  23.338  11.377
74222W        W45948  21.399  20.622  14.849
74223W        W45949   3.234  32.349  13.730
74224W        W45950  43.379   8.670   0.257
74225W        W45951   5.326  26.447   2.246
74226W        W45952  18.539   4.020   1.435
74227W        W45953  26.722  31.610   1.911
74228W        W45954  30.440  21.037  10.354
74229W        W45955  25.521  18.796  14.530
74230W        W45956  29.832  38.384   1.165
74231W        W45957   4.698  14.730   3.609
74232W        W45958  35.999  19.330   4.543
74233W        W45959  27.573  22.758   0.787
74234W        W45960  32.981  42.013   5.371
74235W        W45961   7.677   7.116  11.219
74236W        W45962   5.082  36.232   1.287
74237W        W45963   7.215  25.010   1.387
74238W        W45964  10.332   2.887   3.739
74239W        W45965  24.987  15.619  14.539
74240W        W45966  25.427   5.783  12.047
74241W        W45967   4.610  32.913  11.438
74242W        W45968  41.908  32.700   3.904
74243W        W45969  44.433  33.625   1.322
74244W        W45970  25.719  20.183   0.260
74245W        W45971   1.374   5.703  13.535
74246W        W45972  39.613   6.450  13.908
74247W        W45973  21.641   4.489   1.408
74248W        W45974  23.104  17.509   3.188
74249W        W45975   2.225  36.322   3.777
74250W        W45976  18.240  42.520  14.438
74251W        W45977  37.586  32.857  10.965
74252W        W45978  31.056  15.554   3.757
74253W        W45979   2.847  16.255   4.166
74254W        W45980  19.584  14.474   3.844
74255W        W45981  25.045  31.042   1.980
74256W        W45982  27.261   6.127  12.536
74257W        W45983  36.803  29.225  11.980
74258W        W45984  17.011  17.219   3.292
74259W        W45985   3.372  30.997   2.236
74260W        W45986  29.407  44.213   2.081
74261W        W45987  11.101  25.793  10.893
74262W        W45988  40.016  11.731   1.866
74263W        W45989  42.332  41.372   4.932
74264W        W45990  15.729   0.971   2.570
74265W        W45991  35.012  32.502  11.602
74266W        W45992  25.188  13.511  13.886
74267W        W45993  39.853  25.043  11.464
74268W        W45994   1.240   3.644   4.309
74269W        W45995  37.590  43.308  13.199
74270W        W45996  21.538  30.353  13.367
74271W        W45997   9.744  14.960  13.780
74272W        W45998  42.871  11.817  10.596
74273W        W45999  28.438  25.481   2.773
74274W        W46000   0.817  31.918  12.519
74275W        W46001   8.212  20.359   4.537
74276W        W46002  20.220  42.351  12.811
74277W        W46003   0.193  30.127   2.221
74278W        W46004  41.233  16.768   3.946
74279W        W46005   0.820  33.427  13.404
74280W        W46006  44.510   8.842  11.699
74281W        W46007   1.200   7.958  11.178
74282W        W46008  44.126   0.089   0.435
74283W        W46009  16.484  28.818  13.919
74284W        W46010  16.362  20.895   1.373
74285W        W46011  12.681  30.697   2.167
74286W        W46012  32.385  23.709  13.072
74287W        W46013  12.425  37.890   1.049
74288W        W46014  15.748  28.780   1.237
74289W        W46015  38.547  18.685  11.546
74290W        W46016   1.302  39.320  12.011
74291W        W46017  17.234  14.775   0.035
74292W        W46018  41.613  12.315  14.852
74293W        W46019  22.236  25.028  12.899
74294W        W46020   1.417   7.160   1.413
74295W        W46021  42.797   6.404   4.065
74296W        W46022  23.950  28.507   2.738
74297W        W46023  24.024   3.554   2.944
74298W        W46024  23.791   1.031   3.028
74299W        W46025  44.717   0.813   3.115
74300W        W46026  32.421  17.780  14.846
74301W        W46027  28.761  42.325  11.089
74302W        W46028  25.046  20.003  12.118
74303W        W46029  17.042  29.376   4.311
74304W        W46030  19.522  13.841  12.952
74305W        W46031  13.415   7.697  14.302
74306W        W46032  43.917  12.523   3.623
74307W        W46033  17.186  28.552  14.940
74308W        W46034   0.514   0.773  11.919
74309W        W46035  13.730  14.689   4.169
74310W        W46036  22.005  19.705   4.503
74311W        W46037   1.850  39.549  14.254
74312W        W46038  17.117  24.989  13.385
74313W        W46039  21.309  18.602  14.219
74314W        W46040   8.641  31.021   1.708
74315W        W46041  18.130  16.429  10.756
74316W        W46042  26.690  19.582   4.831
74317W        W46043  39.370  35.414  10.413
74318W        W46044   1.763   6.302   4.388
74319W        W46045  35.222   2.732   2.080
74320W        W46046  11.345  40.850   1.965
74321W        W46047   0.915  20.714  12.660
74322W        W46048  35.652  40.862  14.359
74323W        W46049  13.015   3.807  13.585
74324W        W46050   9.917   5.311   2.433
74325W        W46051   7.663  41.958   1.783
74326W        W46052  37.076  21.662  11.467
74327W        W46053  21.644  14.574   9.810
74328W        W46054  25.450  24.139  12.135
74329W        W46055  12.252  23.030  10.723
74330W        W46056  21.702  42.035  14.214
74331W        W46057   6.217  11.566   0.856
74332W        W46058  22.967  22.239   0.228
74333W        W46059  37.847  36.568   4.671
74334W        W46060  40.159  43.904  11.509
74335W        W46061   3.233  35.040   4.526
74336W        W46062  23.062  18.763   0.324
74337W        W46063  23.128  40.880  10.824
74338W        W46064  31.554  38.710   4.715
74339W        W46065  33.611  38.796   1.659
74340W        W46066  10.653  27.561  14.064
74341W        W46067  42.303  11.109   0.398
74342W        W46068  15.223  14.882   3.765
74343W        W46069  12.322  31.188   2.672
74344W        W46070  38.819  37.556   2.782
74345W        W46071  35.824  38.875  13.806
74346W        W46072  32.971  43.187   0.886
74347W        W46073  42.810   0.882  12.918
74348W        W46074   3.260   9.348   0.761
74349W        W46075  17.207   9.898   0.026
74350W        W46076  40.108  29.592  11.615
74351W        W46077   0.995  12.337  11.763
74352W        W46078  41.993   2.788  12.959
74353W        W46079  38.918  24.658   3.291
74354W        W46080   1.228  38.522  11.573
74355W        W46081  33.144   5.826  10.717
74356W        W46082  37.408   9.572  13.087
74357W        W46083  25.150  31.455   1.653
74358W        W46084  16.669  32.893   1.354
74359W        W46085  14.345  42.967  13.506
74360W        W46086   3.256  14.957  13.916
74361W        W46087  17.634   5.075  11.111
74362W        W46088   4.173  31.727  12.451
74363W        W46089  35.499  22.217  12.500
74364W        W46090   2.770  31.216  14.005
74365W        W46091  40.486  14.854  13.300
74366W        W46092  40.447  34.536  11.251
74367W        W46093   4.489   3.745   4.938
74368W        W46094  37.983  41.053   3.242
74369W        W46095  29.024  37.430   2.847
74370W        W46096  39.241  10.333   3.660
74371W        W46097  32.564   8.321   1.728
74372W        W46098  33.534  32.496  10.671
74373W        W46099  44.881  15.766   4.895
74374W        W46100   5.789  38.486   2.687
74375W        W46101  13.832  44.448  12.565
74376W        W46102  17.909  11.513   2.830
74377W        W46103  20.487   1.802  12.985
74378W        W46104  26.659   0.370  14.759
74379W        W46105  12.312  36.324   1.806
74380W        W46106   2.834  31.349  11.448
74381W        W46107  28.628   0.238   1.866
74382W        W46108  15.687  14.861  10.660
74383W        W46109   4.651  28.500   0.092
74384W        W46110  40.828   4.270   0.383
74385W        W46111  15.460  42.051   5.113
74386W        W46112  41.393  20.102   1.762
74387W        W46113  22.621  32.414   3.685
74388W        W46114   2.178   0.876   1.790
74389W        W46115  11.307  44.720   2.322
74390W        W46116  44.990  40.227  11.077
74391W        W46117  13.797  10.760   2.601
74392W        W46118  15.483  14.271  11.917
74393W        W46119  20.014  43.707   3.754
74394W        W46120  28.942  20.724   1.400
74395W        W46121  32.344  35.362   0.878
74396W        W46122   4.385   4.191   2.296
74397W        W46123   6.556  13.323   1.471
74398W        W46124  38.574  27.760   1.229
74399W        W46125  19.015  31.831   2.226
74400W        W46126  28.604  15.630  14.135
74401W        W46127  26.875  32.147  11.059
74402W        W46128  26.159  38.582  11.687
74403W        W46129  25.576  33.976   2.223
74404W        W46130   0.854   0.534  13.584
74405W        W46131  39.623  39.036   4.397
74406W        W46132  18.012  20.787   4.845
74407W        W46133  36.511  30.363   2.174
74408W        W46134  17.641   4.970  10.235
74409W        W46135  42.219  18.624   2.699
74410W        W46136  22.653  34.667   4.613
74411W        W46137  16.620  14.687  13.547
74412W        W46138   5.706  11.819   4.125
74413W        W46139  11.194  28.655  10.989
74414W        W46140   6.439  22.187   1.159
74415W        W46141   6.672  20.689   3.648
74416W        W46142  43.020  18.086  13.800
74417W        W46143  35.970  21.504   0.270
74418W        W46144   6.665  30.305   0.783
74419W        W46145  11.172  21.158  14.404
74420W        W46146  30.680  25.098  11.607
74421W        W46147  17.840  20.374  12.474
74422W        W46148  32.249  43.865  11.537
74423W        W46149  39.835  28.897   2.378
74424W        W46150  41.364  35.998  11.189
74425W        W46151  35.745  21.715  11.578
74426W        W46152  30.516  16.596  14.877
74427W        W46153  10.106   8.102  12.061
74428W        W46154  27.511  25.206  14.264
74429W        W46155  18.133  18.319  10.984
74430W        W46156  42.325  35.812   3.282
74431W        W46157  40.288  37.231  12.369
74432W        W46158  31.618  44.018  12.844
74433W        W46159   2.767  13.298  12.462
74434W        W46160  31.204  16.720  14.989
74435W        W46161  36.418  20.602  12.048
74436W        W46162  23.233  28.429   1.836
74437W        W46163  30.127   6.800  13.038
74438W        W46164  32.979   6.195   2.310
74439W        W46165  41.696   2.615   0.146
74440W        W46166  37.951  17.180  12.196
74441W        W46167  33.458  30.552  10.295
74442W        W46168  33.351  16.453   0.024
74443W        W46169  28.883   5.763   2.697
74444W        W46170  29.648   6.864   0.949
74445W        W46171  37.002  21.671   0.330
74446W        W46172   7.256  27.623  12.112
74447W        W46173  34.331   3.030  12.261
74448W        W46174  35.105  33.017  10.707
74449W        W46175  30.562   0.897  14.323
74450W        W46176  14.060  25.959   4.522
74451W        W46177   8.913  24.703  10.589
74452W        W46178  26.569  29.647  10.777
74453W        W46179  16.140  30.116  11.951
74454W        W46180  33.949  16.176  12.412
74455W        W46181  13.039  44.412  11.075
74456W        W46182  10.741  26.679   1.074
74457W        W46183  24.564   2.687   2.178
74458W        W46184  19.722   9.430   1.777
74459W        W46185  15.052  34.984  12.372
74460W        W46186  10.908  16.992   3.252
74461W        W46187  10.040  17.932   3.514
74462W        W46188  20.038  24.636   3.660
74463W        W46189   4.862  36.935  14.011
74464W        W46190   3.455  23.698  14.471
74465W        W46191  34.363  15.273  10.811
74466W        W46192  18.559  36.921   0.852
74467W        W46193   0.035   8.299   1.650
74468W        W46194  14.235   9.370  14.016
74469W        W46195   1.692   6.932  11.643
74470W        W46196  14.424  31.683  11.053
74471W        W46197  15.636  33.829   1.781
74472W        W46198   0.524  34.388  14.395
74473W        W46199   4.243  22.949  14.965
74474W        W46200   8.805  10.215  13.714
74475W        W46201  10.930  39.498  12.860
74476W        W46202  23.533   6.320  14.446
74477W        W46203  15.762  40.067   2.782
74478W        W46204  34.855  24.969   0.277
74479W        W46205  16.807  10.236  11.144
74480W        W46206  36.952   1.844   4.184
74481W        W46207  37.425  41.855  14.512
74482W        W46208  35.518   3.579  12.023
74483W        W46209  15.842  25.309  11.575
74484W        W46210  19.266  13.203  10.391
74485W        W46211   5.477   6.324   0.465
74486W        W46212  34.571  29.670  14.871
74487W        W46213  18.814   1.468   1.888
74488W        W46214   7.905  18.747  13.346
74489W        W46215   7.411   8.014   2.241
74490W        W46216   8.853  21.611   1.035
74491W        W46217  32.005  37.250   5.035
74492W        W46218   4.913  36.924   4.651
74493W        W46219  33.083   4.279  14.436
74494W        W46220  15.365  19.023   2.963
74495W        W46221   1.959  42.961   5.033
74496W        W46222   9.160  10.250  10.049
74497W        W46223   5.801  14.700   4.306
74498W        W46224  42.963  33.422   1.176
74499W        W46225  16.154  13.133   3.646
74500W        W46226  23.176  10.431   2.422
74501W        W46227  30.436  42.031   4.326
74502W        W46228   9.882  43.831  13.570
74503W        W46229  36.138  25.503   2.650
74504W        W46230  16.485  11.219   3.216
74505W        W46231  44.620   0.546  12.853
74506W        W46232  37.876  20.810  11.149
74507W        W46233  21.108  28.700  11.179
74508W        W46234  25.591  23.167  10.693
74509W        W46235  38.430  35.831  12.920
74510W        W46236  35.518  36.405  13.377
74511W        W46237  42.617  16.751  11.177
74512W        W46238  35.400  39.264  12.001
74513W        W46239  28.014  31.289   4.847
74514W        W46240  35.671  23.901  13.557
74515W        W46241  26.646  11.347  14.813
74516W        W46242  27.477  22.257  12.225
74517W        W46243  30.477  27.040   2.237
74518W        W46244  23.255  25.478  11.344
74519W        W46245  36.959  34.393   3.092
74520W        W46246  13.317  23.517   3.407
74521W        W46247  34.646   7.071  14.039
74522W        W46248   4.837  17.704   0.977
74523W        W46249  13.144  11.290   0.767
74524W        W46250   9.454  14.522  11.890
74525W        W46251  43.812  31.703   4.167
74526W        W46252  17.832  35.564  13.595
74527W        W46253   2.620  22.746   4.254
74528W        W46254  44.419  40.897  14.435
74529W        W46255  28.489  12.262   5.027
74530W        W46256  16.865  37.419  12.547
74531W        W46257  10.268   7.292  14.924
74532W        W46258  43.619  27.522   3.714
74533W        W46259  32.401   3.672   3.760
74534W        W46260   2.962  30.087   4.947
74535W        W46261   4.775  16.312   9.682
74536W        W46262  32.054   5.116   2.168
74537W        W46263  32.042   2.516   5.009
74538W        W46264   2.617  37.108   4.202
74539W        W46265   4.819  43.505  11.313
74540W        W46266  18.160  39.342  12.955
74541W        W46267   7.971   9.211   0.848
74542W        W46268  18.876  21.913  12.776
74543W        W46269  23.995  38.549   1.279
74544W        W46270  11.886  36.002  11.764
74545W        W46271  19.562  32.593   2.857
74546W        W46272  12.728  43.480  11.592
74547W        W46273  17.731  26.659  10.674
74548W        W46274  39.716  37.544  10.087
74549W        W46275  11.675  28.999   0.380
74550W        W46276  41.862   8.921   3.724
74551W        W46277  20.796  25.112  14.337
74552W        W46278  16.862  40.390  10.718
74553W        W46279  24.099  10.915  14.313
74554W        W46280  42.362  37.464  11.987
74555W        W46281  15.612  14.508  11.054
74556W        W46282   9.398  25.911  12.455
74557W        W46283   3.867   2.566  12.876
74558W        W46284  23.429  27.646  14.815
74559W        W46285  43.370  14.777  12.414
74560W        W46286  23.505  19.767   1.808
74561W        W46287  35.380  32.312  13.836
74562W        W46288  13.051   7.260   2.394
74563W        W46289  16.265  15.388   3.208
74564W        W46290  34.193   8.625  11.079
74565W        W46291   1.678  22.756   1.828
74566W        W46292   1.365   1.211   2.161
74567W        W46293  31.435   3.436  10.727
74568W        W46294  41.878  16.022   3.909
74569W        W46295  30.540  12.117   0.204
74570W        W46296  13.071  43.464   2.797
74571W        W46297  33.225  17.746   3.818
74572W        W46298  44.979  36.086   0.338
74573W        W46299   2.774   0.121  13.993
74574W        W46300  32.553  36.588  10.709
74575W        W46301   3.684  21.026   2.346
74576W        W46302  40.225  19.838   1.004
74577W        W46303  10.310  23.994  13.359
74578W        W46304  42.544   3.380  10.654
74579W        W46305  39.523  43.551  13.201
74580W        W46306  11.509  44.523   3.244
74581W        W46307  22.476  33.435  10.452
74582W        W46308  34.988   8.166   4.885
74583W        W46309  40.209  44.967  12.967
74584W        W46310  25.059  41.107   0.305
74585W        W46311  16.119  25.133   5.071
74586W        W46312   2.512  26.772   4.670
74587W        W46313  17.978  19.706  12.870
74588W        W46314  29.900  20.011  11.113
74589W        W46315   2.914  38.381   3.445
74590W        W46316  37.905  11.732  11.630
74591W        W46317  30.140  25.940  11.944
74592W        W46318  28.926  34.086  12.898
74593W        W46319  31.652  33.293  14.198
74594W        W46320  17.287  21.563  13.554
74595W        W46321   6.898  30.886   2.340
74596W        W46322  30.127  15.000   4.442
74597W        W46323  36.496  12.757   1.470
74598W        W46324  14.761  24.588  13.270
74599W        W46325  38.438   0.290  11.131
74600W        W46326  32.092   5.778  13.063
74601W        W46327  30.655  29.529   1.514
74602W        W46328   0.089  40.298   3.646
74603W        W46329   2.964  33.896  14.264
74604W        W46330  11.866  29.645   2.851
74605W        W46331  33.953  30.323   1.146
74606W        W46332   3.353  38.216  10.287
74607W        W46333   1.467  44.384   1.093
74608W        W46334   4.632  32.006  12.530
74609W        W46335   1.744  15.205   4.087
74610W        W46336  23.144  31.401  10.961
74611W        W46337   0.566  18.503   1.082
74612W        W46338   4.237  21.134  14.842
74613W        W46339  21.787  44.916   4.601
74614W        W46340  28.746  17.408   3.777
74615W        W46341  42.880  37.959   3.656
74616W        W46342  18.125  31.882  12.466
74617W        W46343  23.180  34.837   2.964
74618W        W46344  26.624  20.063  14.573
74619W        W46345   3.706  39.132   3.302
74620W        W46346  18.656  18.335  11.143
74621W        W46347  43.358  35.451   3.368
74622W        W46348  17.899   4.298   1.268
74623W        W46349  26.003  42.344   0.786
74624W        W46350   2.826  23.599   2.346
74625W        W46351  14.117  43.477  11.655
74626W        W46352  29.197  27.594   2.266
74627W        W46353   7.912  16.711   1.942
74628W        W46354  17.268  34.937   4.509
74629W        W46355  31.381  19.642   1.978
74630W        W46356  29.393  16.056   0.531
74631W        W46357  43.539  36.884   3.184
74632W        W46358  39.452  27.858   1.209
74633W        W46359  33.593  12.354   0.689
74634W        W46360  23.005  29.199  11.650
74635W        W46361  13.142   7.860  11.290
74636W        W46362   0.031  10.159  13.007
74637W        W46363  42.943  44.732   0.820
74638W        W46364   6.555  18.600  11.871
74639W        W46365   9.542  35.988   4.942
74640W        W46366  26.895  22.677  10.514
74641W        W46367  23.554  19.710   4.626
74642W        W46368  24.364   6.722   3.827
74643W        W46369   7.611  22.970   3.178
74644W        W46370  16.016  32.466  10.939
74645W        W46371  41.802  27.656   1.977
74646W        W46372  34.941  24.506  13.529
74647W        W46373  38.969  41.452  10.635
74648W        W46374  19.693  26.799  12.104
74649W        W46375  23.578  22.501   4.614
74650W        W46376  12.397  29.543  11.513
74651W        W46377   4.244  24.192   3.841
74652W        W46378   1.700  30.454  14.371
74653W        W46379  32.775   0.572   0.022
74654W        W46380  10.872  25.848  11.430
74655W        W46381  17.166  40.951   0.381
74656W        W46382  13.097  22.257  11.053
74657W        W46383  16.342  18.720  12.627
74658W        W46384   4.426   1.771   0.816
74659W        W46385  27.067   9.047   1.909
74660W        W46386  13.579  43.526   1.342
74661W        W46387   6.176  33.631  14.529
74662W        W46388  41.007  37.553   3.646
74663W        W46389  37.046  22.990  13.977
74664W        W46390   8.381   8.156  14.912
74665W        W46391  30.587  31.137   1.097
74666W        W46392  24.158  25.455   3.154
74667W        W46393  35.385  30.176  12.896
74668W        W46394  14.169  37.509  14.988
74669W        W46395  26.583  21.315  11.660
74670W        W46396  14.071  36.983   3.684
74671W        W46397  13.832   8.858   1.218
74672W        W46398  35.052  11.430   5.048
74673W        W46399  21.581  22.768  14.935
74674W        W46400  29.958  18.071   1.339
74675W        W46401  11.840   3.685  14.992
74676W        W46402  16.235  27.911  14.871
74677W        W46403  24.599   7.226   5.017
74678W        W46404   2.187  30.501   1.995
74679W        W46405  37.071   1.507   2.863
74680W        W46406  17.538  22.527  13.020
74681W        W46407   2.801  22.127  14.784
74682W        W46408  28.497   0.460   1.192
74683W        W46409  30.547  34.250  12.949
74684W        W46410   5.872  43.583  13.035
74685W        W46411  40.968   8.964   1.742
74686W        W46412   0.760  42.478  13.044
74687W        W46413  28.433  29.633   4.781
74688W        W46414  28.102  20.206   1.691
74689W        W46415   7.050  27.504  14.217
74690W        W46416   0.812  35.641   2.310
74691W        W46417  24.351   9.505   4.279
74692W        W46418  19.725  36.323   0.997
74693W        W46419  20.229  31.461  10.924
74694W        W46420  33.022  35.113  12.877
74695W        W46421   4.848  34.315   0.378
74696W        W46422  42.715  13.973  11.789
74697W        W46423   2.378  31.563  11.504
74698W        W46424  15.119  41.527   2.362
74699W        W46425  18.231   1.714  12.671
74700W        W46426  23.662  30.097  11.905
74701W        W46427  21.726   1.841   2.756
74702W        W46428   9.419  11.861  14.932
74703W        W46429  16.899   6.667  13.964
74704W        W46430  20.510  21.659   1.778
74705W        W46431  34.658  44.689   4.059
74706W        W46432  35.017  17.517  13.206
74707W        W46433   5.273  15.850  11.523
74708W        W46434  30.140   7.485   1.109
74709W        W46435  21.173   3.440   4.802
74710W        W46436  32.486  42.703  12.800
74711W        W46437   7.337  14.818   1.719
74712W        W46438  43.700  43.523  11.927
74713W        W46439   9.775  27.166  12.487
74714W        W46440  32.939  39.481   3.669
74715W        W46441   0.821  42.978   3.244
74716W        W46442  39.351  33.786  11.463
74717W        W46443  30.445  18.424   2.529
74718W        W46444  32.314  21.247   0.400
74719W        W46445  28.001   8.834   0.284
74720W        W46446  34.453  25.709   4.131
74721W        W46447  35.963  29.132   4.407
74722W        W46448  32.000  25.070   3.773
74723W        W46449  13.543   7.660   0.983
74724W        W46450  32.403  26.971   3.367
74725W        W46451  31.031  26.843  12.404
74726W        W46452  19.577  26.929   3.298
74727W        W46453  16.737  36.092   2.287
74728W        W46454   5.992   7.613  12.275
74729W        W46455  39.071  44.217   1.343
74730W        W46456  34.862  10.651   3.654
74731W        W46457  21.231   6.687   2.619
74732W        W46458  41.249  20.660  13.505
74733W        W46459  34.344   8.258   2.538
74734W        W46460  29.081  33.388   3.110
74735W        W46461  41.077   2.261   0.190
74736W        W46462  38.060  28.985  14.276
74737W        W46463  10.224  44.281   0.771
74738W        W46464  15.364  43.779   3.760
74739W        W46465  34.882  11.090  11.672
74740W        W46466  25.118   1.786   2.314
74741W        W46467  20.699  39.302  14.901
74742W        W46468  30.477  23.931   1.768
74743W        W46469  35.865   0.525   1.333
74744W        W46470  40.323  15.633   2.266
74745W        W46471  34.406  42.969  14.734
74746W        W46472   2.905  44.163  10.652
74747W        W46473   5.947  28.626  11.032
74748W        W46474  32.915  43.692   0.775
74749W        W46475  19.367  20.305   0.751
74750W        W46476   1.370  28.373  13.935
74751W        W46477  10.390   4.151   1.444
74752W        W46478   9.540  33.503   2.468
74753W        W46479  37.971   3.260   2.785
74754W        W46480   7.322  10.256   0.546
74755W        W46481  13.124  26.245  11.128
74756W        W46482  27.973  12.410   1.175
74757W        W46483  43.516  19.485   3.330
74758W        W46484  27.173  41.293   1.831
74759W        W46485  43.068  22.809  14.951
74760W        W46486   3.843   7.632  12.430
74761W        W46487  30.614  39.333   0.819
74762W        W46488   2.787  29.380   2.230
74763W        W46489   0.412  27.515  13.840
74764W        W46490  37.972  17.309   2.850
74765W        W46491  21.548   1.729   0.953
74766W        W46492  10.454  33.434   0.266
74767W        W46493  39.792  30.370  10.748
74768W        W46494  21.598  31.582   0.884
74769W        W46495  26.976  35.109  13.846
74770W        W46496  11.737  21.492  13.959
74771W        W46497  32.542   0.841  12.131
74772W        W46498  35.531  35.127   3.478
74773W        W46499  13.596  19.583  14.439
74774W        W46500  31.518  35.121   1.256
74775W        W46501  14.078  43.303   1.321
74776W        W46502   5.181   7.172  13.400
74777W        W46503  29.341  34.212   1.492
74778W        W46504  12.586  18.242  11.112
74779W        W46505  11.554  20.271  12.155
74780W        W46506  29.057  14.868   2.483
74781W        W46507  23.240  22.634  14.961
74782W        W46508  24.031  30.906   1.726
74783W        W46509  27.512   9.017  11.418
74784W        W46510   7.278  10.284  10.214
74785W        W46511  23.489  43.456  14.385
74786W        W46512  12.192  13.633  10.762
74787W        W46513  34.900   6.828   1.452
74788W        W46514  36.451  42.243   3.790
74789W        W46515   6.158  12.294  11.125
74790W        W46516  22.962  37.048   2.457
74791W        W46517  33.545  43.536   1.340
74792W        W46518  40.118  42.325  12.066
74793W        W46519  21.269   8.472   0.369
74794W        W46520  35.318  42.499   0.025
74795W        W46521  34.377  35.869   0.556
74796W        W46522  35.154  31.430   3.362
74797W        W46523  10.869  28.566  14.034
74798W        W46524  21.998  44.340  11.059
74799W        W46525  30.204   9.404   4.555
74800W        W46526  24.484  30.543  11.445
74801W        W46527   4.631   8.363  13.822
74802W        W46528  16.134  33.827   1.299
74803W        W46529  20.886   1.652   1.566
74804W        W46530  30.903  25.285   0.993
74805W        W46531  36.173  25.512   0.924
74806W        W46532  10.693   3.411   0.335
74807W        W46533  29.773  37.701   0.940
74808W        W46534  24.037  16.097  10.703
74809W        W46535  29.484  31.885  10.711
74810W        W46536  33.460  34.981  12.613
74811W        W46537  27.967  27.162  13.545
74812W        W46538   6.640  26.094   2.216
74813W        W46539  27.260  25.630  14.461
74814W        W46540  38.409   7.599  11.163
74815W        W46541   9.151   4.957   4.017
74816W        W46542   0.422  41.848  14.523
74817W        W46543  27.500  18.445  10.691
74818W        W46544  33.506  19.513   0.324
74819W        W46545   1.889  11.724   0.437
74820W        W46546  30.014  19.472   0.908
74821W        W46547   6.375  38.964   1.501
74822W        W46548  38.700  30.541  11.234
74823W        W46549   5.832   0.895   0.640
74824W        W46550  44.835  25.165   0.503
74825W        W46551   9.763  24.352   0.046
74826W        W46552  24.264  41.425   5.264
74827W        W46553  17.513  23.709   2.221
74828W        W46554  15.238  31.483  13.459
74829W        W46555   7.623   3.922   1.919
74830W        W46556  10.777  18.338   1.990
74831W        W46557   0.039   1.638  12.972
74832W        W46558  17.797  10.278   3.295
74833W        W46559  43.917  17.008   4.148
74834W        W46560   6.764  15.101   0.705
74835W        W46561  22.947  11.035  11.649
74836W        W46562  16.653  24.981  11.588
74837W        W46563   6.363  26.474   2.413
74838W        W46564  32.004   1.875   2.595
74839W        W46565  22.199   2.224  11.992
74840W        W46566  13.795  30.012  10.680
74841W        W46567  10.842  37.450   4.091
74842W        W46568  13.897  43.856   0.300
74843W        W46569  42.284  20.990   3.224
74844W        W46570  26.754   3.088  13.631
74845W        W46571   5.891  33.181  14.481
74846W        W46572  44.015   4.879   1.438
74847W        W46573  30.697  44.254  11.926
74848W        W46574  19.726  44.084  12.890
74849W        W46575  31.955   9.613  14.571
74850W        W46576  28.021  43.846  14.301
74851W        W46577  27.603  10.116   2.352
74852W        W46578  28.897  22.828   3.646
74853W        W46579  33.525  32.133   4.515
74854W        W46580  32.106  40.868   0.774
74855W        W46581   1.011   3.422  10.326
74856W        W46582  14.400  11.191   4.080
74857W        W46583  16.208   9.834   0.534
74858W        W46584   2.845  41.003   1.827
74859W        W46585  28.171  31.282   0.944
74860W        W46586   3.995  24.103  11.343
74861W        W46587  33.097  29.935  14.869
74862W        W46588  26.062  39.915  12.294
74863W        W46589  17.516  16.111   4.594
74864W        W46590  20.260  12.846   2.523
74865W        W46591  27.966  21.689  12.827
74866W        W46592   7.409  21.750  12.380
74867W        W46593  20.978   9.765   0.346
74868W        W46594  39.292  37.085   2.743
74869W        W46595  34.388   6.693   3.326
74870W        W46596  28.225  17.320  14.032
74871W        W46597  25.215  21.393  12.014
74872W        W46598  10.751   0.724  13.882
74873W        W46599  39.967  42.867  13.965
74874W        W46600  39.314  10.925  13.530
74875W        W46601   3.491  25.086   1.057
74876W        W46602  30.917  32.418  10.585
74877W        W46603   4.738  38.782  10.714
74878W        W46604  26.429  29.936  13.188
74879W        W46605  10.713  38.798   4.581
74880W        W46606  34.205  18.163   0.767
74881W        W46607   0.822  29.017  14.033
74882W        W46608  34.039   7.195   1.918
74883W        W46609   5.131  22.942  13.886
74884W        W46610  20.544  15.807  12.638
74885W        W46611  13.169  40.715   5.073
74886W        W46612  41.415  39.284   4.199
74887W        W46613  36.618  20.531  11.150
74888W        W46614  42.786  10.259   3.692
74889W        W46615   6.706  17.091  14.025
74890W        W46616  16.430  30.283   4.164
74891W        W46617  19.299  32.930  12.981
74892W        W46618   3.397   3.905  13.878
74893W        W46619   0.368  44.274   3.970
74894W        W46620   3.227   7.771  14.847
74895W        W46621  30.959  36.092  11.169
74896W        W46622  16.279  33.411   3.263
74897W        W46623   0.499  29.749  11.928
74898W        W46624  19.737   3.709  10.368
74899W        W46625  43.024   9.315   2.732
74900W        W46626   5.260  23.139   2.188
74901W        W46627   4.835   8.910   3.286
74902W        W46628  41.614  35.510   1.158
74903W        W46629  14.296   1.757   0.391
74904W        W46630  37.037  30.482  12.655
74905W        W46631  36.278  42.921   1.306
74906W        W46632  15.094  25.413   1.564
74907W        W46633  23.085   3.757   4.034
74908W        W46634  13.929  24.085  12.287
74909W        W46635   4.189  16.639   1.420
74910W        W46636  28.414  29.993  14.856
74911W        W46637   9.555   2.315   1.220
74912W        W46638  18.557  43.524   0.522
74913W        W46639   3.701  37.922   3.321
74914W        W46640  22.163   5.209  10.651
74915W        W46641  44.029   6.283  12.014
74916W        W46642  26.369   7.644  14.549
74917W        W46643   3.239  44.831   3.924
74918W        W46644  17.604  10.219  12.424
74919W        W46645  37.794  35.746  13.469
74920W        W46646  28.661  12.889  12.444
74921W        W46647  35.850  18.795  11.230
74922W        W46648  26.307  26.578   0.404
74923W        W46649  11.793  12.967   2.181
74924W        W46650  17.524  37.626  13.272
74925W        W46651  39.500   3.713   3.674
74926W        W46652  27.969  44.714  12.561
74927W        W46653  18.174  34.532  12.211
74928W        W46654  28.932   0.981  10.646
74929W        W46655  35.940  43.427  13.008
74930W        W46656  37.546  36.490   1.791
74931W        W46657  22.712   3.129   0.340
74932W        W46658  20.770  43.821   1.519
74933W        W46659  31.506   2.081   3.748
74934W        W46660  41.462  30.399   1.223
74935W        W46661  39.459   2.820   3.622
74936W        W46662  25.484  29.936  12.391
74937W        W46663  26.037  16.282   0.334
74938W        W46664  15.862   1.546  13.577
74939W        W46665  24.475  14.663  10.557
74940W        W46666  40.534   5.961   4.592
74941W        W46667   9.893   8.260   4.771
74942W        W46668  11.772  39.326  10.689
74943W        W46669  38.927  41.327   3.707
74944W        W46670  14.163  37.189   1.986
74945W        W46671   2.294  38.275  10.534
74946W        W46672  32.920  29.424   1.319
74947W        W46673  21.621  27.024   0.270
74948W        W46674  19.172  11.667  14.723
74949W        W46675  11.426  36.131  14.341
74950W        W46676  12.839  39.931  14.524
74951W        W46677  36.082   9.841  14.371
74952W        W46678   9.416  28.700   4.140
74953W        W46679   7.723  35.618   5.027
74954W        W46680  31.557   2.632   4.708
74955W        W46681  33.958  17.094   3.746
74956W        W46682   9.227  32.047   2.347
74957W        W46683  19.029  34.660  14.715
74958W        W46684  19.722  32.836   0.937
74959W        W46685  25.757  14.582   2.256
74960W        W46686  20.594   9.357  14.436
74961W        W46687  38.574   9.832   2.119
74962W        W46688  13.037  30.632  10.186
74963W        W46689  41.559  30.549  12.627
74964W        W46690  28.956  34.308  10.746
74965W        W46691  38.328  43.365   2.323
74966W        W46692  39.095  22.906  11.756
74967W        W46693  22.996  33.204  11.094
74968W        W46694  16.673  24.179   1.094
74969W        W46695  22.506  36.962   2.671
74970W        W46696  26.782  39.023  12.140
74971W        W46697  22.051  44.768   2.457
74972W        W46698  21.923  25.261   0.274
74973W        W46699  14.147  43.904  10.933
74974W        W46700  14.801  44.283  11.646
74975W        W46701  24.494  13.914  11.032
74976W        W46702   4.024  14.218   9.744
74977W        W46703  44.555  27.157   1.340
74978W        W46704  37.314   6.009  14.670
74979W        W46705   1.842  15.182   2.138
74980W        W46706  31.739  16.421   2.444
74981W        W46707   1.964  42.096  11.176
74982W        W46708  38.936  31.602   1.363
74983W        W46709   7.336   4.603  11.401
74984W        W46710  41.113   1.393  11.032
74985W        W46711   9.441   3.379  14.596
74986W        W46712  19.312  32.855   3.245
74987W        W46713  40.129  19.280  10.787
74988W        W46714  11.628   3.216  12.452
74989W        W46715  29.192  42.688  14.865
74990W        W46716  39.924  23.166   1.823
74991W        W46717  17.197   8.224  13.143
74992W        W46718  11.142  10.388   0.801
74993W        W46719  13.996  33.842   2.349
74994W        W46720   0.535   1.923  11.623
74995W        W46721  42.360   3.244  12.164
74996W        W46722  33.973   9.783  13.350
74997W        W46723  12.488  11.776  12.152
74998W        W46724  15.315  41.887   4.604
74999W        W46725  12.172  25.687  11.148
75000W        W46726  43.802  41.256  14.930
75001W        W46727   0.688  31.818   3.591
75002W        W46728  30.058  44.275   0.891
75003W        W46729  17.037   3.289  10.311
75004W        W46730  15.599  37.764   9.810
75005W        W46731  38.836   4.153   4.596
75006W        W46732   2.362  37.893   0.937
75007W        W46733   7.811  23.046  10.733
75008W        W46734  29.667  43.268   0.784
75009W        W46735   8.795   1.407  11.413
75010W        W46736   1.777  34.547  13.483
75011W        W46737  26.390  25.124  10.798
75012W        W46738  38.335  31.669  12.123
75013W        W46739  15.850  41.274   2.214
75014W        W46740   3.517  11.484   1.379
75015W        W46741   1.898  41.156  12.807
75016W        W46742  22.962  34.322   2.791
75017W        W46743  43.814  38.585   4.469
75018W        W46744   4.802  42.921  12.561
75019W        W46745   8.750   1.693  14.082
75020W        W46746   4.449  44.022  13.330
75021W        W46747   1.696  27.626   4.120
75022W        W46748  29.099  23.548  12.059
75023W        W46749   3.932  24.254  12.310
75024W        W46750  16.176  11.856   4.179
75025W        W46751   8.703  23.939   2.855
75026W        W46752  27.581  18.077   1.801
75027W        W46753  31.778  39.267   3.341
75028W        W46754  26.070  33.523   3.223
75029W        W46755  10.863   7.403   1.629
75030W        W46756  44.480  33.479   2.307
75031W        W46757  13.101  39.032  11.113
75032W        W46758  22.656  11.479   5.072
75033W        W46759  32.649  18.499   1.379
75034W        W46760   8.654  21.875  12.773
75035W        W46761  16.899  40.074  14.451
75036W        W46762   5.422  10.081   1.931
75037W        W46763   0.276  18.108  13.770
75038W        W46764  44.945  35.388  13.756
75039W        W46765  29.336  22.436   3.719
75040W        W46766  34.862  39.654  11.157
75041W        W46767  16.717   1.703  14.012
75042W        W46768  39.436  11.188   2.729
75043W        W46769  29.715  38.629   4.986
75044W        W46770  39.551   8.959  13.378
75045W        W46771  23.617   4.103  14.711
75046W        W46772   3.032  38.542  12.178
75047W        W46773  12.228  21.691  11.925
75048W        W46774  31.521  39.078   0.774
75049W        W46775   8.870  29.071  12.989
75050W        W46776  25.619  40.530   1.177
75051W        W46777  42.757  10.728   2.777
75052W        W46778  16.069  11.589   4.617
75053W        W46779   0.848   6.727   1.902
75054W        W46780   2.923  10.971   3.436
75055W        W46781  10.925  29.633  14.908
75056W        W46782  14.163  24.042   4.243
75057W        W46783  23.092  41.779   4.442
75058W        W46784  10.900  13.718  12.012
75059W        W46785   8.325  42.838   4.990
75060W        W46786   5.878  16.775  10.559
75061W        W46787  37.518  29.505  10.711
75062W        W46788  38.582  39.522   1.440
75063W        W46789  24.923  30.508   1.911
75064W        W46790  40.835  32.714   1.289
75065W        W46791  30.173   7.169   4.161
75066W        W46792  16.627  13.699   1.951
75067W        W46793  15.926   8.957  10.160
75068W        W46794  31.997  23.142  11.545
75069W        W46795   9.529  23.490   3.052
75070W        W46796   9.073  14.182  14.792
75071W        W46797   3.035   4.788   0.021
75072W        W46798  13.479  16.265   0.839
75073W        W46799  21.129  41.605  11.391
75074W        W46800  39.851  32.090   2.154
75075W        W46801  36.014  44.208   3.605
75076W        W46802  43.019   3.955   0.354
75077W        W46803   3.428  13.571   3.970
75078W        W46804   1.898  20.087   3.831
75079W        W46805  28.332  38.989   1.624
75080W        W46806  13.017  16.698  11.143
75081W        W46807   3.356  26.169  13.377
75082W        W46808  27.072  20.279  12.941
75083W        W46809  27.676  21.704  14.533
75084W        W46810  29.934  21.174  14.512
75085W        W46811  33.301   9.220   0.065
75086W        W46812   0.430  15.441   3.650
75087W        W46813  20.764  16.690  12.336
75088W        W46814  10.378  42.535   4.118
75089W        W46815   2.804  35.497  12.492
75090W        W46816  10.746  15.339   2.917
75091W        W46817  33.322   0.787   3.639
75092W        W46818   0.255  42.168   3.436
75093W        W46819   1.591  30.621  11.432
75094W        W46820  15.604   2.835   2.189
75095W        W46821  39.899  38.145  14.037
75096W        W46822  12.173  44.173  13.509
75097W        W46823   2.255   2.325   4.529
75098W        W46824   6.695  37.971  11.423
75099W        W46825  32.404   8.837   4.264
75100W        W46826  33.119  38.805   1.813
75101W        W46827  11.786  22.754   1.324
75102W        W46828   0.774  24.515   4.808
75103W        W46829   6.347  26.065   2.825
75104W        W46830  34.029  22.570   1.780
75105W        W46831  10.802  30.026   1.874
75106W        W46832  23.988   3.148   0.366
75107W        W46833  15.830  41.459   0.295
75108W        W46834  30.358  37.447  11.496
75109W        W46835  16.340  22.151   1.707
75110W        W46836  40.384  28.892   2.206
75111W        W46837  41.691   4.434   0.438
75112W        W46838   4.976  19.729  14.162
75113W        W46839  39.535  36.881  14.963
75114W        W46840  11.901  29.577  12.825
75115W        W46841  24.062   0.788   2.403
75116W        W46842  18.618  12.194  14.548
75117W        W46843   8.293   2.220   3.736
75118W        W46844  40.339  29.801  11.211
75119W        W46845  42.899   1.442   0.703
75120W        W46846  23.615  41.450   2.249
75121W        W46847   9.678  27.117  11.012
75122W        W46848   7.155  34.104  13.454
75123W        W46849  24.205  17.211   2.342
75124W        W46850  26.699  16.839   0.845
75125W        W46851  11.260  36.105  14.863
75126W        W46852  18.668  25.106   0.466
75127W        W46853  38.594  41.278   4.598
75128W        W46854  38.577   5.524   2.074
75129W        W46855  36.641   7.173  10.707
75130W        W46856  25.033  20.171   3.782
75131W        W46857  18.693   1.738  10.465
75132W        W46858  39.004  32.159   3.673
75133W        W46859  14.915  24.303  12.646
75134W        W46860  30.520   1.356   4.170
75135W        W46861  29.809  22.644   3.609
75136W        W46862  22.409   2.707   0.292
75137W        W46863  32.964  36.074   1.471
75138W        W46864  21.763   8.464   0.216
75139W        W46865  42.573  24.598   4.803
75140W        W46866  30.373   5.073   2.384
75141W        W46867  19.791  36.572  11.156
75142W        W46868   3.912  43.756   4.051
75143W        W46869   9.907  33.332   2.792
75144W        W46870  29.950  23.104   0.813
75145W        W46871  30.652   0.298   1.883
75146W        W46872  35.058  31.337   2.246
75147W        W46873  40.136  35.609   2.612
75148W        W46874  44.969  14.834   4.112
75149W        W46875  35.180  19.410   5.019
75150W        W46876   6.351  28.040  14.480
75151W        W46877  39.376  10.813   3.827
75152W        W46878   8.750  34.009   5.341
75153W        W46879   2.021  42.789  11.566
75154W        W46880  37.633  11.391   2.673
75155W        W46881  31.453   3.904   1.843
75156W        W46882  13.159  18.156   0.860
75157W        W46883  44.252  37.827   0.848
75158W        W46884  24.998  31.497   2.834
75159W        W46885  23.656  43.272   2.520
75160W        W46886  41.304   7.383   3.867
75161W        W46887  17.518  36.545  14.488
75162W        W46888  20.607  10.212   2.594
75163W        W46889  18.502  32.038   4.589
75164W        W46890  28.980  38.264  12.954
75165W        W46891  44.295   5.727   1.213
75166W        W46892  24.907   7.337   2.875
75167W        W46893   1.588  15.756   3.341
75168W        W46894  20.308   5.210  13.435
75169W        W46895  41.955  24.963   1.713
75170W        W46896   2.078   3.023  14.684
75171W        W46897  38.465  10.803  12.346
75172W        W46898   5.898  22.146   3.503
75173W        W46899  31.055  15.302  14.948
75174W        W46900  24.791  11.699   0.794
75175W        W46901  10.889   0.351   3.651
75176W        W46902   5.946   4.865   0.352
75177W        W46903  18.275  33.722  11.497
75178W        W46904  16.118  39.120  10.492
75179W        W46905   5.915  32.129  11.184
75180W        W46906  11.159  24.212   1.041
75181W        W46907  10.341  22.023   2.272
75182W        W46908   9.437   9.840  13.149
75183W        W46909  40.612  33.576   2.845
75184W        W46910  40.324  41.947   1.051
75185W        W46911  20.397  21.148   1.708
75186W        W46912  25.220  22.205  10.712
75187W        W46913  22.762  43.145   0.888
75188W        W46914  28.020  23.197   4.599
75189W        W46915  32.540  28.827   0.432
75190W        W46916  42.426  26.873  12.720
75191W        W46917   1.371  17.184  10.651
75192W        W46918  38.562  10.146   3.372
75193W        W46919  43.383   0.474   2.783
75194W        W46920  29.071   4.288  13.428
75195W        W46921  33.918  40.151  11.184
75196W        W46922   6.213  38.035  14.898
75197W        W46923  14.363  41.005   3.944
75198W        W46924  43.083  15.963  12.933
75199W        W46925  11.669  27.978  11.910
75200W        W46926  16.095  11.036  10.159
75201W        W46927   0.944  37.309  13.532
75202W        W46928  44.516  34.580  14.821
75203W        W46929  33.953  22.027  12.525
75204W        W46930  20.888  27.958  12.094
75205W        W46931   0.957  29.682   1.813
75206W        W46932  20.476  30.000  11.143
75207W        W46933  29.756  40.743  12.312
75208W        W46934  40.898  14.960  11.655
75209W        W46935   9.739  39.635   2.204
75210W        W46936  21.791   9.947  12.844
75211W        W46937  23.020   0.896   3.567
75212W        W46938  11.093   9.770   4.554
75213W        W46939  24.441  43.457   4.569
75214W        W46940  20.446  14.270  11.781
75215W        W46941  33.655  29.652  11.440
75216W        W46942  29.382  36.996   3.541
75217W        W46943   7.390  41.338  12.969
75218W        W46944  15.893  34.471   1.164
75219W        W46945  30.532   7.467  13.169
75220W        W46946   8.353  14.325  12.417
75221W        W46947  39.650   0.497   0.775
75222W        W46948  19.296  14.179  12.619
75223W        W46949  28.487  28.849  12.399
75224W        W46950  24.475   4.239  10.990
75225W        W46951  19.704  16.746  14.909
75226W        W46952  14.719  29.551   0.984
75227W        W46953  13.194   4.872   0.608
75228W        W46954  10.842   2.980   1.491
75229W        W46955   9.652   2.091   0.752
75230W        W46956   7.837  25.238   2.368
75231W        W46957  14.128  36.337   1.004
75232W        W46958  13.195  24.023  11.797
75233W        W46959  24.645  14.777   3.085
75234W        W46960  41.766  18.407   0.818
75235W        W46961  33.145  10.914  12.457
75236W        W46962  14.344  24.028  10.735
75237W        W46963  19.276  33.120  12.208
75238W        W46964   3.230  40.323   5.301
75239W        W46965   4.268  12.329   2.727
75240W        W46966   3.186   9.473   1.734
75241W        W46967   2.813  37.129  11.538
75242W        W46968  14.054  27.958  10.726
75243W        W46969  19.508  12.782  12.074
75244W        W46970   9.832  26.110   3.903
75245W        W46971   4.442  37.074  10.436
75246W        W46972  13.114  33.912  11.545
75247W        W46973  38.031  27.935  11.093
75248W        W46974  33.408  25.113  14.527
75249W        W46975  17.357  14.383   4.299
75250W        W46976  12.269  33.907   1.760
75251W        W46977  22.217  35.973   0.270
75252W        W46978  11.890  24.143  13.458
75253W        W46979   6.662  33.915  13.454
75254W        W46980  34.349   3.532   0.607
75255W        W46981   4.122  21.734   4.255
75256W        W46982  38.543  18.629   4.713
75257W        W46983  39.055  33.795   1.781
75258W        W46984   5.308  35.676  11.050
75259W        W46985  18.539  18.732  12.062
75260W        W46986   2.829   8.176   3.062
75261W        W46987  23.226  43.305   0.719
75262W        W46988  10.643  29.676  13.016
75263W        W46989  41.572  15.333  11.538
75264W        W46990  11.706  11.327   3.563
75265W        W46991  23.716  26.601   3.712
75266W        W46992  22.946  10.396  12.289
75267W        W46993  25.237   0.987   5.428
75268W        W46994   4.412  21.112  11.023
75269W        W46995  26.954  15.671   4.555
75270W        W46996  23.136  34.185   2.270
75271W        W46997  20.800  36.868   0.696
75272W        W46998   5.371   5.541  14.376
75273W        W46999   1.342  11.644   2.672
75274W        W47000   1.700  13.200  14.182
75275W        W47001  32.876  43.290   1.462
75276W        W47002  32.185   2.177   3.791
75277W        W47003  29.654  22.649  14.388
75278W        W47004  34.457  10.947   3.803
75279W        W47005  22.554  16.154  14.979
75280W        W47006   2.463   4.796   3.325
75281W        W47007   4.190  12.710   2.021
75282W        W47008  15.651   2.793   3.677
75283W        W47009   7.440  32.688  13.991
75284W        W47010  42.663  15.249   0.034
75285W        W47011  34.278  12.377  10.688
75286W        W47012  22.052   5.731  11.615
75287W        W47013   0.795  43.385  12.879
75288W        W47014  30.636  41.956   0.194
75289W        W47015   6.932   5.196  12.315
75290W        W47016  18.260   7.742   3.855
75291W        W47017  33.599  28.472   0.822
75292W        W47018  34.442  17.690  13.858
75293W        W47019  15.727  11.400  12.961
75294W        W47020  40.252   5.993  14.109
75295W        W47021   6.319  37.762  13.951
75296W        W47022   6.789  11.587  11.043
75297W        W47023   8.162   6.465   5.069
75298W        W47024  12.101  41.459   0.030
75299W        W47025  21.797  14.859   1.228
75300W        W47026  16.278   7.344   0.351
75301W        W47027  16.617   9.186   3.888
75302W        W47028  32.551  12.084  13.154
75303W        W47029  37.336  40.388  12.940
75304W        W47030  43.798  34.857  14.834
75305W        W47031  38.412  25.367   0.999
75306W        W47032  42.975   0.095  14.450
75307W        W47033  10.680  17.200   1.494
75308W        W47034   5.538   3.744  12.089
75309W        W47035  19.050  11.174   4.153
75310W        W47036  33.453  40.795   0.017
75311W        W47037  18.680  27.667   1.959
75312W        W47038  33.933  16.616  10.499
75313W        W47039  23.892  26.440   3.250
75314W        W47040  44.858  22.509  13.373
75315W        W47041  17.767  20.426  14.001
75316W        W47042  12.131  25.983  13.507
75317W        W47043   7.906  17.653   3.812
75318W        W47044  21.176   4.150   2.498
75319W        W47045  37.787  36.845   2.619
75320W        W47046  24.286  44.513  14.001
75321W        W47047  11.744  42.348   3.295
75322W        W47048  43.100   4.577   1.483
75323W        W47049  40.843  37.109   4.799
75324W        W47050   2.767  11.279   1.814
75325W        W47051   8.387  16.213  13.339
75326W        W47052  34.839  23.720   4.574
75327W        W47053  43.324  38.720   4.201
75328W        W47054  44.274  38.824  13.971
75329W        W47055   5.378  20.251   0.486
75330W        W47056  32.166  13.087   3.743
75331W        W47057  37.025   5.689   0.910
75332W        W47058   5.794  40.288   2.790
75333W        W47059  34.755  22.762  11.709
75334W        W47060  22.770  32.637   2.823
75335W        W47061  32.853  25.933   1.214
75336W        W47062  10.220  24.402   1.976
75337W        W47063  11.084  18.364  10.932
75338W        W47064  12.305   1.856   1.318
75339W        W47065   0.324  41.581  12.774
75340W        W47066  24.500  28.061   3.802
75341W        W47067   8.900   3.725   2.823
75342W        W47068  27.987   6.174   2.143
75343W        W47069   5.656  41.379  10.935
75344W        W47070  39.318  19.137   0.810
75345W        W47071  25.212  18.663   2.720
75346W        W47072  33.888   8.266   3.659
75347W        W47073  43.442   3.382   1.443
75348W        W47074   8.239  10.304  13.023
75349W        W47075  20.106  43.101  12.105
75350W        W47076  18.226   4.922  12.213
75351W        W47077  35.488  32.585  13.410
75352W        W47078   8.862  33.593   0.325
75353W        W47079  35.243  13.189   1.896
75354W        W47080  32.790  12.196   3.528
75355W        W47081   5.751  43.111   3.222
75356W        W47082  42.897  19.853   1.648
75357W        W47083  15.918  39.905  12.090
75358W        W47084  25.045  32.361  12.999
75359W        W47085   1.990  21.472  12.910
75360W        W47086   8.728   3.997   2.411
75361W        W47087  30.171  35.351  14.409
75362W        W47088  30.963   3.263  13.713
75363W        W47089  14.240  18.095   4.496
75364W        W47090   6.752  26.845   1.361
75365W        W47091  26.943  35.897  14.540
75366W        W47092  14.218  37.048  14.748
75367W        W47093  40.458  44.026  14.628
75368W        W47094  37.438   4.763  13.942
75369W        W47095  32.911   9.470   2.822
75370W        W47096   7.441   1.147  12.373
75371W        W47097  29.778  14.087  13.311
75372W        W47098  23.688  35.316  14.974
75373W        W47099  42.746  24.682  12.132
75374W        W47100   2.542  32.535  12.967
75375W        W47101  21.414  38.908   0.408
75376W        W47102   5.784  31.086  14.858
75377W        W47103   4.692  40.453   0.361
75378W        W47104   2.189  32.238   9.917
75379W        W47105  30.206  14.877  13.541
75380W        W47106  30.965   0.438  11.518
75381W        W47107   2.610  44.977  14.461
75382W        W47108  14.224  41.294  10.591
75383W        W47109   5.341  43.020  10.688
75384W        W47110  32.934  37.866   3.851
75385W        W47111  27.396  29.120   0.744
75386W        W47112   0.681  27.494  12.941
75387W        W47113  39.905  25.793  12.012
75388W        W47114  18.191  31.343   3.191
75389W        W47115  14.600  27.175   4.197
75390W        W47116  40.868   5.316  12.168
75391W        W47117  25.474   9.518  14.439
75392W        W47118   5.376  38.040  11.400
75393W        W47119  43.152  30.470   0.704
75394W        W47120  35.788  16.117  11.964
75395W        W47121   3.937  30.840  11.138
75396W        W47122  25.605  28.505   0.007
75397W        W47123   2.205  36.493   2.216
75398W        W47124  42.447  25.115   1.714
75399W        W47125   7.878  28.121  12.875
75400W        W47126   4.187  37.991   3.137
75401W        W47127   8.326  14.388  13.105
75402W        W47128  17.390   5.294   2.145
75403W        W47129  12.211   7.734   4.486
75404W        W47130  41.467  14.564  14.251
75405W        W47131   9.931  11.904  14.948
75406W        W47132   1.220  11.733   1.259
75407W        W47133  14.857   2.487  14.390
75408W        W47134  27.469  23.326  11.050
75409W        W47135   2.987   8.274  14.679
75410W        W47136   8.660   5.257   4.589
75411W        W47137  30.700  38.271  12.440
75412W        W47138  21.705  21.149  10.678
75413W        W47139   1.722  13.806  11.210
75414W        W47140   5.044  27.823  12.041
75415W        W47141   5.512  25.973  11.736
75416W        W47142   6.127  30.305   1.237
75417W        W47143   1.000  20.126  11.468
75418W        W47144  33.124  38.522  14.411
75419W        W47145  19.786  35.617   3.178
75420W        W47146   9.691  11.187   2.400
75421W        W47147  39.922  42.251   3.730
75422W        W47148  27.587  17.935  10.641
75423W        W47149  15.827   3.806   3.196
75424W        W47150  12.789  24.744  13.411
75425W        W47151  28.913  34.543   4.615
75426W        W47152  29.384  15.221  12.254
75427W        W47153  32.865  10.872   2.876
75428W        W47154  43.787  32.264   4.030
75429W        W47155   2.880  23.460  13.402
75430W        W47156  14.861   7.909   4.519
75431W        W47157  36.036  22.148  10.700
75432W        W47158  22.748  42.316  14.380
75433W        W47159  25.590   4.462   3.804
75434W        W47160  14.689  37.883   9.797
75435W        W47161  34.349  25.953   2.804
75436W        W47162  10.200  16.451   1.135
75437W        W47163  42.529   5.197   3.318
75438W        W47164  10.743  17.581  13.300
75439W        W47165  11.943  14.711  14.681
75440W        W47166   3.459  20.482  13.966
75441W        W47167   8.874   8.823   2.360
75442W        W47168  22.455  41.555   3.289
75443W        W47169   9.543  41.736  11.924
75444W        W47170   2.788   9.100  11.054
75445W        W47171  13.098  43.191  10.461
75446W        W47172   2.189  26.278  14.401
75447W        W47173  22.907  29.560   4.957
75448W        W47174  26.147  13.874   0.479
75449W        W47175  33.052   0.914   0.336
75450W        W47176   0.997  37.080  10.653
75451W        W47177   9.137  38.644   1.225
75452W        W47178  44.765  29.379  11.633
75453W        W47179  39.540   2.756  10.727
75454W        W47180   2.353  27.779  13.609
75455W        W47181  20.802  15.227   4.661
75456W        W47182  30.005  14.551  13.195
75457W        W47183  25.315  10.158   3.963
75458W        W47184  29.319  28.480  13.386
75459W        W47185  39.289  27.671   3.816
75460W        W47186  40.301   6.038  14.907
75461W        W47187   3.380  18.203   1.713
75462W        W47188  40.121   3.761   4.279
75463W        W47189   8.726   2.020   2.116
75464W        W47190  10.038  23.171  11.157
75465W        W47191  41.995   0.027   3.272
75466W        W47192  39.591  23.463  13.006
75467W        W47193  29.594  31.638  14.473
75468W        W47194  31.202  40.881  13.974
75469W        W47195  32.449  33.468  13.485
75470W        W47196  31.006  37.929  10.630
75471W        W47197   6.683  39.010  14.879
75472W        W47198  17.087  41.283  11.119
75473W        W47199  14.272  13.497  12.717
75474W        W47200   4.671  31.451   0.475
75475W        W47201  32.092  25.528   2.824
75476W        W47202   9.357   4.467   4.805
75477W        W47203   7.429  33.817  10.843
75478W        W47204  42.791  31.956  14.367
75479W        W47205  13.094  38.652  14.496
75480W        W47206  26.011  20.057   3.746
75481W        W47207  35.538   1.737  13.780
75482W        W47208   3.134   8.089  12.010
75483W        W47209  12.291  43.036   0.175
75484W        W47210  26.624  21.673   0.129
75485W        W47211   7.141  10.602   2.996
75486W        W47212  30.259  11.616  11.526
75487W        W47213  12.690   3.933  14.506
75488W        W47214  11.572  25.646  14.819
75489W        W47215  27.260  35.197  12.948
75490W        W47216   5.389  39.845  14.431
75491W        W47217   7.834  14.882   3.898
75492W        W47218  42.665  38.387   3.883
75493W        W47219  25.443  38.509  14.321
75494W        W47220  16.574   1.498  11.251
75495W        W47221  14.066   8.446   3.676
75496W        W47222  38.373  13.320   0.909
75497W        W47223  37.952  14.313   3.275
75498W        W47224  43.235   2.530   1.924
75499W        W47225  26.462  34.636   0.802
75500W        W47226  22.801  16.611  14.893
75501W        W47227  33.529   7.324   2.125
75502W        W47228  13.864  22.062  10.570
75503W        W47229  15.784  20.283  11.233
75504W        W47230   9.988   2.398  12.339
75505W        W47231  25.480   1.961   0.634
75506W        W47232  20.636  18.789   2.719
75507W        W47233  42.070  31.712  14.997
75508W        W47234  16.622   5.806  12.647
75509W        W47235  24.747   5.110   2.294
75510W        W47236   9.346   9.721  10.767
75511W        W47237  19.285  17.127   1.182
75512W        W47238   0.410  25.677   1.861
75513W        W47239  10.842  24.170   0.663
75514W        W47240  31.210  24.711   3.145
75515W        W47241   7.120  18.155   1.784
75516W        W47242  43.728  24.649  13.463
75517W        W47243  14.359  41.974  13.414
75518W        W47244  30.691  13.740  10.696
75519W        W47245   3.710   9.726   4.800
75520W        W47246  31.425   7.571   1.877
75521W        W47247  30.605  37.057  14.993
75522W        W47248  23.629  40.598  14.392
75523W        W47249   3.121  44.427  13.496
75524W        W47250  12.382  34.046  10.861
75525W        W47251   3.814  35.117   1.689
75526W        W47252   3.220   4.881   2.798
75527W        W47253   4.198   7.169   3.330
75528W        W47254   7.360   9.638   4.521
75529W        W47255  43.424  20.580  14.052
75530W        W47256  39.589   9.794   2.455
75531W        W47257   5.137   7.601   0.939
75532W        W47258  32.358  44.230   0.765
75533W        W47259  31.445  19.845  11.106
75534W        W47260  11.264  40.551   3.343
75535W        W47261  22.480  20.690  11.235
75536W        W47262  27.799  33.396   0.238
75537W        W47263   8.683   2.502   3.385
75538W        W47264  38.588  26.026  12.019
75539W        W47265  13.676  41.001  13.280
75540W        W47266  39.337  31.070  14.785
75541W        W47267  12.115  43.533   0.182
75542W        W47268  38.347  18.032  10.879
75543W        W47269  44.330   4.162   1.933
75544W        W47270  15.803  23.221   1.772
75545W        W47271   0.030  41.456  10.726
75546W        W47272  26.219  14.102  14.293
75547W        W47273   9.742  16.625   1.400
75548W        W47274  28.014  30.012   1.591
75549W        W47275  26.589  44.943   2.666
75550W        W47276  40.985  14.237  10.717
75551W        W47277   4.938   0.655  14.893
75552W        W47278  12.166  44.480  12.382
75553W        W47279  32.509  26.267   5.029
75554W        W47280  13.430  18.055  11.597
75555W        W47281   8.501   0.738  14.962
75556W        W47282  15.768  26.732  10.258
75557W        W47283  16.844  14.825  14.072
75558W        W47284  33.439   1.297  14.603
75559W        W47285   3.911  16.224   3.120
75560W        W47286  19.518  31.292   4.020
75561W        W47287  21.103   9.436  14.517
75562W        W47288  33.051  14.141  14.054
75563W        W47289  23.041  13.561   3.869
75564W        W47290  35.589  39.426   3.817
75565W        W47291  26.992  28.106   4.954
75566W        W47292  28.109  23.944   0.857
75567W        W47293  32.063  34.803   2.408
75568W        W47294  18.133  41.621   4.238
75569W        W47295   9.104  16.556  11.981
75570W        W47296  39.831  23.187   4.534
75571W        W47297  34.138  32.379   1.283
75572W        W47298  23.736  31.907  12.869
75573W        W47299  14.347  32.648  12.705
75574W        W47300  14.399   5.401  12.938
75575W        W47301  29.849  24.215   2.839
75576W        W47302  15.285  13.607   1.831
75577W        W47303   5.802  25.661   3.388
75578W        W47304  19.886  16.753   0.387
75579W        W47305  29.939  28.742   2.469
75580W        W47306   7.002  21.070  11.435
75581W        W47307   4.989  20.500  11.976
75582W        W47308  43.475   6.691  13.599
75583W        W47309  22.583   3.429  13.541
75584W        W47310  10.645  33.707  12.429
75585W        W47311   5.611  42.637   1.356
75586W        W47312  36.871  23.587  14.810
75587W        W47313   5.104  20.815  14.820
75588W        W47314  26.640  40.486  14.931
75589W        W47315   5.686  32.877  14.847
75590W        W47316   7.930   5.265   1.388
75591W        W47317  31.394  16.102   3.682
75592W        W47318   7.677  22.894   4.072
75593W        W47319   5.391  19.111  10.632
75594W        W47320  26.267  29.060  13.012
75595W        W47321  37.332   6.666  11.141
75596W        W47322   9.951  18.251   3.111
75597W        W47323  34.009  43.324  12.574
75598W        W47324  30.966  28.120  14.703
75599W        W47325  18.059  32.183   4.966
75600W        W47326  36.573  19.880  11.570
75601W        W47327  23.939  36.037  10.612
75602W        W47328  40.896  25.349   2.330
75603W        W47329  13.710   4.336  13.482
75604W        W47330   7.975  30.365   1.375
75605W        W47331  22.901   1.323   0.333
75606W        W47332  30.901  13.739   3.276
75607W        W47333  23.522   2.421  11.184
75608W        W47334  43.365   9.582   1.282
75609W        W47335  38.560  30.911  11.618
75610W        W47336  43.538  42.354  14.819
75611W        W47337  39.941   3.715   2.382
75612W        W47338  44.843  31.661  12.155
75613W        W47339  28.071  29.185   3.679
75614W        W47340   2.991  44.022   0.482
75615W        W47341  13.305  41.443  12.132
75616W        W47342  26.531  25.620  12.842
75617W        W47343  27.336  21.311  14.422
75618W        W47344  21.796  12.747  12.438
75619W        W47345  21.503  41.931   2.907
75620W        W47346  22.112  20.020   3.703
75621W        W47347  13.265  24.772  13.625
75622W        W47348  35.847  30.057   0.171
75623W        W47349  15.362  41.362   4.554
75624W        W47350   2.172  25.704  14.861
75625W        W47351  30.494  32.925   1.027
75626W        W47352  13.549  24.936   1.756
75627W        W47353   8.738  14.649  12.542
75628W        W47354  10.342  35.888   3.331
75629W        W47355   9.257   8.848   9.941
75630W        W47356  10.750  26.112   0.771
75631W        W47357   1.990  34.933  13.774
75632W        W47358  20.548   7.738  13.023
75633W        W47359  44.038  44.576   0.369
75634W        W47360   6.248  19.923  11.795
75635W        W47361  33.358  19.300   1.381
75636W        W47362   5.259  30.116  11.576
75637W        W47363  17.282   7.460  12.701
75638W        W47364  44.353   2.696  14.483
75639W        W47365   0.367  15.198  12.429
75640W        W47366  21.626  20.039   4.476
75641W        W47367  22.815  17.161  13.064
75642W        W47368   5.825  21.122   0.857
75643W        W47369   8.923   8.750  12.498
75644W        W47370  42.624  33.647  13.805
75645W        W47371  20.577  19.006  12.461
75646W        W47372  11.808  34.127  14.937
75647W        W47373  27.125  28.855  10.778
75648W        W47374  19.865  18.127   4.107
75649W        W47375  44.791  42.219   3.758
75650W        W47376  12.869   7.672  12.388
75651W        W47377  38.525  17.984   0.838
75652W        W47378  38.303  42.859  12.962
75653W        W47379  32.893  40.922   1.244
75654W        W47380  11.658  43.504   2.693
75655W        W47381  29.671  31.360  14.886
75656W        W47382  27.091  39.516   0.190
75657W        W47383  16.229   7.290  12.539
75658W        W47384  10.064  29.772   5.001
75659W        W47385   9.787  19.601  10.745
75660W        W47386  40.362  10.291   2.940
75661W        W47387  42.983  26.633   0.659
75662W        W47388  13.286   2.261   0.516
75663W        W47389   3.648   4.859  12.438
75664W        W47390  42.422  38.546  13.419
75665W        W47391  28.705  29.553  11.148
75666W        W47392   9.031  44.135   9.828
75667W        W47393   0.765  29.705  13.296
75668W        W47394  33.732  16.071   0.227
75669W        W47395   8.011   7.754  11.101
75670W        W47396  31.034  29.474   3.174
75671W        W47397  11.603  27.905  10.939
75672W        W47398   4.191  17.801  11.677
75673W        W47399  26.494  23.683   1.447
75674W        W47400  10.856   7.635  14.840
75675W        W47401  43.553  19.563   1.387
75676W        W47402   8.186  44.752  13.466
75677W        W47403  44.926  27.460  14.404
75678W        W47404  27.224  32.159  12.139
75679W        W47405  14.340  14.366  12.871
75680W        W47406  41.803   8.312  13.947
75681W        W47407  18.318   8.572   4.445
75682W        W47408  42.817  37.379   0.798
75683W        W47409  19.337   1.457  12.599
75684W        W47410  33.546  35.543   0.863
75685W        W47411   1.989  29.525   2.864
75686W        W47412  31.032   9.970  10.677
75687W        W47413  13.548  44.580  10.735
75688W        W47414  25.648  27.193   2.307
75689W        W47415  29.944   8.685   2.626
75690W        W47416  29.711  29.850  11.596
75691W        W47417  34.550  11.243  14.868
75692W        W47418   8.346  21.028   0.230
75693W        W47419  32.646   1.855  13.905
75694W        W47420  37.591  15.585   2.803
75695W        W47421  28.445   8.258   0.225
75696W        W47422   9.259  19.774  10.661
75697W        W47423  37.201  39.510   2.839
75698W        W47424  14.269  34.942   0.932
75699W        W47425  26.550   2.585  13.604
75700W        W47426  12.163  42.425   0.898
75701W        W47427  44.934  21.066  10.615
75702W        W47428  15.132  12.670  14.404
75703W        W47429  11.307  43.980   0.748
75704W        W47430  25.281  34.865   2.645
75705W        W47431  38.490  27.019  11.885
75706W        W47432  35.380  20.102  11.500
75707W        W47433  44.158  15.264   1.404
75708W        W47434  40.707  31.011  11.752
75709W        W47435  41.987  28.300   0.696
75710W        W47436  15.023   6.176   0.945
75711W        W47437   2.998   2.719   2.754
75712W        W47438   3.018  10.815  11.591
75713W        W47439  28.706  42.867  13.059
75714W        W47440  14.444  16.586  12.980
75715W        W47441   8.756   3.692   1.365
75716W        W47442  13.158  15.430  14.131
75717W        W47443  12.250  25.539   1.177
75718W        W47444  26.975   5.149  12.467
75719W        W47445  28.511  41.017  14.354
75720W        W47446   4.784  14.230  12.633
75721W        W47447  16.203  33.052  13.436
75722W        W47448  30.315   8.240   3.879
75723W        W47449  11.747  41.375  11.736
75724W        W47450  17.560  23.380   0.302
75725W        W47451  21.584  37.986   0.235
75726W        W47452  42.005   2.788   0.516
75727W        W47453  22.560  44.886   0.352
75728W        W47454  10.677  23.113  10.323
75729W        W47455   8.757  15.561  12.059
75730W        W47456  19.620  23.220   3.361
75731W        W47457  10.641  40.761   0.792
75732W        W47458  17.442  12.556  14.298
75733W        W47459   6.411  28.256  13.655
75734W        W47460  37.954  23.624  14.396
75735W        W47461  36.903   4.663  10.029
75736W        W47462  27.375  26.592   4.141
75737W        W47463  20.798   4.593  12.296
75738W        W47464  25.265   0.942   2.043
75739W        W47465  13.650  43.278   4.901
75740W        W47466  44.306   8.403  11.187
75741W        W47467  19.449  33.333  12.665
75742W        W47468  40.263  41.161  11.212
75743W        W47469  44.790  31.866  12.632
75744W        W47470   9.787  25.055   2.846
75745W        W47471  40.523  10.229   5.155
75746W        W47472  33.817  27.971   4.387
75747W        W47473  31.524  29.493   0.988
75748W        W47474   1.503  31.496   4.866
75749W        W47475  11.583  44.005   2.834
75750W        W47476   5.349  21.997  11.122
75751W        W47477  30.821   1.611  11.226
75752W        W47478   9.647  35.911  14.723
75753W        W47479   6.451  42.803   2.163
75754W        W47480  15.530   9.368   0.375
75755W        W47481  43.803  12.199  12.238
75756W        W47482  32.051  34.482  12.725
75757W        W47483   1.838  15.231   2.699
75758W        W47484  33.352   2.236  14.293
75759W        W47485  20.966  27.641   0.845
75760W        W47486  23.828  18.170  11.083
75761W        W47487  14.566  21.167  14.480
75762W        W47488  40.420  36.011   2.745
75763W        W47489  13.042  22.640   2.339
75764W        W47490  15.585  29.551   4.295
75765W        W47491  44.035  12.844   1.386
75766W        W47492  26.241  20.359  14.389
75767W        W47493  38.697  44.998   1.739
75768W        W47494   5.004  11.349  11.183
75769W        W47495  25.480  30.088  10.682
75770W        W47496  29.897  42.345   0.866
75771W        W47497  36.930  18.000  11.629
75772W        W47498  23.112   4.649  14.278
75773W        W47499  44.285  26.563   3.687
75774W        W47500  22.291  16.613  14.883
75775W        W47501  25.703  18.046   3.195
75776W        W47502  23.432  40.380  11.588
75777W        W47503   6.739  43.805  12.959
75778W        W47504  26.278  28.119  11.159
75779W        W47505  17.361  19.201   4.208
75780W        W47506  32.339   9.759   1.132
75781W        W47507  29.398  31.184   4.127
75782W        W47508  42.074   2.865  13.487
75783W        W47509   4.764  22.415  13.380
75784W        W47510   1.326  33.734   4.824
75785W        W47511  11.247  35.612  10.215
75786W        W47512  29.420  13.878   0.363
75787W        W47513  44.766  15.301   4.164
75788W        W47514  17.740  36.537  11.259
75789W        W47515  19.249  36.306   1.449
75790W        W47516   9.270  34.488  14.450
75791W        W47517  18.204  32.592   1.838
75792W        W47518  34.603  12.671  12.599
75793W        W47519   7.405  16.267   3.515
75794W        W47520  27.968  32.088  14.062
75795W        W47521  12.063  10.597  10.344
75796W        W47522   8.642  21.628  13.559
75797W        W47523   7.308  37.151  13.362
75798W        W47524  28.011  26.634  13.368
75799W        W47525  37.333  15.613   3.236
75800W        W47526   2.431  36.829  14.852
75801W        W47527  24.882  31.016  11.560
75802W        W47528  35.579   6.267   4.088
75803W        W47529  22.247  24.090  12.061
75804W        W47530   5.266  31.050   0.995
75805W        W47531  40.037  13.747   3.684
75806W        W47532  25.438   5.996   0.887
75807W        W47533  40.223   4.116   2.257
75808W        W47534  23.243  35.082   0.890
75809W        W47535  18.895   0.726   1.321
75810W        W47536  44.550   6.237   0.957
75811W        W47537   4.118  44.545  13.439
75812W        W47538   8.699  24.631   1.637
75813W        W47539  41.926  21.040   2.860
75814W        W47540   4.736  10.450  10.673
75815W        W47541  11.728  39.959   2.284
75816W        W47542  36.777  23.441  13.975
75817W        W47543  39.062  29.225  14.372
75818W        W47544  19.078  29.371   1.635
75819W        W47545  37.836  24.635  13.002
75820W        W47546  18.004  24.148   3.341
75821W        W47547  36.770  10.562   2.337
75822W        W47548  40.036   2.382   0.938
75823W        W47549  17.707  13.297  13.937
75824W        W47550  11.292   2.331  13.426
75825W        W47551   2.397  15.883  12.426
75826W        W47552  38.857  35.553   1.229
75827W        W47553  39.003  39.987   3.094
75828W        W47554   3.288   5.239  14.288
75829W        W47555  20.734  43.490  14.006
75830W        W47556  11.309  22.569   1.378
75831W        W47557  12.539  42.226  13.494
75832W        W47558   8.059   0.351  11.805
75833W        W47559   7.952  24.444   2.848
75834W        W47560  21.824  40.036   4.017
75835W        W47561  10.378  13.761  14.948
75836W        W47562  29.911   7.616   4.141
75837W        W47563  22.535  10.365   3.112
75838W        W47564   7.150  14.744   0.732
75839W        W47565   2.296   1.388  10.473
75840W        W47566  18.800   0.398  10.608
75841W        W47567   9.732  12.846  11.669
75842W        W47568   0.543  19.772  13.475
75843W        W47569   4.926  33.899  11.182
75844W        W47570  13.623  16.890   0.649
75845W        W47571  24.690  27.528  10.634
75846W        W47572   3.466  30.504   2.663
75847W        W47573  34.684  40.367   2.192
75848W        W47574  36.856  37.658   2.740
75849W        W47575  14.881   2.995  11.520
75850W        W47576  29.893  26.794  12.073
75851W        W47577  33.576  17.075   1.642
75852W        W47578  40.849  43.471  14.986
75853W        W47579  24.062  42.283  13.587
75854W        W47580  23.166  12.373   3.299
75855W        W47581  44.215  21.111  11.850
75856W        W47582  40.474  28.693  13.844
75857W        W47583   2.420  17.489   4.961
75858W        W47584   0.182  38.877   0.958
75859W        W47585  23.431  39.384  13.887
75860W        W47586   7.442  27.859  11.561
75861W        W47587  24.270  40.835   3.240
75862W        W47588  21.802  37.646  14.376
75863W        W47589  26.476  17.735   2.325
75864W        W47590   7.441  18.997  11.695
75865W        W47591  41.021  28.975   1.368
75866W        W47592   0.818  14.510  11.149
75867W        W47593   6.079  34.369   2.863
75868W        W47594  19.501  23.774  13.000
75869W        W47595  17.974  31.355   0.455
75870W        W47596  20.086  26.169   2.813
75871W        W47597  15.711  24.820  11.571
75872W        W47598  16.339  41.120  12.916
75873W        W47599   6.482  14.637  10.230
75874W        W47600  42.084  29.410   2.441
75875W        W47601   3.184  35.788   4.056
75876W        W47602  43.477   3.350   4.600
75877W        W47603  18.646  40.127  12.913
75878W        W47604  44.069  33.419   3.178
75879W        W47605  22.463  28.455   3.285
75880W        W47606   5.810  42.471  13.788
75881W        W47607  29.534   9.225  14.405
75882W        W47608  34.338  41.101  13.215
75883W        W47609  26.211   4.321   1.243
75884W        W47610  43.411   2.159  10.433
75885W        W47611   1.270  38.796  13.772
75886W        W47612  23.978  24.631  13.104
75887W        W47613  19.986  37.742  14.251
75888W        W47614  28.608  41.906  14.090
75889W        W47615  38.937  39.999  12.001
75890W        W47616  14.581  41.828  12.943
75891W        W47617  17.650  19.538   2.442
75892W        W47618  28.718  14.701  13.037
75893W        W47619  31.565  25.031   0.257
75894W        W47620  15.292  44.369  11.498
75895W        W47621  26.976  12.839   0.422
75896W        W47622   6.756  12.541   1.011
75897W        W47623  33.453  44.548   5.065
75898W        W47624  13.281  27.554   3.333
75899W        W47625  15.553  28.684   3.902
75900W        W47626  18.973  13.368   1.321
75901W        W47627  14.616  42.409  12.570
75902W        W47628  14.174  26.493  11.022
75903W        W47629   3.764  17.743   0.088
75904W        W47630  34.681  32.759   3.666
75905W        W47631  28.244  13.330   0.860
75906W        W47632   5.673  26.605  10.558
75907W        W47633  36.774  44.848   2.238
75908W        W47634  11.556   7.215   0.799
75909W        W47635   2.117  33.071   0.918
75910W        W47636   8.837  33.811  13.387
75911W        W47637  34.071  23.403  13.540
75912W        W47638  22.089  31.486   4.409
75913W        W47639   4.829  17.150   4.103
75914W        W47640  42.961   5.861  12.537
75915W        W47641  31.623  23.112   4.115
75916W        W47642  38.542   8.249  13.577
75917W        W47643  27.672  34.954  12.721
75918W        W47644  21.228   4.231  14.859
75919W        W47645  33.120  23.688   5.070
75920W        W47646  11.423  12.700   3.821
75921W        W47647   0.724  24.529  12.122
75922W        W47648  33.891   8.624  10.636
75923W        W47649  32.079   2.204  11.089
75924W        W47650  26.536  31.056   1.664
75925W        W47651   6.781  18.129   1.366
75926W        W47652  37.259  44.038  14.883
75927W        W47653  11.693  35.184   1.717
75928W        W47654  26.817  17.892   3.653
75929W        W47655  40.835  43.311   2.432
75930W        W47656   8.229  37.447  12.036
75931W        W47657  39.041   9.885  12.378
75932W        W47658  37.985  41.360  13.374
75933W        W47659  26.902  31.161  12.983
75934W        W47660  30.896  41.788  11.766
75935W        W47661  40.263  15.772  13.516
75936W        W47662  15.091  32.191   4.002
75937W        W47663  30.070   0.734  11.864
75938W        W47664  16.512  29.867  12.196
75939W        W47665  29.527   2.900   0.250
75940W        W47666  23.031  41.322  10.553
75941W        W47667   0.741  29.878  10.749
75942W        W47668  36.519  39.762   2.286
75943W        W47669  16.676  32.711   1.831
75944W        W47670  23.117  30.618  14.812
75945W        W47671  41.300  17.217   1.374
75946W        W47672  41.888   5.725   3.256
75947W        W47673   3.347  11.947   1.337
75948W        W47674  24.720  12.293  14.621
75949W        W47675   4.237   3.815   1.261
75950W        W47676  33.175  43.825   3.990
75951W        W47677  43.916  27.537  14.347
75952W        W47678  35.648  17.280   0.707
75953W        W47679  33.885  43.370   2.870
75954W        W47680  15.537   6.475  14.310
75955W        W47681  34.677  28.116   1.418
75956W        W47682  23.262   0.267   2.297
75957W        W47683  40.758  32.697  11.158
75958W        W47684  16.753  19.862   4.008
75959W        W47685  17.088  34.591   2.319
75960W        W47686   2.637  22.572   1.700
75961W        W47687  28.387   8.376  14.359
75962W        W47688  19.033  25.084  12.807
75963W        W47689  29.744  40.096   1.119
75964W        W47690  38.464   6.614  11.110
75965W        W47691  40.564  42.150   4.949
75966W        W47692  18.306   9.444   0.738
75967W        W47693  23.043  32.954  14.012
75968W        W47694  36.670  13.313   4.085
75969W        W47695  40.970  18.286   0.454
75970W        W47696  35.406  11.795  11.123
75971W        W47697   5.329  12.992  10.173
75972W        W47698   4.407  22.652  10.910
75973W        W47699  12.312  42.395  10.609
75974W        W47700  11.449  25.126  13.534
75975W        W47701  23.972   5.276   1.909
75976W        W47702  33.621   5.219   1.945
75977W        W47703  30.481   6.307  14.437
75978W        W47704  16.136   5.518   4.075
75979W        W47705  22.673  22.571   5.395
75980W        W47706  21.134  30.879  12.462
75981W        W47707  43.434  38.012   0.379
75982W        W47708  31.035   8.359   4.133
75983W        W47709  13.745  30.688  12.886
75984W        W47710  12.249   2.693  13.396
75985W        W47711  41.284  37.942  13.840
75986W        W47712  24.730   9.810  13.987
75987W        W47713  16.204  34.598   1.885
75988W        W47714   6.636  19.552   3.771
75989W        W47715  15.040  24.058  14.436
75990W        W47716  21.230  42.398   3.421
75991W        W47717  14.628  13.179  13.932
75992W        W47718  23.121  43.747   4.245
75993W        W47719  20.597  40.928   3.948
75994W        W47720  16.757  43.220  11.019
75995W        W47721   2.914   9.665  14.073
75996W        W47722  11.592  33.472  13.601
75997W        W47723  38.527  42.359  14.661
75998W        W47724   8.701  24.743  11.538
75999W        W47725  29.275  37.219   5.301
76000W        W47726   3.243   1.758   3.651
76001W        W47727  37.673  14.314  14.218
76002W        W47728  15.764  38.603  10.181
76003W        W47729  34.107  38.508  10.726
76004W        W47730   0.420   6.644   2.705
76005W        W47731  34.529  37.855   4.723
76006W        W47732  32.373  34.192  10.643
76007W        W47733   3.363  42.214   1.556
76008W        W47734   2.928  29.090  13.901
76009W        W47735  29.420  24.393  12.997
76010W        W47736  29.984  39.767  12.961
76011W        W47737  29.553  37.971   1.342
76012W        W47738  30.371   8.796   0.849
76013W        W47739  31.025  41.453   3.837
76014W        W47740  15.106  28.038  10.635
76015W        W47741  19.685  19.019  12.384
76016W        W47742   0.324  21.787   3.680
76017W        W47743  33.523  22.156  10.682
76018W        W47744  13.743   8.128  11.669
76019W        W47745  35.945  15.778   2.319
76020W        W47746   3.545   0.855  13.063
76021W        W47747   0.500   3.773   3.815
76022W        W47748  32.037  19.231  14.428
76023W        W47749  42.281  40.401   0.019
76024W        W47750  12.261  27.970   2.526
76025W        W47751  16.025  41.923  10.639
76026W        W47752   6.168  38.007  13.042
76027W        W47753  11.183   1.980   3.723
76028W        W47754   4.266   2.045   1.221
76029W        W47755  43.258  42.623  10.534
76030W        W47756  35.521  11.745   0.842
76031W        W47757  16.059  22.509  10.643
76032W        W47758  26.143   0.874  10.698
76033W        W47759  43.536  17.365  12.578
76034W        W47760  28.157  19.640  10.603
76035W        W47761  33.940   3.388   0.267
76036W        W47762  33.203  44.862  12.162
76037W        W47763   5.012  36.381  11.979
76038W        W47764  23.222  33.205   2.427
76039W        W47765  27.894  20.399   3.652
76040W        W47766  32.257  42.568  10.628
76041W        W47767   6.405  27.612  12.553
76042W        W47768  10.844  17.039  12.017
76043W        W47769  32.099  18.654  14.712
76044W        W47770   3.718   7.383  14.980
76045W        W47771   3.098  29.212   0.944
76046W        W47772  15.178   1.663  13.000
76047W        W47773  22.036  32.476  11.738
76048W        W47774   9.422  17.221   3.918
76049W        W47775   1.038  24.612  14.793
76050W        W47776  18.951   7.139   0.633
76051W        W47777  18.210   3.907   4.124
76052W        W47778  41.933  43.637   3.085
76053W        W47779  34.710   7.377  13.564
76054W        W47780  19.686  23.085  14.499
76055W        W47781   7.795  39.036   1.302
76056W        W47782  36.611  15.627   1.482
76057W        W47783  19.197  15.709   4.730
76058W        W47784  34.020   2.792   4.820
76059W        W47785  32.594   4.575   1.936
76060W        W47786  21.495  31.523   3.745
76061W        W47787  20.389   5.135  10.593
76062W        W47788  21.641  13.558   2.273
76063W        W47789   0.150  12.094   0.986
76064W        W47790  10.221  34.186  14.459
76065W        W47791  42.778  27.862  11.031
76066W        W47792  25.061   7.174   2.409
76067W        W47793  13.075  17.282   0.423
76068W        W47794   2.701  21.575  13.434
76069W        W47795  17.814   7.747   1.869
76070W        W47796  27.278  31.125  11.380
76071W        W47797  12.946   3.881   3.195
76072W        W47798  43.992  26.491  10.191
76073W        W47799  23.724   5.192  11.963
76074W        W47800  26.292  36.819   4.493
76075W        W47801  44.794  34.545   0.290
76076W        W47802  19.202  40.431   2.745
76077W        W47803  44.751  17.288  10.473
76078W        W47804  26.062  25.459  12.873
76079W        W47805  28.475  25.676  14.072
76080W        W47806  16.771   2.460  14.502
76081W        W47807  13.935   5.063  13.154
76082W        W47808   3.486  31.998   3.663
76083W        W47809  17.586   3.985   3.701
76084W        W47810  36.423  16.566   4.644
76085W        W47811  10.628  42.710  11.099
76086W        W47812  37.366  38.938   2.374
76087W        W47813  30.484  27.476  13.515
76088W        W47814  42.159  44.949  11.145
76089W        W47815   3.944  24.052  13.305
76090W        W47816  17.575  30.991   3.840
76091W        W47817  24.591  23.045   4.587
76092W        W47818  10.635  14.929   1.626
76093W        W47819   4.866  21.567  12.335
76094W        W47820   5.090  30.430   4.306
76095W        W47821  37.354  37.334  12.501
76096W        W47822  25.165   2.796  12.830
76097W        W47823  13.200  42.820  10.868
76098W        W47824  38.848   8.231  11.201
76099W        W47825  18.094  15.355   1.802
76100W        W47826  24.756  37.441   4.116
76101W        W47827  37.736  14.364   1.946
76102W        W47828  11.845   7.667   0.880
76103W        W47829  18.757   8.669  10.313
76104W        W47830  30.047   9.062  10.524
76105W        W47831  10.667  27.501   2.241
76106W        W47832  16.509   0.750  14.267
76107W        W47833  20.849  14.709  10.223
76108W        W47834  32.959  25.458  12.029
76109W        W47835  37.082  19.011  11.386
76110W        W47836  40.061  19.637   1.837
76111W        W47837  10.170  30.638   0.757
76112W        W47838   3.022  28.706   0.836
76113W        W47839  37.345  39.550   3.755
76114W        W47840   8.112   7.075  11.495
76115W        W47841   8.806  37.165   4.282
76116W        W47842  33.038   3.170   2.156
76117W        W47843   5.083  39.058   3.797
76118W        W47844   8.907  37.551   5.071
76119W        W47845   0.259  29.464  10.695
76120W        W47846  37.056  34.421   3.643
76121W        W47847  12.665  21.287  10.253
76122W        W47848   1.376  44.113  12.996
76123W        W47849  39.315  36.420  10.679
76124W        W47850   1.454  19.299  11.986
76125W        W47851  27.389  19.312   0.400
76126W        W47852   2.734   8.872   0.378
76127W        W47853  27.510  27.078  10.676
76128W        W47854  10.300  37.325   2.723
76129W        W47855   2.515  22.788  11.116
76130W        W47856   8.734  28.092  10.757
76131W        W47857  20.495  23.003   4.214
76132W        W47858   2.717  38.548   1.007
76133W        W47859  19.773  37.818   0.170
76134W        W47860  37.275  24.248  11.046
76135W        W47861  41.886  30.581   0.559
76136W        W47862  18.830   9.136   3.135
76137W        W47863  17.812  33.548   2.700
76138W        W47864  16.663  36.439   0.790
76139W        W47865   8.659  38.844   4.563
76140W        W47866   3.522  23.425   0.491
76141W        W47867   4.566  39.724  10.456
76142W        W47868  24.951  22.277   2.156
76143W        W47869  33.898  33.563   4.606
76144W        W47870  11.533  12.609   4.322
76145W        W47871  16.816  17.232   0.284
76146W        W47872  29.064  17.645  11.114
76147W        W47873  18.336   1.358  10.516
76148W        W47874  33.099  38.857  11.059
76149W        W47875  44.773   7.751  12.207
76150W        W47876  18.397  18.619   1.769
76151W        W47877  35.974   6.733  13.986
76152W        W47878  38.969  38.495   2.122
76153W        W47879  23.769   3.672   4.683
76154W        W47880  37.141  28.914   0.834
76155W        W47881  19.795  35.904  14.403
76156W        W47882  33.828  18.236  14.856
76157W        W47883  19.616   8.649  14.941
76158W        W47884   5.506  34.141   3.698
76159W        W47885  17.396  21.111   1.449
76160W        W47886  12.164  15.689  14.237
76161W        W47887  25.689  24.477   4.464
76162W        W47888  32.748  37.463  11.553
76163W        W47889  37.063   0.565  12.527
76164W        W47890  21.421  15.584   2.671
76165W        W47891   0.551  25.357   2.746
76166W        W47892  39.420  19.065   2.033
76167W        W47893   7.889  18.098   4.611
76168W        W47894  39.679   8.775   2.790
76169W        W47895  39.913  12.716   3.771
76170W        W47896  14.703  27.743  12.788
76171W        W47897  17.650  18.073  12.927
76172W        W47898  36.386  41.793  14.584
76173W        W47899  15.002  26.248   1.213
76174W        W47900  23.064  13.399   4.751
76175W        W47901  12.632   3.840  13.945
76176W        W47902  36.113  44.303   1.954
76177W        W47903  32.092  17.646  11.092
76178W        W47904  42.663  29.216   3.655
76179W        W47905   0.958  11.857  10.418
76180W        W47906   5.633   9.871   1.317
76181W        W47907  35.081   6.908   3.760
76182W        W47908   0.734   8.280  13.132
76183W        W47909   1.871   2.841  10.922
76184W        W47910  18.681  33.587   0.307
76185W        W47911  42.983  14.813   4.583
76186W        W47912   1.679   7.352   2.715
76187W        W47913  29.398   3.650  12.900
76188W        W47914  31.044  37.149  12.848
76189W        W47915  38.283   6.263  10.594
76190W        W47916  20.658  37.171   3.128
76191W        W47917   0.378  20.467   0.436
76192W        W47918  15.535  29.054  12.002
76193W        W47919   3.587  36.280  14.941
76194W        W47920   8.714   8.777   4.836
76195W        W47921  44.867  43.778   0.999
76196W        W47922  32.402  33.582   1.910
76197W        W47923   1.722  36.814   4.530
76198W        W47924  33.983  30.400   4.714
76199W        W47925  25.689  33.027   2.470
76200W        W47926  30.147  32.532   0.979
76201W        W47927  25.021   8.869   1.054
76202W        W47928   9.466  10.125   1.252
76203W        W47929  19.579   4.818   0.835
76204W        W47930  40.508  37.074   3.802
76205W        W47931  20.263   3.226   0.375
76206W        W47932  16.710  19.653  12.440
76207W        W47933  33.754  28.603   3.289
76208W        W47934  37.829  32.635   0.362
76209W        W47935  44.605  37.080  12.043
76210W        W47936  35.590  22.263  13.536
76211W        W47937   7.289  34.083   2.453
76212W        W47938  33.076  11.355  10.626
76213W        W47939  38.078  12.436  14.895
76214W        W47940  34.662  35.864   1.926
76215W        W47941  17.538  22.133  11.476
76216W        W47942  35.188  19.200  11.672
76217W        W47943  42.561  27.939  13.528
76218W        W47944  12.730  22.558  10.777
76219W        W47945  20.529  20.571   4.588
76220W        W47946  10.765  35.924   3.997
76221W        W47947  27.336   6.255   4.559
76222W        W47948  34.314  28.193  14.902
76223W        W47949  35.040  14.311   4.529
76224W        W47950  14.732  10.396   1.328
76225W        W47951  40.240  14.966  14.694
76226W        W47952  39.599   2.315  14.791
76227W        W47953  17.654  28.193  11.509
76228W        W47954  15.286  19.922  14.978
76229W        W47955  24.158  31.054   2.226
76230W        W47956  17.073  22.159  11.701
76231W        W47957  12.188  21.079   1.723
76232W        W47958  30.635  25.742  12.060
76233W        W47959  10.877  33.328   3.243
76234W        W47960  21.193  41.239   4.180
76235W        W47961  31.509  34.292   0.810
76236W        W47962  17.026  24.728  12.873
76237W        W47963   8.656   5.869   3.284
76238W        W47964   9.634   3.890   2.074
76239W        W47965  30.731  24.574  13.712
76240W        W47966   3.357   9.644  14.401
76241W        W47967   6.647   1.504   0.809
76242W        W47968   6.434  31.414  11.000
76243W        W47969   8.668  24.915   2.080
76244W        W47970  15.070  30.313   3.800
76245W        W47971  32.521   4.944   2.278
76246W        W47972  20.760  25.003   4.213
76247W        W47973  25.262  37.351  13.112
76248W        W47974  27.683  26.572  10.543
76249W        W47975   0.263   4.222   3.626
76250W        W47976  14.606   6.508  14.169
76251W        W47977  12.860  39.516   0.437
76252W        W47978  41.853   1.938  13.896
76253W        W47979  11.776   7.392   4.517
76254W        W47980  21.312   5.322  10.843
76255W        W47981  25.438  32.690   4.685
76256W        W47982   3.400  38.937  12.336
76257W        W47983  10.719  26.485  11.948
76258W        W47984  39.790  10.782  13.012
76259W        W47985  39.487  35.124   3.705
76260W        W47986   5.315  17.708  14.225
76261W        W47987  16.232  33.960  11.013
76262W        W47988   1.838  27.527  14.852
76263W        W47989  16.286   2.781  14.504
76264W        W47990  31.284  19.084  11.301
76265W        W47991  42.408  23.783   4.374
76266W        W47992   3.474  21.472   2.206
76267W        W47993   3.948  36.428  11.601
76268W        W47994  25.558   7.357  14.509
76269W        W47995   0.437  31.427  11.522
76270W        W47996  40.028  38.127  12.160
76271W        W47997   0.914  19.161  10.559
76272W        W47998   1.977  34.966   0.994
76273W        W47999  17.364  11.800   4.640
76274W        W48000  37.043  10.721   2.770
76275W        W48001  18.102  26.282   0.365
76276W        W48002  20.622  23.587   1.712
76277W        W48003  19.789  42.051   1.924
76278W        W48004   7.789  21.563  10.415
76279W        W48005   7.221  34.803   3.821
76280W        W48006   2.967  27.494  12.562
76281W        W48007  44.016  14.406  14.066
76282W        W48008  42.252   4.918  12.972
76283W        W48009  26.686  26.676   0.776
76284W        W48010  24.614   1.426   2.696
76285W        W48011  27.533  27.586  10.827
76286W        W48012   5.856  42.820   0.058
76287W        W48013  10.314   6.439   4.595
76288W        W48014  43.849  39.512   4.064
76289W        W48015   8.990  42.054   3.189
76290W        W48016   1.399  44.274   4.214
76291W        W48017  44.326  18.149   0.905
76292W        W48018   1.442   6.313  12.600
76293W        W48019   7.948   0.879   1.451
76294W        W48020  44.068   3.597   2.839
76295W        W48021   7.158  39.997  13.174
76296W        W48022  17.615   1.793   1.241
76297W        W48023   2.246  22.972  14.974
76298W        W48024  37.045  32.923   1.396
76299W        W48025  17.681  37.069   2.140
76300W        W48026  12.257  13.612  13.474
76301W        W48027  41.752   3.017   4.150
76302W        W48028  24.120  10.742  11.599
76303W        W48029   0.871   9.216  12.203
76304W        W48030  11.168  12.757   4.665
76305W        W48031  32.469  23.585   2.274
76306W        W48032  23.818   0.455  13.574
76307W        W48033  27.005  16.795   0.428
76308W        W48034  36.955  40.279   4.063
76309W        W48035  22.695  43.961  12.870
76310W        W48036   2.330  42.519  14.543
76311W        W48037  43.002   3.115   1.462
76312W        W48038  30.390  21.387   4.918
76313W        W48039  44.556   6.887   2.880
76314W        W48040   4.310   6.306  11.970
76315W        W48041  30.891  14.639   4.770
76316W        W48042   2.401   8.011   1.794
76317W        W48043  39.167  36.276  11.574
76318W        W48044  40.009  34.896  12.426
76319W        W48045  40.394  33.653   1.951
76320W        W48046  18.733   1.497   3.905
76321W        W48047  11.751  23.751   5.054
76322W        W48048  14.423  39.763  11.470
76323W        W48049  11.960  16.084   2.347
76324W        W48050  12.207  21.536   4.192
76325W        W48051  41.410  36.399  12.882
76326W        W48052  33.349   0.300  12.404
76327W        W48053   2.930  29.946  14.379
76328W        W48054  21.066  11.172   2.384
76329W        W48055   9.834  22.514   4.605
76330W        W48056  39.790  35.586   2.202
76331W        W48057   2.794  15.061   2.678
76332W        W48058  19.116  43.532   1.816
76333W        W48059  11.257   1.222   2.946
76334W        W48060  12.857  22.081  11.588
76335W        W48061  22.272   2.335   3.440
76336W        W48062  10.541   0.366  11.164
76337W        W48063  21.709  33.364  10.071
76338W        W48064  23.570  32.436   1.690
76339W        W48065   5.419  24.646  10.582
76340W        W48066  25.606  15.553   1.256
76341W        W48067  27.694  20.283   1.370
76342W        W48068  30.564   0.710  12.407
76343W        W48069  34.634  27.557  12.894
76344W        W48070  41.633  10.684   1.769
76345W        W48071  17.680  22.185  13.424
76346W        W48072  39.234  36.964  12.953
76347W        W48073  31.487  24.660  10.213
76348W        W48074  27.185   5.704  11.610
76349W        W48075  44.557   6.843  14.754
76350W        W48076  32.066  14.282   4.529
76351W        W48077  17.091  10.350  12.464
76352W        W48078   0.312  39.537  13.107
76353W        W48079  14.494  33.986   2.351
76354W        W48080  25.174  28.586   0.292
76355W        W48081   3.574   0.965   3.256
76356W        W48082  14.339  37.550   2.298
76357W        W48083  33.886   6.899  11.184
76358W        W48084  24.847  16.156   3.316
76359W        W48085   1.267  18.600  14.402
76360W        W48086  14.413   6.097  11.259
76361W        W48087  31.875  32.614   1.751
76362W        W48088  33.523  30.496   3.216
76363W        W48089  44.444  15.177  13.846
76364W        W48090  10.473   1.842  14.447
76365W        W48091  13.904  31.880  11.891
76366W        W48092   0.898  16.835  14.947
76367W        W48093   5.545   2.758  14.439
76368W        W48094  19.279  12.813   0.424
76369W        W48095   1.817  33.970  10.657
76370W        W48096  40.279   3.209  12.261
76371W        W48097  26.713  36.610  11.528
76372W        W48098  22.961   9.450  13.320
76373W        W48099  41.382  43.671   2.979
76374W        W48100  38.618  24.911   1.132
76375W        W48101  16.863   8.101   0.268
76376W        W48102  27.127   3.066  10.540
76377W        W48103   8.678  27.711   0.488
76378W        W48104  15.910   8.835  14.003
76379W        W48105  27.285   8.405   3.512
76380W        W48106  29.149  39.177   0.292
76381W        W48107  13.701  10.062   0.933
76382W        W48108  26.967  17.554   2.274
76383W        W48109  28.134   4.658   4.627
76384W        W48110  26.320  11.734  12.100
76385W        W48111  20.816   8.099  10.938
76386W        W48112  42.689  15.828   2.677
76387W        W48113  21.975  25.042   3.117
76388W        W48114   5.676  22.523  11.604
76389W        W48115  32.096  18.537  14.223
76390W        W48116  35.523  11.265   1.049
76391W        W48117   9.154   3.392  13.540
76392W        W48118  27.467  19.554   0.864
76393W        W48119  10.391  16.701  14.822
76394W        W48120   2.677  23.019   1.439
76395W        W48121  37.728   2.497  14.607
76396W        W48122  31.635   5.089  13.444
76397W        W48123  10.938  30.237   2.324
76398W        W48124  30.079   2.467  14.875
76399W        W48125  30.693  12.567  14.919
76400W        W48126  12.222  26.719  14.816
76401W        W48127  24.522   6.816   0.342
76402W        W48128  18.337  42.024   0.214
76403W        W48129   2.929  11.617  14.296
76404W        W48130  31.186  43.256  14.608
76405W        W48131  25.802  42.295   3.589
76406W        W48132  25.181  20.603  12.686
76407W        W48133   3.412  40.501   4.840
76408W        W48134  19.777  44.571  13.068
76409W        W48135  43.213  31.184   4.081
76410W        W48136  17.759  16.767  11.613
76411W        W48137  33.772   8.960  13.482
76412W        W48138  27.471   0.999  11.997
76413W        W48139  33.861   2.504   4.393
76414W        W48140  29.935  23.258  11.582
76415W        W48141   0.518  36.212  10.624
76416W        W48142  43.059  33.571  11.522
76417W        W48143  31.566  22.605   3.887
76418W        W48144  43.947  40.425   4.917
76419W        W48145   5.639   4.004  13.509
76420W        W48146  26.039   8.385   0.879
76421W        W48147  13.757  17.517  14.452
76422W        W48148  21.057  15.311  11.149
76423W        W48149  12.923  44.859   0.508
76424W        W48150  39.406  42.523  11.637
76425W        W48151  11.788  40.016   0.772
76426W        W48152  32.009  15.287   1.017
76427W        W48153   2.802  28.403   3.828
76428W        W48154   1.726  14.647   3.665
76429W        W48155   0.941  20.341   3.567
76430W        W48156   8.427  23.200  12.079
76431W        W48157  30.738   6.255   2.746
76432W        W48158  33.877  16.768   2.812
76433W        W48159   7.324  17.590   0.055
76434W        W48160  17.659  20.209  14.686
76435W        W48161  37.409   4.917  11.227
76436W        W48162  17.759  24.647  13.550
76437W        W48163  38.701  11.470   0.715
76438W        W48164  43.219   8.806   2.001
76439W        W48165  22.131   9.868   4.261
76440W        W48166  18.762   8.206   1.275
76441W        W48167   5.334  21.844   3.674
76442W        W48168  32.351   5.820   4.761
76443W        W48169  30.742   0.904  14.825
76444W        W48170  11.367  32.529  11.918
76445W        W48171  15.840   1.921  12.479
76446W        W48172  41.874  26.078   3.760
76447W        W48173  42.212  19.587  10.472
76448W        W48174  26.620   9.154  13.919
76449W        W48175  35.575  20.093   2.425
76450W        W48176   2.883   4.342   4.199
76451W        W48177  31.087  21.252  11.149
76452W        W48178  17.876  39.105   0.732
76453W        W48179  22.081  28.196  10.566
76454W        W48180  14.379   4.842  14.687
76455W        W48181  22.115   0.115   3.368
76456W        W48182   9.929  35.424  12.041
76457W        W48183  42.843  25.268  11.007
76458W        W48184  22.805  34.527   0.210
76459W        W48185  36.803  25.036   3.873
76460W        W48186  22.167  31.542  13.515
76461W        W48187  29.146  37.529  14.325
76462W        W48188  37.411  11.268  10.015
76463W        W48189  30.588  10.267  11.538
76464W        W48190  30.739  28.226  13.378
76465W        W48191  43.412  43.763  12.813
76466W        W48192   9.817  38.579   4.434
76467W        W48193  24.013  33.933  10.642
76468W        W48194  12.690  13.631  12.583
76469W        W48195  11.732  22.226   1.355
76470W        W48196  30.226  31.066  13.411
76471W        W48197  17.115  20.032   1.036
76472W        W48198  29.576  10.025   0.944
76473W        W48199  11.344   5.215  10.809
76474W        W48200   9.572  30.912   3.103
76475W        W48201  32.095  12.764  12.499
76476W        W48202  43.449   6.910  12.585
76477W        W48203  16.357  36.089  12.201
76478W        W48204   8.134  36.795   2.648
76479W        W48205  37.585   7.164  10.285
76480W        W48206  43.858  35.131  13.126
76481W        W48207  33.690  40.467   4.973
76482W        W48208  35.462   3.950   1.402
76483W        W48209  21.503  20.158  12.689
76484W        W48210   2.933  30.472   1.368
76485W        W48211  33.633  20.070   4.396
76486W        W48212  44.302  18.236  12.316
76487W        W48213  25.546  12.857  14.818
76488W        W48214  40.464  33.351   3.711
76489W        W48215  26.159  27.380   4.398
76490W        W48216  19.080   4.302  10.698
76491W        W48217  27.662   4.375   1.296
76492W        W48218  20.788  11.537  13.835
76493W        W48219  34.005   9.639   2.817
76494W        W48220   7.839  34.546   5.102
76495W        W48221  14.014   1.410   0.674
76496W        W48222   3.465  44.892   4.932
76497W        W48223   2.150  32.150   4.180
76498W        W48224  37.586  28.136   0.428
76499W        W48225  16.295   1.735  14.384
76500W        W48226  16.693  22.301   3.827
76501W        W48227  44.850  13.874  13.792
76502W        W48228  10.869   6.897   4.871
76503W        W48229  17.543  43.454  12.872
76504W        W48230  27.593  16.698   4.535
76505W        W48231   1.706  41.513  12.474
76506W        W48232  15.508  31.540   1.351
76507W        W48233  23.567  24.593  14.808
76508W        W48234   3.136   1.251   3.225
76509W        W48235   0.367  44.498   0.498
76510W        W48236  30.001  23.501  12.038
76511W        W48237  10.354   9.851   3.212
76512W        W48238  18.776  17.510  10.933
76513W        W48239  15.631  43.786  10.899
76514W        W48240  10.921  21.769  12.521
76515W        W48241  17.677  17.290   1.423
76516W        W48242  41.094  22.026  13.575
76517W        W48243  19.206  42.405   4.532
76518W        W48244  24.369  36.137  14.003
76519W        W48245  19.582   3.786  12.288
76520W        W48246  33.660   6.269  13.886
76521W        W48247  28.230  28.430  11.442
76522W        W48248   3.410  16.164   1.236
76523W        W48249  34.081  28.389   0.648
76524W        W48250  12.934  26.782  13.241
76525W        W48251  19.280   0.192  13.426
76526W        W48252   9.986  39.967  13.330
76527W        W48253  31.924  18.706   4.097
76528W        W48254  36.913  17.794  10.754
76529W        W48255   8.781  11.327   2.966
76530W        W48256   4.465  12.630   0.299
76531W        W48257  20.381  27.095  11.236
76532W        W48258  24.522  14.899  11.127
76533W        W48259   9.803   0.460  12.514
76534W        W48260  21.601  13.991  10.007
76535W        W48261   7.906   8.435   2.890
76536W        W48262  44.309  42.300  11.593
76537W        W48263   8.282  15.809   4.670
76538W        W48264  15.401  38.915  11.739
76539W        W48265  27.905  34.677  14.865
76540W        W48266  15.205  32.509   1.885
76541W        W48267  25.457  13.376  13.444
76542W        W48268  31.554  36.851  11.677
76543W        W48269   6.446   8.799  14.272
76544W        W48270   2.007  31.320   1.356
76545W        W48271  41.818  32.397   4.904
76546W        W48272  33.358   8.297   3.727
76547W        W48273  12.702  34.611   2.200
76548W        W48274   1.834  39.479  11.713
76549W        W48275  32.471  29.071   0.930
76550W        W48276  13.121  20.151   2.707
76551W        W48277  36.366  11.695   4.157
76552W        W48278  32.898  23.014   1.693
76553W        W48279  12.780  16.555   0.491
76554W        W48280  16.128   3.867   2.453
76555W        W48281   9.158  22.540  10.951
76556W        W48282   5.431  41.102  12.083
76557W        W48283   0.744  38.316  11.674
76558W        W48284  38.989   5.333  14.542
76559W        W48285  12.995   0.122  11.159
76560W        W48286  32.480   8.248   0.323
76561W        W48287  42.508  15.291  10.692
76562W        W48288  24.568   5.718  13.561
76563W        W48289  44.436   4.518   4.715
76564W        W48290  28.321   0.789   3.812
76565W        W48291  28.158  22.531   4.677
76566W        W48292  34.346  18.260   4.708
76567W        W48293   6.084  35.194  13.046
76568W        W48294  19.638  22.450  11.216
76569W        W48295   2.050  10.450   3.333
76570W        W48296   8.068   2.342  11.169
76571W        W48297   0.814  22.215   0.749
76572W        W48298  11.304  35.897  12.783
76573W        W48299  14.861  43.875   0.309
76574W        W48300  38.866  37.708  13.636
76575W        W48301  16.110  11.754  14.431
76576W        W48302  27.179   7.196  11.607
76577W        W48303  11.433  37.604  13.048
76578W        W48304  34.331  23.645  13.121
76579W        W48305  12.384  25.529   3.553
76580W        W48306  13.309   7.174   9.575
76581W        W48307  13.204  29.287  11.787
76582W        W48308  25.833  37.769   0.727
76583W        W48309  33.888  36.336  11.054
76584W        W48310  19.872  34.549   0.712
76585W        W48311  26.512  32.499  11.715
76586W        W48312  22.000  23.004  12.905
76587W        W48313  29.574  39.349  14.484
76588W        W48314  34.917  16.129  10.645
76589W        W48315  38.684  42.496  11.948
76590W        W48316   0.946   4.946  11.150
76591W        W48317  13.860  44.537   2.839
76592W        W48318  26.689  35.456   2.446
76593W        W48319   0.221  44.098   0.786
76594W        W48320  10.074  31.970  12.647
76595W        W48321   0.687  39.880  11.090
76596W        W48322  11.985  23.036   1.690
76597W        W48323  31.671  15.800   2.212
76598W        W48324  11.381   9.645   3.261
76599W        W48325  33.688  17.351  13.265
76600W        W48326   7.841   8.428  12.566
76601W        W48327   1.949  19.608   1.236
76602W        W48328  20.644  43.401  11.186
76603W        W48329  12.749  35.138  12.439
76604W        W48330  33.957  36.093  12.857
76605W        W48331  38.664  40.098  12.921
76606W        W48332  14.591  44.452  14.455
76607W        W48333  34.148  24.225   3.432
76608W        W48334  23.167  27.304  12.681
76609W        W48335  25.146  12.358   3.432
76610W        W48336  42.412  18.318  11.778
76611W        W48337  36.344  39.844   0.927
76612W        W48338  21.049   7.334  10.316
76613W        W48339  32.978  27.235  13.923
76614W        W48340  33.526  24.976   0.418
76615W        W48341  42.013  31.959   1.858
76616W        W48342  43.661   5.309  12.448
76617W        W48343   2.662  16.704   4.061
76618W        W48344  12.001  25.567   2.702
76619W        W48345  28.819  25.145  12.093
76620W        W48346  16.283  16.547  13.583
76621W        W48347  32.865   8.217  11.469
76622W        W48348  26.029  10.874   2.681
76623W        W48349  14.561  39.954  10.675
76624W        W48350  19.095  23.428  14.559
76625W        W48351  17.701   0.839   4.669
76626W        W48352   1.646  22.130   1.177
76627W        W48353   6.432  13.590  12.934
76628W        W48354  23.241  24.135  14.044
76629W        W48355  15.780   2.058  13.549
76630W        W48356  15.642  27.001   2.046
76631W        W48357  26.793  32.850   4.639
76632W        W48358  34.854  41.294   0.319
76633W        W48359  12.820  12.873  11.016
76634W        W48360  10.514  43.686  14.445
76635W        W48361  34.789  26.028   1.488
76636W        W48362  20.576  12.719   4.586
76637W        W48363  28.049  20.822  12.068
76638W        W48364  10.118  13.119  11.982
76639W        W48365  44.444  38.670   1.923
76640W        W48366  17.510  31.989   0.254
76641W        W48367   2.814  13.848   3.239
76642W        W48368   8.084  23.670   5.015
76643W        W48369  24.530   2.993   4.382
76644W        W48370  43.839  18.296   4.008
76645W        W48371  27.063  19.706   1.436
76646W        W48372   0.802  36.354  12.252
76647W        W48373   4.735   8.209   2.676
76648W        W48374  22.485  39.517   1.492
76649W        W48375   8.700  31.561  12.482
76650W        W48376  22.134  25.528   2.715
76651W        W48377  37.869  22.698  10.660
76652W        W48378  26.925  25.956   0.301
76653W        W48379  42.904  24.537  12.628
76654W        W48380  23.571  29.564  14.597
76655W        W48381  35.509  22.065  10.721
76656W        W48382  18.342  22.593   0.979
76657W        W48383  42.789   2.306   1.876
76658W        W48384  26.659  27.242  10.433
76659W        W48385  33.476  28.479  13.438
76660W        W48386  41.018  34.307  14.406
76661W        W48387  29.869  20.676  14.570
76662W        W48388  42.144  43.006   0.165
76663W        W48389  34.868   6.171  12.784
76664W        W48390  42.024   1.463  12.435
76665W        W48391  18.550  42.414   1.885
76666W        W48392  44.134  25.717  12.926
76667W        W48393  16.225  15.900   3.186
76668W        W48394  25.615   9.654   3.093
76669W        W48395   6.282  31.159   0.439
76670W        W48396  31.485  10.860   1.825
76671W        W48397  41.394  32.330   0.945
76672W        W48398  17.496  28.926  12.033
76673W        W48399   6.816   3.826  12.724
76674W        W48400   7.018  38.470  13.792
76675W        W48401  13.347  16.737  11.543
76676W        W48402   7.254  10.395  11.154
76677W        W48403  19.298  13.757   1.260
76678W        W48404   4.361   5.737  10.720
76679W        W48405  26.006  22.244   1.258
76680W        W48406  31.817  44.141   9.839
76681W        W48407  42.674  19.594   3.629
76682W        W48408  22.976  39.999   1.383
76683W        W48409  22.768  19.372  12.489
76684W        W48410   1.859  31.681   3.612
76685W        W48411  15.331   6.364   4.497
76686W        W48412  38.449  41.183   3.108
76687W        W48413  40.669  22.686  14.992
76688W        W48414  13.815  29.651   3.328
76689W        W48415  21.695  36.283   4.970
76690W        W48416   0.477  33.363   1.578
76691W        W48417   6.183   0.932  11.613
76692W        W48418  13.774  38.894   1.107
76693W        W48419   8.289  16.082  11.507
76694W        W48420  17.237  40.636  12.553
76695W        W48421   6.173  33.864  10.715
76696W        W48422  25.387  11.197  10.709
76697W        W48423  40.638   1.955  14.383
76698W        W48424   8.027  32.796   3.710
76699W        W48425  34.114  34.177   1.517
76700W        W48426  35.830  36.771  11.721
76701W        W48427  41.288  42.925  14.212
76702W        W48428   6.660   6.684   4.985
76703W        W48429  12.506  37.005   1.209
76704W        W48430  25.132  28.686   1.661
76705W        W48431  24.630  25.681  11.867
76706W        W48432   2.192  13.532   1.484
76707W        W48433  30.678   2.314   3.620
76708W        W48434  25.953  21.784   4.199
76709W        W48435  41.903   1.761   4.516
76710W        W48436  38.510  24.582  12.370
76711W        W48437  44.849  28.569   0.831
76712W        W48438  30.483  15.376   4.612
76713W        W48439  19.042  28.582   2.077
76714W        W48440   1.216  32.604  11.131
76715W        W48441  13.963  29.322   5.139
76716W        W48442   8.470  21.049   1.732
76717W        W48443  29.291   5.152  14.952
76718W        W48444  26.399  32.056   0.388
76719W        W48445   1.296  36.241   3.838
76720W        W48446  28.218  28.000  13.027
76721W        W48447  41.107  16.675  12.871
76722W        W48448  34.721  44.335  11.267
76723W        W48449  36.950  39.010  11.581
76724W        W48450  40.675  15.152   0.260
76725W        W48451  17.531  40.205   5.088
76726W        W48452  43.214  11.962   1.013
76727W        W48453   4.001  29.260   1.837
76728W        W48454   3.002  17.090   4.117
76729W        W48455  44.016  28.613   1.155
76730W        W48456  31.183  26.526   3.791
76731W        W48457  37.635  18.353   0.844
76732W        W48458  22.114  15.577  10.492
76733W        W48459  16.764  34.444   3.810
76734W        W48460  28.884  24.081  10.871
76735W        W48461  38.114  42.963  13.961
76736W        W48462   0.751   3.838   2.136
76737W        W48463  32.583  32.802   0.892
76738W        W48464  33.188  16.581   4.099
76739W        W48465  24.606  13.550   1.286
76740W        W48466  16.798  19.105  12.126
76741W        W48467  36.502  32.628   1.835
76742W        W48468  12.552  15.033   4.344
76743W        W48469  42.736   9.620  12.894
76744W        W48470  19.635  25.079   1.865
76745W        W48471  44.975  26.112  13.056
76746W        W48472   2.101   3.427  14.344
76747W        W48473   6.817  13.519  11.091
76748W        W48474  43.664  14.893  11.181
76749W        W48475  29.397  39.533  13.126
76750W        W48476  12.481   6.125  14.021
76751W        W48477  10.691  14.573   4.311
76752W        W48478  37.590  37.817  12.467
76753W        W48479  14.271   3.038  14.901
76754W        W48480  34.200  37.899  14.810
76755W        W48481  22.266   0.304   0.396
76756W        W48482   7.100  18.983  14.659
76757W        W48483  15.593  13.847  12.502
76758W        W48484  10.485   5.437  13.885
76759W        W48485  41.883  11.880  14.726
76760W        W48486  18.617  39.339   4.693
76761W        W48487  37.933   2.208   1.741
76762W        W48488  41.243   2.273   4.158
76763W        W48489  15.359   1.137  10.704
76764W        W48490   4.291  12.234  12.578
76765W        W48491  16.655  42.554   3.090
76766W        W48492   2.185   4.982  12.357
76767W        W48493  14.587   6.778   0.707
76768W        W48494  13.693  39.857  12.608
76769W        W48495  22.279  34.419   0.306
76770W        W48496   7.329   6.010   2.189
76771W        W48497   3.718  10.423   0.951
76772W        W48498  19.283   4.306   3.604
76773W        W48499  20.968  32.657  13.568
76774W        W48500  41.472  36.935  11.112
76775W        W48501  12.781   3.698  14.967
76776W        W48502   5.653   7.824   5.155
76777W        W48503  15.062  32.723   0.767
76778W        W48504  30.395   3.200   1.729
76779W        W48505  31.636   8.312   4.687
76780W        W48506  39.973   6.728   4.630
76781W        W48507  38.565  18.249  14.346
76782W        W48508  16.992  27.051   0.477
76783W        W48509  24.909   3.434   2.788
76784W        W48510  21.171  26.250   9.902
76785W        W48511  43.577  15.909   0.110
76786W        W48512  39.462  39.625   1.509
76787W        W48513  38.129  12.208   4.366
76788W        W48514  40.332  22.038   3.731
76789W        W48515  38.847  12.173   0.270
76790W        W48516  24.995  44.918   2.876
76791W        W48517  16.171  44.422   1.288
76792W        W48518  32.935  36.541   1.888
76793W        W48519  15.944  43.331   1.794
76794W        W48520   0.766   0.649  14.939
76795W        W48521  41.940  28.787  12.403
76796W        W48522   6.971  25.468   0.315
76797W        W48523  27.914  10.837   3.222
76798W        W48524  22.169  44.594   3.438
76799W        W48525  44.672  31.892  11.725
76800W        W48526  35.912  27.439  11.469
76801W        W48527  18.721  39.038  14.430
76802W        W48528  37.696   1.329   3.348
76803W        W48529  32.161  28.706   3.538
76804W        W48530   1.367  32.151  12.312
76805W        W48531  29.940  12.866  12.954
76806W        W48532  23.816  15.557   4.517
76807W        W48533  40.381  20.190  12.711
76808W        W48534  33.783   9.252  11.868
76809W        W48535  20.198  12.639   0.697
76810W        W48536   6.633   0.629  14.505
76811W        W48537  35.380  20.737   4.596
76812W        W48538  11.568   9.482   0.322
76813W        W48539  27.440  37.082  10.716
76814W        W48540  39.465   9.784  11.966
76815W        W48541   6.342  17.678  10.778
76816W        W48542   4.836  38.552  13.535
76817W        W48543  26.835  32.169  12.486
76818W        W48544  11.830  33.078   2.775
76819W        W48545  38.075  38.838   4.559
76820W        W48546  16.557   5.207  13.972
76821W        W48547  33.441  41.699  14.541
76822W        W48548   3.546  17.733   3.692
76823W        W48549  16.094  27.451  11.923
76824W        W48550  27.471  44.393  14.713
76825W        W48551  18.837  32.161  10.300
76826W        W48552  18.554  42.826   0.850
76827W        W48553  21.802  30.566  12.951
76828W        W48554   1.969  13.663   0.204
76829W        W48555   2.260   9.666  11.541
76830W        W48556  29.746  12.219  12.132
76831W        W48557   8.150   8.377  11.730
76832W        W48558  22.523   2.461  11.033
76833W        W48559  42.456   6.128  11.525
76834W        W48560  29.662  15.014   2.770
76835W        W48561  41.198  43.123  13.746
76836W        W48562  27.001  40.408   1.982
76837W        W48563   1.842  40.992   3.441
76838W        W48564   5.346  40.430   2.572
76839W        W48565  11.083  44.812   4.087
76840W        W48566   5.653   0.529  14.193
76841W        W48567  40.019  31.993  10.511
76842W        W48568   8.110  33.934   1.312
76843W        W48569  26.952  37.298   2.275
76844W        W48570   6.412  23.759  14.308
76845W        W48571  21.496  32.903  14.453
76846W        W48572  11.177  11.352   3.656
76847W        W48573   8.214  28.496  13.369
76848W        W48574  34.173  17.312  13.077
76849W        W48575  20.747  35.481   1.112
76850W        W48576  44.906  23.042  13.327
76851W        W48577  43.686  32.825   4.569
76852W        W48578   7.839  35.538  10.201
76853W        W48579  40.578  38.274  14.025
76854W        W48580   1.471   1.845  11.675
76855W        W48581  32.068  42.081   2.370
76856W        W48582  42.492   7.294   1.877
76857W        W48583   0.379  13.472   3.292
76858W        W48584  24.261  21.923  12.854
76859W        W48585   5.664  39.583   4.498
76860W        W48586  10.918  15.826   0.660
76861W        W48587   8.200  34.107   0.822
76862W        W48588  23.322  14.304  13.171
76863W        W48589   3.545  10.990   1.477
76864W        W48590  29.211  37.521  14.907
76865W        W48591  40.295  25.687  14.930
76866W        W48592  31.880  17.624   3.233
76867W        W48593  24.433  21.949  14.881
76868W        W48594   9.315  43.541   4.127
76869W        W48595  13.280  44.390  12.475
76870W        W48596  12.435   3.234  14.274
76871W        W48597  17.045  10.150  14.260
76872W        W48598  15.672  42.206   2.354
76873W        W48599  23.847  14.443   5.036
76874W        W48600  26.214  23.990  12.023
76875W        W48601  30.650  36.119  10.763
76876W        W48602  32.595  19.363   4.161
76877W        W48603   1.721   0.835  13.729
76878W        W48604   5.210  16.776  12.994
76879W        W48605   2.044  21.579  14.808
76880W        W48606  41.131  17.606   2.714
76881W        W48607  32.407  41.585  13.188
76882W        W48608  13.120  21.181  11.950
76883W        W48609  32.134   5.317   4.769
76884W        W48610  19.323  41.907   3.275
76885W        W48611  35.135   9.811  12.839
76886W        W48612  13.245   8.907  14.033
76887W        W48613  34.388  24.745  12.799
76888W        W48614  15.646  34.675   4.340
76889W        W48615  14.710   3.293  13.889
76890W        W48616  28.529   4.822   1.740
76891W        W48617  29.122  44.938  14.044
76892W        W48618  38.978  15.647   1.787
76893W        W48619  29.570  24.756   2.858
76894W        W48620  22.391  41.975  11.143
76895W        W48621   9.609   3.366  11.442
76896W        W48622   2.484  28.114   1.224
76897W        W48623  28.549  12.152  11.047
76898W        W48624  23.651  25.959  12.476
76899W        W48625   1.189   9.773  14.873
76900W        W48626  14.409  12.979  11.399
76901W        W48627   9.645  19.506  11.599
76902W        W48628   0.391   9.765   4.398
76903W        W48629  40.600  11.676  14.440
76904W        W48630  13.078   7.388  11.981
76905W        W48631  28.121   6.255  11.928
76906W        W48632  36.075  22.132   1.446
76907W        W48633  39.565  43.046   0.434
76908W        W48634  29.151  28.718  13.800
76909W        W48635   2.524  40.852  13.972
76910W        W48636  42.077  14.381   4.501
76911W        W48637   9.195  40.385   1.728
76912W        W48638  37.373  27.490   2.708
76913W        W48639  39.533  43.091   0.961
76914W        W48640  40.530  15.984   1.667
76915W        W48641   2.704  15.111  10.642
76916W        W48642  29.840  11.414  12.333
76917W        W48643  43.286  12.779   2.805
76918W        W48644  32.672  36.988  14.809
76919W        W48645   2.992  37.540   2.225
76920W        W48646  11.145  15.750   0.203
76921W        W48647  44.392  19.608  12.063
76922W        W48648  44.873   1.496   4.227
76923W        W48649  12.870  15.594   1.361
76924W        W48650  28.367  30.081   1.214
76925W        W48651  42.304  14.369   3.350
76926W        W48652   3.931  33.488  10.703
76927W        W48653  17.410  33.537   5.234
76928W        W48654  43.039  43.033   1.866
76929W        W48655  35.325  11.419   1.537
76930W        W48656   5.405  24.601   0.454
76931W        W48657  10.279  24.684  13.929
76932W        W48658   8.598   4.018  12.776
76933W        W48659  28.930   1.513   1.838
76934W        W48660  38.266  33.012   4.062
76935W        W48661   0.631  22.976  10.786
76936W        W48662  16.136  16.993  10.955
76937W        W48663  34.451  26.146  11.552
76938W        W48664  17.113  27.938   2.320
76939W        W48665  11.416  38.278   3.155
76940W        W48666  41.066  30.180   0.974
76941W        W48667  36.408   3.016  11.956
76942W        W48668  36.991  21.227  13.582
76943W        W48669  34.993  12.368  12.421
76944W        W48670  30.741  36.041   2.254
76945W        W48671  30.355  30.612  12.002
76946W        W48672  22.955  21.226  10.743
76947W        W48673   9.825  27.904   3.826
76948W        W48674  18.292  36.846   3.371
76949W        W48675  33.467  11.726   2.325
76950W        W48676  13.588  15.549  14.848
76951W        W48677  11.087  22.527  11.949
76952W        W48678  33.885  36.516   1.826
76953W        W48679  24.481  18.332  12.093
76954W        W48680  28.900  37.911   2.637
76955W        W48681  26.628  29.543  13.819
76956W        W48682  29.485  17.067   5.005
76957W        W48683  31.055   7.340  12.984
76958W        W48684   4.131  17.055  10.624
76959W        W48685  18.522  17.590   0.907
76960W        W48686  32.404  15.760   0.382
76961W        W48687  23.536  34.342  12.051
76962W        W48688  37.357  21.634   1.331
76963W        W48689  24.126  38.043   2.388
76964W        W48690  41.916   5.977  12.426
76965W        W48691  41.923  43.899  11.102
76966W        W48692  15.586  18.304  13.760
76967W        W48693  40.086  43.842  14.334
76968W        W48694  10.061  21.294   3.825
76969W        W48695   7.273   2.770   0.048
76970W        W48696  16.620  35.825  12.915
76971W        W48697  21.762  28.218   3.627
76972W        W48698  26.106  35.570   4.050
76973W        W48699  25.865  25.199   4.157
76974W        W48700  37.511  33.646  14.544
76975W        W48701   9.668   8.961  13.529
76976W        W48702  37.106  22.733   3.684
76977W        W48703  43.787  19.773   2.143
76978W        W48704  35.853   3.044   4.215
76979W        W48705  34.390  39.394  11.050
76980W        W48706  13.064  11.618   2.186
76981W        W48707   7.737  12.674   0.490
76982W        W48708  21.874  21.446  14.912
76983W        W48709  36.179   2.197  13.403
76984W        W48710  23.258  27.085  10.763
76985W        W48711  16.309  40.519   4.589
76986W        W48712  24.045   1.041  11.535
76987W        W48713  20.795  10.275   0.325
76988W        W48714  34.128  35.229   4.998
76989W        W48715  40.701   3.243   2.835
76990W        W48716  18.695  44.783   1.787
76991W        W48717  22.959  18.732   3.847
76992W        W48718  21.344   7.230  13.892
76993W        W48719  26.379  25.178   4.126
76994W        W48720  41.322  36.256   2.596
76995W        W48721  21.060  17.302  12.425
76996W        W48722  28.062  11.417   2.346
76997W        W48723  12.851  31.839   0.343
76998W        W48724  26.534  28.446   4.234
76999W        W48725  29.742   1.904   0.719
77000W        W48726  42.469  19.144  10.459
77001W        W48727  20.978  27.144  12.489
77002W        W48728   4.356  30.090   0.093
77003W        W48729  31.868  37.327   3.315
77004W        W48730  38.468  20.021   4.976
77005W        W48731  37.478   8.649  11.446
77006W        W48732  39.973  10.725  10.595
77007W        W48733   2.431  19.305  13.746
77008W        W48734  42.465  11.306  14.949
77009W        W48735  38.488  31.731  12.992
77010W        W48736  20.305  32.364  13.997
77011W        W48737  39.385  35.125   4.215
77012W        W48738   4.147  21.459  11.871
77013W        W48739  13.045   1.954  13.297
77014W        W48740  26.685  22.549   0.884
77015W        W48741  22.489   5.838   3.430
77016W        W48742   5.593  20.882   1.512
77017W        W48743  40.569  36.356  11.298
77018W        W48744  20.169  27.213   4.794
77019W        W48745  19.877   8.710  13.127
77020W        W48746  28.399  18.250   1.386
77021W        W48747  18.497  23.765   2.182
77022W        W48748  29.212  28.950  12.878
77023W        W48749  13.415   7.216   2.759
77024W        W48750  31.043  25.964  11.835
77025W        W48751  14.623   8.843   0.260
77026W        W48752   6.013  10.711  13.527
77027W        W48753  15.876  10.677   2.802
77028W        W48754  32.972  25.584   0.034
77029W        W48755   2.422  42.265  11.079
77030W        W48756  17.643   3.359  11.566
77031W        W48757  32.097   3.872   3.146
77032W        W48758   3.031   2.181  14.959
77033W        W48759   9.266  37.122  13.562
77034W        W48760   8.800  18.574   4.379
77035W        W48761  42.855  12.157   4.498
77036W        W48762   5.452  19.708  14.884
77037W        W48763  17.561  29.616   0.276
77038W        W48764  17.107  15.190   0.408
77039W        W48765  36.205   2.896  10.631
77040W        W48766  29.661  27.412   1.772
77041W        W48767  31.902  40.490   0.398
77042W        W48768  44.457  20.715   3.164
77043W        W48769  31.094  35.601   1.590
77044W        W48770  27.060  31.701  11.249
77045W        W48771  43.643  31.107  10.591
77046W        W48772  17.722  25.291   3.308
77047W        W48773  27.642  14.161  11.868
77048W        W48774  19.239   5.959   4.113
77049W        W48775  19.792   5.331  13.402
77050W        W48776  38.110  12.736  11.983
77051W        W48777  39.060  35.452   4.527
77052W        W48778  24.196  29.743   4.655
77053W        W48779  15.533   3.857   1.247
77054W        W48780  32.397  23.446  11.617
77055W        W48781  20.081  34.396   1.943
77056W        W48782  39.812  27.345   2.494
77057W        W48783  27.546  13.971  14.526
77058W        W48784  18.855  27.400  13.003
77059W        W48785  13.834  15.525   4.584
77060W        W48786  43.054  44.760  11.158
77061W        W48787   8.166   7.611  14.066
77062W        W48788   0.926  21.055  13.388
77063W        W48789  43.361  15.257  12.091
77064W        W48790  44.808  31.989  11.200
77065W        W48791   9.738  16.405   3.344
77066W        W48792   4.342  10.570  14.304
77067W        W48793  26.998   2.752  13.961
77068W        W48794   4.239  33.232   4.776
77069W        W48795  12.254  22.349   3.812
77070W        W48796  25.680  30.107   1.534
77071W        W48797   7.784  24.930   9.742
77072W        W48798  11.315  10.190   3.723
77073W        W48799   0.415  21.523   0.028
77074W        W48800   5.938   0.694  10.414
77075W        W48801  16.048   9.723  13.006
77076W        W48802  33.715   3.978   3.301
77077W        W48803  44.013  31.950   3.686
77078W        W48804  43.854   0.248   2.721
77079W        W48805  30.986  27.988   0.709
77080W        W48806  35.102  35.047   2.678
77081W        W48807  30.558  13.961   3.610
77082W        W48808  18.654   8.879   3.662
77083W        W48809  11.880  10.413   0.356
77084W        W48810   2.734   8.484  14.230
77085W        W48811  12.492  28.627  14.869
77086W        W48812  36.486   5.530  12.253
77087W        W48813  30.229  35.997  11.627
77088W        W48814  24.583  14.259  14.816
77089W        W48815  36.481   7.238   5.195
77090W        W48816  15.328  24.432   0.276
77091W        W48817   1.229  37.102  14.377
77092W        W48818  39.960   9.860   4.222
77093W        W48819   3.865  43.989  14.221
77094W        W48820  10.338  23.865   1.238
77095W        W48821  37.182  43.289   1.762
77096W        W48822  38.776  44.975   4.879
77097W        W48823  29.894  27.197   2.824
77098W        W48824  24.089  30.388  11.089
77099W        W48825  37.681  43.741  12.864
77100W        W48826  10.330  27.620   3.697
77101W        W48827   6.835  40.861  13.395
77102W        W48828  29.226  34.520   5.080
77103W        W48829  21.325   9.349  10.817
77104W        W48830  26.914  39.962  13.381
77105W        W48831  33.898  28.689  13.148
77106W        W48832  27.539  12.665   1.939
77107W        W48833  14.118  19.441   2.369
77108W        W48834  18.274  22.120   3.289
77109W        W48835  16.088  44.977  11.575
77110W        W48836  10.210   6.210   3.230
77111W        W48837   7.903   7.051  11.958
77112W        W48838   0.060  29.963  14.013
77113W        W48839  26.932  36.049  13.999
77114W        W48840  18.820  15.144  13.880
77115W        W48841  38.594  39.143   2.830
77116W        W48842  17.105  27.282  11.625
77117W        W48843  40.847   6.615   0.442
77118W        W48844   4.012  13.574   3.131
77119W        W48845  24.515  26.536  12.427
77120W        W48846   6.370  26.114  11.220
77121W        W48847  14.408  33.412  10.188
77122W        W48848  12.589  18.617  13.344
77123W        W48849  24.399   9.137  12.516
77124W        W48850   4.974  15.830   9.769
77125W        W48851   5.880  29.150  13.800
77126W        W48852   4.729  44.922   0.993
77127W        W48853  20.103  22.052   3.324
77128W        W48854  29.459  16.910   1.259
77129W        W48855  41.973  29.765  12.182
77130W        W48856  42.826  17.859   3.154
77131W        W48857  38.376  20.525   1.774
77132W        W48858  28.954  10.209  14.053
77133W        W48859   9.827  26.117  12.829
77134W        W48860  31.454  11.210   0.064
77135W        W48861   7.909   9.062  12.803
77136W        W48862  31.733  30.091  14.276
77137W        W48863  37.803  37.329   1.010
77138W        W48864  36.050   6.215  11.898
77139W        W48865  37.087   9.582   2.190
77140W        W48866  11.932   0.707  14.624
77141W        W48867  32.632  43.918   0.395
77142W        W48868   5.767  41.225  10.432
77143W        W48869   1.596  13.645  13.915
77144W        W48870   4.157  37.385  14.276
77145W        W48871  44.204  16.558   4.223
77146W        W48872  17.677  39.473  11.026
77147W        W48873  30.070  35.502   1.889
77148W        W48874  23.314  17.248  11.010
77149W        W48875   9.318   0.849  10.717
77150W        W48876  10.619  34.379  10.588
77151W        W48877   2.704  19.991  13.999
77152W        W48878  32.685   8.661   3.223
77153W        W48879  22.990   2.325   0.939
77154W        W48880  27.061  13.206  10.736
77155W        W48881  19.763   6.362  12.895
77156W        W48882  31.144   9.323   0.420
77157W        W48883   9.370  13.511  14.498
77158W        W48884   1.426  30.367  13.938
77159W        W48885  44.620  37.475  11.649
77160W        W48886  29.112  12.309   2.480
77161W        W48887  33.922  17.040   2.295
77162W        W48888  42.874  17.383  10.484
77163W        W48889  36.119  19.267  11.086
77164W        W48890   3.707   0.307   3.849
77165W        W48891  26.402  23.867   2.413
77166W        W48892  42.946  26.387  10.535
77167W        W48893  26.062  16.062  10.177
77168W        W48894  19.635  26.496   5.036
77169W        W48895  41.405  41.922   2.393
77170W        W48896  19.457  37.310   3.578
77171W        W48897   3.932  18.686   1.233
77172W        W48898  27.473  12.703  13.866
77173W        W48899   3.248  37.064   2.892
77174W        W48900  28.954  42.369  12.028
77175W        W48901  16.234   9.420  10.395
77176W        W48902  37.548  22.937  13.822
77177W        W48903  22.616  27.488   5.184
77178W        W48904  41.469  13.673   4.731
77179W        W48905  15.898   6.085  11.198
77180W        W48906  16.031   8.386   1.751
77181W        W48907   4.178  29.599   0.921
77182W        W48908  37.832  15.608  14.449
77183W        W48909  31.932  21.133  14.333
77184W        W48910  31.845  35.415  11.525
77185W        W48911  24.259  27.011   5.201
77186W        W48912  16.922  36.486  12.549
77187W        W48913  39.421  27.964  14.785
77188W        W48914  10.414   1.030  14.760
77189W        W48915  20.329  13.340  14.864
77190W        W48916  42.961  11.411  14.081
77191W        W48917  39.319  40.709   3.087
77192W        W48918   8.096  37.088   4.063
77193W        W48919  17.152  32.531   1.460
77194W        W48920  32.436  11.239  13.063
77195W        W48921  13.237  19.149   1.965
77196W        W48922  21.223  24.152  14.410
77197W        W48923  10.671  14.989  14.327
77198W        W48924  24.432  16.409  12.150
77199W        W48925  13.213   8.639  14.499
77200W        W48926  37.643  37.902  13.865
77201W        W48927  26.660  42.735   3.650
77202W        W48928  26.117   9.157  12.541
77203W        W48929   9.050  44.171   4.893
77204W        W48930  27.706  27.114  13.019
77205W        W48931  29.675  34.000   0.856
77206W        W48932  30.580  21.782  13.231
77207W        W48933  43.397   6.419  12.782
77208W        W48934  21.746   3.232   0.872
77209W        W48935  20.505   2.968   2.354
77210W        W48936   2.409  23.622  11.897
77211W        W48937  14.751  37.531  12.572
77212W        W48938  36.087  15.371   1.913
77213W        W48939   9.819  32.882  14.850
77214W        W48940  23.698   8.074  14.901
77215W        W48941  36.412  25.622  12.491
77216W        W48942  33.040  10.343  10.747
77217W        W48943  24.216  44.014  11.317
77218W        W48944  28.633  13.722   2.122
77219W        W48945  28.343  24.158   1.661
77220W        W48946   5.275  38.011   0.361
77221W        W48947  13.993   1.924   3.735
77222W        W48948  44.995  43.786   2.479
77223W        W48949  38.657  38.018  11.980
77224W        W48950  26.573  20.401  12.791
77225W        W48951  44.874  10.316   0.504
77226W        W48952   8.392  32.920  12.794
77227W        W48953  26.636  25.564   4.360
77228W        W48954  26.645  44.270  12.825
77229W        W48955   2.585   4.921  14.801
77230W        W48956  25.175  15.171  12.554
77231W        W48957   7.482   2.413   2.647
77232W        W48958  32.912   9.064  14.488
77233W        W48959  11.713  44.404  12.095
77234W        W48960  42.346  31.519   1.442
77235W        W48961  29.954  24.304   1.244
77236W        W48962  17.480   0.345   1.414
77237W        W48963  25.154  23.533  14.871
77238W        W48964  38.432  34.723   4.144
77239W        W48965   5.234  11.224  10.721
77240W        W48966  36.040  11.332  10.748
77241W        W48967   4.246  37.965   4.624
77242W        W48968  32.517   3.672   2.829
77243W        W48969  14.400   7.899  14.333
77244W        W48970  15.788  43.696   2.232
77245W        W48971  10.330  27.923   0.400
77246W        W48972  18.486  27.905   0.897
77247W        W48973  34.461  31.404   2.819
77248W        W48974  20.712  11.355  14.347
77249W        W48975   5.492  21.117   3.273
77250W        W48976  37.152  10.226  13.635
77251W        W48977  42.595  20.475  11.154
77252W        W48978  44.982   7.477   1.297
77253W        W48979  32.863  16.255  11.616
77254W        W48980   0.020  17.169   0.176
77255W        W48981   7.988  41.935  14.355
77256W        W48982  19.636  25.548  14.280
77257W        W48983  41.404  15.168   4.742
77258W        W48984  36.697   1.143   2.733
77259W        W48985   1.833  11.446  12.101
77260W        W48986  14.585  27.941  10.686
77261W        W48987   7.271  12.848   0.270
77262W        W48988  39.542  20.122   0.431
77263W        W48989  12.785  29.829   0.958
77264W        W48990  44.623   2.272   1.365
77265W        W48991   2.803  34.580   0.417
77266W        W48992  17.117  29.457   1.207
77267W        W48993  16.796   7.755   0.728
77268W        W48994  36.023  34.532  13.998
77269W        W48995   0.319  34.106   0.031
77270W        W48996  38.923  27.460  10.609
77271W        W48997  34.466  17.746   3.363
77272W        W48998  16.376  21.645   0.816
77273W        W48999   7.224  30.109   1.248
77274W        W49000  26.144  31.580  13.498
77275W        W49001   6.120   6.794  10.535
77276W        W49002  28.586  18.257   0.410
77277W        W49003   5.834  44.956   2.788
77278W        W49004  42.506  16.669  12.957
77279W        W49005  24.903  41.219  11.560
77280W        W49006   3.637  13.753  10.850
77281W        W49007  16.538  16.445   0.896
77282W        W49008  43.906  15.276  11.994
77283W        W49009  31.977  31.634  10.928
77284W        W49010  35.280  26.373   4.576
77285W        W49011   9.631  32.525   2.404
77286W        W49012   8.269   0.434   4.726
77287W        W49013  44.395  15.859  14.472
77288W        W49014   9.747  20.476   0.935
77289W        W49015  25.491  43.355   2.764
77290W        W49016  32.431  36.077   1.378
77291W        W49017  42.762  26.711   2.393
77292W        W49018   2.201  11.577   1.328
77293W        W49019   1.406  22.722   3.058
77294W        W49020  26.696   9.321  10.963
77295W        W49021  40.600  26.017   4.289
77296W        W49022   6.409  19.124   4.674
77297W        W49023  28.500  33.823  14.793
77298W        W49024  41.493  42.277   2.786
77299W        W49025  32.278  44.884   3.650
77300W        W49026  41.420  18.644   3.624
77301W        W49027   3.506  15.217  12.026
77302W        W49028  38.792  23.901  14.603
77303W        W49029  25.191  11.903   3.130
77304W        W49030  17.072  38.518   4.715
77305W        W49031  41.814  22.321  12.582
77306W        W49032  44.282  25.694   3.148
77307W        W49033   7.013   9.713  12.466
77308W        W49034  33.082  25.233   3.199
77309W        W49035  17.718  16.197  12.010
77310W        W49036  20.129  11.790  10.511
77311W        W49037  14.334  35.432   2.584
77312W        W49038  17.096  14.360  14.263
77313W        W49039  17.581  24.208  13.300
77314W        W49040  26.530  33.382   3.454
77315W        W49041  11.947  18.663   0.844
77316W        W49042  16.409  31.121  12.057
77317W        W49043  36.951  18.583   4.631
77318W        W49044  29.014  29.034   0.248
77319W        W49045  24.662  28.526   2.967
77320W        W49046  20.118  15.865   0.301
77321W        W49047  28.922  30.582   3.371
77322W        W49048  26.851  43.802  10.244
77323W        W49049  39.090  43.862  13.098
77324W        W49050  36.951  25.479   2.608
77325W        W49051  33.462  20.995   0.934
77326W        W49052  27.097  39.950   3.191
77327W        W49053  24.652  15.502  13.514
77328W        W49054  38.393  12.628  10.687
77329W        W49055  20.268  27.942   4.314
77330W        W49056  12.795  42.457  13.873
77331W        W49057  39.010  24.574   0.154
77332W        W49058  40.374  44.516  14.774
77333W        W49059  17.191  32.084  13.143
77334W        W49060  21.445  24.512  12.848
77335W        W49061  41.365   8.355  14.279
77336W        W49062  20.269  34.055  11.001
77337W        W49063   4.914  22.228   2.836
77338W        W49064  21.772  22.328  14.408
77339W        W49065  24.949  43.383   4.630
77340W        W49066  43.738  36.176   1.853
77341W        W49067  24.693  10.277   2.318
77342W        W49068  34.817  42.380   2.931
77343W        W49069  16.128  11.255  10.651
77344W        W49070   7.761  28.717   3.718
77345W        W49071  16.233  28.579   4.438
77346W        W49072  33.867  40.037   4.653
77347W        W49073  40.802  11.242  14.247
77348W        W49074  42.650  29.538   1.780
77349W        W49075   0.272  14.846   2.694
77350W        W49076  27.183  26.112   4.152
77351W        W49077   5.423   7.006   4.601
77352W        W49078  17.891   1.533   1.795
77353W        W49079  33.492  37.125   4.900
77354W        W49080  24.785  40.927   2.317
77355W        W49081  15.102   2.791   1.283
77356W        W49082  12.060  20.081   0.508
77357W        W49083   3.871  39.124  13.057
77358W        W49084  28.613   9.663  13.361
77359W        W49085   3.388  33.348   3.757
77360W        W49086  40.406  23.073  11.451
77361W        W49087  40.285  40.374   0.436
77362W        W49088  33.638   2.981   0.065
77363W        W49089  23.251  12.748  11.006
77364W        W49090  42.940   5.945  11.603
77365W        W49091  14.645  12.820   4.679
77366W        W49092   5.352  28.730  12.647
77367W        W49093   7.362  33.818  12.180
77368W        W49094  27.591  37.796   0.908
77369W        W49095  35.800  33.975  11.169
77370W        W49096  43.353  12.804  11.220
77371W        W49097  38.575  19.844   4.474
77372W        W49098   1.140  22.174   1.176
77373W        W49099  35.079  34.578   3.569
77374W        W49100  37.843   7.688   0.754
77375W        W49101   8.886  24.716   0.345
77376W        W49102   0.893  18.534   2.281
77377W        W49103  43.554   5.195   4.146
77378W        W49104   4.437  24.432  12.081
77379W        W49105  26.131  16.696  10.610
77380W        W49106  13.817  28.461  10.744
77381W        W49107  27.234  43.962   2.221
77382W        W49108  22.160  19.714   2.769
77383W        W49109  36.306  39.037   1.410
77384W        W49110  25.170  33.663  14.482
77385W        W49111  11.002  44.862  14.209
77386W        W49112  22.877  20.063   0.749
77387W        W49113   4.920  14.650  12.881
77388W        W49114   6.371  41.224   3.400
77389W        W49115  44.298  29.478  10.809
77390W        W49116  35.490  30.008   4.669
77391W        W49117  11.321  34.200   0.354
77392W        W49118   6.245  39.902  13.135
77393W        W49119   1.958  10.868  12.961
77394W        W49120  21.224  43.391   3.978
77395W        W49121  18.618  31.215  14.409
77396W        W49122   8.884  36.977  13.876
77397W        W49123  36.899   1.271   4.648
77398W        W49124  35.449  29.490   2.271
77399W        W49125  43.271  36.380  11.143
77400W        W49126  30.632   8.301  12.984
77401W        W49127   2.792   6.793  11.463
77402W        W49128  22.092  12.847  14.863
77403W        W49129  26.408   2.598   4.278
77404W        W49130  17.118  12.085  12.861
77405W        W49131  44.872  36.958  11.592
77406W        W49132  29.277  42.392  11.120
77407W        W49133  33.316  18.282  14.860
77408W        W49134   4.558   2.218  11.878
77409W        W49135   3.042  14.135  13.457
77410W        W49136  29.169  25.402  14.518
77411W        W49137  15.486  13.030   1.416
77412W        W49138  43.718  27.689   4.472
77413W        W49139   0.382  23.207  13.112
77414W        W49140   3.790  28.224  10.850
77415W        W49141  21.623  10.243   2.567
77416W        W49142  24.553   5.407  11.711
77417W        W49143  38.031  38.094  14.917
77418W        W49144  19.212  24.822  10.500
77419W        W49145  36.706  25.506   1.464
77420W        W49146  15.523  33.569  11.442
77421W        W49147   6.921  34.251  11.614
77422W        W49148  24.711  38.360  11.581
77423W        W49149  32.994  23.522  12.960
77424W        W49150  40.886  23.716   3.212
77425W        W49151  41.441   3.189   0.776
77426W        W49152  33.538  32.097   0.660
77427W        W49153  22.580  28.661   9.750
77428W        W49154  38.231   9.441   1.852
77429W        W49155  23.235  30.745  14.326
77430W        W49156  40.281  18.522  14.302
77431W        W49157  32.588  33.365   0.415
77432W        W49158  16.491   8.735  12.884
77433W        W49159   3.440  44.010  13.454
77434W        W49160  12.833   9.092  14.255
77435W        W49161  41.781  34.970   2.670
77436W        W49162  14.992  11.549  12.022
77437W        W49163  35.084  44.809   2.736
77438W        W49164   6.380  12.244   1.369
77439W        W49165  43.911   8.514   4.741
77440W        W49166  23.857   4.448   2.903
77441W        W49167  12.599  31.377   4.629
77442W        W49168  33.050  14.622  13.856
77443W        W49169  20.573  37.654  14.033
77444W        W49170  26.503  35.108   2.115
77445W        W49171  26.617  27.691  12.072
77446W        W49172   1.881  40.462  14.321
77447W        W49173  32.878   8.945   4.054
77448W        W49174  42.991  19.101   4.434
77449W        W49175  39.031   8.711  14.684
77450W        W49176   7.319  24.703  12.360
77451W        W49177  44.941  26.539  11.903
77452W        W49178  13.283  10.310   4.434
77453W        W49179  14.415  44.448   4.126
77454W        W49180  40.030  34.484  14.537
77455W        W49181  36.532   4.884   2.667
77456W        W49182   9.262   8.034   0.796
77457W        W49183  26.894  40.454   3.894
77458W        W49184   8.452   5.582   2.872
77459W        W49185   6.535   7.554   4.182
77460W        W49186  42.395  43.961  12.457
77461W        W49187  42.471   9.462   1.374
77462W        W49188   9.769  29.244  11.954
77463W        W49189  23.037   2.449  12.100
77464W        W49190  12.134   2.871   3.534
77465W        W49191  27.740  42.818  11.564
77466W        W49192  13.836  32.875  11.906
77467W        W49193   6.368   3.958  13.971
77468W        W49194  33.882   3.384  10.747
77469W        W49195  24.495  36.339  11.840
77470W        W49196  29.015  14.099   1.884
77471W        W49197   8.014  20.782  12.148
77472W        W49198   0.865  26.094  12.990
77473W        W49199  11.240  32.400  12.882
77474W        W49200  28.108  10.100   3.673
77475W        W49201  24.808  24.702  11.138
77476W        W49202  34.804  19.483   2.363
77477W        W49203  43.650  12.885  12.989
77478W        W49204  15.019  41.063   2.596
77479W        W49205  26.586  37.068  14.041
77480W        W49206  43.440  40.346   0.226
77481W        W49207  41.820  11.083  10.236
77482W        W49208  23.865  41.254   0.393
77483W        W49209  24.065  44.562   4.115
77484W        W49210  37.884  22.635  11.548
77485W        W49211  33.967  42.862  11.471
77486W        W49212   1.195  26.319   3.342
77487W        W49213  37.732  41.069  11.012
77488W        W49214   8.609  24.465   3.657
77489W        W49215  43.829   1.945   0.242
77490W        W49216   3.953   6.124   0.149
77491W        W49217   6.480  13.843   1.581
77492W        W49218  32.372  14.977   0.712
77493W        W49219  12.240  21.155   0.431
77494W        W49220   5.365  35.681   3.752
77495W        W49221  27.233  12.250  13.986
77496W        W49222  27.458   2.865   4.651
77497W        W49223   1.034  17.511   0.942
77498W        W49224  27.671  29.959   0.456
77499W        W49225  16.912  35.061   1.165
77500W        W49226   4.502  26.956   3.289
77501W        W49227   2.087  17.480   1.935
77502W        W49228  22.182   5.254  13.781
77503W        W49229  44.333  42.757   1.332
77504W        W49230  25.035  27.578  12.860
77505W        W49231  38.332   3.537  12.907
77506W        W49232  24.197  38.946  12.977
77507W        W49233  42.691   0.310   1.439
77508W        W49234  18.662  44.352  11.867
77509W        W49235  30.944   8.337  10.605
77510W        W49236  11.373  31.366  14.535
77511W        W49237  39.995  24.033  11.669
77512W        W49238  28.055  27.931  11.424
77513W        W49239  20.814  41.977  13.091
77514W        W49240   5.772  14.368  10.955
77515W        W49241  26.540  19.918   2.178
77516W        W49242  10.088   7.304  10.548
77517W        W49243  18.979   8.142   0.826
77518W        W49244  11.219   2.688  14.558
77519W        W49245   2.784  11.745   3.611
77520W        W49246  17.847  19.749   4.095
77521W        W49247  11.138   5.714   0.464
77522W        W49248  29.209  11.205   3.140
77523W        W49249  30.082   5.348  14.768
77524W        W49250  32.109  27.136   4.754
77525W        W49251  18.255  26.449  13.506
77526W        W49252  15.800  18.416   0.819
77527W        W49253  26.219   2.634  10.722
77528W        W49254   4.374  25.974  13.987
77529W        W49255  34.111   8.354  11.932
77530W        W49256  32.663  25.108   1.236
77531W        W49257  22.022  26.299  14.914
77532W        W49258  27.670  32.674  11.486
77533W        W49259   8.583  33.019   0.844
77534W        W49260   8.849  26.573   4.598
77535W        W49261  16.846  20.610   0.448
77536W        W49262  30.892  33.024   2.283
77537W        W49263  30.913   6.881   0.354
77538W        W49264  44.418  43.675  11.183
77539W        W49265  12.582  41.290  12.269
77540W        W49266  11.291   5.211  11.337
77541W        W49267  24.299  30.183  14.998
77542W        W49268   6.320   1.012   0.319
77543W        W49269  16.354  30.133  14.331
77544W        W49270   4.870   0.459   3.225
77545W        W49271  10.445  31.645   5.024
77546W        W49272  44.892  13.848  14.829
77547W        W49273  35.015  35.922  14.351
77548W        W49274  35.805  39.470   2.011
77549W        W49275  12.682  42.367   3.385
77550W        W49276  30.552   8.791  13.125
77551W        W49277  11.779  27.152  12.477
77552W        W49278  12.108  14.349   1.148
77553W        W49279  30.583   9.596  14.784
77554W        W49280  34.019  17.314   1.325
77555W        W49281   4.874  24.580   3.671
77556W        W49282   9.593   6.231   1.446
77557W        W49283  14.785   2.256   3.677
77558W        W49284  15.606  23.757  13.842
77559W        W49285   1.542  40.085   1.793
77560W        W49286  31.927  22.633  11.651
77561W        W49287  18.077  22.550  11.957
77562W        W49288   6.203  40.447  10.676
77563W        W49289  29.272  39.023  10.792
77564W        W49290  24.831  37.859   1.881
77565W        W49291   7.923  39.424   1.917
77566W        W49292  39.345   6.419  12.545
77567W        W49293  19.819  41.354   3.343
77568W        W49294  28.131  22.992   1.952
77569W        W49295   9.268  34.048   5.482
77570W        W49296  39.417  17.004   0.886
77571W        W49297  14.982  24.159  13.554
77572W        W49298  29.173  19.513  14.475
77573W        W49299  31.539   8.948   0.315
77574W        W49300  21.726   5.733   1.208
77575W        W49301  15.888   5.742   3.266
77576W        W49302  33.005  44.834   4.878
77577W        W49303  19.375  40.284  12.365
77578W        W49304  31.487   5.511  10.643
77579W        W49305  11.673  12.618   2.864
77580W        W49306  12.294  24.544  12.720
77581W        W49307  13.146  27.985  13.948
77582W        W49308  20.805  23.241   0.321
77583W        W49309  40.873  25.031  12.533
77584W        W49310  18.710  30.196   4.308
77585W        W49311  24.092   2.056   2.426
77586W        W49312   7.283  26.649   5.046
77587W        W49313   7.758   4.009   2.424
77588W        W49314  37.309  23.273   2.617
77589W        W49315  36.493  38.330  12.519
77590W        W49316  16.480   7.857  10.738
77591W        W49317  15.654   8.347  13.929
77592W        W49318  31.090   0.678   1.240
77593W        W49319   5.420  38.238  14.294
77594W        W49320  13.765  34.174   2.677
77595W        W49321  10.712  21.643   0.943
77596W        W49322  27.492  22.802   1.834
77597W        W49323  44.369   9.881  11.560
77598W        W49324  24.550  31.022   4.373
77599W        W49325  25.417  31.966   1.348
77600W        W49326  41.419  38.906  14.019
77601W        W49327  25.666  36.458   4.317
77602W        W49328   3.093   0.343   2.293
77603W        W49329  34.560  24.603   2.141
77604W        W49330  38.244   6.716   1.892
77605W        W49331  19.229   9.199  14.126
77606W        W49332  31.524  28.192   0.379
77607W        W49333  40.609  10.276  12.616
77608W        W49334  25.646  11.941   2.774
77609W        W49335  44.095  11.604  13.419
77610W        W49336  13.790  15.368  11.015
77611W        W49337  19.624  39.933  10.640
77612W        W49338  18.085  22.330  12.443
77613W        W49339  44.140  33.638   5.001
77614W        W49340  27.669  11.206  11.147
77615W        W49341  44.695  44.692  11.932
77616W        W49342  38.943  25.419  13.051
77617W        W49343  40.998  38.856   1.351
77618W        W49344   5.798   7.408   1.110
77619W        W49345  38.093  26.986   3.392
77620W        W49346  26.980  34.503  13.093
77621W        W49347  36.795  15.345   3.248
77622W        W49348  18.802  27.740  13.405
77623W        W49349   2.871  34.654  10.453
77624W        W49350   3.204  32.606  14.160
77625W        W49351  25.254  33.832   4.396
77626W        W49352   6.914  36.920   3.234
77627W        W49353  16.275  30.657  14.318
77628W        W49354  19.354  24.589   1.228
77629W        W49355  13.708  12.270   1.718
77630W        W49356  39.843  18.386   1.227
77631W        W49357  16.728   3.458   1.443
77632W        W49358   0.758  16.235   1.225
77633W        W49359  44.251   5.639  13.366
77634W        W49360  19.274   5.984   1.416
77635W        W49361   2.348  25.468  13.792
77636W        W49362  40.406  24.518  14.261
77637W        W49363   4.763  39.804  14.828
77638W        W49364  44.847  27.713   3.208
77639W        W49365  23.418  41.371   3.217
77640W        W49366  34.500  25.262   4.885
77641W        W49367  33.132  10.180   0.850
77642W        W49368  19.131  43.816  13.255
77643W        W49369   3.260   8.213   3.419
77644W        W49370  10.682  14.361   3.836
77645W        W49371  23.202   7.673   4.447
77646W        W49372   5.579  23.654   4.600
77647W        W49373  11.407  10.547   3.380
77648W        W49374  30.253  32.617  11.464
77649W        W49375  20.021  29.631  12.312
77650W        W49376  10.199   9.340  11.130
77651W        W49377  20.683  42.050  12.573
77652W        W49378  20.200  10.978   4.870
77653W        W49379  24.498  44.091   2.332
77654W        W49380  39.484  18.214  13.327
77655W        W49381  28.013  41.876   3.564
77656W        W49382  15.775   7.848   3.402
77657W        W49383  28.177   8.547  14.871
77658W        W49384  44.784  35.896  12.518
77659W        W49385   1.813  10.948   2.666
77660W        W49386  16.146   2.044   3.581
77661W        W49387  38.415  15.296  13.541
77662W        W49388  26.331  20.051   4.154
77663W        W49389  22.660  43.309  10.633
77664W        W49390  22.309  43.373   0.879
77665W        W49391  41.128  43.978   3.728
77666W        W49392   2.771  24.134   0.479
77667W        W49393  38.787  28.368  10.254
77668W        W49394   0.915  41.713  14.997
77669W        W49395  33.921  44.933   2.368
77670W        W49396  10.167  30.004   2.702
77671W        W49397  19.569  39.545   4.656
77672W        W49398  40.825   6.946  12.346
77673W        W49399   1.690  12.804  11.244
77674W        W49400   9.577   8.097  14.349
77675W        W49401  11.137  16.623  11.112
77676W        W49402  40.476   3.144  12.723
77677W        W49403  24.361  36.993   1.453
77678W        W49404  22.203  31.382   2.789
77679W        W49405   8.201  23.412  11.621
77680W        W49406  27.956  24.723   2.727
77681W        W49407  41.811  33.766  12.071
77682W        W49408   0.659  38.134  12.135
77683W        W49409  16.639  35.600  14.858
77684W        W49410   8.552  35.400   1.843
77685W        W49411  24.216  21.250   2.775
77686W        W49412  33.529   8.738   4.834
77687W        W49413   0.870   0.197  12.648
77688W        W49414  20.796  20.777   4.188
77689W        W49415   7.548  18.057  11.168
77690W        W49416  27.685  17.105   4.898
77691W        W49417  24.532   2.210  10.998
77692W        W49418  30.170  29.337   1.415
77693W        W49419  20.470  28.161   3.241
77694W        W49420   7.704  24.421   3.734
77695W        W49421  43.393  34.207   3.281
77696W        W49422   3.776   7.644  13.463
77697W        W49423  23.699  16.283  13.963
77698W        W49424  43.460  44.922  14.373
77699W        W49425  12.986  18.712   2.118
77700W        W49426  22.183  32.677   3.688
77701W        W49427  26.666  11.140  13.864
77702W        W49428  39.964  17.116  13.189
77703W        W49429   9.876  39.926   4.760
77704W        W49430  21.131  39.578  14.942
77705W        W49431  39.867   0.975   0.680
77706W        W49432  43.754  32.488  13.962
77707W        W49433  44.829  25.540   2.938
77708W        W49434  13.900  40.458   2.872
77709W        W49435  43.510  14.072   0.833
77710W        W49436  19.805  23.541  10.461
77711W        W49437  43.418   4.057   3.237
77712W        W49438  13.085  26.348  10.360
77713W        W49439  18.312   7.846   2.009
77714W        W49440  44.345  39.340  14.066
77715W        W49441  37.883  13.627   4.954
77716W        W49442  22.235  36.318  12.246
77717W        W49443   1.797  18.041  14.037
77718W        W49444  14.738   4.362   4.602
77719W        W49445  28.552  20.285   2.413
77720W        W49446  22.511   9.760  13.379
77721W        W49447  30.679  19.597  10.794
77722W        W49448  36.030   3.710   2.312
77723W        W49449  32.315  35.774   0.551
77724W        W49450  36.842  17.603  12.497
77725W        W49451  31.663   5.258  14.905
77726W        W49452  12.561  41.476   0.300
77727W        W49453   4.710  24.723  11.575
77728W        W49454  34.149  41.555  13.064
77729W        W49455  29.552  26.177  11.462
77730W        W49456  28.455  20.542   1.479
77731W        W49457  28.737   1.280   0.967
77732W        W49458  35.663   0.846  10.875
77733W        W49459   9.132  35.957   2.335
77734W        W49460  37.257  17.578  11.666
77735W        W49461   1.100   9.366  14.493
77736W        W49462   5.430  43.170  12.285
77737W        W49463  30.247  14.911  12.232
77738W        W49464  21.398   5.783  11.195
77739W        W49465  18.195  26.611  13.997
77740W        W49466  24.634  44.477  14.399
77741W        W49467  19.950   3.843   1.550
77742W        W49468   0.221   9.621  13.336
77743W        W49469  11.342  35.486  14.921
77744W        W49470   2.471  14.651   1.790
77745W        W49471  35.443  12.769  13.547
77746W        W49472  37.385  42.258   4.596
77747W        W49473  35.746  38.861  11.957
77748W        W49474   2.265  11.866   4.427
77749W        W49475  20.778  34.781   0.176
77750W        W49476  30.339  44.390  14.508
77751W        W49477  24.215  43.354   2.958
77752W        W49478  33.005   1.414   2.425
77753W        W49479  37.411   4.506  14.945
77754W        W49480  42.014  30.174  14.754
77755W        W49481  17.519   7.741   3.635
77756W        W49482  32.121  41.279   4.122
77757W        W49483   1.867  38.065   1.007
77758W        W49484  34.747  30.934   3.647
77759W        W49485   9.742  40.274  13.917
77760W        W49486  34.059  32.069   0.697
77761W        W49487  36.605  10.017  12.046
77762W        W49488  37.702  18.717   1.244
77763W        W49489  25.813  32.212  14.041
77764W        W49490  10.113  18.654   0.951
77765W        W49491  37.497  35.492   1.715
77766W        W49492  36.769  28.679  11.124
77767W        W49493  10.181  12.889  12.947
77768W        W49494   8.870  23.506  11.223
77769W        W49495   7.513  20.116  14.361
77770W        W49496  19.345  20.777  11.177
77771W        W49497   6.961  26.520   0.291
77772W        W49498  34.725  37.048   0.651
77773W        W49499   7.425   3.401   0.633
77774W        W49500  20.947  44.467  13.178
77775W        W49501  29.240  12.137   3.400
77776W        W49502  12.790  32.671   2.806
77777W        W49503   4.779  11.653   1.201
77778W        W49504   2.081  42.531  12.032
77779W        W49505  17.467  28.497  13.112
77780W        W49506  11.162  27.728   1.050
77781W        W49507  41.011  18.077  14.006
77782W        W49508  16.995  11.413  10.599
77783W        W49509  20.770  12.224  12.908
77784W        W49510  15.141  14.326  11.137
77785W        W49511  32.879  37.439  12.516
77786W        W49512  20.871  20.482  13.745
77787W        W49513  17.511   1.878  12.876
77788W        W49514  37.805  36.986  14.954
77789W        W49515  33.484  11.657   1.369
77790W        W49516   3.495  20.287  13.418
77791W        W49517  10.614  29.624   1.611
77792W        W49518   5.165  22.435  10.211
77793W        W49519  35.538  35.183   1.160
77794W        W49520  29.016  37.449   3.373
77795W        W49521  20.076  10.371   3.294
77796W        W49522   8.820  43.547  12.002
77797W        W49523   3.709  13.626  14.759
77798W        W49524  14.904   2.380   1.884
77799W        W49525  11.804  11.214   4.825
77800W        W49526   6.153   1.740  14.036
77801W        W49527  17.321  21.152  10.716
77802W        W49528  10.024  33.197   1.731
77803W        W49529  41.817  29.602  10.779
77804W        W49530  32.149  40.485  12.502
77805W        W49531  14.272  27.894  11.681
77806W        W49532  36.711   5.718   3.913
77807W        W49533  25.422  33.400  10.688
77808W        W49534  14.804  41.311   0.253
77809W        W49535  32.562   7.239   4.534
77810W        W49536  28.155  35.577   0.870
77811W        W49537   4.496  39.994   2.465
77812W        W49538   7.321  11.600   3.167
77813W        W49539   4.878  41.238  10.625
77814W        W49540  39.338  18.345   1.382
77815W        W49541  30.200  29.664  13.448
77816W        W49542  32.377  26.385   0.339
77817W        W49543  43.833  10.364   2.251
77818W        W49544  17.766  23.172  13.527
77819W        W49545   7.470  26.996  10.726
77820W        W49546   4.840  24.369   2.652
77821W        W49547  44.309  13.578  11.632
77822W        W49548  34.329  11.641   2.377
77823W        W49549  34.000   3.346  13.468
77824W        W49550  42.797  39.335   3.866
77825W        W49551  42.985  29.706  14.024
77826W        W49552  26.748  22.971   2.646
77827W        W49553   4.477   0.869  11.871
77828W        W49554  44.961  23.018   3.365
77829W        W49555  30.126  30.364   1.261
77830W        W49556  38.397  13.578   3.144
77831W        W49557  35.046  40.433  11.625
77832W        W49558  19.348  33.209   1.908
77833W        W49559  10.323   8.295   1.238
77834W        W49560  11.443   5.122  13.778
77835W        W49561  37.080  34.950   0.187
77836W        W49562  20.769  22.632  14.682
77837W        W49563  36.498  42.985   4.647
77838W        W49564  30.853  41.858  13.646
77839W        W49565  40.412  37.063  11.815
77840W        W49566  15.062  14.806  13.487
77841W        W49567  30.605  42.949  14.827
77842W        W49568  15.044  13.502   2.332
77843W        W49569  32.515  30.468  14.149
77844W        W49570  44.827   9.146   2.797
77845W        W49571  27.979   7.878  12.499
77846W        W49572  27.257  28.105  12.871
77847W        W49573  28.477   4.331  12.133
77848W        W49574  25.226  31.585   4.693
77849W        W49575  41.268   4.104  13.868
77850W        W49576   5.882  36.657   3.674
77851W        W49577   5.077  22.708  11.566
77852W        W49578  22.090  31.178   2.285
77853W        W49579  32.871  35.363  11.566
77854W        W49580  15.777  23.646  14.808
77855W        W49581  33.516  14.759   4.476
77856W        W49582   4.976  38.944   1.448
77857W        W49583   6.710  28.645  11.499
77858W        W49584  22.727  20.967  11.603
77859W        W49585  29.728   5.008  13.589
77860W        W49586  35.486  23.195  14.963
77861W        W49587  43.422  28.724  11.176
77862W        W49588  19.765  44.215   2.341
77863W        W49589  10.591  11.712   4.175
77864W        W49590   7.385  24.263  12.667
77865W        W49591  32.873  15.731   4.149
77866W        W49592   8.838  19.615  11.946
77867W        W49593   5.791   5.831   0.431
77868W        W49594  17.462  15.189   3.682
77869W        W49595  36.894  14.786  12.851
77870W        W49596  36.590  39.044  11.987
77871W        W49597  38.513  11.561   4.535
77872W        W49598  40.790  17.784  10.725
77873W        W49599  20.125   2.428  11.081
77874W        W49600  40.034  11.843  13.543
77875W        W49601  38.542  12.519   4.239
77876W        W49602  33.558  25.094   3.325
77877W        W49603  44.931  25.449  11.013
77878W        W49604  22.171  15.482   0.528
77879W        W49605  11.193  23.037   0.092
77880W        W49606   0.605  15.988   4.381
77881W        W49607  44.869   2.400   4.373
77882W        W49608  31.576   9.302  13.571
77883W        W49609  16.952   8.018  11.620
77884W        W49610   0.935   4.309  14.726
77885W        W49611  34.533  35.161  11.208
77886W        W49612  25.614  19.735  12.647
77887W        W49613  28.041   4.714  14.551
77888W        W49614  42.890   0.391   0.551
77889W        W49615   3.008   6.428   4.414
77890W        W49616   1.050  38.051   3.704
77891W        W49617  28.097  42.884   2.448
77892W        W49618  38.890  23.488  11.960
77893W        W49619   1.259   9.783   4.202
77894W        W49620  18.812  11.912  11.174
77895W        W49621  43.377  12.230   4.248
77896W        W49622  30.384  26.255  12.873
77897W        W49623  44.020  24.533   1.275
77898W        W49624  33.187   5.022  12.522
77899W        W49625   2.565  21.759   1.877
77900W        W49626  23.440  12.256  11.107
77901W        W49627   1.886  16.865   3.379
77902W        W49628  23.546  18.094   3.210
77903W        W49629  39.542  42.828   1.510
77904W        W49630  17.060  22.398   1.067
77905W        W49631  17.817  37.473   2.422
77906W        W49632  15.379  20.718   0.335
77907W        W49633   3.625  28.657   2.850
77908W        W49634  14.538  41.196   1.769
77909W        W49635  37.947  14.372  13.770
77910W        W49636   3.358  38.012   4.620
77911W        W49637  30.104  28.018   4.953
77912W        W49638  40.937  16.235   1.514
77913W        W49639   6.754  39.049  10.613
77914W        W49640  13.193  18.778   0.286
77915W        W49641  39.087  36.580  13.266
77916W        W49642  30.082   3.670  13.788
77917W        W49643  14.082  32.656  14.414
77918W        W49644  24.752  16.476   4.192
77919W        W49645  23.418  11.579   4.089
77920W        W49646  41.964  44.525   2.616
77921W        W49647  16.530  32.800  10.737
77922W        W49648  25.556   0.702   2.886
77923W        W49649   0.328  14.101   0.026
77924W        W49650  31.134  32.281  12.851
77925W        W49651  43.230  29.421  10.921
77926W        W49652   3.944  14.446   2.822
77927W        W49653  14.725   8.624   0.740
77928W        W49654  20.047   4.582   0.874
77929W        W49655  20.426  12.595  11.139
77930W        W49656   4.001  43.688   3.200
77931W        W49657   3.398  44.843   4.411
77932W        W49658   3.869  29.954  13.801
77933W        W49659  15.288  10.891  11.330
77934W        W49660  17.844   1.500  10.509
77935W        W49661  12.115  35.011   1.496
77936W        W49662   6.929  42.082  13.461
77937W        W49663  23.864  19.693   5.038
77938W        W49664  36.347  39.327  12.881
77939W        W49665  22.594  33.876  10.703
77940W        W49666   7.178  32.869   4.142
77941W        W49667  10.412  29.515   0.938
77942W        W49668  13.821  41.512   4.775
77943W        W49669  32.211  13.810  12.153
77944W        W49670  22.498  44.263   3.165
77945W        W49671  44.466  27.696   2.303
77946W        W49672  39.866  33.004  12.658
77947W        W49673  37.501   4.919   4.515
77948W        W49674  44.535   6.375   4.963
77949W        W49675   8.350  33.919  13.151
77950W        W49676  13.857  19.548   1.344
77951W        W49677  20.124  19.771  12.559
77952W        W49678  37.986  18.709   1.694
77953W        W49679   1.779  22.609  10.736
77954W        W49680  33.554  20.977  11.087
77955W        W49681  28.460  18.462  13.915
77956W        W49682  17.698  11.122  11.742
77957W        W49683  41.138  16.150   2.331
77958W        W49684  25.788  38.239  12.037
77959W        W49685   8.683  18.347   0.944
77960W        W49686  43.154  26.593   1.137
77961W        W49687  27.470   9.046  13.059
77962W        W49688   3.927  18.777   2.898
77963W        W49689  24.198  21.619   4.824
77964W        W49690  38.310   3.430  10.766
77965W        W49691  24.564  35.005  12.967
77966W        W49692  17.584  23.552   4.523
77967W        W49693  43.681  19.819  12.711
77968W        W49694  44.934  17.570   1.831
77969W        W49695  28.901  34.582  12.981
77970W        W49696  28.141  28.461  14.337
77971W        W49697  12.681  42.000   1.573
77972W        W49698  20.747  42.924  13.307
77973W        W49699   2.387  13.700  12.782
77974W        W49700  11.340  18.664  13.614
77975W        W49701  23.736   9.905  14.287
77976W        W49702   8.439  32.431   0.384
77977W        W49703  39.797  24.946   2.761
77978W        W49704  21.573  32.428  10.652
77979W        W49705  40.905  15.712   1.403
77980W        W49706  25.092   5.802   4.259
77981W        W49707   7.474   9.783   0.397
77982W        W49708  15.811  27.486  10.868
77983W        W49709  43.875   9.898  11.398
77984W        W49710  15.776  33.287  10.523
77985W        W49711  34.544  33.122  12.566
77986W        W49712   7.854  26.386   0.345
77987W        W49713  32.586  18.998   0.300
77988W        W49714  41.977  41.034  11.533
77989W        W49715  28.674  44.263   3.923
77990W        W49716  16.664   5.093   2.845
77991W        W49717  26.035  25.867   3.589
77992W        W49718  42.071  16.754   1.780
77993W        W49719  19.590  36.591  10.686
77994W        W49720  13.836  19.567  12.841
77995W        W49721  28.072  34.789  12.412
77996W        W49722  41.894  23.677  12.878
77997W        W49723  16.234  33.374   2.315
77998W        W49724  22.858  20.695   0.171
77999W        W49725  19.203  15.486   0.001
78000W        W49726  10.580   5.241  12.492
78001W        W49727  33.657  21.609   0.473
78002W        W49728  10.080  12.336  14.073
78003W        W49729  43.213  38.433  10.651
78004W        W49730   0.959  33.273   3.723
78005W        W49731   1.819  12.648   1.017
78006W        W49732  17.667  32.396   4.608
78007W        W49733  12.582  32.307  11.233
78008W        W49734   9.776  35.093   3.270
78009W        W49735  13.777  31.087  10.769
78010W        W49736   0.344  15.350   0.417
78011W        W49737   9.869  28.225   2.959
78012W        W49738  33.449  22.509  11.217
78013W        W49739   8.069   0.416  11.230
78014W        W49740  13.795  32.372  11.889
78015W        W49741   8.809   6.792   2.224
78016W        W49742   5.408  10.291  11.055
78017W        W49743  27.131  16.553   0.929
78018W        W49744  12.280  16.556   3.239
78019W        W49745  14.685  41.999   3.358
78020W        W49746   3.156  38.860   3.289
78021W        W49747  18.139   9.779   4.588
78022W        W49748  11.679   1.552   2.856
78023W        W49749   4.874  21.304  10.955
78024W        W49750   4.738  19.020   2.823
78025W        W49751  28.966  20.541  13.163
78026W        W49752  14.129   6.156  12.539
78027W        W49753  24.962  25.477   1.934
78028W        W49754  11.514  11.695  11.155
78029W        W49755  42.892  44.431  13.885
78030W        W49756  20.196  27.239  13.038
78031W        W49757   6.864  23.151   3.605
78032W        W49758  28.385  31.050   4.123
78033W        W49759  39.097  28.425   1.847
78034W        W49760  28.528   1.218  11.981
78035W        W49761  36.557  41.458  12.437
78036W        W49762  21.954   3.285  14.099
78037W        W49763  34.418   9.902   1.679
78038W        W49764   8.190  32.616   4.363
78039W        W49765  28.504  22.212   3.945
78040W        W49766  14.536   3.514  10.679
78041W        W49767   9.421  32.771   3.222
78042W        W49768  16.644  11.892  12.998
78043W        W49769  23.757  17.775  12.454
78044W        W49770  38.615  44.834  10.865
78045W        W49771   1.817  32.816   2.284
78046W        W49772  17.433   5.841   0.889
78047W        W49773   1.476   4.307  10.683
78048W        W49774  28.518   5.367  11.010
78049W        W49775  12.317  33.616  10.570
78050W        W49776  23.721  22.044   0.443
78051W        W49777  33.941  21.621   2.269
78052W        W49778  29.874  32.050  10.285
78053W        W49779  15.312   0.882   3.888
78054W        W49780  43.352  10.590   2.249
78055W        W49781  23.228  28.966   1.693
78056W        W49782  22.564  27.596   9.954
78057W        W49783  31.870  42.357   0.486
78058W        W49784   7.861  14.373  11.540
78059W        W49785  30.607  27.112   3.544
78060W        W49786  33.352  11.343   2.737
78061W        W49787  31.403   1.582   3.688
78062W        W49788  23.101  11.993   4.179
78063W        W49789  40.236   1.386  14.555
78064W        W49790  10.364  38.484   2.189
78065W        W49791  27.540  40.813   1.137
78066W        W49792   6.326  39.426   1.759
78067W        W49793  34.941  24.568   1.773
78068W        W49794  13.311  15.715   3.692
78069W        W49795  39.470   8.426  13.718
78070W        W49796  39.865  11.203   1.967
78071W        W49797  23.008   2.477  11.206
78072W        W49798   9.721   7.182   3.287
78073W        W49799  37.369  28.193   5.059
78074W        W49800  29.635  38.005  13.059
78075W        W49801  24.456  20.784   2.784
78076W        W49802  19.029  39.870  12.519
78077W        W49803  11.948   4.414  13.787
78078W        W49804   1.232  40.612   0.507
78079W        W49805  27.473  30.249  10.750
78080W        W49806  44.578  24.605   3.668
78081W        W49807   6.542  39.981  10.644
78082W        W49808  20.076  38.469   3.181
78083W        W49809  41.863  20.536   3.689
78084W        W49810  39.316  19.699   1.136
78085W        W49811  20.740  14.529   5.451
78086W        W49812  28.999  35.437   4.590
78087W        W49813  41.640  17.741  11.489
78088W        W49814  26.441   4.538   5.045
78089W        W49815  32.381  36.930  13.038
78090W        W49816  41.789  32.738  13.887
78091W        W49817  12.553   8.317  12.096
78092W        W49818  28.146   7.907   4.437
78093W        W49819  22.198  29.914   4.638
78094W        W49820  43.566  16.065   4.334
78095W        W49821   7.922  13.727   3.743
78096W        W49822  43.736  19.756   2.677
78097W        W49823  27.446   6.190   2.759
78098W        W49824  35.011  32.001  11.606
78099W        W49825  25.050  22.214   2.658
78100W        W49826  43.595  39.087   4.459
78101W        W49827  26.035  33.144  13.547
78102W        W49828  29.190   8.429  12.531
78103W        W49829  42.667  32.569  14.941
78104W        W49830  27.110   5.628   2.317
78105W        W49831   5.805  41.834   2.758
78106W        W49832  44.783  27.433  11.242
78107W        W49833  15.843  39.081   2.742
78108W        W49834  44.275   0.499  10.974
78109W        W49835   6.302  32.674  14.395
78110W        W49836  33.772  39.419   1.909
78111W        W49837  25.347  36.503  13.586
78112W        W49838   9.209  42.698   3.465
78113W        W49839  21.239   6.984  12.947
78114W        W49840  28.905  42.289   3.201
78115W        W49841  14.203  12.907  14.039
78116W        W49842   6.161   0.217  11.092
78117W        W49843  17.063  33.811   2.893
78118W        W49844   4.178  33.396  12.889
78119W        W49845  31.043  37.995  13.805
78120W        W49846   1.067  19.102   0.132
78121W        W49847  28.552  22.283  14.473
78122W        W49848   9.731   9.198  11.615
78123W        W49849  42.517  22.798  11.960
78124W        W49850   9.485  19.996  11.536
78125W        W49851  25.110  36.390  14.049
78126W        W49852   3.266  13.994  11.712
78127W        W49853  32.457  27.940   4.645
78128W        W49854  38.176  11.457   4.955
78129W        W49855  16.509  37.120   2.921
78130W        W49856  43.273  34.343  12.512
78131W        W49857  21.570  20.143   0.508
78132W        W49858  23.902   3.028  12.533
78133W        W49859  20.643   8.866   2.390
78134W        W49860  18.564  22.991  11.070
78135W        W49861  44.422  14.569   0.888
78136W        W49862  18.214   1.773  11.570
78137W        W49863  15.984   7.133  11.158
78138W        W49864  25.014  24.550  14.348
78139W        W49865  18.727  34.518   4.554
78140W        W49866   8.356  26.679   4.833
78141W        W49867  29.638  44.764  11.444
78142W        W49868  38.049  18.257  12.119
78143W        W49869  16.629  25.465   2.849
78144W        W49870  24.772   0.914  13.859
78145W        W49871  33.950  29.469   1.733
78146W        W49872  24.533  40.398  11.507
78147W        W49873  19.713  28.194  14.348
78148W        W49874  12.269   1.022  14.854
78149W        W49875  28.390  12.443  12.479
78150W        W49876   9.607   7.673   3.418
78151W        W49877  41.359  28.929  10.650
78152W        W49878  15.618   4.682  13.450
78153W        W49879  11.851  21.512   2.918
78154W        W49880   9.247  41.309  14.871
78155W        W49881  16.768  18.448   3.892
78156W        W49882  20.606  43.474   4.616
78157W        W49883  12.043  44.260   4.772
78158W        W49884   1.335  41.246   4.526
78159W        W49885  33.612   2.764  11.543
78160W        W49886   1.829  33.105   3.895
78161W        W49887  41.484  28.179  13.525
78162W        W49888  33.442  31.507  10.673
78163W        W49889  38.739  28.903   1.826
78164W        W49890  36.775  42.262   4.520
78165W        W49891  33.069  38.969  10.432
78166W        W49892  15.796   2.344   2.198
78167W        W49893  27.193   8.419  11.998
78168W        W49894  12.942  23.016  12.367
78169W        W49895  37.082   7.065  11.408
78170W        W49896  37.430   6.010   5.253
78171W        W49897  17.047   0.519  10.786
78172W        W49898  24.161  42.348   0.399
78173W        W49899  33.259  23.803  13.385
78174W        W49900   4.561  38.539  11.319
78175W        W49901  20.154  36.348   0.421
78176W        W49902  28.094  13.351   2.957
78177W        W49903  11.337   0.498  14.959
78178W        W49904  27.242  14.528  13.839
78179W        W49905  22.537  15.797   0.339
78180W        W49906  36.570  30.301  12.493
78181W        W49907  37.011   4.867   1.792
78182W        W49908  22.142  41.761   2.175
78183W        W49909  24.414  26.462   3.122
78184W        W49910  43.732  20.285  14.991
78185W        W49911   4.437  24.747   2.579
78186W        W49912   7.211  43.485  14.964
78187W        W49913   7.798  41.850   3.271
78188W        W49914  35.325   9.104   3.274
78189W        W49915  27.222  29.885  12.866
78190W        W49916  26.442   5.461  13.277
78191W        W49917  41.420  26.722  11.880
78192W        W49918  27.128  25.037  13.366
78193W        W49919  27.721  17.237  14.124
78194W        W49920  31.342  14.851   4.799
78195W        W49921  22.266   2.076  13.352
78196W        W49922  33.399  26.437  10.148
78197W        W49923  44.690  25.457   3.915
78198W        W49924  28.044  26.101  13.474
78199W        W49925   3.792   0.923  14.417
78200W        W49926  31.565  42.836  12.463
78201W        W49927  27.543  35.565  11.535
78202W        W49928  36.269   0.489   3.683
78203W        W49929  11.849  25.701   4.143
78204W        W49930   2.584  24.306   3.271
78205W        W49931  18.443  15.317   1.375
78206W        W49932  41.751  29.565   2.855
78207W        W49933  21.537  18.190  14.911
78208W        W49934  27.383  32.410   4.223
78209W        W49935  30.574   6.870   3.389
78210W        W49936  44.535  11.729   0.921
78211W        W49937  36.459  12.334   1.159
78212W        W49938  12.801  29.671   3.292
78213W        W49939  28.490  26.997  11.159
78214W        W49940  36.403   4.957  11.253
78215W        W49941  28.318  44.780   0.468
78216W        W49942  10.706  43.755   0.706
78217W        W49943  25.076  18.964   3.444
78218W        W49944  27.138  11.276   2.404
78219W        W49945  24.801  13.420   2.925
78220W        W49946  19.525  25.231   5.076
78221W        W49947  15.647  43.337  11.632
78222W        W49948  15.122   8.577   2.478
78223W        W49949  39.965  33.628   1.357
78224W        W49950  33.304   7.813   1.828
78225W        W49951  36.121  15.266   1.380
78226W        W49952  36.604   3.740  13.121
78227W        W49953   8.170  36.938  11.860
78228W        W49954   5.050  25.293   0.798
78229W        W49955  34.767  32.912  10.319
78230W        W49956   7.208  34.095  12.579
78231W        W49957  11.387  26.607   1.494
78232W        W49958   4.838  24.201  12.325
78233W        W49959  17.267  10.902   1.945
78234W        W49960  14.214   3.684   4.221
78235W        W49961  37.906  38.894   1.505
78236W        W49962  21.795  21.286   2.819
78237W        W49963   4.974   5.455   3.632
78238W        W49964   0.007  44.358  11.636
78239W        W49965  41.278  18.685  12.939
78240W        W49966   4.165  16.305   0.803
78241W        W49967  17.253  33.551  14.972
78242W        W49968  36.359   7.384   2.874
78243W        W49969  31.221  14.673   0.509
78244W        W49970   1.933  17.558   2.455
78245W        W49971  29.727   6.787  13.977
78246W        W49972  34.490  36.089  12.110
78247W        W49973  36.092  16.329  11.428
78248W        W49974  14.761  37.263   1.311
78249W        W49975  26.772  11.721   2.070
78250W        W49976  35.079  36.749   2.837
78251W        W49977  28.967  43.474   2.333
78252W        W49978  11.630  32.484  13.220
78253W        W49979   2.287  28.235  11.066
78254W        W49980   2.041   7.087  12.035
78255W        W49981  36.573  10.794  11.636
78256W        W49982  15.212  41.576   1.434
78257W        W49983  38.047   5.874   3.421
78258W        W49984  16.796  16.747  14.915
78259W        W49985   3.837  31.703  12.840
78260W        W49986  24.492  13.766   1.763
78261W        W49987  34.989  44.484   0.864
78262W        W49988  33.844   6.869  12.549
78263W        W49989   5.653  18.023  13.504
78264W        W49990  30.199  14.200  11.608
78265W        W49991  24.542  31.197  14.867
78266W        W49992  18.770  37.452   4.931
78267W        W49993  28.384   3.006  11.482
78268W        W49994  43.978   3.303  11.460
78269W        W49995  29.733  12.876   5.115
78270W        W49996  42.778  13.583   3.148
78271W        W49997  28.724  42.320   3.687
78272W        W49998  14.162  31.147   4.186
78273W        W49999   9.835  34.520  11.067
78274W        W50000   9.888   1.777  12.140
78275W        W50001  16.682  17.563  12.162
78276W        W50002  17.753  40.746  10.601
78277W        W50003   3.109  15.533  12.039
78278W        W50004  44.933   1.702  14.738
78279W        W50005  35.844  38.012  12.219
78280W        W50006  13.770  17.122  14.137
78281W        W50007  34.535   0.459   3.604
78282W        W50008  17.080  12.247   0.744
78283W        W50009  35.613   6.911  13.680
78284W        W50010  35.577  17.165  12.450
78285W        W50011  37.340  28.563  13.924
78286W        W50012  17.559  24.236   1.337
78287W        W50013   0.760  10.380  10.748
78288W        W50014   3.234  18.812  10.683
78289W        W50015  41.705  17.004   3.823
78290W        W50016  26.150  25.528   3.202
78291W        W50017   0.149  29.088  14.994
78292W        W50018  28.489  43.713   1.745
78293W        W50019  18.996   6.797   2.291
78294W        W50020  41.586   7.570   5.047
78295W        W50021   3.588  14.320   3.165
78296W        W50022  32.561  28.988  14.076
78297W        W50023  12.644  30.431   1.728
78298W        W50024  37.884  32.537   1.599
78299W        W50025  44.863  27.371   2.239
78300W        W50026  33.430  31.591   1.870
78301W        W50027  16.653  15.341   4.833
78302W        W50028  24.739  42.484  11.664
78303W        W50029  39.601  17.737   4.532
78304W        W50030   4.193  38.456  10.979
78305W        W50031  17.961  38.469   9.704
78306W        W50032  24.909   6.761   2.142
78307W        W50033  23.186   6.165  13.429
78308W        W50034  27.535  12.865  11.676
78309W        W50035  30.702  41.873   2.712
78310W        W50036  40.861  39.383   4.194
78311W        W50037  22.922  22.699   0.440
78312W        W50038  27.411  13.656   4.905
78313W        W50039  30.919  31.748  12.398
78314W        W50040   3.531  32.911  10.736
78315W        W50041   9.576   7.850   1.460
78316W        W50042  25.524  28.706   0.763
78317W        W50043  16.298  32.494  14.899
78318W        W50044  30.567  34.838  12.155
78319W        W50045   2.893   5.291   0.808
78320W        W50046  38.096  28.486  11.943
78321W        W50047  17.504   5.122   1.358
78322W        W50048  22.561  31.314  13.804
78323W        W50049  38.925  20.577  11.563
78324W        W50050   1.909  18.334  12.915
78325W        W50051  13.952  14.543  12.548
78326W        W50052  43.069   5.841   0.258
78327W        W50053  38.277  27.972  11.926
78328W        W50054  41.010  34.271  12.943
78329W        W50055  13.167  29.240   2.748
78330W        W50056   5.237  38.247  13.382
78331W        W50057   7.914  35.243   9.650
78332W        W50058  15.552  44.051  13.696
78333W        W50059  12.641  33.645  11.637
78334W        W50060  16.337  36.934  14.273
78335W        W50061  21.507   3.990   2.136
78336W        W50062  15.855  10.369  12.102
78337W        W50063  36.169   2.830  13.931
78338W        W50064   1.052  24.220  13.501
78339W        W50065   8.850  11.267  14.325
78340W        W50066  28.411  22.623  13.810
78341W        W50067  11.321  33.899  11.595
78342W        W50068   2.500   8.520   1.726
78343W        W50069  24.749  17.810   0.390
78344W        W50070  10.270  44.381   2.628
78345W        W50071  36.528  44.929  11.274
78346W        W50072  32.245  40.895  10.668
78347W        W50073  17.265  37.526  11.506
78348W        W50074  22.605  27.125   3.315
78349W        W50075   8.309   2.268   0.985
78350W        W50076  40.457  30.812  14.746
78351W        W50077   5.778  24.207  11.219
78352W        W50078  17.205   4.659  14.872
78353W        W50079  18.306  29.139  12.936
78354W        W50080  34.873  25.446   4.346
78355W        W50081  40.314  31.132  11.450
78356W        W50082  14.802  30.850   1.155
78357W        W50083  12.349  22.712  14.803
78358W        W50084  32.011  18.105  12.814
78359W        W50085   3.168  27.113  13.417
78360W        W50086  22.831  19.493   4.138
78361W        W50087   2.513  38.183   2.590
78362W        W50088   5.925  37.313  11.493
78363W        W50089  11.208   2.444  14.098
78364W        W50090   6.896  34.832   1.124
78365W        W50091  34.006   8.734  14.900
78366W        W50092   2.297  30.284   4.388
78367W        W50093  36.781   2.351   0.336
78368W        W50094  35.921   1.390   3.649
78369W        W50095  39.510  15.048  11.167
78370W        W50096  37.935  14.339   2.614
78371W        W50097  33.478   4.261  12.403
78372W        W50098  44.746  32.516   9.891
78373W        W50099   7.331  35.327  10.962
78374W        W50100  16.594  12.167   1.929
78375W        W50101  22.716  22.981   1.258
78376W        W50102  37.418  41.700   1.122
78377W        W50103   2.496  16.772  13.970
78378W        W50104  43.579  35.395   2.696
78379W        W50105  35.394  12.982  13.076
78380W        W50106   2.172  31.743  11.078
78381W        W50107  22.827  36.386  11.424
78382W        W50108   2.848  31.424  10.759
78383W        W50109  11.965  13.617  13.914
78384W        W50110   4.720  24.071   3.687
78385W        W50111  27.907  27.830  14.886
78386W        W50112  24.902  36.681  14.456
78387W        W50113   4.768  32.842   2.880
78388W        W50114  38.909  16.522   0.294
78389W        W50115  20.116  42.835   2.931
78390W        W50116  12.349  16.537   4.187
78391W        W50117   1.859   6.789  13.449
78392W        W50118  41.672   3.613  11.137
78393W        W50119   6.327  15.350   5.134
78394W        W50120  14.374   6.907  12.974
78395W        W50121   4.363  29.665  10.724
78396W        W50122  15.624  11.308   4.576
78397W        W50123   2.793   9.360   0.515
78398W        W50124  27.203  12.087   4.835
78399W        W50125  27.256  10.085  13.400
78400W        W50126  44.409  37.565   1.252
78401W        W50127  23.301  22.263   3.299
78402W        W50128  40.543  15.685   4.510
78403W        W50129   3.988   2.248  13.266
78404W        W50130   7.242  11.355   0.465
78405W        W50131   0.759   0.992   3.182
78406W        W50132  13.315   9.247  12.731
78407W        W50133  34.365  34.318  12.845
78408W        W50134   2.773  12.610   4.215
78409W        W50135  33.088  28.484   0.700
78410W        W50136   5.848  36.802   4.601
78411W        W50137  16.624  35.066  10.656
78412W        W50138  13.259  23.548   4.438
78413W        W50139  10.219  39.831   9.897
78414W        W50140  11.263   2.963  14.139
78415W        W50141  21.108  27.168  11.979
78416W        W50142  33.445  27.205   0.204
78417W        W50143  25.497   9.205   2.763
78418W        W50144  23.551  15.736   2.653
78419W        W50145   0.329  13.573   1.708
78420W        W50146  42.526  32.538   1.373
78421W        W50147   3.444   5.464   1.742
78422W        W50148  24.764  30.479  12.644
78423W        W50149  10.926   0.327   1.756
78424W        W50150  34.882  31.503  14.195
78425W        W50151  41.532   4.236   4.627
78426W        W50152  26.888   4.179  14.327
78427W        W50153   7.225  44.393   1.366
78428W        W50154  10.569  23.120   3.754
78429W        W50155  30.141  23.798   2.806
78430W        W50156  30.367   3.352   2.225
78431W        W50157  36.127  20.202   1.356
78432W        W50158  31.868  25.648   2.203
78433W        W50159  29.612  13.736  12.827
78434W        W50160  32.528  17.893   2.981
78435W        W50161  36.554  30.588   3.065
78436W        W50162   7.682  38.846  14.737
78437W        W50163   5.672  13.319  14.447
78438W        W50164  28.655   3.341  13.608
78439W        W50165  37.526   7.645  11.207
78440W        W50166  16.544  41.928  14.374
78441W        W50167  12.700  44.419   0.214
78442W        W50168  43.798  33.850   3.662
78443W        W50169  29.312  14.291   5.115
78444W        W50170  19.746  16.583   2.455
78445W        W50171  12.737   6.974   0.294
78446W        W50172   6.157  22.584   0.707
78447W        W50173   4.811  22.971   1.343
78448W        W50174   5.173   7.162   3.313
78449W        W50175  28.890  33.373  13.410
78450W        W50176  38.558  28.822   4.629
78451W        W50177  10.419  24.652  12.007
78452W        W50178  28.766  18.605   1.354
78453W        W50179  33.694   5.885  12.622
78454W        W50180  29.159  10.284   3.389
78455W        W50181  23.047  33.984   3.546
78456W        W50182  24.172  40.312  11.148
78457W        W50183  36.307  30.152  10.552
78458W        W50184  11.335  30.048   1.970
78459W        W50185   3.009  37.360   4.478
78460W        W50186  29.390   8.856  13.810
78461W        W50187   6.713  14.968  14.828
78462W        W50188   1.728  10.112   1.423
78463W        W50189  44.948  44.255  12.659
78464W        W50190  11.580  37.303   2.797
78465W        W50191   6.349  42.608  11.535
78466W        W50192  23.157  18.695   4.321
78467W        W50193   6.762  18.759  13.826
78468W        W50194  30.540  33.506   0.393
78469W        W50195  25.239   0.292   0.502
78470W        W50196  16.289  23.662  10.461
78471W        W50197   8.237  14.193  13.579
78472W        W50198  44.373  30.156  10.023
78473W        W50199  29.531  31.925   4.596
78474W        W50200  15.467  30.032   0.426
78475W        W50201  16.529   3.372  10.479
78476W        W50202  10.099  25.669  13.908
78477W        W50203  26.087   5.497   1.054
78478W        W50204   6.309  21.436   2.600
78479W        W50205  18.022  28.586  12.151
78480W        W50206  25.967  26.445   2.256
78481W        W50207  30.448   2.948  11.554
78482W        W50208   2.478  13.704   2.832
78483W        W50209  17.671  18.067  10.948
78484W        W50210  33.050   4.000  12.563
78485W        W50211  10.659  12.228   4.149
78486W        W50212  40.620  35.811  13.294
78487W        W50213  43.785  13.278   0.762
78488W        W50214  29.540  17.494  13.516
78489W        W50215  17.638   4.282  14.272
78490W        W50216  44.123  30.739   3.077
78491W        W50217  37.760   9.056   0.862
78492W        W50218  32.354   4.833   4.818
78493W        W50219  34.575  40.422   0.759
78494W        W50220   3.179  32.925  13.751
78495W        W50221  18.572   0.860  13.150
78496W        W50222  36.634   2.293   1.436
78497W        W50223  20.354  20.181   2.090
78498W        W50224  34.936   0.020   4.557
78499W        W50225  37.984  15.594   3.713
78500W        W50226  35.914  15.487   0.763
78501W        W50227  11.808   9.256   4.841
78502W        W50228  15.737  12.777  11.878
78503W        W50229  22.030  10.083   1.722
78504W        W50230   3.324  29.473   2.201
78505W        W50231  18.836  39.523   2.337
78506W        W50232  23.641  31.274   1.913
78507W        W50233  23.708  38.356  12.417
78508W        W50234  41.482  32.073  10.240
78509W        W50235   1.485   1.697   0.733
78510W        W50236  24.206  41.630  12.803
78511W        W50237  25.219  19.329  12.473
78512W        W50238  38.487  25.219   1.528
78513W        W50239  43.384  11.931   1.933
78514W        W50240  39.339  36.099   4.398
78515W        W50241  44.546  12.534  13.039
78516W        W50242  27.959   6.682   1.927
78517W        W50243  30.592  24.654   0.061
78518W        W50244  43.529   7.668  11.477
78519W        W50245   7.919   6.735   1.431
78520W        W50246  16.320  18.250  10.632
78521W        W50247  23.287  23.099   1.856
78522W        W50248  26.508  37.643  12.356
78523W        W50249  26.942  32.074   0.371
78524W        W50250   3.645  29.850  12.436
78525W        W50251   7.382   9.346   1.757
78526W        W50252   7.734  35.014  10.982
78527W        W50253  18.491  34.841  10.687
78528W        W50254  39.350  33.853   2.288
78529W        W50255  11.604  28.376  11.189
78530W        W50256   5.761  18.267  11.420
78531W        W50257  41.174  16.151  13.455
78532W        W50258  19.296  26.309  13.294
78533W        W50259  15.661  44.823  13.875
78534W        W50260  18.034  31.577  13.024
78535W        W50261  19.603  43.814   4.639
78536W        W50262  32.999  33.412  10.759
78537W        W50263  31.434   1.742  13.535
78538W        W50264  40.302   5.952   1.816
78539W        W50265   8.368   1.116   1.244
78540W        W50266   7.450   8.696   4.810
78541W        W50267  30.765  31.189  12.809
78542W        W50268  42.401  36.338  10.770
78543W        W50269   1.681   1.800   1.650
78544W        W50270   0.493  41.067  13.884
78545W        W50271  35.983  11.198  14.804
78546W        W50272   7.627  36.100   2.335
78547W        W50273  25.135   9.729   4.780
78548W        W50274  31.444  16.229  11.728
78549W        W50275  19.139  36.318   4.333
78550W        W50276  35.452  25.509   3.310
78551W        W50277  13.764  34.908   4.122
78552W        W50278  15.849  30.712   4.741
78553W        W50279  35.265  13.271  14.892
78554W        W50280   6.191  42.694   3.801
78555W        W50281  12.701  42.068  10.582
78556W        W50282  18.820  12.189   3.628
78557W        W50283   4.883  23.422  13.451
78558W        W50284   3.694  43.363   4.720
78559W        W50285  11.161  32.963   0.774
78560W        W50286  10.859  23.878   1.304
78561W        W50287   5.766  30.999   3.166
78562W        W50288  21.585  25.668   0.523
78563W        W50289  26.745   6.904   2.705
78564W        W50290  22.662  10.203   0.466
78565W        W50291  26.571  41.273   2.462
78566W        W50292  34.901  35.906  11.852
78567W        W50293  36.444  44.912  14.686
78568W        W50294  13.557  30.507  13.923
78569W        W50295  44.911  17.186   2.822
78570W        W50296   6.356  37.096   1.796
78571W        W50297  40.408  15.552  12.494
78572W        W50298  38.247   3.521   4.289
78573W        W50299   3.192  43.456   3.605
78574W        W50300  25.522  16.565  14.437
78575W        W50301  34.934  10.619   3.120
78576W        W50302  18.603  35.486   4.164
78577W        W50303   8.259   8.120  14.000
78578W        W50304  17.622  29.894  12.861
78579W        W50305   1.667  12.171  12.507
78580W        W50306  40.809   7.735  14.862
78581W        W50307  27.113  11.270   1.361
78582W        W50308  32.504  43.706  11.116
78583W        W50309   0.949  38.283  13.393
78584W        W50310  41.785  38.096  13.951
78585W        W50311  18.231  40.592   1.841
78586W        W50312  42.216  23.117  11.643
78587W        W50313  33.164  40.019   2.235
78588W        W50314  21.546  39.934   0.226
78589W        W50315   4.762   4.643  13.122
78590W        W50316  40.333  12.245   0.277
78591W        W50317  39.980  20.121   2.305
78592W        W50318   2.713  22.521   3.726
78593W        W50319  16.561  39.564   0.875
78594W        W50320  32.454  18.245  13.992
78595W        W50321  30.404  24.229  12.822
78596W        W50322   3.555  35.858  11.944
78597W        W50323  37.924   5.027  11.125
78598W        W50324  43.175  17.205   3.683
78599W        W50325  35.797  28.671   1.686
78600W        W50326  11.612  36.818  12.642
78601W        W50327  14.365  22.115   2.178
78602W        W50328   9.756   8.892  14.803
78603W        W50329  13.564  14.208   4.970
78604W        W50330  19.660  20.747  13.105
78605W        W50331  17.615   4.837  11.581
78606W        W50332  44.621  36.097  12.989
78607W        W50333  43.907  31.344   2.097
78608W        W50334  43.910  17.169  14.245
78609W        W50335  24.079   9.885  11.174
78610W        W50336  16.704   6.333  10.790
78611W        W50337   0.280  22.247   3.890
78612W        W50338  14.149  39.033  13.753
78613W        W50339  29.518  40.644  12.757
78614W        W50340  22.474  40.350  13.321
78615W        W50341  38.374   8.179   0.879
78616W        W50342  36.224  10.604   3.678
78617W        W50343   0.324   2.629   3.653
78618W        W50344   8.823  32.157  13.136
78619W        W50345  23.512  14.599   2.029
78620W        W50346   6.302  28.061   1.290
78621W        W50347   9.465  19.265   0.424
78622W        W50348  14.856  37.488   2.132
78623W        W50349  14.906  18.288   2.318
78624W        W50350   4.150  19.078  11.117
78625W        W50351   9.176  23.928  13.342
78626W        W50352  40.518  13.249  12.527
78627W        W50353  36.881  10.807   0.504
78628W        W50354  18.867   5.005   3.202
78629W        W50355   0.129  38.683  13.890
78630W        W50356  31.016   5.638  14.034
78631W        W50357  13.734  44.023  13.118
78632W        W50358  19.317   8.182   1.214
78633W        W50359  39.151   6.721  12.964
78634W        W50360  28.729  35.824  12.005
78635W        W50361  33.770  17.551  12.802
78636W        W50362  12.176  26.579   2.897
78637W        W50363   5.661  35.869   2.981
78638W        W50364   9.106   7.781   4.683
78639W        W50365  37.812  16.678  10.949
78640W        W50366  13.427  39.500   3.598
78641W        W50367   5.061  14.254   2.181
78642W        W50368  43.345  23.987  12.150
78643W        W50369  21.530   3.947   3.595
78644W        W50370  24.531  32.474  10.703
78645W        W50371  30.944  24.100   2.321
78646W        W50372  29.480  27.965  14.553
78647W        W50373   3.352  15.613   1.490
78648W        W50374   5.740  22.756   0.466
78649W        W50375  11.642  10.193  10.548
78650W        W50376  19.789  13.791   3.249
78651W        W50377   8.618  26.443  11.907
78652W        W50378  12.071  22.541   4.267
78653W        W50379  12.078  33.103  13.376
78654W        W50380  20.544  17.575   4.370
78655W        W50381  38.535  27.608  14.272
78656W        W50382  28.060  33.353   1.730
78657W        W50383  27.375  16.204   4.533
78658W        W50384   6.241   1.021  10.713
78659W        W50385  19.993  24.748   2.676
78660W        W50386   2.173  21.253  12.045
78661W        W50387  12.603   4.184   0.828
78662W        W50388  16.694  14.826  10.657
78663W        W50389   8.464  24.088   2.380
78664W        W50390  11.046  26.700  13.935
78665W        W50391  29.635   1.286  13.267
78666W        W50392  30.896   0.842  12.854
78667W        W50393  32.801  12.706  11.367
78668W        W50394  10.432  14.776  12.063
78669W        W50395  37.979  17.337   3.737
78670W        W50396   5.968  12.824   5.492
78671W        W50397  16.685  12.623   3.324
78672W        W50398  12.323  44.717   4.887
78673W        W50399  12.878  17.809  12.904
78674W        W50400  10.677  17.678   0.355
78675W        W50401  38.878  39.602  10.722
78676W        W50402  22.013  24.260   0.866
78677W        W50403  10.424  40.863   0.333
78678W        W50404  21.062  18.115   2.373
78679W        W50405   5.964  21.351   3.247
78680W        W50406  16.026  25.686  13.105
78681W        W50407   5.613  22.715   2.355
78682W        W50408  29.880  18.120  11.224
78683W        W50409  22.434  30.824  13.927
78684W        W50410  36.951  42.077   0.738
78685W        W50411  11.776   1.155   1.186
78686W        W50412  34.078   3.964   4.000
78687W        W50413  15.712  24.870   4.739
78688W        W50414   7.327  13.642   4.707
78689W        W50415  20.032   9.868  13.400
78690W        W50416  42.044  28.697   3.220
78691W        W50417  31.525   8.927  10.734
78692W        W50418  10.650  28.403   0.896
78693W        W50419  41.721  18.738  12.090
78694W        W50420  21.876   4.816   0.051
78695W        W50421  42.265  37.817   4.766
78696W        W50422  22.699  35.867   2.026
78697W        W50423  17.316  43.350  12.288
78698W        W50424  18.252  44.947  14.894
78699W        W50425   4.343   4.504  12.867
78700W        W50426  11.731  21.503   1.920
78701W        W50427  41.094  13.134   2.732
78702W        W50428  37.988  22.437  11.083
78703W        W50429  21.473  24.680   1.788
78704W        W50430  16.619  26.854  12.420
78705W        W50431  37.380  22.270   3.728
78706W        W50432  35.696  11.346   0.550
78707W        W50433  42.278  42.844  14.408
78708W        W50434  13.417   1.735  10.830
78709W        W50435  16.826  35.316  14.468
78710W        W50436  15.181  29.556   2.604
78711W        W50437   8.165  37.915   2.184
78712W        W50438  16.302  29.976  10.679
78713W        W50439  23.663  30.603  14.595
78714W        W50440  30.177  19.093  14.069
78715W        W50441  42.532  36.547   0.158
78716W        W50442   8.305  30.996  14.868
78717W        W50443  26.102  23.163  13.508
78718W        W50444  11.780  36.586   3.649
78719W        W50445  24.810  13.520   0.794
78720W        W50446   7.809   9.657   1.736
78721W        W50447  44.110  26.878   1.431
78722W        W50448  24.622  21.005  14.740
78723W        W50449  31.224   4.876   2.233
78724W        W50450  22.045  31.633  11.708
78725W        W50451  16.227  29.494  14.777
78726W        W50452   9.936  19.068  14.742
78727W        W50453  33.862  41.684  13.526
78728W        W50454  13.122  34.159   0.427
78729W        W50455  40.401   4.067  12.526
78730W        W50456  36.533   6.892   1.839
78731W        W50457  31.921  40.900  11.590
78732W        W50458  19.989  17.351   3.707
78733W        W50459   3.277  44.035  11.015
78734W        W50460  28.233  43.970  11.072
78735W        W50461  18.341  29.071   0.781
78736W        W50462  16.967  29.432  14.410
78737W        W50463   1.433  27.280   3.102
78738W        W50464   8.227  27.758  12.068
78739W        W50465  13.783   9.102   0.754
78740W        W50466  41.067   1.932   3.804
78741W        W50467  22.412  33.518   5.179
78742W        W50468  37.964  27.658  10.675
78743W        W50469   0.692  11.919  11.688
78744W        W50470   8.435  40.104   1.911
78745W        W50471  10.712   5.846   3.385
78746W        W50472  44.676  17.113   9.907
78747W        W50473  22.062  33.958   4.433
78748W        W50474  28.912  28.141   3.547
78749W        W50475  32.465  38.730   0.283
78750W        W50476  29.584   2.658  14.805
78751W        W50477  23.694   0.892  11.893
78752W        W50478  17.103  19.573   1.863
78753W        W50479  11.342  26.044  13.965
78754W        W50480   9.375  13.314   3.355
78755W        W50481  30.013  12.377  13.080
78756W        W50482  30.062  18.612  11.201
78757W        W50483  13.634  32.968   4.366
78758W        W50484  20.682  25.630  14.999
78759W        W50485   5.450  13.046   4.623
78760W        W50486   4.686  33.012   3.930
78761W        W50487  16.276  33.487  12.518
78762W        W50488   3.482  27.109   2.242
78763W        W50489   2.753  33.638   3.094
78764W        W50490  39.362  41.415   3.991
78765W        W50491   5.248  25.665  10.730
78766W        W50492   9.873  29.080  10.688
78767W        W50493  30.610  40.982   1.305
78768W        W50494  38.599  37.567  14.405
78769W        W50495  29.810  22.182   2.266
78770W        W50496  11.793  43.113  14.957
78771W        W50497  28.617  39.028   1.186
78772W        W50498   5.120  33.045  11.542
78773W        W50499   2.704  44.511   0.240
78774W        W50500  10.706  42.285  12.284
78775W        W50501  37.239  25.768  11.100
78776W        W50502  23.207   7.803  12.057
78777W        W50503  16.715  38.803  14.357
78778W        W50504  17.980  36.050  11.204
78779W        W50505  24.057   0.673   1.460
78780W        W50506  16.799  21.237  11.594
78781W        W50507  14.551  35.997  14.406
78782W        W50508  12.679   7.476   4.318
78783W        W50509   8.788  40.449   2.052
78784W        W50510   7.185  37.130   1.286
78785W        W50511  36.349  38.086  10.816
78786W        W50512   3.775  27.741  12.925
78787W        W50513  18.076  35.860  14.927
78788W        W50514   9.296  31.047  11.607
78789W        W50515  17.739  20.051   2.422
78790W        W50516  34.372  16.743  11.623
78791W        W50517  39.052  28.224  11.610
78792W        W50518   3.347  28.092  11.898
78793W        W50519   7.550  41.464   4.144
78794W        W50520  35.619  11.330   1.955
78795W        W50521  31.349  21.485   1.706
78796W        W50522  17.881  29.421  12.848
78797W        W50523  20.665   6.388   1.484
78798W        W50524   6.663  35.454   1.045
78799W        W50525  11.668   8.926   3.978
78800W        W50526  38.973   7.202  13.061
78801W        W50527  39.500  41.467   0.045
78802W        W50528  31.559  23.692  14.092
78803W        W50529  24.046  26.259   2.778
78804W        W50530  44.305   9.353  13.919
78805W        W50531  37.441  18.398   2.223
78806W        W50532  13.819  16.851   4.152
78807W        W50533  35.037  34.441   1.341
78808W        W50534  43.429   2.323  10.917
78809W        W50535  11.045  14.224   4.632
78810W        W50536  35.908  40.818   3.876
78811W        W50537  27.179  13.680   4.433
78812W        W50538  15.287  39.075   4.622
78813W        W50539  24.939  20.148   1.023
78814W        W50540  23.215  12.089   9.639
78815W        W50541  17.744  35.039  13.506
78816W        W50542  36.492  11.515  11.046
78817W        W50543  34.021  25.449   4.914
78818W        W50544   2.910  19.665  12.470
78819W        W50545  44.283  27.632   0.706
78820W        W50546  28.131  36.886   3.131
78821W        W50547  36.315   4.911   1.707
78822W        W50548   1.912  37.952  10.731
78823W        W50549  30.467  17.258  10.774
78824W        W50550  22.796  32.958   2.144
78825W        W50551   3.676  38.458   1.249
78826W        W50552   0.568  16.876  12.879
78827W        W50553  12.925  22.179  14.104
78828W        W50554  14.732  39.862   0.342
78829W        W50555  33.151  24.461  13.999
78830W        W50556   2.086   6.075   4.050
78831W        W50557   5.889  19.658  13.133
78832W        W50558   9.696  20.430  11.698
78833W        W50559   7.614  23.599  14.386
78834W        W50560  19.587  13.802  12.431
78835W        W50561  41.417  28.381  10.694
78836W        W50562  35.385  32.309   0.792
78837W        W50563  23.449  14.579  11.927
78838W        W50564  23.705  38.596   2.304
78839W        W50565  29.898   3.727   4.203
78840W        W50566  20.907  22.125  11.202
78841W        W50567   0.659  33.882  13.241
78842W        W50568  12.264  36.717  13.548
78843W        W50569  10.779  32.412   2.654
78844W        W50570  44.726  14.171  10.966
78845W        W50571   1.838  19.071  10.700
78846W        W50572  41.763   3.748   3.247
78847W        W50573   1.959   7.788   0.548
78848W        W50574  15.731  30.146  12.720
78849W        W50575  29.547  24.023  11.387
78850W        W50576  36.554  15.884  12.206
78851W        W50577   4.266   4.731  14.242
78852W        W50578  16.622  17.225  12.550
78853W        W50579   1.808  16.754   3.880
78854W        W50580  29.583  37.044  11.247
78855W        W50581  37.051  29.421   0.757
78856W        W50582   1.006   6.465  14.705
78857W        W50583  10.819  41.843  14.535
78858W        W50584  27.980  21.714  10.617
78859W        W50585  35.005   3.805   4.545
78860W        W50586  16.576  29.459  10.941
78861W        W50587   7.876  30.006   4.226
78862W        W50588  25.118  42.435  13.480
78863W        W50589  41.036  25.930   4.010
78864W        W50590  12.130  38.353  10.758
78865W        W50591  23.773  37.205  14.764
78866W        W50592  40.167  44.524   0.929
78867W        W50593  17.681  24.049   3.728
78868W        W50594  12.601  40.479  11.926
78869W        W50595  17.479  35.301  12.203
78870W        W50596  43.062   2.496  12.161
78871W        W50597  39.013  37.816  14.974
78872W        W50598  37.069   8.229   1.863
78873W        W50599  37.508  15.327   4.573
78874W        W50600  28.656   3.847   0.842
78875W        W50601  18.649  27.865   3.270
78876W        W50602  12.102  28.944  13.492
78877W        W50603  20.160  39.588   0.757
78878W        W50604   0.697  26.900  12.404
78879W        W50605  15.643   4.946   3.676
78880W        W50606  29.722  28.971  11.672
78881W        W50607  30.285  20.045   3.727
78882W        W50608   3.865  27.785   1.793
78883W        W50609  15.939  24.530  10.560
78884W        W50610   7.295  37.307   0.295
78885W        W50611  37.344  19.967   4.749
78886W        W50612  43.394  13.825  13.387
78887W        W50613   3.118  44.887  12.405
78888W        W50614  22.655  29.956  12.997
78889W        W50615  29.946  13.239   2.951
78890W        W50616  28.046  34.648  10.099
78891W        W50617  41.266  40.685   1.969
78892W        W50618  37.139  25.854  14.374
78893W        W50619  33.460   0.448   1.406
78894W        W50620   9.581  13.289  14.941
78895W        W50621  15.575   0.455   3.850
78896W        W50622   3.320  29.169  11.382
78897W        W50623   6.369  35.164  13.456
78898W        W50624  25.492  28.720  11.928
78899W        W50625   5.425  26.335   2.856
78900W        W50626  25.551   3.235   9.976
78901W        W50627  13.230  24.304   0.756
78902W        W50628  42.028  18.567   4.385
78903W        W50629   3.135   3.706   0.611
78904W        W50630  20.971  15.245  10.236
78905W        W50631  40.555   4.924   1.849
78906W        W50632  39.542  14.118   1.704
78907W        W50633  20.620  42.932   1.587
78908W        W50634  18.416  31.147  10.692
78909W        W50635   4.233   4.787  11.681
78910W        W50636  37.062  10.129  10.669
78911W        W50637  37.525  29.607   3.658
78912W        W50638  25.794  26.617   0.350
78913W        W50639  29.483  22.220  11.169
78914W        W50640  15.052   8.202   2.863
78915W        W50641  18.103  15.310  14.273
78916W        W50642  43.772  43.268  14.980
78917W        W50643  35.560  29.682  13.977
78918W        W50644  21.074  13.718  12.210
78919W        W50645  13.585  44.446  14.292
78920W        W50646  42.466  20.796  13.016
78921W        W50647  15.882  14.670   0.191
78922W        W50648   2.389  28.490  13.292
78923W        W50649   9.606  42.719   4.021
78924W        W50650  24.099  28.721  14.310
78925W        W50651  40.070  39.771  11.923
78926W        W50652  21.265  18.112  14.414
78927W        W50653   7.619  32.074  10.475
78928W        W50654  41.457   5.526   4.531
78929W        W50655  18.103  20.688   0.873
78930W        W50656  15.601  30.436   3.814
78931W        W50657  31.979  33.541  10.963
78932W        W50658  29.337  44.910   2.626
78933W        W50659   0.592  41.373  14.755
78934W        W50660  40.412  36.995   0.495
78935W        W50661  39.869   3.518   4.697
78936W        W50662  24.243  37.417   4.175
78937W        W50663  22.670  30.364  14.764
78938W        W50664  24.254  29.884   1.642
78939W        W50665  15.229  19.772  11.628
78940W        W50666  42.009  31.220  14.765
78941W        W50667  24.501  43.537  12.278
78942W        W50668  15.557   7.404  11.188
78943W        W50669  31.631  11.280   1.020
78944W        W50670  29.278   9.548   1.751
78945W        W50671   0.495   8.723   3.264
78946W        W50672   0.754   8.697   1.976
78947W        W50673  34.528  28.116   0.394
78948W        W50674  39.108  11.821  13.334
78949W        W50675  14.898   4.211   3.828
78950W        W50676  33.375  26.940  12.479
78951W        W50677  37.584  26.222  14.536
78952W        W50678  24.120   7.450  10.759
78953W        W50679   3.717  29.112   2.265
78954W        W50680  15.696  14.725  11.970
78955W        W50681  22.610   0.042  12.135
78956W        W50682   2.421  43.517  11.254
78957W        W50683  29.042  17.086  11.952
78958W        W50684  38.036  41.891  13.401
78959W        W50685  10.931  28.679  14.530
78960W        W50686  11.780  22.800  13.678
78961W        W50687  12.061  31.014   1.679
78962W        W50688  15.680  11.344   2.895
78963W        W50689   2.171  27.328  12.654
78964W        W50690  26.555  12.584   0.274
78965W        W50691  44.354  33.589  14.463
78966W        W50692  43.461  10.318   2.718
78967W        W50693  39.045  13.657   0.006
78968W        W50694   0.897  38.910   0.981
78969W        W50695  24.292  28.926  12.080
78970W        W50696  27.814   4.198   4.618
78971W        W50697  11.573   0.472  11.102
78972W        W50698  43.425  17.211   2.745
78973W        W50699  14.324  28.365   2.806
78974W        W50700   6.235  17.229   2.911
78975W        W50701  22.469  25.589  13.974
78976W        W50702  42.794  19.864   1.129
78977W        W50703  41.960   0.961  14.804
78978W        W50704  13.080  43.398  13.594
78979W        W50705  36.295  11.682   5.101
78980W        W50706  34.833  36.915   3.262
78981W        W50707   1.172  21.942   2.805
78982W        W50708  10.743  23.655   0.004
78983W        W50709  42.763  20.360  12.971
78984W        W50710  43.819  23.985   1.389
78985W        W50711  36.848  39.358   4.164
78986W        W50712  34.655  24.023   1.342
78987W        W50713   4.899  19.702   1.864
78988W        W50714   1.674  24.568   1.752
78989W        W50715   6.891  12.169   1.366
78990W        W50716   8.699  36.789  13.416
78991W        W50717  39.128  38.456  14.298
78992W        W50718   8.137   9.497  14.512
78993W        W50719  33.211  32.522   4.651
78994W        W50720   3.648  26.097   0.276
78995W        W50721  17.551  14.833   4.560
78996W        W50722  33.902  28.045  14.401
78997W        W50723   6.408  34.560  12.367
78998W        W50724  40.565   4.155  14.952
78999W        W50725   1.084   5.871   4.180
79000W        W50726  18.891  43.389  14.958
79001W        W50727  31.934  23.489  14.417
79002W        W50728  29.932  32.019  12.466
79003W        W50729  19.480  29.470   1.960
79004W        W50730  29.797   7.822  10.726
79005W        W50731  33.012   5.325  10.622
79006W        W50732  18.050  20.722  12.175
79007W        W50733  20.076  40.902   3.240
79008W        W50734  23.252  25.634   5.112
79009W        W50735  31.353  43.767   4.623
79010W        W50736  11.120  36.669   2.315
79011W        W50737  11.147  28.338  10.564
79012W        W50738  39.916   8.617   0.388
79013W        W50739   2.009  28.221   2.311
79014W        W50740   2.240  41.303   3.360
79015W        W50741   8.921  38.425   4.729
79016W        W50742   5.435  38.895   2.575
79017W        W50743  29.610  29.111  11.193
79018W        W50744  27.584  14.649   3.769
79019W        W50745  24.129   8.117   3.596
79020W        W50746  19.152  15.356  12.420
79021W        W50747  24.896  20.934   3.309
79022W        W50748  21.685   0.257  14.941
79023W        W50749  24.168   9.914  14.539
79024W        W50750  41.761  44.756   3.756
79025W        W50751   7.287  42.329   2.228
79026W        W50752  14.399  20.789   2.304
79027W        W50753  29.019  40.516  12.576
79028W        W50754   9.491  20.282   3.621
79029W        W50755   4.384  32.916   1.557
79030W        W50756  12.294  39.281  12.441
79031W        W50757  28.893   9.377   0.690
79032W        W50758  26.161   9.924  11.992
79033W        W50759  33.880   4.211   1.444
79034W        W50760   1.322  34.058  14.410
79035W        W50761  40.255  31.217  11.948
79036W        W50762  32.618   7.102  10.277
79037W        W50763  28.754  18.035  13.912
79038W        W50764  10.570  40.797   2.403
79039W        W50765   5.255   8.335   2.677
79040W        W50766  34.898  11.725  11.187
79041W        W50767  18.050  37.832   0.960
79042W        W50768   7.846   3.020   2.344
79043W        W50769  40.816  25.571   1.287
79044W        W50770  37.116  10.612  12.564
79045W        W50771  19.725  29.771   2.836
79046W        W50772  18.862  26.499   4.560
79047W        W50773   0.930  28.688   4.091
79048W        W50774   5.397  32.446  12.898
79049W        W50775  16.674  20.164  14.350
79050W        W50776  35.837   0.200   3.586
79051W        W50777  19.548  12.155  10.945
79052W        W50778  28.097  32.518   0.440
79053W        W50779  35.947  16.004   0.822
79054W        W50780  38.774  16.222   3.528
79055W        W50781  41.028  11.694   3.622
79056W        W50782  32.687  40.741   4.661
79057W        W50783  26.462   8.472   1.556
79058W        W50784  44.586  22.651  11.155
79059W        W50785  12.098   1.662   1.740
79060W        W50786  31.994   2.869   2.745
79061W        W50787  21.709  41.325   4.170
79062W        W50788  21.137  11.948  11.443
79063W        W50789  24.684   0.948   3.069
79064W        W50790  19.247   7.711  11.189
79065W        W50791  39.081  28.983   2.762
79066W        W50792  16.236  13.677   4.760
79067W        W50793  29.642  13.591  11.827
79068W        W50794   8.924   2.914   3.601
79069W        W50795  11.644  44.807  11.307
79070W        W50796   3.860  31.505  10.630
79071W        W50797  26.869  11.152  13.040
79072W        W50798   7.747  13.991  14.367
79073W        W50799  16.244   3.284   1.292
79074W        W50800  17.473  16.403   0.500
79075W        W50801  30.088   4.733  11.577
79076W        W50802  43.702  38.174  13.853
79077W        W50803  43.437   8.821  13.686
79078W        W50804  19.982  11.276  12.110
79079W        W50805  24.905  10.457   1.829
79080W        W50806  19.334  17.409  10.597
79081W        W50807  44.954   4.043  10.962
79082W        W50808  27.600  12.714  14.951
79083W        W50809   5.806  31.706   1.366
79084W        W50810  27.021  10.407   1.608
79085W        W50811  26.702   7.835  13.258
79086W        W50812  32.993   3.123   3.976
79087W        W50813  39.354  32.503   1.533
79088W        W50814  42.296  42.078   2.159
79089W        W50815   7.454   3.701  11.101
79090W        W50816  44.764   5.495   2.800
79091W        W50817  36.499   3.285  14.849
79092W        W50818  31.130  19.619  14.698
79093W        W50819  19.164  25.871   1.238
79094W        W50820   7.675  12.903  14.675
79095W        W50821  18.189  23.348   2.665
79096W        W50822  25.234  34.324  11.581
79097W        W50823  41.687  18.030  13.355
79098W        W50824  43.630  36.233   2.923
79099W        W50825   2.293   4.058   1.873
79100W        W50826  10.182  10.755  11.416
79101W        W50827  14.334  12.232   4.413
79102W        W50828  33.602  13.946  11.690
79103W        W50829  29.112  16.509  13.352
79104W        W50830  29.995  10.365  12.493
79105W        W50831  44.849   6.360   1.409
79106W        W50832   1.002  34.307  11.675
79107W        W50833  28.485  20.111   0.282
79108W        W50834  20.065  42.631  12.337
79109W        W50835  42.722  29.210  11.813
79110W        W50836  41.442   5.177  12.865
79111W        W50837  21.891   5.785  13.243
79112W        W50838  39.926  44.335   0.036
79113W        W50839  33.026  36.748  13.922
79114W        W50840   4.232   0.872  10.668
79115W        W50841   7.882  17.540   0.757
79116W        W50842   0.133  38.913   4.489
79117W        W50843  41.966  18.016   2.665
79118W        W50844   0.938  34.993   3.031
79119W        W50845  32.803   6.344  12.907
79120W        W50846  22.640   1.696   0.036
79121W        W50847  15.581   9.264   0.883
79122W        W50848  22.589  26.120  10.848
79123W        W50849  30.200  30.775  12.929
79124W        W50850  18.278   0.218   1.132
79125W        W50851   5.887  44.406   2.191
79126W        W50852   6.186  18.947  11.965
79127W        W50853  22.679   9.337  10.663
79128W        W50854  44.513   5.329   5.012
79129W        W50855  41.960  15.839   4.371
79130W        W50856  31.708  31.893   1.283
79131W        W50857  21.977  23.131  14.853
79132W        W50858  21.274  26.659   0.687
79133W        W50859  40.857  34.549  12.417
79134W        W50860  18.662   2.236   4.059
79135W        W50861  12.089  33.425  12.403
79136W        W50862  37.855  34.063   0.304
79137W        W50863  28.392   7.856  12.192
79138W        W50864  36.116  10.965  12.466
79139W        W50865  37.534  44.854  10.386
79140W        W50866  43.990  38.981   4.150
79141W        W50867  34.734  11.079   2.985
79142W        W50868  25.479  18.314   3.580
79143W        W50869  14.643  14.175  11.201
79144W        W50870  24.026  30.060  13.551
79145W        W50871  19.580  18.949  14.305
79146W        W50872  14.365  13.394  14.308
79147W        W50873   6.197  13.187   2.838
79148W        W50874  31.900  36.009   4.648
79149W        W50875   4.831  19.671  13.149
79150W        W50876  43.759  31.517   0.588
79151W        W50877   8.156  25.907  13.528
79152W        W50878  43.988   3.206  14.888
79153W        W50879  38.010  25.257  11.551
79154W        W50880  14.887   0.912  10.726
79155W        W50881   2.211   0.238   2.072
79156W        W50882   2.843  19.168  14.452
79157W        W50883  29.678  17.167  10.150
79158W        W50884  43.117  20.497   2.869
79159W        W50885  41.747  13.138   4.562
79160W        W50886  40.599   4.314   4.957
79161W        W50887  35.406  12.471  13.098
79162W        W50888  24.405  10.062  10.354
79163W        W50889  32.101  31.509  12.606
79164W        W50890  30.097   9.617  11.729
79165W        W50891  21.377  27.911  13.043
79166W        W50892  28.247  34.316   3.237
79167W        W50893  27.521  21.251  11.301
79168W        W50894  27.886   9.918   3.248
79169W        W50895   4.183   6.091   1.632
79170W        W50896  42.294  16.683   0.293
79171W        W50897  22.114  40.392   1.375
79172W        W50898  24.164  38.441  12.625
79173W        W50899  22.999  19.769  10.818
79174W        W50900  12.303   8.192  11.126
79175W        W50901  24.148  41.994  11.064
79176W        W50902   5.328   0.464  12.771
79177W        W50903   6.381  24.694  11.776
79178W        W50904  44.409  23.200  13.547
79179W        W50905  41.898  16.219  10.378
79180W        W50906  22.939  28.274   3.154
79181W        W50907  43.654  40.550   3.667
79182W        W50908   0.926  10.111  11.210
79183W        W50909   9.781  31.569  10.830
79184W        W50910  23.819  39.262   0.557
79185W        W50911   3.918  25.640  11.103
79186W        W50912  33.828  22.998   2.907
79187W        W50913  13.109  42.601   0.600
79188W        W50914  36.918  13.719   0.184
79189W        W50915   1.418  31.538   4.337
79190W        W50916  17.614  20.466   0.913
79191W        W50917  32.475   0.992  10.805
79192W        W50918  26.641  17.525  14.478
79193W        W50919  22.794  10.820   3.156
79194W        W50920  42.554  23.738  10.184
79195W        W50921  18.259  42.608  11.855
79196W        W50922  28.209  23.306   4.132
79197W        W50923  25.691  19.397   0.817
79198W        W50924  27.552   7.665   1.841
79199W        W50925  39.285  35.279   1.410
79200W        W50926  43.776  10.900   2.260
79201W        W50927  34.271  44.314  11.936
79202W        W50928  14.209   3.113  13.247
79203W        W50929  28.469   2.977   2.134
79204W        W50930  23.669  37.429   1.969
79205W        W50931   4.667  43.941  11.968
79206W        W50932  22.314  22.555  12.125
79207W        W50933  44.198  44.720  12.091
79208W        W50934   3.419  36.927   1.861
79209W        W50935  37.101  38.804   3.689
79210W        W50936  23.636  40.465   4.125
79211W        W50937   1.224  27.980  14.320
79212W        W50938   2.856  37.321   2.664
79213W        W50939  11.760   5.465  10.623
79214W        W50940  39.289  19.053  14.748
79215W        W50941  10.859   1.626  12.051
79216W        W50942  33.933  36.369  13.315
79217W        W50943   3.464  37.958  12.690
79218W        W50944  21.831  18.258  12.550
79219W        W50945  11.882  24.935  13.292
79220W        W50946  24.992   5.583  13.301
79221W        W50947  12.906  20.249  11.106
79222W        W50948  30.099  14.554   4.695
79223W        W50949  14.792  33.939  10.945
79224W        W50950   2.456  35.015   2.566
79225W        W50951  13.597  39.917   1.057
79226W        W50952  26.940   5.644   3.753
79227W        W50953  28.523   4.237  13.434
79228W        W50954  15.384  42.725   0.173
79229W        W50955  27.004   2.348  14.301
79230W        W50956  17.135  11.601   1.320
79231W        W50957  22.273  37.849   3.734
79232W        W50958  43.548  17.382   4.091
79233W        W50959  41.779  35.633  11.954
79234W        W50960  28.723   0.984   2.195
79235W        W50961  14.776  32.144   1.325
79236W        W50962  21.026  34.846  14.284
79237W        W50963  26.378   5.014   1.746
79238W        W50964  18.942   3.193  11.135
79239W        W50965  27.840  31.664   3.303
79240W        W50966  35.852  16.191  10.572
79241W        W50967  13.519   3.862  12.594
79242W        W50968  14.380  19.055   4.467
79243W        W50969  40.581   3.599  12.556
79244W        W50970  41.402  15.209  12.996
79245W        W50971  40.465  23.234   1.778
79246W        W50972   3.925  43.176   2.333
79247W        W50973  18.054  38.665   2.499
79248W        W50974  41.935  25.564   3.685
79249W        W50975   9.767  24.689   2.337
79250W        W50976   1.352  12.107  14.315
79251W        W50977  43.753  30.565   1.987
79252W        W50978  24.967  35.905   0.766
79253W        W50979  10.845  23.607  10.161
79254W        W50980  12.324  27.940   0.834
79255W        W50981  13.817  44.831   0.703
79256W        W50982  31.028  43.665  14.302
79257W        W50983  15.751  13.325  10.627
79258W        W50984  43.329  36.419   2.269
79259W        W50985   6.825  10.825   1.186
79260W        W50986  30.033  20.824  14.099
79261W        W50987  30.569  23.653  10.595
79262W        W50988  29.227  24.735   2.467
79263W        W50989  40.581   6.255   1.450
79264W        W50990  41.002   3.390   0.989
79265W        W50991  11.916  40.445  11.177
79266W        W50992   4.131  10.150  11.621
79267W        W50993  11.337  32.352   2.593
79268W        W50994   0.339  43.519   0.785
79269W        W50995  43.501  20.183   1.961
79270W        W50996  20.514  40.854  13.934
79271W        W50997  34.261  33.479  14.822
79272W        W50998  19.483  14.257  12.142
79273W        W50999  17.375  25.111  11.601
79274W        W51000  33.469  14.308  10.361
79275W        W51001  28.058  34.892   3.682
79276W        W51002  25.349  27.076  10.448
79277W        W51003  26.454  33.727  13.836
79278W        W51004  41.811  24.076   1.234
79279W        W51005  40.344  31.595  10.662
79280W        W51006   7.121  44.795   0.647
79281W        W51007  19.296  17.191  12.861
79282W        W51008  27.629  14.265   0.977
79283W        W51009  28.103  28.447   1.136
79284W        W51010  30.162  38.349   1.610
79285W        W51011   9.383  39.942   4.926
79286W        W51012   0.855  34.019   0.259
79287W        W51013   1.376  21.712   3.694
79288W        W51014   0.893   3.720  13.896
79289W        W51015  36.578  43.465   0.943
79290W        W51016  35.630  22.999   4.560
79291W        W51017  12.615  28.034  14.393
79292W        W51018  23.809  27.234   5.407
79293W        W51019  20.653  26.100  14.799
79294W        W51020   0.313  25.149  13.121
79295W        W51021  25.316  32.519   0.870
79296W        W51022  16.670  27.554  13.629
79297W        W51023  30.932  43.957  14.736
79298W        W51024   2.812  16.776  13.174
79299W        W51025  28.919  32.928   2.971
79300W        W51026  24.413  24.541  13.698
79301W        W51027   8.807   0.086  10.877
79302W        W51028  38.472  26.763   2.224
79303W        W51029  32.751  32.963  13.668
79304W        W51030   9.645  40.789   0.797
79305W        W51031   4.788   3.592   3.338
79306W        W51032  28.465  31.932   2.333
79307W        W51033  41.391   6.202   0.852
79308W        W51034  22.229  12.988   4.824
79309W        W51035  23.112  10.351   4.789
79310W        W51036   9.767  36.655  10.657
79311W        W51037   9.874  22.000   3.049
79312W        W51038   2.815  44.363  14.295
79313W        W51039  36.026  13.295  10.779
79314W        W51040  13.778  26.350   0.435
79315W        W51041  32.144  23.560   5.452
79316W        W51042  23.359  12.562  14.463
79317W        W51043  28.560   6.293  12.646
79318W        W51044   5.937  19.666  12.625
79319W        W51045  25.150  22.613   1.209
79320W        W51046  10.328  38.462   4.541
79321W        W51047  15.234   6.778  14.592
79322W        W51048   0.465  13.102  14.540
79323W        W51049  24.807  35.458   1.968
79324W        W51050  40.493   6.140  13.005
79325W        W51051  19.795  30.464  11.580
79326W        W51052  36.843  41.473   1.879
79327W        W51053  27.228  29.731   4.045
79328W        W51054  44.707  12.280   2.654
79329W        W51055  29.176   2.358  14.692
79330W        W51056  25.626  30.597   0.208
79331W        W51057  18.656  21.706  14.065
79332W        W51058  27.085  19.680  13.239
79333W        W51059  27.708   2.275   4.236
79334W        W51060  26.036  37.322   3.713
79335W        W51061   2.021   1.887   3.729
79336W        W51062   3.735  38.091  14.113
79337W        W51063  16.705  18.127  12.132
79338W        W51064  24.597   1.932   0.408
79339W        W51065  33.091  21.829   1.330
79340W        W51066   9.236   4.860  13.507
79341W        W51067  43.500  15.401   0.159
79342W        W51068  11.806   8.618  13.495
79343W        W51069  40.002  14.772  12.034
79344W        W51070  12.854  10.367  14.934
79345W        W51071  14.781  40.777   3.366
79346W        W51072  42.470   2.523  13.345
79347W        W51073  26.004   9.915   1.807
79348W        W51074  31.596  37.920   2.374
79349W        W51075  21.134  34.456  11.274
79350W        W51076  15.677  41.166  12.145
79351W        W51077  20.826  23.129  11.940
79352W        W51078  14.101  39.880   0.983
79353W        W51079  23.627   2.708   4.306
79354W        W51080  27.589  11.798   3.138
79355W        W51081  18.125  30.808   3.075
79356W        W51082   1.831  10.250  13.597
79357W        W51083  27.451  25.998   0.312
79358W        W51084  13.111  42.204  14.765
79359W        W51085  43.767  13.102  11.164
79360W        W51086  17.169   6.275   4.521
79361W        W51087  11.225  27.890   1.618
79362W        W51088  31.453  18.216  10.539
79363W        W51089  14.700  17.966  14.272
79364W        W51090  29.308  38.427  14.919
79365W        W51091  37.392  36.652   0.821
79366W        W51092   0.144  29.411  12.095
79367W        W51093  20.605  40.060   3.165
79368W        W51094  15.285  40.646   2.466
79369W        W51095   5.709  33.899  11.623
79370W        W51096  20.777  30.554   1.664
79371W        W51097  18.215  10.915  12.155
79372W        W51098  16.531  15.211  13.428
79373W        W51099   1.801  25.335  13.194
79374W        W51100  11.756   7.311   1.250
79375W        W51101  17.704  44.713  11.561
79376W        W51102  24.506   4.891   1.884
79377W        W51103  23.830  39.978   2.363
79378W        W51104  18.304  43.554  10.667
79379W        W51105   9.255  43.512   2.877
79380W        W51106   6.823  25.075  11.571
79381W        W51107  26.234  44.371   2.212
79382W        W51108  37.932  36.094   4.485
79383W        W51109  15.319  20.250   4.849
79384W        W51110   8.723  26.010   0.571
79385W        W51111  43.852   0.331  13.340
79386W        W51112  30.019  35.411  11.799
79387W        W51113  20.293   8.194  11.564
79388W        W51114  23.789   0.838  10.953
79389W        W51115  38.777  35.122   1.497
79390W        W51116  10.865  30.504  14.388
79391W        W51117  40.427   3.418   4.523
79392W        W51118  20.468  24.477  13.705
79393W        W51119  31.737   1.916  12.218
79394W        W51120  19.774  26.034  12.466
79395W        W51121  37.602   5.350   2.208
79396W        W51122  16.779  31.581  11.290
79397W        W51123  38.076  31.981   3.805
79398W        W51124  21.623  43.094  13.253
79399W        W51125  37.997  20.839   4.190
79400W        W51126   7.165  31.055  12.834
79401W        W51127  23.331  39.448   0.490
79402W        W51128  20.809   6.971  14.337
79403W        W51129   4.388  42.277   4.858
79404W        W51130  36.867  31.430   3.626
79405W        W51131  16.153  15.597  12.510
79406W        W51132  15.805  27.666  13.074
79407W        W51133   2.427  33.901  12.090
79408W        W51134   9.354  24.288  13.899
79409W        W51135  17.789  41.412   2.851
79410W        W51136   9.148  24.426   3.744
79411W        W51137  34.004   3.643   3.592
79412W        W51138  10.681  32.720   3.079
79413W        W51139  43.993   9.896   3.384
79414W        W51140  11.247  35.707   9.287
79415W        W51141   6.424  42.207  13.448
79416W        W51142   5.101   3.369  12.970
79417W        W51143  35.786  37.305   3.667
79418W        W51144  13.706  10.676  13.466
79419W        W51145  44.249   1.928   3.138
79420W        W51146  36.439   1.825   5.068
79421W        W51147  32.660   5.231   4.594
79422W        W51148  28.214  14.453   5.043
79423W        W51149  24.001   4.003  14.224
79424W        W51150  39.472  27.427   4.953
79425W        W51151  35.482  18.696   2.393
79426W        W51152  21.470  24.271   4.561
79427W        W51153  42.673   1.503   4.742
79428W        W51154  19.864  37.393   2.669
79429W        W51155  25.033  37.433   4.596
79430W        W51156  12.024  11.671  13.857
79431W        W51157  37.312  24.206   2.734
79432W        W51158   2.960   7.380   2.917
79433W        W51159   7.243  42.424  13.234
79434W        W51160  30.039  23.192  13.503
79435W        W51161  36.446  16.433   2.706
79436W        W51162  25.017  34.573   3.582
79437W        W51163  41.031  43.897  12.439
79438W        W51164  22.721  32.910  11.580
79439W        W51165  44.850  37.333  13.494
79440W        W51166  24.587  18.069   4.566
79441W        W51167  32.900  27.488   2.350
79442W        W51168  34.461  30.127   4.093
79443W        W51169  29.366  28.222  11.211
79444W        W51170  42.752  24.529   3.940
79445W        W51171   4.158  30.511  14.873
79446W        W51172   5.735  30.482   3.146
79447W        W51173  24.669  26.759   4.176
79448W        W51174  44.246   1.031   1.712
79449W        W51175   3.133  39.836  10.937
79450W        W51176  32.972   5.402   3.644
79451W        W51177  18.609   4.340   2.765
79452W        W51178  13.814   6.183  12.090
79453W        W51179  24.425  19.622   3.308
79454W        W51180  35.725  11.759  10.743
79455W        W51181   9.610  14.671   3.115
79456W        W51182   5.730   5.244   3.243
79457W        W51183  38.408   4.399   3.286
79458W        W51184  29.284  16.632  12.053
79459W        W51185  33.665   0.928  14.901
79460W        W51186  11.597  38.944  11.804
79461W        W51187  26.695  29.519   4.162
79462W        W51188  41.496  30.804   0.884
79463W        W51189  40.684  38.821   3.268
79464W        W51190  42.725   2.943   4.595
79465W        W51191  25.748  43.867   1.205
79466W        W51192  29.487  43.991   4.575
79467W        W51193   7.578  27.066   4.936
79468W        W51194   9.977  25.399   0.152
79469W        W51195   1.834  29.693  14.884
79470W        W51196  10.248  29.069  11.981
79471W        W51197  44.923   8.626   4.492
79472W        W51198   3.007  44.319  14.765
79473W        W51199  11.889  29.459   1.200
79474W        W51200  39.192  14.273   3.664
79475W        W51201  29.552   0.921  12.011
79476W        W51202  18.300  22.101  11.980
79477W        W51203   8.315  43.296   4.258
79478W        W51204  34.489  41.798   0.736
79479W        W51205  37.398  33.610   0.969
79480W        W51206  43.743  11.418   2.237
79481W        W51207  28.473  40.510  12.533
79482W        W51208  30.387  32.631  14.557
79483W        W51209  41.292  33.376  12.636
79484W        W51210  13.889  27.101   4.666
79485W        W51211  11.641   9.271  12.886
79486W        W51212   5.438   1.900  11.291
79487W        W51213  11.231  27.849   4.018
79488W        W51214   8.724  27.408   2.549
79489W        W51215   7.182  26.946  14.868
79490W        W51216  27.578   1.782   2.426
79491W        W51217  16.511  21.568  13.016
79492W        W51218  35.089  40.338   4.735
79493W        W51219  36.109  26.157  11.842
79494W        W51220  30.064   3.714   0.152
79495W        W51221   7.485  35.949  11.502
79496W        W51222  44.892   2.227  12.053
79497W        W51223  29.493  41.132  13.547
79498W        W51224   2.078  43.430   1.747
79499W        W51225  37.812  33.044  13.634
79500W        W51226  23.655  12.103  14.539
79501W        W51227  17.621   8.398  11.172
79502W        W51228  37.597  27.932  11.373
79503W        W51229  26.882  19.212   1.468
79504W        W51230   8.257  13.821   0.225
79505W        W51231   9.293  23.046   5.529
79506W        W51232   2.893  39.249   4.532
79507W        W51233  25.639  15.011   1.261
79508W        W51234   5.838  36.899  14.043
79509W        W51235  20.280  26.194  11.527
79510W        W51236  42.234  18.713  12.958
79511W        W51237   3.254   6.359   0.218
79512W        W51238   8.631  26.425   2.279
79513W        W51239  42.434  31.694  10.692
79514W        W51240  25.027  23.042  14.875
79515W        W51241  37.458  11.842  13.125
79516W        W51242   4.180   7.306   2.484
79517W        W51243  26.629  34.675  11.028
79518W        W51244   4.650  27.718  12.944
79519W        W51245  17.301  15.809  13.288
79520W        W51246  31.460  16.202   4.508
79521W        W51247  41.720  34.068   1.691
79522W        W51248  42.804   7.267  14.517
79523W        W51249  26.905  28.024   2.521
79524W        W51250  40.595  36.787  10.907
79525W        W51251  30.627   3.163   0.818
79526W        W51252  13.165  26.783  11.155
79527W        W51253  13.135   6.979  11.099
79528W        W51254  40.493  14.171  12.530
79529W        W51255  36.121  40.447  14.772
79530W        W51256   8.725  19.152  12.130
79531W        W51257  19.037  38.673  13.614
79532W        W51258  39.128  18.684   2.282
79533W        W51259   4.881  12.382  11.574
79534W        W51260  33.020  37.419   0.929
79535W        W51261  30.844   5.075  11.939
79536W        W51262  26.467  39.836  10.293
79537W        W51263  30.051  26.439  10.364
79538W        W51264  35.330   6.717   4.159
79539W        W51265  25.658  10.168   2.126
79540W        W51266  24.787  30.101  10.829
79541W        W51267  18.690   9.365  14.202
79542W        W51268  44.323  42.569  12.472
79543W        W51269  33.606   0.091   1.748
79544W        W51270  10.894   7.902   0.303
79545W        W51271  30.856  22.068  14.428
79546W        W51272  39.605  41.343   2.015
79547W        W51273  13.189  43.689   1.719
79548W        W51274  19.185  33.765  11.027
79549W        W51275   2.868  12.011   1.428
79550W        W51276   8.361  33.389  11.002
79551W        W51277  44.318   2.421  14.967
79552W        W51278  21.744  15.737  10.117
79553W        W51279  44.761  28.935  13.844
79554W        W51280  24.161  28.086   2.498
79555W        W51281  20.441  30.531  10.534
79556W        W51282  26.106  18.107   4.128
79557W        W51283  14.055  19.818  14.512
79558W        W51284  36.982  11.380  14.734
79559W        W51285  31.042   6.626   0.825
79560W        W51286   2.459  38.117  14.226
79561W        W51287  40.357   5.410  10.518
79562W        W51288   3.368   9.017   4.507
79563W        W51289  18.477  15.680  10.388
79564W        W51290  34.576  22.406  12.059
79565W        W51291  13.108  13.344   5.057
79566W        W51292  30.933  33.691  12.376
79567W        W51293   5.695  14.606  14.924
79568W        W51294  33.385  16.362  10.747
79569W        W51295  32.256  42.300  11.092
79570W        W51296  33.045  42.027  12.103
79571W        W51297  10.888  17.745   4.632
79572W        W51298  14.971  42.065  14.473
79573W        W51299  37.915  10.597  14.066
79574W        W51300  26.013  43.683   5.067
79575W        W51301  40.102   9.065   2.692
79576W        W51302  28.142  19.242  14.263
79577W        W51303  29.016  16.846   4.931
79578W        W51304   3.437  24.700  14.463
79579W        W51305   6.372  40.889  11.007
79580W        W51306   6.361   6.293   3.708
79581W        W51307  13.588   9.918  11.935
79582W        W51308   8.288  31.957   5.101
79583W        W51309  20.836  30.020  14.018
79584W        W51310  23.181   2.195  13.398
79585W        W51311  13.123  16.870  12.100
79586W        W51312  25.941  11.280   4.573
79587W        W51313  23.824  26.916  11.620
79588W        W51314  15.705  40.294   3.703
79589W        W51315   8.726   9.227   1.727
79590W        W51316  24.609   5.992   4.154
79591W        W51317  22.592   8.570  10.543
79592W        W51318   4.152  18.358  13.441
79593W        W51319  24.107  16.097   2.152
79594W        W51320  18.649  43.302   2.490
79595W        W51321  29.756   3.079   0.673
79596W        W51322  16.818   1.543  10.792
79597W        W51323   0.273  21.246   5.025
79598W        W51324  31.236  32.265  11.515
79599W        W51325  19.298  27.157  12.091
79600W        W51326  40.544  12.133   4.704
79601W        W51327  17.159  22.162  14.233
79602W        W51328  34.922  32.586   0.762
79603W        W51329  20.586   1.625  13.434
79604W        W51330   6.764  36.627  14.572
79605W        W51331  11.869   1.397  12.123
79606W        W51332   5.402   0.692  13.764
79607W        W51333  34.897  18.122  10.821
79608W        W51334  12.054  28.062   3.002
79609W        W51335  21.502  40.919   3.930
79610W        W51336  41.765  28.088  11.740
79611W        W51337  29.411  22.233   0.349
79612W        W51338  17.202  36.813  14.814
79613W        W51339  44.354  29.603   1.350
79614W        W51340  33.889   7.453   0.970
79615W        W51341  24.442   6.538  12.065
79616W        W51342  22.992  30.286  14.359
79617W        W51343  19.293   3.983   4.158
79618W        W51344   7.346   6.653  10.473
79619W        W51345  16.201   8.816  12.468
79620W        W51346   1.772  34.042   0.546
79621W        W51347  17.290  36.611  11.016
79622W        W51348   5.291  23.989  11.158
79623W        W51349   4.550  13.868   3.240
79624W        W51350  41.514   5.230   1.101
79625W        W51351  27.375  16.607  14.437
79626W        W51352  33.895   4.740  14.484
79627W        W51353  38.540  35.473  14.051
79628W        W51354  40.017  17.134   3.483
79629W        W51355   6.651   6.795   1.211
79630W        W51356  34.317   0.840   3.885
79631W        W51357  17.614  11.361   0.418
79632W        W51358  42.925  14.669   0.864
79633W        W51359  31.591  25.717  14.447
79634W        W51360  30.836  18.740  14.842
79635W        W51361   6.311  36.322  14.544
79636W        W51362  15.900  41.997  12.315
79637W        W51363  41.535  42.664   4.359
79638W        W51364  15.848  43.485   3.704
79639W        W51365  31.074  25.189   4.178
79640W        W51366  16.515  18.811  10.827
79641W        W51367  37.940  10.812  13.068
79642W        W51368  30.296  29.062  10.423
79643W        W51369  31.991  31.067   5.510
79644W        W51370  10.278  11.366   1.707
79645W        W51371  14.925  12.253   1.398
79646W        W51372  29.750  21.333   1.286
79647W        W51373  33.893  21.092  12.812
79648W        W51374  11.561   1.238  14.274
79649W        W51375   1.942  17.250  12.950
79650W        W51376  10.355  26.125   9.998
79651W        W51377  22.980  30.126  13.602
79652W        W51378  30.021  15.170   1.472
79653W        W51379  21.571   6.301  12.016
79654W        W51380  33.971  13.170  11.588
79655W        W51381  12.318  23.966   4.625
79656W        W51382  22.635  22.166  10.469
79657W        W51383  14.241  35.554  14.388
79658W        W51384  25.178   3.981   4.770
79659W        W51385   4.873  14.923   0.813
79660W        W51386  32.456  25.139   4.265
79661W        W51387  43.918  38.765   1.431
79662W        W51388  28.147  21.484   1.656
79663W        W51389  11.255  27.663  11.840
79664W        W51390  42.789   8.727  12.026
79665W        W51391  29.653   5.949  12.472
79666W        W51392  33.479  20.642  14.012
79667W        W51393   8.823  40.316  10.690
79668W        W51394  27.741   5.740   0.751
79669W        W51395   9.750  26.982   3.890
79670W        W51396   1.102  43.451   2.442
79671W        W51397  16.315  35.506  10.621
79672W        W51398   1.739   5.315  13.447
79673W        W51399  19.510   1.377   4.606
79674W        W51400  41.992   1.352   2.648
79675W        W51401  25.778   2.878  13.414
79676W        W51402  39.330   0.427   3.330
79677W        W51403  27.610  34.108  11.623
79678W        W51404   3.540  14.359   5.079
79679W        W51405  24.295  12.293   0.310
79680W        W51406  25.392   2.312  14.465
79681W        W51407  36.226  35.706  11.932
79682W        W51408  40.324  30.885   0.743
79683W        W51409  38.855  12.973  10.644
79684W        W51410  24.266  24.179   2.737
79685W        W51411  38.981  30.931   4.138
79686W        W51412  17.351  15.666  14.700
79687W        W51413  31.008  44.720   3.075
79688W        W51414   7.427  35.593   3.478
79689W        W51415   7.343  43.336  13.891
79690W        W51416   0.211   8.779  11.142
79691W        W51417  36.154  26.708  14.546
79692W        W51418  16.046   8.319   4.654
79693W        W51419  30.554   9.399  11.976
79694W        W51420  14.131  35.269  11.092
79695W        W51421   1.501  37.852  13.932
79696W        W51422  22.047  15.309  10.057
79697W        W51423   1.912  21.147   2.723
79698W        W51424  42.977  22.709   3.618
79699W        W51425   9.792   8.685  11.582
79700W        W51426  24.738  42.832   0.789
79701W        W51427  17.475   1.160  10.631
79702W        W51428   8.670  14.312  10.634
79703W        W51429   5.486  25.030   4.166
79704W        W51430  21.990  16.493  14.464
79705W        W51431  36.614   1.292  11.628
79706W        W51432  42.265  43.452   4.209
79707W        W51433  28.910  14.270   0.909
79708W        W51434  36.518  16.051   4.657
79709W        W51435  28.915  28.925  10.744
79710W        W51436  38.279  39.841   1.743
79711W        W51437  14.467   1.724  11.636
79712W        W51438  36.309  27.964  12.242
79713W        W51439  37.529  39.908  14.362
79714W        W51440  22.139  15.597   0.038
79715W        W51441  29.175   5.204   2.655
79716W        W51442   2.253   2.435  12.455
79717W        W51443  14.530  19.193  13.508
79718W        W51444  22.702  38.496  12.296
79719W        W51445  24.039  17.624  14.246
79720W        W51446   4.320  18.369   1.295
79721W        W51447   7.590   3.827  13.996
79722W        W51448  44.296  23.251  12.138
79723W        W51449   4.441  25.548   3.611
79724W        W51450   8.648  41.871   0.861
79725W        W51451  19.016  10.843   0.418
79726W        W51452   1.811  12.733  14.962
79727W        W51453  31.520  37.432  13.076
79728W        W51454  21.734  39.098   4.491
79729W        W51455  34.022  16.592   4.861
79730W        W51456  43.849   9.280   1.418
79731W        W51457   9.702   0.836   4.140
79732W        W51458  29.603  14.860   0.219
79733W        W51459   5.349  39.495   1.331
79734W        W51460   8.606  35.997   2.300
79735W        W51461  34.528  29.648   0.864
79736W        W51462  35.834  43.729  11.135
79737W        W51463   2.967  12.614   3.712
79738W        W51464  30.088  16.453  14.318
79739W        W51465  14.635   1.352  13.855
79740W        W51466  22.822  12.388   5.021
79741W        W51467  31.665  27.164  14.425
79742W        W51468  20.192  38.138  12.963
79743W        W51469  18.725  22.126  13.274
79744W        W51470  13.954  39.504   2.795
79745W        W51471  39.428   7.586  11.515
79746W        W51472   0.763  37.648   3.816
79747W        W51473  35.342  14.531  12.895
79748W        W51474   4.658  23.787  13.948
79749W        W51475   6.342  31.066  13.602
79750W        W51476  16.753  29.397  12.427
79751W        W51477  31.570  20.786   4.207
79752W        W51478   9.308   3.720  10.352
79753W        W51479  11.064  37.411  14.465
79754W        W51480  25.586   8.909  11.459
79755W        W51481  19.138  18.262   0.990
79756W        W51482  11.222  28.537   1.357
79757W        W51483  42.857   1.741   3.110
79758W        W51484  29.210  18.162  14.079
79759W        W51485  42.998   5.636   1.630
79760W        W51486  30.868  43.648   5.402
79761W        W51487  39.314  10.341   4.579
79762W        W51488  44.422   5.204   3.571
79763W        W51489  44.078  42.492   2.979
79764W        W51490  30.002  31.889  11.113
79765W        W51491  38.238  14.569   1.735
79766W        W51492   9.367  38.401   0.344
79767W        W51493  17.208  40.474   1.605
79768W        W51494  38.925   1.970  12.382
79769W        W51495   0.315  22.182   3.323
79770W        W51496   7.288  36.012   2.757
79771W        W51497  16.868  34.778  11.009
79772W        W51498  11.615  30.086   3.680
79773W        W51499  20.029  44.922  13.809
79774W        W51500   3.509  22.241  12.082
79775W        W51501  14.800  38.039  12.566
79776W        W51502   9.828  14.048   0.340
79777W        W51503  26.011  42.920  13.957
79778W        W51504  24.108   4.663  12.884
79779W        W51505  29.077  21.303   3.767
79780W        W51506  40.919  23.639   0.080
79781W        W51507  28.634  13.794  12.691
79782W        W51508   7.405   7.157  10.604
79783W        W51509   3.884  38.618  12.963
79784W        W51510  29.078  40.443   0.800
79785W        W51511   7.224  30.430  11.272
79786W        W51512  40.671  24.123   4.994
79787W        W51513   2.676   1.436   4.735
79788W        W51514  16.194  37.569   0.486
79789W        W51515  29.007   7.866   4.100
79790W        W51516  32.467  41.694   4.736
79791W        W51517  23.196   7.770   3.953
79792W        W51518  27.125  31.063   4.715
79793W        W51519  38.995  28.933  11.136
79794W        W51520  33.909  20.571   4.754
79795W        W51521   0.731  39.310   3.177
79796W        W51522  17.716   4.232  10.773
79797W        W51523  24.227  34.897  14.431
79798W        W51524   6.496   9.112  13.835
79799W        W51525   7.585  39.786  11.397
79800W        W51526  44.717   3.325   1.154
79801W        W51527  34.898  16.261  11.919
79802W        W51528  23.867   4.916  11.511
79803W        W51529  19.202  31.106  13.550
79804W        W51530  18.914  40.112   4.559
79805W        W51531  42.751  23.126  11.602
79806W        W51532  12.858  36.956   1.612
79807W        W51533  40.989  13.320   0.996
79808W        W51534  31.498  20.154   4.827
79809W        W51535  38.868  37.955   0.935
79810W        W51536  20.649  38.349   4.311
79811W        W51537   2.946  32.676   3.277
79812W        W51538  42.005   8.352   4.669
79813W        W51539  35.413  42.595   4.621
79814W        W51540   3.190  43.899   0.959
79815W        W51541  44.541   6.726  11.240
79816W        W51542   9.362  25.292  11.073
79817W        W51543  10.917  17.520   2.386
79818W        W51544   6.266   2.496  10.707
79819W        W51545   9.229  13.854  12.550
79820W        W51546   5.366  19.513   1.789
79821W        W51547  40.835  24.774   0.922
79822W        W51548  18.149  43.310  13.730
79823W        W51549  23.234   5.918  13.876
79824W        W51550  14.789  36.368   2.105
79825W        W51551  44.527  24.709  14.728
79826W        W51552  31.348   7.762  12.787
79827W        W51553  23.527  38.505   4.356
79828W        W51554  34.055  30.403   0.645
79829W        W51555  38.818  36.014  13.455
79830W        W51556  17.626   9.300   2.714
79831W        W51557  30.211   2.066  13.613
79832W        W51558  14.832  26.221   4.196
79833W        W51559  18.334  27.925   2.844
79834W        W51560  10.084  37.902  14.938
79835W        W51561  27.039  22.135  13.393
79836W        W51562  25.481  11.731  14.986
79837W        W51563  16.394  43.582  12.736
79838W        W51564  15.618  20.266   0.456
79839W        W51565  27.069  43.527  10.635
79840W        W51566   8.470   1.681   4.995
79841W        W51567  26.440  24.597  12.880
79842W        W51568  38.521  42.448   2.210
79843W        W51569  39.743  34.448  11.988
79844W        W51570  38.896  29.121   1.380
79845W        W51571  16.606  29.439  13.369
79846W        W51572  37.098  26.153  12.094
79847W        W51573  29.095  36.917   0.673
79848W        W51574  26.779  14.243   3.646
79849W        W51575  12.056  31.532  13.863
79850W        W51576  14.257  39.314  12.380
79851W        W51577  18.712  12.619  11.642
79852W        W51578  14.811  33.781  10.453
79853W        W51579  17.557  26.189   1.630
79854W        W51580  39.600  32.067   1.692
79855W        W51581   7.373  24.765   4.769
79856W        W51582  28.600  11.929   1.639
79857W        W51583  20.105   7.178  13.428
79858W        W51584  27.473  30.392  13.407
79859W        W51585  32.433  17.107  10.075
79860W        W51586  44.508  29.373  13.465
79861W        W51587  26.660  34.647  11.940
79862W        W51588   2.830  24.168   4.421
79863W        W51589  28.460   5.435  12.062
79864W        W51590  24.509  36.343   1.942
79865W        W51591   8.433  14.763   4.579
79866W        W51592  20.558  30.421  14.198
79867W        W51593  39.093  21.537   0.322
79868W        W51594   8.259   3.675   3.730
79869W        W51595  25.709  34.425  14.342
79870W        W51596  39.918   5.932   4.146
79871W        W51597  16.862   3.451  12.919
79872W        W51598  30.835   8.850  14.311
79873W        W51599  35.998   3.362  11.500
79874W        W51600  24.378  42.916   2.740
79875W        W51601  31.880   7.314   1.834
79876W        W51602  25.538  42.082  11.146
79877W        W51603  28.937   3.674   4.519
79878W        W51604   4.432   4.665   0.550
79879W        W51605  24.788  38.795   2.792
79880W        W51606  14.248  37.467   3.757
79881W        W51607   6.904  27.381   0.286
79882W        W51608  20.812  39.743   4.137
79883W        W51609  36.393  44.970   0.888
79884W        W51610  31.154  32.198  12.352
79885W        W51611  41.274  12.604   1.633
79886W        W51612  34.474   3.417   3.686
79887W        W51613   7.157  20.268   4.488
79888W        W51614  42.844   6.293   0.698
79889W        W51615  38.875  27.102   4.691
79890W        W51616  16.379  14.600  13.999
79891W        W51617  13.976   1.914   0.855
79892W        W51618   3.310  40.738  13.411
79893W        W51619  33.639  37.801   2.248
79894W        W51620   2.246  40.113  11.645
79895W        W51621   5.184  39.299  11.492
79896W        W51622  29.830  15.887   4.352
79897W        W51623  17.591  32.516   0.394
79898W        W51624  38.924  32.632  11.351
79899W        W51625  39.011   0.838   3.188
79900W        W51626  32.176  31.557   2.599
79901W        W51627  28.652  37.095  13.446
79902W        W51628   8.422  42.453  14.886
79903W        W51629   4.448  11.853   1.541
79904W        W51630  23.758   9.877   3.631
79905W        W51631  12.930  25.625  10.653
79906W        W51632  29.402  30.615  12.991
79907W        W51633  42.823  10.834  14.238
79908W        W51634  21.072  27.860  10.673
79909W        W51635  18.460  38.658  13.057
79910W        W51636  11.060   6.721   0.051
79911W        W51637  17.815  44.446  11.134
79912W        W51638  24.525  10.360  13.009
79913W        W51639  14.309   2.424   4.860
79914W        W51640  22.064  41.298   3.071
79915W        W51641   2.933  41.290  14.471
79916W        W51642  35.605  35.459   0.710
79917W        W51643   5.119  23.266   3.698
79918W        W51644  25.535  29.616  11.958
79919W        W51645   9.283  27.033  11.507
79920W        W51646  37.112  30.783   4.124
79921W        W51647  22.661   1.242  11.557
79922W        W51648  20.029   8.817  12.365
79923W        W51649   3.919  38.269   2.296
79924W        W51650  20.742  25.102  10.945
79925W        W51651  21.625  42.520  14.044
79926W        W51652  27.883  33.469  10.110
79927W        W51653  36.092  21.967   0.125
79928W        W51654   1.492   6.996   3.114
79929W        W51655  29.192  32.216  11.966
79930W        W51656  10.316  28.625  11.472
79931W        W51657   3.770  15.617   9.985
79932W        W51658  17.775  15.844  11.441
79933W        W51659   1.789  24.123   1.951
79934W        W51660  40.621   5.518   3.685
79935W        W51661   8.349  44.898  11.041
79936W        W51662  29.071  16.924  12.466
79937W        W51663  38.339  27.121   4.702
79938W        W51664  26.403  34.549   1.409
79939W        W51665  37.521  16.286  14.705
79940W        W51666  34.380  43.695  13.429
79941W        W51667  31.843  24.667   1.462
79942W        W51668  20.320   5.348   2.837
79943W        W51669   2.225  30.878   1.181
79944W        W51670   2.346  34.617  12.625
79945W        W51671  27.575  34.968   3.236
79946W        W51672  35.531  12.719   3.927
79947W        W51673   3.701  34.117   2.537
79948W        W51674  18.519  12.619   3.593
79949W        W51675   5.321  37.355  12.131
79950W        W51676   7.187  15.932   2.721
79951W        W51677  22.232  21.038   1.722
79952W        W51678   6.929   3.729   3.128
79953W        W51679  21.953  34.491   0.738
79954W        W51680  30.246  23.422   5.363
79955W        W51681  39.111   9.245   0.471
79956W        W51682  26.974  43.305  12.433
79957W        W51683  21.423  39.614  14.279
79958W        W51684  28.923   4.750   0.563
79959W        W51685  34.705  37.986   0.693
79960W        W51686   5.347  10.707  14.294
79961W        W51687  17.237  15.673   4.146
79962W        W51688  31.254  36.392  12.349
79963W        W51689  27.581  32.162  14.440
79964W        W51690   8.015  40.838  13.915
79965W        W51691   1.573  15.711   4.152
79966W        W51692  43.388   4.476  12.760
79967W        W51693  18.644   7.129  12.635
79968W        W51694  19.648   8.512   3.201
79969W        W51695  16.701  42.921   0.836
79970W        W51696  33.603   4.445  13.124
79971W        W51697  43.719  23.130   0.899
79972W        W51698  32.543  23.543   4.283
79973W        W51699  28.985  30.336   4.685
79974W        W51700   4.413  24.124  13.099
79975W        W51701   6.674  13.153  12.504
79976W        W51702   3.858   0.840  12.641
79977W        W51703  30.577  16.247   1.495
79978W        W51704  20.076  15.636  11.198
79979W        W51705  37.491   9.258  13.877
79980W        W51706  12.122  22.859  12.434
79981W        W51707  35.560  23.957   1.368
79982W        W51708   2.422  39.457   4.582
79983W        W51709  35.190  37.418  12.943
79984W        W51710  36.149  43.656   3.587
79985W        W51711   8.762  42.108   3.650
79986W        W51712  33.904   3.227  11.584
79987W        W51713  42.550  35.626  11.501
79988W        W51714  36.905  37.912  14.399
79989W        W51715  44.800   7.961   1.327
79990W        W51716  41.453   5.238  10.862
79991W        W51717  39.767  21.734   4.955
79992W        W51718   6.902   6.230   3.793
79993W        W51719  32.979  16.949  12.636
79994W        W51720  13.370  38.839   3.263
79995W        W51721  13.145  15.504  12.407
79996W        W51722   7.728  39.757  14.780
79997W        W51723  27.003  41.984  12.138
79998W        W51724  38.438  41.480  10.606
79999W        W51725  44.918  29.666  13.301
80000W        W51726  30.115  20.899   3.672
80001W        W51727  37.506  25.658   0.726
80002W        W51728  33.668  44.828  12.399
80003W        W51729  22.167   3.746   2.756
80004W        W51730   8.886  10.699   1.455
80005W        W51731  36.674  25.943   3.502
80006W        W51732   4.958  36.924   3.769
80007W        W51733  21.685   5.940   4.523
80008W        W51734  27.992  23.436   3.671
80009W        W51735  16.248   3.824  13.365
80010W        W51736  33.239   5.468   2.813
80011W        W51737  13.667  44.503  14.791
80012W        W51738  18.486  26.118  13.857
80013W        W51739  41.771  33.117   0.824
80014W        W51740   3.694  27.632   0.816
80015W        W51741  10.700  33.852  13.307
80016W        W51742  31.423  18.743  11.867
80017W        W51743  16.372  14.268  12.995
80018W        W51744  31.322  10.212  11.925
80019W        W51745  33.182  21.752  14.337
80020W        W51746  41.968  39.282  11.238
80021W        W51747   4.817   5.765  11.722
80022W        W51748  26.011  34.327  13.095
80023W        W51749  30.629  38.475  12.905
80024W        W51750  43.987  17.254  10.972
80025W        W51751  17.596  20.699  13.572
80026W        W51752  14.739  10.731   4.595
80027W        W51753   4.121  31.992   4.509
80028W        W51754  37.481   5.718   0.659
80029W        W51755  30.457  23.750  11.946
80030W        W51756  21.703   4.210   3.182
80031W        W51757  25.901  22.590   4.591
80032W        W51758  21.849  11.832   0.300
80033W        W51759  17.872  39.359   3.110
80034W        W51760  44.736  17.619   1.328
80035W        W51761  40.481  10.817   0.947
80036W        W51762  11.666   3.929  13.625
80037W        W51763   1.280   3.928   2.017
80038W        W51764   9.151  39.846  11.000
80039W        W51765  40.904  11.123   0.391
80040W        W51766  39.064   7.321  10.185
80041W        W51767  11.117  26.959  14.898
80042W        W51768  34.951  21.748   2.862
80043W        W51769   1.687  41.086  11.059
80044W        W51770  32.967   2.859   1.732
80045W        W51771  31.175   1.800   1.850
80046W        W51772  31.905   0.976   0.824
80047W        W51773  36.968  36.332   0.974
80048W        W51774  17.664  35.767  12.130
80049W        W51775  11.667  39.019   0.762
80050W        W51776  33.209  15.175  11.338
80051W        W51777   2.670  27.524   3.233
80052W        W51778  15.584  39.931  14.967
80053W        W51779  40.551  18.502   2.147
80054W        W51780  11.078  31.582   2.429
80055W        W51781  28.156  22.476   1.898
80056W        W51782  34.813  36.866  11.522
80057W        W51783  16.674  10.848   1.253
80058W        W51784   9.920   4.233  11.201
80059W        W51785  25.433  30.404   4.154
80060W        W51786  26.244  42.521   1.873
80061W        W51787  19.520   1.429   0.448
80062W        W51788   4.399  11.877   3.732
80063W        W51789   2.135  38.629  10.144
80064W        W51790   5.572  22.585   4.184
80065W        W51791  21.011   0.502   2.223
80066W        W51792  28.490   0.484   4.172
80067W        W51793  13.341  22.977  13.815
80068W        W51794  38.756  41.074   0.939
80069W        W51795  10.761  20.360  14.757
80070W        W51796  39.877   3.809  10.700
80071W        W51797   8.740  39.284   1.636
80072W        W51798  26.150  14.345  12.099
80073W        W51799   4.746  38.046  13.527
80074W        W51800  20.032  24.694   1.800
80075W        W51801  28.425  25.428   2.238
80076W        W51802  38.304  12.209   3.854
80077W        W51803  17.465  15.734   2.928
80078W        W51804  29.510   6.352   4.096
80079W        W51805  23.437  17.963   1.477
80080W        W51806  12.150   3.055   2.508
80081W        W51807   2.225   8.658   3.551
80082W        W51808  10.656  37.394  13.465
80083W        W51809  12.355   9.018   0.872
80084W        W51810  41.311  29.906  14.344
80085W        W51811   2.387  37.237   2.835
80086W        W51812  19.222  42.544  11.088
80087W        W51813  43.724  38.514  10.687
80088W        W51814  10.915   4.724   0.899
80089W        W51815  32.648  40.321  12.524
80090W        W51816  38.714  41.898  10.773
80091W        W51817  14.604   4.674  11.650
80092W        W51818   1.244  13.241   0.760
80093W        W51819  10.907  30.971   4.868
80094W        W51820   2.749   9.247  12.486
80095W        W51821   2.434  12.533  14.028
80096W        W51822  42.259   3.101   1.887
80097W        W51823  36.421  26.517   4.614
80098W        W51824  38.456  27.265   1.240
80099W        W51825  13.298   5.914   4.197
80100W        W51826   8.154  23.498  12.475
80101W        W51827  40.830  28.951  12.076
80102W        W51828  15.080  28.654  14.542
80103W        W51829  44.525  44.402  11.500
80104W        W51830  43.021  15.240  10.740
80105W        W51831  24.468  13.121   0.718
80106W        W51832  13.363  39.353  12.844
80107W        W51833  34.459  39.010  11.383
80108W        W51834   2.266  17.030   1.457
80109W        W51835  19.015  27.118  11.647
80110W        W51836   8.399  24.992   4.109
80111W        W51837  24.193  26.467  12.045
80112W        W51838  10.881  30.087  13.829
80113W        W51839  42.767  22.809  11.062
80114W        W51840  40.257  20.071   2.754
80115W        W51841   7.414   5.652   3.652
80116W        W51842  42.009  17.423  13.099
80117W        W51843  41.840  37.280   0.802
80118W        W51844   6.707  14.969  12.077
80119W        W51845  35.993   2.146  14.380
80120W        W51846  44.777  14.292  10.443
80121W        W51847   0.244  28.067  11.528
80122W        W51848  34.464  29.177   0.642
80123W        W51849  29.062  21.076   0.532
80124W        W51850   0.205   7.294   2.851
80125W        W51851  35.872  38.656   3.539
80126W        W51852  10.579   7.503   0.285
80127W        W51853   6.838   7.864   3.364
80128W        W51854  36.887  14.203  14.935
80129W        W51855   0.873  29.869  14.500
80130W        W51856  22.938  33.889  13.820
80131W        W51857  34.309  36.859  11.541
80132W        W51858  33.044  14.582  10.522
80133W        W51859  33.459   5.751  11.694
80134W        W51860  15.124  31.986   1.796
80135W        W51861  20.507   6.916  10.928
80136W        W51862  44.208  41.743   3.657
80137W        W51863  15.244  36.346  14.424
80138W        W51864  29.346  15.291  14.478
80139W        W51865  39.347  23.218  14.879
80140W        W51866   1.264   7.230   3.767
80141W        W51867  28.508  29.113   1.157
80142W        W51868  44.593  28.343  13.666
80143W        W51869  29.242   9.803  14.271
80144W        W51870  21.187  12.748   2.443
80145W        W51871  22.953  25.310  13.337
80146W        W51872  21.261   6.162  14.885
80147W        W51873  31.010  15.298  10.948
80148W        W51874  25.264  16.350   1.510
80149W        W51875  21.073  29.399   0.893
80150W        W51876  13.125  27.103   0.034
80151W        W51877  39.561  18.705  13.556
80152W        W51878  39.146  11.912   3.831
80153W        W51879  21.315   1.573   2.946
80154W        W51880   5.201  21.064   2.831
80155W        W51881  26.279  20.653  14.805
80156W        W51882  31.741  10.760   4.263
80157W        W51883   6.894  26.043   4.795
80158W        W51884  43.495  39.021   0.014
80159W        W51885  30.095  37.412   1.299
80160W        W51886  37.820  18.093  13.899
80161W        W51887  41.473   8.245   3.823
80162W        W51888   8.196  44.571   1.235
80163W        W51889  15.842  43.156   5.094
80164W        W51890  33.846  13.186   3.862
80165W        W51891  43.727  25.766   4.643
80166W        W51892  10.353   6.827  13.546
80167W        W51893   1.062  18.315  11.201
80168W        W51894  26.467   0.741   1.310
80169W        W51895   7.441  23.967   1.405
80170W        W51896   4.854  43.925   3.523
80171W        W51897  43.287   9.210  14.011
80172W        W51898  18.903  17.663  10.460
80173W        W51899  25.444  40.270  14.201
80174W        W51900   0.014   4.354   4.782
80175W        W51901  23.125  26.651   3.743
80176W        W51902  26.955  39.073  14.917
80177W        W51903  35.136  27.365   2.234
80178W        W51904  19.573   4.748   3.758
80179W        W51905  24.721  26.256   0.017
80180W        W51906  24.575  31.169   0.407
80181W        W51907  35.676  20.026   1.542
80182W        W51908  17.053  35.852   0.071
80183W        W51909  10.707  44.517   3.280
80184W        W51910  25.766  30.417  14.737
80185W        W51911  32.657  43.534  11.613
80186W        W51912   5.312  44.687   3.498
80187W        W51913  27.996  25.765  13.845
80188W        W51914  10.085  32.176  10.768
80189W        W51915  33.552  22.662  14.656
80190W        W51916  24.026  43.335   0.338
80191W        W51917  28.886   9.470   2.071
80192W        W51918  27.215   5.977  13.367
80193W        W51919  13.825  18.295  10.492
80194W        W51920  14.886  16.701   4.195
80195W        W51921  34.357  37.149   4.140
80196W        W51922  43.460  26.135  13.387
80197W        W51923  43.422   9.075   1.224
80198W        W51924  22.019  34.044  14.151
80199W        W51925  10.160  38.956   2.289
80200W        W51926  14.710  33.832  11.983
80201W        W51927  22.135  12.689  14.334
80202W        W51928  40.889  34.694   3.900
80203W        W51929   3.916  28.164   3.234
80204W        W51930  33.619  17.261   0.623
80205W        W51931  35.245  36.152   0.957
80206W        W51932   3.363  26.735   4.994
80207W        W51933  39.263   0.452  12.894
80208W        W51934  21.082  41.696   1.440
80209W        W51935   0.051  19.273   3.587
80210W        W51936  41.984  28.982  10.015
80211W        W51937  32.712  44.429  13.447
80212W        W51938   9.783  20.990  11.949
80213W        W51939  10.859  31.934   0.852
80214W        W51940  12.883  41.116   2.940
80215W        W51941  22.738  40.443   3.822
80216W        W51942  32.367  12.749  14.262
80217W        W51943  14.757   8.777   2.163
80218W        W51944  18.602   9.313  12.123
80219W        W51945  43.635  38.023  12.009
80220W        W51946  23.575  36.267  14.582
80221W        W51947   3.764  19.283   2.679
80222W        W51948  31.205   6.897  14.299
80223W        W51949  19.618  33.642   4.208
80224W        W51950  14.312  15.827   1.373
80225W        W51951  36.733  14.852  14.425
80226W        W51952  37.557   1.926  11.694
80227W        W51953  36.644   7.698  10.905
80228W        W51954  32.350  13.877  13.489
80229W        W51955   4.434  22.708  10.381
80230W        W51956  33.711  34.630  14.430
80231W        W51957   9.936   4.316   2.219
80232W        W51958   1.055  19.613  10.793
80233W        W51959   3.695   0.028   0.896
80234W        W51960  39.367  20.707  13.239
80235W        W51961  33.757   9.748   2.306
80236W        W51962   3.252  21.129   0.879
80237W        W51963  38.838  30.104   0.698
80238W        W51964  19.332   8.326   4.334
80239W        W51965   1.186  17.626  11.413
80240W        W51966   3.933  20.375  10.783
80241W        W51967  35.479  34.100   0.263
80242W        W51968  39.544  23.662   4.531
80243W        W51969  33.378  43.259   4.219
80244W        W51970  18.597   3.717  13.539
80245W        W51971  41.480  20.646  11.581
80246W        W51972   1.655   5.343   1.462
80247W        W51973  37.889  17.615   3.322
80248W        W51974  29.736  18.463  11.574
80249W        W51975  35.027  36.537  10.742
80250W        W51976  44.067  10.290   0.958
80251W        W51977  28.983  40.901   3.279
80252W        W51978  17.863   9.645  11.587
80253W        W51979  29.442   5.385   2.215
80254W        W51980   0.345  12.275  13.984
80255W        W51981  11.304  35.844   1.231
80256W        W51982   5.823   6.618   0.742
80257W        W51983  25.652  17.154   0.233
80258W        W51984  13.684  18.807  10.554
80259W        W51985  11.275  40.804  11.804
80260W        W51986   1.888  37.171  11.536
80261W        W51987   9.709  26.111   4.887
80262W        W51988  10.210  33.227  10.635
80263W        W51989  32.610  16.706  10.869
80264W        W51990  28.141  24.638  11.053
80265W        W51991  29.143  10.781   2.195
80266W        W51992  15.595  40.243   2.294
80267W        W51993  39.769  16.712  14.196
80268W        W51994   3.048  31.993   2.848
80269W        W51995  38.899  13.345   0.926
80270W        W51996  30.675  40.974   2.583
80271W        W51997  17.590   6.078   2.771
80272W        W51998  24.515  26.162   3.549
80273W        W51999  15.144  28.683  13.375
80274W        W52000   4.168  20.565  12.858
80275W        W52001  39.032  22.304  13.602
80276W        W52002  20.568  17.127  12.473
80277W        W52003  32.822  23.096  13.791
80278W        W52004  44.217   7.270  13.966
80279W        W52005  17.104  21.528   1.693
80280W        W52006  17.406  44.788  13.039
80281W        W52007  13.759  42.829  11.091
80282W        W52008  25.532  21.512   3.292
80283W        W52009   1.324  15.104  11.987
80284W        W52010  44.915  43.736  12.853
80285W        W52011   3.864  42.332   4.752
80286W        W52012  32.826  42.271   0.879
80287W        W52013   1.294  11.648  10.738
80288W        W52014  13.117  38.497  13.964
80289W        W52015  18.218  34.405   2.847
80290W        W52016  15.673  21.258  11.127
80291W        W52017  30.171   7.687   3.255
80292W        W52018  44.434   7.716   2.600
80293W        W52019  27.904  19.655  11.854
80294W        W52020   9.463  41.286   3.468
80295W        W52021  39.396  29.123  12.967
80296W        W52022   2.933  12.257   2.904
80297W        W52023  28.112  20.207  14.215
80298W        W52024  30.643  21.797   2.160
80299W        W52025   8.262  32.336  11.993
80300W        W52026  32.959  30.487   0.549
80301W        W52027  27.007  15.180   1.299
80302W        W52028  42.311   2.906   0.970
80303W        W52029  16.010   1.423   1.389
80304W        W52030  43.812  25.717  13.794
80305W        W52031  24.125  12.704   4.271
80306W        W52032  31.068  27.334  11.478
80307W        W52033  43.414  11.235  12.060
80308W        W52034  25.195  18.414   0.025
80309W        W52035  41.032  13.877   1.674
80310W        W52036   7.827  44.682   3.238
80311W        W52037  27.721  15.827  13.225
80312W        W52038  42.658  41.525  14.492
80313W        W52039  33.631  42.859   0.787
80314W        W52040  31.986   6.062  12.459
80315W        W52041  16.681   4.907   2.004
80316W        W52042  17.242  41.794  11.121
80317W        W52043  15.778  13.205  14.663
80318W        W52044   9.854  27.466   4.611
80319W        W52045  21.211  37.052  10.963
80320W        W52046  39.308   4.158   3.375
80321W        W52047  40.896  26.102   1.269
80322W        W52048   8.710   1.640  14.757
80323W        W52049  31.460   1.367   1.777
80324W        W52050  27.069  29.078  12.300
80325W        W52051   6.305  36.582  11.519
80326W        W52052  16.226  26.502   0.908
80327W        W52053  42.330  34.401   0.011
80328W        W52054   6.642  38.925  12.989
80329W        W52055  23.932  19.813   3.321
80330W        W52056   8.869  26.577   1.826
80331W        W52057  31.658  22.488  13.605
80332W        W52058  14.054  32.876  14.877
80333W        W52059   9.846   9.725   1.865
80334W        W52060  18.572  33.567  12.564
80335W        W52061  19.496  29.088  14.424
80336W        W52062  32.897  17.117   2.252
80337W        W52063  44.092  24.320  10.418
80338W        W52064  39.870   3.852   1.861
80339W        W52065  37.132  16.627  12.961
80340W        W52066  28.644   1.337   3.224
80341W        W52067  28.405  19.179   1.170
80342W        W52068  44.504  29.901  14.856
80343W        W52069  37.318  33.479  10.379
80344W        W52070  18.650  23.222  13.123
80345W        W52071  29.457   4.861   2.383
80346W        W52072  20.710   5.946   3.106
80347W        W52073   7.830  11.195  13.569
80348W        W52074  12.477   0.242   1.706
80349W        W52075  17.265  29.963   2.458
80350W        W52076  20.509   7.983  12.554
80351W        W52077  16.305  44.960   3.524
80352W        W52078   8.361  24.580  13.094
80353W        W52079  28.090  15.094  10.225
80354W        W52080  40.282  32.895   3.861
80355W        W52081  40.288   8.828  10.791
80356W        W52082  29.035  37.329   1.854
80357W        W52083  21.709  17.803  12.793
80358W        W52084  15.600  11.285   0.473
80359W        W52085  29.163  35.566  12.109
80360W        W52086  35.116  44.473  14.127
80361W        W52087  25.201  25.193   4.746
80362W        W52088  16.175  23.953   1.925
80363W        W52089   9.021  40.701  14.324
80364W        W52090  16.674  12.179  13.506
80365W        W52091  11.148  41.382   4.029
80366W        W52092   5.328  11.431   2.682
80367W        W52093  37.528  15.197  14.290
80368W        W52094   3.967  30.519  11.551
80369W        W52095  26.494  29.199   4.598
80370W        W52096  31.635  31.439  13.776
80371W        W52097  42.009  10.315   4.162
80372W        W52098  15.279   6.010   2.247
80373W        W52099  21.723  26.384  11.087
80374W        W52100  28.477   5.437   0.231
80375W        W52101  32.589  43.491   3.720
80376W        W52102  44.378  36.847  14.976
80377W        W52103  12.362  43.758   3.850
80378W        W52104  29.064  30.032   3.287
80379W        W52105  37.882  17.031   0.197
80380W        W52106  13.156  34.832   2.242
80381W        W52107   1.672  38.659  14.970
80382W        W52108   7.143  17.597   3.097
80383W        W52109  36.005  41.986  11.932
80384W        W52110  29.186   3.200   4.577
80385W        W52111  14.166   1.561   4.570
80386W        W52112  29.665  24.637   9.730
80387W        W52113  42.002  26.554   3.579
80388W        W52114  37.875  20.547  11.585
80389W        W52115  44.849  31.087   0.744
80390W        W52116   1.147  32.659   4.637
80391W        W52117   5.753   1.777   2.784
80392W        W52118   7.218   0.413  11.218
80393W        W52119  15.807  15.510  13.946
80394W        W52120  33.434   3.983  11.952
80395W        W52121  18.006  30.653  13.106
80396W        W52122   7.862  44.477  11.634
80397W        W52123  31.622   2.853   4.248
80398W        W52124  14.699  44.308  13.055
80399W        W52125   2.906  23.101   0.982
80400W        W52126  43.019  28.450   1.516
80401W        W52127  11.925  13.957   3.813
80402W        W52128   3.627  26.138  14.274
80403W        W52129  13.817  42.300  11.168
80404W        W52130  41.319  21.954   2.446
80405W        W52131  36.976  33.000  14.479
80406W        W52132  20.648  12.882  14.462
80407W        W52133  38.719  18.459  10.043
80408W        W52134   1.029   4.776  14.526
80409W        W52135  26.613   2.937   0.893
80410W        W52136   4.420  28.996  13.891
80411W        W52137  19.868  22.818  12.825
80412W        W52138   6.986  16.135   3.264
80413W        W52139  23.581  19.028  14.004
80414W        W52140  34.368  43.585   2.748
80415W        W52141   9.649  33.802   4.455
80416W        W52142   1.029  39.241  14.418
80417W        W52143  16.325   0.196   1.740
80418W        W52144   6.808   5.432  14.758
80419W        W52145  32.460  24.373   9.797
80420W        W52146   5.244  26.700  10.305
80421W        W52147   2.415  19.039   4.654
80422W        W52148   6.358  33.962  14.050
80423W        W52149   9.614  15.295  11.141
80424W        W52150  27.912  19.541  13.607
80425W        W52151  34.443   4.857   3.360
80426W        W52152  13.345  39.940  11.985
80427W        W52153  26.670   8.776  13.279
80428W        W52154  12.992  11.243  13.979
80429W        W52155  28.657  12.917  13.757
80430W        W52156   6.143   3.765  14.407
80431W        W52157  37.458  18.563   1.688
80432W        W52158  24.032  26.006   2.284
80433W        W52159  19.682  27.954  13.029
80434W        W52160  19.750  40.343   2.705
80435W        W52161   6.546  27.618   2.848
80436W        W52162   1.800  27.573   4.639
80437W        W52163  37.916  14.389  10.957
80438W        W52164  13.174  13.790   0.403
80439W        W52165  16.135  31.165  11.123
80440W        W52166  32.390  26.188  14.807
80441W        W52167   4.529  31.583  14.399
80442W        W52168  15.140  20.766   4.850
80443W        W52169  21.079   9.360   2.599
80444W        W52170   2.014  44.567  12.005
80445W        W52171  33.931  12.337   4.688
80446W        W52172  12.787  19.785  12.637
80447W        W52173  37.537   5.778   3.261
80448W        W52174  29.181   6.838   1.277
80449W        W52175  27.848   4.966  10.248
80450W        W52176   8.018   6.170  10.152
80451W        W52177  38.321  19.773  10.671
80452W        W52178  42.539  22.848  14.857
80453W        W52179  29.882  14.154   2.679
80454W        W52180  27.688   2.903   0.883
80455W        W52181  40.518  24.999   2.253
80456W        W52182  10.482  18.796   3.146
80457W        W52183  15.170  30.674   0.454
80458W        W52184  15.799   5.951   1.829
80459W        W52185  11.684  24.590  13.989
80460W        W52186  34.465  28.997   2.152
80461W        W52187  18.998  35.830  13.866
80462W        W52188  36.755  36.004  11.101
80463W        W52189   0.688  31.500   0.814
80464W        W52190  43.531  14.196  11.645
80465W        W52191  26.738  13.377   3.411
80466W        W52192  34.958  44.591  13.138
80467W        W52193   7.986   3.739   4.332
80468W        W52194  28.500  38.511   2.839
80469W        W52195   1.715  36.002   1.920
80470W        W52196  42.674  25.127  11.498
80471W        W52197  17.614  23.203   2.052
80472W        W52198  15.134  25.756   1.163
80473W        W52199  17.272   8.111   1.341
80474W        W52200  19.767  26.520   1.668
80475W        W52201  43.799   0.798   3.675
80476W        W52202  22.555   7.718  12.588
80477W        W52203  27.984   7.201   0.181
80478W        W52204  12.746   1.557  11.976
80479W        W52205  17.737   3.404   0.788
80480W        W52206  42.978  14.159   0.962
80481W        W52207  18.687  13.758  14.463
80482W        W52208  11.289   1.815   4.201
80483W        W52209  38.399   5.782  13.848
80484W        W52210  22.698   9.629  12.889
80485W        W52211  14.567  13.397  11.704
80486W        W52212  34.568  24.577  14.810
80487W        W52213  33.440  42.563   3.075
80488W        W52214  10.659  15.371  13.342
80489W        W52215  27.068  15.567  13.936
80490W        W52216  43.166   8.336   1.731
80491W        W52217   6.898  44.251   2.331
80492W        W52218   5.284  35.404  14.896
80493W        W52219   9.767  43.910  11.566
80494W        W52220  15.180   7.449  10.483
80495W        W52221   0.721  31.288   3.692
80496W        W52222  26.956   8.846  11.081
80497W        W52223  21.088   9.366  11.702
80498W        W52224  37.787  38.908  11.506
80499W        W52225   4.278  33.829   3.781
80500W        W52226  44.226  41.606   0.934
80501W        W52227  27.682  40.363   0.279
80502W        W52228   1.289   2.478  12.427
80503W        W52229  21.237  21.416  13.882
80504W        W52230  40.280  22.453   4.073
80505W        W52231  41.818   4.238   3.842
80506W        W52232  11.678   4.611   2.191
80507W        W52233  14.563  17.638  10.948
80508W        W52234  21.415  20.090  13.194
80509W        W52235   9.647  18.528   2.795
80510W        W52236   2.163  20.537   3.869
80511W        W52237  44.763  43.949  11.462
80512W        W52238  35.885  11.738   0.251
80513W        W52239  35.555  12.698  14.040
80514W        W52240  43.456  11.532  14.002
80515W        W52241  23.959  27.387   3.198
80516W        W52242  40.605  10.307  10.248
80517W        W52243  31.282  15.368  12.393
80518W        W52244   9.262  17.637   1.409
80519W        W52245  24.502  21.527  12.624
80520W        W52246  18.540  27.888   2.389
80521W        W52247  36.719   1.648  10.659
80522W        W52248   8.846  25.262  11.008
80523W        W52249  44.276  26.640  12.661
80524W        W52250   8.843  41.843   0.385
80525W        W52251  23.945  11.685   1.942
80526W        W52252  36.405  14.555  13.956
80527W        W52253   3.879   8.591  12.014
80528W        W52254  21.775  33.457   2.201
80529W        W52255  13.713   2.790   1.917
80530W        W52256  13.362   1.147  13.171
80531W        W52257   2.804  28.561  14.068
80532W        W52258   7.737   5.073  14.343
80533W        W52259  26.165  20.071   1.394
80534W        W52260  16.222  44.462  10.990
80535W        W52261  19.549   9.894   3.981
80536W        W52262   5.289  23.525  12.546
80537W        W52263  37.391  34.997   1.961
80538W        W52264  27.579  28.566  12.943
80539W        W52265  24.971  36.373  12.113
80540W        W52266  11.299   8.761  10.708
80541W        W52267  10.155  35.408   4.465
80542W        W52268   7.298  39.811   3.219
80543W        W52269  27.848   6.704   3.623
80544W        W52270  22.274  36.968   4.341
80545W        W52271   8.298  15.894  11.030
80546W        W52272  35.602  22.848  12.863
80547W        W52273  41.891  42.733   4.734
80548W        W52274   1.640  44.772  10.826
80549W        W52275  30.720  37.550   4.690
80550W        W52276  20.516  31.960   1.857
80551W        W52277   7.628  12.204  12.647
80552W        W52278   9.408  41.696   2.190
80553W        W52279  35.672   3.691   1.818
80554W        W52280  42.400   7.433   3.624
80555W        W52281   7.669   2.379   3.139
80556W        W52282  31.836  18.072  12.323
80557W        W52283  10.307  37.894  14.298
80558W        W52284  13.568  39.066   1.533
80559W        W52285  12.918  21.605  13.856
80560W        W52286  31.508  34.838  13.488
80561W        W52287   8.232  15.177   0.783
80562W        W52288  32.518  17.653  12.415
80563W        W52289  37.370  25.151   4.407
80564W        W52290   9.702   5.898  13.823
80565W        W52291  10.309  44.673  10.698
80566W        W52292   4.355  11.082  13.129
80567W        W52293  37.503   0.719   2.434
80568W        W52294   9.596   3.309  10.932
80569W        W52295  32.352  26.604   2.253
80570W        W52296   6.119  44.785  12.560
80571W        W52297  26.527  16.851  11.549
80572W        W52298  12.888  32.164   1.872
80573W        W52299  14.040   3.632  13.897
80574W        W52300  25.280  11.330   0.220
80575W        W52301   6.452   4.248  14.892
80576W        W52302   4.328  28.446  11.353
80577W        W52303  22.659  36.761   2.145
80578W        W52304  37.343  41.331   0.274
80579W        W52305  37.585  14.754  11.204
80580W        W52306   4.940  27.565  14.425
80581W        W52307  34.575   7.846   0.020
80582W        W52308  37.493  36.983   3.034
80583W        W52309  20.636  37.494   2.254
80584W        W52310  40.358  43.193  13.862
80585W        W52311  14.019  28.519  13.800
80586W        W52312  36.864  11.719  10.771
80587W        W52313  44.024   8.425   3.463
80588W        W52314  13.685   5.874   1.180
80589W        W52315  12.593  17.814   1.207
80590W        W52316   7.339  15.188  10.014
80591W        W52317  23.878  32.092   3.308
80592W        W52318   3.385  24.146   3.628
80593W        W52319  22.988  38.904   0.526
80594W        W52320   4.745  42.882   1.456
80595W        W52321  19.635  23.971  11.007
80596W        W52322  36.571   5.458   4.775
80597W        W52323  23.851  37.105   1.487
80598W        W52324  43.961   4.251   2.308
80599W        W52325  23.890  20.221   3.629
80600W        W52326   6.917   8.737  14.045
80601W        W52327  15.286  20.330   3.904
80602W        W52328  26.099   9.396  11.433
80603W        W52329  12.881  41.347  12.862
80604W        W52330  29.024  32.468   3.737
80605W        W52331  28.244   5.416  12.909
80606W        W52332   1.288   3.929  10.971
80607W        W52333   9.735  26.075  10.121
80608W        W52334  24.922  30.483  11.717
80609W        W52335  34.666  11.208  13.559
80610W        W52336  12.360   8.866  14.275
80611W        W52337  40.910   0.450  13.802
80612W        W52338   7.277  24.678   1.786
80613W        W52339  23.231  25.663  12.370
80614W        W52340  27.981  35.679   2.217
80615W        W52341  28.575  22.451   2.672
80616W        W52342  35.670  21.816  12.950
80617W        W52343   6.439   9.879  12.478
80618W        W52344  13.326  14.784   1.228
80619W        W52345  40.266  19.641   3.714
80620W        W52346  40.607  37.559   1.904
80621W        W52347  44.889  28.407  14.931
80622W        W52348  28.490  11.870   4.651
80623W        W52349  34.597  30.653  12.389
80624W        W52350  30.622  25.607   5.011
80625W        W52351  41.250  31.476  13.066
80626W        W52352   2.338  36.376  10.744
80627W        W52353   5.330  27.283  14.743
80628W        W52354  18.690   3.056   1.161
80629W        W52355  15.455   8.100  11.558
80630W        W52356  14.999   2.553   2.743
80631W        W52357  36.190  26.878   3.685
80632W        W52358   9.856  44.211  12.026
80633W        W52359  34.155   6.682   2.787
80634W        W52360  25.509  39.067  13.474
80635W        W52361  28.496   8.064   4.082
80636W        W52362  27.156  36.483  12.446
80637W        W52363  21.997   1.946  12.914
80638W        W52364  12.639  25.428   2.128
80639W        W52365  18.767  13.079   3.663
80640W        W52366  13.069  31.944  12.302
80641W        W52367  38.880   0.157   4.104
80642W        W52368   6.721  10.692   4.513
80643W        W52369   8.280  33.005  14.764
80644W        W52370  24.034  29.502  10.773
80645W        W52371  42.527  38.859  12.098
80646W        W52372  14.437  30.276   0.469
80647W        W52373  18.665  39.413  12.537
80648W        W52374  24.676  22.545   0.894
80649W        W52375  34.007  34.840  11.786
80650W        W52376  32.143  32.785  14.212
80651W        W52377  27.524  18.321  11.840
80652W        W52378  30.576  33.937   4.608
80653W        W52379  17.287  19.702  13.867
80654W        W52380  10.336  26.160  13.918
80655W        W52381  21.832  18.702  14.209
80656W        W52382  14.779  35.728   4.302
80657W        W52383  36.017   4.250  11.917
80658W        W52384  10.968  22.944  10.731
80659W        W52385   2.768  32.586  13.867
80660W        W52386  18.750  27.591   0.465
80661W        W52387   2.465  30.124  13.398
80662W        W52388  39.981   2.870  12.544
80663W        W52389  44.468  15.108   0.963
80664W        W52390   3.760  32.629   0.333
80665W        W52391  44.739  29.096   0.873
80666W        W52392  31.095  10.594  10.220
80667W        W52393  30.482   9.432   3.276
80668W        W52394  22.945  31.807   1.435
80669W        W52395   8.690  20.235   3.196
80670W        W52396  33.934  39.191   9.891
80671W        W52397  35.640  40.802   2.292
80672W        W52398  44.760  16.241   4.663
80673W        W52399  10.798  19.017  13.813
80674W        W52400  31.545  43.121  12.957
80675W        W52401   1.622   6.083  12.036
80676W        W52402  10.895   2.776  11.470
80677W        W52403  10.817   8.406   0.260
80678W        W52404  13.854  43.954   1.502
80679W        W52405   7.819  23.438   5.417
80680W        W52406  18.336  30.216  12.609
80681W        W52407  10.371  33.243   3.961
80682W        W52408  13.804  27.621  12.354
80683W        W52409  25.995   5.274   0.067
80684W        W52410  12.639  35.447  13.954
80685W        W52411   2.431  35.467  12.936
80686W        W52412  18.328  25.565  11.436
80687W        W52413   7.213   7.071  13.933
80688W        W52414  40.645   2.207   1.472
80689W        W52415  30.674  29.744   3.430
80690W        W52416   9.815   1.695  14.130
80691W        W52417  21.097  12.476   4.599
80692W        W52418  32.547   4.686   3.833
80693W        W52419   2.261  13.186   1.844
80694W        W52420  28.115   6.345  13.506
80695W        W52421  20.868  20.952   4.998
80696W        W52422  16.371  15.809  14.966
80697W        W52423  24.421  36.445  14.667
80698W        W52424  44.389  18.618  12.938
80699W        W52425  36.145  15.837   3.716
80700W        W52426  43.035  30.608  13.975
80701W        W52427   5.928  28.120  12.002
80702W        W52428  42.324  28.619  13.987
80703W        W52429  11.181  25.669  11.818
80704W        W52430  34.046  38.622   1.389
80705W        W52431   4.987  39.330  14.848
80706W        W52432  31.929  28.593   3.084
80707W        W52433  19.564  26.663  10.635
80708W        W52434  30.628   0.351   0.410
80709W        W52435  23.888  25.591  13.990
80710W        W52436  33.847  22.188   4.631
80711W        W52437  18.695  26.108  10.661
80712W        W52438  33.404   7.712  10.415
80713W        W52439   1.336  12.354  12.155
80714W        W52440  36.770  32.647  13.078
80715W        W52441  40.589  27.045   3.880
80716W        W52442  31.446   4.992  14.517
80717W        W52443  42.523   6.027   2.860
80718W        W52444  24.555  13.239   1.751
80719W        W52445  40.969  17.995   4.651
80720W        W52446   7.181   6.687   1.947
80721W        W52447   0.326  20.075  12.637
80722W        W52448  13.614  31.790   2.460
80723W        W52449  22.379  17.348  12.817
80724W        W52450  17.539   4.839  13.001
80725W        W52451   9.848  31.502   4.148
80726W        W52452  17.125  24.748   3.690
80727W        W52453  32.592  43.039  14.123
80728W        W52454  10.770  11.646  12.415
80729W        W52455   2.163   1.918   1.759
80730W        W52456  43.110  21.824  12.918
80731W        W52457   3.971  23.423  14.370
80732W        W52458  39.279   9.363  10.721
80733W        W52459  40.568  39.901  10.652
80734W        W52460  32.074   8.895  13.995
80735W        W52461   3.934   5.678  14.924
80736W        W52462  44.150  22.772   3.804
80737W        W52463   6.692  13.629   5.498
80738W        W52464   0.859   7.867   1.856
80739W        W52465  22.295  18.322  14.433
80740W        W52466   7.549  12.194  11.058
80741W        W52467  20.208  40.095  12.950
80742W        W52468  16.245  38.747  11.461
80743W        W52469  31.953  33.535   5.195
80744W        W52470  38.630   3.431  11.594
80745W        W52471  24.625  27.995   2.757
80746W        W52472  36.397   1.234   4.543
80747W        W52473  22.547   9.708   4.562
80748W        W52474  32.555  44.735   0.789
80749W        W52475  13.219  18.189  12.059
80750W        W52476  41.058  29.819  13.117
80751W        W52477   4.698   4.972  14.075
80752W        W52478  16.617  27.592  11.885
80753W        W52479  33.895   9.030  10.984
80754W        W52480  34.736  21.890  12.088
80755W        W52481  20.204   2.523   2.352
80756W        W52482  29.529   9.410   1.328
80757W        W52483  28.360  39.910  10.627
80758W        W52484  35.212  36.412   4.669
80759W        W52485  29.346  32.175   1.863
80760W        W52486   7.288  36.316   0.255
80761W        W52487  31.884   7.813  12.808
80762W        W52488  28.642  27.086  12.850
80763W        W52489   4.572  26.000   2.842
80764W        W52490  19.686  32.482  12.743
80765W        W52491  27.635  35.822   1.842
80766W        W52492  16.187  32.391  13.970
80767W        W52493  23.969  14.724   1.809
80768W        W52494  36.134  40.935   2.901
80769W        W52495  33.405  39.665   4.581
80770W        W52496  10.892  21.289   1.789
80771W        W52497   3.792  36.408  14.430
80772W        W52498  16.804  17.528   3.854
80773W        W52499   6.146  17.651   0.281
80774W        W52500  16.166  19.699  13.607
80775W        W52501   7.299   3.243   2.265
80776W        W52502  25.416   0.862   1.387
80777W        W52503  15.352  37.483   2.312
80778W        W52504  16.600  42.063   3.747
80779W        W52505   7.550  35.071   9.981
80780W        W52506   7.152  38.773   2.539
80781W        W52507  36.893  30.094   4.406
80782W        W52508  17.180   7.098  11.801
80783W        W52509  17.324  32.479   5.000
80784W        W52510   9.827  42.381   4.401
80785W        W52511   1.065  16.717  11.257
80786W        W52512  29.617  22.512  13.604
80787W        W52513   7.948  32.619  13.917
80788W        W52514  16.784  40.440   1.276
80789W        W52515  16.729  43.594   1.575
80790W        W52516   6.688  42.146  11.492
80791W        W52517  17.814  41.262  10.702
80792W        W52518  26.486  39.349  10.983
80793W        W52519  36.921  11.039   4.562
80794W        W52520   9.258   2.950   0.663
80795W        W52521  23.250  33.130  12.629
80796W        W52522  38.023  34.507   3.238
80797W        W52523  43.655  37.313   1.051
80798W        W52524  34.538   2.588  10.641
80799W        W52525  13.202  42.364   3.582
80800W        W52526  37.252  29.661   2.704
80801W        W52527  43.984  11.204   3.288
80802W        W52528   0.612  13.610  11.850
80803W        W52529   3.466   6.871   2.858
80804W        W52530  19.735  43.641  12.613
80805W        W52531  28.189   8.715  13.471
80806W        W52532  33.109  10.308  13.779
80807W        W52533  41.051  19.061  10.743
80808W        W52534  34.122  25.083  12.489
80809W        W52535   9.889   4.757  14.697
80810W        W52536  35.066  14.662  13.443
80811W        W52537  27.093   6.309   2.227
80812W        W52538   3.806  36.918  11.577
80813W        W52539   9.866  34.749   0.328
80814W        W52540  36.950  14.127   0.476
80815W        W52541  35.948  38.075   4.764
80816W        W52542  37.216  42.145   2.361
80817W        W52543   9.472  27.247  13.865
80818W        W52544   0.879  36.292  13.494
80819W        W52545  12.604  38.422  14.302
80820W        W52546  27.618   6.406   5.008
80821W        W52547  40.812  35.484   0.763
80822W        W52548  26.202  14.154   1.409
80823W        W52549  33.565  29.958   0.968
80824W        W52550  17.640  30.469   3.105
80825W        W52551  28.411  11.757  11.998
80826W        W52552  19.313  28.926   0.847
80827W        W52553  27.593   2.065  12.483
80828W        W52554  31.218   5.450  13.519
80829W        W52555   7.221  34.456   1.751
80830W        W52556   2.348  41.589   1.620
80831W        W52557  42.257  42.349   1.387
80832W        W52558  25.163  18.011  14.070
80833W        W52559  23.021  18.183  10.476
80834W        W52560  10.815  34.205  12.347
80835W        W52561   6.019  14.655   1.288
80836W        W52562   1.869   1.418   2.808
80837W        W52563  12.455  22.629   2.704
80838W        W52564   0.902  33.931  12.792
80839W        W52565  29.870  20.156  14.709
80840W        W52566  20.307  11.637  12.323
80841W        W52567  22.571   6.549  11.861
80842W        W52568  38.285  33.374   1.477
80843W        W52569   8.825   6.914  13.304
80844W        W52570  23.700  42.002  10.808
80845W        W52571  39.543   2.773   4.150
80846W        W52572  13.040  25.023  11.530
80847W        W52573  15.006  41.359   1.877
80848W        W52574  16.157  24.435   1.720
80849W        W52575   0.522  43.874  11.575
80850W        W52576   7.524  23.018   1.995
80851W        W52577  17.192  35.050  12.575
80852W        W52578  17.707  40.436   4.675
80853W        W52579  25.098  38.222  12.652
80854W        W52580  44.851  38.880   2.750
80855W        W52581  26.481  22.609  14.139
80856W        W52582  35.992   6.877   4.608
80857W        W52583  26.928  14.763  13.484
80858W        W52584  23.495  29.020   2.157
80859W        W52585  20.137  31.923  12.604
80860W        W52586  44.622  41.796   1.227
80861W        W52587  26.042  21.132   2.192
80862W        W52588  19.914  38.868  10.240
80863W        W52589   8.934   2.243   1.686
80864W        W52590   3.678  18.630   3.901
80865W        W52591  36.558   9.653   2.210
80866W        W52592  12.458  16.025   4.179
80867W        W52593   4.777  33.861  12.473
80868W        W52594  26.544  26.065   2.715
80869W        W52595  23.795  42.061   0.890
80870W        W52596  24.969  38.564   0.270
80871W        W52597   5.517   1.938  13.186
80872W        W52598  42.768  14.266  13.557
80873W        W52599  38.830  19.038   4.634
80874W        W52600  14.061   8.329  12.137
80875W        W52601  17.232  21.007   0.495
80876W        W52602  16.699   6.327   2.268
80877W        W52603  43.424  43.042   4.284
80878W        W52604   2.311  12.283  11.887
80879W        W52605  40.755   9.315   0.920
80880W        W52606  26.010   2.889   4.482
80881W        W52607  14.603  17.463   0.490
80882W        W52608  14.950  36.178   4.119
80883W        W52609  13.934  19.863   4.023
80884W        W52610  14.851   3.462  13.423
80885W        W52611  25.766  32.930  11.563
80886W        W52612  38.315  42.993   3.835
80887W        W52613  11.690  35.983   4.080
80888W        W52614  16.333  25.569   4.848
80889W        W52615  30.028  10.393   0.901
80890W        W52616  28.017   8.054  14.913
80891W        W52617  37.964  31.912  10.963
80892W        W52618  28.132  37.014  14.948
80893W        W52619  27.892  34.340   1.415
80894W        W52620  34.397  14.760   2.291
80895W        W52621  44.724   5.357   2.292
80896W        W52622  23.785   0.349   0.083
80897W        W52623  15.106  19.708   0.415
80898W        W52624   8.443  11.039   2.677
80899W        W52625   4.819  31.626  11.590
80900W        W52626  34.141  41.801   0.118
80901W        W52627  19.118  15.022   4.340
80902W        W52628  44.965  18.949   0.149
80903W        W52629  28.864  40.639  10.861
80904W        W52630   1.785  30.599   0.331
80905W        W52631  26.264  14.751  10.787
80906W        W52632   1.446  10.186  11.214
80907W        W52633  27.684  26.017   4.176
80908W        W52634  19.108   0.429   3.096
80909W        W52635   1.512   6.896  14.057
80910W        W52636  34.056  14.547  13.434
80911W        W52637  23.907   0.606   3.343
80912W        W52638   8.354  19.067  13.296
80913W        W52639  27.178   4.343   0.638
80914W        W52640  25.179  31.881   3.343
80915W        W52641  42.011  18.907   2.247
80916W        W52642   4.634  43.339   0.233
80917W        W52643  19.742  38.006  13.288
80918W        W52644   4.641  31.760  12.068
80919W        W52645  34.732  12.100  13.349
80920W        W52646  10.398  16.816  12.313
80921W        W52647  13.893   3.401  11.413
80922W        W52648  11.598   5.867  14.870
80923W        W52649  28.247  16.268   1.883
80924W        W52650   3.508  18.796  12.822
80925W        W52651   3.172  39.932  14.263
80926W        W52652  26.231  30.547  10.659
80927W        W52653  42.048   2.289   0.332
80928W        W52654  40.767  15.745  14.291
80929W        W52655  10.192   2.180   5.047
80930W        W52656   0.207  12.790  12.080
80931W        W52657  26.789  39.438  13.373
80932W        W52658  41.697   5.695  14.869
80933W        W52659   1.331  14.905   3.933
80934W        W52660  25.999  22.719   2.671
80935W        W52661  17.730   0.373  12.483
80936W        W52662  34.491   3.238  12.689
80937W        W52663  26.645  40.295  10.519
80938W        W52664  22.968  29.128   2.121
80939W        W52665  30.016  15.242   0.974
80940W        W52666  21.248   7.114  12.096
80941W        W52667  34.468  41.986  14.274
80942W        W52668  28.816   4.338   0.856
80943W        W52669  29.115   4.848  10.558
80944W        W52670   8.215  31.383  12.417
80945W        W52671   2.148  33.461  13.081
80946W        W52672  38.046  44.211   0.301
80947W        W52673  30.608   9.700   0.775
80948W        W52674  12.807  29.201  11.452
80949W        W52675   0.146  34.672   2.556
80950W        W52676  34.280  34.214  11.042
80951W        W52677  36.890  21.345  12.063
80952W        W52678   0.240  18.045  10.643
80953W        W52679  21.460  10.757   4.586
80954W        W52680   5.411  27.175  13.927
80955W        W52681  19.882  42.050  11.100
80956W        W52682  32.670   3.215   3.582
80957W        W52683  24.180   9.873   3.113
80958W        W52684   7.390  14.394   0.360
80959W        W52685   4.982  28.486   2.523
80960W        W52686   2.874  34.789   4.131
80961W        W52687  21.274  44.075  13.117
80962W        W52688  38.281  19.988  13.722
80963W        W52689  18.755  17.590  13.923
80964W        W52690  20.565  32.197  14.946
80965W        W52691   8.756  44.364   0.099
80966W        W52692   2.715  31.468   1.735
80967W        W52693  33.066  36.960  11.939
80968W        W52694  43.977   4.361   0.750
80969W        W52695  41.718   5.654  10.996
80970W        W52696  12.602   4.460   0.385
80971W        W52697   7.566  27.033   0.700
80972W        W52698   9.385  31.984  13.902
80973W        W52699  41.853  18.006   3.675
80974W        W52700  36.034  26.149  13.356
80975W        W52701  23.602  31.494  13.557
80976W        W52702  35.202  38.735  11.154
80977W        W52703  25.255   8.902   4.640
80978W        W52704  26.687  18.491  12.509
80979W        W52705  17.304   8.208   4.159
80980W        W52706  24.090  44.333  10.174
80981W        W52707  30.179  27.650  14.965
80982W        W52708   9.364  24.349  10.961
80983W        W52709  31.118  21.008   0.807
80984W        W52710  30.698  17.108  12.966
80985W        W52711   9.239  14.177   1.155
80986W        W52712  29.226   0.534  12.149
80987W        W52713  26.688  26.444   1.752
80988W        W52714   7.929   0.892  11.488
80989W        W52715  12.743  44.014  10.859
80990W        W52716  22.680  25.070  13.803
80991W        W52717  31.153  13.855  10.926
80992W        W52718  37.143  34.651   1.666
80993W        W52719  17.706  37.430   0.914
80994W        W52720  33.841  34.821   2.309
80995W        W52721  17.846  32.845   2.176
80996W        W52722  24.114  16.238   2.698
80997W        W52723  40.523  40.994   3.903
80998W        W52724  44.323  10.421  10.778
80999W        W52725   9.294  12.070   2.188
81000W        W52726  36.152   7.902   2.841
81001W        W52727   0.749  28.601  11.337
81002W        W52728  28.099  37.353   3.384
81003W        W52729   5.755  18.676   1.698
81004W        W52730  28.405  39.908  11.153
81005W        W52731  39.377  27.101   0.783
81006W        W52732  21.461  36.302   0.593
81007W        W52733  13.112  19.768  14.358
81008W        W52734   8.851  29.991   1.299
81009W        W52735  43.525  42.534   4.300
81010W        W52736  17.575  39.192   5.010
81011W        W52737  25.208  15.601  14.015
81012W        W52738   8.904  25.577   0.797
81013W        W52739  33.009  21.184  12.826
81014W        W52740  37.881   3.771   4.595
81015W        W52741   8.402  25.473   3.245
81016W        W52742  36.806  43.932   0.897
81017W        W52743  22.661   5.821   2.938
81018W        W52744  15.081  13.909  12.460
81019W        W52745  22.270  30.929  10.668
81020W        W52746  41.269   9.383   1.829
81021W        W52747  17.565  38.992   1.169
81022W        W52748  42.188  31.502  12.133
81023W        W52749   0.455   3.521  12.414
81024W        W52750  44.307  19.662   2.122
81025W        W52751  16.610  10.282   3.838
81026W        W52752  23.651  10.824  12.310
81027W        W52753   5.389  24.722   3.749
81028W        W52754  42.989   9.338  11.560
81029W        W52755  23.696  13.560  14.410
81030W        W52756  30.604  37.107   1.443
81031W        W52757  40.040  41.060   3.165
81032W        W52758  19.622  10.294   3.569
81033W        W52759  35.844  30.744   3.635
81034W        W52760  24.743  29.111  12.911
81035W        W52761   8.800  13.134   0.386
81036W        W52762  10.196  31.953  12.135
81037W        W52763  22.179   8.749  14.878
81038W        W52764   6.948   7.447   0.748
81039W        W52765  23.389   2.449   1.319
81040W        W52766   2.283  10.824   1.726
81041W        W52767   6.886  29.892   4.201
81042W        W52768  27.286  22.750  12.302
81043W        W52769  16.169   3.262  13.372
81044W        W52770  27.252  30.430  14.993
81045W        W52771   3.911  23.516   4.369
81046W        W52772  10.189  29.915  10.966
81047W        W52773   2.141  15.416  12.387
81048W        W52774  31.529   7.337   0.996
81049W        W52775  40.463  13.099  11.660
81050W        W52776  34.993  25.451  12.943
81051W        W52777  36.469  11.295  14.619
81052W        W52778  21.349  16.225   3.159
81053W        W52779   8.159  36.666   5.447
81054W        W52780  31.171  19.143   4.929
81055W        W52781  38.347  10.385  10.534
81056W        W52782  36.997  24.582   3.689
81057W        W52783  28.668  36.473   1.207
81058W        W52784  29.308  28.933   3.308
81059W        W52785  20.725   7.291   1.459
81060W        W52786   4.190  13.618   4.590
81061W        W52787  17.058  40.496  13.029
81062W        W52788   1.557   6.116  11.066
81063W        W52789   3.164   4.386   4.901
81064W        W52790  15.082  42.253   0.413
81065W        W52791  42.318   9.434  12.019
81066W        W52792  36.294  13.664  11.960
81067W        W52793  32.640  11.769   2.487
81068W        W52794   8.555  13.616  11.690
81069W        W52795   1.913  38.514  10.853
81070W        W52796  38.799  39.046  13.427
81071W        W52797  38.073  20.759   1.422
81072W        W52798  10.207  28.572   1.223
81073W        W52799  19.279  16.874  11.454
81074W        W52800  36.161  16.643  13.103
81075W        W52801   7.864  27.109  11.527
81076W        W52802  17.559  20.764  12.651
81077W        W52803  24.606  31.398  13.453
81078W        W52804   6.341  37.130   4.585
81079W        W52805  15.042  21.562   1.887
81080W        W52806  15.376  10.761   4.125
81081W        W52807   8.099  15.528   9.938
81082W        W52808  13.083  18.766  13.181
81083W        W52809  23.498   1.655   2.348
81084W        W52810  12.947  28.530  12.577
81085W        W52811  40.299   2.868   0.945
81086W        W52812  34.905  14.496   4.054
81087W        W52813  22.161  20.505   1.693
81088W        W52814  31.665  33.102   1.699
81089W        W52815  16.123  10.772  14.920
81090W        W52816  17.570   8.322  12.121
81091W        W52817  28.923  18.726   0.873
81092W        W52818  11.001  13.579   1.263
81093W        W52819  41.723  36.860  11.623
81094W        W52820  12.822  34.406  12.031
81095W        W52821  38.857  30.920  14.504
81096W        W52822  41.317   8.397  13.388
81097W        W52823  20.809  21.887   1.421
81098W        W52824  14.167  39.412   1.487
81099W        W52825  34.967  31.004  12.457
81100W        W52826  24.320  42.074   1.711
81101W        W52827   7.245  10.321  12.657
81102W        W52828   9.596  32.203  12.428
81103W        W52829  41.441   5.322  11.899
81104W        W52830   7.158  17.911   4.205
81105W        W52831  20.840  13.615  10.546
81106W        W52832  33.837   2.901   1.225
81107W        W52833  30.694  15.798   1.245
81108W        W52834   1.562  17.591  13.881
81109W        W52835  10.720  18.068  13.480
81110W        W52836  36.469  35.333   3.123
81111W        W52837  14.823  18.264   0.824
81112W        W52838  39.350  16.897  12.472
81113W        W52839   6.399  16.357   2.753
81114W        W52840  27.143  15.539  14.893
81115W        W52841  21.629  27.912  10.494
81116W        W52842  15.251   3.178   3.760
81117W        W52843   2.511  38.913  12.865
81118W        W52844  15.733  25.638  13.888
81119W        W52845   6.353  41.867   0.332
81120W        W52846  18.381  38.296   1.103
81121W        W52847  19.118  44.675  13.355
81122W        W52848   0.277   9.330   2.484
81123W        W52849  13.783  37.988  11.436
81124W        W52850   0.764  24.146   3.883
81125W        W52851  27.158  38.261  13.978
81126W        W52852  28.705  18.941  13.830
81127W        W52853  11.656  35.536  12.585
81128W        W52854  20.024  12.342   1.240
81129W        W52855  11.688  10.684   0.822
81130W        W52856  34.996  12.800  10.343
81131W        W52857  24.754  39.439  12.065
81132W        W52858  41.461  16.720   3.465
81133W        W52859   3.277  24.523   4.639
81134W        W52860  10.649  33.495  10.547
81135W        W52861  44.356  43.577   4.032
81136W        W52862  44.558  22.026  10.324
81137W        W52863  32.518  29.174   2.888
81138W        W52864  22.972  36.718   3.280
81139W        W52865  11.086  43.338  11.568
81140W        W52866   7.409   4.376   5.522
81141W        W52867   7.618  34.401   0.329
81142W        W52868  29.447  26.160  10.524
81143W        W52869  37.450  29.386   3.175
81144W        W52870  12.792   5.323   2.444
81145W        W52871  25.689  27.115   3.167
81146W        W52872   5.362   3.301  11.640
81147W        W52873  32.866  14.413  14.480
81148W        W52874   9.354  17.005   3.004
81149W        W52875  27.048  39.981   0.788
81150W        W52876   3.901  39.549   2.569
81151W        W52877  20.235   4.306   4.687
81152W        W52878  35.465   6.959   4.598
81153W        W52879  24.612  30.926  12.481
81154W        W52880  27.704  28.615  11.424
81155W        W52881  19.853  12.920   3.314
81156W        W52882  21.798  14.888  10.187
81157W        W52883  25.951  40.850  12.923
81158W        W52884  15.090  10.532   0.094
81159W        W52885  42.266  39.776  13.542
81160W        W52886  30.452   9.849   0.279
81161W        W52887   9.619  30.603   4.285
81162W        W52888  11.387   2.745  10.665
81163W        W52889  28.562  43.799  14.412
81164W        W52890   8.245  22.308  11.869
81165W        W52891  17.225  16.742   4.180
81166W        W52892   2.497  33.386   2.201
81167W        W52893   6.586  24.913  10.449
81168W        W52894  28.742  19.492  13.836
81169W        W52895  26.385  19.531  13.842
81170W        W52896   0.256   0.402  14.832
81171W        W52897   3.311   3.490   3.352
81172W        W52898  18.713   8.631   4.119
81173W        W52899  30.086   4.323   4.633
81174W        W52900  40.503   0.717  12.545
81175W        W52901  20.020  11.965  12.569
81176W        W52902  32.991  10.163  12.025
81177W        W52903   7.253  10.338  12.149
81178W        W52904  19.945  14.095   0.851
81179W        W52905  26.119  15.578   4.154
81180W        W52906   4.366  31.567  10.746
81181W        W52907   6.853  16.817  11.512
81182W        W52908   7.109  14.652  11.949
81183W        W52909   2.865  10.421   0.359
81184W        W52910   4.672  11.230   3.778
81185W        W52911   1.746  21.280   0.961
81186W        W52912  27.239  22.538   4.510
81187W        W52913  35.408  29.993  12.129
81188W        W52914  19.064  44.182   3.661
81189W        W52915  33.366  21.979  11.136
81190W        W52916   8.655  33.088   1.357
81191W        W52917  33.296   6.070   1.669
81192W        W52918  20.088  40.580   0.972
81193W        W52919  36.561  23.745  11.989
81194W        W52920  17.690  30.554  10.965
81195W        W52921  38.458   9.907  10.745
81196W        W52922  35.874  25.899   4.160
81197W        W52923   9.065   9.838   0.346
81198W        W52924  15.634  15.184  12.171
81199W        W52925  24.325  29.349   2.673
81200W        W52926  34.515   4.788  12.545
81201W        W52927  18.080  21.450  13.278
81202W        W52928  25.786  16.301   3.123
81203W        W52929  14.340  16.748   4.186
81204W        W52930  38.008  32.311  10.634
81205W        W52931  12.883   9.628   3.299
81206W        W52932   1.294   0.247  13.453
81207W        W52933  17.640  25.721  12.619
81208W        W52934   3.706  18.800   1.683
81209W        W52935   1.962  44.794   2.151
81210W        W52936  30.496  29.998  12.635
81211W        W52937  31.222  38.529  13.981
81212W        W52938  22.600  32.012  11.502
81213W        W52939  28.040  12.706  13.870
81214W        W52940   1.913   6.935  14.863
81215W        W52941   6.370  12.547   5.300
81216W        W52942  41.833  35.927  12.477
81217W        W52943   2.813  15.580   2.690
81218W        W52944  19.606  13.695  13.840
81219W        W52945  29.622  33.878   3.508
81220W        W52946  26.664   3.280  10.360
81221W        W52947  40.954  39.049  13.815
81222W        W52948  44.944   0.301  12.532
81223W        W52949  28.987  34.496   1.175
81224W        W52950  41.347  40.145  10.418
81225W        W52951  38.908  25.967  13.318
81226W        W52952  10.791   4.623  14.880
81227W        W52953  17.539  31.992   4.899
81228W        W52954  32.537  16.962   2.602
81229W        W52955  23.610  25.608   4.348
81230W        W52956  30.380  14.399   1.788
81231W        W52957  34.883  17.649   1.037
81232W        W52958  37.321  28.171   2.301
81233W        W52959  10.872  40.468  11.483
81234W        W52960  10.209  16.080   2.741
81235W        W52961   2.324  14.342   1.382
81236W        W52962  21.614  36.813  14.748
81237W        W52963   3.210  44.454   0.218
81238W        W52964  14.877  24.908   4.160
81239W        W52965   7.768  24.919  12.517
81240W        W52966  31.684  10.728  13.757
81241W        W52967  14.738   4.373  13.311
81242W        W52968   9.307  16.868  14.450
81243W        W52969  35.831   4.942  11.139
81244W        W52970  21.075   9.368  12.663
81245W        W52971  43.960   9.098   2.751
81246W        W52972  12.484  19.476  10.765
81247W        W52973  32.218   7.351  13.983
81248W        W52974  36.359  33.923   3.298
81249W        W52975  44.757   0.927   4.120
81250W        W52976   0.451  32.975   3.625
81251W        W52977   7.240  18.114  14.370
81252W        W52978  16.271  30.520  13.366
81253W        W52979  34.377  35.466   2.470
81254W        W52980  14.999  39.093   4.190
81255W        W52981  21.613  29.056  14.256
81256W        W52982   0.454   6.770   4.643
81257W        W52983  44.455   3.687  11.148
81258W        W52984  21.249  12.381   1.739
81259W        W52985  24.247  15.688  12.877
81260W        W52986  18.746  44.125  13.090
81261W        W52987  21.566  27.130   1.847
81262W        W52988  31.153  19.083   3.205
81263W        W52989  38.502  32.141  14.121
81264W        W52990  33.151  31.381   0.787
81265W        W52991  20.060  24.167   2.269
81266W        W52992   1.009  35.831  14.424
81267W        W52993  37.548  11.913   4.528
81268W        W52994  21.426  11.708   4.583
81269W        W52995  25.179  36.396  10.474
81270W        W52996  21.752   8.339  14.385
81271W        W52997  31.582  17.744   1.265
81272W        W52998  28.946  44.981   2.273
81273W        W52999  43.488  13.355  13.141
81274W        W53000  36.077  33.617  11.425
81275W        W53001  33.463  25.311   0.012
81276W        W53002  26.593  40.599  13.911
81277W        W53003   4.850  17.996   2.760
81278W        W53004  35.621  44.532  11.542
81279W        W53005  33.328  30.595  11.620
81280W        W53006   1.426   7.689   0.054
81281W        W53007  15.655  37.375  13.522
81282W        W53008  41.500  32.409  12.341
81283W        W53009  34.039   8.694   2.568
81284W        W53010  36.210  14.313   3.654
81285W        W53011   7.620  15.998  10.429
81286W        W53012  43.725  12.366  11.274
81287W        W53013  44.830  17.642  13.786
81288W        W53014   6.326  13.679  11.119
81289W        W53015  22.577  29.528   3.109
81290W        W53016  38.814  12.201  13.517
81291W        W53017   8.191   9.651   3.601
81292W        W53018  23.063  20.554   1.656
81293W        W53019  23.731  12.817   2.720
81294W        W53020  23.043  14.037   3.702
81295W        W53021  28.152  29.441  13.583
81296W        W53022  22.979  23.109   0.805
81297W        W53023   5.303  37.441   2.848
81298W        W53024  30.315  21.559   0.732
81299W        W53025  43.740  28.777   1.572
81300W        W53026   9.235  34.833  12.663
81301W        W53027  24.983   2.365  12.600
81302W        W53028  37.914  16.608   3.519
81303W        W53029  19.065  29.140   4.745
81304W        W53030  22.191  35.805  14.782
81305W        W53031  29.146  26.743   4.638
81306W        W53032  14.224   9.300  11.246
81307W        W53033  14.835  24.576   4.538
81308W        W53034   4.321   8.348  11.979
81309W        W53035   9.425  39.287  12.078
81310W        W53036  19.789  25.626   3.027
81311W        W53037  39.052  14.027  14.020
81312W        W53038  11.325  43.738   3.203
81313W        W53039  39.611  33.599  11.871
81314W        W53040  32.858  34.334  10.740
81315W        W53041  21.732  31.934  10.600
81316W        W53042  33.100  32.561  10.387
81317W        W53043  40.711  30.310  12.518
81318W        W53044   3.377  27.188   1.739
81319W        W53045  44.608  37.263  10.290
81320W        W53046  44.539  28.420   4.722
81321W        W53047  42.201  43.347   2.112
81322W        W53048  19.725  18.615   2.171
81323W        W53049  40.778  43.949   4.114
81324W        W53050  44.218  35.936  14.967
81325W        W53051   0.435   6.213  14.871
81326W        W53052   7.307   6.743   2.841
81327W        W53053   5.505  34.537  12.840
81328W        W53054   2.645  34.978   1.754
81329W        W53055  44.441  12.271  11.124
81330W        W53056  29.791   8.957   2.210
81331W        W53057  36.243  10.495   0.993
81332W        W53058  23.666  42.231   2.779
81333W        W53059  33.459  23.278  12.566
81334W        W53060  31.117  23.608   9.777
81335W        W53061  44.197  32.346   2.525
81336W        W53062   5.401  14.731   2.303
81337W        W53063  39.817  19.167   2.424
81338W        W53064  20.759  14.268   1.833
81339W        W53065  17.191   0.747  14.801
81340W        W53066  20.382  28.963   2.853
81341W        W53067  27.171  20.523   4.652
81342W        W53068  43.721   9.426  14.951
81343W        W53069  10.026  20.009   4.247
81344W        W53070  27.074   8.175  12.429
81345W        W53071  15.775  30.698  14.836
81346W        W53072  24.195  20.517  12.029
81347W        W53073  10.766   0.565   4.965
81348W        W53074  10.349  37.951  10.342
81349W        W53075   1.941   0.287  12.905
81350W        W53076  11.946   3.955   3.197
81351W        W53077  32.333  18.135  12.408
81352W        W53078   0.012   0.352   4.263
81353W        W53079  44.120  19.609   4.016
81354W        W53080  24.558  39.253  14.015
81355W        W53081  40.499  27.247   0.960
81356W        W53082  35.651  18.397   0.011
81357W        W53083  22.953   8.861  11.523
81358W        W53084  26.291  29.914  13.966
81359W        W53085  36.627  12.767  13.579
81360W        W53086  20.790  19.144   0.374
81361W        W53087   8.545  23.114  14.348
81362W        W53088  37.843  31.032  11.038
81363W        W53089  28.963  35.916   0.538
81364W        W53090  21.998  29.608  11.783
81365W        W53091   5.286  43.224   3.039
81366W        W53092  34.367  16.316  14.374
81367W        W53093  37.125  19.494  10.205
81368W        W53094   4.977  28.482  12.418
81369W        W53095  27.434  32.656   1.847
81370W        W53096  43.447  40.462   4.190
81371W        W53097   8.903  12.337   2.514
81372W        W53098  28.890  17.655   3.356
81373W        W53099  28.471  33.623   1.468
81374W        W53100  25.060  41.752  14.331
81375W        W53101  17.216   9.819   4.069
81376W        W53102  31.511   0.589   2.770
81377W        W53103  25.298  10.634   4.237
81378W        W53104  15.252  39.985   0.911
81379W        W53105   1.928  31.606   0.492
81380W        W53106  18.541  16.042   2.255
81381W        W53107  29.186  14.088   1.346
81382W        W53108  40.104  30.032   1.240
81383W        W53109  13.550   8.402  10.782
81384W        W53110  38.076  27.612  14.010
81385W        W53111  34.183   5.392   4.583
81386W        W53112  37.658  42.370   4.127
81387W        W53113   0.256   6.294  13.971
81388W        W53114  11.591  15.998   0.023
81389W        W53115   2.474  11.373  11.126
81390W        W53116  28.769  37.621   5.030
81391W        W53117  36.063   5.705  11.957
81392W        W53118   1.544   1.995   1.198
81393W        W53119  18.065  26.202  14.790
81394W        W53120  17.569   2.941   2.009
81395W        W53121   5.186  40.894  11.163
81396W        W53122  13.136  24.023  13.997
81397W        W53123  15.286  19.481   4.394
81398W        W53124  40.545  34.509  14.479
81399W        W53125  25.339   0.064   0.981
81400W        W53126  30.810  43.415   3.272
81401W        W53127  16.962  32.598  11.099
81402W        W53128   5.921  10.305  10.975
81403W        W53129  12.692  20.028   0.012
81404W        W53130  12.009  26.882   3.731
81405W        W53131   5.024  19.251   0.359
81406W        W53132  18.063  27.461  13.734
81407W        W53133  33.327  33.211   5.196
81408W        W53134  10.439  23.604  13.027
81409W        W53135   4.192  20.898  14.190
81410W        W53136   8.693  21.443  11.999
81411W        W53137  21.855  24.776   0.507
81412W        W53138   1.294  29.887   0.701
81413W        W53139  26.588   3.733  12.123
81414W        W53140  44.284  14.585  12.480
81415W        W53141  17.051   5.778  14.995
81416W        W53142  28.986  38.858  14.911
81417W        W53143  10.989   1.788  14.489
81418W        W53144   2.383  26.439  13.019
81419W        W53145  32.510  44.301   4.254
81420W        W53146   3.714  13.583   4.409
81421W        W53147  30.026  31.049  13.958
81422W        W53148  28.925   2.882  13.064
81423W        W53149  19.734  18.709   1.651
81424W        W53150   9.546  14.128  13.946
81425W        W53151  31.621  44.823   4.218
81426W        W53152  26.058  19.447  11.526
81427W        W53153  24.098  38.095   1.504
81428W        W53154  19.121  28.961   1.338
81429W        W53155  35.505  41.539  10.965
81430W        W53156  39.491   6.735  12.147
81431W        W53157  39.532  31.378   4.739
81432W        W53158  22.742  21.000  13.470
81433W        W53159  42.886   5.942  14.351
81434W        W53160  18.663  40.603  12.006
81435W        W53161  34.151  11.161  12.104
81436W        W53162  36.032  38.614   1.275
81437W        W53163  32.801  13.114  13.801
81438W        W53164  20.055  23.628  12.386
81439W        W53165   1.306  44.926  12.555
81440W        W53166  30.452  17.170   1.334
81441W        W53167   8.056  38.713   3.657
81442W        W53168   8.889   6.569  12.899
81443W        W53169  36.108  20.804  11.674
81444W        W53170  37.367  44.798   0.928
81445W        W53171   9.187  19.349  12.878
81446W        W53172  41.526  29.116   2.714
81447W        W53173  34.978  11.500   4.133
81448W        W53174   5.968  26.528  12.577
81449W        W53175  28.697   3.996   3.350
81450W        W53176   5.284  34.979  10.593
81451W        W53177  30.181  38.128   4.473
81452W        W53178  26.335   2.700  12.066
81453W        W53179  19.144   8.888  10.968
81454W        W53180  40.638  16.086   3.368
81455W        W53181  28.247  39.884  11.640
81456W        W53182  10.720  43.592   0.192
81457W        W53183   8.596  27.714   4.316
81458W        W53184  17.257   2.053  11.599
81459W        W53185   6.262  43.540  14.904
81460W        W53186  35.602  11.620  13.393
81461W        W53187   6.639  44.384  12.087
81462W        W53188  18.093  28.060  14.462
81463W        W53189  35.833  36.355   1.005
81464W        W53190  38.785  32.949  10.176
81465W        W53191  30.050  41.219  12.765
81466W        W53192  37.936  22.263   0.899
81467W        W53193  24.098  16.138  13.679
81468W        W53194   7.309  35.164  12.034
81469W        W53195  33.038  25.566   9.870
81470W        W53196  14.228  13.051  14.717
81471W        W53197   9.665  38.203  14.911
81472W        W53198  25.670  14.131   1.377
81473W        W53199   0.288   6.712  12.048
81474W        W53200  15.997  43.331   3.211
81475W        W53201  19.759  44.270  11.136
81476W        W53202   8.403  20.019   1.842
81477W        W53203  32.416  38.447  14.827
81478W        W53204  44.330  37.154  12.516
81479W        W53205  29.430  12.662  12.056
81480W        W53206  32.088  14.111   2.683
81481W        W53207   7.310  33.631   0.626
81482W        W53208  19.648  22.094  10.696
81483W        W53209  32.107   4.901   4.060
81484W        W53210  11.137   2.305  11.630
81485W        W53211  33.988   9.645   1.803
81486W        W53212  12.069  11.952   4.630
81487W        W53213   3.877  41.423  11.771
81488W        W53214  15.641  33.966   1.278
81489W        W53215   9.859  23.328  12.225
81490W        W53216   6.961  39.351  12.903
81491W        W53217   9.845  38.036  14.459
81492W        W53218  19.135  14.629   1.981
81493W        W53219  18.832  10.737   4.971
81494W        W53220  12.026  39.087  11.158
81495W        W53221   9.382  40.512  12.379
81496W        W53222  23.083   9.382  10.338
81497W        W53223   8.212  17.055   2.797
81498W        W53224  18.214  32.904  14.007
81499W        W53225  28.661  28.656  12.924
81500W        W53226   6.245  43.403  10.960
81501W        W53227  23.657  36.070  11.353
81502W        W53228  28.376  12.220   0.205
81503W        W53229   9.236  21.398  12.728
81504W        W53230  31.544   8.591   1.871
81505W        W53231  40.474  39.356   0.656
81506W        W53232  38.430   4.923   4.650
81507W        W53233   5.515  34.615   1.351
81508W        W53234  15.429   0.866   1.424
81509W        W53235   0.261   8.228  14.897
81510W        W53236  14.818  40.765   3.883
81511W        W53237  24.572  21.677  10.807
81512W        W53238  17.957   7.563  11.473
81513W        W53239  42.933  19.961  13.850
81514W        W53240  42.400   6.320   0.968
81515W        W53241  35.533  18.898  14.864
81516W        W53242   8.641  34.207   9.894
81517W        W53243  14.860  40.089  13.531
81518W        W53244   2.562  12.825  10.760
81519W        W53245  39.981   2.982  14.327
81520W        W53246  33.525   9.977  13.891
81521W        W53247  15.656  37.596   2.759
81522W        W53248  15.628  18.644   0.331
81523W        W53249   2.902  29.661   0.604
81524W        W53250  18.835  22.611   5.079
81525W        W53251  16.750  43.822   0.802
81526W        W53252  32.360  34.312  13.946
81527W        W53253  31.604   2.880   2.288
81528W        W53254   7.111  29.092   1.316
81529W        W53255  12.631  41.934   4.731
81530W        W53256  20.036  30.893   1.723
81531W        W53257   1.934  12.276   2.256
81532W        W53258  29.959  28.081  11.669
81533W        W53259  28.836  28.429  12.071
81534W        W53260  32.863   2.032  11.171
81535W        W53261  15.943  34.324   4.108
81536W        W53262  32.997   1.412   1.907
81537W        W53263   9.181   9.639   4.592
81538W        W53264  10.780  32.246   1.266
81539W        W53265  10.464   3.850   3.364
81540W        W53266  10.180  26.904   4.636
81541W        W53267  26.082   1.288   4.519
81542W        W53268  21.633  31.442  10.735
81543W        W53269   3.326  28.560  14.316
81544W        W53270  22.708  42.557  13.046
81545W        W53271  15.985   2.836  13.627
81546W        W53272  16.119  29.199  10.758
81547W        W53273  22.644  15.439   5.161
81548W        W53274  40.681  31.115   1.955
81549W        W53275  13.498  12.078   4.615
81550W        W53276  41.387  19.189   0.945
81551W        W53277  37.291   5.763   2.237
81552W        W53278  22.116  29.622  13.739
81553W        W53279  43.930  36.006   3.793
81554W        W53280  22.801  27.502  11.000
81555W        W53281  40.935  39.477   0.103
81556W        W53282  37.354  43.753   4.054
81557W        W53283  32.346  14.976  11.142
81558W        W53284  17.709  30.077  13.456
81559W        W53285  27.407  37.052   2.775
81560W        W53286  14.651  19.513   4.620
81561W        W53287  14.414  41.518  14.252
81562W        W53288  40.068   5.281   0.553
81563W        W53289   4.803  18.545  11.781
81564W        W53290   6.757   8.276   3.093
81565W        W53291   6.932   8.881   4.769
81566W        W53292  31.454  32.148   2.641
81567W        W53293  36.047   0.856   4.507
81568W        W53294  22.504  42.064   3.262
81569W        W53295  30.712   8.885  13.620
81570W        W53296  13.711  14.977   3.719
81571W        W53297  44.001  43.502   3.180
81572W        W53298  32.574  34.822   0.488
81573W        W53299  15.732  28.984  13.449
81574W        W53300  21.741   5.277   1.411
81575W        W53301  31.964  21.631  11.691
81576W        W53302  41.255  16.805  12.383
81577W        W53303  29.490  36.439   3.681
81578W        W53304  31.983  20.974   0.699
81579W        W53305  43.373  13.562   0.932
81580W        W53306  16.628  10.899  12.051
81581W        W53307  26.677  44.789  12.952
81582W        W53308  19.461  40.454   5.085
81583W        W53309   7.429  30.099  13.062
81584W        W53310  10.627  28.484   3.486
81585W        W53311  32.108   3.356   2.838
81586W        W53312   5.377  21.200   0.049
81587W        W53313  27.009  29.970   0.848
81588W        W53314  22.999  16.630   3.153
81589W        W53315   1.284   2.683  13.659
81590W        W53316  33.369  21.965   4.604
81591W        W53317  37.017   8.834  12.108
81592W        W53318   7.117  15.192   5.396
81593W        W53319   9.447  19.196   1.297
81594W        W53320  35.650  42.842   0.247
81595W        W53321  42.570  31.169  12.186
81596W        W53322  14.010   4.841  14.300
81597W        W53323  10.679   8.794   3.719
81598W        W53324   7.329   2.888  13.965
81599W        W53325  19.594  44.724   0.002
81600W        W53326   5.561  14.256   5.024
81601W        W53327  19.145  31.504   0.921
81602W        W53328  24.764  37.136   2.894
81603W        W53329   0.191   8.883  12.209
81604W        W53330  11.350  42.529   4.134
81605W        W53331  38.563  20.736  14.959
81606W        W53332  29.228  16.962  14.987
81607W        W53333   8.282  38.432   0.767
81608W        W53334  37.630  41.048  13.576
81609W        W53335  26.875  21.086  10.615
81610W        W53336  32.547  22.394   0.769
81611W        W53337  35.531  17.271  14.498
81612W        W53338   4.757  35.023   2.454
81613W        W53339  40.225  19.197   2.750
81614W        W53340  12.673  18.119  13.513
81615W        W53341  27.494  36.120   1.004
81616W        W53342  12.348  19.533  11.523
81617W        W53343  26.741  33.004  11.647
81618W        W53344  13.685  43.155   4.208
81619W        W53345  37.100  15.676  13.069
81620W        W53346  30.982  15.664   0.420
81621W        W53347  29.273  17.609   3.714
81622W        W53348  36.051  32.130  10.762
81623W        W53349  35.014  19.232   3.386
81624W        W53350   3.838  27.558   3.218
81625W        W53351  22.552  31.858  13.717
81626W        W53352  40.044  36.833  12.120
81627W        W53353  36.887  16.314  13.847
81628W        W53354  42.759  11.243  11.455
81629W        W53355  30.486  30.588   4.205
81630W        W53356   6.757  34.655   0.017
81631W        W53357  11.156  10.039  10.675
81632W        W53358  33.843  25.704   0.060
81633W        W53359  11.895  36.082   0.671
81634W        W53360  42.745  36.029  12.350
81635W        W53361  24.874  35.006   3.362
81636W        W53362  30.588  18.177  12.189
81637W        W53363  16.048  37.102   1.760
81638W        W53364  32.133  39.399  13.391
81639W        W53365  37.611  33.853  14.031
81640W        W53366   7.663  35.632   0.724
81641W        W53367   8.161  27.056  13.487
81642W        W53368  17.610   2.933  13.834
81643W        W53369  32.521  31.776  14.248
81644W        W53370  25.089  24.229   4.296
81645W        W53371  25.879  39.021   1.264
81646W        W53372  12.643   2.721   4.362
81647W        W53373  16.786  10.033   4.269
81648W        W53374  10.658  25.404  14.645
81649W        W53375  12.847  42.421   4.885
81650W        W53376   9.279  37.607   1.381
81651W        W53377  26.697  10.306  11.429
81652W        W53378  42.260  14.346  13.353
81653W        W53379   1.746  19.728  11.912
81654W        W53380  27.929  38.861  11.105
81655W        W53381  42.049  31.195  10.581
81656W        W53382  25.309  32.157  14.504
81657W        W53383  34.436  28.546   4.645
81658W        W53384   3.715  24.525  13.315
81659W        W53385  41.566  34.544  11.637
81660W        W53386  27.357  33.354  10.055
81661W        W53387  25.046  40.314   0.733
81662W        W53388  40.813  30.944   3.463
81663W        W53389  24.735   8.377   2.026
81664W        W53390   4.997   4.995   2.374
81665W        W53391  19.547  38.512   2.006
81666W        W53392  35.076  35.351  12.432
81667W        W53393  28.637  41.797   1.668
81668W        W53394  44.242  11.153   3.742
81669W        W53395  34.906   8.342   2.909
81670W        W53396  22.486  14.734  14.961
81671W        W53397  29.022  24.632   2.014
81672W        W53398  43.409   5.367  13.266
81673W        W53399  14.610  21.036  12.278
81674W        W53400  24.336  30.980  13.589
81675W        W53401  28.517  37.222  11.479
81676W        W53402  35.351  42.529   1.299
81677W        W53403  16.827  17.542   4.931
81678W        W53404  37.376   2.394  14.269
81679W        W53405  17.331  15.291  13.924
81680W        W53406  17.709  21.771  14.457
81681W        W53407  21.785   0.920  12.518
81682W        W53408   9.850   6.611   0.697
81683W        W53409  31.804  27.490   5.051
81684W        W53410  37.887  13.382  10.721
81685W        W53411  38.409  31.932  11.690
81686W        W53412  24.559  23.513  12.635
81687W        W53413  37.984  33.097   4.967
81688W        W53414  40.636  13.284  11.215
81689W        W53415  31.907  12.663  11.395
81690W        W53416  18.296  27.454   2.626
81691W        W53417  37.551  34.155   2.266
81692W        W53418  38.806   0.500   1.695
81693W        W53419  27.594  39.340   3.648
81694W        W53420  43.237  33.945   0.014
81695W        W53421   4.560  10.139  14.209
81696W        W53422   1.773  43.285  10.646
81697W        W53423  18.715  39.055  12.170
81698W        W53424   7.375   6.766   0.501
81699W        W53425  41.070   6.133  14.239
81700W        W53426   2.777  20.160  12.576
81701W        W53427  19.420  43.974   3.178
81702W        W53428  37.434   0.407  12.125
81703W        W53429  13.739   5.144  11.388
81704W        W53430  24.932  33.955   0.801
81705W        W53431  39.803  41.508   3.091
81706W        W53432  23.739   7.256   1.516
81707W        W53433  38.853   4.623   2.364
81708W        W53434  23.076  44.262   4.218
81709W        W53435  41.849  38.605   3.888
81710W        W53436  32.521  43.997   2.834
81711W        W53437  24.264  14.412   1.483
81712W        W53438  24.683  28.810  12.419
81713W        W53439   8.885  29.377   4.630
81714W        W53440   6.419   4.522  13.880
81715W        W53441   7.819  24.560  11.482
81716W        W53442  29.775  42.954  12.913
81717W        W53443   5.192   9.839   4.132
81718W        W53444  16.655  29.458  11.919
81719W        W53445  25.699  13.104   0.481
81720W        W53446  35.313  23.462  11.892
81721W        W53447  22.602  37.592  13.766
81722W        W53448   1.738  29.652   1.918
81723W        W53449   9.646  35.421   3.663
81724W        W53450   4.714   4.967  13.531
81725W        W53451  36.503  35.171   0.780
81726W        W53452  21.444  16.911  13.616
81727W        W53453  10.408  40.911   1.757
81728W        W53454  13.896  14.402  10.970
81729W        W53455  31.172  23.386   2.852
81730W        W53456  37.946  31.841  10.442
81731W        W53457   5.345  26.352  11.429
81732W        W53458  33.881  38.940  12.130
81733W        W53459  44.733  40.895  13.059
81734W        W53460   7.698  19.039   1.842
81735W        W53461  38.050  18.283   1.982
81736W        W53462  14.565  22.739   2.731
81737W        W53463  24.567  28.235  11.114
81738W        W53464  38.168  13.516  11.134
81739W        W53465  42.025  23.701   4.737
81740W        W53466  44.851  12.280  13.395
81741W        W53467  40.767  22.595  12.409
81742W        W53468  14.665  15.016   4.655
81743W        W53469   8.959  16.881   0.839
81744W        W53470  35.246  22.172  14.862
81745W        W53471   8.479   2.104   1.476
81746W        W53472  44.820  37.597   3.290
81747W        W53473  42.889  30.608   4.363
81748W        W53474  16.549   5.617  13.127
81749W        W53475   5.799  34.045  14.697
81750W        W53476  38.479   1.892  11.660
81751W        W53477  41.512  44.449  13.123
81752W        W53478  38.780  33.642  12.274
81753W        W53479   8.740  40.103  11.154
81754W        W53480  32.515  29.670  10.676
81755W        W53481  14.118  31.003   4.665
81756W        W53482  38.032  16.285  11.224
81757W        W53483  18.530  17.798   0.337
81758W        W53484  12.251  27.744   3.393
81759W        W53485  34.158  18.832  13.904
81760W        W53486  15.786  27.660  14.848
81761W        W53487  31.577   9.988   2.833
81762W        W53488   1.755   1.744  12.717
81763W        W53489   6.473  38.501   1.693
81764W        W53490  26.600  39.864  10.800
81765W        W53491  37.588  18.846   0.348
81766W        W53492  11.908  22.411  14.003
81767W        W53493  19.431  44.457   3.403
81768W        W53494  40.374   3.987   1.776
81769W        W53495  30.377  21.356   2.031
81770W        W53496  20.006  38.322   1.766
81771W        W53497  42.374  16.317   1.450
81772W        W53498   6.711  27.751   1.232
81773W        W53499  43.963  40.557  10.599
81774W        W53500  23.084  14.949   4.536
81775W        W53501   5.797  17.069   4.065
81776W        W53502  20.458  21.752   2.693
81777W        W53503  32.985   8.318   0.540
81778W        W53504   5.519  11.995  13.135
81779W        W53505   5.940  38.482  14.928
81780W        W53506  37.319   8.093   2.369
81781W        W53507  31.171  42.111   1.193
81782W        W53508  18.679  21.698   2.406
81783W        W53509   0.775  28.620   1.857
81784W        W53510  38.384   2.869   4.767
81785W        W53511  20.143  17.769  12.074
81786W        W53512  14.608  10.299  11.454
81787W        W53513  25.086  41.423   0.778
81788W        W53514  26.856  18.173   1.303
81789W        W53515  35.834  40.307  12.122
81790W        W53516   3.900  16.162  11.264
81791W        W53517  22.544  21.884   1.809
81792W        W53518  40.492  44.195   3.737
81793W        W53519  24.073  17.504   3.588
81794W        W53520  20.290  25.889  13.480
81795W        W53521   5.642   7.972  10.566
81796W        W53522  14.583  16.167  12.353
81797W        W53523   9.807  44.959  13.053
81798W        W53524   7.677  21.386   4.980
81799W        W53525  41.408  21.019   2.735
81800W        W53526  29.875   1.699   3.319
81801W        W53527  13.680   2.796   0.013
81802W        W53528   5.888  16.488  14.452
81803W        W53529  10.295  17.859   1.196
81804W        W53530   4.296  14.695   4.744
81805W        W53531  22.622   9.220   2.312
81806W        W53532  34.118   4.261  14.374
81807W        W53533  14.510  14.829  11.666
81808W        W53534   8.804  20.851   4.110
81809W        W53535  20.875  21.326   1.889
81810W        W53536   4.803  25.754   1.870
81811W        W53537  27.606  44.001  11.968
81812W        W53538  34.513  23.807   4.119
81813W        W53539  12.218  35.873  14.751
81814W        W53540  18.156  13.046  12.975
81815W        W53541  25.559  21.676   0.769
81816W        W53542  28.229  43.073  14.816
81817W        W53543  44.378  17.086  11.342
81818W        W53544  20.801   7.579  11.626
81819W        W53545   6.351  32.960   4.516
81820W        W53546  22.890  26.046   5.000
81821W        W53547  43.464  30.814   0.416
81822W        W53548  39.014  43.146  10.303
81823W        W53549   9.128  37.078   2.748
81824W        W53550   4.425  29.354   4.793
81825W        W53551  41.459  19.573   1.322
81826W        W53552  10.193   3.743   2.344
81827W        W53553  13.327  29.981   4.256
81828W        W53554  33.680   3.443   4.657
81829W        W53555  37.394  11.209  10.938
81830W        W53556  29.489  38.142   0.856
81831W        W53557  33.644   6.384   0.817
81832W        W53558  24.558  43.582  10.495
81833W        W53559  30.842  26.674   9.781
81834W        W53560  15.283  36.578   4.751
81835W        W53561  10.311   0.708  13.053
81836W        W53562  19.737   6.839   4.112
81837W        W53563   6.007  38.095   4.312
81838W        W53564  25.891  31.049   1.340
81839W        W53565   7.708  35.285   2.688
81840W        W53566   5.916  13.410   0.859
81841W        W53567  12.822  21.013   4.067
81842W        W53568  30.403  41.886  13.285
81843W        W53569   4.237  42.556  11.040
81844W        W53570  14.631   0.819   1.219
81845W        W53571  33.300  24.778  14.950
81846W        W53572  30.323  25.988  14.043
81847W        W53573  35.632  21.307   3.094
81848W        W53574  39.442  23.268   1.406
81849W        W53575  39.111  25.852   4.900
81850W        W53576  26.055  29.722   1.388
81851W        W53577   2.804  29.914  12.119
81852W        W53578  21.061  17.182   2.143
81853W        W53579   2.704   3.427   0.482
81854W        W53580  37.899  21.498   3.665
81855W        W53581  39.654  22.730   1.996
81856W        W53582  28.461  28.636   4.783
81857W        W53583   5.662  10.753   2.789
81858W        W53584  20.194   0.775   1.833
81859W        W53585  21.229   0.886   4.451
81860W        W53586  43.517  44.533   4.255
81861W        W53587  22.948  11.496   4.301
81862W        W53588  23.654  34.891  14.684
81863W        W53589  22.775   8.456   0.324
81864W        W53590  35.454   1.037   1.808
81865W        W53591  41.764  26.431  14.921
81866W        W53592  41.662  32.606  10.953
81867W        W53593  16.763  30.511   0.498
81868W        W53594  22.547  12.661   3.353
81869W        W53595  18.261  44.195  11.082
81870W        W53596   9.976  28.223   4.197
81871W        W53597  44.564  15.588   1.253
81872W        W53598  32.060  29.845   4.744
81873W        W53599  28.042   5.031  11.499
81874W        W53600  14.204  18.769   0.321
81875W        W53601   9.185  36.686   1.300
81876W        W53602  33.909  28.465   4.601
81877W        W53603   8.819  25.523   4.629
81878W        W53604  16.969  39.012   1.295
81879W        W53605  36.384  29.266   0.240
81880W        W53606   9.902  26.527  13.146
81881W        W53607  10.264  27.236  11.604
81882W        W53608  13.481   1.800  11.411
81883W        W53609  29.491   8.053   4.872
81884W        W53610  22.631  20.212  11.221
81885W        W53611  39.590  38.312   4.990
81886W        W53612   6.451  12.685   1.935
81887W        W53613  12.811  35.691   2.582
81888W        W53614  15.369  10.718   1.349
81889W        W53615  30.133  26.564   4.621
81890W        W53616  21.127  25.039  13.945
81891W        W53617   8.209   8.965  14.478
81892W        W53618  16.255  32.731  14.417
81893W        W53619  40.830  11.314  13.374
81894W        W53620  21.241  38.520   2.862
81895W        W53621  18.755   4.471  13.299
81896W        W53622  32.131  22.956  11.070
81897W        W53623  31.681   3.697  13.370
81898W        W53624   1.203  21.016  12.060
81899W        W53625  43.387  43.765   3.736
81900W        W53626  17.595  37.140  13.448
81901W        W53627  18.767  31.405  11.681
81902W        W53628   7.560   7.326   4.997
81903W        W53629   5.697  42.809   3.636
81904W        W53630  36.655  12.863  10.869
81905W        W53631  22.695  22.182  10.972
81906W        W53632  27.601  24.977   3.753
81907W        W53633   5.894   4.225  11.465
81908W        W53634   5.812   3.756   1.234
81909W        W53635  32.437  40.010  10.762
81910W        W53636  20.749  43.012  13.801
81911W        W53637  35.838  14.602  14.151
81912W        W53638  27.980   8.265   2.725
81913W        W53639  27.676  28.164  11.684
81914W        W53640  19.061  10.874  11.585
81915W        W53641  37.810  13.393  12.974
81916W        W53642  19.050  26.986   3.231
81917W        W53643  41.549   0.003   4.565
81918W        W53644  10.087  38.265   1.078
81919W        W53645  24.224   5.632   4.023
81920W        W53646  22.211  21.277   2.216
81921W        W53647   1.878  22.248  11.090
81922W        W53648  44.295  34.437  12.149
81923W        W53649  14.050   2.651   4.151
81924W        W53650  25.036  24.041  14.952
81925W        W53651   5.178  32.388  10.968
81926W        W53652  22.471  20.148   2.789
81927W        W53653  24.457  14.730  12.017
81928W        W53654  42.502  27.093  14.891
81929W        W53655  40.377  11.417   2.795
81930W        W53656  33.568  43.883   3.132
81931W        W53657  28.379  23.967  11.099
81932W        W53658  28.604  43.728  11.977
81933W        W53659  18.670  21.055   0.828
81934W        W53660  33.963   5.635  13.000
81935W        W53661   3.212   4.447   1.693
81936W        W53662  44.485  27.511  11.677
81937W        W53663  30.084  37.043  14.924
81938W        W53664  12.924  20.018   4.390
81939W        W53665  13.143  23.602   0.300
81940W        W53666  23.507   9.944   4.660
81941W        W53667  17.703  16.652   3.368
81942W        W53668  35.114  26.176  10.669
81943W        W53669  27.052  21.128  14.904
81944W        W53670   2.735  24.746   1.875
81945W        W53671   6.847  25.064   2.521
81946W        W53672  44.838  38.610   2.253
81947W        W53673   0.961  23.468  12.000
81948W        W53674  24.996  23.791   2.229
81949W        W53675   3.471   2.657   1.087
81950W        W53676  27.488  19.537  12.145
81951W        W53677  42.198  19.619  10.983
81952W        W53678  11.284  35.961  13.869
81953W        W53679  43.218  34.406  13.343
81954W        W53680  28.886  12.625   1.670
81955W        W53681  34.376  31.296   3.721
81956W        W53682  41.498  18.162  13.830
81957W        W53683  16.905  24.400   3.375
81958W        W53684   6.841  41.478  14.107
81959W        W53685  25.437  16.196  12.047
81960W        W53686  13.617  18.292  14.875
81961W        W53687  29.431  32.696   2.839
81962W        W53688   5.842  29.682  11.987
81963W        W53689  27.983  20.931   0.771
81964W        W53690   9.311  11.422  13.511
81965W        W53691   1.720   9.728  12.809
81966W        W53692  30.581  30.338   2.540
81967W        W53693  37.322   9.837  11.492
81968W        W53694   9.223  36.484   2.324
81969W        W53695  21.181  30.356   1.400
81970W        W53696  37.941   7.266   3.574
81971W        W53697  18.598  18.106   1.709
81972W        W53698  16.387  34.645  11.581
81973W        W53699   0.116  39.498   4.087
81974W        W53700  10.181  33.663  14.395
81975W        W53701   8.670  18.848  10.894
81976W        W53702  19.356  33.801   2.259
81977W        W53703  16.735   6.626   2.750
81978W        W53704  14.385  34.289   4.088
81979W        W53705  23.072  21.507   3.614
81980W        W53706  33.036  34.143   2.837
81981W        W53707  39.489  22.186  13.861
81982W        W53708   4.140  40.403  11.696
81983W        W53709  18.381   5.246  11.487
81984W        W53710  34.649  29.459  11.421
81985W        W53711  38.143  42.953   1.668
81986W        W53712  36.400  28.588  13.527
81987W        W53713  29.877   6.308  11.536
81988W        W53714   3.996  17.125  12.393
81989W        W53715  31.709  44.490  10.213
81990W        W53716  43.164  43.848  14.556
81991W        W53717  41.702  26.194  14.417
81992W        W53718  31.392  13.625   0.405
81993W        W53719  14.228  28.991   0.428
81994W        W53720  23.579   0.081   2.725
81995W        W53721  10.289   3.098   0.316
81996W        W53722  36.426  18.237   5.238
81997W        W53723  35.932  38.135   0.389
81998W        W53724  40.832  36.463   3.268
81999W        W53725   4.643  28.657   0.679
82000W        W53726  33.994  18.018   2.506
82001W        W53727  28.158  44.014   4.765
82002W        W53728   6.485   1.500   2.697
82003W        W53729  42.148   8.597   2.341
82004W        W53730   9.918  26.545   2.723
82005W        W53731  40.960  15.109  12.546
82006W        W53732   9.871   6.589  11.911
82007W        W53733  36.537  26.127  13.427
82008W        W53734  29.205  36.550   0.335
82009W        W53735  38.111  12.037  14.017
82010W        W53736  21.593  30.476   4.198
82011W        W53737  39.303   2.922  13.107
82012W        W53738  29.009  30.379  14.427
82013W        W53739  33.520  28.852   1.781
82014W        W53740  30.892  40.305  12.910
82015W        W53741   5.673  22.206   2.188
82016W        W53742  17.974   2.630   0.832
82017W        W53743   3.551  10.359  14.296
82018W        W53744  13.323  17.095  10.749
82019W        W53745  35.836  34.044  14.090
82020W        W53746  13.681  34.193  14.485
82021W        W53747   9.209   2.227   2.383
82022W        W53748  17.025  15.417  14.350
82023W        W53749   4.300  27.794  11.380
82024W        W53750  35.838  14.049   4.002
82025W        W53751  13.682  25.170   0.032
82026W        W53752  28.477  34.559  10.748
82027W        W53753  34.482  10.321  12.224
82028W        W53754  32.075   7.848   2.329
82029W        W53755  39.391   1.998   1.989
82030W        W53756  28.001  22.550  11.030
82031W        W53757  26.811  30.400  11.522
82032W        W53758   3.786  32.591   3.287
82033W        W53759  29.907  38.488  14.399
82034W        W53760  40.580  44.812  13.898
82035W        W53761  26.760  21.126   0.556
82036W        W53762  34.956  42.987  13.906
82037W        W53763  34.041  14.539  11.619
82038W        W53764  21.306   0.973  11.166
82039W        W53765   3.477  29.123   1.813
82040W        W53766  21.491  21.222  12.635
82041W        W53767   3.371  40.027  12.386
82042W        W53768  26.750  28.124  12.906
82043W        W53769  16.850  29.190  13.948
82044W        W53770   4.435  41.279  11.562
82045W        W53771  38.062   4.952  11.609
82046W        W53772  17.779  27.969   0.169
82047W        W53773  12.646  42.989  14.802
82048W        W53774  16.208  32.997  12.016
82049W        W53775  18.070   7.323  13.869
82050W        W53776  29.562  15.558  14.896
82051W        W53777  33.162   5.442   0.754
82052W        W53778  14.274   0.424  13.499
82053W        W53779  24.449  39.847  12.014
82054W        W53780  17.468  35.933   1.784
82055W        W53781   4.412  30.143   1.504
82056W        W53782  38.390  12.826   1.684
82057W        W53783  26.169  33.348   4.120
82058W        W53784  43.616  34.111  12.205
82059W        W53785  15.372  25.267  11.997
82060W        W53786  24.994  43.221  12.095
82061W        W53787  17.118  22.621   0.176
82062W        W53788  19.004  35.907   1.682
82063W        W53789  18.455   5.694   1.871
82064W        W53790  32.909  21.747  11.206
82065W        W53791  17.593   6.467   4.120
82066W        W53792  31.779  23.561   4.620
82067W        W53793  21.672  11.159   0.933
82068W        W53794  32.653  33.969  13.443
82069W        W53795  18.069   6.310   4.432
82070W        W53796  39.116  37.609  14.502
82071W        W53797  21.208  10.678  12.048
82072W        W53798  23.219  27.449  10.050
82073W        W53799  42.895  39.475   3.368
82074W        W53800  37.508  30.627   3.819
82075W        W53801  11.747  40.757  13.911
82076W        W53802  25.725  18.644   4.342
82077W        W53803  11.593  32.049   2.926
82078W        W53804  21.882   9.076   2.763
82079W        W53805  21.173  15.783   3.377
82080W        W53806  24.659  38.026  14.453
82081W        W53807  29.417  16.898   3.164
82082W        W53808  43.439   8.787   0.781
82083W        W53809  10.528  34.655  11.840
82084W        W53810  17.365  10.264  14.667
82085W        W53811  28.409  43.684  13.458
82086W        W53812  17.160  34.580  12.927
82087W        W53813  10.529  37.265   4.483
82088W        W53814  30.964  18.255  13.349
82089W        W53815  28.956   3.214  14.312
82090W        W53816  15.928  26.970  14.612
82091W        W53817   8.722  28.984   1.018
82092W        W53818   5.199  30.735  12.437
82093W        W53819  38.344   7.572   3.367
82094W        W53820  36.435  31.371  11.591
82095W        W53821  28.567  10.307  13.073
82096W        W53822   1.723  17.207   0.878
82097W        W53823  32.691  23.093  12.986
82098W        W53824   8.965  23.821  14.766
82099W        W53825   2.676  33.501  13.084
82100W        W53826  22.244   8.434  14.462
82101W        W53827   4.468  32.877  10.393
82102W        W53828  34.113  25.201  11.516
82103W        W53829  44.004   8.221   4.302
82104W        W53830   1.178  33.790   3.749
82105W        W53831  17.200  16.829  13.029
82106W        W53832  15.164  20.164   1.318
82107W        W53833   8.859  30.179   3.328
82108W        W53834   7.192  39.434   0.696
82109W        W53835   3.663  25.985  12.980
82110W        W53836  39.180  24.214   5.084
82111W        W53837  17.958  28.739  14.847
82112W        W53838  44.043  19.430   3.270
82113W        W53839  11.560  36.305  12.608
82114W        W53840  11.492  14.702   3.280
82115W        W53841  27.665   7.634   3.758
82116W        W53842  25.236  13.062  13.092
82117W        W53843  22.287  27.239   2.689
82118W        W53844  37.990   8.609   3.736
82119W        W53845  41.282  14.804   4.165
82120W        W53846  27.777  16.095   1.710
82121W        W53847  25.661  16.699   1.467
82122W        W53848   4.330  32.757   0.144
82123W        W53849  15.054  42.694  13.741
82124W        W53850  27.662   7.493   3.208
82125W        W53851  35.806  11.702   1.268
82126W        W53852  44.435  31.983  10.866
82127W        W53853  41.369  38.317  11.974
82128W        W53854  20.671  26.364   1.313
82129W        W53855  29.338  16.690  11.517
82130W        W53856  14.571  29.446  12.388
82131W        W53857  35.236  19.717   3.270
82132W        W53858  27.575  39.503  11.814
82133W        W53859  11.330  30.382   3.206
82134W        W53860  24.533   3.252   1.584
82135W        W53861  42.462  41.300   3.315
82136W        W53862  43.060  35.372  10.676
82137W        W53863  44.606  13.185  11.446
82138W        W53864  35.833  25.087   2.775
82139W        W53865   3.259  18.356   2.255
82140W        W53866  13.187  16.356  11.874
82141W        W53867  21.544  12.080  14.928
82142W        W53868  17.274  18.468   1.909
82143W        W53869  20.076  18.250   0.786
82144W        W53870  38.049   7.232  10.550
82145W        W53871  28.719  23.353   4.146
82146W        W53872  26.306  22.939  14.523
82147W        W53873   8.173   7.606   3.173
82148W        W53874  28.026  33.822  11.374
82149W        W53875  43.418  22.184   4.256
82150W        W53876   1.799  37.103   0.569
82151W        W53877  31.001  31.529   4.794
82152W        W53878  18.613  26.179   0.550
82153W        W53879  43.919  40.543   4.404
82154W        W53880  13.203  15.902  11.394
82155W        W53881  38.059  34.757  14.411
82156W        W53882  36.474  37.666  10.536
82157W        W53883  12.432   2.274   0.945
82158W        W53884  17.683  21.225   1.882
82159W        W53885   7.244  43.724  12.995
82160W        W53886  43.302   0.631   3.271
82161W        W53887  28.158  10.636   1.903
82162W        W53888   9.959  12.110  13.507
82163W        W53889   6.675  26.825  13.518
82164W        W53890  22.129   5.144   1.098
82165W        W53891  27.597  32.628   2.891
82166W        W53892   2.876  30.725   3.252
82167W        W53893  24.041  13.640  14.924
82168W        W53894  34.204   3.207   0.986
82169W        W53895  14.476  13.112   0.174
82170W        W53896  43.685   8.162  14.839
82171W        W53897   4.259   8.361  12.478
82172W        W53898  22.577  28.369  13.305
82173W        W53899  40.089  13.194   2.360
82174W        W53900  27.135  11.916  13.573
82175W        W53901   4.075  32.199  12.613
82176W        W53902  24.148   0.924   1.031
82177W        W53903  34.362   1.621  13.563
82178W        W53904  35.458  39.694   1.641
82179W        W53905   9.836  25.702   4.592
82180W        W53906  20.697   3.132  14.827
82181W        W53907  13.334  38.012   0.890
82182W        W53908  35.310  12.098  10.687
82183W        W53909  14.748   1.227   0.900
82184W        W53910  27.617   2.918  13.565
82185W        W53911   3.456  35.892  11.447
82186W        W53912  35.909  42.244  12.390
82187W        W53913  19.526  41.979   0.790
82188W        W53914  22.692   6.446   0.204
82189W        W53915  20.251  36.990  14.803
82190W        W53916  23.728  15.793   3.711
82191W        W53917   5.254  15.719   1.391
82192W        W53918  16.220  26.777  11.592
82193W        W53919  16.877  21.743   2.217
82194W        W53920   4.606  37.091  12.572
82195W        W53921  18.066  38.190   0.578
82196W        W53922  44.745  10.361  12.408
82197W        W53923   5.052   5.835   1.261
82198W        W53924  44.477  19.781   1.255
82199W        W53925  18.603  30.942  11.540
82200W        W53926  31.343  12.821   3.394
82201W        W53927  27.040  36.353   4.079
82202W        W53928   8.419   6.647   3.604
82203W        W53929  28.916  32.638  11.894
82204W        W53930  35.393  39.673   4.821
82205W        W53931  34.088   9.420   1.249
82206W        W53932  32.482  39.150  14.329
82207W        W53933  24.996  42.607  12.098
82208W        W53934  11.247   4.256   0.430
82209W        W53935  43.961  41.819   4.646
82210W        W53936   7.195  24.051   4.468
82211W        W53937   0.857   3.752   2.641
82212W        W53938  33.157  24.774   4.079
82213W        W53939  33.034  11.366  12.654
82214W        W53940  14.217   2.263  14.445
82215W        W53941  41.861  40.552   3.301
82216W        W53942   1.656   4.424   4.812
82217W        W53943  44.510  24.758  12.971
82218W        W53944  27.487   6.327  13.631
82219W        W53945  40.406   0.428  14.490
82220W        W53946  25.154  11.598   3.600
82221W        W53947  23.562  15.134  13.512
82222W        W53948  25.024   0.024  13.778
82223W        W53949  35.481  16.287   4.520
82224W        W53950  14.267  12.726   4.259
82225W        W53951  39.591  23.746   0.476
82226W        W53952  19.699   5.926  12.024
82227W        W53953  34.779  28.661   3.171
82228W        W53954  44.925  41.938   1.985
82229W        W53955  27.605   1.088   5.083
82230W        W53956  23.122  21.773   3.169
82231W        W53957   9.726  36.976  10.123
82232W        W53958  36.867  16.353   3.494
82233W        W53959  23.470  33.864  13.924
82234W        W53960  10.071  44.264  13.346
82235W        W53961   2.202  12.814  11.131
82236W        W53962  11.218  34.421  13.836
82237W        W53963   3.745  19.302  13.477
82238W        W53964  36.978  40.032   1.399
82239W        W53965   1.891  25.459  14.035
82240W        W53966  27.230   7.209   1.900
82241W        W53967  26.029  27.497   3.078
82242W        W53968  32.462  14.701  11.564
82243W        W53969   9.329  10.730  14.908
82244W        W53970  26.972  33.982   1.338
82245W        W53971  23.590  10.840   4.613
82246W        W53972  14.674   1.466   4.408
82247W        W53973  31.525   9.086   5.235
82248W        W53974  44.942  42.380   0.053
82249W        W53975  35.560  39.426  11.558
82250W        W53976  13.591  15.312  12.581
82251W        W53977  25.966  20.821  14.435
82252W        W53978   3.682   1.137   4.558
82253W        W53979  40.518  18.294   2.649
82254W        W53980  17.764  23.131  11.658
82255W        W53981  21.654  13.126  14.716
82256W        W53982   8.404   8.905   0.716
82257W        W53983  41.288   3.851  11.405
82258W        W53984  40.474  23.446   2.285
82259W        W53985  40.491  35.998  13.780
82260W        W53986  16.833  22.503  12.026
82261W        W53987  26.405  27.555  13.933
82262W        W53988  14.875  17.668   0.034
82263W        W53989  24.801  43.806   1.404
82264W        W53990  22.973  26.329  12.580
82265W        W53991   9.440   6.426  12.959
82266W        W53992  16.123  34.986  10.659
82267W        W53993  31.061  26.466   2.827
82268W        W53994  17.758  38.935   4.610
82269W        W53995  10.873  41.432   1.350
82270W        W53996  23.155  27.585  12.078
82271W        W53997  11.556  20.627  13.900
82272W        W53998  44.280   6.253  13.043
82273W        W53999  23.212  37.839  11.691
82274W        W54000  42.256   0.370  13.437
82275W        W54001  26.581  11.567  12.945
82276W        W54002  42.406  23.807  12.063
82277W        W54003  10.821   8.925  12.588
82278W        W54004  34.280   0.064  11.743
82279W        W54005  15.050  19.125  13.282
82280W        W54006  30.162   0.113   1.886
82281W        W54007  10.812  22.681   4.731
82282W        W54008  31.372  24.224   4.241
82283W        W54009  18.711  26.097   1.058
82284W        W54010  44.865  10.355  11.656
82285W        W54011  38.353  28.524  13.258
82286W        W54012  29.468  14.551   2.791
82287W        W54013  17.787  20.258  11.134
82288W        W54014   6.895   5.296  13.791
82289W        W54015   5.036   2.876  11.564
82290W        W54016   2.383  43.336  12.267
82291W        W54017  37.405  35.273   0.452
82292W        W54018  13.628  32.133   2.834
82293W        W54019  22.348  22.294   2.252
82294W        W54020   1.811  27.855   5.115
82295W        W54021  31.581  17.586  11.687
82296W        W54022  31.888  28.387   1.153
82297W        W54023  39.386  34.822  11.649
82298W        W54024  32.314   1.951   3.317
82299W        W54025  30.557  36.765   4.172
82300W        W54026  38.830  36.383   0.511
82301W        W54027  23.579  12.070  13.527
82302W        W54028  24.155  41.429  13.815
82303W        W54029  33.883  40.926   1.045
82304W        W54030  32.611   4.257   4.119
82305W        W54031  24.520  40.984   3.662
82306W        W54032  15.322  11.685  11.661
82307W        W54033  34.973  19.650  10.302
82308W        W54034  33.968  15.837  11.031
82309W        W54035  43.386  28.616   3.628
82310W        W54036   8.763  19.755  14.343
82311W        W54037  19.146   1.818   0.429
82312W        W54038  34.776  13.768  11.940
82313W        W54039   1.773  30.636   1.736
82314W        W54040   6.791  15.225   4.991
82315W        W54041  35.859  25.011  13.834
82316W        W54042  42.534  18.283  12.841
82317W        W54043  28.368  14.111   3.778
82318W        W54044  42.713  15.674   5.039
82319W        W54045  26.683  17.838  12.864
82320W        W54046  31.515  19.077   1.351
82321W        W54047  28.936  12.856  14.290
82322W        W54048   5.707   5.357   2.333
82323W        W54049  11.834  32.853   0.592
82324W        W54050  10.232  21.538  12.673
82325W        W54051  22.621  13.202   4.544
82326W        W54052  18.277  20.232   2.403
82327W        W54053  23.182  22.936  11.995
82328W        W54054  22.280  22.656   1.258
82329W        W54055   6.718  19.889   3.367
82330W        W54056   6.735   0.511   2.814
82331W        W54057  23.426  26.942   0.703
82332W        W54058  37.103  17.830  12.092
82333W        W54059  30.701  43.217   2.807
82334W        W54060  31.439  16.267  14.756
82335W        W54061   9.300  44.242   0.870
82336W        W54062   2.779  39.561  10.688
82337W        W54063  17.433  25.711   2.267
82338W        W54064  34.838  35.808  12.365
82339W        W54065  16.096  20.167   3.305
82340W        W54066  15.782  34.644  14.219
82341W        W54067  25.126   0.405   1.352
82342W        W54068   6.913  17.806  11.827
82343W        W54069  26.368   5.795  11.894
82344W        W54070  44.417  41.275   0.336
82345W        W54071  17.877  16.167   0.842
82346W        W54072  16.692  32.638  12.032
82347W        W54073  22.467  36.422   0.407
82348W        W54074   0.555   8.118   4.923
82349W        W54075  32.305  34.095  11.624
82350W        W54076  33.510   3.479  12.845
82351W        W54077   0.023   3.741  13.323
82352W        W54078  34.850  13.532  11.483
82353W        W54079  20.722  29.116  10.517
82354W        W54080  36.760  25.127  13.615
82355W        W54081   9.230  23.317  12.927
82356W        W54082  33.636  37.458  11.269
82357W        W54083  42.822  28.479  14.916
82358W        W54084  33.155  26.165   4.027
82359W        W54085   5.256  20.463  11.180
82360W        W54086   0.442   8.791   2.379
82361W        W54087  17.713  33.587   0.231
82362W        W54088  42.889  12.791  14.981
82363W        W54089  38.778  28.468   0.888
82364W        W54090  32.834  20.902  14.270
82365W        W54091  43.528  42.787   0.082
82366W        W54092   5.407  31.393   1.331
82367W        W54093  17.703   8.853   0.755
82368W        W54094  20.776   9.854  14.422
82369W        W54095  16.007  26.681  11.117
82370W        W54096   0.410  28.114   2.781
82371W        W54097  40.578  43.459  11.260
82372W        W54098  26.650  21.937   9.774
82373W        W54099  14.861  34.429   1.325
82374W        W54100  11.281  20.711  11.952
82375W        W54101  29.554  18.490   1.737
82376W        W54102   6.176  13.193  14.445
82377W        W54103  21.579  40.352  11.575
82378W        W54104  36.396   1.546   0.844
82379W        W54105   7.567  42.933   4.537
82380W        W54106  42.427  25.490   0.173
82381W        W54107  27.199  28.824   1.669
82382W        W54108   8.454  30.105   3.039
82383W        W54109  31.958  12.545  11.881
82384W        W54110  14.076  26.668   9.706
82385W        W54111  43.626  18.279   4.991
82386W        W54112  14.166  23.022  11.199
82387W        W54113  11.262  25.103  12.070
82388W        W54114  21.474   9.252   1.830
82389W        W54115  13.667  24.605  13.356
82390W        W54116   8.281  31.819  13.878
82391W        W54117  41.396   8.178  11.988
82392W        W54118  35.817   5.754  10.715
82393W        W54119  38.382  18.150   1.307
82394W        W54120  39.387  32.863  10.377
82395W        W54121  31.447  33.341  12.395
82396W        W54122  34.601  40.307   4.555
82397W        W54123  13.986  20.608   3.420
82398W        W54124  22.012  19.551  12.609
82399W        W54125  20.255  10.331  13.511
82400W        W54126  44.181   7.291  14.867
82401W        W54127  34.140  27.672   4.131
82402W        W54128  12.827  15.599   2.351
82403W        W54129  20.819  13.538   1.262
82404W        W54130  44.669  34.907   2.443
82405W        W54131  15.919  35.482  13.374
82406W        W54132  10.368  31.137   2.307
82407W        W54133   9.533  25.526  11.492
82408W        W54134  25.443  22.814  11.059
82409W        W54135  19.772  35.677   4.138
82410W        W54136   2.793  40.469   0.017
82411W        W54137  26.055  24.043  10.968
82412W        W54138   3.006  35.491  14.916
82413W        W54139  32.366  10.379  14.409
82414W        W54140   3.087  28.096  14.532
82415W        W54141   6.441  14.145   2.769
82416W        W54142  42.265  11.315   4.915
82417W        W54143   7.844  10.952   1.934
82418W        W54144  42.392   4.359  10.921
82419W        W54145  22.709  38.870  11.475
82420W        W54146  14.887  42.709   4.177
82421W        W54147  31.926  28.189  14.185
82422W        W54148  33.991  19.648   4.532
82423W        W54149  28.392  15.633  11.161
82424W        W54150   3.781   4.651  14.982
82425W        W54151  14.182  19.792   0.437
82426W        W54152  26.528  19.043   3.172
82427W        W54153  41.323  43.482   0.562
82428W        W54154   3.431  14.722  12.168
82429W        W54155   6.526  22.782  14.309
82430W        W54156   9.070   0.735  13.756
82431W        W54157  14.278  14.712   2.171
82432W        W54158   1.987   8.114   4.725
82433W        W54159  40.995   9.929  12.476
82434W        W54160  35.984  21.400   4.891
82435W        W54161  12.476   2.645   2.644
82436W        W54162  34.555  18.133  12.944
82437W        W54163  20.108   2.354   4.756
82438W        W54164  36.985  31.203  13.079
82439W        W54165  42.527  21.677  11.640
82440W        W54166  37.854   2.451   3.405
82441W        W54167  14.568   9.460  14.964
82442W        W54168  18.785  23.422   4.169
82443W        W54169  44.264  24.652  13.416
82444W        W54170   0.715  10.541   2.371
82445W        W54171  41.228  19.254  14.504
82446W        W54172  25.733   1.539  11.233
82447W        W54173  32.904  15.719   0.493
82448W        W54174   5.228  15.338   3.730
82449W        W54175   7.423  35.352   3.915
82450W        W54176  16.683  13.758  10.747
82451W        W54177  30.854  15.671  13.098
82452W        W54178  44.753  18.980   1.661
82453W        W54179  19.779  18.257   0.360
82454W        W54180  18.325  33.867  11.012
82455W        W54181  38.259  38.506  14.682
82456W        W54182  18.748   1.798   4.553
82457W        W54183   5.147  40.462   4.010
82458W        W54184  25.912  28.419   1.013
82459W        W54185  13.597  17.819  12.070
82460W        W54186  23.707  12.775  14.797
82461W        W54187   1.012   6.764   3.839
82462W        W54188  40.595   8.108   4.909
82463W        W54189   4.654  11.309   4.724
82464W        W54190  36.519  44.011  12.124
82465W        W54191  40.361  21.476  13.295
82466W        W54192  40.577  36.541  13.075
82467W        W54193  10.902   3.843   3.117
82468W        W54194  27.197  24.517   2.281
82469W        W54195   1.410  33.329  10.636
82470W        W54196  43.754  17.159   1.826
82471W        W54197  10.131  14.822  14.558
82472W        W54198  24.472   9.683  12.565
82473W        W54199  22.500   7.772  11.092
82474W        W54200   8.054  31.880  11.922
82475W        W54201  37.787   5.974  13.028
82476W        W54202   2.382   3.396  13.470
82477W        W54203   0.182  44.956   2.877
82478W        W54204  32.523  17.229   4.360
82479W        W54205  16.580  44.801  13.328
82480W        W54206  35.279  44.911  14.363
82481W        W54207  41.451  23.914   4.128
82482W        W54208  17.975  44.982   3.652
82483W        W54209  18.743  22.126   0.854
82484W        W54210  24.017  22.748  10.663
82485W        W54211  18.783  35.706   3.323
82486W        W54212  31.622  12.198  12.479
82487W        W54213  29.193  16.929   2.695
82488W        W54214  14.632  33.584  13.959
82489W        W54215  17.637  14.049  12.548
82490W        W54216  28.027  22.232  10.569
82491W        W54217  28.113  23.331  10.716
82492W        W54218  31.906  18.293   3.721
82493W        W54219  16.625  36.995  13.429
82494W        W54220  32.761   6.650   1.344
82495W        W54221  36.854  38.821   4.126
82496W        W54222  28.910  22.279   0.290
82497W        W54223   0.199  16.722  14.846
82498W        W54224  40.449  42.714  14.109
82499W        W54225  31.947  16.267  10.437
82500W        W54226   6.090   7.489  14.793
82501W        W54227   9.699  44.043   3.447
82502W        W54228  41.065  36.019   3.424
82503W        W54229  44.345  39.444   4.831
82504W        W54230  40.606  39.130  14.834
82505W        W54231   2.228   8.630  10.763
82506W        W54232  40.232   2.430   4.078
82507W        W54233  32.485  31.556  11.098
82508W        W54234  19.411  40.022   4.462
82509W        W54235  22.643  23.757   2.837
82510W        W54236  23.988  22.821  14.233
82511W        W54237  21.626   1.215   0.963
82512W        W54238  31.926  32.509  11.998
82513W        W54239   6.713  20.653  12.180
82514W        W54240  23.658   9.842   3.120
82515W        W54241  21.717   7.727   0.732
82516W        W54242  42.616  25.875  13.015
82517W        W54243  24.097  26.317  13.386
82518W        W54244  38.657  25.155  12.021
82519W        W54245  10.168  20.202   2.513
82520W        W54246   0.232  34.538  12.045
82521W        W54247   7.415  15.147  10.529
82522W        W54248   0.822   5.783   4.650
82523W        W54249  18.739   5.919   0.443
82524W        W54250  14.208  12.128   1.778
82525W        W54251   4.133   9.622  13.065
82526W        W54252  29.991  42.979   0.489
82527W        W54253  24.659  29.253  13.455
82528W        W54254   6.359  15.097   2.341
82529W        W54255   9.136  41.876   2.721
82530W        W54256  12.681  25.733   0.265
82531W        W54257  14.748  23.585  13.281
82532W        W54258  12.847  27.752   4.225
82533W        W54259  13.221   7.610   4.088
82534W        W54260  25.046   9.797  12.672
82535W        W54261  23.758  29.056   1.670
82536W        W54262   9.973   1.999  14.509
82537W        W54263   8.459   3.833  11.794
82538W        W54264  43.366  19.561  14.418
82539W        W54265  42.517  44.279   3.676
82540W        W54266   4.503  25.057   5.073
82541W        W54267  40.417  38.480   2.422
82542W        W54268  22.506  21.494  10.702
82543W        W54269  41.009  23.717  11.983
82544W        W54270  31.701   5.655   2.275
82545W        W54271   6.691  40.008  11.544
82546W        W54272  30.486  13.553  13.820
82547W        W54273  12.478   6.693   3.650
82548W        W54274  40.742  16.136  12.145
82549W        W54275  11.130  33.471  10.820
82550W        W54276  40.547  21.752   0.300
82551W        W54277  35.014  38.313  12.394
82552W        W54278  22.676  36.313   0.858
82553W        W54279   6.749  26.523   4.613
82554W        W54280  22.626  18.745  11.650
82555W        W54281  21.778   8.220  11.008
82556W        W54282   3.490  15.733   5.015
82557W        W54283  44.875  37.087   3.345
82558W        W54284  21.964   9.807  13.321
82559W        W54285   5.726  33.059   1.755
82560W        W54286  13.619  14.798  14.341
82561W        W54287  24.777  27.779  11.105
82562W        W54288  34.452  42.195   2.580
82563W        W54289  17.822   2.565  14.522
82564W        W54290  37.585  30.232  14.406
82565W        W54291  43.817  44.811  10.646
82566W        W54292   2.007  12.889  13.890
82567W        W54293   6.745  24.578  14.808
82568W        W54294  23.505  30.500  12.773
82569W        W54295   7.315  30.529   3.079
82570W        W54296   5.661  28.395  13.412
82571W        W54297  28.494  35.505   2.234
82572W        W54298  12.759  12.691  12.629
82573W        W54299  23.228   4.583  13.067
82574W        W54300  31.782  19.781   4.544
82575W        W54301  35.607  28.815   0.050
82576W        W54302  41.848  20.996   1.936
82577W        W54303  33.160  10.302   3.118
82578W        W54304  16.606  11.215   0.022
82579W        W54305  11.074  37.388   3.615
82580W        W54306  26.216   1.168  13.438
82581W        W54307  26.893  20.136  12.478
82582W        W54308  11.878  14.283  12.821
82583W        W54309   9.879  37.366  12.088
82584W        W54310  40.841  27.913  14.352
82585W        W54311  19.651  12.677   1.436
82586W        W54312  10.833  22.056   2.054
82587W        W54313  12.944  15.671  13.701
82588W        W54314  44.686  40.434   1.280
82589W        W54315  21.722   7.265  11.973
82590W        W54316  12.371  18.621  14.239
82591W        W54317  13.120  16.750   4.535
82592W        W54318   4.738  28.903   4.193
82593W        W54319   1.371   5.916   4.597
82594W        W54320  14.104  21.907   3.065
82595W        W54321  35.552  38.301   3.257
82596W        W54322  28.919  37.390  12.501
82597W        W54323   9.110  23.095   4.664
82598W        W54324  36.540   0.970  11.192
82599W        W54325  34.476  14.703   1.562
82600W        W54326  21.163  25.958  14.471
82601W        W54327  27.730  38.387  14.833
82602W        W54328  19.127  32.606   4.018
82603W        W54329   7.590  10.692   0.464
82604W        W54330  31.804  11.103   1.476
82605W        W54331  17.363  22.791   1.274
82606W        W54332  23.977   8.330   2.450
82607W        W54333   5.612  30.868   4.803
82608W        W54334  33.806  33.325  11.095
82609W        W54335  29.055   3.818  12.539
82610W        W54336  11.730   4.527   0.318
82611W        W54337  27.030  16.918  11.618
82612W        W54338  17.885  13.565  13.519
82613W        W54339   3.296  42.509  11.193
82614W        W54340  11.750  31.800  10.711
82615W        W54341  27.973   1.690   1.841
82616W        W54342  23.185  14.826   2.785
82617W        W54343   6.383   9.149   1.786
82618W        W54344  34.145   5.485   0.821
82619W        W54345   5.219  36.523   3.536
82620W        W54346  27.717  12.419  10.041
82621W        W54347   9.147   8.417  14.290
82622W        W54348  33.531  39.162   4.677
82623W        W54349  39.547  37.581   0.257
82624W        W54350   1.492  43.848   1.340
82625W        W54351  44.720  22.642   1.787
82626W        W54352  24.407  20.131  14.765
82627W        W54353  34.510  40.161   3.274
82628W        W54354  16.792  40.595   0.375
82629W        W54355  22.216  40.780   1.033
82630W        W54356  11.500  15.067  13.261
82631W        W54357  23.234   0.747   0.858
82632W        W54358  28.022  24.783  14.033
82633W        W54359  41.480   5.871  14.434
82634W        W54360  11.291   3.694  12.902
82635W        W54361  30.688  25.513   2.733
82636W        W54362  16.229   3.372   0.252
82637W        W54363  29.338   0.834   4.103
82638W        W54364   3.795   3.188  11.063
82639W        W54365  30.455   3.906   1.316
82640W        W54366   3.711  22.210   2.757
82641W        W54367  18.984  38.822  10.904
82642W        W54368  30.377  28.158   3.637
82643W        W54369  17.802  11.782   3.261
82644W        W54370   0.046  31.388   4.444
82645W        W54371  15.228  20.496  11.120
82646W        W54372  40.281   6.209   2.410
82647W        W54373  16.265  33.501  11.980
82648W        W54374  33.455  20.191   2.896
82649W        W54375  24.734  16.145   1.343
82650W        W54376  26.287  32.980   4.556
82651W        W54377  36.436  38.065   1.953
82652W        W54378  36.873  14.593   0.269
82653W        W54379  12.153  33.947   1.254
82654W        W54380   5.949  28.997   2.721
82655W        W54381  25.953  13.885  11.153
82656W        W54382  33.788  12.102  10.753
82657W        W54383  19.123  16.078   0.432
82658W        W54384  25.449  22.197   2.287
82659W        W54385  22.300  40.414  11.133
82660W        W54386   8.188  34.109   4.123
82661W        W54387  30.099  12.045   4.320
82662W        W54388  12.313  15.586  14.754
82663W        W54389  42.558  44.603  11.229
82664W        W54390  41.772   2.335  11.645
82665W        W54391  17.095   6.648   2.370
82666W        W54392  35.008   3.704   1.338
82667W        W54393  34.772  10.177   2.888
82668W        W54394  34.485  36.100   3.317
82669W        W54395  31.006   7.879  11.465
82670W        W54396  20.912   5.668   0.796
82671W        W54397  42.596  37.094   4.244
82672W        W54398   6.611  35.913  13.813
82673W        W54399  21.057   4.286   0.965
82674W        W54400  38.977  18.014  10.157
82675W        W54401   6.426  12.841   3.826
82676W        W54402  42.383  13.862   3.370
82677W        W54403  37.867  30.499   1.305
82678W        W54404   8.960  17.204   2.683
82679W        W54405  32.606  13.617   2.543
82680W        W54406  22.683  29.868   3.819
82681W        W54407  41.314  31.597   4.081
82682W        W54408  24.259  35.559   4.998
82683W        W54409   7.258  25.000   2.838
82684W        W54410   6.905  27.934  14.495
82685W        W54411  21.445   9.311   3.712
82686W        W54412  36.389  12.862   0.432
82687W        W54413  21.279  31.107  13.355
82688W        W54414   2.232  35.821  13.357
82689W        W54415  24.924  28.061  11.550
82690W        W54416  13.328  25.377  12.429
82691W        W54417   0.399  28.145  12.872
82692W        W54418  35.203  40.931  13.197
82693W        W54419  39.910  41.319  11.645
82694W        W54420  29.018  12.068  11.197
82695W        W54421  12.185   2.836   0.198
82696W        W54422   8.605   1.320   3.833
82697W        W54423  26.694  15.887   1.770
82698W        W54424  29.376  43.340   2.664
82699W        W54425  34.389   1.700   4.223
82700W        W54426  19.259  35.064  14.918
82701W        W54427  39.240  34.513  12.030
82702W        W54428  37.555  27.062   1.396
82703W        W54429   1.548  10.717   3.637
82704W        W54430  29.492   0.097  14.885
82705W        W54431  32.404  12.990   3.234
82706W        W54432   4.827  36.343  11.515
82707W        W54433  24.196   1.291   0.068
82708W        W54434  44.533   5.742  10.463
82709W        W54435  13.546  14.277   4.455
82710W        W54436   4.795   4.940  11.853
82711W        W54437  16.021  13.404   4.298
82712W        W54438  14.781  40.306  13.060
82713W        W54439  26.544  21.081  12.127
82714W        W54440  21.972  13.052   2.594
82715W        W54441   0.954   7.311  13.484
82716W        W54442  29.512   9.053   2.629
82717W        W54443  31.604  26.501  12.932
82718W        W54444  16.244  23.525   0.721
82719W        W54445  18.333  29.080  14.866
82720W        W54446  14.363  37.268  10.974
82721W        W54447  19.939  14.234  14.507
82722W        W54448  21.498  36.201  11.158
82723W        W54449  23.701  33.868   2.269
82724W        W54450  29.038  21.998  11.952
82725W        W54451  27.226  23.040  10.684
82726W        W54452  22.775   7.224   1.241
82727W        W54453  29.535  32.176   5.067
82728W        W54454  18.325  39.991   0.936
82729W        W54455  43.586  31.544   4.614
82730W        W54456  14.752  24.219  14.037
82731W        W54457  10.595   3.360  10.048
82732W        W54458  27.647  23.738   2.276
82733W        W54459  29.174  34.061   1.007
82734W        W54460  23.665  36.868   0.120
82735W        W54461  21.738  42.589  14.547
82736W        W54462  11.492  11.512   1.405
82737W        W54463  42.964  22.442   4.222
82738W        W54464  28.364  21.254  12.091
82739W        W54465  42.501  44.449   0.466
82740W        W54466  24.996   6.084  13.667
82741W        W54467   0.215  34.032  10.555
82742W        W54468  21.662  39.761   1.670
82743W        W54469   1.869   9.942   3.334
82744W        W54470   3.392  34.771   4.106
82745W        W54471  32.379  24.551   0.379
82746W        W54472  37.929  42.515   0.770
82747W        W54473   5.997  17.080  13.309
82748W        W54474  30.095  24.667   2.870
82749W        W54475  16.131  44.772   2.616
82750W        W54476   2.801   5.157  12.981
82751W        W54477  12.848  37.934  14.334
82752W        W54478  22.153  12.225   0.636
82753W        W54479  28.921  32.830   1.404
82754W        W54480  26.060  36.057   2.338
82755W        W54481  31.057  35.104  11.851
82756W        W54482  42.538  20.578   0.354
82757W        W54483  30.949  18.421   3.814
82758W        W54484  42.832  29.558  14.874
82759W        W54485  39.210  31.406   0.179
82760W        W54486   8.176  41.379  12.030
82761W        W54487  38.360  16.596   4.151
82762W        W54488  37.372  23.995   1.860
82763W        W54489   0.515  13.661   3.729
82764W        W54490  10.727  42.019  13.098
82765W        W54491  28.432   9.695   4.556
82766W        W54492  29.314  30.856  12.109
82767W        W54493   6.122   1.752   2.428
82768W        W54494  29.399   4.911  12.679
82769W        W54495  37.464  12.332   1.831
82770W        W54496  36.566   9.320   1.406
82771W        W54497   6.015  31.492   0.117
82772W        W54498   3.857  12.043   2.598
82773W        W54499  30.685  38.619  10.641
82774W        W54500  21.052  24.018  11.548
82775W        W54501  18.446   6.837   3.349
82776W        W54502  41.062  34.559   0.457
82777W        W54503  13.280  31.227   2.647
82778W        W54504  27.165  39.992   2.256
82779W        W54505   2.165  41.474   4.326
82780W        W54506  37.855   5.819   0.314
82781W        W54507  26.948  25.722  14.011
82782W        W54508  33.823   2.845  13.406
82783W        W54509  15.683  17.834  13.540
82784W        W54510  12.327  41.907   3.828
82785W        W54511   5.403  36.940  10.703
82786W        W54512  16.697  28.124  11.586
82787W        W54513  32.134  41.933  12.341
82788W        W54514  28.174  20.220   2.946
82789W        W54515   2.849  18.670  14.288
82790W        W54516  22.636  44.560   4.159
82791W        W54517  40.671  18.205  12.446
82792W        W54518  10.796  24.643  13.987
82793W        W54519  40.494  21.268  12.415
82794W        W54520   4.644  33.029   5.042
82795W        W54521  40.040  29.980   3.907
82796W        W54522  23.205   0.494   4.816
82797W        W54523  39.611   6.364   0.215
82798W        W54524  23.456  40.767   2.708
82799W        W54525  17.530  26.255   2.156
82800W        W54526  41.588  29.442   2.321
82801W        W54527  32.514  41.286  13.576
82802W        W54528  13.242  20.174  11.513
82803W        W54529  38.857  12.391  14.363
82804W        W54530   3.381  21.288  12.376
82805W        W54531  22.727  34.729  13.430
82806W        W54532  44.820  38.607   3.275
82807W        W54533  30.372   3.926   4.112
82808W        W54534  18.735  40.297   1.718
82809W        W54535  30.523  12.054   2.258
82810W        W54536  40.592   7.981   3.675
82811W        W54537  29.536   2.643   3.711
82812W        W54538  10.201  19.826   0.478
82813W        W54539  16.057  24.753  12.873
82814W        W54540   4.878  10.080   0.136
82815W        W54541  23.478  33.299  12.076
82816W        W54542  35.527   8.188  12.183
82817W        W54543   8.448  35.556  12.034
82818W        W54544   3.193  39.294   4.135
82819W        W54545   3.615  43.595  14.498
82820W        W54546   5.798  13.154   0.429
82821W        W54547  14.691  12.838  11.800
82822W        W54548  24.298   2.425   1.727
82823W        W54549  40.017  39.409   4.497
82824W        W54550  12.535  27.957  10.871
82825W        W54551   0.185  14.476  14.358
82826W        W54552  16.454  43.385  12.025
82827W        W54553  18.136  16.721  12.815
82828W        W54554  28.952   2.418  11.506
82829W        W54555  29.029   5.698   3.223
82830W        W54556   1.939  42.962  12.494
82831W        W54557  20.678  26.594   2.534
82832W        W54558   5.043  32.528   4.655
82833W        W54559   7.716  17.488  10.462
82834W        W54560  22.299  14.206   2.874
82835W        W54561  31.032   2.061   0.943
82836W        W54562  13.797  31.355   2.657
82837W        W54563  18.186   3.710   2.260
82838W        W54564  33.374  40.809  11.092
82839W        W54565  34.054  39.808   4.048
82840W        W54566  40.585  16.048  12.623
82841W        W54567  31.046  10.574  14.963
82842W        W54568   4.443   4.665   5.380
82843W        W54569   7.297  12.269  13.921
82844W        W54570  12.199  16.897   2.839
82845W        W54571  20.179  29.871   1.662
82846W        W54572  31.508  29.895  12.897
82847W        W54573  21.286  10.245  13.715
82848W        W54574  17.728  29.067  12.460
82849W        W54575  12.263   9.447  11.192
82850W        W54576  44.926  44.387   3.649
82851W        W54577  26.256  41.065  14.445
82852W        W54578  38.574  36.296  11.561
82853W        W54579   6.280  14.751  14.066
82854W        W54580  30.694   8.441  12.201
82855W        W54581  38.634  38.919  11.281
82856W        W54582   4.429   1.937  10.471
82857W        W54583  36.469   5.791   0.201
82858W        W54584  12.614  18.348  12.012
82859W        W54585  11.681  18.563  11.507
82860W        W54586  13.916  25.411  12.553
82861W        W54587  35.992  15.685   0.260
82862W        W54588   2.900  26.567  12.560
82863W        W54589  16.214  11.580   3.750
82864W        W54590  19.285  34.808  12.572
82865W        W54591  37.469  17.292   0.409
82866W        W54592  24.731  27.238   4.389
82867W        W54593  14.703   6.589  14.662
82868W        W54594   3.924  34.351  11.027
82869W        W54595  23.252  29.940  13.217
82870W        W54596  22.913  18.737   3.335
82871W        W54597  43.831  11.876   4.430
82872W        W54598   0.918  39.396   5.060
82873W        W54599  41.420  17.593   4.597
82874W        W54600  11.224  16.809  12.891
82875W        W54601  11.346  22.543  10.522
82876W        W54602   5.345  11.372  13.594
82877W        W54603  32.417  39.496  10.624
82878W        W54604   9.668  27.022   3.395
82879W        W54605  20.709  24.725  12.365
82880W        W54606  18.606   1.453  11.399
82881W        W54607  16.479  20.166  10.707
82882W        W54608  39.084  22.995   4.152
82883W        W54609  27.677  12.241  13.040
82884W        W54610  29.069   5.482  14.001
82885W        W54611  44.800  32.976   1.271
82886W        W54612  42.304  26.713   2.635
82887W        W54613  27.556  16.879   3.101
82888W        W54614  22.452  13.721   4.739
82889W        W54615  43.797  30.146  13.366
82890W        W54616   4.239  36.283  13.676
82891W        W54617   3.361   0.751  12.604
82892W        W54618  22.114  20.253   2.154
82893W        W54619  40.976  29.797  13.631
82894W        W54620   9.456  24.743   0.563
82895W        W54621  33.238  24.958  10.666
82896W        W54622  12.904   1.186   4.599
82897W        W54623  43.354  10.422  13.458
82898W        W54624  35.452  27.423  11.718
82899W        W54625  10.706  18.405   4.108
82900W        W54626  16.766   2.025  13.565
82901W        W54627  18.204   2.014   1.886
82902W        W54628  21.902  30.037  13.072
82903W        W54629  14.126  31.242  11.160
82904W        W54630   4.940   1.204   5.130
82905W        W54631   6.547  32.833   3.552
82906W        W54632   9.154  38.984   2.149
82907W        W54633   1.880  26.368  12.929
82908W        W54634  42.759  30.684   0.953
82909W        W54635  16.093  19.055   3.980
82910W        W54636  27.594  33.605  11.786
82911W        W54637  18.276  27.527  10.588
82912W        W54638  21.828  12.383  13.614
82913W        W54639  19.487   1.705   1.320
82914W        W54640  29.592   8.681   1.811
82915W        W54641  16.507  26.701  11.154
82916W        W54642  26.105  28.649  10.560
82917W        W54643   9.433   1.863  13.428
82918W        W54644  26.730  27.013   3.741
82919W        W54645  21.796   0.679  14.071
82920W        W54646   4.945   1.751  12.557
82921W        W54647   3.825  20.788   4.303
82922W        W54648  43.090  42.242   4.236
82923W        W54649  12.270  30.457   3.310
82924W        W54650  38.412  26.710  10.671
82925W        W54651   8.683  34.150   4.064
82926W        W54652   2.291  42.062   0.306
82927W        W54653  27.368  28.049   0.722
82928W        W54654  32.125  43.923   4.149
82929W        W54655  29.203   5.895   2.281
82930W        W54656  17.104  24.769   4.592
82931W        W54657  11.112  29.241   2.232
82932W        W54658  28.954  15.544   1.386
82933W        W54659  36.574  13.124  14.419
82934W        W54660  34.937   6.901  14.440
82935W        W54661  33.516   9.603   4.346
82936W        W54662  37.351  36.769  10.749
82937W        W54663  10.580  35.519   4.734
82938W        W54664   2.965  42.881  11.613
82939W        W54665  14.604  37.981   5.454
82940W        W54666  30.135   7.816  14.603
82941W        W54667  13.009   8.609  11.012
82942W        W54668   1.433  14.891  14.067
82943W        W54669  20.311   7.898  13.506
82944W        W54670   3.445  30.642  10.185
82945W        W54671  44.205  19.145   1.923
82946W        W54672  37.416  19.197  10.635
82947W        W54673  43.803  37.838  14.228
82948W        W54674  13.042  13.081  12.420
82949W        W54675  13.800   5.202  11.886
82950W        W54676  16.896  37.161   4.437
82951W        W54677  10.909   2.484  10.790
82952W        W54678  14.197   6.441  14.481
82953W        W54679  31.010  10.822  14.474
82954W        W54680   5.758  27.631  14.753
82955W        W54681  36.315  11.874  13.861
82956W        W54682   0.237  31.394   3.786
82957W        W54683   0.786  37.260   4.161
82958W        W54684   4.277  13.830  11.488
82959W        W54685  34.670  39.475  13.969
82960W        W54686  30.839  42.711   3.750
82961W        W54687  43.251  39.865   3.323
82962W        W54688  18.307  25.371   0.768
82963W        W54689   7.270  36.892  12.243
82964W        W54690  13.784  18.016  14.381
82965W        W54691  29.328  36.764   2.145
82966W        W54692   1.993  29.542   2.355
82967W        W54693  37.538  24.251   4.073
82968W        W54694   5.143   0.032   3.103
82969W        W54695   0.397  34.508   1.845
82970W        W54696  24.242   1.450   1.822
82971W        W54697  30.924  33.148   4.131
82972W        W54698   8.728  27.057   2.926
82973W        W54699  18.668  22.980   1.800
82974W        W54700  30.060   0.956   0.698
82975W        W54701  35.310  18.052   5.091
82976W        W54702  22.849  33.798  11.550
82977W        W54703  37.826   9.920   3.799
82978W        W54704  19.989  28.364  14.857
82979W        W54705  18.049   4.201   3.699
82980W        W54706  12.141   6.724  12.809
82981W        W54707   3.593  34.158   1.990
82982W        W54708  18.493   1.405   4.358
82983W        W54709  27.646   4.780   4.766
82984W        W54710  33.534  16.617  11.169
82985W        W54711  16.222   9.320  10.915
82986W        W54712  35.585  36.584  10.924
82987W        W54713  35.879  26.230  12.875
82988W        W54714  31.498  29.626  14.288
82989W        W54715   6.925  32.633  13.901
82990W        W54716  29.690  24.515  14.964
82991W        W54717  11.965  15.743  10.796
82992W        W54718  22.383   0.717  14.269
82993W        W54719  35.292  37.470   1.755
82994W        W54720  38.595   2.650  11.149
82995W        W54721  41.985  40.013   3.939
82996W        W54722   9.361   9.095   1.330
82997W        W54723  38.646  42.016   2.470
82998W        W54724   7.261   5.920   1.308
82999W        W54725  34.476  20.035   3.096
83000W        W54726  25.049  18.723  14.257
83001W        W54727   7.312  22.133  12.820
83002W        W54728  25.696   0.580   2.009
83003W        W54729  42.540  43.291   3.073
83004W        W54730  36.184  43.447   1.870
83005W        W54731  31.644  39.696  11.646
83006W        W54732  28.430  23.722   3.701
83007W        W54733   5.313  41.941   0.462
83008W        W54734  14.626  41.029   2.940
83009W        W54735  25.908  33.953  14.496
83010W        W54736   0.526  14.938   3.672
83011W        W54737  10.205  11.688  14.309
83012W        W54738  43.242  34.003  10.669
83013W        W54739   1.870  32.883   1.379
83014W        W54740  38.385  22.529  12.407
83015W        W54741  42.960  29.189   3.109
83016W        W54742   1.905   8.639   2.126
83017W        W54743   3.203  22.465  11.709
83018W        W54744  20.947  33.734   0.060
83019W        W54745  14.740  21.773  12.877
83020W        W54746  22.447  30.871   0.543
83021W        W54747  24.959  11.281  11.025
83022W        W54748   9.399  41.674  14.429
83023W        W54749  23.447  42.450   0.817
83024W        W54750  13.226  14.684   4.370
83025W        W54751  35.604  24.030   0.395
83026W        W54752  12.251  39.049   2.370
83027W        W54753   4.246  24.489   1.718
83028W        W54754  22.185  23.893   0.516
83029W        W54755  20.838  18.692   1.199
83030W        W54756   1.399  28.850   0.829
83031W        W54757  28.206  33.028   0.914
83032W        W54758  26.067  36.162   0.780
83033W        W54759  16.147  19.317   3.553
83034W        W54760   5.397  41.893   2.444
83035W        W54761   6.613  44.923   2.383
83036W        W54762  12.389  29.044  11.669
83037W        W54763  20.950  13.846  13.773
83038W        W54764  25.933  26.431  12.015
83039W        W54765  16.034  39.508   0.907
83040W        W54766  30.034  29.265   2.581
83041W        W54767  23.888  35.722   1.507
83042W        W54768  16.914  35.459  11.569
83043W        W54769  30.995   4.653   4.160
83044W        W54770  30.610  18.103  10.758
83045W        W54771   1.785   1.466  10.624
83046W        W54772  22.762  19.709  11.269
83047W        W54773  26.725  15.088  11.643
83048W        W54774   5.660  16.857   4.797
83049W        W54775  25.146  19.726  11.411
83050W        W54776  23.963  22.995  11.158
83051W        W54777  39.980   3.975   2.849
83052W        W54778  38.263  24.106   0.496
83053W        W54779   7.087   3.643   0.923
83054W        W54780  33.652   0.199  13.313
83055W        W54781  22.072  43.061   1.301
83056W        W54782   8.898  43.398  14.936
83057W        W54783  20.683   6.663  11.607
83058W        W54784  19.099  12.269  12.431
83059W        W54785  43.831   0.920   1.416
83060W        W54786  15.873  43.347  11.151
83061W        W54787  23.740  29.474   3.997
83062W        W54788  18.217   7.173  12.316
83063W        W54789  42.963  33.533   0.149
83064W        W54790  16.371  40.093  14.390
83065W        W54791   2.416  16.188  12.864
83066W        W54792   6.261  24.444  14.723
83067W        W54793  15.773   8.211   2.453
83068W        W54794  24.918  33.949   1.685
83069W        W54795   3.871   1.811  13.875
83070W        W54796  32.416  36.054   3.835
83071W        W54797   4.833   6.239   4.314
83072W        W54798   8.662  10.539  11.288
83073W        W54799  23.462  38.277  10.732
83074W        W54800  42.090  40.534  11.527
83075W        W54801   1.906   9.411  10.736
83076W        W54802  37.802  29.397  11.146
83077W        W54803  21.792   7.221  11.453
83078W        W54804  11.829  23.078  11.019
83079W        W54805  32.360  21.701   1.722
83080W        W54806   1.175   9.688  11.056
83081W        W54807  39.247  43.977   3.228
83082W        W54808  19.266  24.830   2.182
83083W        W54809  20.334  29.964  13.931
83084W        W54810  34.951  35.931   1.360
83085W        W54811  19.008  40.995   3.499
83086W        W54812  24.237  24.208   0.390
83087W        W54813  34.379  36.570  13.396
83088W        W54814  29.494   3.086   4.184
83089W        W54815  16.657   6.272  11.641
83090W        W54816   0.579   6.666   3.583
83091W        W54817  14.527  35.899   5.186
83092W        W54818  32.587  39.327   2.305
83093W        W54819  25.943  16.194  13.608
83094W        W54820  36.877  35.508   2.865
83095W        W54821  37.442  31.438   1.354
83096W        W54822   6.212  15.899   1.726
83097W        W54823  21.156  27.177  13.545
83098W        W54824  22.088  28.386  11.842
83099W        W54825   9.792  42.076  12.621
83100W        W54826  30.202  33.077  13.697
83101W        W54827   2.186   5.267   0.383
83102W        W54828  30.155  27.758  13.908
83103W        W54829   7.663   4.809   5.679
83104W        W54830  40.689   9.282   4.159
83105W        W54831  40.975  41.347  11.613
83106W        W54832  25.008  12.686   1.232
83107W        W54833  39.931  37.006   0.250
83108W        W54834  17.309  40.977   1.754
83109W        W54835  21.515  10.618   2.241
83110W        W54836  39.508  42.977  11.439
83111W        W54837  16.334  13.775  14.792
83112W        W54838  23.799  17.565   1.436
83113W        W54839  16.719  12.500   1.038
83114W        W54840  32.150   2.467  14.897
83115W        W54841  27.450  27.736   4.831
83116W        W54842  40.409  34.133   1.161
83117W        W54843  41.006   5.298  11.653
83118W        W54844  37.934  36.895   4.322
83119W        W54845   8.685  26.935  13.535
83120W        W54846  10.566  26.114   3.208
83121W        W54847  10.287  36.035  11.757
83122W        W54848  34.955  39.977   2.858
83123W        W54849  36.365  26.728   4.147
83124W        W54850  15.416  12.407  12.156
83125W        W54851  15.691  12.368  14.054
83126W        W54852   2.789  32.164   3.293
83127W        W54853  29.297  25.644   0.502
83128W        W54854   4.666  19.047  14.871
83129W        W54855  24.428  29.456  13.890
83130W        W54856  18.471  23.599  12.849
83131W        W54857   0.440  44.479  11.406
83132W        W54858  30.981  31.598  10.956
83133W        W54859  13.361  20.680  13.331
83134W        W54860  17.884   8.101   2.219
83135W        W54861  14.134  23.640   4.979
83136W        W54862  39.379   2.607   2.134
83137W        W54863  26.093  40.777   1.193
83138W        W54864  28.220  24.078  11.980
83139W        W54865  12.113  31.544  12.961
83140W        W54866  17.683   4.722   0.112
83141W        W54867  27.188  37.739   0.384
83142W        W54868  12.159  11.474  12.536
83143W        W54869  18.587  24.730  12.512
83144W        W54870  32.980  25.668  14.530
83145W        W54871  35.758  24.273  11.055
83146W        W54872  17.714   3.789  13.499
83147W        W54873  31.526  38.213  12.429
83148W        W54874  41.277  40.258   3.832
83149W        W54875  16.251  22.247  12.346
83150W        W54876  11.161  23.933   5.492
83151W        W54877   3.262  24.193  14.532
83152W        W54878  10.177  26.415  12.562
83153W        W54879  19.224   5.715   0.306
83154W        W54880   7.242  12.453  12.914
83155W        W54881  33.014   0.843  13.440
83156W        W54882   4.507   6.936   5.446
83157W        W54883  42.119  27.457  11.972
83158W        W54884  14.624  31.402  14.052
83159W        W54885  26.711  26.454  12.956
83160W        W54886  32.595  13.209   4.055
83161W        W54887   7.606  24.241   9.807
83162W        W54888   6.069  38.038   2.853
83163W        W54889  40.296  23.503  13.908
83164W        W54890  16.100  40.570  14.460
83165W        W54891  27.174  33.434   0.852
83166W        W54892  39.526  37.411   3.725
83167W        W54893  41.427   5.491   3.344
83168W        W54894  16.328  38.434   2.153
83169W        W54895   5.103  22.963   4.112
83170W        W54896  30.365  42.664  11.927
83171W        W54897  25.978  27.822   3.470
83172W        W54898  30.522  10.112  14.834
83173W        W54899   3.732   6.293  13.915
83174W        W54900  13.797  36.372  13.013
83175W        W54901  14.636  43.301  12.572
83176W        W54902  15.267  33.870  10.752
83177W        W54903  24.323  20.286  12.540
83178W        W54904  37.459  44.446  11.992
83179W        W54905  31.973  36.203   9.808
83180W        W54906  44.104   4.767  11.207
83181W        W54907  32.969  10.947  11.572
83182W        W54908  42.373  11.886   0.908
83183W        W54909  11.250  40.308  14.541
83184W        W54910  37.338  29.371   5.001
83185W        W54911  33.106  34.574   0.253
83186W        W54912  43.819  11.253  14.737
83187W        W54913  26.629  35.517  13.515
83188W        W54914   9.940  42.988   2.791
83189W        W54915  19.857  26.599  12.580
83190W        W54916  26.542  27.403  11.635
83191W        W54917  21.601  27.087   1.321
83192W        W54918  23.284  36.079   4.258
83193W        W54919   1.441   3.183   4.822
83194W        W54920  14.290  42.098  11.250
83195W        W54921  22.102   9.406   2.381
83196W        W54922  34.300  17.501   3.819
83197W        W54923  43.280  29.767  12.376
83198W        W54924   6.857  30.432   1.414
83199W        W54925  17.217  11.620  13.031
83200W        W54926  44.419  21.945  12.608
83201W        W54927  32.716  44.572   5.236
83202W        W54928  44.359  27.716  11.182
83203W        W54929  19.496   6.967   2.339
83204W        W54930  11.339  15.555  14.771
83205W        W54931  17.543  25.742   0.506
83206W        W54932  31.342  38.274   1.201
83207W        W54933  14.322  29.881  10.743
83208W        W54934   3.247  31.527  12.490
83209W        W54935   9.920   7.521   3.791
83210W        W54936  37.164  27.514   0.700
83211W        W54937  43.366  16.067  13.572
83212W        W54938  17.645   7.332   3.916
83213W        W54939  40.347  12.931  12.118
83214W        W54940  35.157  27.551   0.797
83215W        W54941  30.183  42.322  14.757
83216W        W54942  26.164  28.429  13.877
83217W        W54943  23.207  26.505   2.447
83218W        W54944  36.375  18.048   1.199
83219W        W54945  42.853  18.564  11.578
83220W        W54946  25.740   2.731   2.746
83221W        W54947   2.786  28.229  11.231
83222W        W54948  41.854   1.335  11.442
83223W        W54949  13.190  19.849   3.570
83224W        W54950  38.299  27.499  11.054
83225W        W54951   7.173   1.205   4.294
83226W        W54952  13.080  33.406  11.522
83227W        W54953   7.506   6.285   3.027
83228W        W54954   6.621  37.117  14.567
83229W        W54955  27.186  23.211   1.682
83230W        W54956  36.963  12.189   1.895
83231W        W54957  10.136  20.241   1.706
83232W        W54958  42.683  30.610  14.854
83233W        W54959  10.423  44.854  12.674
83234W        W54960   0.735  44.269   4.700
83235W        W54961  34.481   1.490  11.485
83236W        W54962   1.025  21.492  14.556
83237W        W54963  11.740   1.167  13.793
83238W        W54964   6.780  19.493  13.325
83239W        W54965  10.158  21.755   1.823
83240W        W54966  10.423  34.901   3.257
83241W        W54967  16.464  43.230   1.855
83242W        W54968   9.703  15.282   4.627
83243W        W54969  32.109  41.403   0.810
83244W        W54970  20.302   3.353   3.706
83245W        W54971  15.308  24.480   3.438
83246W        W54972  36.584  22.581  11.242
83247W        W54973  19.703  17.622  14.966
83248W        W54974  12.322  20.474   2.344
83249W        W54975  40.359  11.732   1.444
83250W        W54976  43.841   0.007   3.199
83251W        W54977   3.661  30.437  13.067
83252W        W54978  25.981  35.952   0.262
83253W        W54979  33.380  29.736   4.562
83254W        W54980  16.461   7.753  11.646
83255W        W54981   4.333  26.732  14.317
83256W        W54982  31.715   2.759  12.151
83257W        W54983   8.067  12.244  14.957
83258W        W54984  34.874  16.627  14.813
83259W        W54985  26.471  21.380   4.992
83260W        W54986  21.700   4.915   2.177
83261W        W54987  24.697  25.482   1.500
83262W        W54988   6.854  11.540  11.944
83263W        W54989  26.612  13.350   0.714
83264W        W54990   0.602  18.913   3.171
83265W        W54991  36.819  32.521   2.703
83266W        W54992   9.800  34.143   4.093
83267W        W54993  34.574   9.290   1.420
83268W        W54994  42.553   6.762   2.435
83269W        W54995  22.066  12.517   2.671
83270W        W54996  41.982  17.298  10.267
83271W        W54997  35.036  37.585   2.259
83272W        W54998  25.806  25.310  10.462
83273W        W54999  35.499  12.235  14.628
83274W        W55000  20.937  25.067   0.417
83275W        W55001  30.982  34.039  12.772
83276W        W55002  21.267  13.071   0.086
83277W        W55003  40.029  21.104   4.731
83278W        W55004  33.141   5.234   1.235
83279W        W55005   8.968  16.032   2.402
83280W        W55006   6.348  10.653  13.096
83281W        W55007  22.932  39.981  12.153
83282W        W55008  23.656   4.343  12.902
83283W        W55009  44.086   5.675   0.217
83284W        W55010  34.822  27.581  13.562
83285W        W55011   0.227  34.801  14.453
83286W        W55012  29.141  38.810   3.817
83287W        W55013  40.232  19.987   1.492
83288W        W55014  19.659  24.295  13.055
83289W        W55015  42.405   5.327  10.963
83290W        W55016   0.291  29.978   3.148
83291W        W55017  35.669  11.316  11.104
83292W        W55018  34.542   7.235   4.246
83293W        W55019  17.565  27.722   1.021
83294W        W55020   1.181  20.202  14.840
83295W        W55021  21.584  25.527   9.846
83296W        W55022  44.445   5.557   4.510
83297W        W55023  19.630  28.198   1.491
83298W        W55024  19.173   6.208   0.489
83299W        W55025  24.176  44.200   2.733
83300W        W55026  14.454  31.939  14.877
83301W        W55027  28.117  24.567  13.531
83302W        W55028  38.094  36.547  14.902
83303W        W55029  25.631  44.924  12.113
83304W        W55030  43.530  43.813   0.840
83305W        W55031  37.718  37.494  12.837
83306W        W55032   6.267  25.164  13.552
83307W        W55033  21.511  11.020   0.426
83308W        W55034  41.058  39.932  12.152
83309W        W55035  43.244   9.830   2.685
83310W        W55036  17.601  29.917  12.020
83311W        W55037   4.468   8.805  14.545
83312W        W55038  25.989  35.395  12.884
83313W        W55039  24.790  40.893   3.192
83314W        W55040  16.728   9.268  10.529
83315W        W55041  38.908  28.100  12.511
83316W        W55042   0.427  21.691   3.186
83317W        W55043  26.665   9.443   3.107
83318W        W55044   9.619  26.966  11.953
83319W        W55045  16.265   8.394   2.380
83320W        W55046  17.906   8.789  12.878
83321W        W55047  24.033  42.786   1.276
83322W        W55048  28.037  23.592  12.028
83323W        W55049  24.297  23.119  13.884
83324W        W55050  41.779  28.107  13.114
83325W        W55051  11.879  24.588  11.626
83326W        W55052  42.566  37.553  12.859
83327W        W55053  14.838  21.095  11.293
83328W        W55054  34.335  22.090  11.178
83329W        W55055  38.615  32.403   0.795
83330W        W55056  17.694  21.173   3.299
83331W        W55057  40.086  26.670  14.669
83332W        W55058  30.705   5.832  11.628
83333W        W55059  32.543   6.621   2.714
83334W        W55060  24.655  11.919  11.629
83335W        W55061  11.923  29.916   2.213
83336W        W55062  26.422   4.531  13.313
83337W        W55063  22.527  18.539  14.012
83338W        W55064  40.998  23.483   4.460
83339W        W55065  25.651  33.985  10.690
83340W        W55066  25.134   6.688  12.986
83341W        W55067   9.797  25.044  11.125
83342W        W55068   9.475  34.402   0.392
83343W        W55069  27.639   5.286   4.180
83344W        W55070   0.265  24.864   0.437
83345W        W55071  33.466  43.412  10.030
83346W        W55072   6.404  23.294   4.430
83347W        W55073  15.885   2.810   2.644
83348W        W55074  35.278  24.131   2.733
83349W        W55075   2.299  36.404  14.527
83350W        W55076   3.159  13.010   3.423
83351W        W55077  34.806  36.806  13.336
83352W        W55078   5.342  30.154   0.012
83353W        W55079  33.093   5.734   3.244
83354W        W55080  19.009  17.715  13.447
83355W        W55081  10.229  41.377  10.661
83356W        W55082  29.423  37.858   2.678
83357W        W55083   0.727  42.562   4.541
83358W        W55084  28.613  19.335   2.058
83359W        W55085  23.990  37.967  14.791
83360W        W55086  32.039  17.648  12.588
83361W        W55087  23.551   0.028  13.426
83362W        W55088   6.811  43.814   3.749
83363W        W55089   2.497  32.613  14.833
83364W        W55090   5.243  21.481   0.942
83365W        W55091  44.990  35.510   0.385
83366W        W55092  36.328  24.908  14.075
83367W        W55093  37.003   3.610   2.290
83368W        W55094  32.579   0.089  12.661
83369W        W55095  38.883  17.002   3.187
83370W        W55096   3.014  15.061   4.480
83371W        W55097  15.296  17.121  10.650
83372W        W55098  27.115  23.640   0.978
83373W        W55099  38.816   2.241  14.398
83374W        W55100  22.664  37.295   4.584
83375W        W55101  38.311  26.212  14.970
83376W        W55102  41.865  14.157   3.579
83377W        W55103   1.418  27.467  12.373
83378W        W55104  10.397   9.293   1.414
83379W        W55105  39.497  38.964  12.604
83380W        W55106   3.230  10.389  14.841
83381W        W55107  32.030  29.506  13.527
83382W        W55108  25.351  35.139   3.128
83383W        W55109  24.761  32.769   1.443
83384W        W55110  32.328  10.588  11.123
83385W        W55111  17.546  31.974  14.745
83386W        W55112   5.350  27.522   0.222
83387W        W55113  15.714  17.580  12.425
83388W        W55114  30.220  44.196   1.402
83389W        W55115  13.835   7.790   1.393
83390W        W55116  35.575  12.501  11.582
83391W        W55117   7.718  29.186  12.911
83392W        W55118   3.333   0.902   1.036
83393W        W55119  32.176  24.640  13.426
83394W        W55120   6.142  25.047  13.059
83395W        W55121  29.743  33.974   4.028
83396W        W55122   2.468  41.016   1.408
83397W        W55123  36.822  38.980  14.542
83398W        W55124   7.389   7.773   2.694
83399W        W55125  32.667  13.707   0.872
83400W        W55126  19.061  36.403   3.834
83401W        W55127  22.748   4.678  14.932
83402W        W55128  26.053  15.291   2.335
83403W        W55129  41.568   7.187   1.664
83404W        W55130  34.143  15.818   0.406
83405W        W55131  30.130  25.275   4.953
83406W        W55132  30.260   5.385   2.762
83407W        W55133  26.996  40.770  12.395
83408W        W55134  25.648   6.702   4.182
83409W        W55135   9.922  40.996   3.396
83410W        W55136  39.885   2.848   2.291
83411W        W55137  16.964  35.198  12.045
83412W        W55138  21.618   3.992  11.024
83413W        W55139   0.844   1.154  10.628
83414W        W55140  31.975  26.168  13.976
83415W        W55141  44.372  20.247  11.557
83416W        W55142  37.620  31.932  13.785
83417W        W55143  42.341  18.614   0.205
83418W        W55144  24.773  12.349   4.683
83419W        W55145  28.142   8.428   3.208
83420W        W55146   3.754  40.588  13.135
83421W        W55147  35.694  12.056  13.087
83422W        W55148  11.154   6.363   1.184
83423W        W55149  21.456  35.122   1.626
83424W        W55150  35.056   1.978   2.765
83425W        W55151  38.920  11.241  12.993
83426W        W55152  11.345   1.429   2.467
83427W        W55153  20.419  31.903  11.123
83428W        W55154  21.937  29.255   1.290
83429W        W55155   2.518  33.970   3.416
83430W        W55156   0.849   0.030   0.980
83431W        W55157   9.101  28.941   2.837
83432W        W55158  14.769  18.810   2.239
83433W        W55159  41.851  29.885  11.666
83434W        W55160   9.140   1.456  14.334
83435W        W55161  37.034  11.997   4.618
83436W        W55162  13.309  12.693   0.035
83437W        W55163  41.810  38.153  12.155
83438W        W55164  20.341   5.936  11.178
83439W        W55165  10.818   1.521   2.049
83440W        W55166   4.951  24.332  11.327
83441W        W55167  36.562  17.408  10.619
83442W        W55168  10.097  22.827   0.768
83443W        W55169  19.237  14.872  14.053
83444W        W55170  21.597  23.467   0.998
83445W        W55171  14.184  26.527  14.937
83446W        W55172  39.424  43.834   4.494
83447W        W55173  26.798  29.961  14.135
83448W        W55174  43.974  36.697   2.937
83449W        W55175  12.890  43.527  13.134
83450W        W55176  17.783  34.350  14.746
83451W        W55177  17.295  31.046   9.933
83452W        W55178  14.854  37.426   3.650
83453W        W55179  24.794  43.349   0.680
83454W        W55180  14.100  16.110  10.699
83455W        W55181  14.200   1.841   1.849
83456W        W55182   5.739  25.608   4.917
83457W        W55183  10.763  20.593  11.064
83458W        W55184   9.448   2.355   1.735
83459W        W55185  34.411  39.096  14.922
83460W        W55186  20.996  16.589   2.999
83461W        W55187  34.995  34.077   4.330
83462W        W55188  13.682  28.560   4.911
83463W        W55189  22.296   4.996  14.766
83464W        W55190  29.801  10.672   1.279
83465W        W55191  11.729   4.499  11.426
83466W        W55192   0.850  42.618   3.689
83467W        W55193  43.160  42.803  13.671
83468W        W55194   8.881  21.498  13.108
83469W        W55195  27.533  41.968  10.725
83470W        W55196   1.223  34.491   3.035
83471W        W55197  38.006  17.293  13.556
83472W        W55198  42.349  19.844   0.011
83473W        W55199  19.304  25.565  12.910
83474W        W55200  31.649  15.100   2.761
83475W        W55201  37.360  25.123   2.604
83476W        W55202  19.715  43.753  13.991
83477W        W55203  28.827  20.375   4.149
83478W        W55204  43.450   1.327  11.972
83479W        W55205  17.595  37.484  11.908
83480W        W55206   0.873  26.911  10.327
83481W        W55207   5.522  30.089  12.011
83482W        W55208  11.752  23.982   4.577
83483W        W55209  12.806   7.915   4.077
83484W        W55210  44.989  38.120   3.314
83485W        W55211   2.487  37.964  11.654
83486W        W55212  29.410   9.918  10.801
83487W        W55213  36.780  30.488   2.605
83488W        W55214  17.586  34.831   2.308
83489W        W55215  40.994  18.539   3.878
83490W        W55216   6.270   0.783  12.614
83491W        W55217  20.775   5.298   0.385
83492W        W55218   1.514  35.275   0.937
83493W        W55219  10.364  33.101  13.557
83494W        W55220  21.673  43.981   1.370
83495W        W55221  22.785  24.179   4.522
83496W        W55222  39.362  17.892  12.399
83497W        W55223  14.881  11.330  13.527
83498W        W55224  22.003  31.093  13.886
83499W        W55225  15.126  23.972   0.307
83500W        W55226   4.906  31.916  11.176
83501W        W55227  15.186  32.529  10.696
83502W        W55228  37.657  26.786   3.180
83503W        W55229  23.814  36.423  11.020
83504W        W55230   8.652  20.596  12.739
83505W        W55231  29.498   0.395   2.876
83506W        W55232  34.309  16.280  10.634
83507W        W55233  10.878  20.345   1.268
83508W        W55234  36.584   2.012   0.968
83509W        W55235  13.764  17.497   3.822
83510W        W55236  13.800  15.707  13.338
83511W        W55237  24.756  19.036   1.011
83512W        W55238  25.042  19.382  13.458
83513W        W55239   2.739  19.197  11.491
83514W        W55240  22.989  38.639  11.858
83515W        W55241  12.412  41.374   2.354
83516W        W55242  36.625  22.178   0.959
83517W        W55243  24.485  19.131  13.020
83518W        W55244  27.038  29.701   0.410
83519W        W55245   7.304  19.186   3.771
83520W        W55246  23.960   2.002   3.221
83521W        W55247   5.424  42.504  13.448
83522W        W55248  44.794  38.868  10.092
83523W        W55249  43.645  27.525  12.818
83524W        W55250  37.728  11.638  10.605
83525W        W55251  34.072  38.136   2.299
83526W        W55252  38.608   5.360   0.407
83527W        W55253  20.650   9.096   4.709
83528W        W55254   8.870  12.325  11.507
83529W        W55255  16.316  38.293   4.228
83530W        W55256  10.939   3.309   4.596
83531W        W55257  29.929  23.722  14.363
83532W        W55258  25.877  18.546   3.847
83533W        W55259  39.471  15.949  11.520
83534W        W55260  12.623   3.232   4.233
83535W        W55261   6.365   4.728  11.374
83536W        W55262   4.395  36.581  12.684
83537W        W55263   3.633  31.021  10.740
83538W        W55264  25.131  32.626  14.449
83539W        W55265  30.129  32.595   4.598
83540W        W55266  18.557  31.562  13.090
83541W        W55267   6.856  21.471  12.511
83542W        W55268  22.695  21.026   4.272
83543W        W55269  16.870  39.103  13.947
83544W        W55270   2.513  18.315  14.041
83545W        W55271  29.590   8.504   4.591
83546W        W55272  38.804  30.184  12.521
83547W        W55273  13.361  12.592   4.555
83548W        W55274  43.920  30.935  13.738
83549W        W55275  36.601   3.504   3.111
83550W        W55276  29.070  15.059  11.403
83551W        W55277   9.718  41.524  10.667
83552W        W55278  33.895  38.329  13.858
83553W        W55279   8.979  23.996  11.045
83554W        W55280  43.999   0.976   2.363
83555W        W55281  26.084  33.651  13.469
83556W        W55282  29.079  13.287  11.127
83557W        W55283  41.544  29.139   3.712
83558W        W55284  37.169  25.781  12.914
83559W        W55285  41.870  33.690  11.192
83560W        W55286   3.841  23.617  13.054
83561W        W55287  29.773  11.415   3.803
83562W        W55288  42.467   8.903  11.330
83563W        W55289  28.198  23.210   1.466
83564W        W55290  14.870  10.887   1.351
83565W        W55291   8.125  31.550   1.179
83566W        W55292  27.517   1.498   1.945
83567W        W55293   4.226  40.104   3.289
83568W        W55294  23.076  25.622   2.330
83569W        W55295  27.527  33.799   4.228
83570W        W55296   1.325  36.374   0.294
83571W        W55297  35.772   7.601  11.088
83572W        W55298  13.100   9.696  11.923
83573W        W55299  30.432  13.894   4.672
83574W        W55300  25.017  10.939   0.438
83575W        W55301  33.851   7.723  10.750
83576W        W55302  22.516  33.599  12.149
83577W        W55303  31.430  39.892  13.361
83578W        W55304  44.250   2.677  11.238
83579W        W55305   1.418  36.128   4.900
83580W        W55306  12.226   4.338  11.348
83581W        W55307  11.626  40.395  12.143
83582W        W55308  29.524  13.357   1.712
83583W        W55309  24.636  38.009   3.298
83584W        W55310  41.136   6.858  13.804
83585W        W55311  12.780  14.340  14.770
83586W        W55312  22.117   4.464   4.527
83587W        W55313   9.298  39.933   0.926
83588W        W55314  20.094  43.913   0.778
83589W        W55315  36.592  23.757  12.968
83590W        W55316  14.102  32.609   2.200
83591W        W55317  24.725  21.209   2.883
83592W        W55318   7.614  41.490  13.413
83593W        W55319   2.342  31.585   4.766
83594W        W55320   8.811   0.561  12.550
83595W        W55321  19.325  25.305  10.397
83596W        W55322   3.067  27.491  10.708
83597W        W55323   1.821  32.113   1.840
83598W        W55324   5.193   5.836   2.770
83599W        W55325  22.720  43.884  14.209
83600W        W55326  42.773  30.370   0.328
83601W        W55327   9.416  42.898   0.985
83602W        W55328   8.369  18.202  10.786
83603W        W55329   9.945   6.331  14.707
83604W        W55330  43.770  11.169  14.189
83605W        W55331  25.818  23.966   3.135
83606W        W55332  26.608  12.740  12.586
83607W        W55333  19.392  10.451  12.313
83608W        W55334  27.695  10.789   4.306
83609W        W55335  42.377  21.465   3.032
83610W        W55336  20.563  34.997  10.695
83611W        W55337  15.646  35.302   0.014
83612W        W55338  39.933   2.851   0.340
83613W        W55339  16.801  15.305   0.910
83614W        W55340  40.969  43.892   3.245
83615W        W55341  27.911  36.541  14.871
83616W        W55342  13.158  44.249  10.606
83617W        W55343  13.798  23.715   2.204
83618W        W55344  36.471  35.898  14.321
83619W        W55345   0.655   8.187   0.249
83620W        W55346  30.036  31.709   2.444
83621W        W55347  43.309  10.696  14.972
83622W        W55348   4.352  38.499  13.302
83623W        W55349   7.212  24.765   5.263
83624W        W55350  16.070   8.929   2.246
83625W        W55351  33.475  22.150  11.605
83626W        W55352  14.604  10.142   0.886
83627W        W55353  32.708  18.047   4.064
83628W        W55354  13.325  43.519   0.853
83629W        W55355  20.474   1.232   2.339
83630W        W55356  26.597  36.925   3.312
83631W        W55357  30.097  22.615  13.404
83632W        W55358  29.150  16.479  14.778
83633W        W55359  31.257   2.317  11.730
83634W        W55360   9.254  42.659   2.431
83635W        W55361  37.532  23.738   2.805
83636W        W55362  31.067   8.572  11.870
83637W        W55363   2.784   7.403   2.420
83638W        W55364   5.683   1.321   0.900
83639W        W55365  15.883  33.780   2.274
83640W        W55366   0.992  11.354  12.586
83641W        W55367  12.749  36.911  13.527
83642W        W55368  14.268  27.746   3.667
83643W        W55369  26.489   9.724   1.747
83644W        W55370  18.684  38.785  13.970
83645W        W55371   9.175  42.911  13.812
83646W        W55372  28.424  10.529  13.531
83647W        W55373  31.329  37.315   0.531
83648W        W55374  42.838  38.646   1.371
83649W        W55375  16.152  43.321  11.605
83650W        W55376  28.290  34.526   2.298
83651W        W55377  18.173  13.542  13.083
83652W        W55378  38.059  12.629   4.035
83653W        W55379  17.642  13.593  14.346
83654W        W55380   7.676  16.084   1.901
83655W        W55381  17.154   8.169  11.173
83656W        W55382  39.112  36.602   2.868
83657W        W55383   2.104  11.412   0.018
83658W        W55384   3.963  30.040  13.277
83659W        W55385  31.863  26.231  14.874
83660W        W55386  11.362  34.461  10.093
83661W        W55387  41.465  11.287   3.300
83662W        W55388  23.132  29.554  10.720
83663W        W55389  37.249  40.891  11.214
83664W        W55390  44.414  39.836   0.445
83665W        W55391  31.351   2.238  12.223
83666W        W55392  13.814   2.976   1.439
83667W        W55393  40.410  43.488  11.729
83668W        W55394  25.489  24.665  12.000
83669W        W55395   1.564  19.187   0.255
83670W        W55396  11.387   7.050   0.324
83671W        W55397  14.366  36.182   3.218
83672W        W55398   3.293  37.670  12.295
83673W        W55399  26.744  16.306  14.753
83674W        W55400   2.377   3.559   3.294
83675W        W55401  37.890  41.798   1.351
83676W        W55402  11.768  28.714  13.854
83677W        W55403  38.957  22.523   0.274
83678W        W55404   4.788  16.669  10.052
83679W        W55405  31.274  11.725   5.019
83680W        W55406   6.443  37.037   3.716
83681W        W55407  30.539  30.921   5.120
83682W        W55408  22.087  15.631  11.407
83683W        W55409  33.044  40.464  14.971
83684W        W55410  31.415  30.678  13.400
83685W        W55411  26.700  20.157  11.980
83686W        W55412  20.222  19.693   1.850
83687W        W55413  30.602  11.548  11.899
83688W        W55414   3.783  27.399   4.762
83689W        W55415  20.827  14.670  11.861
83690W        W55416   1.824  17.184  10.912
83691W        W55417  28.081   1.417  13.334
83692W        W55418   7.100  14.213  12.223
83693W        W55419  40.541   6.395   2.868
83694W        W55420  42.070  11.829  12.371
83695W        W55421   4.147   5.644   9.755
83696W        W55422  14.865  27.175   2.138
83697W        W55423  32.198  14.295  11.715
83698W        W55424  21.801  39.760  12.901
83699W        W55425   4.481  15.079  11.134
83700W        W55426  38.547  37.807   3.167
83701W        W55427   8.309   9.185  11.233
83702W        W55428  27.056  16.284   2.812
83703W        W55429   9.993   5.904   2.705
83704W        W55430   5.762  25.888   0.892
83705W        W55431   6.148   1.721  14.879
83706W        W55432  33.116  42.372   1.313
83707W        W55433  42.348  17.486   4.780
83708W        W55434  37.598   8.412  11.885
83709W        W55435  14.600  20.103   0.322
83710W        W55436  22.721  30.728  14.357
83711W        W55437  43.254  44.974  12.034
83712W        W55438  28.048  30.392  14.853
83713W        W55439   9.694  26.130   0.856
83714W        W55440  18.790  30.399  14.770
83715W        W55441  29.869  18.007  12.097
83716W        W55442   7.325  43.896   4.366
83717W        W55443  34.847   0.262   3.212
83718W        W55444  33.801  23.722  11.859
83719W        W55445  36.844  36.839   2.325
83720W        W55446   7.186  14.595  14.907
83721W        W55447  16.083  32.498  12.060
83722W        W55448  30.509  21.361   3.389
83723W        W55449  44.758  24.849   1.649
83724W        W55450  14.616   2.728   3.817
83725W        W55451   0.526   4.180   4.747
83726W        W55452  43.784  37.550   0.568
83727W        W55453   9.388   4.867   1.949
83728W        W55454  44.742  24.381   1.858
83729W        W55455  17.137  32.053  13.878
83730W        W55456  28.930   7.127  12.664
83731W        W55457  27.419   3.304  11.690
83732W        W55458  30.524  17.771  11.553
83733W        W55459   7.228   4.904  13.548
83734W        W55460  42.490  33.607   1.375
83735W        W55461  20.359  15.651  12.185
83736W        W55462   2.678  23.734   4.159
83737W        W55463   8.237  29.051   0.166
83738W        W55464  12.657  39.799   2.407
83739W        W55465  35.369  23.665   4.631
83740W        W55466  16.559  37.470  10.358
83741W        W55467  34.862   9.342  10.805
83742W        W55468  25.123  42.795  13.022
83743W        W55469   5.780  31.348  13.342
83744W        W55470  16.076  36.598   1.832
83745W        W55471  37.109  37.105   0.573
83746W        W55472  13.272  20.060  12.466
83747W        W55473  11.932  35.548   4.185
83748W        W55474  35.023  41.820   4.199
83749W        W55475   5.268  14.295  12.451
83750W        W55476  20.283  19.591  11.640
83751W        W55477  32.071  30.701  13.948
83752W        W55478  13.303  44.009  11.556
83753W        W55479  29.054  31.389   3.811
83754W        W55480  30.694   1.891  12.078
83755W        W55481  42.272  26.156   2.692
83756W        W55482  23.206  44.102  11.492
83757W        W55483   7.669  32.735   4.272
83758W        W55484  10.609  19.593   1.284
83759W        W55485  19.789  32.670   0.170
83760W        W55486  19.870   8.880  11.883
83761W        W55487  32.117  25.996   9.890
83762W        W55488  15.966  25.287   1.484
83763W        W55489  43.689   9.776  12.867
83764W        W55490   4.378  40.757  14.285
83765W        W55491  28.423   4.273  11.200
83766W        W55492  26.624   5.748   4.718
83767W        W55493  30.811   3.850  14.174
83768W        W55494  23.517  33.798  13.013
83769W        W55495   3.864   1.758   0.423
83770W        W55496  44.996  10.583   4.906
83771W        W55497   1.757  34.608   1.712
83772W        W55498  39.453  13.512   4.632
83773W        W55499  12.744  42.825  14.334
83774W        W55500  15.597  13.704  11.572
83775W        W55501  17.124   2.986   0.720
83776W        W55502  27.595  41.830  13.482
83777W        W55503  31.483   2.845   0.776
83778W        W55504  26.542  20.461   2.869
83779W        W55505  37.889  37.493  11.725
83780W        W55506   4.763  21.141  12.619
83781W        W55507  15.694  16.767   2.029
83782W        W55508  16.321  34.518   2.786
83783W        W55509  17.756  38.491  11.910
83784W        W55510   6.696   7.265   3.185
83785W        W55511  31.945   3.869   1.658
83786W        W55512  21.040  12.495  13.784
83787W        W55513  22.308  14.058  10.430
83788W        W55514  35.393  33.152   4.550
83789W        W55515   9.455  17.072   0.684
83790W        W55516  20.732  24.944   2.353
83791W        W55517  25.504  35.120  13.070
83792W        W55518  34.179  40.819  11.537
83793W        W55519  21.499   7.349   1.706
83794W        W55520  20.108  30.639   2.363
83795W        W55521  27.586  33.150   0.641
83796W        W55522  12.845  18.110   4.846
83797W        W55523  30.338  42.805   3.690
83798W        W55524  25.935  26.689  11.168
83799W        W55525  44.668  20.625  10.599
83800W        W55526  12.334  27.491   1.144
83801W        W55527   3.916  34.980  11.696
83802W        W55528  24.150  23.495   3.089
83803W        W55529   5.018   7.766   2.747
83804W        W55530  14.671  14.576  10.444
83805W        W55531  43.829   0.758   2.771
83806W        W55532  32.084   2.538  11.477
83807W        W55533  10.893   3.697  12.540
83808W        W55534  10.699  35.898  12.633
83809W        W55535  30.728  31.702  14.032
83810W        W55536  42.445  39.299   1.292
83811W        W55537   9.344   4.480   1.355
83812W        W55538   9.334  12.825   0.822
83813W        W55539  33.504   5.916  13.118
83814W        W55540   5.272  17.146   4.670
83815W        W55541  16.155  19.799  14.940
83816W        W55542  39.455  44.310  10.733
83817W        W55543  42.541  26.645   3.389
83818W        W55544  18.834  12.167   1.815
83819W        W55545  41.404  30.950  11.163
83820W        W55546  38.483  32.404  10.444
83821W        W55547  37.050   1.144   1.759
83822W        W55548   9.938  14.090  11.118
83823W        W55549  25.144   1.204   9.838
83824W        W55550  19.516   7.755  13.012
83825W        W55551  20.063  30.536   5.213
83826W        W55552  15.558  27.971  11.569
83827W        W55553  19.540  42.264   3.590
83828W        W55554   9.397  34.635  14.946
83829W        W55555   4.536  19.984  14.474
83830W        W55556  29.627  44.786  12.922
83831W        W55557   8.878  39.924   3.674
83832W        W55558  16.920   2.320   4.542
83833W        W55559   1.755  14.627  14.361
83834W        W55560  43.042  40.683   0.282
83835W        W55561   4.460  40.956   2.631
83836W        W55562  34.897   5.740  11.903
83837W        W55563  26.189  43.290   0.923
83838W        W55564  35.403  34.119  14.332
83839W        W55565  21.778  23.223  12.487
83840W        W55566   0.797  34.478   0.523
83841W        W55567  39.058  28.882   0.947
83842W        W55568  22.736   9.857   3.516
83843W        W55569  36.147  27.751   4.590
83844W        W55570   2.909  26.891   3.881
83845W        W55571   3.586  13.141   4.721
83846W        W55572  44.696  16.708   2.901
83847W        W55573  11.239  36.075  11.410
83848W        W55574  37.171   2.824  13.379
83849W        W55575  40.770  38.656  14.968
83850W        W55576  17.688  34.016  12.165
83851W        W55577   5.864  27.003   1.482
83852W        W55578  12.343  18.788  11.987
83853W        W55579  20.967  31.567   0.920
83854W        W55580  33.918  36.660   0.555
83855W        W55581   8.467   0.655   2.800
83856W        W55582  15.730  37.146  12.045
83857W        W55583  27.393  27.563   3.442
83858W        W55584  36.611  44.566   1.828
83859W        W55585  38.224  27.454  11.929
83860W        W55586   2.428   7.176  11.216
83861W        W55587   6.352  23.466   4.956
83862W        W55588  25.766   5.763   0.266
83863W        W55589  28.458   2.453   2.195
83864W        W55590  11.694  14.792   2.172
83865W        W55591  26.637  13.906  13.946
83866W        W55592  30.630  38.115   1.445
83867W        W55593  37.097   4.629  11.538
83868W        W55594  13.558   2.348   3.256
83869W        W55595   4.989  31.863   0.166
83870W        W55596   6.090  27.493   4.101
83871W        W55597  11.787  21.543   4.711
83872W        W55598  16.670   5.589   2.784
83873W        W55599  10.675   7.741  11.914
83874W        W55600  29.151  38.510  10.675
83875W        W55601  36.959  36.529  11.041
83876W        W55602  15.212  18.052   1.920
83877W        W55603  44.024  24.578  14.778
83878W        W55604   5.138  44.993   2.398
83879W        W55605  20.156  29.608  10.892
83880W        W55606  31.816   5.838   9.969
83881W        W55607  30.676   1.852   0.254
83882W        W55608   5.211  12.849   5.050
83883W        W55609  20.223  13.057   2.030
83884W        W55610  36.801  28.612   2.782
83885W        W55611  27.196  43.978  14.867
83886W        W55612  41.044  19.839   2.059
83887W        W55613   2.064  14.177  11.149
83888W        W55614   0.894  41.656   1.331
83889W        W55615  28.074  17.189  14.515
83890W        W55616  42.281  22.720  13.853
83891W        W55617  20.478  26.019  11.092
83892W        W55618  23.910  40.845  12.509
83893W        W55619  41.264  29.649  14.783
83894W        W55620   3.334  24.252  10.741
83895W        W55621  22.958   5.372   2.530
83896W        W55622  41.875  44.857   2.228
83897W        W55623   5.683  26.603   0.689
83898W        W55624   0.725   7.270  13.996
83899W        W55625   1.752  19.031  11.197
83900W        W55626  33.229   7.629  14.276
83901W        W55627   4.184  34.909  13.958
83902W        W55628   4.004  39.765   1.732
83903W        W55629  38.036   8.645   1.949
83904W        W55630  17.605  38.780  12.476
83905W        W55631  21.802   1.180  14.749
83906W        W55632  26.529  30.498  11.067
83907W        W55633  24.453  37.589  14.228
83908W        W55634  32.500  22.756   2.558
83909W        W55635  13.939  36.469   3.294
83910W        W55636  41.547   0.282   2.196
83911W        W55637  41.421  29.358   0.803
83912W        W55638  13.866   0.832  14.260
83913W        W55639  30.103  33.903   3.652
83914W        W55640   0.548  16.372   2.763
83915W        W55641  37.153  21.595   0.830
83916W        W55642  27.485  33.124   2.629
83917W        W55643  20.332   8.696   4.614
83918W        W55644  10.920   4.318   2.778
83919W        W55645  34.039  26.767   1.420
83920W        W55646  23.504  21.821  11.591
83921W        W55647  40.340  10.639  11.860
83922W        W55648  20.620  39.815   0.805
83923W        W55649  21.993   5.781   3.490
83924W        W55650  27.711  33.485   3.830
83925W        W55651  21.932   3.955   4.373
83926W        W55652   7.975  10.215   1.190
83927W        W55653  37.505  17.504   2.670
83928W        W55654   3.723  11.317   4.539
83929W        W55655  41.584   9.712   2.095
83930W        W55656   1.185  28.524  11.610
83931W        W55657  32.646  42.060  14.431
83932W        W55658  37.804   0.757   1.145
83933W        W55659  17.777  27.664   2.571
83934W        W55660  26.065  44.720  11.242
83935W        W55661  14.177  33.415   2.608
83936W        W55662   7.479  20.263   2.077
83937W        W55663  15.787   8.417  11.293
83938W        W55664  16.624  24.195  11.007
83939W        W55665  15.687  24.213   1.626
83940W        W55666   8.162  12.740  12.809
83941W        W55667   9.328  38.975   2.722
83942W        W55668  12.982   1.714  11.544
83943W        W55669  21.065  43.317  12.921
83944W        W55670  11.235   7.225   1.281
83945W        W55671  36.333  35.422  12.846
83946W        W55672  16.254  19.446   2.745
83947W        W55673  44.501  19.094  14.272
83948W        W55674  12.398  36.045   2.481
83949W        W55675  20.807  31.808   0.471
83950W        W55676  11.735  22.402  14.945
83951W        W55677  31.655  11.215  10.424
83952W        W55678   4.489  35.082   2.912
83953W        W55679   0.259  28.451   0.555
83954W        W55680   1.145   2.145   4.634
83955W        W55681  34.598  21.585  14.383
83956W        W55682  37.767   5.299  14.473
83957W        W55683   7.009  30.563   0.282
83958W        W55684  27.255   1.171  14.792
83959W        W55685  22.318  19.639   4.103
83960W        W55686  24.023  23.001   3.092
83961W        W55687   5.869  13.443   1.794
83962W        W55688  24.646  40.270   1.406
83963W        W55689  26.594  31.547   2.876
83964W        W55690  26.753   6.250  13.045
83965W        W55691  34.966  15.325   4.324
83966W        W55692  19.326  21.061   4.135
83967W        W55693   0.716  39.983   4.366
83968W        W55694  17.781  11.729  11.145
83969W        W55695  15.856  13.866  12.019
83970W        W55696   7.823  22.028   1.493
83971W        W55697  31.921  41.822  14.613
83972W        W55698  40.684  40.084  12.863
83973W        W55699  24.103   8.995   2.412
83974W        W55700   7.158   3.897  14.325
83975W        W55701  25.183  11.398   2.246
83976W        W55702   1.317  29.952   0.173
83977W        W55703   6.959  28.579   0.892
83978W        W55704  39.422   1.927  12.063
83979W        W55705  33.593  19.651  14.826
83980W        W55706   6.708  20.629   1.301
83981W        W55707  20.299  27.733  14.021
83982W        W55708  10.250  28.555  10.965
83983W        W55709  25.723  10.747   2.234
83984W        W55710  12.192   3.867   2.725
83985W        W55711  24.123  19.289   2.206
83986W        W55712  33.569  33.536   1.886
83987W        W55713   9.657  31.893  12.945
83988W        W55714  38.513   2.961  13.524
83989W        W55715  10.694  21.320  12.650
83990W        W55716  39.118  11.806   5.233
83991W        W55717   2.865  42.553   2.378
83992W        W55718  18.672  43.419  11.919
83993W        W55719  18.278  32.020  13.897
83994W        W55720  34.547  15.911  14.612
83995W        W55721   4.395  27.431   1.708
83996W        W55722   3.491  17.832  13.964
83997W        W55723  30.921  25.065  13.827
83998W        W55724  11.628  36.939   4.296
83999W        W55725  21.484  18.646   3.386
84000W        W55726  25.651   6.060   2.305
84001W        W55727  31.726  19.852   0.425
84002W        W55728  23.250  26.248  13.005
84003W        W55729  26.795  37.596   0.891
84004W        W55730   3.787  34.562   0.989
84005W        W55731  40.338   7.187  11.564
84006W        W55732  32.572  19.471  12.406
84007W        W55733   4.590   9.331   2.753
84008W        W55734  27.864  21.099   1.843
84009W        W55735   9.447   6.707  11.582
84010W        W55736  42.809  24.100   1.384
84011W        W55737  18.952  44.305   4.165
84012W        W55738   4.164  18.651  14.649
84013W        W55739  31.273  35.277  13.646
84014W        W55740  43.815   7.690   0.527
84015W        W55741  23.712  35.951   3.106
84016W        W55742  23.639  42.054   4.626
84017W        W55743  29.620  20.755   4.063
84018W        W55744  40.550   1.473  13.076
84019W        W55745  16.665  35.871  13.802
84020W        W55746  14.881   8.393  12.558
84021W        W55747  11.230   7.556   3.762
84022W        W55748  21.270  14.235  14.638
84023W        W55749   6.900  10.826   2.177
84024W        W55750   9.754  16.854   2.369
84025W        W55751  20.271  44.940   3.238
84026W        W55752  22.648  41.010   4.187
84027W        W55753   4.105  26.439  13.974
84028W        W55754  37.792  32.540  12.066
84029W        W55755  33.632  34.089  14.449
84030W        W55756   7.840  40.535  10.989
84031W        W55757   1.481  27.533  11.491
84032W        W55758  43.243  20.715   4.665
84033W        W55759   2.768   8.965   2.407
84034W        W55760  21.017  29.711  13.383
84035W        W55761  40.536  11.806   5.124
84036W        W55762  43.172   7.395  14.852
84037W        W55763   1.038  22.686   3.781
84038W        W55764  16.789  23.550  10.582
84039W        W55765  22.958  42.352  12.079
84040W        W55766   7.618  22.398   4.163
84041W        W55767  36.870   6.253  14.765
84042W        W55768  18.007   5.895  11.109
84043W        W55769  41.677   3.605   0.932
84044W        W55770  25.423  13.681   3.800
84045W        W55771  29.674  29.609  11.128
84046W        W55772  15.653  38.145  14.526
84047W        W55773  38.026   9.875  11.138
84048W        W55774  11.403   5.330  12.928
84049W        W55775  35.073  16.300  11.125
84050W        W55776  30.103  10.146   3.175
84051W        W55777  22.077   5.227   2.367
84052W        W55778  42.491  25.488  10.652
84053W        W55779   9.136  30.110   2.570
84054W        W55780  14.715  20.255  11.156
84055W        W55781  21.657  29.934  14.678
84056W        W55782  41.345  33.119  11.612
84057W        W55783  17.170   9.651   1.420
84058W        W55784  26.057  27.172  11.646
84059W        W55785  35.283  21.477  11.590
84060W        W55786  26.228   2.698  14.909
84061W        W55787  40.744   4.018  13.909
84062W        W55788  24.241  19.446  11.063
84063W        W55789   4.986  14.258  11.303
84064W        W55790  32.098  35.677   3.638
84065W        W55791  37.671  22.708   1.950
84066W        W55792   0.383  10.353  14.292
84067W        W55793  20.500  44.273  14.409
84068W        W55794   4.472  19.284   0.284
84069W        W55795  29.475  13.101   1.262
84070W        W55796  21.695  30.885  11.475
84071W        W55797  38.551  36.838  13.993
84072W        W55798  32.055  24.806   4.225
84073W        W55799  29.428  35.092   3.903
84074W        W55800  25.007   9.394   0.954
84075W        W55801  12.159   3.450   4.157
84076W        W55802  27.051  14.685   3.693
84077W        W55803  43.756  29.478  10.766
84078W        W55804  33.398  22.299   1.411
84079W        W55805   9.534  35.245  14.277
84080W        W55806  35.861  41.805   1.193
84081W        W55807  14.514  14.223   4.889
84082W        W55808  19.323   6.909  11.549
84083W        W55809   8.899   7.933   5.172
84084W        W55810  12.107  41.422  11.131
84085W        W55811  13.919  15.114   0.343
84086W        W55812  34.108  26.384   1.065
84087W        W55813  33.171  35.084  11.170
84088W        W55814  42.594  26.619  11.401
84089W        W55815  30.060   3.825  10.415
84090W        W55816  30.446  36.977  14.021
84091W        W55817  29.165  28.711  11.155
84092W        W55818   4.321  35.540   3.678
84093W        W55819  36.459  12.186   4.689
84094W        W55820  20.244  24.646   0.409
84095W        W55821  12.047  16.145  14.463
84096W        W55822  20.499  33.676  11.931
84097W        W55823   0.260   6.982  11.598
84098W        W55824  28.951   2.310   2.477
84099W        W55825  17.620  12.025  12.647
84100W        W55826   6.440  16.650   3.719
84101W        W55827   0.901   6.757   4.892
84102W        W55828  18.606   0.970   2.710
84103W        W55829   9.159  41.417   0.367
84104W        W55830  24.716   5.758   3.706
84105W        W55831  14.507   4.993  14.152
84106W        W55832  10.116  34.617   0.818
84107W        W55833  25.291  25.111  14.827
84108W        W55834  39.900  21.750   0.743
84109W        W55835   3.979   6.729  13.023
84110W        W55836   8.837  38.705   3.352
84111W        W55837  36.133  27.461   0.059
84112W        W55838  13.686  32.321   2.332
84113W        W55839   6.284  24.279  11.477
84114W        W55840  10.377  43.398   0.512
84115W        W55841   3.760   1.807  14.856
84116W        W55842  14.841  14.267  13.101
84117W        W55843  41.496  31.398  11.411
84118W        W55844   6.301  42.944   0.273
84119W        W55845  12.861  36.678  12.969
84120W        W55846   4.917  36.386   2.630
84121W        W55847   5.570  35.953  13.837
84122W        W55848   8.817   3.615  12.517
84123W        W55849  19.683  10.091   3.083
84124W        W55850  17.826  12.820   3.168
84125W        W55851  37.609  31.480   0.810
84126W        W55852   0.692   1.904  12.103
84127W        W55853   4.433  19.603   0.984
84128W        W55854   0.332   6.869   3.164
84129W        W55855  18.612  21.311   2.822
84130W        W55856  22.230  10.741  14.314
84131W        W55857  42.921  26.489  13.499
84132W        W55858   8.113  17.175   1.735
84133W        W55859   5.306  43.216   2.523
84134W        W55860  39.681  21.751   2.786
84135W        W55861  14.765  25.918  12.100
84136W        W55862  32.817  39.354   3.170
84137W        W55863   2.776  22.710  12.911
84138W        W55864  11.353   8.689  13.255
84139W        W55865  29.395  21.715  13.563
84140W        W55866   0.373   0.226   1.692
84141W        W55867  23.618  23.720  14.346
84142W        W55868  36.127  28.429  11.554
84143W        W55869  23.062  21.504   1.251
84144W        W55870  21.056  35.948  12.974
84145W        W55871  26.717  21.211  13.904
84146W        W55872   6.724  25.609  14.889
84147W        W55873  24.425  20.593   0.437
84148W        W55874  16.576  17.372  11.636
84149W        W55875  14.684  13.246  13.439
84150W        W55876  22.515  38.568  14.832
84151W        W55877  33.431   4.189  13.533
84152W        W55878   0.772  27.421   4.256
84153W        W55879  31.992  29.496  10.764
84154W        W55880  24.025  20.593   1.739
84155W        W55881  29.660  12.075  12.895
84156W        W55882   9.864  17.204   4.235
84157W        W55883  28.966  35.343   1.306
84158W        W55884  10.611  29.497  12.505
84159W        W55885  31.696  27.841  12.883
84160W        W55886  26.562   7.397  12.324
84161W        W55887  39.877   4.931  14.901
84162W        W55888   2.815   9.942   2.355
84163W        W55889  11.323  21.290   4.498
84164W        W55890  39.611  26.582  14.921
84165W        W55891  41.822  18.487   3.903
84166W        W55892   6.185   4.674  10.911
84167W        W55893   5.793  44.668  14.761
84168W        W55894  25.946  24.429  12.027
84169W        W55895   4.832  34.598  13.453
84170W        W55896  13.396  41.020   4.076
84171W        W55897  40.946   9.417  14.106
84172W        W55898  33.371  29.045  12.538
84173W        W55899  44.488  40.775   0.356
84174W        W55900   1.934  42.725  12.964
84175W        W55901  20.698  38.260  12.818
84176W        W55902   8.270  21.628   0.734
84177W        W55903  35.910  24.162  14.389
84178W        W55904  11.731  14.818  12.537
84179W        W55905  24.068   2.987  11.523
84180W        W55906  34.019  31.152   2.692
84181W        W55907   3.673  12.243  11.011
84182W        W55908  42.363  24.687  13.543
84183W        W55909   8.900   3.488  13.089
84184W        W55910  16.129  37.753  11.516
84185W        W55911  42.391   1.173  14.998
84186W        W55912  30.668  39.518  10.747
84187W        W55913  26.210  19.258  12.123
84188W        W55914  32.427  26.504  13.923
84189W        W55915  28.374  34.928  14.096
84190W        W55916   0.379  44.489  12.368
84191W        W55917  18.265  10.807   1.711
84192W        W55918  44.266  37.688   1.737
84193W        W55919  30.489  14.640  11.873
84194W        W55920  20.485  43.739  14.377
84195W        W55921  42.479  32.436  13.336
84196W        W55922  27.123  37.972  10.372
84197W        W55923  42.855  43.338  10.535
84198W        W55924   2.262  43.237   3.461
84199W        W55925  18.156  34.098  11.899
84200W        W55926  38.872  42.011  13.929
84201W        W55927  29.205  32.031   3.328
84202W        W55928  26.709  16.200  10.970
84203W        W55929  30.197   1.199  13.348
84204W        W55930   5.637  36.475  10.609
84205W        W55931  16.722  11.851  11.590
84206W        W55932  43.338  43.515  14.206
84207W        W55933   3.790  25.928  10.677
84208W        W55934  26.657  34.464  13.503
84209W        W55935   5.666  39.079  11.055
84210W        W55936   3.277  16.848  12.911
84211W        W55937  38.070   5.360   0.432
84212W        W55938  31.456  30.459  12.872
84213W        W55939   4.811  31.064   3.706
84214W        W55940  38.183  11.269  12.345
84215W        W55941  33.424  14.480   0.202
84216W        W55942  13.794  13.135   0.867
84217W        W55943  44.728  26.539  13.361
84218W        W55944  10.423  35.123  11.579
84219W        W55945  16.245  41.733   1.129
84220W        W55946   3.426  22.753  13.394
84221W        W55947  43.831  18.211  12.079
84222W        W55948  13.312  18.324   2.837
84223W        W55949  17.255  37.781   4.988
84224W        W55950   8.882  35.166   0.911
84225W        W55951   2.361   5.510   2.822
84226W        W55952  19.744  24.800   0.361
84227W        W55953   3.291  25.793   2.764
84228W        W55954  27.948   7.928   3.233
84229W        W55955  34.425  24.169   2.712
84230W        W55956   1.375   1.333  13.459
84231W        W55957  36.210  34.331  12.619
84232W        W55958  35.312   1.421  10.462
84233W        W55959  42.374   7.947  11.915
84234W        W55960  32.648  28.857  12.130
84235W        W55961  10.416  28.274   3.024
84236W        W55962   8.501   2.516   2.819
84237W        W55963   5.515  32.551   1.787
84238W        W55964  23.070   2.758  10.756
84239W        W55965  28.574  18.293   2.660
84240W        W55966   9.179  30.603   2.743
84241W        W55967  17.856   9.292  14.454
84242W        W55968   6.669   8.933   0.192
84243W        W55969   5.241  41.909  12.212
84244W        W55970  24.216   8.186   1.997
84245W        W55971  44.466  33.415  11.612
84246W        W55972   1.630  20.082   2.819
84247W        W55973  29.563  15.009   4.186
84248W        W55974  16.037  23.586   0.258
84249W        W55975   8.978   4.202   3.682
84250W        W55976   0.020  42.250  11.033
84251W        W55977  39.871  19.121  12.919
84252W        W55978  27.607  22.108   3.891
84253W        W55979  34.079  39.497  13.855
84254W        W55980  42.581  28.428   1.214
84255W        W55981  31.003  44.555   4.237
84256W        W55982  42.779  10.634   4.568
84257W        W55983  20.497   4.275   2.809
84258W        W55984  23.303  24.129   2.220
84259W        W55985  34.030  36.823  11.104
84260W        W55986  31.115  42.483  12.916
84261W        W55987  14.655  23.604  14.265
84262W        W55988  39.117  44.289   2.249
84263W        W55989  34.488  38.443   2.298
84264W        W55990   2.378  17.063   3.263
84265W        W55991  34.175   1.720   2.844
84266W        W55992  34.011  31.162  12.067
84267W        W55993  22.433  15.051  14.329
84268W        W55994  11.568  14.381   2.447
84269W        W55995  23.908  26.296  11.663
84270W        W55996  33.212   1.302   1.445
84271W        W55997  14.704  28.233   0.419
84272W        W55998  23.540   2.961   3.860
84273W        W55999  15.153  25.301  12.844
84274W        W56000   7.304  42.415  14.794
84275W        W56001  34.545   5.867   3.263
84276W        W56002  31.837   2.089  13.507
84277W        W56003  42.916  31.244   5.084
84278W        W56004   7.406   5.798   5.002
84279W        W56005  42.972  31.250  12.934
84280W        W56006  40.065  30.143  12.883
84281W        W56007  39.089   3.494   0.882
84282W        W56008  13.157  28.245   0.749
84283W        W56009  30.931  31.571  10.456
84284W        W56010  42.294  27.033   3.602
84285W        W56011  18.929  35.477   2.872
84286W        W56012  39.121  25.154   3.435
84287W        W56013  39.556  35.731  12.499
84288W        W56014  29.909  20.736   4.505
84289W        W56015  15.295  34.858   4.010
84290W        W56016  42.965  30.395  14.465
84291W        W56017   9.982  28.997  14.430
84292W        W56018   8.984  25.616   0.287
84293W        W56019   8.057  31.012   3.278
84294W        W56020  16.049   4.481  11.674
84295W        W56021  35.466   7.758   0.791
84296W        W56022  14.801  11.180   0.913
84297W        W56023  16.570  21.762  12.532
84298W        W56024  15.009  16.871   1.353
84299W        W56025  18.971   9.311   0.393
84300W        W56026  37.496  20.016   0.538
84301W        W56027  22.577   7.131   3.778
84302W        W56028  30.832  32.187   0.264
84303W        W56029  21.558  10.219   1.886
84304W        W56030   8.356  43.293   3.271
84305W        W56031  20.282  25.667  11.637
84306W        W56032  20.096  31.971  14.944
84307W        W56033  12.416  10.231  11.502
84308W        W56034   2.725  30.596   0.472
84309W        W56035  43.308  20.615  12.117
84310W        W56036  43.076  13.166  12.319
84311W        W56037  16.116  36.462  14.943
84312W        W56038   5.621  23.789  13.877
84313W        W56039  41.489   8.269   4.391
84314W        W56040  36.768  33.104   3.530
84315W        W56041  44.785  34.352  12.338
84316W        W56042   9.945  14.600  12.077
84317W        W56043  10.848  26.230  13.909
84318W        W56044   9.873   1.473  12.915
84319W        W56045   0.745  20.313  11.069
84320W        W56046   7.626  34.184   3.324
84321W        W56047  19.827  18.608  11.442
84322W        W56048  12.699  36.847   3.807
84323W        W56049  22.119  33.081  11.583
84324W        W56050  40.495  25.114  12.197
84325W        W56051  33.477  29.193   2.757
84326W        W56052  31.680  27.388   4.212
84327W        W56053   8.612  17.067  11.050
84328W        W56054  16.833  10.787  13.532
84329W        W56055   2.144  12.275  13.349
84330W        W56056   4.277  15.102  13.505
84331W        W56057   6.020  20.028  14.380
84332W        W56058  13.308  34.517  14.729
84333W        W56059  14.677  15.302   2.372
84334W        W56060   9.373  43.983  11.995
84335W        W56061  38.329  31.990  12.569
84336W        W56062  28.306   4.087  14.989
84337W        W56063   6.714  41.894   1.726
84338W        W56064  40.365  17.518   9.513
84339W        W56065   2.868  39.334   1.858
84340W        W56066  35.597  14.294   2.712
84341W        W56067  29.089  13.803   2.361
84342W        W56068   0.200  44.737   1.527
84343W        W56069  12.793  30.383  12.974
84344W        W56070  28.846  41.025   1.881
84345W        W56071  34.243  22.113   1.621
84346W        W56072  42.407  34.191  12.848
84347W        W56073  17.273   2.126   4.217
84348W        W56074  11.259  44.560  11.036
84349W        W56075  44.329  35.950   1.411
84350W        W56076  29.391  21.695   1.113
84351W        W56077  38.344  14.899  11.522
84352W        W56078  12.299  11.366   4.670
84353W        W56079   2.479  12.687   3.776
84354W        W56080   9.446  26.420   3.767
84355W        W56081  37.753  24.731  11.067
84356W        W56082  33.565   9.767  12.044
84357W        W56083  23.184   4.177   3.162
84358W        W56084   9.552  14.182  10.097
84359W        W56085  39.417  34.900  10.291
84360W        W56086   2.488  35.065   1.203
84361W        W56087  41.300   6.568   3.367
84362W        W56088  24.543  43.399  14.654
84363W        W56089  22.634  17.879   2.419
84364W        W56090  28.936   0.247   2.778
84365W        W56091  37.108   9.854  12.014
84366W        W56092   4.052  22.481  12.652
84367W        W56093  20.154  28.280  14.054
84368W        W56094  21.280  31.526   2.798
84369W        W56095  29.315  37.536  11.611
84370W        W56096  37.776  35.629   0.349
84371W        W56097  41.526  20.954   3.708
84372W        W56098  44.745  11.225  13.994
84373W        W56099  43.770   4.408  10.946
84374W        W56100  14.162  25.784   3.724
84375W        W56101  10.885  14.334  12.658
84376W        W56102  43.883  30.642  10.628
84377W        W56103  19.306   9.590  11.700
84378W        W56104  30.740  26.013   4.655
84379W        W56105  43.573  28.857  11.630
84380W        W56106  28.638  35.570  13.577
84381W        W56107  14.357   6.305   3.686
84382W        W56108   4.896  17.090  13.833
84383W        W56109  14.892  40.795  12.003
84384W        W56110   5.682  44.504   4.864
84385W        W56111   6.374  11.562  11.750
84386W        W56112   6.180   3.434   0.977
84387W        W56113  27.285  26.207   3.287
84388W        W56114  42.702  32.919   4.227
84389W        W56115  31.167  26.958   2.688
84390W        W56116  21.839  42.787   3.572
84391W        W56117  17.762  17.203  12.376
84392W        W56118  42.573   1.233  12.509
84393W        W56119  34.624  27.171  13.787
84394W        W56120  14.230   8.913   4.515
84395W        W56121  35.461  41.562   4.085
84396W        W56122  31.128   9.077  14.710
84397W        W56123  15.352  29.001  10.929
84398W        W56124  19.369  10.023  12.032
84399W        W56125   8.148  13.472  12.542
84400W        W56126  32.485  23.735   2.778
84401W        W56127  15.155  38.103   9.791
84402W        W56128  24.108  23.277   4.610
84403W        W56129  29.661  10.140  14.486
84404W        W56130  31.616  30.863   0.264
84405W        W56131  32.721  24.307   5.522
84406W        W56132   4.517  43.031   0.646
84407W        W56133  41.167  28.006  13.912
84408W        W56134  41.457  41.779  12.628
84409W        W56135  34.844  42.595  10.668
84410W        W56136  33.486  24.090   1.938
84411W        W56137  32.619  21.006  12.530
84412W        W56138  31.985  24.659   4.731
84413W        W56139  18.847  28.355  10.903
84414W        W56140  37.125   6.963  13.097
84415W        W56141  26.138   5.825  10.894
84416W        W56142  35.169  32.932   3.734
84417W        W56143  15.652   1.504  12.234
84418W        W56144  26.724  15.398   2.871
84419W        W56145   7.243  11.634  14.902
84420W        W56146  29.544  30.330  13.410
84421W        W56147  24.777  11.932   3.762
84422W        W56148  41.602  22.612   0.916
84423W        W56149   8.750  18.483  10.539
84424W        W56150  27.233  32.351   2.596
84425W        W56151  41.407  21.629  11.651
84426W        W56152  35.901  40.788  12.954
84427W        W56153  22.314  12.763  12.475
84428W        W56154  11.485   3.737  10.737
84429W        W56155  20.545  27.642  14.528
84430W        W56156   1.954  24.742   3.676
84431W        W56157  38.952   8.347  12.627
84432W        W56158  22.710  28.924   3.271
84433W        W56159  34.625   2.450  13.389
84434W        W56160  21.109  30.055   2.386
84435W        W56161  40.684  33.231   1.372
84436W        W56162  37.958  35.272  10.697
84437W        W56163  39.641  39.490  13.387
84438W        W56164   9.418   8.938  11.291
84439W        W56165  36.403  37.905   0.402
84440W        W56166  11.906  16.019   0.514
84441W        W56167  37.419  23.542  11.635
84442W        W56168  25.429  20.674   4.501
84443W        W56169  18.744  42.964  12.156
84444W        W56170   7.174  31.912  11.818
84445W        W56171  42.521  39.963  13.960
84446W        W56172  10.656  41.588  11.638
84447W        W56173  11.260  42.948   3.865
84448W        W56174  26.490   0.439   2.634
84449W        W56175  21.229  37.820   4.582
84450W        W56176  15.256  42.437  10.442
84451W        W56177  28.481  43.755   2.630
84452W        W56178  23.600  27.384  11.546
84453W        W56179  13.312  19.725  10.332
84454W        W56180  20.277  13.988   3.278
84455W        W56181  33.788  22.498   2.923
84456W        W56182  31.510  31.659  13.324
84457W        W56183   2.336  39.783   0.708
84458W        W56184  28.555  41.540   1.231
84459W        W56185  22.992  17.341  14.865
84460W        W56186  39.613  19.246   3.422
84461W        W56187   7.446  38.839   3.432
84462W        W56188   1.517  44.448   1.795
84463W        W56189  30.053  42.517   2.763
84464W        W56190  11.123  38.042  12.024
84465W        W56191  41.290  21.032  11.888
84466W        W56192  43.720  33.510  10.017
84467W        W56193   9.330  18.036  12.229
84468W        W56194   1.017  42.973   4.659
84469W        W56195  33.635   9.323   1.544
84470W        W56196   9.238  18.178   1.870
84471W        W56197  10.293  24.181  10.936
84472W        W56198  18.326  41.419  10.755
84473W        W56199  18.065  21.825  10.714
84474W        W56200  35.064   2.918   0.838
84475W        W56201  35.057   2.358  14.333
84476W        W56202  42.805  29.660  13.164
84477W        W56203  12.662  15.107   1.072
84478W        W56204   1.423   1.886  13.109
84479W        W56205  36.582  42.764   2.147
84480W        W56206  38.968   5.214  12.478
84481W        W56207   9.758   3.705   4.527
84482W        W56208  26.538  24.057  11.123
84483W        W56209  36.848  37.543   1.914
84484W        W56210  23.104   5.437   1.182
84485W        W56211  14.650  14.997  13.771
84486W        W56212  40.885  29.020   4.959
84487W        W56213  26.279  33.598   0.683
84488W        W56214  12.242  22.873   3.866
84489W        W56215   9.901  26.544   4.161
84490W        W56216  27.932  44.960   4.598
84491W        W56217   0.549   4.314  11.976
84492W        W56218  15.552  18.664  10.500
84493W        W56219  33.042  36.917  13.434
84494W        W56220  20.690  27.200   4.256
84495W        W56221  31.005  36.402   1.140
84496W        W56222   3.080  29.563  14.688
84497W        W56223  32.915   3.961   2.689
84498W        W56224   5.283  18.965  14.365
84499W        W56225  36.363   7.260   4.680
84500W        W56226  37.869  15.719   3.233
84501W        W56227  39.926  40.573   4.506
84502W        W56228   3.649  18.100  14.398
84503W        W56229  36.306   9.854   0.438
84504W        W56230  14.081  44.768  10.621
84505W        W56231  15.308  36.320   1.268
84506W        W56232  32.030  39.453  11.366
84507W        W56233  29.507  24.148   5.492
84508W        W56234   1.152  43.595   3.708
84509W        W56235  19.979  16.125  13.800
84510W        W56236  40.027  32.487  14.989
84511W        W56237  29.191  20.799  12.185
84512W        W56238  23.252  17.827   0.005
84513W        W56239  32.979  20.789   0.498
84514W        W56240   8.866   1.344   1.292
84515W        W56241   3.184  26.566   1.448
84516W        W56242   8.102  30.450   4.073
84517W        W56243  41.052  37.094  12.924
84518W        W56244  24.959  39.460  13.153
84519W        W56245   6.072  34.499  11.091
84520W        W56246  37.869  39.493   0.841
84521W        W56247  14.121  29.441   4.170
84522W        W56248  32.348  12.720  11.089
84523W        W56249  15.712  42.529  14.785
84524W        W56250  10.249  30.639  12.897
84525W        W56251   5.223   6.259   2.438
84526W        W56252  16.314  30.409  14.775
84527W        W56253  31.107   3.713   2.867
84528W        W56254   3.083   3.219  11.814
84529W        W56255  27.157  43.842   3.355
84530W        W56256  14.829  18.715  13.507
84531W        W56257  29.441  14.105  12.152
84532W        W56258  28.604   6.855  11.126
84533W        W56259  41.353  26.059  11.708
84534W        W56260  39.424  24.931  14.254
84535W        W56261  16.861   9.077  11.519
84536W        W56262  40.524  10.148   1.468
84537W        W56263  14.303   4.860   0.656
84538W        W56264  22.560  30.650  12.598
84539W        W56265  31.117   0.565   2.144
84540W        W56266  28.734   2.407  12.393
84541W        W56267   3.772  29.552   0.246
84542W        W56268  10.305   9.749   4.161
84543W        W56269   6.031   7.830   2.801
84544W        W56270   8.328  10.738   4.807
84545W        W56271   0.362  16.003  14.366
84546W        W56272  27.523  22.021   2.827
84547W        W56273  14.154   7.089   3.324
84548W        W56274  12.133  27.514   0.595
84549W        W56275  12.100  39.970  10.990
84550W        W56276   1.403  20.972   2.816
84551W        W56277  30.613   1.348  14.094
84552W        W56278  14.054  31.106  12.980
84553W        W56279   3.792  33.038  12.093
84554W        W56280  44.190   2.336   1.646
84555W        W56281   0.195  15.701   2.295
84556W        W56282   1.561   2.938   2.648
84557W        W56283  19.441  40.530   0.317
84558W        W56284  19.775  25.197  10.736
84559W        W56285  20.890   8.236   0.734
84560W        W56286  20.987  23.168  11.266
84561W        W56287  31.359   9.713  10.304
84562W        W56288  29.601   4.711  11.330
84563W        W56289   9.257   1.042   4.326
84564W        W56290   4.300  39.904  13.465
84565W        W56291  31.226  13.393   3.691
84566W        W56292   2.929  28.048  10.767
84567W        W56293  31.478  25.698   3.689
84568W        W56294   4.352   7.486   2.954
84569W        W56295   0.223  32.427  13.861
84570W        W56296  19.047  23.501  11.660
84571W        W56297  43.463   9.573   2.249
84572W        W56298  20.031   5.274   2.429
84573W        W56299   5.367  25.017   3.287
84574W        W56300  10.221  42.595   2.655
84575W        W56301   8.199  23.997   1.936
84576W        W56302  30.116  27.276   0.896
84577W        W56303  35.738  36.725  12.429
84578W        W56304  24.440  25.532   2.001
84579W        W56305  37.797  27.474  10.226
84580W        W56306   8.254   0.440  14.008
84581W        W56307   0.235  30.495   3.860
84582W        W56308  16.876  35.557   4.776
84583W        W56309   4.812  19.096   1.488
84584W        W56310  21.493  37.347   4.579
84585W        W56311  44.789  10.687   2.917
84586W        W56312  34.085  26.563   2.860
84587W        W56313  28.750  31.013  12.945
84588W        W56314  35.549   1.281  14.023
84589W        W56315  37.857  20.551   0.648
84590W        W56316  19.008  30.631   0.983
84591W        W56317  20.581   1.302   1.843
84592W        W56318   8.526  31.468   1.491
84593W        W56319  25.768  44.716   3.146
84594W        W56320  30.566  30.061   4.398
84595W        W56321  11.141   0.269  11.585
84596W        W56322  18.512   6.740   0.813
84597W        W56323   1.871   1.137   1.364
84598W        W56324   9.835  21.156  12.940
84599W        W56325  18.131  39.610   2.713
84600W        W56326  33.038  44.193  10.008
84601W        W56327  44.795  39.505   4.500
84602W        W56328  13.785  30.145   1.397
84603W        W56329  23.294  21.734   0.339
84604W        W56330  17.573   5.229   3.274
84605W        W56331  24.550  32.342   2.280
84606W        W56332   2.424  19.459  12.541
84607W        W56333   9.833  42.922   1.812
84608W        W56334  19.984  17.175  14.847
84609W        W56335   2.454   2.764  14.917
84610W        W56336  38.412  33.182  13.119
84611W        W56337  32.703  17.737   4.627
84612W        W56338  43.363  37.884  12.977
84613W        W56339   4.842  12.485   0.722
84614W        W56340  26.662   1.762  11.334
84615W        W56341  26.344  31.007   4.223
84616W        W56342  20.792  21.458  12.929
84617W        W56343  44.711  23.614  13.477
84618W        W56344  25.560  43.797   3.099
84619W        W56345  29.486  21.235  10.174
84620W        W56346  19.542  15.524   1.771
84621W        W56347   7.740  12.374  13.146
84622W        W56348   2.699  39.409   1.360
84623W        W56349  15.685  28.961  14.462
84624W        W56350  12.496   3.728  13.455
84625W        W56351   5.327  20.899  12.049
84626W        W56352  40.854  19.492  12.956
84627W        W56353  39.456   8.098   1.874
84628W        W56354   6.327  14.819   1.886
84629W        W56355  14.328  33.593   1.158
84630W        W56356  14.141  12.250   2.776
84631W        W56357   7.356  18.594  11.302
84632W        W56358  37.381  42.716   5.002
84633W        W56359   5.258  17.107   0.498
84634W        W56360  24.791  34.965   0.752
84635W        W56361   1.010  31.139   2.202
84636W        W56362  28.998  36.123   3.334
84637W        W56363   1.408   1.470  12.408
84638W        W56364  41.922  29.729  14.052
84639W        W56365  10.823  17.552  11.140
84640W        W56366  21.643  15.601   3.326
84641W        W56367  33.996  44.417   2.226
84642W        W56368  19.990  26.114   4.220
84643W        W56369  44.159   1.756  10.822
84644W        W56370  30.551  43.938  11.116
84645W        W56371   8.364  36.888   2.188
84646W        W56372  37.320   3.784  13.786
84647W        W56373   9.717  34.301  10.618
84648W        W56374  29.547   3.734   1.879
84649W        W56375  28.361  25.839  11.597
84650W        W56376  13.755  30.322   0.872
84651W        W56377   3.899   1.284   1.376
84652W        W56378   3.371  28.887   0.490
84653W        W56379   3.461  42.500  12.046
84654W        W56380  24.007  40.918  14.004
84655W        W56381  23.465  27.050   3.601
84656W        W56382  33.052  18.046   3.001
84657W        W56383  39.237  15.248   2.868
84658W        W56384  26.096  20.026   2.415
84659W        W56385  21.691  16.830   0.427
84660W        W56386   7.289   4.830   3.457
84661W        W56387  38.913  27.069   1.386
84662W        W56388  44.543  43.812   4.459
84663W        W56389  33.356  13.130  13.125
84664W        W56390   4.002  21.098   4.942
84665W        W56391  38.117  20.482  13.551
84666W        W56392  36.545  36.817  11.140
84667W        W56393   3.543  19.685  10.502
84668W        W56394  41.042   6.282   2.965
84669W        W56395   6.892  33.892  10.862
84670W        W56396  24.425   3.122  13.321
84671W        W56397   1.948  44.544  14.764
84672W        W56398  14.584   1.299   3.396
84673W        W56399  43.713  28.519   4.415
84674W        W56400  20.901  37.810   0.736
84675W        W56401   4.110  16.060  10.788
84676W        W56402  24.911  10.286  12.058
84677W        W56403  29.898   3.788  12.967
84678W        W56404  13.464   3.819  11.615
84679W        W56405  29.991  43.004  12.181
84680W        W56406  40.003  44.309  14.121
84681W        W56407  13.736  18.542   3.798
84682W        W56408  29.963  19.274  10.669
84683W        W56409   5.768   6.779   0.251
84684W        W56410   9.613  39.033   3.639
84685W        W56411  32.123   4.886  12.979
84686W        W56412  36.823  19.505   4.173
84687W        W56413  19.945  19.515   5.012
84688W        W56414   1.993  36.089  12.986
84689W        W56415  31.380  21.612   2.878
84690W        W56416  14.825  32.657   3.823
84691W        W56417  15.827  17.359   0.925
84692W        W56418   5.375  21.115   0.573
84693W        W56419  32.203   1.298   1.296
84694W        W56420  13.841  37.416  12.987
84695W        W56421   3.030  44.322   1.887
84696W        W56422   3.676   6.947   0.253
84697W        W56423  18.409   5.351  14.281
84698W        W56424   3.740  42.900   3.632
84699W        W56425  39.579   5.866  12.990
84700W        W56426   1.060  37.498  11.212
84701W        W56427  15.858  22.528  13.510
84702W        W56428  40.650   3.412  13.992
84703W        W56429  21.303  41.897   1.886
84704W        W56430  41.537  41.573  10.787
84705W        W56431  29.421  15.465  13.995
84706W        W56432  20.127  42.818  10.793
84707W        W56433   3.967  24.745  11.142
84708W        W56434  30.694  12.391  12.440
84709W        W56435  32.516  22.202   1.704
84710W        W56436  16.566  25.522   4.406
84711W        W56437  12.094  25.103   3.369
84712W        W56438  35.926  17.204   4.458
84713W        W56439   1.190  34.051   1.283
84714W        W56440  41.028  30.688   1.138
84715W        W56441  22.021   8.659  11.073
84716W        W56442  44.582  32.117  12.181
84717W        W56443  44.500  33.133   2.756
84718W        W56444  11.693  26.932  14.521
84719W        W56445  44.554  44.512  12.969
84720W        W56446  31.483  42.138   0.784
84721W        W56447  14.059  16.037  12.441
84722W        W56448   2.289  38.337   1.224
84723W        W56449  17.712   0.022  11.969
84724W        W56450  26.203  22.049   3.722
84725W        W56451  37.966  32.032  11.453
84726W        W56452  44.378   9.902   4.988
84727W        W56453  44.533  37.056   0.429
84728W        W56454  16.603  10.517  12.429
84729W        W56455  41.516  32.109  10.762
84730W        W56456  44.428  11.054  12.918
84731W        W56457  13.875  39.610  12.066
84732W        W56458   5.402  37.529  11.278
84733W        W56459  17.709  17.140   2.334
84734W        W56460  32.503  19.260   1.933
84735W        W56461  14.802  15.851  14.046
84736W        W56462  14.131   5.038   3.178
84737W        W56463   1.268  35.940  13.621
84738W        W56464  40.306  44.363   4.598
84739W        W56465   4.000  30.568   0.494
84740W        W56466  42.120  19.585  13.665
84741W        W56467  23.231   7.230  11.930
84742W        W56468   7.193   3.081  14.636
84743W        W56469  23.293  19.117   0.660
84744W        W56470  13.614  14.385  12.167
84745W        W56471  23.726  40.412  12.020
84746W        W56472  19.587  38.279   0.079
84747W        W56473  39.953  15.014   1.446
84748W        W56474  40.249   5.291   2.296
84749W        W56475   2.855  44.569  13.076
84750W        W56476   1.489  24.467   1.244
84751W        W56477   8.599   2.333  12.138
84752W        W56478  25.399   5.225  12.794
84753W        W56479   1.159  39.503   4.005
84754W        W56480  26.368  11.850   1.658
84755W        W56481   0.394  43.836   1.189
84756W        W56482   7.631   3.945  10.662
84757W        W56483  18.040  44.335  12.435
84758W        W56484  42.750  27.204  12.990
84759W        W56485  21.251   3.705  14.755
84760W        W56486   8.621  34.898   1.711
84761W        W56487  13.175  14.734  12.107
84762W        W56488  20.028   6.839  13.835
84763W        W56489  21.188  27.988   3.956
84764W        W56490   2.712  26.290   1.355
84765W        W56491  25.627  23.172  12.115
84766W        W56492   1.611  29.063  13.533
84767W        W56493  43.859   2.359  11.191
84768W        W56494  22.149  20.767  12.933
84769W        W56495  36.968   3.258   1.850
84770W        W56496  10.791  36.836   0.444
84771W        W56497  39.324  32.225  13.052
84772W        W56498   0.508   3.383  13.960
84773W        W56499  40.309  12.217  12.526
84774W        W56500  33.930  32.633   0.887
84775W        W56501   2.005  42.412  12.536
84776W        W56502  37.419  25.510  13.736
84777W        W56503  25.009  44.714   3.728
84778W        W56504  30.441  23.946   4.097
84779W        W56505  22.883   7.741   1.400
84780W        W56506   9.041  37.525   4.579
84781W        W56507   0.742  36.767  12.596
84782W        W56508  20.130  26.266   1.331
84783W        W56509  43.032  27.499  14.262
84784W        W56510  31.597  15.767  14.797
84785W        W56511  31.531  23.632   0.684
84786W        W56512   8.247  32.916  13.288
84787W        W56513  33.681  37.315   1.354
84788W        W56514  22.492  44.519  11.086
84789W        W56515  10.756  14.019  14.291
84790W        W56516  31.414  39.863   4.112
84791W        W56517   5.688  25.757  12.953
84792W        W56518   5.739  16.145  13.530
84793W        W56519  28.526  34.172   2.636
84794W        W56520  40.987  34.722   2.301
84795W        W56521  24.924  27.870  14.747
84796W        W56522  18.129  30.396   1.360
84797W        W56523   0.386  29.152   4.149
84798W        W56524  16.987   2.402   2.798
84799W        W56525  24.696   5.935  11.545
84800W        W56526  33.855  11.973  11.938
84801W        W56527  37.608  24.027   2.333
84802W        W56528  35.265   8.320  13.916
84803W        W56529  17.138  43.234  13.281
84804W        W56530  15.582  18.817  13.881
84805W        W56531  44.097  32.989  12.118
84806W        W56532  41.266  31.480  11.905
84807W        W56533  34.073   0.514  13.476
84808W        W56534  15.109   1.246  11.128
84809W        W56535  13.296  17.885   3.120
84810W        W56536  37.278  13.122   1.415
84811W        W56537  35.025  38.646  14.334
84812W        W56538  37.593  27.698   2.265
84813W        W56539   2.131  24.021  12.099
84814W        W56540  32.500   3.222   4.644
84815W        W56541  19.511  17.183   1.760
84816W        W56542  11.752   0.274  13.959
84817W        W56543  21.523  29.552  14.364
84818W        W56544  26.157  38.007  10.518
84819W        W56545  10.989  16.788  11.583
84820W        W56546  44.926   4.058  10.455
84821W        W56547   6.928  19.581  11.048
84822W        W56548  11.584  19.534  13.751
84823W        W56549  18.246  24.584  13.766
84824W        W56550   4.313  42.157   3.978
84825W        W56551  41.777  19.255  12.102
84826W        W56552  32.562   5.883  12.839
84827W        W56553  32.558  22.645  10.816
84828W        W56554   1.450  25.456  11.126
84829W        W56555  17.606  41.926   2.677
84830W        W56556  23.940   3.264   3.731
84831W        W56557  41.124   6.498  12.367
84832W        W56558  32.581  27.209   2.783
84833W        W56559   6.817  30.928  13.411
84834W        W56560  25.681  27.595  11.607
84835W        W56561  24.810  38.528  13.039
84836W        W56562  16.816  19.292  10.778
84837W        W56563  39.068  31.114   3.648
84838W        W56564  27.941  11.887   1.241
84839W        W56565  11.415   1.801  11.610
84840W        W56566   1.767  32.594   4.034
84841W        W56567  20.090  12.461  12.449
84842W        W56568  23.008  25.400  10.629
84843W        W56569  43.776   2.837   4.565
84844W        W56570  25.276   1.592   0.940
84845W        W56571  38.569  13.730   2.675
84846W        W56572  23.026  14.672  14.952
84847W        W56573  33.296   2.210   2.268
84848W        W56574  23.611  39.512  11.990
84849W        W56575  27.856  12.267  14.822
84850W        W56576  20.099  32.506   1.129
84851W        W56577  10.186   3.640   1.395
84852W        W56578  18.690  11.029   4.578
84853W        W56579  27.094  44.328  10.189
84854W        W56580  30.063  17.485   4.121
84855W        W56581  23.648   0.900  13.243
84856W        W56582  20.859  33.962  11.573
84857W        W56583  44.880  38.505  11.451
84858W        W56584  31.741   9.262   4.705
84859W        W56585   8.773  29.427  14.537
84860W        W56586   1.486  19.679   1.918
84861W        W56587   6.210  18.586   3.113
84862W        W56588   7.363  11.460  13.086
84863W        W56589  11.316   7.030  10.952
84864W        W56590   0.717  26.589   1.739
84865W        W56591  35.299  12.606   2.514
84866W        W56592  41.619  35.871   2.783
84867W        W56593   2.702  43.001   0.852
84868W        W56594   4.955  31.103  13.780
84869W        W56595  42.322   8.725   3.752
84870W        W56596  36.124  40.101   0.533
84871W        W56597   6.871  28.007   2.105
84872W        W56598  42.043   2.245  14.365
84873W        W56599  21.970  18.685   3.164
84874W        W56600  16.867   1.895   0.469
84875W        W56601  22.623  22.711   2.318
84876W        W56602  10.802  43.946   3.589
84877W        W56603  40.757  16.340   2.008
84878W        W56604   1.729  23.103  13.729
84879W        W56605  32.550   4.921  13.950
84880W        W56606  39.359   1.755  11.575
84881W        W56607  12.186  37.394   1.133
84882W        W56608  31.205   4.360   2.174
84883W        W56609  27.649  40.849   2.189
84884W        W56610  30.955   2.748   3.712
84885W        W56611  16.794  30.376   4.586
84886W        W56612  14.479  26.227   1.279
84887W        W56613  41.470  22.004  12.835
84888W        W56614  13.645  22.006   0.320
84889W        W56615  16.622  23.639   1.964
84890W        W56616  42.115  17.250   0.245
84891W        W56617   8.348   7.371  11.937
84892W        W56618  10.029  30.548  13.729
84893W        W56619   3.755  25.938   1.166
84894W        W56620  31.642  21.111  11.957
84895W        W56621  28.915  18.348  12.087
84896W        W56622  22.026   0.264   0.891
84897W        W56623  23.132  43.178  11.728
84898W        W56624  33.431   5.158   3.746
84899W        W56625  32.290  33.608  11.353
84900W        W56626  38.753  19.295  12.787
84901W        W56627  15.610  35.367   3.240
84902W        W56628  39.481   7.802   2.863
84903W        W56629  17.022  37.863   2.630
84904W        W56630  29.128   1.160  11.523
84905W        W56631  41.891  32.130   0.949
84906W        W56632  26.489  16.599   1.252
84907W        W56633   9.824  11.580   1.896
84908W        W56634   7.826   8.059   4.387
84909W        W56635   5.164   9.605  13.963
84910W        W56636   1.426  25.696  13.362
84911W        W56637  39.851  20.810  14.341
84912W        W56638  34.854  43.721   1.824
84913W        W56639  28.385   5.893  14.452
84914W        W56640   3.425  40.498   2.855
84915W        W56641  33.943   8.474   2.111
84916W        W56642  30.395  18.554  14.081
84917W        W56643  42.532  10.342   4.125
84918W        W56644  44.838  23.295   4.348
84919W        W56645  41.404  39.871   3.086
84920W        W56646  22.275  33.148   4.368
84921W        W56647   7.270  28.191   0.433
84922W        W56648  20.527  18.065  14.854
84923W        W56649  25.088  32.562  11.909
84924W        W56650  22.734  41.757  14.482
84925W        W56651   4.044   4.263   1.894
84926W        W56652  23.632  16.393  11.532
84927W        W56653   0.138  13.844   4.080
84928W        W56654  25.618  33.380   3.623
84929W        W56655  10.706  39.091   1.156
84930W        W56656  26.212   2.248   4.650
84931W        W56657  36.063  23.462  11.251
84932W        W56658  14.317  11.415   0.887
84933W        W56659   0.500  22.438   4.315
84934W        W56660  41.890  24.609   0.508
84935W        W56661  40.521  29.912   3.660
84936W        W56662  32.668   0.329  13.574
84937W        W56663  28.217  26.925   3.387
84938W        W56664  18.710  23.129   4.907
84939W        W56665  22.976  11.049  10.363
84940W        W56666   5.652  32.025  12.094
84941W        W56667  17.622  13.606   4.055
84942W        W56668   3.859  34.490   0.468
84943W        W56669  20.428  22.510   4.089
84944W        W56670   0.113  40.557  11.460
84945W        W56671  44.306  37.988   2.689
84946W        W56672  40.592  33.707  12.001
84947W        W56673   4.787   3.066  11.970
84948W        W56674  10.361   2.790   2.475
84949W        W56675  21.210  20.303   4.643
84950W        W56676  36.081   8.323  12.932
84951W        W56677  31.677  20.075   3.837
84952W        W56678  29.908  44.325  12.952
84953W        W56679  35.083  10.637   1.708
84954W        W56680  35.696  25.237   1.400
84955W        W56681  13.312  35.468   4.325
84956W        W56682  33.298  35.142   3.812
84957W        W56683  14.613   2.966   1.440
84958W        W56684   8.742  31.469   2.387
84959W        W56685  38.065  20.589  12.485
84960W        W56686  43.318  33.351   2.689
84961W        W56687  22.784  24.229  14.299
84962W        W56688  16.513  40.044   2.205
84963W        W56689   5.493  23.315   1.732
84964W        W56690   3.695  41.403   4.309
84965W        W56691  12.345  29.131   0.009
84966W        W56692  17.512  38.248  11.529
84967W        W56693  25.208  27.766  11.921
84968W        W56694   6.637  25.730  11.994
84969W        W56695  25.629   8.895  12.444
84970W        W56696  25.940   0.480   3.162
84971W        W56697  42.328  40.756   3.193
84972W        W56698  41.455  44.558   2.845
84973W        W56699  17.681  17.575  14.952
84974W        W56700  31.865  20.632  14.479
84975W        W56701  18.316  22.966   3.607
84976W        W56702   7.825  33.590   0.442
84977W        W56703  16.654  11.630   4.166
84978W        W56704   6.244  12.206   1.867
84979W        W56705  43.392   2.493  11.422
84980W        W56706  15.395   6.984  14.126
84981W        W56707  29.165  36.765   3.961
84982W        W56708   6.509  26.759  14.386
84983W        W56709   0.553  34.570  14.884
84984W        W56710   7.714  29.545   0.412
84985W        W56711  33.861  41.215  13.320
84986W        W56712  28.052   2.301  12.571
84987W        W56713  36.373  29.219   3.327
84988W        W56714   2.500  29.831   4.260
84989W        W56715  41.526   6.406   0.389
84990W        W56716  39.271  13.242   2.710
84991W        W56717  18.556  10.064  13.930
84992W        W56718  21.809   1.888   3.813
84993W        W56719  14.162  43.579   3.640
84994W        W56720  36.329  38.383   4.559
84995W        W56721  21.062  38.334  11.992
84996W        W56722  40.099  41.893  13.842
84997W        W56723   6.666  38.991   3.821
84998W        W56724  29.349   0.460  13.487
84999W        W56725  27.178  20.644  13.318
85000W        W56726  23.977  35.054  12.134
85001W        W56727  18.732   1.984   2.711
85002W        W56728  39.048  34.216   1.342
85003W        W56729  40.335  43.354   2.161
85004W        W56730   0.329  19.414  11.106
85005W        W56731  32.903  33.615  14.794
85006W        W56732  23.280  19.506  12.896
85007W        W56733   8.213  31.522  13.458
85008W        W56734   6.627  31.600  11.721
85009W        W56735  20.241  44.784   0.729
85010W        W56736  12.610  26.185  13.377
85011W        W56737   9.718  26.175   1.890
85012W        W56738  10.735  26.535  14.327
85013W        W56739   0.291  43.379   3.212
85014W        W56740  21.017  39.521  11.418
85015W        W56741  16.194  40.291  11.582
85016W        W56742  32.914   1.747   0.734
85017W        W56743  21.236  36.014   4.981
85018W        W56744  32.930  41.733  14.686
85019W        W56745  33.932  15.986   3.171
85020W        W56746  40.194  21.283  10.439
85021W        W56747  16.394  39.828   4.558
85022W        W56748  41.983  30.525  12.344
85023W        W56749  35.984  42.822   4.494
85024W        W56750  31.123  26.191  13.628
85025W        W56751   6.127  16.049  12.073
85026W        W56752  20.988  18.984  12.139
85027W        W56753  42.848   3.397   0.424
85028W        W56754  10.857  43.304   4.586
85029W        W56755  32.953  23.758  12.040
85030W        W56756  34.574  34.489   3.452
85031W        W56757  37.669  35.341  12.393
85032W        W56758  29.219   6.247   4.515
85033W        W56759  23.618  34.777   3.223
85034W        W56760  11.890  12.287   0.436
85035W        W56761  43.739  40.408  12.964
85036W        W56762  29.478   6.437   0.534
85037W        W56763  10.078   8.570   3.221
85038W        W56764   8.760  11.361  13.400
85039W        W56765   1.773  36.919   3.749
85040W        W56766  43.990  11.402   4.165
85041W        W56767  24.225  10.969   0.771
85042W        W56768  23.995  44.722   1.770
85043W        W56769   1.924  24.595  12.829
85044W        W56770  25.124  35.145  14.349
85045W        W56771  30.138  29.838  11.284
85046W        W56772  24.765  17.611   1.697
85047W        W56773  44.028  35.184   1.924
85048W        W56774  34.149  26.062   0.295
85049W        W56775  15.346  38.343   1.182
85050W        W56776  38.828  11.128  11.108
85051W        W56777  19.490  30.094  13.492
85052W        W56778   1.944  23.692   0.036
85053W        W56779  43.707  19.274   1.981
85054W        W56780  35.330   0.315   3.411
85055W        W56781  13.639  32.602  12.326
85056W        W56782   0.429  43.825  12.765
85057W        W56783  19.178  41.397   2.707
85058W        W56784  35.884  24.023   0.893
85059W        W56785  31.152  33.929  13.601
85060W        W56786   1.888  20.545   4.642
85061W        W56787  18.820  27.990   4.600
85062W        W56788  29.468  28.652  12.506
85063W        W56789  19.769  19.736   4.581
85064W        W56790  40.535  25.509   4.815
85065W        W56791  35.433   9.685   2.653
85066W        W56792  13.364  27.750  10.939
85067W        W56793  34.358  41.408   0.422
85068W        W56794  30.174   4.167  12.756
85069W        W56795  22.083  15.599  14.529
85070W        W56796  33.379  34.098   0.855
85071W        W56797  32.094  34.129  12.126
85072W        W56798   8.422  25.673  12.884
85073W        W56799  43.566  35.576   0.320
85074W        W56800  26.798  24.795  13.788
85075W        W56801  12.399  26.576  10.689
85076W        W56802  30.115  11.863  13.061
85077W        W56803   5.257   5.001   1.877
85078W        W56804  29.626  33.906  12.160
85079W        W56805  26.731  18.725  13.525
85080W        W56806  36.630  30.419  14.896
85081W        W56807   8.448   4.286  10.802
85082W        W56808  43.838  39.225   0.784
85083W        W56809  35.157  14.326  14.706
85084W        W56810  13.747  39.493  10.695
85085W        W56811  35.521  39.884   3.587
85086W        W56812  23.826   3.752   0.075
85087W        W56813  16.055  33.489   1.818
85088W        W56814   9.942  42.347  13.024
85089W        W56815  40.969  16.981  14.917
85090W        W56816  10.858   5.243   0.734
85091W        W56817  12.644   9.519  11.564
85092W        W56818  15.285   2.195   2.207
85093W        W56819   4.275  20.774  11.372
85094W        W56820  40.121  35.896  11.920
85095W        W56821  38.368  22.549   4.536
85096W        W56822  31.459  29.385  12.937
85097W        W56823  40.891  28.014   2.759
85098W        W56824   9.193  23.514   1.650
85099W        W56825  37.802  25.042  12.216
85100W        W56826  21.182  11.236   4.450
85101W        W56827   2.062  35.467   4.185
85102W        W56828   2.852  39.025   3.765
85103W        W56829   5.846  15.776   5.621
85104W        W56830  38.819  21.663   4.730
85105W        W56831   7.181  10.647  14.795
85106W        W56832  25.659  26.661  11.622
85107W        W56833   7.767  21.472   0.824
85108W        W56834  36.434  38.812  11.538
85109W        W56835  44.159  39.936   5.370
85110W        W56836  14.011   1.780  13.521
85111W        W56837  36.191   5.369   0.220
85112W        W56838  23.039  34.074  14.737
85113W        W56839  40.809   1.460   0.857
85114W        W56840  20.751  35.915   1.448
85115W        W56841  25.954  30.529   1.997
85116W        W56842  14.233  18.502  14.008
85117W        W56843  12.597  31.026   3.889
85118W        W56844  17.997  24.454   1.171
85119W        W56845  29.969  34.921  12.068
85120W        W56846   4.725  25.282  14.891
85121W        W56847   1.449  26.470  12.021
85122W        W56848  24.153  42.241   3.708
85123W        W56849   1.997  37.988   0.494
85124W        W56850  23.698  30.032   4.708
85125W        W56851  32.007   5.711  12.081
85126W        W56852  30.972  20.701  11.875
85127W        W56853  39.968  13.293   0.394
85128W        W56854  42.920  24.952  14.419
85129W        W56855  11.453   3.380  14.792
85130W        W56856   0.281  29.942   0.904
85131W        W56857  29.655  28.930   0.888
85132W        W56858  23.533   5.485   0.292
85133W        W56859  39.098  44.362  13.814
85134W        W56860   3.212  11.140   1.109
85135W        W56861  43.331  23.106   1.307
85136W        W56862  14.776   4.315  10.870
85137W        W56863  13.680  24.535   0.845
85138W        W56864  30.633  24.802  11.173
85139W        W56865  21.465  27.733   3.599
85140W        W56866  24.264  18.429  12.616
85141W        W56867  18.522  21.572  10.848
85142W        W56868   3.308  32.283   3.224
85143W        W56869  35.793  33.362  12.426
85144W        W56870   0.256  19.157  14.745
85145W        W56871  22.993   5.300  12.441
85146W        W56872  43.771  36.969   1.758
85147W        W56873  34.817  38.592   0.253
85148W        W56874  34.832  17.460   3.804
85149W        W56875  21.156  11.597   4.060
85150W        W56876  11.356   9.733  12.153
85151W        W56877  26.455  20.770  10.547
85152W        W56878  25.429  40.772  12.939
85153W        W56879   2.843  17.509   2.239
85154W        W56880  33.637   2.870  10.692
85155W        W56881   8.206  12.404   3.569
85156W        W56882  26.219  18.682  14.888
85157W        W56883   5.294  40.390  14.264
85158W        W56884  14.804  27.205  11.033
85159W        W56885  22.622  14.041  11.189
85160W        W56886  29.141   3.924   3.637
85161W        W56887  25.124  32.141   4.666
85162W        W56888  25.078   4.868   5.020
85163W        W56889  37.757  19.935   2.693
85164W        W56890  23.448  20.318  11.510
85165W        W56891   8.263  40.800  14.397
85166W        W56892  31.108  12.837   2.429
85167W        W56893  13.832   4.296   2.236
85168W        W56894  14.203  40.604   0.275
85169W        W56895  27.518  39.942  12.992
85170W        W56896  32.467  34.380   0.752
85171W        W56897  39.366  27.167   3.784
85172W        W56898  29.613  18.198  10.808
85173W        W56899  27.737  19.116  11.961
85174W        W56900  13.918  25.744   0.708
85175W        W56901  32.138  33.611   4.143
85176W        W56902   4.273  13.136   0.298
85177W        W56903  26.922  44.000   0.919
85178W        W56904  36.182  34.742  12.273
85179W        W56905   3.349  19.172   1.794
85180W        W56906  30.598  42.430   2.388
85181W        W56907  13.868  29.150   3.658
85182W        W56908   6.672  43.421   0.872
85183W        W56909   1.387   6.853   4.156
85184W        W56910  36.060  40.455   2.130
85185W        W56911   7.741  44.538   2.743
85186W        W56912  33.136  17.318   1.782
85187W        W56913  41.264   0.988  10.706
85188W        W56914  42.590  39.296  10.584
85189W        W56915  11.341  26.638   2.421
85190W        W56916  22.562   7.356   1.684
85191W        W56917  37.951  15.390  13.333
85192W        W56918  25.509  14.353  13.366
85193W        W56919  18.206  33.553  14.993
85194W        W56920  42.191   4.656   0.486
85195W        W56921  13.666  19.051   3.703
85196W        W56922   8.507  29.248   1.992
85197W        W56923  29.608  13.631  13.933
85198W        W56924  21.547  24.115  11.575
85199W        W56925  41.226   4.668   3.636
85200W        W56926  42.991  27.465   0.375
85201W        W56927   7.849  18.153  10.716
85202W        W56928  11.921  10.690  12.944
85203W        W56929   2.923  23.493  12.435
85204W        W56930  30.451  14.387  13.472
85205W        W56931   4.023  25.244  12.414
85206W        W56932  44.158  39.641   0.033
85207W        W56933  15.783  41.471   4.888
85208W        W56934  37.891  35.253  11.920
85209W        W56935  24.669  14.994  13.511
85210W        W56936  15.437  16.212   5.051
85211W        W56937  44.859  17.787  11.273
85212W        W56938  13.576  40.415  11.847
85213W        W56939  41.486  10.625  10.477
85214W        W56940  40.270  40.822   1.989
85215W        W56941  28.036  26.677   2.988
85216W        W56942  19.599  28.961   3.292
85217W        W56943  32.060  16.732  11.622
85218W        W56944  42.298  26.866  14.413
85219W        W56945  40.044  30.437  13.989
85220W        W56946  13.367  22.191  12.892
85221W        W56947  20.714   1.440  13.904
85222W        W56948  40.080  38.146   4.172
85223W        W56949  35.927  44.426   0.043
85224W        W56950   5.958   1.980  13.445
85225W        W56951  17.748  41.541   0.915
85226W        W56952  41.401   8.242  12.914
85227W        W56953  20.467  10.590  13.932
85228W        W56954  26.209   7.067   1.322
85229W        W56955   3.265  19.155   4.544
85230W        W56956  35.304  18.320   4.640
85231W        W56957  42.345  28.654   0.803
85232W        W56958  42.221  13.095   1.372
85233W        W56959   1.328  36.903  13.541
85234W        W56960  10.350   1.570  12.027
85235W        W56961  31.397  12.736  14.508
85236W        W56962  42.927  27.779  13.856
85237W        W56963   0.465  15.013   4.494
85238W        W56964  31.967  42.347   5.002
85239W        W56965  33.029  18.171   4.765
85240W        W56966  10.747   9.491   2.345
85241W        W56967   9.204  27.735  12.103
85242W        W56968  17.673   1.259  11.444
85243W        W56969  22.647   0.326  13.622
85244W        W56970  26.674  11.758  14.474
85245W        W56971   1.207  17.052   0.843
85246W        W56972  25.282  27.069  10.961
85247W        W56973  11.441  38.494  12.772
85248W        W56974  19.089  38.404   1.741
85249W        W56975   9.411  33.824   3.971
85250W        W56976  23.685  36.768   3.780
85251W        W56977   6.297  21.218  11.207
85252W        W56978  22.197   7.159   3.454
85253W        W56979  37.834  33.525  11.586
85254W        W56980  11.850  41.821   4.114
85255W        W56981  18.593   2.762   4.773
85256W        W56982  21.719   5.393  12.935
85257W        W56983  12.206  30.602   1.954
85258W        W56984   4.690  27.593   2.114
85259W        W56985  10.279   4.516  14.988
85260W        W56986  20.949  30.645   0.408
85261W        W56987  39.078   7.461   3.025
85262W        W56988  22.649  12.383  13.095
85263W        W56989   4.324  12.581  14.223
85264W        W56990  33.327   4.920   1.646
85265W        W56991  36.841   2.207  11.625
85266W        W56992  43.027  39.793  13.992
85267W        W56993  40.271  26.316   0.922
85268W        W56994   2.179  38.713  11.927
85269W        W56995   1.968  11.479   3.609
85270W        W56996  19.349   7.717   0.880
85271W        W56997  13.904  34.004  14.926
85272W        W56998  35.187  10.832   2.712
85273W        W56999  35.250  38.503  13.879
85274W        W57000  26.842  17.444   0.932
85275W        W57001  12.834   5.343   3.456
85276W        W57002  35.888  28.923  14.049
85277W        W57003   4.559   0.285   4.181
85278W        W57004  24.725   7.004   4.111
85279W        W57005  33.098   3.302  12.050
85280W        W57006   8.124  41.399   3.408
85281W        W57007   8.269  29.895   1.241
85282W        W57008  17.150  20.449  13.449
85283W        W57009   4.682  37.078  11.225
85284W        W57010  31.381  19.762   4.215
85285W        W57011  11.167   8.168   0.731
85286W        W57012  38.013   6.656  14.408
85287W        W57013   4.394  24.034   1.912
85288W        W57014  43.555  35.372  14.102
85289W        W57015   7.936  36.418  12.511
85290W        W57016   6.208  41.972  13.029
85291W        W57017   3.408  35.060  10.802
85292W        W57018  40.546  17.442  10.403
85293W        W57019  25.168  14.073   5.177
85294W        W57020  14.688  43.865  12.509
85295W        W57021   7.345  18.818   4.536
85296W        W57022   6.424  43.942   2.215
85297W        W57023  38.052  22.896  13.680
85298W        W57024  22.230  42.480  14.372
85299W        W57025  24.450  40.749   1.385
85300W        W57026  41.556  38.201   4.018
85301W        W57027  13.996   2.459   0.706
85302W        W57028  35.826  17.096   3.965
85303W        W57029  23.970  37.867   1.061
85304W        W57030   7.365  25.257  12.463
85305W        W57031  18.483   7.718   3.375
85306W        W57032   7.916  15.800  13.026
85307W        W57033  37.634  37.050   0.617
85308W        W57034  27.884  15.674  11.062
85309W        W57035  14.835  28.973  14.885
85310W        W57036  26.824  35.312   2.937
85311W        W57037  25.532  27.935   0.345
85312W        W57038   9.384  13.104   2.227
85313W        W57039  35.425  39.084  13.583
85314W        W57040  44.341  21.200   0.931
85315W        W57041  21.947  41.079   3.716
85316W        W57042  34.136   7.792  11.201
85317W        W57043  33.066  28.475  14.684
85318W        W57044  18.942   7.253   2.563
85319W        W57045  34.645  13.780  13.987
85320W        W57046   5.051  16.074   4.054
85321W        W57047  31.163  16.224   3.250
85322W        W57048  34.957  16.359   4.709
85323W        W57049  16.910  29.602   4.769
85324W        W57050  11.984  12.382   1.305
85325W        W57051  12.075  16.921  11.137
85326W        W57052  38.849  18.059  11.064
85327W        W57053  30.215  11.286  11.057
85328W        W57054  34.047  27.728  11.568
85329W        W57055  13.376  25.830   2.012
85330W        W57056  15.748  38.903   3.236
85331W        W57057  14.102  36.650   0.520
85332W        W57058   1.613   3.298  14.424
85333W        W57059  13.187  18.242   1.836
85334W        W57060  36.344  42.485  11.421
85335W        W57061  20.634  37.883   2.686
85336W        W57062  42.250  38.299  13.888
85337W        W57063  21.380  28.955  13.791
85338W        W57064  25.996  18.489   3.343
85339W        W57065  24.363  29.287  11.115
85340W        W57066  31.505  19.758  12.075
85341W        W57067   0.387   9.669   1.137
85342W        W57068  25.952  17.621   3.374
85343W        W57069  24.629  10.221   1.269
85344W        W57070  29.642  30.392  13.921
85345W        W57071  27.189  21.131   4.432
85346W        W57072  38.145  39.540  12.414
85347W        W57073   2.759  26.069   4.361
85348W        W57074  22.022  10.393   2.981
85349W        W57075  11.060   7.352  10.629
85350W        W57076  23.030  37.381  10.475
85351W        W57077  17.607  10.221  10.739
85352W        W57078  20.145  21.783  11.564
85353W        W57079   7.709  11.791   2.844
85354W        W57080  36.008   3.266  14.185
85355W        W57081   1.083   8.138  13.602
85356W        W57082  25.100   9.477  11.876
85357W        W57083  42.895  18.243   3.824
85358W        W57084  42.263  23.250  13.883
85359W        W57085  25.565  34.405   3.713
85360W        W57086  12.973  12.233   4.620
85361W        W57087  41.527  13.688   0.006
85362W        W57088  15.693  20.424  10.409
85363W        W57089  30.357  19.712   1.688
85364W        W57090  14.808  35.675   2.724
85365W        W57091  39.565  17.612  12.029
85366W        W57092   1.270  29.512  12.528
85367W        W57093  23.458  11.806   2.122
85368W        W57094  21.896  36.989  14.290
85369W        W57095  38.859  31.467  12.029
85370W        W57096  28.674  15.217   2.654
85371W        W57097  18.261  36.488   2.600
85372W        W57098  44.532   9.334  14.402
85373W        W57099  14.646   4.559   4.128
85374W        W57100  35.315  17.995  11.133
85375W        W57101  35.042  18.057   0.326
85376W        W57102  24.947  11.139   2.674
85377W        W57103  11.768  27.260  13.001
85378W        W57104  21.538   0.409  14.454
85379W        W57105  36.822  10.204  12.474
85380W        W57106  19.170  40.477  11.951
85381W        W57107   2.117  34.053   0.927
85382W        W57108  43.294  37.051   1.916
85383W        W57109  15.700  13.782  13.023
85384W        W57110  11.614  35.157  11.824
85385W        W57111  37.515  14.886  14.857
85386W        W57112  23.451   7.039   1.872
85387W        W57113  28.710  36.752   0.330
85388W        W57114  40.372  43.452  13.412
85389W        W57115   9.344  17.533   2.847
85390W        W57116  39.813   4.005  14.088
85391W        W57117  14.846   0.489   4.335
85392W        W57118  35.455  12.771  14.924
85393W        W57119   1.720  36.363   1.254
85394W        W57120  44.037  29.559   4.177
85395W        W57121  40.824  42.948   2.847
85396W        W57122  26.987   3.292  14.688
85397W        W57123   2.966  12.718   2.687
85398W        W57124  23.599  29.217   2.640
85399W        W57125   5.552  36.611   4.096
85400W        W57126  18.457   8.165   0.810
85401W        W57127  23.800  28.130  11.642
85402W        W57128   6.396  28.506  12.803
85403W        W57129  31.673   6.802  13.386
85404W        W57130   2.609   2.155   1.731
85405W        W57131   2.881  27.066   4.376
85406W        W57132  15.337   7.810  14.601
85407W        W57133  26.428  12.787  13.924
85408W        W57134  25.163  13.445  14.820
85409W        W57135  41.740  42.769   2.597
85410W        W57136  29.824  43.033   2.333
85411W        W57137  21.450  12.592  11.074
85412W        W57138  43.307  10.224   0.334
85413W        W57139  24.109  38.695  13.509
85414W        W57140  26.752  22.046   0.464
85415W        W57141  22.745  30.167  11.133
85416W        W57142  39.076  36.783   0.256
85417W        W57143  16.796  34.030  10.895
85418W        W57144  35.391  34.164  11.958
85419W        W57145   1.986  44.023  10.720
85420W        W57146  39.812   6.039   2.659
85421W        W57147  36.879  40.829   3.916
85422W        W57148   4.500  30.644   3.788
85423W        W57149  28.000   3.748  13.317
85424W        W57150   6.953   8.599  14.891
85425W        W57151  12.108  27.749  12.049
85426W        W57152  15.335   3.916  10.399
85427W        W57153  24.943  15.358   0.005
85428W        W57154   1.705  24.218  13.063
85429W        W57155   3.748   9.547   3.018
85430W        W57156  31.903  21.540   3.776
85431W        W57157  10.196  18.288  14.348
85432W        W57158  13.219   1.375   2.278
85433W        W57159  14.404  31.871  14.014
85434W        W57160  42.314   9.733  11.151
85435W        W57161  34.030  43.352   1.366
85436W        W57162  44.758  32.030  13.923
85437W        W57163   3.593  29.507  14.755
85438W        W57164  28.181  10.808  13.901
85439W        W57165  23.246  13.199  10.757
85440W        W57166  21.124  44.553  11.079
85441W        W57167   2.383   1.265   1.460
85442W        W57168   7.152  19.884   1.191
85443W        W57169  21.132   8.370  12.788
85444W        W57170   5.882  10.901   3.235
85445W        W57171  29.908   9.741   1.368
85446W        W57172  25.662  12.190   0.063
85447W        W57173  10.276   7.803  10.540
85448W        W57174  38.055   1.712  13.422
85449W        W57175  24.020  21.846  14.379
85450W        W57176  28.597  27.170   2.524
85451W        W57177  29.141  23.825  11.652
85452W        W57178   0.872  10.241  13.478
85453W        W57179  19.137   4.998   1.043
85454W        W57180  29.240  11.379  14.456
85455W        W57181  41.536   0.246   3.175
85456W        W57182  36.532   3.332   2.115
85457W        W57183  22.589  12.644   5.415
85458W        W57184   2.748  16.151   1.902
85459W        W57185  32.389   2.239   0.910
85460W        W57186  40.627  30.979  14.278
85461W        W57187  25.462  39.472   4.052
85462W        W57188  22.483  43.402  14.343
85463W        W57189  29.855   2.423  11.166
85464W        W57190  12.122  23.638  14.762
85465W        W57191  25.692   9.481   3.578
85466W        W57192  10.818   5.162   3.786
85467W        W57193  11.335  16.652   0.600
85468W        W57194  10.869   1.336   1.079
85469W        W57195   6.107   4.327   1.082
85470W        W57196  34.223  19.705  10.721
85471W        W57197  38.581  18.804  10.708
85472W        W57198  23.687  35.892   2.088
85473W        W57199   9.181  25.082   2.151
85474W        W57200  43.396  33.659   0.440
85475W        W57201  20.607  39.370  13.814
85476W        W57202  23.974   4.930  12.463
85477W        W57203  43.569  44.486  11.520
85478W        W57204  17.716  13.302  13.068
85479W        W57205  20.680   0.232   1.269
85480W        W57206  24.938  26.895   1.863
85481W        W57207  19.621  38.901  12.785
85482W        W57208  22.974  11.124   0.724
85483W        W57209  42.076  11.399  14.033
85484W        W57210  40.975   5.737  12.439
85485W        W57211  15.788  22.294  10.214
85486W        W57212  23.086  11.634   1.728
85487W        W57213  34.879   4.473  11.623
85488W        W57214  15.631  40.470   3.215
85489W        W57215  34.885  26.936  14.837
85490W        W57216  12.798   5.512  12.040
85491W        W57217  37.412  34.018   4.101
85492W        W57218  16.580  37.784  10.770
85493W        W57219  32.652  41.476   1.876
85494W        W57220  13.878  14.408  14.581
85495W        W57221  30.772  33.380   2.794
85496W        W57222  35.518  12.318  11.108
85497W        W57223   7.684  32.437   0.832
85498W        W57224  24.597   5.205  13.438
85499W        W57225  31.549  35.549   3.651
85500W        W57226  21.880  25.699   0.945
85501W        W57227  35.062  33.335  14.433
85502W        W57228  32.049  29.548  11.666
85503W        W57229  32.127  12.268  14.970
85504W        W57230  34.859  37.152   4.079
85505W        W57231  15.270  13.139  10.686
85506W        W57232  20.773  26.273  14.337
85507W        W57233   8.248  37.032  12.363
85508W        W57234   9.295  23.478   2.180
85509W        W57235   5.858  37.483  14.437
85510W        W57236  40.395   7.091  13.322
85511W        W57237   3.895  21.136   3.906
85512W        W57238   8.845  44.865  11.786
85513W        W57239  10.367  16.937   3.231
85514W        W57240  40.825  38.504  13.115
85515W        W57241  39.853  39.355  10.738
85516W        W57242  22.733   1.355  13.339
85517W        W57243  25.022  39.017  14.126
85518W        W57244   6.789  26.235  10.923
85519W        W57245   4.818  26.623  14.474
85520W        W57246   2.203  41.300   0.708
85521W        W57247  10.035  34.505  11.895
85522W        W57248  36.770   7.609   0.773
85523W        W57249  30.743  21.130   1.162
85524W        W57250  21.029   8.571  11.096
85525W        W57251  24.981  11.162   4.761
85526W        W57252  44.893   0.084  10.425
85527W        W57253   4.823  19.525  14.977
85528W        W57254   5.140  39.934  13.007
85529W        W57255  10.757   3.876   1.209
85530W        W57256  23.838  17.093   4.171
85531W        W57257  39.967   8.193  12.443
85532W        W57258   6.814  35.429   4.899
85533W        W57259  10.914  35.059   2.818
85534W        W57260  35.541  10.887  14.923
85535W        W57261  30.648  23.953   1.245
85536W        W57262  19.006   1.558  13.443
85537W        W57263  30.217  27.841  12.059
85538W        W57264  43.194  28.962  11.980
85539W        W57265   4.048   3.590  11.972
85540W        W57266   1.826  24.099   4.344
85541W        W57267  22.473  32.830  14.426
85542W        W57268  28.044   7.083  10.677
85543W        W57269  12.079   6.752  14.734
85544W        W57270  40.466  17.703   0.989
85545W        W57271   2.252  36.723   2.845
85546W        W57272  20.773  36.516   4.735
85547W        W57273  40.705  35.945   3.782
85548W        W57274  15.632   0.437   0.337
85549W        W57275  39.579  26.638  11.633
85550W        W57276  34.953   6.002  13.625
85551W        W57277   0.995   1.930   5.095
85552W        W57278  30.489   4.427   0.498
85553W        W57279   9.190   5.871   1.482
85554W        W57280  26.379  11.649   4.953
85555W        W57281  19.104  34.965   1.918
85556W        W57282   3.544  10.887  12.296
85557W        W57283  29.163  37.324   3.890
85558W        W57284  43.048  18.621  12.508
85559W        W57285  14.673   8.848  12.521
85560W        W57286  37.565  34.977   5.218
85561W        W57287   4.935  36.967   1.777
85562W        W57288   1.956  24.732   1.355
85563W        W57289  26.982   5.022  10.400
85564W        W57290  42.798  15.568  11.134
85565W        W57291  40.452  21.549  11.695
85566W        W57292   5.864  25.614   4.415
85567W        W57293  22.279  11.629  13.460
85568W        W57294  27.482  44.353   1.953
85569W        W57295  22.330  17.203  11.930
85570W        W57296  42.271  40.042  11.735
85571W        W57297   6.424  40.397   4.466
85572W        W57298  17.840  42.797  12.097
85573W        W57299  32.928  13.541   4.802
85574W        W57300  14.081   5.651  12.588
85575W        W57301   1.379  15.108  10.644
85576W        W57302  38.472  12.936  12.517
85577W        W57303   3.164  10.187   4.027
85578W        W57304  41.425  44.849  12.308
85579W        W57305   1.931  21.120  12.490
85580W        W57306  18.017  26.497   2.289
85581W        W57307   4.734  21.610   4.898
85582W        W57308  25.658  43.371   2.279
85583W        W57309  42.092   9.086  12.588
85584W        W57310   6.340  39.118  14.473
85585W        W57311  16.477  31.521   1.317
85586W        W57312  28.004  40.574   1.170
85587W        W57313   9.795   0.321  10.732
85588W        W57314   6.299  42.727  13.351
85589W        W57315  20.547  21.946  12.888
85590W        W57316  25.522  12.646  12.967
85591W        W57317  22.711   8.271   2.842
85592W        W57318  18.486  30.652   3.566
85593W        W57319  29.308  20.757  13.876
85594W        W57320  10.399   1.350  11.169
85595W        W57321  39.028  15.531   4.625
85596W        W57322  39.034  31.590   3.287
85597W        W57323  41.678  44.540  12.641
85598W        W57324  13.484  20.684   3.343
85599W        W57325  29.943  26.601  12.955
85600W        W57326  17.463  33.085  10.713
85601W        W57327  21.194   9.312   4.727
85602W        W57328  41.775  12.225   1.244
85603W        W57329   0.808  37.549  10.743
85604W        W57330  28.720  39.515   3.376
85605W        W57331  35.163  39.769  12.629
85606W        W57332  21.775   9.564   3.353
85607W        W57333   0.889   4.673  10.687
85608W        W57334  18.462  15.609   0.429
85609W        W57335   2.522  34.011   1.879
85610W        W57336  37.831  31.016   0.923
85611W        W57337   6.249  16.307   0.836
85612W        W57338  38.238  41.589  13.773
85613W        W57339  12.133   5.259  13.728
85614W        W57340  13.512  43.433  14.529
85615W        W57341  25.216  23.472   1.867
85616W        W57342   6.983  42.787   0.835
85617W        W57343  22.122  44.860  11.153
85618W        W57344   7.235  16.252  12.585
85619W        W57345   0.318   1.887  11.173
85620W        W57346  28.684  14.731  11.089
85621W        W57347  39.584  24.840  13.032
85622W        W57348  10.702  28.604   1.386
85623W        W57349  12.524  37.464  14.072
85624W        W57350  43.913  23.508   3.277
85625W        W57351  32.356   7.466  13.490
85626W        W57352  39.759  37.476   4.181
85627W        W57353  14.344  32.442  14.839
85628W        W57354  39.923   3.735  11.207
85629W        W57355  43.764  30.691  14.991
85630W        W57356  10.773  11.676   3.278
85631W        W57357  34.793   7.166   0.312
85632W        W57358   4.420  29.667   2.883
85633W        W57359  30.413  24.553  12.417
85634W        W57360   5.103   7.407   2.373
85635W        W57361  27.490  19.038   0.840
85636W        W57362  31.270  43.938   9.913
85637W        W57363  11.893  39.933   0.261
85638W        W57364  24.128  19.025   1.723
85639W        W57365  16.634  35.917   1.247
85640W        W57366   5.710   5.654  13.065
85641W        W57367   1.029  31.946   1.296
85642W        W57368  11.687  35.829  14.677
85643W        W57369  29.363  24.812  11.473
85644W        W57370  10.651  41.237  13.524
85645W        W57371  36.333  37.947   3.255
85646W        W57372   8.712  11.117  12.581
85647W        W57373  37.100  23.154  11.664
85648W        W57374   8.120  34.295   9.996
85649W        W57375  13.273  15.878   2.349
85650W        W57376  29.200   0.802  11.127
85651W        W57377  28.554  16.492  11.109
85652W        W57378  35.974  32.551  14.795
85653W        W57379  34.963  11.678  13.095
85654W        W57380  26.386  36.983   3.978
85655W        W57381  13.785   2.673  12.005
85656W        W57382  32.285  33.422   3.669
85657W        W57383  41.027  41.803  12.100
85658W        W57384  21.134  32.600   4.558
85659W        W57385  37.605  10.859  11.366
85660W        W57386   5.305  16.983   4.170
85661W        W57387  40.395  39.492   0.168
85662W        W57388  19.293  39.232  10.929
85663W        W57389  25.907  22.779  10.779
85664W        W57390  28.598  42.873   1.657
85665W        W57391  38.934  32.972   3.097
85666W        W57392  17.624  39.048  13.397
85667W        W57393   2.360   5.806   2.400
85668W        W57394  35.026   7.327  14.865
85669W        W57395   9.720  34.323   4.579
85670W        W57396   7.276   0.983  13.671
85671W        W57397  17.038  33.328  13.475
85672W        W57398   8.118  25.858   2.766
85673W        W57399  30.390  40.287   2.394
85674W        W57400  34.314   2.378   4.643
85675W        W57401  10.073  25.954   3.099
85676W        W57402  21.467  43.958  10.639
85677W        W57403  14.828  18.704  13.002
85678W        W57404  20.926  16.879  13.601
85679W        W57405  36.951  12.729   2.222
85680W        W57406  14.193  41.023  13.499
85681W        W57407   5.723   4.597   0.771
85682W        W57408  28.949   6.831   4.373
85683W        W57409   9.641  32.928  13.929
85684W        W57410  14.896  32.623   2.302
85685W        W57411   8.523  38.265  12.412
85686W        W57412  20.204   8.752   2.096
85687W        W57413  25.585  32.882  13.442
85688W        W57414   2.045  40.088   3.172
85689W        W57415   7.196   8.818   0.296
85690W        W57416  35.387  14.717  11.414
85691W        W57417  42.531  26.232  11.074
85692W        W57418  30.550  34.810   4.562
85693W        W57419  14.115  43.854   0.763
85694W        W57420   0.739   1.973   3.206
85695W        W57421  37.351   7.441  14.081
85696W        W57422  36.529  10.392   4.138
85697W        W57423  40.521  18.287  14.787
85698W        W57424  25.055  17.759   4.661
85699W        W57425  20.198   1.346  10.826
85700W        W57426   5.370   6.292   4.618
85701W        W57427   8.839  18.631   2.439
85702W        W57428  26.111   0.704  11.662
85703W        W57429  19.418  36.623   3.285
85704W        W57430  19.030  34.296  11.436
85705W        W57431   6.337  40.909   1.306
85706W        W57432  38.790  24.932   3.783
85707W        W57433  14.186  21.423   3.206
85708W        W57434   3.006  14.280   4.934
85709W        W57435  23.642  23.175  14.464
85710W        W57436   9.407  24.276   2.266
85711W        W57437  24.127  23.732  12.473
85712W        W57438  42.512  35.792  13.446
85713W        W57439  39.976   5.239   1.062
85714W        W57440  20.016  41.039  11.917
85715W        W57441   2.552   5.285  11.149
85716W        W57442  29.947   8.919   4.528
85717W        W57443  41.439  41.031  14.517
85718W        W57444   4.836  13.602   1.485
85719W        W57445  20.530  19.011  13.399
85720W        W57446  11.696  22.204   4.129
85721W        W57447   0.300   2.389  14.977
85722W        W57448  38.012  15.366  11.851
85723W        W57449  25.197  25.214   0.773
85724W        W57450  38.894  31.517   2.272
85725W        W57451  22.504  25.161  12.441
85726W        W57452  33.114  24.979  11.935
85727W        W57453  19.683  19.517  12.451
85728W        W57454   6.448   1.958  13.612
85729W        W57455  30.088  35.581  14.864
85730W        W57456  37.789  29.961   2.458
85731W        W57457  28.380  27.504  13.788
85732W        W57458  40.652   6.454  12.580
85733W        W57459  40.589  30.015   4.176
85734W        W57460   4.493  29.422   1.809
85735W        W57461  24.952  44.045  10.290
85736W        W57462  38.584  24.122   2.328
85737W        W57463   0.928  13.625  14.073
85738W        W57464  43.943  16.057  11.550
85739W        W57465  17.077  16.261  12.133
85740W        W57466   3.011  14.586   2.720
85741W        W57467  26.612  16.745   4.041
85742W        W57468  11.160   4.157  10.648
85743W        W57469   8.736  22.553   2.796
85744W        W57470  35.904  40.824  12.004
85745W        W57471  24.424  38.006   2.815
85746W        W57472  31.363   4.236  11.159
85747W        W57473  24.568  18.462   2.316
85748W        W57474  23.133  36.578  13.344
85749W        W57475  20.040  17.659   3.093
85750W        W57476   9.700   9.868  11.921
85751W        W57477  24.238  27.478   1.900
85752W        W57478  27.364   6.568   3.686
85753W        W57479  17.291  11.792   3.266
85754W        W57480  21.586  23.267   4.778
85755W        W57481  13.963  12.358   4.038
85756W        W57482  21.294  39.178  13.058
85757W        W57483  36.960  12.249   1.370
85758W        W57484  34.151  13.525  12.354
85759W        W57485  29.567  40.387  10.682
85760W        W57486   3.333   8.220  11.196
85761W        W57487  31.568  17.006   2.744
85762W        W57488  17.247  18.613  14.974
85763W        W57489  16.146   0.849   3.273
85764W        W57490  18.968  22.422   2.208
85765W        W57491  42.093  14.446  14.872
85766W        W57492  11.126   1.307  13.329
85767W        W57493  27.063   4.376   1.699
85768W        W57494  44.021  39.836  13.137
85769W        W57495   4.251  28.207   1.328
85770W        W57496  15.984  34.908  14.978
85771W        W57497  24.414   8.261  12.105
85772W        W57498  35.029  29.987   0.923
85773W        W57499  40.449   8.435  11.815
85774W        W57500  37.723  12.848   3.707
85775W        W57501  29.094  13.061   1.824
85776W        W57502  36.807  21.238   1.875
85777W        W57503  34.366  34.965   0.223
85778W        W57504  14.661  36.351  13.302
85779W        W57505  38.538  10.694  11.341
85780W        W57506  24.257   3.501   3.400
85781W        W57507  33.650  33.827   0.464
85782W        W57508  24.664   7.195   1.370
85783W        W57509   4.870   0.682   4.108
85784W        W57510   6.989  12.856   3.149
85785W        W57511   0.736   2.745   3.133
85786W        W57512   5.929  23.238   4.634
85787W        W57513  39.301  14.090  14.840
85788W        W57514   8.835  26.094  10.581
85789W        W57515  34.380   1.449  10.717
85790W        W57516   2.323  29.887   0.196
85791W        W57517  19.007   5.888   2.759
85792W        W57518   8.256   4.720  13.500
85793W        W57519  18.756  26.925  14.791
85794W        W57520  33.194  37.534   1.900
85795W        W57521  36.018   5.494  13.322
85796W        W57522  42.753  40.298  10.623
85797W        W57523   9.232  19.359   3.852
85798W        W57524  10.787  28.468  13.441
85799W        W57525  29.040  44.928   1.733
85800W        W57526  17.290   8.834   1.689
85801W        W57527  44.863   6.225  13.271
85802W        W57528  35.897   0.078  12.019
85803W        W57529  26.224   9.130   1.489
85804W        W57530  35.529  31.086   0.377
85805W        W57531  20.558  43.396   1.323
85806W        W57532  28.167  43.350  12.361
85807W        W57533  23.528   0.254  14.589
85808W        W57534  37.932  16.269   1.282
85809W        W57535  43.232  10.697  12.031
85810W        W57536  44.473  28.227  10.231
85811W        W57537  27.462  11.119   3.765
85812W        W57538  40.510   4.180   1.301
85813W        W57539  17.096  19.662   3.664
85814W        W57540  28.842  32.144   4.232
85815W        W57541   4.105   7.484  10.029
85816W        W57542  41.767  33.914   4.789
85817W        W57543  39.687  40.872  13.490
85818W        W57544  26.957   4.405  11.984
85819W        W57545  39.946   0.919  13.404
85820W        W57546  11.646  35.104   4.047
85821W        W57547  37.429   1.902   4.593
85822W        W57548  11.137  23.198   2.722
85823W        W57549  43.476  39.871   2.612
85824W        W57550  12.224  16.231   0.882
85825W        W57551  24.789  12.910   2.723
85826W        W57552  22.079  25.771   0.037
85827W        W57553  12.724  33.703   2.708
85828W        W57554   8.225  11.255   2.243
85829W        W57555   9.955  26.429   1.269
85830W        W57556   4.167  43.991  12.848
85831W        W57557   0.546   3.282  13.028
85832W        W57558   6.583  39.768  11.112
85833W        W57559  15.512  33.447  10.930
85834W        W57560  42.009  20.040   3.622
85835W        W57561   1.705  20.239  13.962
85836W        W57562  21.260  42.406   2.917
85837W        W57563   8.574  31.414  13.847
85838W        W57564   4.907  42.910  14.000
85839W        W57565  33.850  29.427   1.228
85840W        W57566  44.178   9.167  14.957
85841W        W57567  35.457  39.796  10.498
85842W        W57568  37.474  20.841  11.451
85843W        W57569   5.159  14.099  11.971
85844W        W57570  33.558  29.515  12.640
85845W        W57571  38.041  37.857  10.724
85846W        W57572  38.970  14.255   2.287
85847W        W57573  37.887  20.047  10.660
85848W        W57574  12.577  30.103   1.336
85849W        W57575  39.511  35.944  14.041
85850W        W57576  43.860  28.494   2.577
85851W        W57577  42.537  20.289   0.976
85852W        W57578   0.522  37.525  11.146
85853W        W57579  31.348  13.604  13.328
85854W        W57580  39.787  37.045  14.261
85855W        W57581  34.684   3.272  11.242
85856W        W57582  37.520  13.403   4.433
85857W        W57583  12.179  13.709   4.207
85858W        W57584  28.805  42.027  10.654
85859W        W57585   2.537  26.443  13.538
85860W        W57586  42.391  19.159  12.757
85861W        W57587  43.440  23.737   1.691
85862W        W57588  27.174   5.936  12.077
85863W        W57589  15.729  16.026  13.961
85864W        W57590   7.586  17.186  14.798
85865W        W57591   9.021  15.129   0.041
85866W        W57592  24.177  27.957   0.957
85867W        W57593  23.616  11.612  14.729
85868W        W57594  34.655   8.892  13.765
85869W        W57595  16.798   0.020  12.438
85870W        W57596  14.847  32.410  10.326
85871W        W57597  35.980   9.832   4.625
85872W        W57598  38.956  13.160  12.512
85873W        W57599   2.460   2.832  12.181
85874W        W57600  40.158  22.710   1.984
85875W        W57601  39.445  44.265  11.638
85876W        W57602  23.406  25.061   1.606
85877W        W57603  37.091  26.969   4.107
85878W        W57604  38.251  28.403  11.052
85879W        W57605  33.946  22.702   4.730
85880W        W57606  10.654  40.261  12.425
85881W        W57607  33.058  29.986  13.101
85882W        W57608  23.868  43.793  14.340
85883W        W57609  24.116  40.440   1.674
85884W        W57610  28.646  31.100  11.173
85885W        W57611   4.164  18.038   2.185
85886W        W57612  14.783  34.940   0.861
85887W        W57613  17.850  42.042  13.223
85888W        W57614  12.429  20.017   4.178
85889W        W57615  40.432  42.299   3.710
85890W        W57616   4.326  40.513  13.829
85891W        W57617  10.268  43.184   1.532
85892W        W57618  29.720  22.593   2.559
85893W        W57619  39.452  27.257  10.633
85894W        W57620  32.590  40.319   4.998
85895W        W57621   9.180  43.323   1.154
85896W        W57622  31.160  21.959  14.818
85897W        W57623  15.050   7.679   0.880
85898W        W57624  14.625   0.253   2.288
85899W        W57625  11.606  24.001  13.896
85900W        W57626  27.715  22.273   4.761
85901W        W57627  26.773   1.168   2.234
85902W        W57628  41.834  19.543  11.674
85903W        W57629  12.105  12.036  13.427
85904W        W57630   4.030  37.258  11.954
85905W        W57631   5.671  44.932   4.145
85906W        W57632  26.770  17.675  12.100
85907W        W57633  22.059  22.000   3.611
85908W        W57634  17.639  10.261  14.236
85909W        W57635  29.597  38.282   0.367
85910W        W57636  16.650  43.875  11.637
85911W        W57637  36.494  29.108  11.135
85912W        W57638  28.057   8.174  11.909
85913W        W57639  22.639   5.794  12.914
85914W        W57640  37.571  42.146   0.905
85915W        W57641   6.448  23.237   1.960
85916W        W57642  36.369  15.395  12.376
85917W        W57643  33.388   3.008   0.960
85918W        W57644  17.346   3.303   4.153
85919W        W57645  37.419  26.672  11.398
85920W        W57646  42.061  33.634   2.679
85921W        W57647  28.345   9.637   1.705
85922W        W57648   4.290  42.406   2.972
85923W        W57649   8.773  27.887   2.371
85924W        W57650   9.930  38.566  13.048
85925W        W57651  35.942  26.618  13.551
85926W        W57652  30.575  27.427  14.042
85927W        W57653  40.479  18.696   3.409
85928W        W57654  32.505  26.193  11.209
85929W        W57655  43.032  10.596   1.823
85930W        W57656  22.180  14.262  12.458
85931W        W57657  44.052  19.800   0.871
85932W        W57658  24.008  12.170   3.783
85933W        W57659  41.394  29.633  13.901
85934W        W57660  44.772  21.201   4.858
85935W        W57661  43.553  17.525  10.956
85936W        W57662  18.301   9.386  11.731
85937W        W57663  39.300   1.907  10.733
85938W        W57664   2.124  32.582  10.648
85939W        W57665  15.746   2.380   1.241
85940W        W57666   3.339  22.180   4.100
85941W        W57667  40.537  28.919   4.580
85942W        W57668  10.730  33.641   9.602
85943W        W57669  41.889  26.198  12.442
85944W        W57670   9.009  20.703  10.426
85945W        W57671  10.594  24.296   1.099
85946W        W57672  32.347  33.800  13.885
85947W        W57673  22.200   6.191   3.717
85948W        W57674  27.281  36.034  11.998
85949W        W57675  17.282  17.104   2.826
85950W        W57676   5.747  14.099   2.664
85951W        W57677  35.410  37.932   2.358
85952W        W57678  33.519  34.601  14.923
85953W        W57679  38.323  19.118   4.707
85954W        W57680  13.224  39.303  10.683
85955W        W57681  41.224  25.415  12.591
85956W        W57682  44.428  29.651  13.943
85957W        W57683  34.440  16.646  12.154
85958W        W57684  39.884  35.595  13.944
85959W        W57685   6.386  29.713   0.451
85960W        W57686   2.217  33.884   3.812
85961W        W57687   1.660  23.024   1.366
85962W        W57688  32.528  19.718   2.864
85963W        W57689  16.192  15.413   4.095
85964W        W57690  16.212  19.616  12.367
85965W        W57691  16.550  12.724  13.415
85966W        W57692  16.011  21.571  13.186
85967W        W57693  41.298  17.479   0.923
85968W        W57694  29.897  42.489  12.072
85969W        W57695   3.230   8.832  12.516
85970W        W57696  44.285   1.428   4.097
85971W        W57697  31.160  38.339   4.730
85972W        W57698  40.795   5.732  11.877
85973W        W57699  12.980  22.726  14.156
85974W        W57700  13.708  29.094   4.160
85975W        W57701   4.419   6.505  11.507
85976W        W57702  37.904  33.261  12.589
85977W        W57703  16.938  15.730   3.190
85978W        W57704  29.129   5.621  14.833
85979W        W57705   7.088   0.929  10.483
85980W        W57706  35.547  13.786  13.378
85981W        W57707  20.156  10.075   2.850
85982W        W57708  16.300  29.173  12.590
85983W        W57709  32.907   5.836   1.922
85984W        W57710  35.857   7.309   3.750
85985W        W57711  19.282   5.958   3.208
85986W        W57712  27.754  29.054  12.884
85987W        W57713  13.850  24.198  10.716
85988W        W57714  44.937  25.519   3.468
85989W        W57715  20.356   7.641   3.803
85990W        W57716  20.099   9.160  10.623
85991W        W57717  28.038   4.815   1.927
85992W        W57718  40.898   3.763  10.624
85993W        W57719  36.549  40.992   1.444
85994W        W57720  30.578  26.754  12.135
85995W        W57721  31.543  43.504   3.792
85996W        W57722  19.865  14.182   0.027
85997W        W57723  14.597  29.998   0.063
85998W        W57724   9.274  44.517   5.254
85999W        W57725  24.524  23.010   3.800
86000W        W57726  18.709  28.381  11.411
86001W        W57727  33.219  14.218  11.426
86002W        W57728  20.091  18.186  11.741
86003W        W57729   7.236  29.954  14.083
86004W        W57730  44.583  23.522   4.750
86005W        W57731  26.649  40.092   4.177
86006W        W57732  44.427  15.648  10.723
86007W        W57733  21.070  11.420   3.577
86008W        W57734  29.549  11.543   4.767
86009W        W57735  37.839  25.961  14.979
86010W        W57736  26.209  16.825   2.205
86011W        W57737  30.590  33.007   3.787
86012W        W57738  23.126  20.647  12.834
86013W        W57739  27.427  32.079   3.825
86014W        W57740  10.516  32.479   2.111
86015W        W57741  29.197  38.658   0.373
86016W        W57742  10.962   6.263   4.133
86017W        W57743  39.415  30.991  11.415
86018W        W57744  11.649  33.652  12.582
86019W        W57745  26.941  17.048   2.295
86020W        W57746   0.842   8.247  12.619
86021W        W57747  25.571  18.170   4.069
86022W        W57748  44.957  15.169   2.398
86023W        W57749  39.508   5.382  13.192
86024W        W57750   3.258  17.582  12.101
86025W        W57751   8.675  44.217  13.176
86026W        W57752   0.371  20.307   3.707
86027W        W57753   7.894  20.706  11.012
86028W        W57754  32.850  10.666  12.016
86029W        W57755   6.722   1.590   1.645
86030W        W57756  22.673  41.550   4.179
86031W        W57757  17.981  11.094  11.270
86032W        W57758  12.723  39.818   0.863
86033W        W57759  24.129  31.304  14.379
86034W        W57760   3.686  14.569  14.862
86035W        W57761  12.326  21.321  10.646
86036W        W57762  27.282   5.958   0.890
86037W        W57763   9.755   8.749   1.404
86038W        W57764  22.161   2.880   3.390
86039W        W57765  14.663  41.018  12.486
86040W        W57766  15.693   7.826  13.823
86041W        W57767  20.548  11.557  10.657
86042W        W57768   0.545   3.666   1.685
86043W        W57769  28.473  15.108  12.352
86044W        W57770   1.480  34.763   0.854
86045W        W57771  26.340  29.174   1.863
86046W        W57772  30.805  24.536   3.404
86047W        W57773  15.380  30.999  14.684
86048W        W57774  17.033  24.378   9.953
86049W        W57775  30.649  38.058   4.701
86050W        W57776  31.060   5.568  11.930
86051W        W57777  26.398  24.683  10.525
86052W        W57778   1.650  12.187  13.460
86053W        W57779   9.186  36.563  13.559
86054W        W57780  13.379  38.400  12.974
86055W        W57781  29.645  30.149  12.902
86056W        W57782  18.757  40.618  12.928
86057W        W57783  25.065  11.680   4.123
86058W        W57784  19.239  15.563   3.154
86059W        W57785  43.306  19.512   2.867
86060W        W57786  20.657   4.999   4.069
86061W        W57787  25.070   4.842   1.393
86062W        W57788  29.222  44.977   3.123
86063W        W57789  12.626   5.203  13.924
86064W        W57790  24.373   4.946  11.522
86065W        W57791  36.043  29.465   1.639
86066W        W57792  14.084  22.625   2.918
86067W        W57793  28.061  26.198   2.787
86068W        W57794   5.371  15.739   5.210
86069W        W57795   0.878  12.880   4.768
86070W        W57796  30.559  30.872   3.752
86071W        W57797  30.033  44.876   4.572
86072W        W57798   3.219   8.579   0.434
86073W        W57799  10.324  38.882   2.784
86074W        W57800  34.840  32.665   1.693
86075W        W57801   2.982  32.495   2.736
86076W        W57802  20.506  42.902   4.271
86077W        W57803   7.061  37.357   0.796
86078W        W57804  28.180  34.508   0.404
86079W        W57805  30.456  21.870  12.172
86080W        W57806   4.774  35.982   3.338
86081W        W57807  10.037   5.255   1.310
86082W        W57808  43.594  15.605  14.682
86083W        W57809  27.721  26.155  14.879
86084W        W57810   5.739  37.049  11.102
86085W        W57811  12.112  13.821   2.260
86086W        W57812  27.957  18.181  13.039
86087W        W57813  16.894  35.332   0.218
86088W        W57814  43.829  26.534  12.438
86089W        W57815  11.315  11.607  14.723
86090W        W57816  11.853  34.637   0.044
86091W        W57817  28.664   8.382   3.333
86092W        W57818  39.271   5.038  12.884
86093W        W57819   5.867  26.839  12.164
86094W        W57820   4.780   9.126   0.389
86095W        W57821  43.463   9.839  12.369
86096W        W57822   4.514  23.246   0.309
86097W        W57823  37.234  31.612   4.778
86098W        W57824  19.573  44.913   2.756
86099W        W57825  14.337  17.456  14.031
86100W        W57826  42.771  37.447  11.053
86101W        W57827  22.489  21.825   0.981
86102W        W57828   5.734  20.207  14.797
86103W        W57829  18.882  16.765   1.321
86104W        W57830  10.101   2.239  13.537
86105W        W57831  14.635  34.861   1.523
86106W        W57832  41.001  26.671   1.962
86107W        W57833  40.789  28.062   1.293
86108W        W57834  44.417  39.583   1.813
86109W        W57835  37.050  19.791  11.041
86110W        W57836  41.486  33.599  11.712
86111W        W57837  38.097  23.926   2.334
86112W        W57838  33.420  35.074  14.493
86113W        W57839  20.672  31.189  14.961
86114W        W57840  24.776   0.035   3.366
86115W        W57841  21.956   9.717  10.940
86116W        W57842  44.006  17.951  12.625
86117W        W57843  11.357  18.765  11.141
86118W        W57844  32.183  41.691   3.288
86119W        W57845  24.566   7.922  11.737
86120W        W57846  39.448  36.491   2.217
86121W        W57847  19.056  14.037  13.055
86122W        W57848  24.705  27.997   1.360
86123W        W57849  24.689  24.253   3.941
86124W        W57850  20.428   4.434  11.187
86125W        W57851  35.955  16.861  13.969
86126W        W57852  18.508  38.054  14.372
86127W        W57853   4.964  24.463   4.543
86128W        W57854  41.142  28.667   3.570
86129W        W57855  42.903  33.013  10.378
86130W        W57856   8.128  37.119   0.433
86131W        W57857   2.989   9.910   1.536
86132W        W57858   1.810  40.330  11.463
86133W        W57859  32.666  15.717  13.529
86134W        W57860  42.013  44.608   1.691
86135W        W57861  18.773  26.615   0.774
86136W        W57862  20.540  18.455  12.483
86137W        W57863  21.187  12.388   0.177
86138W        W57864  16.028  16.843   1.064
86139W        W57865  30.661  37.157  13.557
86140W        W57866  30.224   2.469   3.786
86141W        W57867  43.983  34.994  12.618
86142W        W57868   7.201  22.574  13.092
86143W        W57869  19.657   3.010   1.756
86144W        W57870  25.095  14.410   4.301
86145W        W57871  31.401  26.612  13.425
86146W        W57872  35.392  13.515  11.634
86147W        W57873  38.844  37.794   3.785
86148W        W57874  30.084  38.654   0.787
86149W        W57875  19.935  10.111  13.857
86150W        W57876   0.479   5.909   1.839
86151W        W57877  22.072  14.197   4.931
86152W        W57878  41.275  32.903  11.147
86153W        W57879  13.049  30.131   3.195
86154W        W57880  14.738  32.255  10.809
86155W        W57881  21.570  36.927   3.156
86156W        W57882  31.629  30.428   3.466
86157W        W57883  35.450   3.432   1.414
86158W        W57884  42.613  42.138  13.909
86159W        W57885  31.457  19.426   0.561
86160W        W57886  36.129  21.910  14.166
86161W        W57887  18.533  30.953   1.782
86162W        W57888  18.233  19.619  10.691
86163W        W57889  29.170  44.389   4.671
86164W        W57890   1.133  39.041   4.232
86165W        W57891   0.845   4.097   3.476
86166W        W57892  13.615  34.434  13.432
86167W        W57893  26.739  33.917  10.735
86168W        W57894  44.219  30.963   2.182
86169W        W57895  38.816  42.825  14.722
86170W        W57896  19.319  17.731  11.558
86171W        W57897  44.535  12.202   1.259
86172W        W57898  32.644  30.510   0.986
86173W        W57899  22.558   4.426  11.895
86174W        W57900  12.207  16.689  13.339
86175W        W57901  24.439  24.698   4.105
86176W        W57902  15.188   0.258  14.560
86177W        W57903   0.899  42.765  10.813
86178W        W57904  27.015  33.097  13.439
86179W        W57905  35.511  20.701   0.405
86180W        W57906  38.398   1.505  13.793
86181W        W57907  15.091  10.036   1.870
86182W        W57908  37.086  19.320  14.307
86183W        W57909   9.841  38.988   1.458
86184W        W57910  18.285   4.299  14.977
86185W        W57911  27.682   5.414  14.910
86186W        W57912   6.219   0.780   2.480
86187W        W57913   7.703  24.685  13.847
86188W        W57914  28.005  30.347   4.547
86189W        W57915  20.557   3.033  11.874
86190W        W57916   9.096  38.913  14.868
86191W        W57917  11.193  38.349   4.230
86192W        W57918  14.808   7.625  12.981
86193W        W57919  25.767  21.281   4.119
86194W        W57920   5.978  19.741  14.875
86195W        W57921  27.144  15.317   0.382
86196W        W57922  34.518  39.939   1.337
86197W        W57923  31.209  41.018   2.652
86198W        W57924  44.855  32.595  11.980
86199W        W57925  13.832  42.953  12.568
86200W        W57926  34.469  22.922  12.190
86201W        W57927  31.390  11.123   2.267
86202W        W57928   5.648   8.826  14.974
86203W        W57929  22.836  29.126  12.604
86204W        W57930  40.313   7.520   3.749
86205W        W57931  44.405  27.355  10.818
86206W        W57932   3.412  15.870  12.415
86207W        W57933  38.328  41.929   0.296
86208W        W57934  11.320  38.260   0.396
86209W        W57935  35.294  14.670  11.906
86210W        W57936  13.000   3.883   1.509
86211W        W57937  23.915  25.684   1.856
86212W        W57938  44.896  18.281  13.473
86213W        W57939  42.181  31.152  12.580
86214W        W57940  43.985  27.535  11.502
86215W        W57941  33.102  15.789  14.492
86216W        W57942  27.600  39.927   4.720
86217W        W57943  36.819  34.764  14.768
86218W        W57944  24.302  29.206  14.352
86219W        W57945  25.156  33.838  10.600
86220W        W57946   0.396  28.661   4.542
86221W        W57947  25.499  10.724   2.750
86222W        W57948  21.185  27.572  12.263
86223W        W57949  13.500   2.060   4.509
86224W        W57950  21.633  28.242  10.059
86225W        W57951  31.496  29.070   1.313
86226W        W57952  24.630   0.913   0.253
86227W        W57953  26.548  17.052   0.392
86228W        W57954  35.132   9.654  14.263
86229W        W57955  15.647  42.183  11.930
86230W        W57956  38.866  42.923  10.744
86231W        W57957  22.414  13.250   2.706
86232W        W57958  23.653  23.477  13.397
86233W        W57959  26.683   0.001   4.169
86234W        W57960  42.109   3.492  10.891
86235W        W57961  26.059  28.267   4.705
86236W        W57962   7.292  25.751   4.654
86237W        W57963  40.032  13.092  12.482
86238W        W57964   6.091  40.398  10.157
86239W        W57965   4.267   6.756  12.521
86240W        W57966  23.268  12.320   2.379
86241W        W57967  30.774  19.769  14.338
86242W        W57968  18.808   6.668   1.797
86243W        W57969  17.232   6.257  10.629
86244W        W57970   4.792   2.264  10.662
86245W        W57971  13.515  27.505   0.380
86246W        W57972  26.649  26.049  11.216
86247W        W57973   6.870   2.798   4.527
86248W        W57974   3.623  15.726  11.975
86249W        W57975  42.500   9.931   1.639
86250W        W57976  28.033  18.293   1.756
86251W        W57977   9.811  26.996  11.492
86252W        W57978  16.022  17.339   4.102
86253W        W57979  13.308  42.962  12.597
86254W        W57980   4.810  25.261  12.007
86255W        W57981  12.825   1.093  11.067
86256W        W57982  43.258   9.278   4.431
86257W        W57983  23.508  22.760   4.165
86258W        W57984  27.117  31.893   4.644
86259W        W57985  37.312  28.636   4.700
86260W        W57986  44.616  25.459   4.456
86261W        W57987   8.826  29.922   2.200
86262W        W57988  36.650   0.673  10.778
86263W        W57989  28.368  12.697   0.405
86264W        W57990  32.707  36.992   1.390
86265W        W57991   4.644  30.920  14.229
86266W        W57992  19.609  11.191  12.957
86267W        W57993  21.568   1.428  11.899
86268W        W57994  30.436   6.894  12.610
86269W        W57995  27.961   3.725  10.539
86270W        W57996   9.566  43.535  14.415
86271W        W57997  21.762  24.952  14.215
86272W        W57998   0.328   2.260  13.519
86273W        W57999  38.984  32.939  10.693
86274W        W58000  22.731  30.481   0.698
86275W        W58001  17.891  22.802  11.215
86276W        W58002  38.128  34.688  11.402
86277W        W58003  27.436  12.712  13.056
86278W        W58004  17.158  28.408  10.900
86279W        W58005  14.632  26.702   2.117
86280W        W58006   4.330  36.350  14.191
86281W        W58007  42.295   6.300   2.464
86282W        W58008   2.241  16.264   1.939
86283W        W58009  10.445  21.171   2.752
86284W        W58010  37.652   7.870  10.524
86285W        W58011   9.229   7.726   0.200
86286W        W58012  11.736   5.233   3.939
86287W        W58013  22.032  31.902   4.099
86288W        W58014   0.821  20.667  12.147
86289W        W58015   1.713  12.297   1.807
86290W        W58016  13.884  11.332   4.693
86291W        W58017  22.520  25.155  11.508
86292W        W58018  14.415  20.506   4.178
86293W        W58019  24.992   2.409  13.555
86294W        W58020  35.509   8.301   3.658
86295W        W58021   4.181  18.425  10.739
86296W        W58022  16.212  33.712  14.550
86297W        W58023   3.217  39.972  13.761
86298W        W58024  11.215  22.222   2.848
86299W        W58025   1.374  28.502   4.263
86300W        W58026  32.147   3.806  12.425
86301W        W58027  33.827  43.832   4.610
86302W        W58028  10.194  22.427   4.237
86303W        W58029  20.586   9.851  11.208
86304W        W58030  36.844  43.008  14.247
86305W        W58031  33.024  36.096   2.831
86306W        W58032  38.453  41.720  14.215
86307W        W58033  35.119  15.544   0.354
86308W        W58034  23.621  17.836  10.422
86309W        W58035  33.991  27.387   0.828
86310W        W58036  21.576   9.219  14.505
86311W        W58037   1.910  30.614  13.614
86312W        W58038  15.818  39.031  13.527
86313W        W58039  33.120  26.985  13.458
86314W        W58040   6.096  12.720  13.720
86315W        W58041  19.206  38.334  10.921
86316W        W58042  42.815   1.043  14.744
86317W        W58043  36.386  14.888  12.971
86318W        W58044   0.658  22.465   1.906
86319W        W58045  35.130  25.705  14.299
86320W        W58046  30.538   4.942   0.551
86321W        W58047  35.069   7.433  12.199
86322W        W58048  33.310  39.055   4.216
86323W        W58049  44.141  12.521  12.019
86324W        W58050  14.192  39.543  13.802
86325W        W58051  28.972  25.138  10.197
86326W        W58052   8.116  10.442  12.050
86327W        W58053  19.381  35.876   4.504
86328W        W58054  15.279  33.129  11.291
86329W        W58055  35.833  35.363  14.183
86330W        W58056   5.303  11.708  10.936
86331W        W58057   7.900   7.068  12.852
86332W        W58058  19.373  28.950   3.803
86333W        W58059  11.092  11.952   2.658
86334W        W58060  36.459  25.111  13.179
86335W        W58061  17.822  18.625  11.738
86336W        W58062   5.424  10.998   0.109
86337W        W58063  35.718   6.812  12.133
86338W        W58064   0.965  42.522   2.336
86339W        W58065   1.279  11.343   0.941
86340W        W58066  42.370  36.025   1.924
86341W        W58067  19.694  13.357  12.208
86342W        W58068  10.250  43.862  11.741
86343W        W58069   2.396  29.523   1.406
86344W        W58070  30.989  41.605   0.316
86345W        W58071  33.800  34.380  11.102
86346W        W58072  38.124  31.559   1.779
86347W        W58073  27.150  19.590  10.751
86348W        W58074  17.379  44.111   4.087
86349W        W58075  18.339  15.532   3.177
86350W        W58076  19.289   9.951  14.879
86351W        W58077  22.660   7.581  13.508
86352W        W58078  23.551   1.268  14.201
86353W        W58079  40.976  23.019   0.807
86354W        W58080  44.933   7.001   1.082
86355W        W58081  35.444  23.113  14.030
86356W        W58082  10.179  10.761   2.473
86357W        W58083  24.494   3.726   2.914
86358W        W58084  40.002  32.280   2.624
86359W        W58085  29.257  13.636  11.475
86360W        W58086  41.002  28.314   3.208
86361W        W58087  18.756  32.956  13.041
86362W        W58088  26.192  23.196  10.736
86363W        W58089  39.389  41.346   4.508
86364W        W58090  38.583  35.381  12.612
86365W        W58091  35.762  42.991  10.701
86366W        W58092  14.147  31.373  14.811
86367W        W58093  23.284   7.733   2.303
86368W        W58094  26.950  26.103  10.799
86369W        W58095  31.991  10.794  10.248
86370W        W58096   5.655  14.250  13.441
86371W        W58097  22.048  24.195  11.585
86372W        W58098  27.225  32.873  11.599
86373W        W58099  37.687  30.473   2.363
86374W        W58100   5.686  34.062   2.666
86375W        W58101  28.084  39.950   2.961
86376W        W58102  35.841   4.771   1.523
86377W        W58103   9.260  41.915   3.637
86378W        W58104   5.100   6.407  14.454
86379W        W58105   1.224  24.121  13.008
86380W        W58106  21.923   5.950   0.760
86381W        W58107  34.834  34.939  12.180
86382W        W58108  15.272  18.609  14.760
86383W        W58109  12.731   5.460   0.417
86384W        W58110  15.608   7.135  12.420
86385W        W58111   3.430   2.793  14.615
86386W        W58112   7.666  30.058   0.575
86387W        W58113   4.300   0.247  11.343
86388W        W58114  22.086  25.383  11.133
86389W        W58115  40.485  44.783   3.202
86390W        W58116  29.532  23.566   1.684
86391W        W58117  13.726  39.875  11.138
86392W        W58118  38.406   3.226  14.327
86393W        W58119  41.554  25.456  10.621
86394W        W58120  37.321  29.121   3.691
86395W        W58121  11.230  24.060   9.760
86396W        W58122  40.289  18.239   1.775
86397W        W58123  25.965  11.707   4.281
86398W        W58124  32.179  31.889   3.878
86399W        W58125   4.268   8.335  11.002
86400W        W58126  32.279  27.374  12.078
86401W        W58127   1.117  20.179   4.468
86402W        W58128  16.538  27.059  13.925
86403W        W58129  41.549  36.375   0.378
86404W        W58130  17.132  40.484   2.998
86405W        W58131   5.276  15.598   0.146
86406W        W58132  40.359  36.695   0.970
86407W        W58133   9.696   5.988  10.587
86408W        W58134  23.705  23.685  11.170
86409W        W58135   2.372  11.197  14.161
86410W        W58136  40.044   0.248   2.281
86411W        W58137  11.562  40.382  12.637
86412W        W58138  36.535  38.832  12.619
86413W        W58139  26.680   5.441   1.840
86414W        W58140   4.721   9.667   4.363
86415W        W58141  21.569  25.735  13.294
86416W        W58142   1.799  31.511  13.119
86417W        W58143   5.022  27.794   1.764
86418W        W58144  28.989  22.509  13.063
86419W        W58145  11.512  33.914   4.563
86420W        W58146   0.926  10.919  12.898
86421W        W58147  23.289   1.153  11.603
86422W        W58148  19.028   1.900  12.162
86423W        W58149  19.703  36.022   1.413
86424W        W58150  13.721  25.695  14.248
86425W        W58151  25.015   9.916   0.976
86426W        W58152  37.770   2.407  12.477
86427W        W58153  11.731  23.587  11.082
86428W        W58154  35.346   9.289  10.945
86429W        W58155  43.442  36.296  10.651
86430W        W58156  18.777  32.982   4.206
86431W        W58157   4.998  25.261   4.317
86432W        W58158  19.196  21.755   0.637
86433W        W58159  15.204  16.745   2.937
86434W        W58160   7.259   7.442  11.527
86435W        W58161  15.130  19.256  11.641
86436W        W58162   7.655  13.230   4.775
86437W        W58163   8.297  27.157   3.670
86438W        W58164   4.862   3.029   0.817
86439W        W58165  43.382  28.050   0.918
86440W        W58166  26.037  10.434  13.943
86441W        W58167  11.250  13.333  13.535
86442W        W58168  25.033  44.895   0.239
86443W        W58169  40.984  41.274  14.517
86444W        W58170  41.780  40.409   0.770
86445W        W58171  25.866  17.234   4.138
86446W        W58172   6.352  14.299   1.842
86447W        W58173  14.673  35.207   4.187
86448W        W58174  11.287  38.774   3.273
86449W        W58175  40.745  10.126  10.729
86450W        W58176   5.934   6.998   4.598
86451W        W58177  13.323   6.287   2.256
86452W        W58178  21.698  27.660  12.363
86453W        W58179   4.273  20.764   1.729
86454W        W58180   1.269  24.154   3.680
86455W        W58181   2.147  27.379  14.111
86456W        W58182  35.338  38.602  12.701
86457W        W58183  36.859  17.158   2.160
86458W        W58184   7.432  16.867   0.318
86459W        W58185  16.024  25.457   3.737
86460W        W58186  32.341  42.344   0.224
86461W        W58187  44.520  33.147  13.724
86462W        W58188  12.795  40.272  14.922
86463W        W58189  44.552  13.997   2.840
86464W        W58190  29.144  38.922   2.861
86465W        W58191  24.936  12.964   0.818
86466W        W58192  37.669  34.487  11.334
86467W        W58193  19.939  44.469  11.639
86468W        W58194  28.703  27.597   0.897
86469W        W58195   2.928  40.006   0.429
86470W        W58196   6.632  24.112   1.171
86471W        W58197  36.295  24.159   1.863
86472W        W58198   1.524  40.109   3.269
86473W        W58199  37.688  14.852   4.704
86474W        W58200  20.033  19.353  14.833
86475W        W58201  12.991   0.801  10.634
86476W        W58202  12.629  20.165   1.389
86477W        W58203   3.829  42.919   1.227
86478W        W58204  18.178  43.248   0.859
86479W        W58205  11.529   6.381  13.990
86480W        W58206  16.637   6.657   3.641
86481W        W58207  28.922   5.902  14.434
86482W        W58208  29.618   8.320  10.654
86483W        W58209  19.216  22.653  11.023
86484W        W58210  34.099  32.400  13.422
86485W        W58211   9.704  27.536   2.166
86486W        W58212  27.701  36.562   2.368
86487W        W58213  22.267  15.391   3.743
86488W        W58214  42.950   4.246   3.244
86489W        W58215  18.050  15.889  10.742
86490W        W58216  39.285  12.101   1.701
86491W        W58217  32.655  34.162   1.971
86492W        W58218  14.147  34.855  12.500
86493W        W58219   4.933  44.277  13.810
86494W        W58220  35.670   6.441   1.406
86495W        W58221  28.975  27.877   1.250
86496W        W58222  40.807  18.494  12.862
86497W        W58223  43.287  26.707   4.185
86498W        W58224   3.724  34.817  14.741
86499W        W58225  24.300  37.724   1.833
86500W        W58226  16.194  28.513   1.017
86501W        W58227  36.030  10.196  14.890
86502W        W58228  41.572  41.900   1.657
86503W        W58229   6.201  44.198   2.809
86504W        W58230  17.279  21.977   1.875
86505W        W58231   2.435  10.739  14.449
86506W        W58232   5.000  12.223   2.365
86507W        W58233   9.303  31.352  14.314
86508W        W58234  32.926  41.022   1.762
86509W        W58235  33.334  29.376  13.624
86510W        W58236  23.435  30.258  12.324
86511W        W58237   7.778  21.703   4.568
86512W        W58238  23.582  19.830   3.747
86513W        W58239   1.476  27.935   2.722
86514W        W58240  29.605   3.972   2.903
86515W        W58241  31.152   0.260   3.101
86516W        W58242   1.167  18.180   5.054
86517W        W58243   2.500  18.807   2.752
86518W        W58244  42.399  25.054  14.349
86519W        W58245  36.189   2.682  11.095
86520W        W58246   8.290  26.121  14.288
86521W        W58247  40.078  44.733  13.820
86522W        W58248  43.613  28.650  14.349
86523W        W58249  23.820  27.590  11.141
86524W        W58250  16.310  43.860   0.446
86525W        W58251  23.489  28.678  12.987
86526W        W58252  23.005  41.757  12.532
86527W        W58253  33.052   7.388   4.631
86528W        W58254  11.157  20.829   1.786
86529W        W58255  37.346  40.439  12.027
86530W        W58256   8.937  32.645   3.157
86531W        W58257  10.754   6.740   0.947
86532W        W58258  21.959  15.182   3.386
86533W        W58259  39.908  22.173   3.158
86534W        W58260  31.103   0.376   1.666
86535W        W58261  10.845  29.337   0.727
86536W        W58262  27.243  22.625  13.597
86537W        W58263   4.983   8.713  14.568
86538W        W58264   0.382  27.099   4.203
86539W        W58265  44.703  32.450  10.975
86540W        W58266  40.679  23.446   0.889
86541W        W58267  13.124  32.907  11.578
86542W        W58268   3.748  13.819   2.230
86543W        W58269  11.840  16.982   2.347
86544W        W58270   1.972  14.672   2.712
86545W        W58271  33.489  36.989  11.117
86546W        W58272  39.908  33.864   1.827
86547W        W58273   5.402  23.618  14.342
86548W        W58274  14.151  16.324  12.033
86549W        W58275  13.845  33.326  12.141
86550W        W58276   6.889  41.174   0.101
86551W        W58277   4.897  14.808   0.309
86552W        W58278  24.584  17.035  13.497
86553W        W58279  29.493   7.802   3.952
86554W        W58280  28.245  34.190  11.056
86555W        W58281  20.776  23.210   1.365
86556W        W58282  33.421  16.187  12.485
86557W        W58283  34.468   0.556  14.429
86558W        W58284  25.545  27.878   1.803
86559W        W58285  13.588  41.935  14.811
86560W        W58286  14.729  44.700  11.361
86561W        W58287   3.257  11.349  14.604
86562W        W58288  22.452  32.077  14.192
86563W        W58289  39.381  29.453   0.993
86564W        W58290  10.731  43.996  13.155
86565W        W58291  18.218  35.604  11.363
86566W        W58292   1.418  41.080   2.599
86567W        W58293  27.627  11.803  14.837
86568W        W58294  11.631  34.346  11.486
86569W        W58295  22.500   3.847  11.163
86570W        W58296  10.604   7.869  14.411
86571W        W58297  43.606  19.180   0.215
86572W        W58298   3.545  29.082  13.628
86573W        W58299  41.132  42.361  13.103
86574W        W58300  12.171  28.003   4.772
86575W        W58301  27.002  44.445   5.089
86576W        W58302  16.278  39.982   0.773
86577W        W58303  11.265  41.572  10.975
86578W        W58304  44.430  14.568   3.236
86579W        W58305   8.640   8.546  12.892
86580W        W58306  20.584  16.462  10.685
86581W        W58307   5.945  43.577   3.331
86582W        W58308  31.747  26.706   1.279
86583W        W58309  28.628  41.019   1.411
86584W        W58310  22.000  24.552  12.021
86585W        W58311  19.000  23.667  13.183
86586W        W58312   0.235  31.449  13.689
86587W        W58313  12.364  35.537   2.365
86588W        W58314  23.545  41.043   4.011
86589W        W58315  41.767  36.283  14.486
86590W        W58316  29.061   8.675   1.852
86591W        W58317  32.819  25.704  11.614
86592W        W58318  39.080   2.389   3.058
86593W        W58319  12.714  16.547  12.096
86594W        W58320  25.035   0.463   4.168
86595W        W58321  13.173  44.966  11.613
86596W        W58322   6.472  11.696  13.927
86597W        W58323  10.874  44.790  13.573
86598W        W58324  22.343  43.513  12.562
86599W        W58325  23.096  32.198   3.699
86600W        W58326  13.178  15.580  10.060
86601W        W58327  45.000  15.179  12.795
86602W        W58328  27.965  15.531  11.554
86603W        W58329  21.220  41.862  12.797
86604W        W58330  30.442  42.808  13.575
86605W        W58331   2.694  17.299   3.671
86606W        W58332  42.596   9.164  10.472
86607W        W58333  44.730   7.672  14.474
86608W        W58334  13.113   9.365  10.774
86609W        W58335   3.426   7.149  12.116
86610W        W58336  17.834  13.026  12.518
86611W        W58337  15.674  35.917  10.670
86612W        W58338  33.796  34.519   1.842
86613W        W58339  30.540  24.286  11.929
86614W        W58340   8.409  27.655   1.335
86615W        W58341   4.953  34.512  13.981
86616W        W58342  23.744  14.868   2.391
86617W        W58343  35.373  14.579  12.391
86618W        W58344  28.153  36.930  13.468
86619W        W58345  27.110  40.952   4.580
86620W        W58346  37.998  37.083  12.635
86621W        W58347  40.099  10.362   4.270
86622W        W58348  39.330  36.578   4.117
86623W        W58349  23.062  17.568   2.313
86624W        W58350  21.795  39.267  12.790
86625W        W58351   2.101  18.610  11.136
86626W        W58352  20.418  41.100  14.385
86627W        W58353  29.883   7.837   1.398
86628W        W58354   0.589  28.081  11.149
86629W        W58355  19.025   7.163   4.046
86630W        W58356  20.581  30.490   4.197
86631W        W58357  14.805   0.812   3.176
86632W        W58358  14.179  43.102   2.220
86633W        W58359   4.278  33.310   3.787
86634W        W58360  34.914  22.483  14.027
86635W        W58361   3.867  21.988   3.223
86636W        W58362  36.113  35.559   0.696
86637W        W58363  27.632  33.992  13.818
86638W        W58364  11.023  26.980  12.155
86639W        W58365  25.512   2.848  12.360
86640W        W58366  35.104  16.083   0.323
86641W        W58367   8.243  19.089  14.240
86642W        W58368  27.945  32.029   0.462
86643W        W58369  16.547  16.337   1.407
86644W        W58370  19.485  15.614   0.423
86645W        W58371  14.148   0.364  14.125
86646W        W58372  12.218  33.757  13.146
86647W        W58373  27.921  41.928   2.228
86648W        W58374  37.995  15.656  13.951
86649W        W58375  12.811   6.166   0.757
86650W        W58376  33.125  20.596   0.015
86651W        W58377  42.977  32.858   4.663
86652W        W58378  41.507  31.060  14.828
86653W        W58379  27.158  14.334   0.291
86654W        W58380  15.609  44.988   4.138
86655W        W58381   5.058  15.151  12.829
86656W        W58382  36.313  16.056   1.459
86657W        W58383   6.158  21.510  10.616
86658W        W58384  33.067  30.269  11.239
86659W        W58385   0.289  32.463   4.554
86660W        W58386   4.434  37.417  10.848
86661W        W58387   3.151  34.939  11.219
86662W        W58388   2.114  36.249   2.675
86663W        W58389  23.027   2.732  13.421
86664W        W58390   8.386  31.073  10.789
86665W        W58391  31.362   2.175   4.856
86666W        W58392  41.662  42.405   3.281
86667W        W58393  31.135  40.501   2.811
86668W        W58394   1.688  10.704  12.535
86669W        W58395  43.938  16.780   4.624
86670W        W58396  42.338  12.747   3.287
86671W        W58397   9.656  20.099  12.108
86672W        W58398  42.442  19.099   1.971
86673W        W58399  31.644  20.192   0.864
86674W        W58400  25.258   8.673  11.775
86675W        W58401  42.554  44.024  13.837
86676W        W58402  40.898  21.068   3.304
86677W        W58403  16.515  29.018  13.032
86678W        W58404  36.548  27.079   1.238
86679W        W58405  28.714  40.038  12.536
86680W        W58406  42.427  34.870  14.362
86681W        W58407  23.621  23.694   2.977
86682W        W58408  14.796  15.719  12.532
86683W        W58409  20.833   8.115   5.008
86684W        W58410   2.019   4.537  12.993
86685W        W58411  41.287  29.636   2.666
86686W        W58412  28.194  22.141  12.964
86687W        W58413   0.396   1.459  11.448
86688W        W58414  35.522  34.872  10.707
86689W        W58415  18.685  30.924  14.855
86690W        W58416  25.785  10.798   4.298
86691W        W58417  18.383  19.137  12.345
86692W        W58418   9.729  30.143  14.038
86693W        W58419   2.472   0.803   0.779
86694W        W58420  29.006  29.741  12.400
86695W        W58421  31.871  42.978   1.322
86696W        W58422  29.493  34.698   3.573
86697W        W58423   6.326  38.101  14.377
86698W        W58424  13.750  21.043  10.618
86699W        W58425  31.832  37.299   1.737
86700W        W58426  26.670  23.603   0.416
86701W        W58427   2.327  41.128  14.374
86702W        W58428   2.697  29.655   1.797
86703W        W58429   8.921  41.972  11.067
86704W        W58430   4.228   7.457  11.489
86705W        W58431  25.171  24.885  13.979
86706W        W58432  12.773  44.924   1.415
86707W        W58433  28.839  38.987   3.325
86708W        W58434  10.714  10.745  12.573
86709W        W58435  43.371  14.309   1.854
86710W        W58436  26.593  37.298   4.582
86711W        W58437  38.530  16.661   3.302
86712W        W58438   5.766   6.898   1.170
86713W        W58439  13.039   0.508  13.793
86714W        W58440   9.431   5.176  13.156
86715W        W58441  18.251  17.508  13.815
86716W        W58442  23.093  12.467  13.986
86717W        W58443  31.157   0.427  14.002
86718W        W58444   4.380  41.746   4.934
86719W        W58445  12.054  27.102   3.165
86720W        W58446  41.831   9.351  13.863
86721W        W58447  14.205   6.033   5.060
86722W        W58448  42.041  22.445  13.450
86723W        W58449  40.570  16.348   0.691
86724W        W58450  12.202  40.343   2.997
86725W        W58451  13.009   0.252   1.727
86726W        W58452  12.072   8.727   3.693
86727W        W58453  12.529  43.446   2.060
86728W        W58454  30.572   2.461   2.697
86729W        W58455  14.362   2.312  12.303
86730W        W58456   0.219  41.401  14.378
86731W        W58457   8.507  33.017   3.725
86732W        W58458  39.532  29.402  13.387
86733W        W58459   9.992  20.889   2.920
86734W        W58460  36.998   5.688   4.500
86735W        W58461   4.258  16.882  14.861
86736W        W58462   6.446  32.473   4.720
86737W        W58463  13.076  37.473  12.317
86738W        W58464   0.855  39.126  13.860
86739W        W58465   9.150  10.830  11.051
86740W        W58466  20.552  35.890  11.124
86741W        W58467  12.256   9.965  12.496
86742W        W58468   6.164  34.837   1.964
86743W        W58469  15.586   9.930  12.034
86744W        W58470  39.962  28.393   2.315
86745W        W58471  39.074  26.826   5.080
86746W        W58472  21.094  14.926   5.515
86747W        W58473  24.924  32.666   4.631
86748W        W58474  40.782  15.694   0.294
86749W        W58475  43.765  42.614   2.176
86750W        W58476  36.883  11.699   4.186
86751W        W58477  28.311   7.351  13.584
86752W        W58478  22.221  12.856   3.000
86753W        W58479   2.710  10.869  12.587
86754W        W58480  41.034  26.779   2.468
86755W        W58481  22.273  16.607  10.547
86756W        W58482  19.944  12.267   2.552
86757W        W58483   2.754  34.497   2.736
86758W        W58484  24.510  43.317  11.409
86759W        W58485  33.537  28.937   4.237
86760W        W58486   8.757  22.314   0.354
86761W        W58487  36.293  38.558   1.733
86762W        W58488  41.218  28.519  13.182
86763W        W58489  14.698  11.119  12.080
86764W        W58490  43.028  14.156   1.484
86765W        W58491  15.904  22.803  14.784
86766W        W58492  34.441   5.043   2.861
86767W        W58493  12.706  39.287   2.304
86768W        W58494  22.510   7.976  13.817
86769W        W58495  22.682   7.476  11.457
86770W        W58496  31.514  27.930   3.732
86771W        W58497  43.854  19.586  12.125
86772W        W58498  28.444  37.945   2.371
86773W        W58499  19.329  21.289  11.184
86774W        W58500  39.919  12.658  14.816
86775W        W58501  36.913  24.450   1.225
86776W        W58502  24.140   1.733   0.607
86777W        W58503  30.623   2.207   0.641
86778W        W58504   6.445  42.465   4.173
86779W        W58505   4.982   6.831  13.751
86780W        W58506   7.103  18.833   4.073
86781W        W58507  37.265  18.900   2.233
86782W        W58508  26.163  35.675  13.323
86783W        W58509  14.437  22.188   5.181
86784W        W58510   8.583  27.750  13.862
86785W        W58511  36.724   6.765   0.915
86786W        W58512  27.586  23.747   1.742
86787W        W58513  25.747   0.591  12.709
86788W        W58514  11.627  17.423   1.289
86789W        W58515  40.855  27.905   4.105
86790W        W58516  13.867  22.595  14.554
86791W        W58517  41.993  37.815  10.940
86792W        W58518  31.270  17.135   3.645
86793W        W58519  44.316  30.884   3.626
86794W        W58520  30.459  32.847   4.273
86795W        W58521  13.020   1.356  14.433
86796W        W58522   8.292  27.687   2.397
86797W        W58523   9.932  30.284  11.649
86798W        W58524   5.789  18.844   3.276
86799W        W58525  37.555  31.068   4.107
86800W        W58526   4.302  25.987   4.360
86801W        W58527  14.153  26.916   4.265
86802W        W58528   2.930   5.461  12.595
86803W        W58529  12.897   9.395   0.890
86804W        W58530  40.143  38.920   4.370
86805W        W58531  40.153  21.528   3.646
86806W        W58532  23.289  13.727  13.328
86807W        W58533   9.603  38.859  14.085
86808W        W58534  31.755   9.886  10.604
86809W        W58535  19.467  33.306   0.950
86810W        W58536  31.468   4.335  12.551
86811W        W58537  16.030  38.835   2.325
86812W        W58538  13.167  11.129  10.529
86813W        W58539  42.069  41.944   0.744
86814W        W58540   9.332  14.439   4.328
86815W        W58541   1.448   0.164  12.972
86816W        W58542  25.726   5.842  11.204
86817W        W58543   7.711  15.315  11.614
86818W        W58544   5.883  36.318   2.807
86819W        W58545  18.070   1.463   0.407
86820W        W58546  20.403  22.001  11.144
86821W        W58547  27.546   0.244   4.103
86822W        W58548  42.464  35.200   4.574
86823W        W58549  30.077  29.683   0.731
86824W        W58550   7.427  17.825   4.696
86825W        W58551   0.911  32.235  14.391
86826W        W58552   2.784  14.283   0.666
86827W        W58553  12.730  44.991  12.844
86828W        W58554  13.188  30.025  14.761
86829W        W58555  34.524  13.312  12.083
86830W        W58556   9.677  41.854   0.972
86831W        W58557  22.487  15.631   4.130
86832W        W58558  23.039   5.370   4.314
86833W        W58559  28.896  38.421   4.086
86834W        W58560  33.095   9.442   3.368
86835W        W58561  19.069   0.956   3.172
86836W        W58562  29.583  34.978   4.430
86837W        W58563  15.476  36.894   0.722
86838W        W58564   3.450  33.521  11.616
86839W        W58565  39.563  13.818   2.857
86840W        W58566  38.040  20.029   3.864
86841W        W58567  35.297   7.073   0.222
86842W        W58568  44.980  28.388   1.437
86843W        W58569  14.767   7.293   4.799
86844W        W58570  44.414  36.538   4.545
86845W        W58571  15.526  30.084   1.659
86846W        W58572  15.520  36.330  12.396
86847W        W58573  40.868  27.514  10.470
86848W        W58574  31.497  42.271   3.375
86849W        W58575  20.178  40.431  11.726
86850W        W58576   0.702  25.610   2.300
86851W        W58577   5.122   2.384  14.287
86852W        W58578  26.206  15.305  11.151
86853W        W58579  44.073  23.741   3.725
86854W        W58580  43.765  44.077  11.232
86855W        W58581   8.728  34.519   2.076
86856W        W58582  22.288  10.121   1.245
86857W        W58583  32.104   0.174   4.942
86858W        W58584  21.169   6.850  11.551
86859W        W58585   6.847  31.440   2.288
86860W        W58586  14.254   8.066   2.377
86861W        W58587  12.277   0.700   3.389
86862W        W58588   6.021   9.764  10.785
86863W        W58589  35.551  31.490   2.338
86864W        W58590  19.551   3.181  12.899
86865W        W58591  30.180  39.042  11.240
86866W        W58592  30.242  30.159  11.665
86867W        W58593  17.910  37.901  13.039
86868W        W58594  31.330   4.278   4.047
86869W        W58595  44.872   0.733   2.177
86870W        W58596  20.634  39.589   3.348
86871W        W58597  18.293   8.159  10.400
86872W        W58598  10.088   1.307  13.358
86873W        W58599   6.481  36.612   3.133
86874W        W58600  26.724  27.968   4.142
86875W        W58601  22.988  24.578  12.983
86876W        W58602  24.884  25.296   2.399
86877W        W58603  23.153  15.340   2.731
86878W        W58604  28.917  19.104   1.242
86879W        W58605  33.926  10.173  14.158
86880W        W58606   8.775  25.424   2.161
86881W        W58607  25.496  38.768   4.601
86882W        W58608  40.985   4.856   2.179
86883W        W58609  21.660  44.890   3.376
86884W        W58610  16.781  27.962  12.235
86885W        W58611   2.565  19.113   0.353
86886W        W58612  38.954  23.048   1.592
86887W        W58613  41.428   0.989  13.424
86888W        W58614  16.768   5.515   4.559
86889W        W58615   7.887  15.482  12.584
86890W        W58616  17.871   5.510   3.770
86891W        W58617  37.827  23.735   3.239
86892W        W58618  16.897  39.924  10.111
86893W        W58619   0.953  34.022   0.789
86894W        W58620  19.346  39.580   3.003
86895W        W58621  44.409  25.527   0.557
86896W        W58622  19.377  16.239  11.908
86897W        W58623  30.866  41.803  13.106
86898W        W58624   1.129  24.436  11.104
86899W        W58625  28.238  16.642   0.833
86900W        W58626  27.632  31.148  10.658
86901W        W58627  18.208  19.404   4.235
86902W        W58628  31.992   7.061  12.526
86903W        W58629  44.832   2.213   2.416
86904W        W58630  12.072   0.660  11.057
86905W        W58631  42.291  31.974  12.282
86906W        W58632  31.668  32.239   3.812
86907W        W58633  19.750  19.743   2.108
86908W        W58634  14.599   6.095  14.561
86909W        W58635  37.957  41.944   4.126
86910W        W58636  43.340   5.298  11.039
86911W        W58637  30.188  17.794  10.952
86912W        W58638  42.007  43.607  12.465
86913W        W58639  27.921  12.734   3.665
86914W        W58640   8.821   3.299   0.461
86915W        W58641   2.787  33.380   1.329
86916W        W58642  20.777   7.679  14.752
86917W        W58643  32.245  24.695   1.800
86918W        W58644  43.330  33.214   4.507
86919W        W58645  29.558   4.873  10.847
86920W        W58646  22.530   9.155   4.507
86921W        W58647  34.348  25.280   4.399
86922W        W58648  39.419   5.498  12.671
86923W        W58649  17.538  17.169  11.911
86924W        W58650  33.963  34.948   4.379
86925W        W58651  26.414  42.097  10.792
86926W        W58652   9.305  22.607  11.465
86927W        W58653  39.233  41.056   0.734
86928W        W58654   6.834  18.184   3.884
86929W        W58655  22.536   1.351  13.842
86930W        W58656  28.234  40.280   0.204
86931W        W58657   9.269  44.321   3.441
86932W        W58658  36.090   3.211   2.400
86933W        W58659  43.604  26.510  14.353
86934W        W58660  40.621  15.653  10.571
86935W        W58661  40.851   3.800   1.883
86936W        W58662  38.605  23.109  13.502
86937W        W58663  11.553  36.376   5.505
86938W        W58664  25.672  38.323  13.898
86939W        W58665   2.229   4.978  11.402
86940W        W58666  22.009  14.048  14.538
86941W        W58667  15.459  11.796   2.083
86942W        W58668  23.175  32.861   1.419
86943W        W58669  32.621  40.132  14.975
86944W        W58670  31.136  42.454   2.394
86945W        W58671  39.835  24.132   3.672
86946W        W58672  14.992  17.285  12.141
86947W        W58673  30.381  37.300   5.017
86948W        W58674  24.030  12.841   3.302
86949W        W58675   7.408  42.890   2.247
86950W        W58676   7.470  26.765  12.423
86951W        W58677  42.293  15.176  12.918
86952W        W58678  22.268   9.250  12.160
86953W        W58679  34.432  42.515   0.016
86954W        W58680  28.112   2.000   4.066
86955W        W58681  44.465   5.842  12.416
86956W        W58682   2.497  38.596   4.417
86957W        W58683   1.538  38.743   2.235
86958W        W58684  17.801  41.030   0.965
86959W        W58685  11.686  29.755  13.710
86960W        W58686  20.209   8.176   3.825
86961W        W58687  19.089  29.385  13.907
86962W        W58688   6.259   6.413  10.189
86963W        W58689  22.045  39.790   3.614
86964W        W58690  28.404  13.356  12.505
86965W        W58691  14.033  37.949   3.737
86966W        W58692   7.451  13.672   0.020
86967W        W58693  16.741   4.293   0.820
86968W        W58694  40.252  44.347   1.793
86969W        W58695  22.696  34.214   3.239
86970W        W58696  11.554  14.118  11.200
86971W        W58697  34.023  31.644   3.872
86972W        W58698  23.015  39.511   2.820
86973W        W58699  40.123   6.236  11.713
86974W        W58700  32.849  16.898   0.851
86975W        W58701   5.210   8.491  12.111
86976W        W58702  23.627  18.607  14.919
86977W        W58703  25.411  16.268   0.145
86978W        W58704   8.816  38.969  10.612
86979W        W58705  30.685  41.440  11.440
86980W        W58706   6.533   6.861  12.756
86981W        W58707  14.381  13.856   3.673
86982W        W58708  36.520  29.430   0.745
86983W        W58709   7.752  25.579  11.652
86984W        W58710   9.335  20.663   4.501
86985W        W58711  13.575  16.067  13.638
86986W        W58712   4.232  15.793   0.977
86987W        W58713  32.537  20.389   4.328
86988W        W58714  32.187  27.699  11.125
86989W        W58715   7.952   4.733   1.189
86990W        W58716  33.678  25.496  13.880
86991W        W58717   8.837  17.978  10.697
86992W        W58718  27.995  25.275  10.274
86993W        W58719  37.845   3.225  10.771
86994W        W58720  30.349   5.660  13.407
86995W        W58721  21.607   4.988  11.109
86996W        W58722  23.977  15.878   4.162
86997W        W58723   4.107  10.350   3.446
86998W        W58724  21.192  44.287   4.175
86999W        W58725   7.420  10.646   2.317
87000W        W58726  18.740  40.267   1.052
87001W        W58727  24.402   3.720  14.435
87002W        W58728   1.002  34.500   1.010
87003W        W58729   5.324  32.613  12.405
87004W        W58730  37.670  44.899   0.207
87005W        W58731  39.961  10.912   0.683
87006W        W58732  42.489  12.652  12.223
87007W        W58733  43.150  14.185   4.211
87008W        W58734  13.241  23.080   2.095
87009W        W58735  28.078  21.264  14.906
87010W        W58736  35.429  32.026   4.126
87011W        W58737  21.797  29.139   0.396
87012W        W58738  28.111  41.009   1.413
87013W        W58739  11.243   3.352  13.793
87014W        W58740   0.714   6.299  13.744
87015W        W58741   2.488  20.167  11.576
87016W        W58742  25.748  30.031   2.044
87017W        W58743   0.358  26.013   2.282
87018W        W58744  15.657  33.220   2.400
87019W        W58745  21.626  17.229   4.008
87020W        W58746   8.490  22.677   2.264
87021W        W58747  18.152  14.051  13.105
87022W        W58748  20.070  21.589   0.873
87023W        W58749   9.431   6.455   4.147
87024W        W58750  42.569  22.404   3.566
87025W        W58751  15.061  40.679  14.176
87026W        W58752  42.813   3.369  12.511
87027W        W58753   5.632  44.980   2.337
87028W        W58754  41.064  12.595  14.361
87029W        W58755   9.012  17.631   2.397
87030W        W58756  29.540  10.120  14.989
87031W        W58757  35.296  42.501   3.795
87032W        W58758  14.495  39.025  11.089
87033W        W58759  10.632   5.565  11.485
87034W        W58760   9.815  25.276  11.953
87035W        W58761  38.142  14.113   4.711
87036W        W58762   5.646   0.159  11.139
87037W        W58763  31.048  35.124   0.564
87038W        W58764  22.055   1.668   3.197
87039W        W58765  37.228  28.849   1.752
87040W        W58766  43.307  21.760   0.228
87041W        W58767   0.239  26.630  13.425
87042W        W58768  21.140   2.314  11.897
87043W        W58769  25.027  15.114  11.608
87044W        W58770  44.354  31.349   1.797
87045W        W58771   8.732  15.241   0.892
87046W        W58772  20.192  28.142  10.190
87047W        W58773   5.349  19.287   3.870
87048W        W58774  15.754  27.560  10.342
87049W        W58775  27.714  29.615  12.264
87050W        W58776  25.232  24.655   3.163
87051W        W58777  17.380  33.706   4.369
87052W        W58778  31.268  27.776   4.173
87053W        W58779  17.224   2.705   1.677
87054W        W58780  29.711   8.105  14.705
87055W        W58781  34.212  19.692   3.392
87056W        W58782  42.772  37.425  12.413
87057W        W58783  21.266  30.014  12.459
87058W        W58784   6.149   2.199   4.733
87059W        W58785  23.563   8.160  13.327
87060W        W58786   7.910  10.878   2.435
87061W        W58787  21.885   7.188  13.890
87062W        W58788  19.946  10.636  13.827
87063W        W58789  21.750  43.876  14.059
87064W        W58790  31.045  17.677  14.218
87065W        W58791  26.606  19.463   2.389
87066W        W58792  31.200  20.221   3.973
87067W        W58793   2.351   6.119  14.729
87068W        W58794  44.904  15.896  13.856
87069W        W58795  38.422   0.718  13.445
87070W        W58796  37.280  32.430  11.041
87071W        W58797  18.258  30.041   2.150
87072W        W58798  23.072  16.589   0.381
87073W        W58799   9.519  17.774   2.318
87074W        W58800  31.252   6.322   2.700
87075W        W58801  18.296  32.914   0.536
87076W        W58802  33.545   6.522   1.511
87077W        W58803  13.338  31.837  12.738
87078W        W58804   4.452  37.486  12.886
87079W        W58805  19.262  30.579   4.743
87080W        W58806  14.493  11.579  11.945
87081W        W58807   1.913  24.820  14.750
87082W        W58808  18.042  11.731  10.711
87083W        W58809  32.052  28.134   2.875
87084W        W58810  30.548  37.880  14.518
87085W        W58811   1.335  38.296  11.121
87086W        W58812  23.048  18.261   3.150
87087W        W58813  41.795  26.396  11.980
87088W        W58814  33.902  42.803  14.470
87089W        W58815  34.242  38.569  12.021
87090W        W58816  39.342   9.705  13.901
87091W        W58817   6.215  44.471   4.748
87092W        W58818   3.323  34.599  13.842
87093W        W58819   3.585   2.463   1.904
87094W        W58820  36.449  31.222  14.980
87095W        W58821  19.610  16.079  13.329
87096W        W58822  40.418  36.616   2.700
87097W        W58823  16.739  31.056  14.772
87098W        W58824  16.546  20.301   2.837
87099W        W58825   1.762  44.930  13.302
87100W        W58826  37.960   4.332   1.639
87101W        W58827   9.096  17.149  10.623
87102W        W58828  17.715  41.372  14.507
87103W        W58829  43.128  36.839   0.409
87104W        W58830  20.626   3.816   4.134
87105W        W58831  13.702  41.373  14.952
87106W        W58832  30.022  14.121   4.405
87107W        W58833   9.370   8.798   0.209
87108W        W58834  43.056  15.133  13.905
87109W        W58835  44.952  32.825   3.652
87110W        W58836   4.070   3.853   4.486
87111W        W58837  39.987  44.691  10.505
87112W        W58838  23.661  26.477   0.785
87113W        W58839  15.980  20.170  10.757
87114W        W58840  13.034  42.871   3.628
87115W        W58841  24.681  19.588  11.252
87116W        W58842  29.969  23.679   5.017
87117W        W58843   3.808  18.141   4.002
87118W        W58844  44.705  23.288  11.838
87119W        W58845  40.385  43.523   1.685
87120W        W58846  18.709  33.238  12.172
87121W        W58847  40.075   3.717   1.380
87122W        W58848  36.654   8.755   2.339
87123W        W58849  24.386  37.737   0.773
87124W        W58850  31.026  18.014  11.931
87125W        W58851  12.446  28.067   4.314
87126W        W58852   0.310  36.585   4.917
87127W        W58853  40.892   6.614  11.448
87128W        W58854  27.148   7.856  13.540
87129W        W58855  37.481  37.317   0.208
87130W        W58856  11.360  17.222   2.264
87131W        W58857  31.160  27.592  11.044
87132W        W58858  16.201  13.776  13.212
87133W        W58859  23.156   7.606  11.582
87134W        W58860   5.673  12.141   3.645
87135W        W58861  13.446  23.216   0.174
87136W        W58862  33.806  34.523  10.590
87137W        W58863  28.646  36.293   2.242
87138W        W58864  30.539  13.600  12.072
87139W        W58865  19.846  41.277  11.459
87140W        W58866  28.006  16.890   1.257
87141W        W58867  37.637  22.165   4.194
87142W        W58868  38.103  37.095   0.372
87143W        W58869  28.219  42.802  11.747
87144W        W58870  36.265  28.612   2.792
87145W        W58871  40.525  22.154   2.759
87146W        W58872  23.828  31.703  11.061
87147W        W58873  33.069  25.148   0.290
87148W        W58874  32.880   6.735   3.309
87149W        W58875  33.235  23.963   0.300
87150W        W58876  41.496   0.452   2.702
87151W        W58877  14.698  23.469   0.897
87152W        W58878  30.211  43.885   9.704
87153W        W58879  27.504  18.511  14.629
87154W        W58880   5.747  23.051   4.072
87155W        W58881   5.773  32.499   0.236
87156W        W58882  24.733  33.826   2.286
87157W        W58883  40.720  39.122  12.843
87158W        W58884  17.203  19.284   2.305
87159W        W58885  42.345   1.752   2.388
87160W        W58886  10.030  25.066  14.747
87161W        W58887  23.602  21.752   2.899
87162W        W58888  13.865  44.637  11.396
87163W        W58889  36.084  24.682  14.956
87164W        W58890   2.904   4.964  13.999
87165W        W58891  24.554   4.245   3.983
87166W        W58892  23.138  36.871  12.879
87167W        W58893  12.764   1.466   1.412
87168W        W58894   0.187  24.646   1.836
87169W        W58895  20.579  41.019   3.438
87170W        W58896  35.064  11.269  14.918
87171W        W58897  14.961  39.569   0.737
87172W        W58898   4.152  28.793  10.339
87173W        W58899   6.802  25.939   3.744
87174W        W58900  39.887  30.572   3.306
87175W        W58901  39.287  41.761  14.076
87176W        W58902  20.442  34.988   3.232
87177W        W58903  35.396  37.416  11.535
87178W        W58904  40.538  19.803  11.862
87179W        W58905  33.448  13.705   2.685
87180W        W58906   3.240  11.266  11.603
87181W        W58907  29.491   7.322  13.965
87182W        W58908  28.438  37.974  13.494
87183W        W58909  27.976   3.136  14.942
87184W        W58910  25.044   8.091  13.514
87185W        W58911  18.727  29.045  14.554
87186W        W58912  13.551  25.716  12.756
87187W        W58913  32.175  30.573  11.659
87188W        W58914  44.747  14.771  12.615
87189W        W58915  36.209  42.964   2.698
87190W        W58916   1.363  14.862   0.777
87191W        W58917  39.921   1.729   3.111
87192W        W58918  14.310  27.749  12.204
87193W        W58919  12.063  21.311  11.076
87194W        W58920  20.160  25.179  11.720
87195W        W58921   0.938   4.936   0.012
87196W        W58922  30.041  17.446  13.363
87197W        W58923  29.641  37.788  14.937
87198W        W58924  43.979  27.335   1.297
87199W        W58925  28.682  26.109  14.860
87200W        W58926  28.489   8.254   2.881
87201W        W58927  16.533  27.170   1.455
87202W        W58928  44.370  26.390   4.909
87203W        W58929   9.248   1.234   0.770
87204W        W58930   5.254  36.116   4.262
87205W        W58931  40.094  15.565  10.708
87206W        W58932  18.992   1.395  12.154
87207W        W58933  12.898   6.045  12.044
87208W        W58934  30.040  24.031  12.008
87209W        W58935  34.447  14.881   4.186
87210W        W58936  19.176  26.845  13.371
87211W        W58937  27.385  34.328   1.227
87212W        W58938  10.271  23.217  13.844
87213W        W58939   9.081  44.732  14.911
87214W        W58940   9.661  36.980  12.348
87215W        W58941  44.227  32.251  13.942
87216W        W58942  22.437  25.745  11.176
87217W        W58943  20.897  30.073   4.140
87218W        W58944  20.112  37.332  13.328
87219W        W58945  31.158  41.633   1.894
87220W        W58946  35.040  39.943  10.759
87221W        W58947  18.521  42.523   3.178
87222W        W58948  21.205  22.207  10.785
87223W        W58949  28.679   8.352  14.774
87224W        W58950  34.861  35.199   5.074
87225W        W58951  25.425  35.971  12.438
87226W        W58952  40.971  25.812   2.086
87227W        W58953   2.662  11.206  11.578
87228W        W58954   7.834   6.640  10.077
87229W        W58955   0.337   7.740   3.124
87230W        W58956  40.900  17.696  14.352
87231W        W58957   4.321  26.942   2.760
87232W        W58958  32.524  39.772  12.490
87233W        W58959  37.495  22.533   1.018
87234W        W58960   1.908   9.463   0.877
87235W        W58961  43.913  30.787  11.914
87236W        W58962  22.643  11.866  11.411
87237W        W58963   0.887  39.630   0.788
87238W        W58964  13.015  36.204  14.260
87239W        W58965   6.003  14.826  13.391
87240W        W58966  24.603   6.153   1.424
87241W        W58967  41.917   2.303   3.756
87242W        W58968  39.341  25.173   2.597
87243W        W58969  32.485  39.801   3.173
87244W        W58970  26.160  35.351  10.553
87245W        W58971  41.736  15.006  10.657
87246W        W58972  43.129  44.172  10.663
87247W        W58973  11.684   9.918  14.534
87248W        W58974  11.279  36.413   4.995
87249W        W58975  34.103   4.481  12.687
87250W        W58976   1.360   1.251  10.901
87251W        W58977  32.609  14.087  14.848
87252W        W58978  39.328  28.491   2.719
87253W        W58979  11.065  26.001  13.501
87254W        W58980  22.268  22.292   0.845
87255W        W58981  17.273   5.279  13.094
87256W        W58982  11.631  43.841   4.266
87257W        W58983  39.723  39.979  13.110
87258W        W58984  27.402  12.269  11.588
87259W        W58985  31.498   1.650   2.771
87260W        W58986  11.775  11.332   3.056
87261W        W58987  44.721   8.681   1.923
87262W        W58988   2.651  33.877   0.911
87263W        W58989  40.844  22.711   1.267
87264W        W58990  20.666  15.262   1.758
87265W        W58991  29.640  13.110  14.062
87266W        W58992  10.559  37.331  11.213
87267W        W58993  27.849   9.118  13.447
87268W        W58994  27.583  12.518   2.418
87269W        W58995  24.273  41.785  11.997
87270W        W58996  16.705  27.363  12.566
87271W        W58997  21.286   8.110  11.133
87272W        W58998  41.865  13.071   3.210
87273W        W58999  19.712  16.567  13.277
87274W        W59000  40.529  20.210  12.224
87275W        W59001  14.395   7.890  12.756
87276W        W59002   9.748  36.432  11.121
87277W        W59003   0.561  30.004  14.913
87278W        W59004  27.901  29.833   1.090
87279W        W59005  42.529   5.157   4.662
87280W        W59006   1.238  27.391   1.648
87281W        W59007  31.129   3.793   3.894
87282W        W59008  36.050  30.986   0.237
87283W        W59009  28.594  30.047  11.129
87284W        W59010  18.601   2.199  10.694
87285W        W59011  10.142   5.436  13.408
87286W        W59012  38.220   7.254   0.706
87287W        W59013  25.892  12.080  12.435
87288W        W59014  35.727  28.606   2.946
87289W        W59015   5.531  13.395   2.200
87290W        W59016  35.882  37.606  13.348
87291W        W59017   8.145   2.453  13.003
87292W        W59018  19.780  43.202  11.680
87293W        W59019  10.748  13.807   1.757
87294W        W59020  34.629   0.247  12.130
87295W        W59021  23.804  38.157   3.659
87296W        W59022  42.382   9.197  12.984
87297W        W59023  26.221  36.570   3.148
87298W        W59024  32.039  40.615   2.328
87299W        W59025  28.426  24.097   4.610
87300W        W59026  31.408  43.601  13.082
87301W        W59027  44.969  16.796  14.366
87302W        W59028   5.799  44.958   0.892
87303W        W59029  12.329  26.878  13.772
87304W        W59030  18.697  17.971  12.984
87305W        W59031  33.820  35.183   9.911
87306W        W59032  28.693  28.599   4.232
87307W        W59033  28.610   9.053   3.740
87308W        W59034   2.977  27.981  13.445
87309W        W59035  26.214  30.042   2.257
87310W        W59036   4.036  12.677  12.683
87311W        W59037   6.852   8.382  10.944
87312W        W59038  12.144  34.381   3.832
87313W        W59039   9.390  14.957  10.789
87314W        W59040  39.856  40.120   0.907
87315W        W59041  10.368  19.609   4.280
87316W        W59042  29.777  19.059  11.107
87317W        W59043   3.131  16.113   5.026
87318W        W59044  32.171  19.277  13.880
87319W        W59045  41.969   3.962   1.288
87320W        W59046  36.293  34.650   4.338
87321W        W59047  18.514  35.873   5.149
87322W        W59048   2.731  15.777  13.560
87323W        W59049  33.843  36.209   1.410
87324W        W59050   2.461   0.331  12.790
87325W        W59051   7.412   0.156   2.453
87326W        W59052  15.609  10.585   3.237
87327W        W59053  23.082   8.431   1.600
87328W        W59054  20.299  41.400  12.690
87329W        W59055   2.803  14.579   4.560
87330W        W59056  13.175  21.696  13.062
87331W        W59057  36.739  17.518  11.599
87332W        W59058   1.060  23.720  14.254
87333W        W59059  30.399  29.012   3.653
87334W        W59060   3.982  33.616   3.151
87335W        W59061  22.981   4.764  10.855
87336W        W59062  13.801  36.562  13.921
87337W        W59063   0.886   8.623   4.575
87338W        W59064  35.590  42.261  11.975
87339W        W59065  40.895  37.482   0.879
87340W        W59066  39.595  17.713  13.964
87341W        W59067  43.730  12.194   0.930
87342W        W59068  30.182  27.899   2.368
87343W        W59069  35.679  42.757   2.658
87344W        W59070  39.336  17.493   2.852
87345W        W59071  27.929  33.565  13.820
87346W        W59072  38.712  34.060  11.176
87347W        W59073  16.534  33.456  13.371
87348W        W59074  28.424  21.995  12.517
87349W        W59075  37.876  28.611   2.542
87350W        W59076  37.380   4.246  14.080
87351W        W59077   8.218   8.766   3.100
87352W        W59078  29.135  19.081  13.558
87353W        W59079  17.114   2.738   1.166
87354W        W59080  29.065  18.562  13.695
87355W        W59081   3.782  23.523   3.338
87356W        W59082  19.285  25.156  10.911
87357W        W59083  33.944  17.416   4.222
87358W        W59084  38.276  22.725   3.201
87359W        W59085  13.278  36.510   2.721
87360W        W59086  42.428  25.536  12.653
87361W        W59087  29.583  10.500  12.163
87362W        W59088  26.172   6.397   2.002
87363W        W59089  16.868  33.358   1.264
87364W        W59090  14.337  31.912   0.684
87365W        W59091  39.638  42.882   4.254
87366W        W59092  14.156  24.658  14.092
87367W        W59093  17.358  18.257   1.423
87368W        W59094  36.001  29.531  14.950
87369W        W59095  43.323  35.908   5.099
87370W        W59096  27.696  44.131  10.981
87371W        W59097   0.453  42.000   4.848
87372W        W59098  32.600  10.923  10.849
87373W        W59099  24.501  24.167  14.061
87374W        W59100  12.382  12.221  13.044
87375W        W59101  14.367  17.300   1.739
87376W        W59102  15.205   0.036  14.074
87377W        W59103   5.940   7.786  14.352
87378W        W59104  27.949  43.565   1.714
87379W        W59105   2.667  14.073  14.665
87380W        W59106  24.029  23.462  12.964
87381W        W59107  30.149  18.016  13.094
87382W        W59108  40.411   0.898  14.784
87383W        W59109  39.544   4.035  11.035
87384W        W59110  28.349   4.966   4.247
87385W        W59111  42.705  44.913   1.816
87386W        W59112  11.787  44.392   4.243
87387W        W59113  26.269  29.689  14.419
87388W        W59114   1.285  33.578  12.561
87389W        W59115  17.962  14.824   4.878
87390W        W59116   1.446  24.656   3.679
87391W        W59117   8.771   7.360   1.307
87392W        W59118  12.384  39.790  12.530
87393W        W59119  40.699  29.776  14.690
87394W        W59120  33.792   3.689   2.860
87395W        W59121  13.696   7.358   4.255
87396W        W59122  15.259   7.928   1.723
87397W        W59123  43.286  33.259  11.859
87398W        W59124  13.704   9.368   0.268
87399W        W59125  27.494   7.099  12.439
87400W        W59126  31.365  15.833   4.129
87401W        W59127  44.273  44.096  12.467
87402W        W59128   0.809  23.231   0.920
87403W        W59129  42.374  42.749  11.453
87404W        W59130  24.247  40.860   0.913
87405W        W59131   7.868  12.776   0.962
87406W        W59132  20.810  20.375   1.907
87407W        W59133   7.220  38.061   1.478
87408W        W59134  38.483  23.156  11.995
87409W        W59135  33.589   7.863   0.072
87410W        W59136  22.232  14.560  10.523
87411W        W59137   8.450  22.123   2.758
87412W        W59138   0.997  10.622  11.136
87413W        W59139  16.269  29.030  13.473
87414W        W59140  21.083  10.901  11.594
87415W        W59141  29.511  28.038  10.762
87416W        W59142   9.939   4.413   2.752
87417W        W59143  15.104  39.587  13.948
87418W        W59144  38.332  23.061  12.498
87419W        W59145   2.442   4.231  14.340
87420W        W59146   3.358   2.928   3.317
87421W        W59147  17.666  36.987  14.951
87422W        W59148   9.177  32.351  14.241
87423W        W59149  37.350  37.883   3.119
87424W        W59150  16.681  25.188   2.367
87425W        W59151  32.788  20.633   0.986
87426W        W59152   4.668  23.883   2.698
87427W        W59153  37.572  21.074   3.164
87428W        W59154  39.561  11.638  11.404
87429W        W59155  38.967  11.852   4.609
87430W        W59156  16.772  28.894  12.595
87431W        W59157  16.387  22.749  14.992
87432W        W59158  26.210  12.543   2.374
87433W        W59159  24.268  12.873  12.191
87434W        W59160  20.760  35.517  12.905
87435W        W59161  24.766  22.220  12.129
87436W        W59162  30.449   9.253  12.468
87437W        W59163  30.361  25.894   2.754
87438W        W59164  15.168  29.130  14.326
87439W        W59165   0.812  44.178  13.923
87440W        W59166  26.997  36.508  11.956
87441W        W59167  35.560  35.527  13.317
87442W        W59168  24.355  43.858  14.442
87443W        W59169  20.150  15.649  11.705
87444W        W59170  40.959  19.084   3.854
87445W        W59171  10.394  26.613   1.452
87446W        W59172  34.520  10.400   1.829
87447W        W59173  39.605  38.848   3.810
87448W        W59174  42.261   9.089  13.886
87449W        W59175  15.125  21.958   1.553
87450W        W59176  34.260   9.836  14.366
87451W        W59177  15.599   1.351  13.125
87452W        W59178  28.666   8.608   2.563
87453W        W59179   2.944  10.736   0.905
87454W        W59180   4.477   0.457   0.868
87455W        W59181   7.272   5.595  14.972
87456W        W59182  40.480   5.468  12.479
87457W        W59183  20.451   7.257   1.910
87458W        W59184  23.120  38.778   3.753
87459W        W59185  20.045  25.754  13.938
87460W        W59186  37.383   3.316  12.883
87461W        W59187  18.105   7.689   4.880
87462W        W59188  34.112  10.753  12.954
87463W        W59189   2.377   6.959   1.740
87464W        W59190  25.715  43.255   5.139
87465W        W59191  43.042  41.540  13.311
87466W        W59192  17.350   0.968   2.333
87467W        W59193  19.753  36.199  10.370
87468W        W59194  36.442  23.577   3.821
87469W        W59195  29.735  13.442  11.340
87470W        W59196  24.228   1.409  14.541
87471W        W59197   5.707   0.088  13.455
87472W        W59198   4.251  19.093  14.363
87473W        W59199  20.106  11.342   2.913
87474W        W59200  44.347  24.216   0.611
87475W        W59201  15.544  26.580  14.645
87476W        W59202  22.863  43.959   1.535
87477W        W59203   4.223  13.683  12.996
87478W        W59204  24.747  41.748  12.185
87479W        W59205  39.598  22.063   4.562
87480W        W59206  20.452   9.576  14.002
87481W        W59207  41.483  26.758   4.173
87482W        W59208  42.305  40.593  10.552
87483W        W59209  11.700   0.286   4.444
87484W        W59210  43.270  11.152   2.276
87485W        W59211  19.442   1.731  13.030
87486W        W59212  41.273  11.233   4.794
87487W        W59213  12.466  21.626   1.296
87488W        W59214  13.406  31.644   2.921
87489W        W59215  25.938   4.271   4.352
87490W        W59216  12.758  34.597  12.968
87491W        W59217  32.933  32.983   2.282
87492W        W59218  20.375  27.922  14.972
87493W        W59219  37.612  32.071   1.399
87494W        W59220  33.414  26.592   5.144
87495W        W59221   8.680  32.386   4.155
87496W        W59222  36.361   4.335   3.970
87497W        W59223  12.090  20.164  14.474
87498W        W59224   2.704  20.633  12.797
87499W        W59225  20.619  14.721  14.056
87500W        W59226   7.622   0.986  11.903
87501W        W59227   0.887  26.433  14.587
87502W        W59228  36.257  17.621   2.876
87503W        W59229  13.621  34.558  12.455
87504W        W59230   8.395  13.129  11.851
87505W        W59231   3.599  32.028   4.589
87506W        W59232  13.594  42.244  14.319
87507W        W59233  20.431  25.496  12.093
87508W        W59234  28.451  42.390  10.695
87509W        W59235  12.694  42.828   4.094
87510W        W59236  43.584  38.986  12.973
87511W        W59237  40.582   9.419  12.553
87512W        W59238  29.436   9.368  13.304
87513W        W59239  24.227  14.721   2.250
87514W        W59240  20.103  11.413  10.893
87515W        W59241  36.848   7.267   2.823
87516W        W59242   6.757  35.002   4.161
87517W        W59243   6.485  15.136  10.068
87518W        W59244  12.223  33.488   4.844
87519W        W59245  37.006  31.809  12.218
87520W        W59246  39.281  40.093   1.792
87521W        W59247  42.399  14.872  13.355
87522W        W59248  28.539  17.797  14.335
87523W        W59249  22.897  19.072  12.910
87524W        W59250  27.472   2.717   2.168
87525W        W59251  18.106  25.189   1.788
87526W        W59252   8.179  12.781  11.446
87527W        W59253  44.366  27.662   1.225
87528W        W59254  11.155  43.521   0.950
87529W        W59255  17.693  39.489  11.915
87530W        W59256  13.807   9.191  12.862
87531W        W59257   8.350  40.578   1.700
87532W        W59258  40.997  33.319  11.982
87533W        W59259  18.291  19.120  10.674
87534W        W59260  33.120  24.855  12.803
87535W        W59261   7.437  43.340   1.351
87536W        W59262  18.027   1.033   1.650
87537W        W59263  20.692  26.860   1.394
87538W        W59264  35.552  32.878  12.372
87539W        W59265   1.700  42.371  11.652
87540W        W59266  20.259   1.341  12.597
87541W        W59267   9.588  44.431   3.856
87542W        W59268  42.510  22.268  13.588
87543W        W59269  32.558  24.415   0.859
87544W        W59270  24.187  34.366   3.821
87545W        W59271  26.388  31.623   2.349
87546W        W59272   1.992  19.816   1.697
87547W        W59273   0.850  21.777   3.695
87548W        W59274  31.260  19.016  14.050
87549W        W59275  39.602  41.994  13.742
87550W        W59276   3.953   5.175  11.129
87551W        W59277   8.910  13.033  10.577
87552W        W59278  19.113   2.689   4.702
87553W        W59279  42.193  15.249  12.384
87554W        W59280  30.931  26.860  11.393
87555W        W59281  35.135  25.320  11.503
87556W        W59282  16.368  13.306   3.181
87557W        W59283   2.034   4.239   2.284
87558W        W59284  10.688  30.990   0.461
87559W        W59285  24.459  35.267   3.235
87560W        W59286   9.208  14.286   1.652
87561W        W59287  38.480   1.253  12.540
87562W        W59288   8.475  22.970  13.446
87563W        W59289   4.900  27.515  10.791
87564W        W59290  29.096  14.192   4.625
87565W        W59291  35.069  31.707   1.344
87566W        W59292   8.200  43.334  12.534
87567W        W59293  13.787   3.942   2.907
87568W        W59294   9.121  36.847  12.128
87569W        W59295  16.708   1.019   1.871
87570W        W59296  30.855  32.053   2.254
87571W        W59297  30.373  33.087  10.704
87572W        W59298   9.124   5.276  10.710
87573W        W59299  37.126  26.375  14.356
87574W        W59300  32.480  14.420   2.795
87575W        W59301   2.355  16.605   0.257
87576W        W59302  42.355   3.134  12.687
87577W        W59303  35.840  40.293  11.192
87578W        W59304  11.259   9.090  12.377
87579W        W59305  16.202   8.830   4.621
87580W        W59306  41.363   4.720   2.842
87581W        W59307  17.570  28.061  12.856
87582W        W59308  14.277  24.485   1.274
87583W        W59309  24.900  24.467  13.844
87584W        W59310  36.960   7.917  13.408
87585W        W59311  15.553  24.682  13.910
87586W        W59312  12.106  12.261   2.708
87587W        W59313  36.881  26.884   1.913
87588W        W59314  39.357  27.429   3.330
87589W        W59315  10.929  33.423   1.891
87590W        W59316   4.184  14.869  12.449
87591W        W59317   9.628  39.797  11.161
87592W        W59318  43.783   6.787   1.706
87593W        W59319  41.037   4.456   1.252
87594W        W59320  36.000   8.832  13.324
87595W        W59321  33.568  42.579   1.200
87596W        W59322  20.736  24.020   1.981
87597W        W59323  30.995  12.876   0.276
87598W        W59324   6.843  25.476   1.698
87599W        W59325   7.092  15.152  13.915
87600W        W59326   1.307  20.420  12.464
87601W        W59327  39.008  44.252   3.624
87602W        W59328  37.090  29.357   1.742
87603W        W59329  29.955  31.471  12.518
87604W        W59330   3.861  27.282   1.914
87605W        W59331  38.128  44.258   2.441
87606W        W59332  18.943  26.796   4.961
87607W        W59333  36.649  26.169  10.367
87608W        W59334   5.985  25.572   1.289
87609W        W59335  11.263  34.248   3.685
87610W        W59336  11.888  29.435  11.511
87611W        W59337   9.223  23.025   1.874
87612W        W59338  10.221  16.722   2.154
87613W        W59339   4.686  29.525   0.926
87614W        W59340  18.777  24.065   0.932
87615W        W59341  29.930  19.695  12.793
87616W        W59342  35.032  18.665   2.144
87617W        W59343   1.988   1.402   1.806
87618W        W59344  26.665   1.697   2.288
87619W        W59345  31.492  19.277  14.510
87620W        W59346  14.587   6.181  10.714
87621W        W59347  35.084   1.202   3.297
87622W        W59348  29.983  24.808  12.480
87623W        W59349  32.258  28.240  11.148
87624W        W59350  30.967  10.710   4.509
87625W        W59351   7.166  16.731   4.337
87626W        W59352  27.252   0.253   2.003
87627W        W59353  22.771   5.346   3.056
87628W        W59354   5.563  36.797   3.242
87629W        W59355  14.589   3.905  13.464
87630W        W59356  30.769  44.903  10.155
87631W        W59357  32.512  30.045   1.225
87632W        W59358   3.408  12.663   4.826
87633W        W59359  37.520  32.998   1.187
87634W        W59360  33.020  21.079   1.782
87635W        W59361  24.260   9.434   3.355
87636W        W59362   8.473   3.246  11.846
87637W        W59363  15.500  33.511   3.658
87638W        W59364  42.788  26.700   4.650
87639W        W59365  28.135  34.950  13.334
87640W        W59366  15.794  31.247  14.858
87641W        W59367  16.961  25.548   2.143
87642W        W59368  42.322   7.539   0.173
87643W        W59369  12.808  36.976   4.285
87644W        W59370   4.112   7.471  10.986
87645W        W59371   7.905  23.093   0.699
87646W        W59372   5.480  26.458   3.792
87647W        W59373  34.815  31.915  13.015
87648W        W59374  25.463  13.777  10.935
87649W        W59375  19.857   4.789   2.327
87650W        W59376   2.023  41.328   1.185
87651W        W59377   4.634   7.490  10.103
87652W        W59378  24.127   3.406   1.922
87653W        W59379  39.789  30.388  12.471
87654W        W59380  35.338   5.275  14.921
87655W        W59381  36.324  17.604  12.510
87656W        W59382  33.708  39.396   4.236
87657W        W59383   1.005   9.405  10.661
87658W        W59384   5.760  28.656  13.869
87659W        W59385  35.885   2.696  13.518
87660W        W59386  41.086  20.267   4.000
87661W        W59387  39.307  44.799  12.996
87662W        W59388  38.778  44.694  11.870
87663W        W59389  10.276   7.906   3.841
87664W        W59390  44.783   4.481  10.762
87665W        W59391  12.785  17.175  10.955
87666W        W59392  35.326  34.150   3.330
87667W        W59393  26.200   2.116  10.719
87668W        W59394  38.281  36.797  10.684
87669W        W59395  18.035  13.109   1.305
87670W        W59396  25.606  39.425  11.497
87671W        W59397  19.580  38.788  14.994
87672W        W59398  27.490  44.279  10.542
87673W        W59399  11.205  24.511  14.884
87674W        W59400   4.935  32.608   1.789
87675W        W59401   7.430  22.094   4.530
87676W        W59402  14.070  21.657   0.846
87677W        W59403   9.913  22.127  10.577
87678W        W59404  33.835  15.236   2.809
87679W        W59405  38.534  30.376   2.686
87680W        W59406  34.418  16.381  13.464
87681W        W59407  19.502  43.498  14.502
87682W        W59408   6.983   7.432   5.086
87683W        W59409  24.645   3.259  14.753
87684W        W59410  40.075  30.391   1.895
87685W        W59411  25.434  15.765   0.826
87686W        W59412  33.528  18.015  10.700
87687W        W59413  16.554   2.381  10.779
87688W        W59414  12.378  20.032  12.437
87689W        W59415   4.887  27.754   0.906
87690W        W59416  43.627  26.879  11.161
87691W        W59417  22.589  15.734   1.288
87692W        W59418   1.170  20.796   3.666
87693W        W59419   5.868   7.424   1.642
87694W        W59420  28.392  31.120  13.914
87695W        W59421  23.135  20.206  11.074
87696W        W59422  24.653  14.748   0.062
87697W        W59423  36.007   8.337   0.219
87698W        W59424  32.087   2.990   4.122
87699W        W59425   9.822   3.716  14.726
87700W        W59426  38.478  40.536   1.257
87701W        W59427  17.826  43.724   2.304
87702W        W59428  27.997  25.096   0.514
87703W        W59429  16.098  15.642   2.704
87704W        W59430  17.146  10.803  13.951
87705W        W59431  10.189  29.468  13.219
87706W        W59432  18.685  40.415  13.903
87707W        W59433  28.560  39.973   4.690
87708W        W59434   3.302   6.393   3.748
87709W        W59435  26.418  30.920  13.079
87710W        W59436   0.057  21.821  14.711
87711W        W59437   2.872  29.688   4.595
87712W        W59438  25.317  16.129  10.704
87713W        W59439  31.530  20.319  13.729
87714W        W59440  38.974  12.451   0.909
87715W        W59441  17.311  36.644  12.874
87716W        W59442  16.999  17.446  12.839
87717W        W59443  20.219   6.153   1.360
87718W        W59444  28.500  28.549  10.988
87719W        W59445  42.620  15.181   1.846
87720W        W59446  27.737  11.896  10.085
87721W        W59447   3.329  32.953   0.280
87722W        W59448  43.402  15.647   3.139
87723W        W59449  41.016  39.434   0.608
87724W        W59450  30.780  13.116   1.060
87725W        W59451  18.241  10.858  13.783
87726W        W59452   0.007  22.728  12.518
87727W        W59453  22.685  34.370  10.593
87728W        W59454  25.205  36.331  12.993
87729W        W59455  21.122   1.413  12.183
87730W        W59456  43.913  31.465  12.416
87731W        W59457  12.774  24.314   3.371
87732W        W59458  26.024  16.301  13.123
87733W        W59459   8.561  38.444   3.758
87734W        W59460  13.173  41.927  14.322
87735W        W59461   4.933  15.778   3.632
87736W        W59462  29.417  30.368  14.807
87737W        W59463  32.802  13.095   2.880
87738W        W59464  14.222  37.143  11.835
87739W        W59465  37.534  38.901   4.526
87740W        W59466  32.449   5.664  12.396
87741W        W59467  20.485  44.664  13.040
87742W        W59468  21.351  37.396   5.077
87743W        W59469  25.988  28.629  12.863
87744W        W59470  13.815  20.565   2.928
87745W        W59471   7.578  20.162  11.974
87746W        W59472  31.526  20.193   2.984
87747W        W59473  20.040   1.565  13.559
87748W        W59474   2.571  42.323  14.945
87749W        W59475  44.896  43.270   0.838
87750W        W59476  37.399  36.525   2.806
87751W        W59477  29.977  31.626   4.627
87752W        W59478   1.939   4.180  11.459
87753W        W59479   9.845  21.854   2.265
87754W        W59480   3.407  17.049  14.924
87755W        W59481  27.903  43.680   5.068
87756W        W59482   2.995  22.987  13.282
87757W        W59483  31.253  36.151   2.479
87758W        W59484  38.338  21.751   2.764
87759W        W59485  21.533   9.815  10.650
87760W        W59486  29.099  20.459   3.257
87761W        W59487  44.732  24.096   0.985
87762W        W59488  42.718  36.446  12.654
87763W        W59489  18.995  25.179   4.916
87764W        W59490  36.904   8.359   3.696
87765W        W59491  40.699  37.446  14.102
87766W        W59492  42.582  23.994  10.660
87767W        W59493  18.983  18.881   2.362
87768W        W59494  11.415  10.616   2.875
87769W        W59495  31.122  32.319   0.700
87770W        W59496   3.562  29.731  13.427
87771W        W59497  34.459   7.491  13.016
87772W        W59498  13.021   9.156  10.319
87773W        W59499  12.604  41.270  10.993
87774W        W59500  42.274  11.743   1.779
87775W        W59501   2.685  17.272   1.279
87776W        W59502  40.311  19.605   0.364
87777W        W59503  38.126  42.404   3.886
87778W        W59504  21.043  36.403  14.389
87779W        W59505  28.714  36.918   1.805
87780W        W59506  10.322   3.464  11.174
87781W        W59507  11.940  30.647  13.256
87782W        W59508  42.349   5.775   0.943
87783W        W59509  40.385   1.973   1.860
87784W        W59510  37.326  23.696   3.307
87785W        W59511  32.838  44.842   1.294
87786W        W59512  38.944  24.918  12.374
87787W        W59513  27.446   7.822   0.811
87788W        W59514  42.288  39.602  10.907
87789W        W59515   9.406  39.445  12.989
87790W        W59516  38.281  22.777   4.075
87791W        W59517  20.695   5.037   2.663
87792W        W59518  39.210  34.037  11.058
87793W        W59519  13.833  15.298  11.879
87794W        W59520  44.815  41.907   3.290
87795W        W59521  41.048  37.033  14.777
87796W        W59522   1.731  36.407   3.628
87797W        W59523   9.271  11.974  14.457
87798W        W59524  16.374  43.849  13.522
87799W        W59525  17.674  30.878   1.902
87800W        W59526   9.077  27.619  13.831
87801W        W59527  37.648  43.344   2.758
87802W        W59528  12.433  26.675  13.310
87803W        W59529  19.662  18.049  12.065
87804W        W59530  32.844   3.256  11.597
87805W        W59531  22.612  25.708   5.310
87806W        W59532  30.498  42.973  11.513
87807W        W59533  43.015  17.325  14.268
87808W        W59534  25.209  36.865   2.899
87809W        W59535  43.965  41.360  13.613
87810W        W59536  44.753  40.234  10.185
87811W        W59537  11.840   3.959   4.555
87812W        W59538  10.211  11.345  11.933
87813W        W59539  39.792  18.150  12.571
87814W        W59540  14.216  18.305  11.737
87815W        W59541  32.015  40.314  11.208
87816W        W59542  38.447  33.977   2.445
87817W        W59543  25.724  36.124   1.443
87818W        W59544  27.736  42.565   1.622
87819W        W59545  10.258  39.397   4.088
87820W        W59546  22.011  28.257   9.692
87821W        W59547  34.053  24.201  11.788
87822W        W59548   2.718   9.423   3.801
87823W        W59549  14.610  39.949   9.762
87824W        W59550  37.655  35.605   3.609
87825W        W59551  27.348  29.474   3.278
87826W        W59552  33.854  23.594   1.251
87827W        W59553  29.298  19.210   2.638
87828W        W59554  26.334   2.440   1.007
87829W        W59555   8.155  30.346   2.709
87830W        W59556   3.484  43.439   2.362
87831W        W59557  29.949  25.934  11.041
87832W        W59558  27.180  36.381  11.469
87833W        W59559  44.882   1.377   0.911
87834W        W59560  32.966  10.142   4.571
87835W        W59561  16.586  26.736   2.297
87836W        W59562  33.886  28.978  14.939
87837W        W59563   4.729  17.804   0.484
87838W        W59564  32.599  26.167  14.281
87839W        W59565  38.864   6.393  12.341
87840W        W59566  18.796   9.585  11.526
87841W        W59567  18.429  34.507   4.107
87842W        W59568  24.118  43.342  10.643
87843W        W59569  11.949   6.178   4.346
87844W        W59570  16.631  16.127   3.885
87845W        W59571  34.871   6.884  10.406
87846W        W59572  28.358   5.034  14.305
87847W        W59573  37.254  18.165   4.710
87848W        W59574  29.431  13.688  13.356
87849W        W59575  17.990  38.850  12.863
87850W        W59576  42.777   8.177   0.447
87851W        W59577   1.986  31.450   2.222
87852W        W59578  39.357  40.561  12.556
87853W        W59579  24.743  16.375  11.276
87854W        W59580  11.194  21.721   1.876
87855W        W59581  18.266  43.780   2.021
87856W        W59582  33.260  44.060  10.501
87857W        W59583  10.198  17.273  14.396
87858W        W59584  34.001  28.438  12.716
87859W        W59585  24.299  19.401  14.637
87860W        W59586  27.198  42.940  10.653
87861W        W59587  37.391  13.654  11.513
87862W        W59588  31.676  40.061  12.944
87863W        W59589  23.693  40.548  11.163
87864W        W59590  20.255   2.221   1.913
87865W        W59591  33.078   9.130  12.520
87866W        W59592  16.312  17.592   3.687
87867W        W59593   3.423   4.940   2.322
87868W        W59594  39.797  32.041  13.753
87869W        W59595  34.193  15.261  13.942
87870W        W59596  29.854  14.659   1.498
87871W        W59597  37.993   0.047   3.285
87872W        W59598   4.896  43.715  10.663
87873W        W59599  24.699  33.460  14.436
87874W        W59600  32.135  14.565  14.384
87875W        W59601  11.854   3.432   4.567
87876W        W59602   2.268  35.005   3.050
87877W        W59603  10.444  35.464   4.047
87878W        W59604  38.554   2.901  11.604
87879W        W59605  44.254  29.540  12.507
87880W        W59606   3.444   4.995  14.738
87881W        W59607  38.427  19.009   0.741
87882W        W59608  19.723   3.517  14.184
87883W        W59609   5.046  11.212  10.243
87884W        W59610   7.352  20.014   1.647
87885W        W59611  36.322  43.901   4.257
87886W        W59612  42.546  10.100  13.041
87887W        W59613  18.165   5.284   0.779
87888W        W59614  31.938  21.054  11.049
87889W        W59615  23.929  34.199   4.456
87890W        W59616   9.097  12.857  11.064
87891W        W59617  40.900   7.846   1.793
87892W        W59618  26.445  42.344  11.694
87893W        W59619  44.481  11.266  11.182
87894W        W59620   3.138  18.471   0.794
87895W        W59621  43.744   3.191   4.180
87896W        W59622  30.609  17.631   2.804
87897W        W59623  40.656   7.421   1.959
87898W        W59624  29.272   4.779  13.474
87899W        W59625  17.042  21.575  12.385
87900W        W59626  15.792  17.589  13.999
87901W        W59627  40.019  31.563  11.616
87902W        W59628  15.807  36.464   4.587
87903W        W59629  34.451   3.871  12.041
87904W        W59630  32.439  18.978   3.830
87905W        W59631  22.919   3.238  12.554
87906W        W59632  36.918  14.091   0.999
87907W        W59633  35.656   3.731  10.426
87908W        W59634  11.421   4.933   1.824
87909W        W59635  11.192  14.694   2.318
87910W        W59636  39.445  37.991  12.453
87911W        W59637   2.048  43.420   2.803
87912W        W59638  36.088  18.075   0.758
87913W        W59639  20.587  11.776   4.885
87914W        W59640  23.128  13.314   0.472
87915W        W59641  10.865  25.517  13.363
87916W        W59642  39.462  28.575   0.770
87917W        W59643  20.375  19.572  13.963
87918W        W59644  24.775  34.626   0.330
87919W        W59645   7.381   3.828   2.872
87920W        W59646  22.975  44.412  14.873
87921W        W59647  40.766  41.117   4.870
87922W        W59648   0.141  10.055  13.934
87923W        W59649   7.328  32.984  10.842
87924W        W59650   8.692  37.411   2.922
87925W        W59651  16.254  43.739   1.819
87926W        W59652  36.018  19.297  10.561
87927W        W59653   6.659  34.942   3.543
87928W        W59654  39.033  22.566   4.957
87929W        W59655   1.485  33.973   2.753
87930W        W59656  16.140   2.540   4.309
87931W        W59657   6.191  25.253   3.664
87932W        W59658  43.779  35.898   4.788
87933W        W59659  18.536  22.487  12.238
87934W        W59660   9.176  43.328  12.567
87935W        W59661  17.717  34.145  13.524
87936W        W59662  30.963  40.620  10.458
87937W        W59663  16.625   3.615   5.034
87938W        W59664  21.864  22.717  10.780
87939W        W59665  10.515  30.153   0.471
87940W        W59666  22.802  27.043   4.261
87941W        W59667  12.097  10.143  13.865
87942W        W59668  33.570  39.945   4.172
87943W        W59669  36.349   8.974  14.487
87944W        W59670  11.765   6.309  10.295
87945W        W59671   8.272  20.580  11.739
87946W        W59672  33.860  15.252   1.288
87947W        W59673  12.843  10.264   4.708
87948W        W59674   7.809   8.128  12.085
87949W        W59675  13.523  44.320  13.475
87950W        W59676  16.728  30.206   1.415
87951W        W59677  37.310  15.153  11.394
87952W        W59678   8.636  34.089  11.158
87953W        W59679  40.974  40.885   3.212
87954W        W59680   5.438  24.509   4.279
87955W        W59681   8.087   7.524   0.384
87956W        W59682  17.557  31.968   2.465
87957W        W59683  43.845  44.939  11.507
87958W        W59684  40.847   7.823  11.804
87959W        W59685  17.719  35.357   2.276
87960W        W59686  18.240   4.381  10.593
87961W        W59687   4.302  39.924  11.927
87962W        W59688   6.211  14.992  10.509
87963W        W59689  15.257  26.424  14.231
87964W        W59690   4.895  28.455   3.380
87965W        W59691  31.845  14.901   0.685
87966W        W59692   7.183  30.248   0.678
87967W        W59693   8.853  26.032   4.561
87968W        W59694   5.903  11.653   0.444
87969W        W59695  31.106  38.554  12.634
87970W        W59696  43.700   5.903  11.993
87971W        W59697  32.417  39.739   2.651
87972W        W59698  44.518  19.460   4.341
87973W        W59699  35.829  34.456  14.988
87974W        W59700  10.149  32.637   2.456
87975W        W59701  44.500  10.554   0.055
87976W        W59702  15.707  31.652   4.614
87977W        W59703   6.921  38.492   0.849
87978W        W59704  23.229  27.587   0.343
87979W        W59705  43.798  28.098   1.200
87980W        W59706  37.896  44.500  12.457
87981W        W59707  21.393   5.318   2.952
87982W        W59708  43.935  18.144   0.129
87983W        W59709  20.560  36.405  14.178
87984W        W59710  33.526  40.705   3.600
87985W        W59711  16.360  16.107  13.315
87986W        W59712  27.410   1.477  13.835
87987W        W59713   8.599  23.177   4.757
87988W        W59714  29.233  13.363  14.255
87989W        W59715  13.194  44.081   2.210
87990W        W59716  14.339  15.629  10.654
87991W        W59717  35.903  30.050   0.692
87992W        W59718  26.122  37.474  13.043
87993W        W59719   5.452  34.102  12.062
87994W        W59720  39.463  14.970  14.990
87995W        W59721  40.679  22.722  10.742
87996W        W59722  43.140  30.841   1.234
87997W        W59723  35.368  43.731  12.507
87998W        W59724  18.056  37.402   1.309
87999W        W59725  32.367  20.948   2.242
88000W        W59726  27.157  29.746  14.458
88001W        W59727  41.513  21.760   3.296
88002W        W59728  25.918   5.493   2.881
88003W        W59729   7.208  27.490  13.127
88004W        W59730  42.535  31.910   0.768
88005W        W59731  22.990  15.541   0.392
88006W        W59732  14.584  41.117   0.991
88007W        W59733   4.764  39.575   4.505
88008W        W59734  26.356   3.967   0.879
88009W        W59735  44.739   7.232   3.687
88010W        W59736   3.933   4.702   1.516
88011W        W59737  24.623  15.695   3.734
88012W        W59738   3.203   2.716   4.636
88013W        W59739  38.359  18.669  14.822
88014W        W59740  43.531  41.893  14.036
88015W        W59741  12.819  33.836  10.651
88016W        W59742  16.859  42.979   3.354
88017W        W59743   2.501  42.796   4.562
88018W        W59744  22.543  39.834  13.464
88019W        W59745  13.628  16.819  11.121
88020W        W59746  15.152  19.187   0.562
88021W        W59747  29.047  24.532   1.477
88022W        W59748  16.332  20.376   1.354
88023W        W59749  17.287   4.215   4.078
88024W        W59750  22.629  35.817   0.966
88025W        W59751  10.256  18.205   4.262
88026W        W59752  36.261   5.329   2.855
88027W        W59753  44.265  23.101  11.637
88028W        W59754   3.151  20.950   9.971
88029W        W59755  44.047  25.222   3.213
88030W        W59756  42.968   5.481  14.590
88031W        W59757  21.550  33.114   2.994
88032W        W59758  31.011  20.744  11.362
88033W        W59759  34.423  40.391  14.252
88034W        W59760  14.173  42.475  14.300
88035W        W59761  31.468  21.780  13.374
88036W        W59762  43.345  24.236   0.347
88037W        W59763   4.298  32.464  10.717
88038W        W59764  43.635  14.303   4.154
88039W        W59765  11.257  32.039  10.692
88040W        W59766  40.383   6.354  11.263
88041W        W59767  24.951  27.114   3.918
88042W        W59768  43.688  16.722  13.890
88043W        W59769  21.476  39.871  11.011
88044W        W59770  44.158  43.372   0.324
88045W        W59771  39.269  28.199  13.828
88046W        W59772  23.652   4.897   4.641
88047W        W59773   7.065   5.241   3.683
88048W        W59774   9.279   7.638  11.028
88049W        W59775  27.486  22.576  13.136
88050W        W59776  20.528   1.402   4.538
88051W        W59777  33.120  27.684  12.899
88052W        W59778  35.119   3.364   2.579
88053W        W59779  44.002  28.003   2.683
88054W        W59780  31.699  21.266  11.460
88055W        W59781  20.207  27.551   1.798
88056W        W59782  29.592  17.817  13.971
88057W        W59783  44.504  27.586  12.539
88058W        W59784  37.949   7.455  10.993
88059W        W59785  42.437   6.736   4.236
88060W        W59786  29.486  41.807  14.355
88061W        W59787  36.446  24.261  11.976
88062W        W59788  40.549   2.923  14.547
88063W        W59789   3.895  11.872   3.728
88064W        W59790   9.025  22.913  13.330
88065W        W59791  12.687  33.388   0.366
88066W        W59792  20.065  17.353  13.390
88067W        W59793  17.253  30.538  10.056
88068W        W59794  42.409  26.907   0.815
88069W        W59795  25.022  25.701  11.078
88070W        W59796  27.860  43.715  10.145
88071W        W59797  43.328  20.030   2.889
88072W        W59798  25.209  18.329   2.331
88073W        W59799   0.299  42.500  12.758
88074W        W59800   3.831  30.067   4.626
88075W        W59801  11.627  21.147  12.472
88076W        W59802  44.361  34.564   3.624
88077W        W59803  30.654   5.424  10.342
88078W        W59804  26.560  44.010  14.505
88079W        W59805  32.436  28.603   3.038
88080W        W59806  11.365  33.568   1.424
88081W        W59807  41.424  29.239   4.211
88082W        W59808  13.212  23.079   3.659
88083W        W59809  43.265   6.236  12.333
88084W        W59810   6.900   0.750  14.062
88085W        W59811   0.838  21.304   0.770
88086W        W59812  29.395  32.395  14.851
88087W        W59813   1.271  35.755   2.728
88088W        W59814  12.409  15.577   3.248
88089W        W59815  37.510  19.364   0.551
88090W        W59816  29.459   8.058  11.079
88091W        W59817  31.202  36.508  13.837
88092W        W59818   3.813  38.219   2.852
88093W        W59819   1.312  12.617  13.425
88094W        W59820  27.737  29.575   1.759
88095W        W59821  35.787   3.938  12.253
88096W        W59822  24.536  16.301   1.908
88097W        W59823  26.305  12.641  10.700
88098W        W59824  40.770  11.931   3.216
88099W        W59825  29.357  37.416  10.952
88100W        W59826   1.968  12.908   4.629
88101W        W59827  16.308  40.329  13.487
88102W        W59828  43.406  18.640   0.792
88103W        W59829  28.052  26.676  12.798
88104W        W59830  20.059  34.875  10.590
88105W        W59831  21.571   3.452  14.397
88106W        W59832  10.692   7.387  12.969
88107W        W59833  37.933   3.201  14.740
88108W        W59834   6.927  39.236   1.976
88109W        W59835  26.244   6.817   0.882
88110W        W59836  15.664   6.914   3.811
88111W        W59837  28.993  19.265  11.539
88112W        W59838  43.893   7.559  12.387
88113W        W59839  12.620  24.214   1.395
88114W        W59840  38.138  22.277   4.096
88115W        W59841  43.744   7.382   4.605
88116W        W59842  30.337  15.758   4.292
88117W        W59843   9.729  10.760   3.668
88118W        W59844  34.008  28.619  14.152
88119W        W59845   9.829  22.159   1.809
88120W        W59846  31.033  18.673  14.344
88121W        W59847  29.448  27.999  11.676
88122W        W59848  42.294  25.652   4.075
88123W        W59849  40.496  12.225   4.202
88124W        W59850  20.838  23.559  10.113
88125W        W59851  11.200  11.774   4.542
88126W        W59852  37.967   0.891   2.163
88127W        W59853  43.525   6.635   1.250
88128W        W59854  36.929  25.376  14.362
88129W        W59855  38.335  21.228   0.097
88130W        W59856  30.425  20.502  13.866
88131W        W59857  40.310  16.738  13.309
88132W        W59858  38.557  17.712   4.850
88133W        W59859  38.025  21.992   1.891
88134W        W59860  28.620  23.284  11.888
88135W        W59861  44.710   4.982   2.775
88136W        W59862   5.805  16.429   2.191
88137W        W59863  41.867  36.811  14.439
88138W        W59864  19.822  37.053  10.937
88139W        W59865  15.089   6.667   0.066
88140W        W59866  38.464  36.633   1.879
88141W        W59867  26.500  18.995   0.299
88142W        W59868  10.686  18.839   4.588
88143W        W59869  17.201  39.580  12.630
88144W        W59870   2.513  13.642   1.937
88145W        W59871   0.599   7.414   1.918
88146W        W59872   6.603  15.590   0.662
88147W        W59873   3.895  41.144  12.998
88148W        W59874   6.300   0.216   3.674
88149W        W59875  18.715  17.459  13.083
88150W        W59876   8.624  20.902  14.805
88151W        W59877  24.468  35.789  14.377
88152W        W59878  21.741  28.413   1.052
88153W        W59879   1.965  36.409   1.724
88154W        W59880  25.510  27.605   3.242
88155W        W59881  28.445  24.947   4.971
88156W        W59882  38.798  42.738   3.788
88157W        W59883  12.482  14.623   3.350
88158W        W59884  13.454   7.960  13.854
88159W        W59885   4.368  27.903   2.911
88160W        W59886  41.281  10.693  11.373
88161W        W59887  31.599  41.066   4.885
88162W        W59888  27.956   0.013  14.304
88163W        W59889  16.114   4.416   0.042
88164W        W59890   6.908   2.435  14.916
88165W        W59891  11.099  44.842   0.709
88166W        W59892  40.851  40.511   1.037
88167W        W59893   0.329  20.531  12.901
88168W        W59894   5.920  10.841   2.342
88169W        W59895   3.375  30.347  14.351
88170W        W59896  24.751   8.191   4.626
88171W        W59897  11.818  21.609   3.855
88172W        W59898   6.200  26.031  13.074
88173W        W59899   7.139   7.007   3.246
88174W        W59900  41.671  35.660  13.568
88175W        W59901  41.335  14.825   3.317
88176W        W59902   5.709  26.131   0.429
88177W        W59903   4.606  32.226   4.619
88178W        W59904  25.951  36.952   1.929
88179W        W59905  21.812  22.685   1.817
88180W        W59906  14.807   5.034   2.528
88181W        W59907  31.579  11.977   4.679
88182W        W59908  25.736  38.454   3.123
88183W        W59909  15.913   7.762   0.316
88184W        W59910  37.054  15.568  11.595
88185W        W59911  22.679  39.365  12.434
88186W        W59912  17.093  14.564   1.026
88187W        W59913  35.098   3.359  13.506
88188W        W59914  43.237  37.981  13.986
88189W        W59915  37.507   0.821  12.450
88190W        W59916   2.227  17.094  13.662
88191W        W59917  36.411  16.131   2.306
88192W        W59918   3.194  10.798   2.831
88193W        W59919  11.428  33.426   4.038
88194W        W59920  22.483  40.441  12.580
88195W        W59921  42.712  10.700  12.054
88196W        W59922  19.485  38.941   2.311
88197W        W59923  16.296  30.990   4.754
88198W        W59924  13.176  21.598   1.046
88199W        W59925  23.264  36.771   2.799
88200W        W59926  32.177  40.973  12.965
88201W        W59927   5.477  38.729   0.792
88202W        W59928   4.258  38.475   2.764
88203W        W59929  41.385  40.314  11.283
88204W        W59930  43.236  10.887   4.415
88205W        W59931  20.673  12.635  13.447
88206W        W59932  26.507  30.274  14.453
88207W        W59933   9.216  15.730  12.312
88208W        W59934  39.100  35.401  12.468
88209W        W59935  29.974  22.334  13.922
88210W        W59936   1.530  19.241   1.191
88211W        W59937  28.212  26.000  12.097
88212W        W59938   8.324  10.496  13.527
88213W        W59939  13.273  22.995  13.284
88214W        W59940  37.303  25.040  13.506
88215W        W59941   0.322  24.121   3.609
88216W        W59942  43.504  14.182   2.814
88217W        W59943  33.972   8.352   1.281
88218W        W59944  32.500  22.269   3.517
88219W        W59945  40.502  27.539  12.067
88220W        W59946  21.566  19.604   0.531
88221W        W59947  25.049  44.462   4.227
88222W        W59948   9.418  29.004   0.264
88223W        W59949  34.879  39.094   2.463
88224W        W59950  13.099   3.739   3.685
88225W        W59951  24.514  32.685   0.545
88226W        W59952  42.473  28.930   1.219
88227W        W59953  31.621  28.923  13.790
88228W        W59954  21.814  33.010   4.107
88229W        W59955  33.965   1.351  11.519
88230W        W59956  32.390  32.005  13.795
88231W        W59957  17.069  29.895   0.274
88232W        W59958  43.773  13.802   4.253
88233W        W59959   7.961   0.686   3.027
88234W        W59960  40.292  30.422  13.474
88235W        W59961  37.980  34.356   1.347
88236W        W59962  26.064  32.704  11.940
88237W        W59963  29.884  33.482  14.895
88238W        W59964  36.382  15.859   0.543
88239W        W59965  31.104  42.945   1.809
88240W        W59966  32.040  17.251   2.645
88241W        W59967   4.326   9.956   4.524
88242W        W59968  41.820  35.690  11.078
88243W        W59969  41.798  41.266  11.110
88244W        W59970  34.570   6.673   4.775
88245W        W59971  19.473  34.596  14.975
88246W        W59972  39.153   1.841  14.415
88247W        W59973  13.226   7.139   3.229
88248W        W59974  37.120  37.077   1.958
88249W        W59975   7.574  30.878   3.328
88250W        W59976  13.588  10.161   3.157
88251W        W59977  34.666  13.499   4.921
88252W        W59978  18.004  17.850  13.475
88253W        W59979   8.882  25.867   2.538
88254W        W59980  34.619  20.692  12.493
88255W        W59981  17.290  17.580  11.576
88256W        W59982  32.928  23.133   0.821
88257W        W59983  13.486  11.862  12.011
88258W        W59984   3.823  43.105   1.759
88259W        W59985  28.258  22.769   0.280
88260W        W59986  12.269  43.767   1.732
88261W        W59987   6.757  20.048  12.381
88262W        W59988   8.982  12.794  13.419
88263W        W59989   3.304  31.791   0.409
88264W        W59990  15.147   7.643  12.065
88265W        W59991  33.372   1.494   1.004
88266W        W59992  44.897  37.067  10.690
88267W        W59993   9.009  29.741   5.024
88268W        W59994   1.447   8.103   0.910
88269W        W59995  18.283  18.229   0.517
88270W        W59996  12.934  27.630  12.715
88271W        W59997  16.777   9.168  13.998
88272W        W59998  36.226   8.757  11.002
88273W        W59999  17.578  27.048  11.447
88274W        W60000  29.674  12.266   2.571
88275W        W60001  34.382  28.364  13.461
88276W        W60002   4.177  10.350  13.342
88277W        W60003   2.500   6.714  13.827
88278W        W60004  17.174  25.538  12.541
88279W        W60005  42.742  12.453   1.666
88280W        W60006  16.005  19.158   3.077
88281W        W60007   8.725  11.388  11.508
88282W        W60008  32.639  30.548  12.387
88283W        W60009  40.155   5.973   3.699
88284W        W60010   7.890  22.487  14.322
88285W        W60011  19.999   2.420   3.707
88286W        W60012  29.038   6.696   0.254
88287W        W60013   3.921  35.409  14.898
88288W        W60014  13.223  24.726  14.569
88289W        W60015  37.004  14.612   3.969
88290W        W60016   2.627  41.476   3.090
88291W        W60017  39.582  28.547  10.625
88292W        W60018   5.068  34.390  11.106
88293W        W60019  20.726  18.628  13.082
88294W        W60020  11.252  35.091  12.191
88295W        W60021  44.407   1.873   4.918
88296W        W60022  27.127  30.034   2.230
88297W        W60023   9.355  24.078  14.954
88298W        W60024  12.670  32.122   3.729
88299W        W60025  33.901   2.524  13.818
88300W        W60026  24.678  17.876  11.161
88301W        W60027  37.970  14.669  12.361
88302W        W60028  17.009   6.722  12.844
88303W        W60029   2.713  28.963   1.197
88304W        W60030  14.796  25.690   3.272
88305W        W60031  30.395  23.620   3.235
88306W        W60032  26.774  22.670  14.550
88307W        W60033  31.598   1.370   4.125
88308W        W60034   3.611  33.020  11.622
88309W        W60035  26.528   1.987   2.750
88310W        W60036  19.277  19.490   3.164
88311W        W60037  40.614  39.418   2.876
88312W        W60038  16.701  39.292   2.990
88313W        W60039  42.078  41.458  13.282
88314W        W60040  35.964  34.632  12.970
88315W        W60041  17.590   8.103   0.014
88316W        W60042  16.459  18.746   4.184
88317W        W60043   1.144  37.810   4.695
88318W        W60044  19.804  16.826  11.539
88319W        W60045  36.468   1.788  11.494
88320W        W60046  12.196  41.457   1.088
88321W        W60047  25.388  36.818  12.127
88322W        W60048   7.787   5.848   1.765
88323W        W60049   4.802  35.094   1.936
88324W        W60050  23.492  40.025  12.473
88325W        W60051  28.034  30.116   3.211
88326W        W60052  20.672   9.453   3.268
88327W        W60053  10.069  34.074   1.354
88328W        W60054   2.174  31.950   3.309
88329W        W60055  41.319   2.740   4.389
88330W        W60056  13.068   4.957   2.197
88331W        W60057   2.970  16.504   0.553
88332W        W60058  27.132  40.903   3.685
88333W        W60059  42.969  16.891  12.080
88334W        W60060  21.463  24.592  13.994
88335W        W60061  27.961  38.379  14.368
88336W        W60062  21.124   5.269   2.494
88337W        W60063  35.918  16.258  12.793
88338W        W60064  12.194   7.589  14.799
88339W        W60065   3.663   8.600   1.751
88340W        W60066  28.979   7.312   4.575
88341W        W60067  43.192   4.215   2.743
88342W        W60068  16.297  31.217   1.910
88343W        W60069  38.876  25.393   1.249
88344W        W60070  44.423   8.436  12.541
88345W        W60071  13.141  30.552  13.597
88346W        W60072  19.228  37.330  12.323
88347W        W60073  12.937  15.173  11.203
88348W        W60074  27.467  23.069  12.915
88349W        W60075   7.216  11.776   2.666
88350W        W60076  31.933  23.042  12.594
88351W        W60077  36.083  28.531   3.314
88352W        W60078  42.782  32.020  13.381
88353W        W60079  44.313  18.255   4.647
88354W        W60080  22.229  43.799   3.122
88355W        W60081  36.306   5.204   4.336
88356W        W60082  23.545  41.834  12.573
88357W        W60083  10.138  11.605   2.753
88358W        W60084  32.624  27.547  14.915
88359W        W60085  13.484  19.142  11.595
88360W        W60086  21.857  19.951   0.877
88361W        W60087  38.013  25.948  14.421
88362W        W60088  30.435  44.033  14.869
88363W        W60089  21.724  17.656   2.225
88364W        W60090  27.569  40.421  10.504
88365W        W60091  34.568  16.622  13.032
88366W        W60092  28.095  29.450   1.388
88367W        W60093  19.570  25.925   0.902
88368W        W60094  31.249   7.120  10.127
88369W        W60095   7.240  30.663   1.751
88370W        W60096  15.681  16.641   5.234
88371W        W60097  27.011   8.907  12.918
88372W        W60098  34.157  44.528  13.735
88373W        W60099   2.836  29.247  12.963
88374W        W60100  44.891  14.839   0.811
88375W        W60101  23.564  18.514  14.041
88376W        W60102   1.876  15.490   4.512
88377W        W60103  33.437  23.622   3.672
88378W        W60104  29.733  41.110   0.820
88379W        W60105   1.381  28.614  13.457
88380W        W60106   4.556   3.511  12.090
88381W        W60107  22.502  42.066   0.330
88382W        W60108  10.929   4.226  13.874
88383W        W60109  39.146   6.844   9.925
88384W        W60110  13.780   0.946  12.932
88385W        W60111  18.002  34.916  13.008
88386W        W60112  34.105   3.517   4.967
88387W        W60113  25.468  12.809  12.498
88388W        W60114  25.190  27.980   1.168
88389W        W60115  16.586  44.254   3.212
88390W        W60116  37.900  33.493   2.758
88391W        W60117   4.768  19.388   3.187
88392W        W60118   9.937  10.367  11.146
88393W        W60119   7.485  42.752  11.947
88394W        W60120   5.336  31.186   3.796
88395W        W60121  40.793   9.042  13.181
88396W        W60122  42.742  25.129   4.823
88397W        W60123   8.194  28.596   0.432
88398W        W60124   6.456  14.655  13.567
88399W        W60125  40.391  21.763  10.717
88400W        W60126  27.524  29.734  10.687
88401W        W60127   5.450  15.316  12.482
88402W        W60128  24.927  24.213   0.921
88403W        W60129   8.812   3.377   3.302
88404W        W60130  12.151  25.498  13.837
88405W        W60131   3.509   2.732   2.864
88406W        W60132  33.961  42.396   4.739
88407W        W60133  30.858  16.178  13.940
88408W        W60134  19.457  35.298  12.452
88409W        W60135  34.833  26.530   2.160
88410W        W60136  27.534  34.560   2.761
88411W        W60137  26.492  27.827   0.843
88412W        W60138  21.587  24.765   4.470
88413W        W60139  24.175   5.936   1.227
88414W        W60140   1.847  17.293  10.412
88415W        W60141  38.577   3.345   1.704
88416W        W60142  41.472  34.564  12.168
88417W        W60143  17.109  35.055   3.589
88418W        W60144  32.413  31.646   3.456
88419W        W60145  21.270  32.075  11.906
88420W        W60146  30.016  10.844  14.988
88421W        W60147  37.568  20.892   3.651
88422W        W60148   6.176   8.180   2.021
88423W        W60149  25.406   9.069   3.760
88424W        W60150  24.111  10.693   2.777
88425W        W60151  21.599  21.633   1.204
88426W        W60152   2.382  37.628   1.869
88427W        W60153  22.209  40.067  13.872
88428W        W60154  40.863  16.831  13.320
88429W        W60155  41.751   8.717  12.580
88430W        W60156  11.156  38.072  12.918
88431W        W60157  31.612  26.230  11.088
88432W        W60158  14.246  12.519  11.874
88433W        W60159  22.038  37.595  14.964
88434W        W60160  42.822  41.343  10.491
88435W        W60161  28.875  16.042  13.351
88436W        W60162  29.916  37.180   0.837
88437W        W60163  40.517  13.618   0.962
88438W        W60164  37.493  11.860   0.878
88439W        W60165   3.241  40.470   1.284
88440W        W60166  44.010   3.059  12.437
88441W        W60167  33.374   4.929   0.841
88442W        W60168  36.504  32.164  14.672
88443W        W60169  10.120  16.250  14.232
88444W        W60170  15.162   4.168  13.977
88445W        W60171  13.196  20.798   0.384
88446W        W60172   6.721   0.975  14.924
88447W        W60173  24.156   4.029  14.761
88448W        W60174   8.451  10.705  14.008
88449W        W60175  24.436   9.285   3.824
88450W        W60176   2.411   5.455  12.515
88451W        W60177  10.407  12.217   0.394
88452W        W60178  40.437  12.621  10.655
88453W        W60179  40.399   0.058  10.472
88454W        W60180  37.761   4.208  12.552
88455W        W60181  22.524  21.371  12.468
88456W        W60182  42.591  27.060  13.478
88457W        W60183  21.499  35.964   4.548
88458W        W60184  17.604  27.062  12.476
88459W        W60185  13.601   7.952   2.279
88460W        W60186  27.528  33.052   3.660
88461W        W60187  29.633  32.842   0.962
88462W        W60188  17.172  21.127  12.129
88463W        W60189  11.923  21.097  14.850
88464W        W60190  41.285   9.269   0.003
88465W        W60191  17.736  40.839  13.906
88466W        W60192  20.973  24.573  13.752
88467W        W60193  32.957  26.171   1.713
88468W        W60194  38.410  39.427   3.775
88469W        W60195  30.003  35.150   0.766
88470W        W60196  17.248  21.991   1.345
88471W        W60197  22.805  39.910  14.538
88472W        W60198  23.978  26.721  12.552
88473W        W60199  20.776  36.386  10.379
88474W        W60200  44.384  14.223  10.049
88475W        W60201  14.047  24.585   2.755
88476W        W60202   8.873  27.729  12.487
88477W        W60203  13.714  20.321  12.327
88478W        W60204  41.882  12.330  13.503
88479W        W60205  15.574  15.431  10.299
88480W        W60206   2.431  38.628  11.488
88481W        W60207  16.629  21.746   2.674
88482W        W60208  32.154   0.791  14.518
88483W        W60209  38.607  20.840   1.399
88484W        W60210  14.929  25.000  12.050
88485W        W60211  35.881   6.226   0.734
88486W        W60212  44.420  35.341   2.230
88487W        W60213   4.242   7.441  13.537
88488W        W60214  11.160  28.144  11.059
88489W        W60215  36.522  12.675   1.970
88490W        W60216   5.401  42.906   0.295
88491W        W60217   5.322  38.278   2.384
88492W        W60218  42.831  28.129   3.105
88493W        W60219  40.400   6.091   0.929
88494W        W60220  21.584  25.408  14.060
88495W        W60221  40.792  28.385   3.872
88496W        W60222  28.566  17.175   4.197
88497W        W60223  35.162   1.991  12.819
88498W        W60224  44.399  27.161   3.934
88499W        W60225  17.356  26.711  13.962
88500W        W60226  29.545  21.273  13.867
88501W        W60227  23.971  10.868   2.316
88502W        W60228   2.869   1.449   3.826
88503W        W60229  32.422  30.504   5.410
88504W        W60230  34.346  40.868  14.597
88505W        W60231  23.432   1.983   1.953
88506W        W60232  19.968  42.102   2.652
88507W        W60233  35.447  38.919  13.092
88508W        W60234  42.902  20.546  11.794
88509W        W60235  32.102  13.881   3.620
88510W        W60236  10.283  43.467   3.134
88511W        W60237  38.493   5.344  11.671
88512W        W60238  19.230  20.488   0.290
88513W        W60239  19.234   2.575   1.039
88514W        W60240  22.786  31.001  10.743
88515W        W60241  19.239  35.477   1.888
88516W        W60242   4.993  40.759  13.978
88517W        W60243  39.984   8.923  13.834
88518W        W60244   5.351  44.164   2.641
88519W        W60245  10.394  15.951   1.520
88520W        W60246  42.642  40.312  13.570
88521W        W60247  26.574  42.028   1.979
88522W        W60248  31.907  10.838  14.959
88523W        W60249  13.728   3.292   3.096
88524W        W60250  37.755   1.049  13.800
88525W        W60251  44.775  24.031   4.909
88526W        W60252  13.366   4.152  10.531
88527W        W60253  23.444  20.640   4.853
88528W        W60254  26.678  13.260  11.384
88529W        W60255  32.122  38.025   2.378
88530W        W60256  23.970  37.053   2.350
88531W        W60257  30.258  27.475  12.526
88532W        W60258   8.102  21.409   1.617
88533W        W60259  33.930  10.978   2.203
88534W        W60260  22.812  18.174  14.325
88535W        W60261  19.998  31.905   5.143
88536W        W60262  21.731  19.268   4.925
88537W        W60263  32.423  24.755   3.716
88538W        W60264  26.523   1.917  12.356
88539W        W60265   9.174  37.435  14.005
88540W        W60266  35.826  36.144  11.131
88541W        W60267  41.983  19.927   3.109
88542W        W60268  13.348  15.222  12.034
88543W        W60269  19.351  16.590   0.383
88544W        W60270  14.365   4.934   3.639
88545W        W60271  23.706  36.032   2.589
88546W        W60272  24.193  29.223   0.239
88547W        W60273   1.051  33.496   4.455
88548W        W60274   7.666  19.696   2.726
88549W        W60275  41.803   3.835  10.660
88550W        W60276  42.503  30.112  14.914
88551W        W60277  36.590  25.851  14.338
88552W        W60278  44.334  21.964   2.744
88553W        W60279   0.513  33.789  10.213
88554W        W60280  23.945  10.266  11.611
88555W        W60281  44.404  11.888   0.378
88556W        W60282  25.034  44.069  12.401
88557W        W60283  17.915  29.503   4.798
88558W        W60284  35.389  19.235   1.224
88559W        W60285  20.166  31.580   3.618
88560W        W60286  40.458  27.504   1.454
88561W        W60287  37.362   5.054   5.017
88562W        W60288  30.477  21.035  13.893
88563W        W60289   0.191  22.700  12.059
88564W        W60290   1.954  19.774  13.231
88565W        W60291   4.653  23.621   2.168
88566W        W60292  37.619  11.111  11.825
88567W        W60293  24.564  37.568  10.837
88568W        W60294  21.160   4.840   2.798
88569W        W60295  38.209  36.685  11.603
88570W        W60296  30.884  18.249  11.176
88571W        W60297  25.668   3.886   4.597
88572W        W60298  37.696  34.815   4.713
88573W        W60299  10.179  15.033   4.641
88574W        W60300  20.899  28.168   0.835
88575W        W60301  19.389   2.987  14.409
88576W        W60302   3.340  35.229   1.496
88577W        W60303  33.121  14.030   0.010
88578W        W60304  23.676   2.455  13.384
88579W        W60305  11.347  20.557   1.376
88580W        W60306  16.375   9.358   1.846
88581W        W60307  39.336  31.999   3.143
88582W        W60308  10.139   8.275   4.154
88583W        W60309  12.119  30.071   4.232
88584W        W60310  33.823  39.626   0.348
88585W        W60311  22.516   2.904  13.435
88586W        W60312  34.783  43.442   4.550
88587W        W60313   3.909   5.869   3.185
88588W        W60314  31.674  22.877  14.390
88589W        W60315  42.600  28.441  12.899
88590W        W60316  32.650  41.763  10.634
88591W        W60317  42.031  12.430   3.577
88592W        W60318  44.894  36.636   2.360
88593W        W60319  19.940   6.380  12.042
88594W        W60320  39.561  31.525   3.152
88595W        W60321  19.131   4.229  14.963
88596W        W60322  33.465  39.280   0.116
88597W        W60323  20.213  18.774   4.737
88598W        W60324  19.255  42.557  14.522
88599W        W60325  12.046   6.868  13.820
88600W        W60326  42.448  21.471  11.170
88601W        W60327  39.119  12.146  13.938
88602W        W60328   6.770  29.476  12.110
88603W        W60329   7.259   5.267   2.183
88604W        W60330  13.022  32.202  13.255
88605W        W60331  15.773  18.769   5.054
88606W        W60332  42.241   0.960  13.873
88607W        W60333  20.206   8.102   1.381
88608W        W60334  24.806   1.575   9.976
88609W        W60335   7.388   1.732  11.095
88610W        W60336  23.256  23.052   2.771
88611W        W60337  26.427  20.276   1.820
88612W        W60338  14.042  25.891  12.598
88613W        W60339  39.460   6.274  14.728
88614W        W60340  14.795  15.614   1.416
88615W        W60341   2.041  15.896   4.139
88616W        W60342  42.606  12.636  13.037
88617W        W60343   3.906  40.100  13.153
88618W        W60344   9.364  21.099   0.346
88619W        W60345  36.486  32.138  12.836
88620W        W60346  18.169  15.610  11.165
88621W        W60347  33.673  36.087  14.873
88622W        W60348   1.003  10.424  13.017
88623W        W60349  29.561  42.855   0.201
88624W        W60350   3.941  12.412  10.614
88625W        W60351  19.432  29.887   0.389
88626W        W60352  43.929  44.705   4.563
88627W        W60353  36.948  35.952  12.513
88628W        W60354   4.768  40.487   1.703
88629W        W60355  28.229  36.639   4.083
88630W        W60356  36.230   8.893   3.426
88631W        W60357   3.448  32.280   2.699
88632W        W60358  12.751  31.431   4.151
88633W        W60359  32.569  42.112   3.315
88634W        W60360  43.107  17.704  11.164
88635W        W60361  12.442  23.774   3.843
88636W        W60362  32.856  24.538  11.421
88637W        W60363  37.418  40.819   0.970
88638W        W60364  32.504  37.773   1.480
88639W        W60365  19.527  25.199   2.842
88640W        W60366   4.272  30.369   4.647
88641W        W60367  40.357   5.100  14.961
88642W        W60368  38.038   4.244   4.856
88643W        W60369  29.168  26.220  12.795
88644W        W60370  33.002   2.889  14.815
88645W        W60371  42.369  33.370   3.622
88646W        W60372   0.716  11.638   1.215
88647W        W60373  43.812  40.048  10.718
88648W        W60374  14.706  32.819  12.158
88649W        W60375  32.882  10.703  12.856
88650W        W60376  33.298  37.693  14.083
88651W        W60377  18.841  14.213   1.796
88652W        W60378   8.308   4.656   3.777
88653W        W60379  13.628  42.984   1.369
88654W        W60380  19.220  40.824  10.777
88655W        W60381  12.898  20.682  13.541
88656W        W60382  37.527  44.261   3.230
88657W        W60383  44.551  33.391   4.058
88658W        W60384   9.001   0.641  12.050
88659W        W60385   4.025  39.125   2.268
88660W        W60386  29.601  36.001  13.420
88661W        W60387  29.990   9.214  12.114
88662W        W60388   9.745   0.857   1.420
88663W        W60389  26.685   5.835   1.471
88664W        W60390  24.094  11.827  12.947
88665W        W60391  31.912  26.475  13.553
88666W        W60392  15.579  19.079   2.118
88667W        W60393   8.784  30.609  11.188
88668W        W60394  25.093  39.870  11.958
88669W        W60395  39.424  28.085  10.751
88670W        W60396  14.100  40.395   4.547
88671W        W60397  27.659  23.005  11.907
88672W        W60398  29.551  16.700  10.366
88673W        W60399  27.359  19.512   1.820
88674W        W60400  44.495  32.314  13.501
88675W        W60401  14.603  10.224   1.809
88676W        W60402   3.031  37.517   3.089
88677W        W60403  24.507  10.935  14.653
88678W        W60404  40.984  23.816  11.491
88679W        W60405  14.924   1.919  11.628
88680W        W60406  21.710  28.566   1.924
88681W        W60407  32.300  13.678  14.966
88682W        W60408   1.429  34.916   2.828
88683W        W60409  39.408  17.551  14.466
88684W        W60410  23.687  17.046  13.376
88685W        W60411   6.019  41.773  12.585
88686W        W60412   6.214  36.883  12.905
88687W        W60413  15.722  38.381   3.339
88688W        W60414  41.569  43.181  13.378
88689W        W60415  35.951  41.976   2.069
88690W        W60416   3.798  15.370   2.753
88691W        W60417  23.500  28.283   3.107
88692W        W60418  18.539  18.091  11.577
88693W        W60419  41.028  42.450  10.511
88694W        W60420  38.875   7.400   2.565
88695W        W60421  29.424  38.622  11.096
88696W        W60422  38.865  44.737   2.237
88697W        W60423  31.392  21.513  12.809
88698W        W60424   4.907  43.030   0.976
88699W        W60425   5.219  28.545  11.643
88700W        W60426   9.340  22.512   5.518
88701W        W60427  37.857  19.507  10.672
88702W        W60428  20.808  12.105   2.849
88703W        W60429   0.335  29.018   3.096
88704W        W60430  40.481  12.554   1.877
88705W        W60431  13.380  42.820   1.824
88706W        W60432   2.815  25.420  11.516
88707W        W60433  40.087  26.020  13.637
88708W        W60434  18.547   3.406   2.821
88709W        W60435  28.182  19.053   0.204
88710W        W60436   5.674  34.977   1.716
88711W        W60437  30.442  13.470   1.294
88712W        W60438  20.004  20.186   1.730
88713W        W60439  22.724  24.536   2.120
88714W        W60440  20.556  32.370  14.455
88715W        W60441   6.587  21.822  10.413
88716W        W60442  29.099  23.155  14.848
88717W        W60443   1.189  34.658   4.760
88718W        W60444  20.796  34.146  13.413
88719W        W60445  16.325  18.227   4.072
88720W        W60446  10.067   1.212   0.596
88721W        W60447   1.759  28.378   2.771
88722W        W60448  10.206  33.155  14.302
88723W        W60449  28.947  35.322   4.094
88724W        W60450  29.556  25.431  14.839
88725W        W60451  33.146  28.817   2.527
88726W        W60452  38.796  22.640   3.178
88727W        W60453  39.577   9.155  12.497
88728W        W60454  15.661  37.306  10.731
88729W        W60455  43.072  21.610  11.554
88730W        W60456  16.827  38.833   1.761
88731W        W60457  12.163  12.307  12.207
88732W        W60458  29.474  21.235  12.110
88733W        W60459  12.761  43.994  14.898
88734W        W60460  13.601   6.919  10.867
88735W        W60461   2.165  20.766   5.002
88736W        W60462  36.988  13.299  11.234
88737W        W60463   9.517  32.959   3.689
88738W        W60464  40.342  40.056  14.977
88739W        W60465  16.999  39.868   2.304
88740W        W60466  44.887  28.558  12.385
88741W        W60467  44.847  40.040  11.595
88742W        W60468  37.269  33.980   3.115
88743W        W60469   4.622  18.710  10.566
88744W        W60470   9.892  15.664   0.549
88745W        W60471  25.099  20.611   4.902
88746W        W60472  39.564   5.816  14.468
88747W        W60473   9.721  25.074  10.248
88748W        W60474   8.916  26.715  12.219
88749W        W60475  44.285   7.707  12.041
88750W        W60476   8.726  35.095   4.192
88751W        W60477  19.558  40.900   4.815
88752W        W60478  26.203  16.631  13.506
88753W        W60479  44.401  15.865   4.637
88754W        W60480  21.821   3.302  12.858
88755W        W60481  43.319  15.754   3.927
88756W        W60482   8.205  16.182   2.792
88757W        W60483  27.389  43.696  13.370
88758W        W60484  14.700  40.229  10.189
88759W        W60485  41.596  12.203   3.374
88760W        W60486  37.629  14.711   2.343
88761W        W60487   6.236   9.444  11.434
88762W        W60488   3.452  38.857  12.825
88763W        W60489   5.726   6.870  10.863
88764W        W60490  41.753  17.143   3.288
88765W        W60491   7.118   0.915  12.041
88766W        W60492   4.820  44.985   4.516
88767W        W60493  28.978  29.482   3.969
88768W        W60494  37.435  20.333  11.486
88769W        W60495   9.365  20.818  10.792
88770W        W60496  21.069   4.740   1.766
88771W        W60497  27.087  14.102  14.813
88772W        W60498   7.845  38.428  14.992
88773W        W60499  16.607   4.438  13.445
88774W        W60500  15.656  23.678  13.328
88775W        W60501   1.326  24.942   1.103
88776W        W60502   5.861  33.065   2.262
88777W        W60503   7.907   1.914  14.431
88778W        W60504  41.815   7.841  12.010
88779W        W60505  27.011  29.543  14.898
88780W        W60506  17.269  21.702  14.052
88781W        W60507  18.113  21.426   1.633
88782W        W60508   8.514  19.105   0.431
88783W        W60509  17.131  14.564   3.865
88784W        W60510  15.045   5.117  14.057
88785W        W60511  33.166  20.962  11.613
88786W        W60512   6.678  10.799   5.047
88787W        W60513   8.734  18.185  13.949
88788W        W60514  12.969  11.520  12.020
88789W        W60515  17.185  22.087   0.239
88790W        W60516   0.355   3.920   0.202
88791W        W60517  37.797  16.205  10.751
88792W        W60518  18.683   1.306   2.341
88793W        W60519  15.377  33.658   2.290
88794W        W60520  20.577  32.884   3.139
88795W        W60521  40.131   6.671  13.529
88796W        W60522  44.374  16.749  14.355
88797W        W60523  40.754  38.363   1.457
88798W        W60524   6.287  29.008   0.949
88799W        W60525  36.411  31.599  10.626
88800W        W60526  33.417  24.198   2.880
88801W        W60527  14.862   4.594   3.493
88802W        W60528  20.313  28.546  10.582
88803W        W60529   6.083  28.454   0.167
88804W        W60530  41.559  12.646  14.267
88805W        W60531  20.502  17.068   1.936
88806W        W60532  13.612  20.150  14.302
88807W        W60533  20.925  27.138  11.074
88808W        W60534  37.964  44.686   2.691
88809W        W60535  13.449  12.294   4.141
88810W        W60536  44.308  11.422  10.696
88811W        W60537  42.393  30.496  11.497
88812W        W60538  39.991  33.563   3.586
88813W        W60539   9.687  34.714  11.541
88814W        W60540  41.418  37.148   1.860
88815W        W60541  42.030  37.442   1.412
88816W        W60542   8.304  44.363  12.846
88817W        W60543  22.137  26.270  13.862
88818W        W60544  17.788   2.124   0.860
88819W        W60545  29.269  29.581   4.395
88820W        W60546  32.927  39.586   2.012
88821W        W60547  30.960  28.866   4.953
88822W        W60548  18.243  35.105  11.564
88823W        W60549  43.342   7.853   1.649
88824W        W60550   4.951  32.494   0.885
88825W        W60551  42.058  24.101   1.907
88826W        W60552  21.175  30.456   0.846
88827W        W60553  43.548  27.875   2.433
88828W        W60554  30.093  35.059   4.429
88829W        W60555  21.131  30.637  13.511
88830W        W60556   4.849  37.174  12.119
88831W        W60557   5.657  40.461  12.931
88832W        W60558  40.416  40.618   4.249
88833W        W60559  26.581  31.823   3.739
88834W        W60560  22.193  35.998   1.836
88835W        W60561  44.933  18.138  12.986
88836W        W60562   3.867  14.159   1.733
88837W        W60563  36.878  43.257  11.885
88838W        W60564  26.688  18.042   0.352
88839W        W60565  20.375  37.037   4.094
88840W        W60566  44.992   4.400   0.837
88841W        W60567  44.771  18.558  12.549
88842W        W60568  19.072  13.666   3.434
88843W        W60569  23.043  19.831  12.549
88844W        W60570  13.532  44.297  11.191
88845W        W60571  27.222  26.415   1.745
88846W        W60572  43.865  42.519   0.397
88847W        W60573   5.841  20.198   0.745
88848W        W60574  14.410   2.184   0.850
88849W        W60575  16.845  22.752   1.392
88850W        W60576   9.728  41.115   1.239
88851W        W60577  18.534   4.142  12.360
88852W        W60578   9.749   9.383   2.777
88853W        W60579   8.880  22.612  14.176
88854W        W60580  11.629   4.739   4.081
88855W        W60581  42.150   7.931   2.746
88856W        W60582  20.966  29.609   3.272
88857W        W60583  33.422   2.838   4.063
88858W        W60584  43.759  20.771   4.569
88859W        W60585   9.593   5.352   2.036
88860W        W60586  11.635  39.270   2.840
88861W        W60587  40.855  28.176   0.727
88862W        W60588  16.663  25.907   1.919
88863W        W60589  12.684   4.623  10.546
88864W        W60590  19.760  27.351   3.661
88865W        W60591  36.617  14.663  13.430
88866W        W60592  43.388  29.506   1.205
88867W        W60593  14.633  32.187   0.309
88868W        W60594  19.582  26.944   2.339
88869W        W60595  14.561  21.125   0.325
88870W        W60596  14.463  22.758  12.518
88871W        W60597   5.492  41.727  12.623
88872W        W60598   3.193  31.052  10.416
88873W        W60599  10.387  19.218  14.533
88874W        W60600  17.560  23.198   2.552
88875W        W60601  31.012  40.360   1.813
88876W        W60602   3.952   5.625   3.637
88877W        W60603  41.911  39.408  13.360
88878W        W60604  10.786  30.507   3.689
88879W        W60605  24.659   4.308  14.700
88880W        W60606  23.758  21.581  12.042
88881W        W60607  40.621  29.956   1.178
88882W        W60608  31.793  41.314  14.524
88883W        W60609   7.904  37.120   4.541
88884W        W60610  28.967  28.704  12.486
88885W        W60611  22.670  39.585   1.004
88886W        W60612  26.192  38.500  13.172
88887W        W60613  36.245  22.998  13.368
88888W        W60614  32.312   3.187  11.618
88889W        W60615   8.438   9.927  14.447
88890W        W60616  15.820  10.958  14.509
88891W        W60617  20.205  29.891   0.740
88892W        W60618  41.661  10.956   0.033
88893W        W60619  14.736  31.482  11.412
88894W        W60620   0.255  14.097  13.513
88895W        W60621  22.755  12.298   2.342
88896W        W60622  34.691  16.363  11.471
88897W        W60623  34.837  16.752  11.143
88898W        W60624  31.664  43.343  12.437
88899W        W60625  18.833   5.299   4.169
88900W        W60626  24.052  13.707   2.923
88901W        W60627  11.136  31.472  13.091
88902W        W60628  16.999  21.669  11.864
88903W        W60629   0.529  19.969   1.855
88904W        W60630  20.239  21.275  13.391
88905W        W60631   7.644  17.029  10.721
88906W        W60632   0.857  28.698  13.293
88907W        W60633  18.456  32.999  12.624
88908W        W60634  23.742   6.609   1.023
88909W        W60635  17.800  34.366  14.002
88910W        W60636  14.200  17.217  14.513
88911W        W60637  29.481   8.681  12.936
88912W        W60638  15.199  37.579  10.650
88913W        W60639   0.744  24.125  11.399
88914W        W60640  44.729  28.087  12.535
88915W        W60641  30.191  43.383  11.536
88916W        W60642   1.215  10.359   2.260
88917W        W60643  13.293   8.883  10.687
88918W        W60644  32.860  44.257   0.730
88919W        W60645  21.982   4.453   1.822
88920W        W60646  34.006  42.429  13.123
88921W        W60647  43.488  43.556   4.199
88922W        W60648   4.340  28.408   2.100
88923W        W60649  38.144  25.515   2.491
88924W        W60650   1.562  32.393   2.178
88925W        W60651  44.876  13.166   1.415
88926W        W60652  41.199  17.876  13.496
88927W        W60653  38.618  14.345  14.088
88928W        W60654  13.781  36.085   0.729
88929W        W60655  28.593  43.948   3.092
88930W        W60656   3.157  10.580  12.534
88931W        W60657   3.264   1.985   4.131
88932W        W60658  20.505  10.892   1.247
88933W        W60659  40.993  39.533  13.588
88934W        W60660  17.280  16.139   1.733
88935W        W60661  43.773  34.557   2.427
88936W        W60662  43.931  16.647   2.073
88937W        W60663  11.330  36.019  10.907
88938W        W60664  18.213   5.907  10.637
88939W        W60665  35.437  10.435   4.392
88940W        W60666  38.324  16.310  13.347
88941W        W60667  14.607  25.100   1.722
88942W        W60668  24.089  24.473  14.958
88943W        W60669  31.962  32.505  13.555
88944W        W60670  21.283   3.966   2.984
88945W        W60671  27.704   1.930   0.837
88946W        W60672  14.189   3.241   1.217
88947W        W60673  29.874  25.083  10.601
88948W        W60674  18.553   5.509   4.560
88949W        W60675  31.181  11.450  11.668
88950W        W60676  22.012  27.718   4.324
88951W        W60677   4.178  34.201  11.674
88952W        W60678  15.140   3.906  13.483
88953W        W60679  28.618  41.375   3.732
88954W        W60680  41.975  40.963   3.710
88955W        W60681  26.003  16.792  14.446
88956W        W60682  40.486  30.439  12.995
88957W        W60683   5.860  42.968   4.611
88958W        W60684  13.694  40.841  11.597
88959W        W60685  24.648  25.499  11.381
88960W        W60686  30.246  11.704   1.882
88961W        W60687  17.064  39.987   1.434
88962W        W60688   9.736   7.995   3.831
88963W        W60689  24.297  32.070  11.963
88964W        W60690   1.511  16.661   0.733
88965W        W60691  41.028  31.606  11.474
88966W        W60692   9.825  37.671   4.162
88967W        W60693  34.399  13.773   3.739
88968W        W60694  29.604   1.305   0.846
88969W        W60695  17.803  24.703   0.406
88970W        W60696  26.550  34.164   4.298
88971W        W60697   1.818   3.024  13.030
88972W        W60698  43.986  44.556   1.966
88973W        W60699  40.419  21.938   2.290
88974W        W60700  26.304  41.882  13.963
88975W        W60701  31.580   9.120  14.053
88976W        W60702  21.117  17.292  10.603
88977W        W60703  17.213  30.701   2.157
88978W        W60704  42.855  31.969  11.087
88979W        W60705  39.682  34.957   1.348
88980W        W60706  13.934  36.658  14.943
88981W        W60707  30.178  36.530  13.960
88982W        W60708  23.290  41.911   0.819
88983W        W60709  31.445  16.872  12.413
88984W        W60710  29.354  22.990   2.324
88985W        W60711  28.198   2.286   1.270
88986W        W60712  32.636  30.025  13.904
88987W        W60713  12.298  20.993   2.232
88988W        W60714  15.314  17.626  14.732
88989W        W60715   6.807  11.092   0.466
88990W        W60716   2.433  10.746   1.212
88991W        W60717   6.311   6.119  11.697
88992W        W60718  20.865  20.853   1.721
88993W        W60719  40.890   8.190  13.105
88994W        W60720  39.624   3.737   4.193
88995W        W60721  23.605  11.629  10.354
88996W        W60722  41.859  22.284   0.198
88997W        W60723   2.139  29.981   2.687
88998W        W60724  44.289  14.305   3.734
88999W        W60725  27.292  17.572  14.032
89000W        W60726  16.739  30.946   1.887
89001W        W60727  11.549  38.072  14.885
89002W        W60728  41.417  18.190   3.900
89003W        W60729  15.312  16.681  10.925
89004W        W60730  13.106  34.754   1.251
89005W        W60731  38.444  28.574   2.427
89006W        W60732  44.502  25.744   1.332
89007W        W60733  31.815  16.578  13.513
89008W        W60734   2.401  34.310  13.515
89009W        W60735   3.152  11.779   4.080
89010W        W60736   8.197  12.823  13.939
89011W        W60737   2.905  38.008   4.381
89012W        W60738   1.864   3.900   1.165
89013W        W60739   5.924  10.804   4.419
89014W        W60740  38.055  26.501  12.044
89015W        W60741   5.032  17.330   0.061
89016W        W60742  12.625  16.002   1.162
89017W        W60743  43.302   0.395  12.492
89018W        W60744  14.612  17.215   4.416
89019W        W60745   0.757   5.256   4.703
89020W        W60746   0.371  12.592  10.538
89021W        W60747  41.110  30.820   3.868
89022W        W60748  38.891   4.362   1.742
89023W        W60749  32.178   1.717   1.693
89024W        W60750   5.698  26.917   4.166
89025W        W60751  10.867   5.301  11.043
89026W        W60752  40.234  20.489   4.519
89027W        W60753  32.186   7.846  11.206
89028W        W60754  31.401  23.172   0.418
89029W        W60755  11.862  24.233   2.343
89030W        W60756  20.142   2.857   0.001
89031W        W60757  37.358  27.320  13.487
89032W        W60758  11.075  19.351   2.267
89033W        W60759  15.413  22.205  13.505
89034W        W60760  42.298  36.086   1.399
89035W        W60761   0.908   9.632   1.748
89036W        W60762  12.695  10.569  11.168
89037W        W60763  30.599  44.172   4.214
89038W        W60764   3.767   1.686   2.349
89039W        W60765  33.097  32.616  10.901
89040W        W60766   4.725   3.351   4.125
89041W        W60767  12.804  23.683   4.701
89042W        W60768  42.199  15.792  10.410
89043W        W60769  14.368  32.449   3.394
89044W        W60770  27.911   3.370   0.954
89045W        W60771  18.251  23.052   4.107
89046W        W60772  36.433  33.943   4.718
89047W        W60773  26.925  13.995   2.595
89048W        W60774   3.237  28.508   4.109
89049W        W60775   1.233  14.441   2.913
89050W        W60776  26.035  40.321   1.436
89051W        W60777  27.612  34.403  13.485
89052W        W60778  11.311  22.162   0.419
89053W        W60779  13.381  40.552  11.135
89054W        W60780  29.914  37.661   2.653
89055W        W60781  39.976  34.997   0.024
89056W        W60782  10.611  14.324   1.740
89057W        W60783  27.720  11.698   4.158
89058W        W60784   1.782  36.640   0.333
89059W        W60785  37.307  28.839  11.673
89060W        W60786  23.958  25.502  10.730
89061W        W60787   2.810  21.489   3.727
89062W        W60788  31.176  24.031  14.840
89063W        W60789   8.653  26.286   4.971
89064W        W60790  23.141   7.404  13.260
89065W        W60791  17.768   6.167  13.896
89066W        W60792  16.007  28.194  14.356
89067W        W60793   7.583  32.427   1.665
89068W        W60794  27.496   9.351   1.850
89069W        W60795  36.560  22.004  10.733
89070W        W60796  27.128  34.345  11.252
89071W        W60797  16.102  19.139  13.558
89072W        W60798   1.339  42.477   0.920
89073W        W60799  12.144  28.220  13.029
89074W        W60800  32.989  33.014  14.533
89075W        W60801   6.145  12.827  11.058
89076W        W60802  41.052  25.642  11.716
89077W        W60803  15.207  11.225   2.758
89078W        W60804  17.214  42.746   4.277
89079W        W60805  22.046  11.257   3.836
89080W        W60806  17.152  41.778   4.930
89081W        W60807   6.115  42.888  11.092
89082W        W60808  42.373  19.593   0.992
89083W        W60809  14.016  14.398   1.819
89084W        W60810  42.832  40.581   1.512
89085W        W60811  35.320  29.141   2.677
89086W        W60812   3.904  30.177   2.169
89087W        W60813   6.331  32.332   1.562
89088W        W60814   5.842   4.525   5.479
89089W        W60815  21.608  40.357   1.221
89090W        W60816  10.864   4.214   0.800
89091W        W60817  35.825  43.742   2.733
89092W        W60818  16.549   8.442   4.625
89093W        W60819  33.394  32.096   2.578
89094W        W60820  17.332   6.487  12.508
89095W        W60821  15.826  25.151  14.052
89096W        W60822  36.230  29.744   0.370
89097W        W60823  37.051  38.470  13.460
89098W        W60824  32.035  27.614   4.546
89099W        W60825   9.738  22.043  14.047
89100W        W60826  14.973  13.741  14.797
89101W        W60827  35.985  27.680  11.935
89102W        W60828  19.001  17.067   1.752
89103W        W60829  20.231  15.124  14.004
89104W        W60830  33.310   4.415  13.988
89105W        W60831  16.665   3.486  13.383
89106W        W60832  18.550  34.893   3.759
89107W        W60833  34.656  28.576   1.854
89108W        W60834   2.942  14.886   3.994
89109W        W60835  23.935  41.857   2.512
89110W        W60836  31.919  41.507   3.714
89111W        W60837  12.235  17.854  11.124
89112W        W60838   1.401   4.828  11.390
89113W        W60839  41.287  22.188  11.739
89114W        W60840  29.206  28.492   4.269
89115W        W60841  23.627  33.025   1.657
89116W        W60842  13.332  23.539  13.920
89117W        W60843   7.930  22.707  10.270
89118W        W60844  34.009  14.983   3.208
89119W        W60845  12.379  40.045  13.501
89120W        W60846   2.965   7.609  12.971
89121W        W60847  22.027  33.852   2.690
89122W        W60848  38.352  24.770  14.906
89123W        W60849  14.582  25.533   0.082
89124W        W60850   9.033  24.566   0.808
89125W        W60851  18.646  28.398   0.928
89126W        W60852  19.124  17.275  11.962
89127W        W60853  10.304  25.157  12.037
89128W        W60854  34.404  38.575  14.924
89129W        W60855  32.846  23.741  11.065
89130W        W60856   5.438  11.737  11.430
89131W        W60857  38.606  30.080  13.739
89132W        W60858  16.183   9.512   3.791
89133W        W60859   2.708  35.013   4.577
89134W        W60860  27.904  42.549   0.698
89135W        W60861  27.589  33.197  11.412
89136W        W60862  23.969  22.498   0.451
89137W        W60863  37.435  16.441   3.684
89138W        W60864  18.199  19.006   0.805
89139W        W60865  42.531  10.859   4.183
89140W        W60866   3.711  25.847  11.561
89141W        W60867   7.365   8.485   3.596
89142W        W60868   6.347  10.688   3.292
89143W        W60869  29.729   4.498  12.652
89144W        W60870  33.113  39.373  10.793
89145W        W60871  33.068   9.619  12.102
89146W        W60872   1.296  33.144  13.332
89147W        W60873  20.742  37.353  12.489
89148W        W60874  15.633  36.424   0.860
89149W        W60875   4.811  41.154  14.286
89150W        W60876   0.803  28.145  11.614
89151W        W60877  12.805  33.546   4.103
89152W        W60878  36.612   5.394   0.522
89153W        W60879  35.303  35.815  12.604
89154W        W60880  21.127   1.465  11.220
89155W        W60881  37.617   6.822   4.095
89156W        W60882  44.216  10.838  11.055
89157W        W60883  19.436   6.465   2.252
89158W        W60884  43.999  29.080  12.584
89159W        W60885  43.001   3.082  14.832
89160W        W60886   0.018  34.079  11.943
89161W        W60887  42.278  17.956   5.077
89162W        W60888  33.998  33.633   3.217
89163W        W60889  12.860  30.996   4.882
89164W        W60890  35.700  11.287   3.584
89165W        W60891   5.524   7.927  13.693
89166W        W60892  14.125  19.507  13.665
89167W        W60893  22.646  17.830   4.548
89168W        W60894  12.279  42.013   4.335
89169W        W60895   9.355  44.821   3.587
89170W        W60896  30.250  40.884   2.268
89171W        W60897   4.702  39.536   0.258
89172W        W60898   3.412   8.397  12.772
89173W        W60899  13.053  15.181   4.509
89174W        W60900   1.940  29.942  10.914
89175W        W60901  27.553  41.234  12.068
89176W        W60902  23.605  21.481   2.406
89177W        W60903  20.977  30.271  13.165
89178W        W60904  27.557  37.398  12.393
89179W        W60905  36.011  44.944  14.980
89180W        W60906  22.504  14.266   2.358
89181W        W60907   0.861  13.730   4.649
89182W        W60908   6.006   7.165  11.202
89183W        W60909  44.338   1.626   0.422
89184W        W60910  38.435  31.417   0.454
89185W        W60911  30.674  38.348  14.718
89186W        W60912  10.381   0.880  13.533
89187W        W60913  39.792   1.278  14.268
89188W        W60914  25.215   5.243  11.837
89189W        W60915  34.116  34.816  14.752
89190W        W60916  29.208  27.973   4.431
89191W        W60917  30.886  32.607  14.310
89192W        W60918  29.070  22.976  12.885
89193W        W60919   9.234  13.049  11.731
89194W        W60920  13.365  24.004  12.351
89195W        W60921   8.286  21.890   1.735
89196W        W60922  40.045  26.624   0.197
89197W        W60923  29.418  19.560   1.906
89198W        W60924  12.293  18.748  13.744
89199W        W60925   6.848  35.367   3.228
89200W        W60926  31.768  35.177  13.079
89201W        W60927  42.442   7.907  11.038
89202W        W60928  25.476  27.006   0.552
89203W        W60929  14.190  17.819   3.620
89204W        W60930  22.285   1.666   3.657
89205W        W60931   7.136  24.100  10.754
89206W        W60932  27.568   1.197   4.134
89207W        W60933  42.089  22.770   0.913
89208W        W60934  16.650  14.546  11.083
89209W        W60935  31.726  18.170   0.935
89210W        W60936  39.066   9.667   2.226
89211W        W60937  12.197  24.675   1.789
89212W        W60938  35.102   3.291   4.436
89213W        W60939  28.203  34.518  14.436
89214W        W60940  18.289  24.002   1.164
89215W        W60941   5.926   5.914  11.098
89216W        W60942   3.535   7.077   1.981
89217W        W60943  35.269  38.379   2.666
89218W        W60944  30.866  29.249   3.605
89219W        W60945  33.478  39.005  10.738
89220W        W60946  42.362  24.190   3.834
89221W        W60947   3.739  16.179   2.089
89222W        W60948  37.909   3.876   1.410
89223W        W60949  10.386  14.573   1.338
89224W        W60950  40.594  34.488  10.755
89225W        W60951  39.774  16.011   5.033
89226W        W60952  44.570  12.650   2.259
89227W        W60953  39.374  17.701  11.550
89228W        W60954  42.455  25.594  12.146
89229W        W60955  38.726  25.022   0.271
89230W        W60956  19.062  21.992   1.321
89231W        W60957  36.844  43.028   3.118
89232W        W60958   7.073  32.977  12.505
89233W        W60959  40.823  29.501   1.336
89234W        W60960  11.894   8.586  14.350
89235W        W60961  38.249  21.307   4.126
89236W        W60962   3.295  15.221   2.739
89237W        W60963  23.182  17.074   2.160
89238W        W60964   9.939  14.265   0.822
89239W        W60965  15.552  21.792   2.670
89240W        W60966   8.409  14.978   4.084
89241W        W60967  18.296  15.681   4.538
89242W        W60968  31.774  38.374   1.477
89243W        W60969  10.084  27.982  11.608
89244W        W60970  36.259  42.533   4.181
89245W        W60971  22.164  29.624   0.340
89246W        W60972  22.312  22.623   2.736
89247W        W60973  13.707  29.847  11.938
89248W        W60974  20.970  19.033  14.877
89249W        W60975   1.200   0.456  11.190
89250W        W60976  11.199   0.791   1.721
89251W        W60977   6.255  35.950   2.775
89252W        W60978  26.377  43.031  14.350
89253W        W60979  27.956  25.287   1.453
89254W        W60980  22.175   5.178  14.290
89255W        W60981  19.771  40.757   3.795
89256W        W60982  21.070  40.924   4.613
89257W        W60983   6.589  22.013  11.177
89258W        W60984  17.111  26.947  12.488
89259W        W60985   3.375  26.921  12.911
89260W        W60986   6.827  44.489  12.546
89261W        W60987  33.354  14.510  14.666
89262W        W60988  28.423  40.939  12.109
89263W        W60989  24.609   1.405   4.754
89264W        W60990   5.736   3.742  12.572
89265W        W60991  42.989  34.860  13.464
89266W        W60992   1.651  23.229   2.857
89267W        W60993  22.212  36.834   1.371
89268W        W60994  22.178   8.214   2.786
89269W        W60995  17.777  21.712  13.599
89270W        W60996  28.604  32.410  11.525
89271W        W60997  16.671  25.164  12.129
89272W        W60998  42.143  42.775  10.167
89273W        W60999  30.623  18.842  11.874
89274W        W61000  23.487  17.645   1.032
89275W        W61001  22.055  23.488   0.199
89276W        W61002   3.004  39.717   2.747
89277W        W61003  40.951   1.468  12.343
89278W        W61004  33.004   5.707  13.574
89279W        W61005  26.611  34.136   1.685
89280W        W61006  13.736   5.830   3.280
89281W        W61007  41.255   8.371   0.540
89282W        W61008   1.234  30.838  13.051
89283W        W61009  33.633  14.755   3.971
89284W        W61010  18.336  14.942  14.992
89285W        W61011  18.593  41.050  14.275
89286W        W61012  18.082   1.387   1.252
89287W        W61013  20.657   7.477   3.393
89288W        W61014  22.194  24.007   0.010
89289W        W61015  10.398  43.008  11.451
89290W        W61016  33.510   8.535  14.411
89291W        W61017  30.036  26.073   1.807
89292W        W61018  30.158  34.440   2.402
89293W        W61019  44.349  17.238  14.538
89294W        W61020  36.646  16.573  10.181
89295W        W61021  43.524  19.030  11.245
89296W        W61022  33.000  22.307  11.312
89297W        W61023  12.942  15.551   3.352
89298W        W61024  10.742   2.335  11.254
89299W        W61025  44.341  34.512   1.614
89300W        W61026  31.393   1.938  14.488
89301W        W61027  41.008  11.473   3.163
89302W        W61028  38.519  31.930  13.614
89303W        W61029   5.669   1.871  13.909
89304W        W61030  35.491  41.053   0.016
89305W        W61031  29.910  24.987   2.502
89306W        W61032   6.319  35.868  14.793
89307W        W61033   9.792  25.987  14.893
89308W        W61034  15.577   9.410  11.999
89309W        W61035  27.497  44.709  10.273
89310W        W61036  17.502  31.520   0.474
89311W        W61037  42.375   1.350  12.054
89312W        W61038  31.576  28.705   0.273
89313W        W61039  21.674  11.729   1.699
89314W        W61040  38.276  16.042  14.269
89315W        W61041  31.425   0.908  12.934
89316W        W61042   9.583  43.403  13.519
89317W        W61043   5.747  30.809   0.995
89318W        W61044  13.367  13.539  11.263
89319W        W61045  33.901  15.058   0.799
89320W        W61046  29.901  30.099   2.608
89321W        W61047   0.754   8.691   1.356
89322W        W61048  10.116   1.446  14.546
89323W        W61049  12.196   3.451  13.840
89324W        W61050  12.173  40.901   2.340
89325W        W61051   9.427  42.025   1.399
89326W        W61052  22.177  11.810  11.206
89327W        W61053  28.517  27.549   4.928
89328W        W61054  22.012  36.844   3.864
89329W        W61055  29.054  36.816  13.169
89330W        W61056  21.525  25.609   4.440
89331W        W61057   9.984  39.527   3.377
89332W        W61058  31.096  15.223   3.305
89333W        W61059  33.138  23.271   1.298
89334W        W61060   8.716  27.470  12.897
89335W        W61061  44.046  11.186   0.458
89336W        W61062  28.654  38.278   3.282
89337W        W61063  44.393  40.582   4.144
89338W        W61064  22.942  24.960   3.336
89339W        W61065  33.263  25.386  11.589
89340W        W61066   8.831   9.325   1.168
89341W        W61067  18.890  11.728  13.840
89342W        W61068   7.475  39.259  12.896
89343W        W61069  13.843   1.524  14.177
89344W        W61070  31.486  40.092   1.658
89345W        W61071  32.143  32.176  11.609
89346W        W61072  35.649  23.549  11.527
89347W        W61073  11.090  43.535   1.469
89348W        W61074  12.260  33.424   2.760
89349W        W61075  40.727   4.457  12.577
89350W        W61076   9.376  42.987  11.842
89351W        W61077  13.953  24.708  10.662
89352W        W61078  13.524  27.070   3.272
89353W        W61079  30.922   5.208   4.096
89354W        W61080  41.893  14.776   1.593
89355W        W61081  41.873  38.421   4.379
89356W        W61082  19.642  35.449  11.539
89357W        W61083  25.753  31.499   3.419
89358W        W61084  28.569  35.373  12.673
89359W        W61085  33.633  39.047  13.277
89360W        W61086  12.007  11.542   0.979
89361W        W61087   0.204   1.775  12.001
89362W        W61088  15.120  33.783   2.750
89363W        W61089  40.717  17.809   2.491
89364W        W61090  13.680  11.954  13.176
89365W        W61091  33.526  16.655   2.450
89366W        W61092  24.801   9.356  12.807
89367W        W61093  27.706  15.152  11.901
89368W        W61094  29.372  33.906  13.028
89369W        W61095  33.123   5.989   2.802
89370W        W61096  24.240   3.246  11.933
89371W        W61097  15.550  39.113   5.062
89372W        W61098  39.519  26.714   2.128
89373W        W61099  18.658  22.970  12.128
89374W        W61100  29.276  31.611  13.089
89375W        W61101  42.953  44.829  13.421
89376W        W61102  44.487  42.231  10.302
89377W        W61103  26.714  13.748  12.266
89378W        W61104  34.953  36.851  12.007
89379W        W61105  39.152  12.890   3.076
89380W        W61106  38.188  44.696   0.203
89381W        W61107  11.255   7.646   1.907
89382W        W61108  15.611  20.248  14.065
89383W        W61109  19.503  18.546   0.718
89384W        W61110   5.458  42.369   2.674
89385W        W61111  28.006  36.614   1.819
89386W        W61112  21.715   2.930   3.677
89387W        W61113  44.081  35.506   4.599
89388W        W61114  29.013  29.010   4.165
89389W        W61115  10.745   0.940   3.682
89390W        W61116  32.033  39.852  11.038
89391W        W61117  23.748  26.717   0.338
89392W        W61118  14.715  26.194   3.241
89393W        W61119  20.820  44.071  11.853
89394W        W61120  20.904  25.236   9.937
89395W        W61121  19.671  25.218   3.338
89396W        W61122  29.253  34.122  12.491
89397W        W61123  16.199  27.556   1.764
89398W        W61124  27.531  29.679   2.254
89399W        W61125  36.417  12.078  11.938
89400W        W61126  43.075  31.118   3.162
89401W        W61127  44.720  15.134   1.430
89402W        W61128  23.936  21.431  13.489
89403W        W61129   4.215  16.301  12.169
89404W        W61130  34.984  37.592  14.361
89405W        W61131  30.154  11.400   0.832
89406W        W61132  27.156  18.266  14.357
89407W        W61133  35.069  42.323   4.308
89408W        W61134   1.323  16.670   0.241
89409W        W61135  15.359  26.699  10.585
89410W        W61136  40.020  36.838   2.945
89411W        W61137  19.120  44.836  11.252
89412W        W61138  44.279  22.112  14.999
89413W        W61139  30.169  42.277   9.884
89414W        W61140  38.802  10.730  12.840
89415W        W61141  27.901  13.506   0.256
89416W        W61142  42.300  43.175   9.864
89417W        W61143  37.670   7.707   3.588
89418W        W61144  21.722   4.933  12.118
89419W        W61145  14.214  26.252   2.220
89420W        W61146  31.909  23.616  14.996
89421W        W61147  31.115   8.279   1.368
89422W        W61148  16.007  36.900  11.670
89423W        W61149  11.557   8.068   3.041
89424W        W61150   3.255  25.432  12.149
89425W        W61151  13.171  27.713   2.508
89426W        W61152  22.141  29.409   1.887
89427W        W61153  32.501  32.758  11.116
89428W        W61154  30.670  25.470  14.082
89429W        W61155   3.845   2.189  12.513
89430W        W61156  26.003   6.701   0.457
89431W        W61157  17.195  41.443  13.372
89432W        W61158  10.708  31.645  11.591
89433W        W61159  13.444  14.119   2.413
89434W        W61160  38.647  24.256  14.216
89435W        W61161   7.632   5.864  13.716
89436W        W61162  31.397  27.432   3.788
89437W        W61163  28.975  11.200   4.455
89438W        W61164  22.528  19.911  11.688
89439W        W61165  11.239  25.568  12.316
89440W        W61166  36.982  34.872   1.197
89441W        W61167  42.674  11.648   4.041
89442W        W61168  25.746  11.419  14.262
89443W        W61169  40.375  38.503   0.273
89444W        W61170  25.191  13.617  11.810
89445W        W61171  40.667  42.424  12.885
89446W        W61172  25.165  44.846  11.044
89447W        W61173   3.513   6.303  12.385
89448W        W61174  39.522  30.107   3.836
89449W        W61175  36.317   2.269   0.554
89450W        W61176  14.731  12.781   3.177
89451W        W61177  41.250   6.423  11.129
89452W        W61178  32.004  43.503  11.130
89453W        W61179   9.407  23.809   2.625
89454W        W61180  15.698  25.002   2.777
89455W        W61181  18.189  37.196   2.180
89456W        W61182  25.139  40.268   5.062
89457W        W61183   2.858  44.916   2.679
89458W        W61184  35.813  20.636  10.800
89459W        W61185  26.613   5.688   2.306
89460W        W61186  43.948  34.654   3.893
89461W        W61187  44.297  12.876  12.390
89462W        W61188  18.045   6.277   2.830
89463W        W61189  29.366  44.768  14.504
89464W        W61190   4.492  21.768  11.643
89465W        W61191  30.268  33.136  11.543
89466W        W61192  14.866  44.886  14.453
89467W        W61193   3.727  44.253  10.893
89468W        W61194   1.956  39.591  14.759
89469W        W61195  10.681   6.975   0.398
89470W        W61196  17.568  26.786  14.495
89471W        W61197  44.027  14.912  13.987
89472W        W61198   5.507   5.429  13.511
89473W        W61199   1.362  40.993  10.467
89474W        W61200  43.935   8.585   2.778
89475W        W61201  42.901  16.180   1.291
89476W        W61202  21.154  32.384   1.763
89477W        W61203   2.408  30.249  14.291
89478W        W61204  16.469  42.546  12.930
89479W        W61205  33.341  37.535  12.252
89480W        W61206  33.801  13.954  10.527
89481W        W61207  26.884   8.980  14.504
89482W        W61208  31.335  44.477  12.945
89483W        W61209  19.634  23.632  14.737
89484W        W61210  14.683  37.408  13.590
89485W        W61211  14.055  34.148   0.415
89486W        W61212  23.807  14.391  14.887
89487W        W61213  29.013  16.554   1.426
89488W        W61214  43.773  15.097  13.411
89489W        W61215  10.868  40.390   2.471
89490W        W61216  44.421   3.424  10.702
89491W        W61217  26.551  21.957   4.098
89492W        W61218  26.717  23.159  10.662
89493W        W61219   2.624   2.371  14.076
89494W        W61220  44.189  14.738   2.231
89495W        W61221  17.351  25.646   4.624
89496W        W61222  37.066  22.733   4.656
89497W        W61223  40.009  18.707  11.533
89498W        W61224   7.148   0.868   2.671
89499W        W61225  13.038  42.845  12.163
89500W        W61226  36.838  24.635  13.820
89501W        W61227  14.364  24.935   4.020
89502W        W61228  26.661  23.550   4.585
89503W        W61229  41.544   9.377  13.423
89504W        W61230  37.299  11.264  14.337
89505W        W61231   3.820  22.639   3.748
89506W        W61232  12.330  28.491  14.364
89507W        W61233   8.096  26.331  11.129
89508W        W61234  11.624  20.635  11.401
89509W        W61235  13.645   2.509  13.259
89510W        W61236  22.986  26.039  12.156
89511W        W61237  26.145  13.370  12.042
89512W        W61238  39.858  30.603   2.368
89513W        W61239  21.875  14.060  10.684
89514W        W61240  14.735  23.544   2.287
89515W        W61241  43.133   0.761   4.950
89516W        W61242  33.054  38.313   4.627
89517W        W61243   0.736  10.857   3.210
89518W        W61244  32.103  36.337  13.551
89519W        W61245  33.873  19.205  14.705
89520W        W61246  35.679   1.427  10.864
89521W        W61247  34.908   6.669  12.864
89522W        W61248  44.358  16.960  13.475
89523W        W61249   3.000  28.781   0.092
89524W        W61250  10.922  28.127   1.271
89525W        W61251  25.077  17.837   1.349
89526W        W61252  40.164  44.938   1.859
89527W        W61253  20.782   4.550   2.474
89528W        W61254  24.804  31.147  13.867
89529W        W61255  41.406  16.304   1.337
89530W        W61256  13.671  16.957   0.150
89531W        W61257  12.481  11.336   0.864
89532W        W61258  18.312  18.119   4.206
89533W        W61259  40.901  29.155  14.479
89534W        W61260  39.809   4.765   3.267
89535W        W61261  18.683  26.594   1.280
89536W        W61262   2.991  44.098   1.411
89537W        W61263  36.845  34.589  10.641
89538W        W61264   8.899  19.662   3.282
89539W        W61265  27.798  21.209  12.949
89540W        W61266  19.928   2.563   1.685
89541W        W61267  42.980   1.246  14.293
89542W        W61268  19.126  31.849  10.668
89543W        W61269  12.314  20.015   0.960
89544W        W61270  19.331  37.157   4.111
89545W        W61271  10.220   3.220   2.184
89546W        W61272   4.935  21.783  11.366
89547W        W61273  11.591   1.962  11.148
89548W        W61274  20.094  16.254   2.267
89549W        W61275  24.152   6.959   1.461
89550W        W61276  24.198  24.604  11.200
89551W        W61277  26.893  31.617  14.239
89552W        W61278   4.508  24.657  12.984
89553W        W61279  22.042   8.117  13.980
89554W        W61280   6.233  15.062  11.844
89555W        W61281  14.716   8.212   4.932
89556W        W61282  19.234   8.220  12.897
89557W        W61283  18.803   1.470  14.729
89558W        W61284  16.668   8.323  10.980
89559W        W61285  30.528  26.515  10.152
89560W        W61286   6.343  14.052   4.660
89561W        W61287  43.432  22.146  10.637
89562W        W61288   0.413   4.991  12.466
89563W        W61289  32.965  39.126  12.086
89564W        W61290  16.591  19.603   1.503
89565W        W61291  21.590  25.015  13.718
89566W        W61292  36.342  25.992  14.781
89567W        W61293  26.759  15.650   0.347
89568W        W61294  43.785  12.519  14.299
89569W        W61295  15.760  35.186  12.946
89570W        W61296  38.389  26.475   0.893
89571W        W61297  30.216  32.078  12.048
89572W        W61298   5.768  43.771  11.537
89573W        W61299   2.940  34.869   2.207
89574W        W61300  34.138  20.168   0.812
89575W        W61301  24.163  24.600   3.662
89576W        W61302  22.063   3.356  14.936
89577W        W61303  22.339  19.639   1.362
89578W        W61304  43.242  32.728  13.973
89579W        W61305  40.391  20.093  11.368
89580W        W61306  22.107  29.857  14.421
89581W        W61307   3.564   9.412   3.551
89582W        W61308   8.227   7.717  10.649
89583W        W61309   6.167  33.139  13.590
89584W        W61310  20.181  20.126  14.472
89585W        W61311  42.528  43.791   3.893
89586W        W61312  29.173  11.588  13.025
89587W        W61313  39.621  15.807  10.698
89588W        W61314  37.162  14.363   4.505
89589W        W61315   7.688  25.734   4.974
89590W        W61316   5.218  37.007   0.014
89591W        W61317  42.422   4.621  14.364
89592W        W61318  31.483  22.855  12.409
89593W        W61319  33.141   0.942  12.953
89594W        W61320  11.720  41.329   4.840
89595W        W61321  39.915  18.041  13.064
89596W        W61322  37.754  12.939   1.338
89597W        W61323  13.833   5.420   3.719
89598W        W61324  39.963  18.788  10.681
89599W        W61325  16.823   0.678   0.902
89600W        W61326  17.738  10.136  14.987
89601W        W61327  10.636  20.587  13.110
89602W        W61328  37.317  19.687   4.279
89603W        W61329  35.875  39.330  14.528
89604W        W61330  39.950  32.915   0.868
89605W        W61331  35.272  14.664   0.211
89606W        W61332   0.202  21.229   3.184
89607W        W61333   1.449  19.586   2.928
89608W        W61334  11.909  31.153  11.997
89609W        W61335  26.460  40.005  14.756
89610W        W61336  21.674  38.457   0.428
89611W        W61337  43.409  35.878  11.096
89612W        W61338  18.159   4.801  14.887
89613W        W61339  43.913  38.571  12.443
89614W        W61340  32.104  29.469   5.114
89615W        W61341  29.026  24.454  14.084
89616W        W61342   7.206  33.046  14.806
89617W        W61343  43.186   4.328  13.203
89618W        W61344  37.978  36.800   1.708
89619W        W61345  11.702  18.925   2.685
89620W        W61346  30.013  25.633  14.307
89621W        W61347  27.223  32.002  14.103
89622W        W61348  36.001  22.129  13.216
89623W        W61349  27.860  27.973   4.474
89624W        W61350  31.170   2.580  12.551
89625W        W61351  30.337  27.623  13.023
89626W        W61352  18.163  15.647   2.262
89627W        W61353  14.289   8.513   4.921
89628W        W61354  13.632  21.323  12.403
89629W        W61355  42.969   7.882   2.314
89630W        W61356   4.766  12.292  13.522
89631W        W61357  24.223  34.998  10.751
89632W        W61358  12.032  13.124  10.744
89633W        W61359  35.215  17.823   4.648
89634W        W61360  10.076  16.444  12.533
89635W        W61361  25.698  12.851  11.206
89636W        W61362  16.133  37.826   1.330
89637W        W61363  30.435  18.956  13.132
89638W        W61364   3.944  35.385  11.352
89639W        W61365  11.725  30.914   3.926
89640W        W61366  44.100  30.611  11.485
89641W        W61367  40.138  11.911   3.610
89642W        W61368  27.999   4.740  14.015
89643W        W61369  22.806  39.151   3.526
89644W        W61370  17.056  10.680  11.118
89645W        W61371   1.664  39.368   0.168
89646W        W61372  31.655   6.327   0.611
89647W        W61373   1.352  29.227   2.158
89648W        W61374  18.250  42.829   2.215
89649W        W61375  22.147  10.200  10.747
89650W        W61376  14.429  10.712  11.858
89651W        W61377   9.587  44.403  13.238
89652W        W61378  39.606  38.332   1.979
89653W        W61379  31.444   8.264  14.485
89654W        W61380  33.771  12.348  13.266
89655W        W61381   4.897  37.688  12.106
89656W        W61382  39.285  29.640  11.246
89657W        W61383  35.380  10.717   3.623
89658W        W61384  20.971  34.397   4.071
89659W        W61385   2.494  25.689  12.501
89660W        W61386  43.396  32.417   3.702
89661W        W61387  13.550  28.975   2.174
89662W        W61388   0.696  14.272  13.783
89663W        W61389   8.853  27.947   1.865
89664W        W61390  12.646  22.637   5.162
89665W        W61391  40.290  11.373  13.383
89666W        W61392  22.171  19.123  14.130
89667W        W61393   2.388  26.644  12.535
89668W        W61394  41.396   6.023   2.693
89669W        W61395  15.165  19.847   3.404
89670W        W61396   2.779  40.734  12.130
89671W        W61397   0.426  40.510  10.987
89672W        W61398  35.063  22.083   3.252
89673W        W61399  12.722  13.658   4.907
89674W        W61400  29.010   6.686   1.851
89675W        W61401  37.512  15.184  11.859
89676W        W61402  31.427   7.880  14.124
89677W        W61403  37.362  29.646  14.703
89678W        W61404  12.612  13.732   2.313
89679W        W61405  32.422  37.478  13.059
89680W        W61406   2.809  27.365   3.695
89681W        W61407  31.089  38.030   2.431
89682W        W61408  40.108   2.737  13.873
89683W        W61409  33.973  41.837  14.604
89684W        W61410  42.894  26.212   2.486
89685W        W61411  16.849  14.753   0.434
89686W        W61412  13.332  29.647  13.121
89687W        W61413   5.570  10.230   0.703
89688W        W61414  17.727  43.277  11.960
89689W        W61415  15.031  31.693   1.336
89690W        W61416  19.200   7.685  12.184
89691W        W61417  19.144  32.565  11.502
89692W        W61418  10.845  23.761   4.664
89693W        W61419  38.142  39.624   4.190
89694W        W61420  21.649  15.658  14.862
89695W        W61421  16.219  40.744  12.420
89696W        W61422  10.924   4.311  11.114
89697W        W61423  41.138  22.616  12.049
89698W        W61424   5.810  10.123   0.240
89699W        W61425   1.324  39.301  11.148
89700W        W61426  33.616  29.617  13.984
89701W        W61427  26.730  25.204  11.173
89702W        W61428  31.009  12.746  12.937
89703W        W61429  10.373  22.498  12.530
89704W        W61430  14.630  36.551   4.942
89705W        W61431  21.237  31.166  12.030
89706W        W61432  11.791  26.384  11.211
89707W        W61433  20.660  26.167  10.216
89708W        W61434   6.671   0.365  11.062
89709W        W61435   3.874  22.179   4.115
89710W        W61436  22.954  23.259  11.618
89711W        W61437  39.404   4.533  12.962
89712W        W61438  44.250  13.810  13.648
89713W        W61439   9.219  28.225   4.673
89714W        W61440  30.705  37.764  12.583
89715W        W61441  21.948  10.328   2.182
89716W        W61442  32.063   0.741   4.843
89717W        W61443  22.915  33.549  12.483
89718W        W61444   2.681   1.961  12.633
89719W        W61445  28.702  42.934   3.175
89720W        W61446  11.378  34.462   2.757
89721W        W61447  12.799  43.299  12.082
89722W        W61448  36.095  13.586   0.247
89723W        W61449  11.877  43.975  12.405
89724W        W61450   6.924   9.289  14.926
89725W        W61451  29.218   7.207   0.882
89726W        W61452  17.525  19.488   1.545
89727W        W61453  14.387  23.290   1.727
89728W        W61454  18.143  22.230   1.920
89729W        W61455  24.790  12.639   0.423
89730W        W61456  11.675   6.857   4.536
89731W        W61457  14.356   9.047   1.459
89732W        W61458  43.678  35.610  13.291
89733W        W61459  39.326  14.790  10.595
89734W        W61460  30.451   8.112   4.795
89735W        W61461  30.000  30.738   4.201
89736W        W61462  26.258  18.207   2.222
89737W        W61463  21.645  24.633  13.345
89738W        W61464  30.068  16.435  13.348
89739W        W61465  36.316  13.290   0.711
89740W        W61466  31.410  31.821  11.144
89741W        W61467  26.577  33.653   4.273
89742W        W61468  43.507   2.738   4.117
89743W        W61469  25.248   7.010   0.690
89744W        W61470   7.895  33.014   4.640
89745W        W61471  12.892  26.676   0.637
89746W        W61472  33.367   8.914   1.357
89747W        W61473  29.722  32.536  12.358
89748W        W61474  13.334  34.003  10.622
89749W        W61475  38.832  33.100  11.568
89750W        W61476  29.411  35.454   4.273
89751W        W61477  35.617  26.980  12.447
89752W        W61478  38.758  41.503  13.811
89753W        W61479  13.481   6.683   3.747
89754W        W61480   0.775  36.100   3.813
89755W        W61481   3.818   3.824   4.951
89756W        W61482  22.048  26.808   2.928
89757W        W61483  39.134   8.859  13.671
89758W        W61484   7.272  42.038   2.694
89759W        W61485  41.205  20.126  14.287
89760W        W61486   5.281  42.301  11.210
89761W        W61487  39.963  13.699  11.056
89762W        W61488  26.533  14.095  11.002
89763W        W61489  28.051  23.735   4.548
89764W        W61490  25.996  16.327   4.666
89765W        W61491  37.489  13.861   4.709
89766W        W61492  42.387  15.065  14.629
89767W        W61493  37.893  29.399  14.015
89768W        W61494  18.283  32.671  13.434
89769W        W61495  23.699  32.923   4.156
89770W        W61496  19.600   7.210  13.516
89771W        W61497   2.214  16.002  13.327
89772W        W61498  33.287  13.284   0.943
89773W        W61499  38.353  31.614   4.085
89774W        W61500  30.512   2.168  14.660
89775W        W61501   6.254  36.832  11.961
89776W        W61502  12.590  32.914   2.318
89777W        W61503  33.917  20.614  11.082
89778W        W61504  24.059  15.204   4.799
89779W        W61505  43.061  40.671   5.021
89780W        W61506  23.705  16.252  12.538
89781W        W61507  33.039   4.483   1.711
89782W        W61508  18.135  26.955  13.380
89783W        W61509  17.490  13.809   2.239
89784W        W61510  21.043  30.502   3.316
89785W        W61511  29.427  35.023  13.470
89786W        W61512  35.005   9.162  11.296
89787W        W61513   6.075  24.048   4.129
89788W        W61514  30.217  14.380  11.130
89789W        W61515  24.088  33.474  13.696
89790W        W61516  39.847  36.388  13.021
89791W        W61517  27.931   5.794   1.733
89792W        W61518   3.000  41.245   4.844
89793W        W61519  21.660  16.089   4.169
89794W        W61520   5.307  13.289   4.087
89795W        W61521   8.341  24.490   2.035
89796W        W61522  19.217  11.053  13.310
89797W        W61523  33.066   9.746   0.292
89798W        W61524  25.002  33.971  11.075
89799W        W61525   7.641  30.158  11.194
89800W        W61526  12.109  19.147   0.995
89801W        W61527  11.213  25.043  10.125
89802W        W61528  11.313   0.427   2.093
89803W        W61529  33.123  17.523  13.908
89804W        W61530   2.172  39.929  14.399
89805W        W61531  28.701  11.328  13.794
89806W        W61532  38.384  29.888  12.583
89807W        W61533  31.914  35.992  13.991
89808W        W61534  33.949  38.961  10.483
89809W        W61535  42.703  25.183   3.552
89810W        W61536   9.780  24.129   1.926
89811W        W61537  25.396  17.973  12.917
89812W        W61538   1.326  20.826  10.448
89813W        W61539  40.283  35.092   0.451
89814W        W61540   0.160  21.182  14.396
89815W        W61541   4.227   5.831  12.572
89816W        W61542  41.907  37.636  12.085
89817W        W61543  28.961   5.437   1.188
89818W        W61544  37.872  17.046   2.139
89819W        W61545  35.779   0.176   0.391
89820W        W61546  33.413  37.062   4.383
89821W        W61547   0.706  15.034  11.103
89822W        W61548  14.608  34.394  11.058
89823W        W61549  16.293  41.846  14.813
89824W        W61550  19.584  34.856  13.828
89825W        W61551  13.030  33.678  13.008
89826W        W61552  17.534  17.199  14.585
89827W        W61553  43.434  39.027  12.119
89828W        W61554   1.392  25.800  10.739
89829W        W61555  15.435  30.508  14.457
89830W        W61556  11.783   5.359   3.384
89831W        W61557  18.855   3.739  11.643
89832W        W61558  33.349  38.571   4.071
89833W        W61559  18.237  16.162  12.001
89834W        W61560   5.310  14.764   3.863
89835W        W61561  39.518  33.014   1.717
89836W        W61562  28.455   0.496  12.518
89837W        W61563  43.305  42.519  13.268
89838W        W61564  12.636  36.366  10.721
89839W        W61565   5.925  10.157  10.466
89840W        W61566  37.631   3.283  11.546
89841W        W61567  36.461   5.276  13.134
89842W        W61568   5.212  37.955   4.677
89843W        W61569   5.889  32.351   3.323
89844W        W61570  32.468  23.262   3.666
89845W        W61571  44.611  36.240   3.260
89846W        W61572  28.068  21.885   4.717
89847W        W61573  20.470   9.817   0.311
89848W        W61574  25.056  20.060   2.822
89849W        W61575  25.658   9.092  13.874
89850W        W61576   0.828  34.325  13.608
89851W        W61577  21.772  29.518  14.971
89852W        W61578  30.082   9.436  10.863
89853W        W61579  36.682  37.546   4.999
89854W        W61580  27.084  27.236   1.802
89855W        W61581  23.051   2.961   3.647
89856W        W61582  10.668  33.877  10.155
89857W        W61583  13.767  37.377   4.450
89858W        W61584  14.313  42.377  12.176
89859W        W61585  31.808  13.182  13.940
89860W        W61586   3.208  19.033   0.064
89861W        W61587  35.338   2.134  11.583
89862W        W61588  17.231  24.654   1.359
89863W        W61589  14.130  38.268   0.552
89864W        W61590  24.580  43.356   3.648
89865W        W61591  21.689   3.692   3.162
89866W        W61592  19.021  31.237  12.216
89867W        W61593  34.003  29.930   0.460
89868W        W61594  17.999   6.686   0.892
89869W        W61595  34.670   3.618   3.246
89870W        W61596  21.144   8.439   4.194
89871W        W61597  40.917  38.555  13.636
89872W        W61598   4.501  16.777   3.897
89873W        W61599  15.113  22.245   3.338
89874W        W61600  11.476  13.613   4.849
89875W        W61601  20.096  31.438  14.942
89876W        W61602  38.029  38.109   3.789
89877W        W61603  36.137   7.778  10.728
89878W        W61604  24.777  29.644  11.140
89879W        W61605  12.301  34.912   2.826
89880W        W61606   8.694  12.097  12.947
89881W        W61607  24.436  16.503  14.412
89882W        W61608  31.335  26.735  14.518
89883W        W61609   8.356  13.030   2.744
89884W        W61610  21.341  20.773   4.890
89885W        W61611   7.170  16.260  14.460
89886W        W61612  32.950  26.496  13.398
89887W        W61613   9.269  10.961  14.418
89888W        W61614   6.290  25.120  14.076
89889W        W61615  22.040  13.824   0.937
89890W        W61616  12.585  19.190   2.785
89891W        W61617  15.149  15.716   1.832
89892W        W61618  25.077  27.925  13.313
89893W        W61619   4.310  40.916  13.416
89894W        W61620   9.959  10.474   0.218
89895W        W61621  10.176   4.002  13.378
89896W        W61622   2.345  22.587  10.683
89897W        W61623  44.689  41.499   0.723
89898W        W61624  29.471  43.527   3.172
89899W        W61625  42.490  14.118  14.004
89900W        W61626  26.137  44.337  13.570
89901W        W61627   5.807  35.493  14.966
89902W        W61628  16.206   0.186  13.270
89903W        W61629  44.105  15.616   4.990
89904W        W61630  16.612  18.111  11.141
89905W        W61631  43.946  19.157  12.379
89906W        W61632  33.371  33.002   3.145
89907W        W61633  13.718  17.161  12.811
89908W        W61634  18.826  19.068   3.945
89909W        W61635  12.329  16.076  11.613
89910W        W61636  29.698  40.568   3.493
89911W        W61637  19.191  31.614  13.783
89912W        W61638  20.242  14.298  13.463
89913W        W61639  37.878   5.742  12.222
89914W        W61640  42.815  37.028   1.192
89915W        W61641  17.329  14.859  13.594
89916W        W61642  18.804  42.957   3.145
89917W        W61643  26.649  19.490  11.064
89918W        W61644   3.866  18.186  13.024
89919W        W61645  20.945  13.074  10.567
89920W        W61646  41.095   9.298  11.650
89921W        W61647  18.554  32.114   0.500
89922W        W61648  26.474   6.851  13.421
89923W        W61649   3.282  21.944   2.169
89924W        W61650  18.651   0.021   0.829
89925W        W61651  44.225  10.623  13.130
89926W        W61652  39.394  38.292  10.875
89927W        W61653   0.229  40.482  14.249
89928W        W61654  12.283  24.153  13.052
89929W        W61655  11.965  15.173  12.245
89930W        W61656   9.365  34.520   2.858
89931W        W61657  28.600  37.547   2.081
89932W        W61658  34.435  31.152  12.418
89933W        W61659  29.861  43.920  10.079
89934W        W61660  27.130  19.296   3.192
89935W        W61661  35.590  28.175   0.313
89936W        W61662  14.319  15.768  13.324
89937W        W61663  43.300  36.121   1.479
89938W        W61664  35.828   7.623   4.152
89939W        W61665  40.801  38.481  10.763
89940W        W61666  27.245   3.182  13.790
89941W        W61667  43.357  34.689   2.127
89942W        W61668  30.046  35.358  12.340
89943W        W61669  12.683  17.597  14.274
89944W        W61670  43.812  34.922   2.794
89945W        W61671  19.093   3.790  12.464
89946W        W61672  16.690  20.242  13.282
89947W        W61673  23.414  33.828   4.334
89948W        W61674  30.197  16.235   4.465
89949W        W61675  16.570  29.932  14.755
89950W        W61676   3.456   9.320   2.154
89951W        W61677  22.002   4.328  13.591
89952W        W61678   4.992   0.882  11.901
89953W        W61679  13.389  39.853   1.723
89954W        W61680  42.518  36.557   1.124
89955W        W61681   1.861  32.619   1.815
89956W        W61682  33.794  12.315   3.650
89957W        W61683  25.542  37.353  13.962
89958W        W61684  13.684   6.851   3.318
89959W        W61685  31.451  21.567  11.799
89960W        W61686  38.580  23.128   3.314
89961W        W61687  23.515  13.239   4.490
89962W        W61688  15.579  40.875  13.024
89963W        W61689  39.252  36.459  12.799
89964W        W61690   8.613  44.175  11.164
89965W        W61691  41.906  24.755  12.491
89966W        W61692   3.351  12.456  12.191
89967W        W61693  15.786   9.719  11.614
89968W        W61694  41.107  43.069  12.489
89969W        W61695  40.970  22.552   4.556
89970W        W61696  36.560  38.862   3.682
89971W        W61697   4.698  34.007  14.282
89972W        W61698  10.827   2.663  13.813
89973W        W61699  29.556  11.633   2.351
89974W        W61700  12.806  30.149  13.510
89975W        W61701  16.397  37.103   0.324
89976W        W61702  41.745  14.342  13.259
89977W        W61703  34.058  43.855   5.066
89978W        W61704  23.444  32.479   4.299
89979W        W61705  16.201   4.270   2.139
89980W        W61706  16.156  25.947   3.729
89981W        W61707  44.998  32.913  13.873
89982W        W61708   2.882  16.983   3.117
89983W        W61709  36.475  15.205  11.893
89984W        W61710  14.428  15.793   3.226
89985W        W61711  37.805  43.006   4.874
89986W        W61712  13.169  32.393  11.509
89987W        W61713   4.463  24.674  11.137
89988W        W61714  35.457   7.834  13.968
89989W        W61715  33.620   6.206  11.891
89990W        W61716  25.049   3.431  13.902
89991W        W61717  44.875   7.691   3.901
89992W        W61718  35.221  20.559  10.738
89993W        W61719  44.781   3.909  11.950
89994W        W61720   2.841  35.955   0.717
89995W        W61721   5.848  11.147   0.375
89996W        W61722  21.181  26.911  14.978
89997W        W61723  39.445  16.188  11.968
89998W        W61724  21.557   6.449  10.199
89999W        W61725  34.329  25.683  11.258
90000W        W61726  21.514  21.211  11.715
90001W        W61727  40.908  29.488  12.047
90002W        W61728  22.526   2.022   2.349
90003W        W61729  30.508  37.149   0.504
90004W        W61730  35.085  22.566   0.171
90005W        W61731  18.494  18.322   5.112
90006W        W61732  36.603  18.136   2.056
90007W        W61733  25.621  36.249   5.064
90008W        W61734  41.989  19.740  14.441
90009W        W61735   8.105  17.834  13.946
90010W        W61736  34.640   6.085  14.100
90011W        W61737   6.010  25.714   1.815
90012W        W61738  38.848  29.820   1.923
90013W        W61739   0.523  34.845  12.398
90014W        W61740  10.130   6.618  11.065
90015W        W61741  21.503  14.745   1.648
90016W        W61742  34.829  29.946  11.470
90017W        W61743  26.891  44.088  13.452
90018W        W61744  13.289  16.944  14.080
90019W        W61745  28.593  18.313   3.540
90020W        W61746  27.087  22.327   2.679
90021W        W61747  22.492   5.384   2.069
90022W        W61748  34.840  34.575   2.608
90023W        W61749  44.590   6.942   4.180
90024W        W61750  34.302  29.560   4.890
90025W        W61751   7.274  29.902   2.578
90026W        W61752  22.506   5.838   4.799
90027W        W61753   9.372   7.346   1.972
90028W        W61754  22.016  20.667   1.204
90029W        W61755  42.241  33.298   2.279
90030W        W61756   2.314  27.287   0.743
90031W        W61757  31.065  29.970  13.460
90032W        W61758  40.834   4.713   0.730
90033W        W61759  22.122  27.727   9.685
90034W        W61760   7.897   6.687   5.466
90035W        W61761   0.884  41.812   1.827
90036W        W61762  30.397  25.186   0.993
90037W        W61763  23.167  29.891  11.118
90038W        W61764  28.949   0.805  13.343
90039W        W61765  19.059  16.743   0.818
90040W        W61766  16.566  23.154   4.098
90041W        W61767  16.785  24.807   0.478
90042W        W61768   2.817  40.580   3.609
90043W        W61769  44.461   6.874  12.577
90044W        W61770  30.155  18.723   0.293
90045W        W61771  33.387  35.279  11.629
90046W        W61772  17.743  37.795  11.500
90047W        W61773  22.237   5.652   1.192
90048W        W61774  21.156  13.015   2.885
90049W        W61775  17.469  11.214  13.934
90050W        W61776  13.659   0.514   3.333
90051W        W61777  19.330  41.469   0.695
90052W        W61778  15.883  17.691  11.479
90053W        W61779  41.531  27.442   3.214
90054W        W61780  38.991  43.045   2.812
90055W        W61781  26.210  33.904  10.614
90056W        W61782   2.422  34.088   2.926
90057W        W61783   1.278  12.577   3.571
90058W        W61784   9.075  18.982   4.189
90059W        W61785  11.792   6.189  12.355
90060W        W61786  43.581  18.028   0.493
90061W        W61787   4.720  38.887  14.767
90062W        W61788  38.512   9.813  12.417
90063W        W61789  12.233  20.783   3.686
90064W        W61790  42.029  40.078  13.888
90065W        W61791  25.429  35.552   4.779
90066W        W61792   5.282  37.876  14.858
90067W        W61793  44.386   0.867   2.724
90068W        W61794  24.314  22.366  13.455
90069W        W61795  14.665  29.208   4.371
90070W        W61796  10.086   3.382  12.206
90071W        W61797  30.537  35.828  14.836
90072W        W61798  17.558  42.476  14.814
90073W        W61799   1.359  33.394   4.054
90074W        W61800  28.071  15.315   4.429
90075W        W61801   9.836  38.557   2.281
90076W        W61802   6.198  17.103  12.854
90077W        W61803   0.530  12.245   3.292
90078W        W61804  39.443  34.140   1.879
90079W        W61805  18.946  16.999   0.351
90080W        W61806  32.382  42.384  12.374
90081W        W61807  10.783  11.861  11.041
90082W        W61808  12.973  39.066  12.007
90083W        W61809  39.940  10.491   2.217
90084W        W61810  44.450  28.856  13.443
90085W        W61811  24.485  27.645   2.354
90086W        W61812  24.570  17.213  12.459
90087W        W61813   4.667  30.997   3.215
90088W        W61814   6.212  23.219   3.946
90089W        W61815   9.196  38.930  12.888
90090W        W61816  38.116  40.715  11.041
90091W        W61817  39.956  29.599  14.555
90092W        W61818   7.818  40.790  12.441
90093W        W61819  18.983  14.331  12.242
90094W        W61820  36.977  32.770   3.168
90095W        W61821  41.511  13.765  13.130
90096W        W61822  32.822  12.640  10.865
90097W        W61823  43.947   1.129  12.346
90098W        W61824  34.383   7.660  10.772
90099W        W61825  25.955  39.381   3.878
90100W        W61826   7.880  15.618  11.197
90101W        W61827  15.489  39.034   4.134
90102W        W61828  17.245   6.060   4.075
90103W        W61829  36.901  11.167  10.774
90104W        W61830   4.891  17.684   3.993
90105W        W61831  30.122  43.282  13.201
90106W        W61832  39.563   9.292   3.284
90107W        W61833  21.933  23.449  13.856
90108W        W61834  13.318  31.129   0.900
90109W        W61835  32.241  11.569  11.497
90110W        W61836  34.727  17.499  11.627
90111W        W61837  21.870   0.333   4.915
90112W        W61838  21.818  35.920  14.331
90113W        W61839   3.118  10.095  14.408
90114W        W61840  34.647   1.872   3.815
90115W        W61841  32.054  20.243   4.612
90116W        W61842  43.914  28.570  11.127
90117W        W61843   4.447   5.426   4.317
90118W        W61844   3.500  38.005   2.473
90119W        W61845  34.426  28.711   0.911
90120W        W61846  16.604  17.056  14.261
90121W        W61847  41.891  26.927   0.793
90122W        W61848   6.804  29.587  13.617
90123W        W61849   2.354  41.153   1.895
90124W        W61850   9.928  28.720   4.208
90125W        W61851  41.979  25.371   5.056
90126W        W61852  37.346  14.642  13.053
90127W        W61853  24.124  25.747  12.524
90128W        W61854  36.198  38.977  11.092
90129W        W61855  26.918  25.965   0.960
90130W        W61856  13.020  44.925   4.226
90131W        W61857  35.488  25.264   3.801
90132W        W61858  10.608  41.436   0.272
90133W        W61859  27.661  36.481  12.371
90134W        W61860  38.038  34.327   2.289
90135W        W61861   9.564  22.925   0.252
90136W        W61862  11.758  26.797   2.704
90137W        W61863  35.933  19.247  14.937
90138W        W61864  28.501  14.388  14.840
90139W        W61865   4.137   7.311  14.010
90140W        W61866  29.962  14.925   0.581
90141W        W61867  21.418  40.517  12.664
90142W        W61868  17.648   9.633  14.939
90143W        W61869  18.098   8.705  11.145
90144W        W61870  19.505  33.438   4.652
90145W        W61871  14.572  26.218  11.207
90146W        W61872   1.831  16.564  12.842
90147W        W61873  35.618  35.038   2.968
90148W        W61874  34.406  24.079   0.855
90149W        W61875  35.955  24.945  12.781
90150W        W61876  12.592   7.760  11.267
90151W        W61877  23.255   4.041  13.122
90152W        W61878  20.615  40.312  11.988
90153W        W61879   6.438  20.240   3.766
90154W        W61880  30.589  42.913  11.023
90155W        W61881  20.248  41.084  10.528
90156W        W61882  19.396  35.059   3.291
90157W        W61883  37.646   3.108  10.272
90158W        W61884  41.890  14.734  12.289
90159W        W61885  37.424   7.774   4.057
90160W        W61886   3.236  42.361  13.915
90161W        W61887  17.324  28.192   1.897
90162W        W61888  27.242  24.982   2.016
90163W        W61889  32.253   5.261  14.217
90164W        W61890  42.598  35.970   4.527
90165W        W61891   3.031   8.687   1.640
90166W        W61892  23.180  15.118   1.265
90167W        W61893  21.108  40.850  14.404
90168W        W61894  37.623  18.206  12.590
90169W        W61895  38.831  27.918   4.370
90170W        W61896  41.496  14.896   0.701
90171W        W61897  42.415  36.892   2.489
90172W        W61898   3.285  23.778  10.918
90173W        W61899   5.427  22.403  12.924
90174W        W61900  28.632  32.003   3.301
90175W        W61901  29.048   6.254  13.389
90176W        W61902   7.705  27.911   3.998
90177W        W61903   0.994  23.200   3.652
90178W        W61904  34.979  26.243  11.470
90179W        W61905  13.186  16.911   5.013
90180W        W61906  24.618   6.695  13.371
90181W        W61907  35.638  12.839   1.728
90182W        W61908   3.494   8.912   3.707
90183W        W61909  24.949  26.994   0.690
90184W        W61910   7.395  41.005   2.435
90185W        W61911  20.560  25.839   4.462
90186W        W61912  28.514  10.389   5.142
90187W        W61913   6.206   2.066   0.284
90188W        W61914  43.133  26.042   1.663
90189W        W61915   9.157  36.414   9.896
90190W        W61916   1.471  32.581   1.215
90191W        W61917  38.379  44.679   3.437
90192W        W61918   7.622   5.418   0.965
90193W        W61919  15.630  14.327   2.694
90194W        W61920  35.074  20.624   3.475
90195W        W61921  43.538  34.240   4.560
90196W        W61922  28.635  26.699   3.640
90197W        W61923  29.207  15.209   3.454
90198W        W61924   5.977  25.185   4.128
90199W        W61925  33.936  44.472  14.942
90200W        W61926  15.800  36.364   3.675
90201W        W61927  18.726  40.596   3.717
90202W        W61928  39.897  29.396   2.223
90203W        W61929  44.361  40.371  14.142
90204W        W61930   7.138  24.209   2.000
90205W        W61931  42.163  35.878  10.731
90206W        W61932  30.533  11.684  11.100
90207W        W61933  43.764  19.854  14.603
90208W        W61934  39.048  40.162  13.800
90209W        W61935   6.409  40.792   9.967
90210W        W61936  41.405  32.195   2.138
90211W        W61937  23.243  10.242  13.461
90212W        W61938  37.706  34.294  13.616
90213W        W61939  44.952  38.973  11.694
90214W        W61940   7.166  34.113   1.029
90215W        W61941   3.176  18.016  10.182
90216W        W61942  23.252  11.607   3.592
90217W        W61943   0.853  40.776  11.248
90218W        W61944  12.892   4.915   2.741
90219W        W61945  36.579  37.242  13.390
90220W        W61946   9.827  28.024   1.968
90221W        W61947  33.167  20.808   1.317
90222W        W61948  44.913  22.253   0.560
90223W        W61949  21.155  20.166  10.725
90224W        W61950   7.861  32.600   3.251
90225W        W61951  17.630   0.981  13.572
90226W        W61952  25.701   5.342  11.990
90227W        W61953   6.178  11.574  13.521
90228W        W61954  29.432   2.263  11.649
90229W        W61955  38.301  30.191   1.124
90230W        W61956  11.396  14.608  11.084
90231W        W61957  33.039  29.641   3.703
90232W        W61958  24.244  13.468   2.138
90233W        W61959  20.658  29.578  10.745
90234W        W61960   8.015  37.544   4.819
90235W        W61961  22.691   0.849   0.200
90236W        W61962   6.613   9.389  12.519
90237W        W61963  30.149   8.215  10.716
90238W        W61964  44.334  24.245  11.240
90239W        W61965  10.294  22.662  11.643
90240W        W61966  31.632  33.796   0.885
90241W        W61967   5.927   2.974  12.941
90242W        W61968  13.061   7.898   0.966
90243W        W61969  17.292   0.231  12.772
90244W        W61970  32.556  41.046  12.160
90245W        W61971   8.318  44.477  11.890
90246W        W61972  23.161  19.504   3.704
90247W        W61973  17.307  39.527  10.250
90248W        W61974  19.751  34.862  11.527
90249W        W61975   6.663  32.866   4.071
90250W        W61976  42.964   2.557  13.046
90251W        W61977  23.234  30.460  13.316
90252W        W61978  12.830   3.395  13.234
90253W        W61979  40.312  30.838   2.243
90254W        W61980  30.621  23.470   9.866
90255W        W61981  29.435  27.043  10.414
90256W        W61982   4.307  23.701   4.033
90257W        W61983  14.392  44.544   0.249
90258W        W61984  21.345  25.246   2.210
90259W        W61985  15.864  10.028   4.250
90260W        W61986  16.746  15.227   3.226
90261W        W61987  33.026   6.843  12.152
90262W        W61988  14.295  40.379  10.497
90263W        W61989   1.144  35.271   2.615
90264W        W61990   2.788  34.594  14.384
90265W        W61991  29.327   8.701   2.302
90266W        W61992  31.671  33.603   4.732
90267W        W61993  24.242  34.895  12.563
90268W        W61994   6.765   8.747   3.389
90269W        W61995  40.521  37.793  13.278
90270W        W61996   6.263  31.640  14.367
90271W        W61997  28.215  16.113  11.137
90272W        W61998  29.488  42.010  13.710
90273W        W61999  30.278  23.102   3.259
90274W        W62000  22.913  38.048   4.921
90275W        W62001   3.011   8.340  12.451
90276W        W62002  15.631  18.054   2.813
90277W        W62003  39.313  28.446  13.369
90278W        W62004   7.918  30.578   0.472
90279W        W62005  24.488  30.147  11.760
90280W        W62006  18.911   8.975  14.458
90281W        W62007  35.934  24.778   1.389
90282W        W62008  44.205  14.766  14.449
90283W        W62009  19.174  40.055   3.125
90284W        W62010  44.298   0.910  13.037
90285W        W62011  25.951   8.818  14.956
90286W        W62012  36.364  30.610   1.740
90287W        W62013  18.521  42.419  14.889
90288W        W62014  30.457  18.456  13.174
90289W        W62015  25.190   6.670   2.757
90290W        W62016   4.162   2.232   0.731
90291W        W62017  44.508  17.459  13.385
90292W        W62018   9.180   5.708   3.161
90293W        W62019   9.137  36.880  10.996
90294W        W62020  33.152  39.050   3.491
90295W        W62021   2.450  32.076   3.760
90296W        W62022  31.810   6.258   4.184
90297W        W62023  40.467  12.024   1.890
90298W        W62024  18.598  35.272  12.835
90299W        W62025  19.872  29.165  11.027
90300W        W62026   8.251  29.089   3.055
90301W        W62027  24.182  37.340   0.500
90302W        W62028  43.422  28.063   1.959
90303W        W62029  18.926  36.132   2.134
90304W        W62030   6.688   6.204   3.290
90305W        W62031  11.808  14.829   4.698
90306W        W62032  36.976  16.828  10.502
90307W        W62033  41.038  29.176   2.798
90308W        W62034  35.514   0.528   1.843
90309W        W62035   6.431   9.764  10.478
90310W        W62036  14.368   2.751  14.439
90311W        W62037  11.575  18.134   4.297
90312W        W62038  43.298  44.226   2.090
90313W        W62039  33.389   4.714  13.532
90314W        W62040   6.985  13.966  12.752
90315W        W62041  18.283  14.721  12.046
90316W        W62042  14.501  37.478   1.739
90317W        W62043  32.973  41.433   1.387
90318W        W62044  25.930  41.011  10.729
90319W        W62045  11.346  23.642   4.531
90320W        W62046   3.215  23.071   3.297
90321W        W62047  41.196  27.425   0.047
90322W        W62048  42.957  20.791  11.348
90323W        W62049  15.529  44.471   4.133
90324W        W62050  18.597  11.623  11.603
90325W        W62051   2.069  33.097   1.825
90326W        W62052  13.577   8.960  12.395
90327W        W62053  37.441   7.446  12.154
90328W        W62054  33.557  19.781  14.329
90329W        W62055  12.955  29.013  13.982
90330W        W62056  38.733  19.762   1.852
90331W        W62057  36.403  29.938   0.808
90332W        W62058  39.721   0.661  11.760
90333W        W62059  36.372  44.997   3.816
90334W        W62060  27.139  38.636  12.134
90335W        W62061  18.252  29.207  11.101
90336W        W62062  26.485   9.732  14.242
90337W        W62063  28.124  20.756  12.882
90338W        W62064  36.383   3.334  12.864
90339W        W62065   5.437   2.213   2.749
90340W        W62066  32.425   6.951  13.684
90341W        W62067   5.575  28.531   0.297
90342W        W62068   3.728  19.128  13.994
90343W        W62069  24.162   9.455   0.497
90344W        W62070  43.318  42.989  12.383
90345W        W62071  38.840  32.532   1.260
90346W        W62072  22.272  39.357   3.136
90347W        W62073  19.058  44.993   0.258
90348W        W62074  24.505  26.913   4.736
90349W        W62075  34.554  36.268   0.244
90350W        W62076  20.946  35.622   0.165
90351W        W62077  18.326   9.762  11.382
90352W        W62078  20.057  34.544  13.176
90353W        W62079   6.374  30.663   2.279
90354W        W62080   4.720  27.892  11.093
90355W        W62081  18.669  23.717  12.411
90356W        W62082  30.184  40.265  11.595
90357W        W62083   2.969  35.814  12.880
90358W        W62084  34.474  19.508   4.797
90359W        W62085  40.019  16.247  14.054
90360W        W62086  34.876  29.710  12.115
90361W        W62087  29.123  16.290  14.298
90362W        W62088  23.271   0.954   2.707
90363W        W62089  19.750  36.107  10.870
90364W        W62090   1.309  29.506   4.088
90365W        W62091  42.397   3.177   3.324
90366W        W62092  37.461  34.378   0.428
90367W        W62093   9.776  20.434  13.491
90368W        W62094  41.871   1.776  10.661
90369W        W62095  44.643  44.340   1.475
90370W        W62096  14.189   3.939  12.177
90371W        W62097  42.378  17.721   1.843
90372W        W62098  11.641  38.146   1.323
90373W        W62099  27.157  30.106  13.748
90374W        W62100   2.186  17.364   3.664
90375W        W62101  13.510  35.874  11.627
90376W        W62102  27.996   8.920  13.922
90377W        W62103   7.615  35.919  10.597
90378W        W62104  28.955  18.453   4.240
90379W        W62105  44.859   7.734   4.425
90380W        W62106  23.287   0.865  11.042
90381W        W62107  40.360  23.686   3.209
90382W        W62108  26.165  18.803   4.620
90383W        W62109  10.352  21.309  13.926
90384W        W62110  41.617  34.457  10.704
90385W        W62111  39.338  35.938  10.458
90386W        W62112  11.668  31.912  10.196
90387W        W62113  18.018  35.547  14.133
90388W        W62114   9.164  19.239  10.889
90389W        W62115  14.367  41.909   1.988
90390W        W62116   6.637  15.769   4.961
90391W        W62117   8.854  35.838   1.851
90392W        W62118   3.449  12.385  13.892
90393W        W62119  43.103   2.666   3.260
90394W        W62120  14.587  18.299  13.355
90395W        W62121   3.281  11.292  14.091
90396W        W62122   1.996  28.965   4.502
90397W        W62123  37.997  31.131   0.427
90398W        W62124  24.152  24.242   4.031
90399W        W62125  37.034  32.007   2.585
90400W        W62126   6.091   3.478   0.463
90401W        W62127  42.896   1.401   4.286
90402W        W62128  40.975  35.176  11.080
90403W        W62129   5.990   6.302  12.249
90404W        W62130  30.317  16.720   4.076
90405W        W62131   3.121  22.718   1.777
90406W        W62132  11.385  25.608  13.335
90407W        W62133   8.869  44.072   4.101
90408W        W62134  33.482  38.197   0.351
90409W        W62135  29.666  43.839  10.949
90410W        W62136   1.418  22.521   0.888
90411W        W62137   9.183  22.788  12.852
90412W        W62138  36.732   4.491  11.075
90413W        W62139  34.557  17.642  13.048
90414W        W62140  30.680   5.953  12.530
90415W        W62141  30.497   3.312   4.483
90416W        W62142   5.458  25.369  14.510
90417W        W62143  17.280   3.727   1.819
90418W        W62144  17.605  44.358  10.674
90419W        W62145  31.910   4.477  13.955
90420W        W62146  24.023  42.507   3.139
90421W        W62147  42.705  34.186   1.741
90422W        W62148   7.197  17.194  12.459
90423W        W62149  29.595  21.680  10.484
90424W        W62150  24.309  10.708  13.902
90425W        W62151   6.414  38.358  11.200
90426W        W62152   6.241  34.120  13.274
90427W        W62153   8.695   4.867   4.233
90428W        W62154  27.204  32.282   3.116
90429W        W62155   4.537  15.171   4.834
90430W        W62156  22.939   7.556   0.492
90431W        W62157  34.889  42.301  14.821
90432W        W62158  16.141  34.031  13.725
90433W        W62159   3.305  19.308  10.786
90434W        W62160  23.001  22.750  11.533
90435W        W62161  10.663  33.390   2.333
90436W        W62162  25.865  11.912  11.941
90437W        W62163  35.173  14.804   2.875
90438W        W62164  18.523  34.478  12.612
90439W        W62165  36.448   6.151   3.978
90440W        W62166   7.128  13.239   3.949
90441W        W62167  26.981   8.241  13.819
90442W        W62168   5.262  24.050   0.430
90443W        W62169  17.965  15.481   1.269
90444W        W62170   8.156  35.325   5.042
90445W        W62171   1.977   3.478   5.116
90446W        W62172  17.225   6.899   2.784
90447W        W62173  44.230  35.056  10.764
90448W        W62174  36.868  15.130  10.637
90449W        W62175  26.102  17.050  14.886
90450W        W62176  15.783   2.326  12.795
90451W        W62177  29.316  38.192   1.765
90452W        W62178  26.842   8.431   3.765
90453W        W62179   3.293  38.323  13.992
90454W        W62180   0.895  42.257  13.489
90455W        W62181   8.196   5.955   9.712
90456W        W62182  43.277  38.316  14.782
90457W        W62183  23.486  44.494   1.901
90458W        W62184  18.660  10.064  11.668
90459W        W62185  27.495  33.122   3.141
90460W        W62186  38.486  31.441  13.428
90461W        W62187  32.405  36.146   2.407
90462W        W62188  25.282   1.498   4.193
90463W        W62189  18.673  39.336   0.406
90464W        W62190  30.527   3.840  14.919
90465W        W62191  43.850  30.491   1.474
90466W        W62192  23.633   7.464  14.049
90467W        W62193   5.293   0.530  14.554
90468W        W62194  32.987  32.601  13.994
90469W        W62195   1.142  15.653   2.332
90470W        W62196  21.105  11.156  14.038
90471W        W62197   0.032  24.018  13.468
90472W        W62198  13.137   3.479   0.331
90473W        W62199  32.593  44.922   4.597
90474W        W62200  27.331   9.398   4.105
90475W        W62201   0.760  33.098   1.239
90476W        W62202   1.021  25.277   2.976
90477W        W62203  42.832  20.022   4.709
90478W        W62204   5.063  34.426  10.243
90479W        W62205  44.143  26.380   0.239
90480W        W62206  11.212  33.469  11.868
90481W        W62207  36.999  37.990  14.905
90482W        W62208  19.529  28.449   3.175
90483W        W62209  28.437  41.440  10.577
90484W        W62210  17.139  13.387   1.889
90485W        W62211  42.910  22.213   3.239
90486W        W62212  37.447  34.557  12.033
90487W        W62213  21.316  21.995   1.457
90488W        W62214   5.607  41.526  11.811
90489W        W62215  33.970   8.202  12.429
90490W        W62216   7.240   2.134  13.062
90491W        W62217  24.652  16.735   3.714
90492W        W62218  38.909  31.579  10.471
90493W        W62219  16.851  12.598  14.786
90494W        W62220  11.883  16.494  12.482
90495W        W62221   8.649   5.978   4.217
90496W        W62222  12.768  26.198   4.055
90497W        W62223  17.191   5.641   1.803
90498W        W62224  27.206  31.568   5.059
90499W        W62225  38.283  15.041   4.082
90500W        W62226  18.777  25.702   2.825
90501W        W62227  20.831   1.821   4.587
90502W        W62228  27.524  38.590  10.913
90503W        W62229   6.192  43.701   2.615
90504W        W62230  44.524  32.051   3.623
90505W        W62231   2.219   6.099  13.274
90506W        W62232  21.578  28.211   0.321
90507W        W62233  13.007  37.058   1.113
90508W        W62234  40.789  20.000  12.969
90509W        W62235  20.263  34.446  10.385
90510W        W62236  37.959  41.888  12.473
90511W        W62237  34.380  12.179   2.432
90512W        W62238  12.874  37.866   4.813
90513W        W62239  10.716  18.726   0.300
90514W        W62240  40.623   0.221  12.504
90515W        W62241   0.661  26.464   3.309
90516W        W62242  25.967  43.363  12.862
90517W        W62243  38.813  13.310   2.938
90518W        W62244  27.565   1.499   3.721
90519W        W62245  13.868   0.329   4.380
90520W        W62246  37.969  21.641  10.671
90521W        W62247   0.566  19.551   4.504
90522W        W62248  20.511  35.161   1.875
90523W        W62249  33.759  38.353   4.305
90524W        W62250   3.972   3.753   0.820
90525W        W62251  23.505  33.060  11.107
90526W        W62252  26.581   7.950   1.416
90527W        W62253  13.223  43.911  11.050
90528W        W62254   1.850  18.889   0.760
90529W        W62255  35.353  24.092  12.555
90530W        W62256   3.472  30.480   2.160
90531W        W62257  20.716  13.891  12.565
90532W        W62258  10.681  18.033   0.887
90533W        W62259  28.195  10.656   2.807
90534W        W62260  21.346  18.761   1.104
90535W        W62261   9.641  11.711  11.654
90536W        W62262  27.488  19.980  10.766
90537W        W62263  16.809  11.792  13.920
90538W        W62264  21.184  33.538   4.124
90539W        W62265  36.646   6.265   1.098
90540W        W62266   7.093   9.318   4.175
90541W        W62267  15.570  30.085   5.075
90542W        W62268  37.332  38.270  12.149
90543W        W62269   1.182  39.050  10.706
90544W        W62270  18.366  19.691  13.747
90545W        W62271  10.697  33.219   1.053
90546W        W62272  29.201  40.486   4.156
90547W        W62273  20.999   2.855   2.188
90548W        W62274  31.573  15.072  14.335
90549W        W62275  23.690  35.009   4.245
90550W        W62276  12.496   0.853   4.194
90551W        W62277  33.938   1.747  10.652
90552W        W62278  17.847  32.315   4.123
90553W        W62279  40.250  22.646  12.490
90554W        W62280  14.788  17.734   0.888
90555W        W62281  25.520  25.611  10.785
90556W        W62282  44.730  30.076  12.111
90557W        W62283  24.646   2.766  12.713
90558W        W62284   7.673   2.866   2.812
90559W        W62285   9.240  25.137   0.273
90560W        W62286   9.687   9.919   2.810
90561W        W62287  21.061  32.819   0.381
90562W        W62288  38.829  25.942  12.457
90563W        W62289   7.321  42.389   0.748
90564W        W62290  41.831  24.312  14.505
90565W        W62291   7.740  44.086  10.271
90566W        W62292  36.433  27.968  13.115
90567W        W62293   6.316  30.103  10.714
90568W        W62294  12.988  19.602  10.728
90569W        W62295  24.537  29.628  10.691
90570W        W62296  30.434   6.732   4.902
90571W        W62297   8.867   4.807  11.535
90572W        W62298  35.294  28.392  14.941
90573W        W62299  20.131  16.233   3.426
90574W        W62300  19.569  23.543  14.248
90575W        W62301  28.602  16.016   0.560
90576W        W62302  29.515  42.066  13.193
90577W        W62303  35.303  28.213  14.431
90578W        W62304   4.887  13.151   3.210
90579W        W62305  44.055  42.762  14.071
90580W        W62306  13.380   4.237  14.378
90581W        W62307  41.831  21.318  12.632
90582W        W62308  10.268  15.578   2.984
90583W        W62309  29.794  31.336  13.539
90584W        W62310  29.422  26.325   4.529
90585W        W62311  34.502   1.679  12.243
90586W        W62312  27.826  31.595   0.702
90587W        W62313  14.662  25.678   3.761
90588W        W62314   6.806  10.518  11.920
90589W        W62315  22.998   9.335  12.599
90590W        W62316  40.108  24.099  13.398
90591W        W62317  18.137  39.493   4.864
90592W        W62318   1.137  19.666  11.804
90593W        W62319  33.262  20.524   0.855
90594W        W62320  19.729  43.042  13.079
90595W        W62321  38.008   8.883   1.342
90596W        W62322  14.228   0.943   0.442
90597W        W62323   1.417  25.118  14.881
90598W        W62324  42.846  12.363  10.589
90599W        W62325  38.486  13.555  11.850
90600W        W62326  19.625  19.458   3.536
90601W        W62327   0.282  23.621   2.239
90602W        W62328   2.125  15.687  10.373
90603W        W62329  27.863  24.184   4.345
90604W        W62330  29.490   3.704   1.377
90605W        W62331  27.410   2.375   0.737
90606W        W62332   9.445   1.525   4.160
90607W        W62333  44.406  30.183   1.413
90608W        W62334   5.226   9.887   3.093
90609W        W62335  17.621  19.015   2.461
90610W        W62336  21.106  26.707  12.761
90611W        W62337   0.288   5.253   1.718
90612W        W62338  37.766   6.168   4.180
90613W        W62339  41.028  36.630  12.211
90614W        W62340  11.896  15.857   1.064
90615W        W62341   1.981  36.916  12.022
90616W        W62342  21.709  42.333   2.662
90617W        W62343   5.843  19.488   4.842
90618W        W62344  44.532  42.070  14.999
90619W        W62345  31.583  36.512   3.537
90620W        W62346  29.449  34.813  12.079
90621W        W62347  41.424  12.827   3.015
90622W        W62348  29.074   6.762  13.457
90623W        W62349  25.682  38.986   1.835
90624W        W62350   9.684  14.067  10.583
90625W        W62351   9.232  40.405  12.870
90626W        W62352   8.519  25.343   5.023
90627W        W62353  26.245   1.271  12.924
90628W        W62354  20.705  13.604   2.572
90629W        W62355  40.550   2.077  11.175
90630W        W62356   3.957  28.121  13.590
90631W        W62357  26.986   7.930   3.649
90632W        W62358  23.573  11.916  12.826
90633W        W62359  27.236   2.405   4.562
90634W        W62360  19.051  16.245  12.455
90635W        W62361  16.279  36.025  14.304
90636W        W62362  34.244  30.621   1.495
90637W        W62363  39.559  19.309  13.321
90638W        W62364  31.064  34.296  11.696
90639W        W62365   7.645  17.792   1.386
90640W        W62366  41.389  43.628  10.495
90641W        W62367  16.569   1.273  11.947
90642W        W62368  21.672   5.447  14.450
90643W        W62369  24.559  39.508   1.041
90644W        W62370   8.201  25.389  10.916
90645W        W62371   8.063   1.746   4.455
90646W        W62372  11.855  17.093  12.468
90647W        W62373  16.105  39.584   1.836
90648W        W62374   4.796   4.243   0.508
90649W        W62375  21.746  27.057  11.470
90650W        W62376   0.372  41.390   2.943
90651W        W62377  13.114  27.514   1.655
90652W        W62378  28.016   7.624  11.106
90653W        W62379  30.132  18.081  11.667
90654W        W62380   8.375  29.046   3.572
90655W        W62381  13.397  16.351  11.212
90656W        W62382  28.274  20.095   0.745
90657W        W62383  23.671  42.216  13.920
90658W        W62384  24.596   3.209   3.153
90659W        W62385  13.858  39.259  12.994
90660W        W62386  36.980  41.578   0.865
90661W        W62387  43.275  27.532   0.810
90662W        W62388  34.418  36.161  13.060
90663W        W62389  39.287   7.269   3.728
90664W        W62390  11.172  15.419  13.400
90665W        W62391  33.859  35.422   3.165
90666W        W62392  36.901   8.126   0.867
90667W        W62393  41.668  22.049   3.833
90668W        W62394  33.366  39.100  12.438
90669W        W62395  22.875  27.858  11.720
90670W        W62396  39.450  43.882   2.385
90671W        W62397  22.846  19.001   2.172
90672W        W62398   2.628  15.549  10.275
90673W        W62399  25.009  40.565   3.557
90674W        W62400   7.848  39.138  10.701
90675W        W62401  24.910  40.451  14.299
90676W        W62402  27.935  15.458  13.564
90677W        W62403  38.590  28.942   0.720
90678W        W62404  30.208  31.571  13.843
90679W        W62405  39.042  33.262  12.483
90680W        W62406   1.924  34.840  12.793
90681W        W62407  37.044  36.896   3.321
90682W        W62408  39.340  31.759   5.133
90683W        W62409  36.755  44.050   0.061
90684W        W62410  39.126  32.105   1.317
90685W        W62411   3.775  37.043   2.968
90686W        W62412  39.707  17.576   3.352
90687W        W62413  39.942  12.721  13.656
90688W        W62414  19.694  12.730  14.024
90689W        W62415   7.324  12.822   1.834
90690W        W62416  25.151  22.063  13.383
90691W        W62417  36.377   6.976  14.188
90692W        W62418  37.438  35.990  14.989
90693W        W62419  32.577  34.990  11.258
90694W        W62420  18.635  23.593   2.662
90695W        W62421   9.193  29.930   0.446
90696W        W62422  28.732  10.630   2.812
90697W        W62423  34.143  16.612   3.636
90698W        W62424  31.619   5.499   3.579
90699W        W62425  28.429  43.312   1.404
90700W        W62426  33.389  44.562   1.574
90701W        W62427  35.554  28.519   3.413
90702W        W62428   9.573   5.614  12.045
90703W        W62429   6.132  19.402   4.344
90704W        W62430  13.665  21.240  14.892
90705W        W62431  35.504  44.972   1.866
90706W        W62432   5.271  36.629  11.565
90707W        W62433  36.905  16.903  11.038
90708W        W62434  41.319  15.323   4.238
90709W        W62435  37.521  22.348   2.768
90710W        W62436  26.817  21.647   1.685
90711W        W62437  15.421  27.599  11.166
90712W        W62438  13.534  26.804   4.891
90713W        W62439  22.725  26.617  11.090
90714W        W62440  34.942  16.861  13.919
90715W        W62441  18.993   8.797   0.446
90716W        W62442  32.307  30.041  14.416
90717W        W62443  38.856  31.431   2.816
90718W        W62444  31.064  21.834  13.066
90719W        W62445  21.308   0.549   4.051
90720W        W62446  16.152  20.593   1.821
90721W        W62447  38.607  42.481  12.789
90722W        W62448   5.106  35.839  14.043
90723W        W62449  33.528  40.301  14.791
90724W        W62450  23.740  37.707   1.526
90725W        W62451   7.189  11.913   1.715
90726W        W62452   2.183   5.750  10.576
90727W        W62453  21.090  25.490  14.702
90728W        W62454  27.048   7.963   1.175
90729W        W62455  20.310  17.212   4.705
90730W        W62456   7.455  24.541  13.357
90731W        W62457  10.718  36.949  12.453
90732W        W62458  42.998  34.465   0.275
90733W        W62459  27.612  43.966   2.738
90734W        W62460  20.457   5.924   0.770
90735W        W62461  39.614  21.253  12.513
90736W        W62462   4.017  38.539  11.494
90737W        W62463  42.978  15.710   0.219
90738W        W62464  22.431  10.967   5.002
90739W        W62465  19.761  37.682   2.205
90740W        W62466  13.016  35.598  13.615
90741W        W62467   7.864  10.645   1.484
90742W        W62468  16.648  41.101   0.469
90743W        W62469  33.883  33.802   4.117
90744W        W62470   6.350  28.607  11.887
90745W        W62471   6.883   3.969  14.948
90746W        W62472  32.979  39.113   0.011
90747W        W62473  25.185   3.006  11.444
90748W        W62474  41.983  28.290   1.715
90749W        W62475  19.104   1.872  14.421
90750W        W62476  32.968   8.686  10.666
90751W        W62477   0.459  17.061   1.649
90752W        W62478   7.779  29.465   2.377
90753W        W62479  14.371   0.293   2.845
90754W        W62480  10.119  25.910  13.442
90755W        W62481  30.867  25.981   2.880
90756W        W62482  34.635  40.890  12.304
90757W        W62483  22.278  40.849   0.034
90758W        W62484  19.890  17.829  13.527
90759W        W62485  11.825  22.013  13.069
90760W        W62486   2.472  33.424  11.647
90761W        W62487   7.624  42.378  12.851
90762W        W62488  40.139  19.857  12.166
90763W        W62489  25.613  43.468   1.788
90764W        W62490  40.085  17.648   4.793
90765W        W62491  21.698  28.662  14.589
90766W        W62492  18.774   4.509   3.227
90767W        W62493   2.544  42.611  10.714
90768W        W62494  34.216  39.483   1.652
90769W        W62495  37.927  12.112   1.686
90770W        W62496   9.837  44.518  14.218
90771W        W62497  38.308  33.442  12.304
90772W        W62498  29.119  33.865  12.051
90773W        W62499  13.748  13.885  13.336
90774W        W62500  26.464   0.808  14.557
90775W        W62501  21.528  30.718  12.021
90776W        W62502  37.890  16.161   4.523
90777W        W62503  43.010  42.288  14.937
90778W        W62504  17.304   5.322   2.664
90779W        W62505  32.163  18.578  11.633
90780W        W62506   2.355   2.595   1.802
90781W        W62507  25.569  39.089   0.843
90782W        W62508  13.424   0.408   2.890
90783W        W62509  18.170   1.111   0.809
90784W        W62510  40.476   5.979  12.522
90785W        W62511  42.029  36.316   0.995
90786W        W62512   9.211  29.225   3.266
90787W        W62513  10.786  14.391  12.120
90788W        W62514  16.256   7.397   4.619
90789W        W62515   4.857   1.393  14.599
90790W        W62516  30.914  26.785   4.212
90791W        W62517  43.822   8.083  11.536
90792W        W62518  13.138  15.598   0.538
90793W        W62519   9.872  35.992  11.382
90794W        W62520  18.135  39.305  10.627
90795W        W62521  32.582   0.042   5.097
90796W        W62522  13.326  35.856   4.649
90797W        W62523  15.114  29.518  14.809
90798W        W62524  16.234  23.807   3.586
90799W        W62525  28.942  34.138   0.116
90800W        W62526  32.541  15.378   4.351
90801W        W62527  39.122  18.410  13.641
90802W        W62528  39.073  23.362  11.489
90803W        W62529   5.566  15.144  12.963
90804W        W62530  14.311  23.625   2.921
90805W        W62531  33.064  35.374  13.304
90806W        W62532  20.750   1.127  12.494
90807W        W62533  10.791   0.951  12.881
90808W        W62534  21.783  29.104  12.506
90809W        W62535  25.270  30.520  12.603
90810W        W62536  33.966  31.448   4.778
90811W        W62537  36.004  42.719  11.070
90812W        W62538  17.656  20.373   2.832
90813W        W62539   8.567  35.058  12.021
90814W        W62540   3.161  30.018   1.350
90815W        W62541  40.299  19.349  12.108
90816W        W62542  42.771  20.099  12.523
90817W        W62543  38.522  31.336  14.426
90818W        W62544   0.246  33.568  13.325
90819W        W62545  11.194  24.685  10.920
90820W        W62546   7.013   0.850   4.660
90821W        W62547  17.669   6.982   0.427
90822W        W62548  41.530   6.008   1.318
90823W        W62549   0.782  14.309   3.266
90824W        W62550  12.276   4.803  13.943
90825W        W62551  11.315   8.681  13.751
90826W        W62552   7.655  38.647   2.439
90827W        W62553   6.729   9.895  14.187
90828W        W62554  23.127  30.356   2.204
90829W        W62555  23.628  25.999   3.986
90830W        W62556  32.493  25.211  11.109
90831W        W62557  39.580  21.787   0.335
90832W        W62558  38.927   0.436  11.041
90833W        W62559   8.083  43.109   2.854
90834W        W62560  24.769   0.824   2.112
90835W        W62561  14.139  33.631   0.360
90836W        W62562  38.523  31.144  13.852
90837W        W62563  38.403  43.942   0.802
90838W        W62564  14.121  33.344  14.005
90839W        W62565  19.638  16.697   1.908
90840W        W62566   2.081  25.404   0.909
90841W        W62567  25.222  43.778  14.296
90842W        W62568  17.535  29.246  10.603
90843W        W62569  28.230  16.626  14.836
90844W        W62570   1.233  33.900  11.458
90845W        W62571  17.163  32.844  11.974
90846W        W62572  17.883   9.876   2.355
90847W        W62573  31.071   2.271   3.972
90848W        W62574  20.059  20.080  11.503
90849W        W62575  32.377  15.543  13.952
90850W        W62576  36.419  37.466  12.864
90851W        W62577  29.136  37.091  14.625
90852W        W62578  44.206  35.915   0.890
90853W        W62579  26.052  38.502  12.499
90854W        W62580  17.239  20.052   3.323
90855W        W62581  24.875  22.259  14.892
90856W        W62582  15.812  44.965  14.387
90857W        W62583  15.180   7.313  14.516
90858W        W62584  22.130  19.233   2.954
90859W        W62585  32.583  14.570   0.405
90860W        W62586   9.733  37.932   0.352
90861W        W62587  10.649  39.974  12.922
90862W        W62588  12.159  15.692   1.720
90863W        W62589  20.027  20.379   4.662
90864W        W62590  10.169  26.441   3.178
90865W        W62591  21.289  34.677   3.146
90866W        W62592  11.057  17.720  11.586
90867W        W62593  43.311  32.310  10.262
90868W        W62594  25.926  12.095   3.808
90869W        W62595  36.776  21.666   2.213
90870W        W62596   3.529  34.137   1.437
90871W        W62597  14.529  38.750  13.958
90872W        W62598  32.670  24.232  11.047
90873W        W62599  20.395  39.929   1.566
90874W        W62600   7.644  34.059  11.283
90875W        W62601  36.362  35.026   1.820
90876W        W62602  35.467  27.970   1.730
90877W        W62603  16.627  41.559  14.019
90878W        W62604  40.068  23.315  14.701
90879W        W62605  41.843  35.577   4.991
90880W        W62606  13.119   7.563   1.900
90881W        W62607   9.369   1.733   3.285
90882W        W62608  27.601   8.817  14.251
90883W        W62609  40.556  42.510   0.009
90884W        W62610  11.303  36.425   2.736
90885W        W62611  42.396  24.480  10.743
90886W        W62612  42.100  21.602  11.958
90887W        W62613  38.963  13.662  11.698
90888W        W62614  30.335  15.944  11.347
90889W        W62615   4.643   1.574  11.185
90890W        W62616  28.673  16.382  14.574
90891W        W62617   6.351  40.147  14.471
90892W        W62618   6.859  32.870   4.577
90893W        W62619  10.771  20.021  13.762
90894W        W62620   7.918  28.164   0.875
90895W        W62621  34.864  22.563   3.254
90896W        W62622  21.828   5.899   4.003
90897W        W62623  17.450   3.487   2.854
90898W        W62624  41.721  13.243  11.189
90899W        W62625  21.062  20.280  14.691
90900W        W62626   3.860  17.316   3.403
90901W        W62627   1.011  18.336   1.808
90902W        W62628   1.879   2.100  13.155
90903W        W62629   6.496   7.189   5.020
90904W        W62630  36.612   6.501  12.149
90905W        W62631   6.110  38.284   0.379
90906W        W62632  44.483  24.073  13.437
90907W        W62633  40.271  32.887  12.963
90908W        W62634  30.075  24.543  12.019
90909W        W62635  26.397  43.606   3.790
90910W        W62636  23.994  34.588   0.805
90911W        W62637  16.345  35.421   1.393
90912W        W62638  33.646  41.459  12.922
90913W        W62639  22.376  40.811   3.799
90914W        W62640  32.870   0.914   1.685
90915W        W62641  44.457  36.737   3.189
90916W        W62642  29.479  25.729  10.221
90917W        W62643  21.834  42.879   4.574
90918W        W62644  29.503  19.751  13.086
90919W        W62645  42.843  27.467  14.730
90920W        W62646  37.943   9.109   4.072
90921W        W62647  15.692   0.967   3.071
90922W        W62648  24.087  26.239  12.492
90923W        W62649  36.907  12.513   4.578
90924W        W62650   2.785   3.294  13.106
90925W        W62651  29.498  12.557  12.970
90926W        W62652   8.107   0.844  12.005
90927W        W62653   0.094  37.206  11.994
90928W        W62654  29.537  30.861  10.774
90929W        W62655  18.097  35.892  13.102
90930W        W62656  42.969  21.166  10.515
90931W        W62657  32.135  32.496   2.250
90932W        W62658  41.497   7.734   4.572
90933W        W62659  15.498  34.355  13.457
90934W        W62660  34.735   8.049  12.942
90935W        W62661  31.989  38.226  10.244
90936W        W62662  12.138   8.869   4.680
90937W        W62663   0.791  25.926  14.533
90938W        W62664   4.339   1.539   1.305
90939W        W62665  15.760  23.129   4.537
90940W        W62666   4.187  25.966   4.865
90941W        W62667  44.356  44.024  14.803
90942W        W62668  22.968  44.821   2.180
90943W        W62669  41.488   0.143   4.037
90944W        W62670  38.842  10.797  13.360
90945W        W62671  10.042  15.517   3.436
90946W        W62672  32.299  32.906  10.581
90947W        W62673  38.073  12.446  13.292
90948W        W62674  25.389  30.926   4.069
90949W        W62675  10.344  34.493   0.366
90950W        W62676  41.194  43.483  14.117
90951W        W62677  16.221  28.010   1.250
90952W        W62678  10.115  22.981   1.859
90953W        W62679  36.115  20.050  11.012
90954W        W62680  25.184  39.580   2.491
90955W        W62681  24.585   2.961   4.886
90956W        W62682  38.490  18.029   1.862
90957W        W62683   3.453  35.767  14.859
90958W        W62684  17.241  20.386  14.306
90959W        W62685   4.826  20.815  11.156
90960W        W62686  22.487  38.846  13.124
90961W        W62687  28.241  44.954   3.305
90962W        W62688  16.314  22.106  10.861
90963W        W62689   8.240  25.070   0.340
90964W        W62690  22.397   3.984   4.574
90965W        W62691  33.517  28.178   0.345
90966W        W62692  35.588   6.361  11.627
90967W        W62693  38.319   1.546   1.473
90968W        W62694  31.697  36.200   2.249
90969W        W62695  39.320   9.094  14.934
90970W        W62696  21.055  23.131  10.764
90971W        W62697   9.417  31.556  12.028
90972W        W62698  37.114  20.154   3.219
90973W        W62699  20.696  33.540   4.375
90974W        W62700  41.538  34.371  13.029
90975W        W62701   5.191  37.013   4.217
90976W        W62702  18.208  41.069   2.887
90977W        W62703  40.545  17.338  13.780
90978W        W62704  27.628  26.526   2.725
90979W        W62705  29.119  23.008   4.077
90980W        W62706  32.040  25.106  10.344
90981W        W62707  44.882   8.211  12.447
90982W        W62708  17.689   0.944  14.966
90983W        W62709  41.451  33.464   4.096
90984W        W62710  11.801  33.580  14.917
90985W        W62711  41.734   4.862  14.916
90986W        W62712   1.575   9.543  14.623
90987W        W62713  13.907  34.070   4.579
90988W        W62714  36.412  39.492   1.782
90989W        W62715  11.680  36.084   3.556
90990W        W62716   1.848  27.915  11.442
90991W        W62717  37.828  23.369  13.786
90992W        W62718   2.025   5.036   4.228
90993W        W62719  25.652  20.262   2.321
90994W        W62720  13.717   4.763  10.690
90995W        W62721  11.125  33.008  11.676
90996W        W62722  14.849  37.999   4.133
90997W        W62723  37.319  33.908  13.585
90998W        W62724  44.877  34.357   3.268
90999W        W62725   5.906  37.651   3.652
91000W        W62726  16.915  31.296   4.337
91001W        W62727  18.700  20.696  11.121
91002W        W62728  24.687  25.937   1.790
91003W        W62729  42.962  22.637  13.396
91004W        W62730  25.617  34.656   4.219
91005W        W62731  31.191  30.409   4.969
91006W        W62732   5.952  42.250   1.284
91007W        W62733  10.370   7.561   1.708
91008W        W62734  29.548  40.223  14.223
91009W        W62735  10.433  20.005  14.583
91010W        W62736  26.954   1.449   4.699
91011W        W62737  23.709  40.437  13.884
91012W        W62738  35.119   3.474   4.923
91013W        W62739  19.019  17.331  11.429
91014W        W62740  41.378  17.226   4.204
91015W        W62741   7.387  14.659  13.295
91016W        W62742  31.894  42.457  14.975
91017W        W62743   1.947  11.141   0.473
91018W        W62744  33.112  34.868   4.246
91019W        W62745  29.995   4.187  12.286
91020W        W62746  18.127  35.457   3.931
91021W        W62747  18.610  15.211   2.821
91022W        W62748   1.555   0.695   0.684
91023W        W62749  22.292  10.809  10.991
91024W        W62750  11.114  23.535  13.411
91025W        W62751  23.144  34.882  13.805
91026W        W62752  21.018  30.237  11.101
91027W        W62753  38.912   5.023   2.718
91028W        W62754  28.080  29.381   4.519
91029W        W62755  42.139   9.292   3.997
91030W        W62756   7.765  40.052   3.240
91031W        W62757   3.028  19.199   0.515
91032W        W62758  34.915  31.912   4.093
91033W        W62759  39.379  35.821  11.484
91034W        W62760  13.884  24.933   3.598
91035W        W62761  22.787   2.019  11.189
91036W        W62762  34.022   0.942  11.946
91037W        W62763  41.342  35.519   0.709
91038W        W62764  41.684  37.374  10.001
91039W        W62765   0.499   3.785  13.158
91040W        W62766  43.986  41.076   1.276
91041W        W62767  35.539  16.601  10.616
91042W        W62768  34.571  38.135  12.101
91043W        W62769  31.076  33.114  11.113
91044W        W62770   8.948  31.123   4.845
91045W        W62771  16.476   4.264  12.559
91046W        W62772   9.252  41.536   0.870
91047W        W62773  30.565  43.725  12.002
91048W        W62774  16.248  42.279  12.540
91049W        W62775  13.548  41.890   4.580
91050W        W62776  26.514  27.938  11.576
91051W        W62777  21.283  36.784   0.495
91052W        W62778  35.883  31.150  11.562
91053W        W62779  38.830  40.758   2.266
91054W        W62780  24.226  15.669  13.852
91055W        W62781   1.693  22.092  10.618
91056W        W62782  40.073  25.939   3.018
91057W        W62783   3.118   9.107   1.249
91058W        W62784  43.485  30.445   1.109
91059W        W62785  15.463   5.677   2.674
91060W        W62786  23.263  34.637   2.492
91061W        W62787  14.746  25.686  12.965
91062W        W62788  28.936   2.002   1.688
91063W        W62789  41.111  28.482   1.205
91064W        W62790  27.437   1.414   0.853
91065W        W62791  17.497   0.421   2.282
91066W        W62792  24.928  38.949   2.320
91067W        W62793  27.589  13.236   2.795
91068W        W62794  31.889  43.818   4.615
91069W        W62795  16.472  12.816   0.697
91070W        W62796  43.854  42.764  12.516
91071W        W62797  43.552   6.775   2.690
91072W        W62798   9.199  40.297   4.599
91073W        W62799  35.488  43.527  11.442
91074W        W62800  15.830  44.687   0.968
91075W        W62801  17.772  34.886  11.597
91076W        W62802  26.692  27.065   4.590
91077W        W62803  26.306  28.650   1.272
91078W        W62804  13.304  15.918  14.043
91079W        W62805  26.944   4.251   5.018
91080W        W62806   3.074  34.478  11.483
91081W        W62807   4.334  29.877   4.757
91082W        W62808  19.286  26.203  14.303
91083W        W62809   6.709  22.805  13.799
91084W        W62810  21.579   9.267   2.368
91085W        W62811   3.083  18.503  11.088
91086W        W62812  30.534   0.416   2.829
91087W        W62813  36.380  26.424  13.026
91088W        W62814  24.894   4.193  11.974
91089W        W62815  16.738  41.537   3.832
91090W        W62816  30.913  15.124   4.032
91091W        W62817  16.586  33.128  12.915
91092W        W62818  30.105  23.229   1.720
91093W        W62819  13.910   4.922   2.623
91094W        W62820  21.478   4.436   1.884
91095W        W62821  18.722  15.648  12.400
91096W        W62822  17.359  44.723  11.058
91097W        W62823  43.554  16.107   2.979
91098W        W62824  29.057   0.987   1.771
91099W        W62825  42.654  31.155  14.178
91100W        W62826  44.893  14.079   3.652
91101W        W62827   8.459   4.548   2.793
91102W        W62828  14.058  14.164   2.677
91103W        W62829  15.643  38.517  12.611
91104W        W62830  32.103  10.338  13.041
91105W        W62831   4.815  27.486   1.387
91106W        W62832  41.975  44.494  12.156
91107W        W62833   2.101   7.205   4.775
91108W        W62834  39.951   0.407  14.215
91109W        W62835  30.347  26.029  10.249
91110W        W62836   8.310  12.315   0.388
91111W        W62837  12.143   2.744   4.531
91112W        W62838   3.840  13.804   1.360
91113W        W62839  23.806  18.094  14.784
91114W        W62840  22.219  28.206  12.349
91115W        W62841   1.725   8.804   3.533
91116W        W62842   0.793  15.102   2.749
91117W        W62843   7.348  38.500   1.731
91118W        W62844   9.917  25.649   4.080
91119W        W62845  13.768  41.520   3.745
91120W        W62846  28.993   4.219  12.010
91121W        W62847  11.886  32.480   4.376
91122W        W62848   8.410  36.248   4.199
91123W        W62849  40.488  33.404  11.512
91124W        W62850  32.060  36.732  10.565
91125W        W62851   9.702  42.551   2.682
91126W        W62852  21.494  32.544   0.935
91127W        W62853  24.580  42.864  12.985
91128W        W62854  25.476  39.886  14.568
91129W        W62855   9.321  22.086   1.700
91130W        W62856   8.743  34.573  12.059
91131W        W62857  21.451  42.911  10.843
91132W        W62858  39.229   2.388  10.535
91133W        W62859   3.144  26.024   0.248
91134W        W62860   7.652  32.895   1.876
91135W        W62861   5.252  29.974   4.622
91136W        W62862   7.321   7.355  14.399
91137W        W62863  21.961  10.368  13.092
91138W        W62864  39.118  43.358  12.918
91139W        W62865  44.084  16.734  11.100
91140W        W62866   0.184   3.387   1.418
91141W        W62867   8.789  25.734  11.673
91142W        W62868  31.152  30.478  14.054
91143W        W62869  26.606  29.664   0.723
91144W        W62870  33.986  42.344   2.394
91145W        W62871  35.440   1.586   4.580
91146W        W62872   7.116  15.608   5.054
91147W        W62873  21.570  37.059  11.808
91148W        W62874  40.100  12.547   9.689
91149W        W62875  33.521  15.273   4.558
91150W        W62876  19.798  12.252  13.788
91151W        W62877  39.949  33.000  14.955
91152W        W62878  40.545  11.540   3.629
91153W        W62879  21.291  35.201  11.150
91154W        W62880  44.343  32.157   0.757
91155W        W62881  41.522  20.598   4.079
91156W        W62882   7.502  28.290  14.250
91157W        W62883  23.442  29.963   2.274
91158W        W62884  26.989  28.692   4.117
91159W        W62885  40.004  21.793  14.465
91160W        W62886   2.371  25.181  11.594
91161W        W62887  30.817  22.157   4.142
91162W        W62888  38.330   4.604  14.347
91163W        W62889   8.061  30.218   0.882
91164W        W62890   8.763  29.698   1.744
91165W        W62891  16.079  24.625   3.816
91166W        W62892  14.628   0.931   4.148
91167W        W62893  28.607  33.127  13.876
91168W        W62894  19.744  34.482   1.521
91169W        W62895  13.718  33.269  13.653
91170W        W62896   1.254  15.880   3.794
91171W        W62897   0.453  16.645   0.753
91172W        W62898   2.805  19.321  14.946
91173W        W62899  39.542  41.280  12.027
91174W        W62900  35.766  13.617   2.761
91175W        W62901  38.423  41.371   3.586
91176W        W62902   0.926  28.209   0.333
91177W        W62903  39.169  30.087   2.259
91178W        W62904  18.822  39.659  12.946
91179W        W62905   5.746  32.146  10.703
91180W        W62906  16.633  44.722  10.783
91181W        W62907   1.301   4.891  12.368
91182W        W62908  36.006   8.300   3.733
91183W        W62909  13.349  12.640  13.772
91184W        W62910  40.642  15.033   1.687
91185W        W62911   2.226  39.790  13.900
91186W        W62912  41.023  28.346  14.871
91187W        W62913  42.559   3.834   0.538
91188W        W62914  26.580  44.482  14.289
91189W        W62915  19.588  26.530  11.133
91190W        W62916  28.948  31.464   1.943
91191W        W62917  19.445  39.367   0.762
91192W        W62918  25.999  12.673   1.281
91193W        W62919  41.442  41.832   4.731
91194W        W62920  38.366  25.881   3.679
91195W        W62921  12.737  15.716  11.472
91196W        W62922  13.834   3.854   0.414
91197W        W62923   3.359  14.079   4.100
91198W        W62924  12.527  28.180   3.372
91199W        W62925  41.348   0.769  14.877
91200W        W62926  35.936  34.881  11.498
91201W        W62927   0.275  35.291   1.276
91202W        W62928  38.906  17.818   2.854
91203W        W62929  32.987   2.855   2.734
91204W        W62930  39.414   7.775  14.446
91205W        W62931   5.145  43.270  11.865
91206W        W62932   0.214  34.339  11.497
91207W        W62933  17.210  30.860   4.308
91208W        W62934  15.370   1.770  11.830
91209W        W62935  15.132  40.005   5.076
91210W        W62936  28.794   0.633   3.653
91211W        W62937   9.313  34.865   4.217
91212W        W62938  11.585   2.900  11.122
91213W        W62939  33.366  23.671   1.600
91214W        W62940  10.668  23.550   5.098
91215W        W62941  12.178  21.077  10.180
91216W        W62942  10.574   5.028  14.192
91217W        W62943   5.344  10.261  13.027
91218W        W62944  40.894  42.607  12.341
91219W        W62945  35.221  14.421   5.020
91220W        W62946  20.939  16.900   3.961
91221W        W62947  41.537  21.998  11.294
91222W        W62948  12.859  31.034  10.509
91223W        W62949  22.637   5.128   1.242
91224W        W62950  43.457  42.247   3.506
91225W        W62951  29.669  25.101   5.235
91226W        W62952  44.827  24.099  11.911
91227W        W62953  42.915  14.718   0.361
91228W        W62954  29.552  18.116   4.645
91229W        W62955  37.676   7.411   1.854
91230W        W62956  43.332   0.636   0.726
91231W        W62957  33.186   0.370   0.953
91232W        W62958  24.131  20.048   4.054
91233W        W62959  30.643  21.269  13.402
91234W        W62960  24.166   6.455  13.458
91235W        W62961  27.430  31.930   0.469
91236W        W62962  17.179  37.847   4.115
91237W        W62963  42.844  24.101   0.411
91238W        W62964  41.974  37.016  11.210
91239W        W62965  38.110  42.453  13.295
91240W        W62966  33.493  26.672  12.045
91241W        W62967  12.012   3.630  13.345
91242W        W62968  30.246   3.995  14.159
91243W        W62969  43.677  19.161  11.897
91244W        W62970  11.664   3.960  13.126
91245W        W62971  40.109  39.585  12.415
91246W        W62972  26.612  37.755  11.062
91247W        W62973  41.365  27.554  13.689
91248W        W62974  42.936  24.698   3.485
91249W        W62975  23.092  40.247   1.865
91250W        W62976  12.627   5.691   2.140
91251W        W62977  41.124  25.781  12.223
91252W        W62978  13.221   4.979   1.324
91253W        W62979   9.724  23.273   4.182
91254W        W62980  11.669   9.788  12.906
91255W        W62981  25.010  10.433   0.954
91256W        W62982  18.409  10.615   2.710
91257W        W62983  34.530  34.881  11.639
91258W        W62984  22.512  32.247   0.175
91259W        W62985  38.830  42.570  13.902
91260W        W62986  10.206  36.883  12.381
91261W        W62987  23.395  18.246   0.938
91262W        W62988   7.393   7.224  12.921
91263W        W62989  23.938  20.211  10.650
91264W        W62990  15.032   5.860   1.366
91265W        W62991  42.767   5.079  13.795
91266W        W62992  35.957  20.992   0.358
91267W        W62993  29.103  39.315   3.658
91268W        W62994  27.149  14.487  12.034
91269W        W62995  13.152  22.994   1.190
91270W        W62996  27.454   4.462  13.374
91271W        W62997   7.566  17.486   4.309
91272W        W62998   4.345  15.098   9.896
91273W        W62999   7.141  35.931   1.739
91274W        W63000  40.697  36.613  11.744
91275W        W63001   7.229   8.298   4.045
91276W        W63002   6.440  24.223  11.999
91277W        W63003  25.677  37.859  10.743
91278W        W63004  34.480  41.772  12.437
91279W        W63005  27.739  39.673   2.686
91280W        W63006   2.913  25.796  11.141
91281W        W63007  25.641  33.879   3.643
91282W        W63008  41.676  16.229  13.419
91283W        W63009  27.076   0.286  12.540
91284W        W63010   7.984  32.325   1.262
91285W        W63011  36.674  42.893  10.431
91286W        W63012   7.503   4.332   3.825
91287W        W63013  17.374  14.794  14.111
91288W        W63014  38.896  23.640  13.591
91289W        W63015  20.865  39.377  12.828
91290W        W63016  27.359  21.063  12.747
91291W        W63017  40.961  39.976  11.529
91292W        W63018  11.210   4.119  13.450
91293W        W63019  23.101  29.739  14.395
91294W        W63020  35.376  37.269   0.446
91295W        W63021  17.856  18.544   1.786
91296W        W63022  14.290   4.665   4.520
91297W        W63023  21.848  32.188   2.831
91298W        W63024  20.544  10.694  10.957
91299W        W63025   3.464   5.696  12.037
91300W        W63026  39.144  23.000   1.086
91301W        W63027   2.359   7.181  14.860
91302W        W63028  24.984  16.125   2.412
91303W        W63029   0.886  39.892  11.568
91304W        W63030  17.448  37.703   2.847
91305W        W63031  28.453  12.720  12.905
91306W        W63032  28.282  19.227  13.748
91307W        W63033   3.720   2.376  11.626
91308W        W63034  23.134  11.312  10.774
91309W        W63035  22.607   7.519  14.440
91310W        W63036  15.760  35.368   3.749
91311W        W63037  43.483  11.693  14.831
91312W        W63038  23.643  30.724  13.208
91313W        W63039  30.991   4.180  10.764
91314W        W63040   2.340  32.120  14.864
91315W        W63041   0.396  36.982  13.298
91316W        W63042  36.948   3.107   2.351
91317W        W63043   0.740  33.917   4.509
91318W        W63044  37.355  42.867  13.387
91319W        W63045  37.107  12.742  11.578
91320W        W63046  10.577  20.111   4.356
91321W        W63047  18.564  32.512   3.361
91322W        W63048  22.982  37.529   4.139
91323W        W63049   7.609   0.955  10.674
91324W        W63050  17.324  30.399  13.314
91325W        W63051  32.556  21.345  14.944
91326W        W63052  33.697  31.407   3.182
91327W        W63053  23.583  40.873   4.482
91328W        W63054  28.498  36.248   3.301
91329W        W63055  39.415  34.019  14.494
91330W        W63056  26.999  12.840   4.244
91331W        W63057  17.330  19.191  10.764
91332W        W63058  35.223   3.414   0.896
91333W        W63059  33.402  24.948  14.023
91334W        W63060  31.598  18.831   3.186
91335W        W63061  40.890   0.535   1.541
91336W        W63062  16.907  10.281  14.869
91337W        W63063  25.031   6.127   3.853
91338W        W63064  20.738   2.438   1.732
91339W        W63065  39.340  16.721   4.594
91340W        W63066  29.488  39.556  11.917
91341W        W63067  37.396  34.029   3.600
91342W        W63068  23.180  31.711  12.639
91343W        W63069   7.777  28.682   1.798
91344W        W63070  35.672  23.070  13.333
91345W        W63071  30.995  42.219  10.884
91346W        W63072  28.446  18.744   0.638
91347W        W63073  44.771  13.801   4.530
91348W        W63074  36.808  39.438  14.816
91349W        W63075  39.066  22.695   3.647
91350W        W63076  38.473  36.302   2.266
91351W        W63077  41.810  34.367  14.854
91352W        W63078  21.125  41.114  11.548
91353W        W63079  41.609  36.691   1.722
91354W        W63080  27.119  41.370  14.120
91355W        W63081  16.845  35.024   0.658
91356W        W63082  13.745  20.187   1.880
91357W        W63083  35.872  34.104   3.378
91358W        W63084   1.845   4.441   2.713
91359W        W63085  21.526  44.496   3.084
91360W        W63086  26.548  42.960   1.834
91361W        W63087  34.550  15.441  14.418
91362W        W63088  30.224  28.879   2.881
91363W        W63089  23.566  38.716  14.963
91364W        W63090  31.220   6.900   1.212
91365W        W63091  44.862  38.442   1.693
91366W        W63092  33.660  10.792  12.501
91367W        W63093  39.130  17.179  13.445
91368W        W63094  24.466  37.886   4.105
91369W        W63095   5.680   1.302   1.816
91370W        W63096  29.699  13.852  11.012
91371W        W63097  14.227  39.756  14.291
91372W        W63098  22.730  13.707  14.254
91373W        W63099  16.499  43.234  14.562
91374W        W63100  11.730  15.167   3.344
91375W        W63101  16.690   2.056   1.930
91376W        W63102  22.586   5.288   4.064
91377W        W63103  21.012  44.461  14.463
91378W        W63104  11.694  21.652  12.133
91379W        W63105   1.859  11.980   3.722
91380W        W63106  39.727  17.039   1.689
91381W        W63107  22.934  30.151   1.757
91382W        W63108  42.994  17.507   2.807
91383W        W63109  32.989  44.567  14.125
91384W        W63110  39.961  21.720   2.213
91385W        W63111  25.079  44.727   4.693
91386W        W63112  23.717  15.615  12.798
91387W        W63113  25.099  15.946   3.761
91388W        W63114   1.870  30.719   0.825
91389W        W63115  29.907  18.835   1.958
91390W        W63116  31.834  18.093  10.891
91391W        W63117  21.487  36.673  12.643
91392W        W63118  20.289  36.719  11.111
91393W        W63119  14.366  16.631  12.430
91394W        W63120  41.434  17.730   1.395
91395W        W63121  11.744  43.467   2.161
91396W        W63122  15.187  31.868   3.596
91397W        W63123  21.134  31.474  14.539
91398W        W63124  44.435  15.127  10.811
91399W        W63125  26.526   3.256   1.374
91400W        W63126  14.211   9.881   1.868
91401W        W63127  14.470   0.575   4.698
91402W        W63128   0.618  33.703   3.242
91403W        W63129  24.908  40.374  13.380
91404W        W63130   2.295  23.919  14.706
91405W        W63131  35.475  36.500  11.988
91406W        W63132  30.583  24.125   3.122
91407W        W63133   6.869   2.313   0.871
91408W        W63134  13.430   2.712  10.748
91409W        W63135  30.704  29.065   4.064
91410W        W63136  19.144   4.154  13.403
91411W        W63137  22.495  31.478   2.184
91412W        W63138  14.349  29.465  12.881
91413W        W63139  32.569   4.295  14.426
91414W        W63140  32.530   7.768  14.019
91415W        W63141  28.748  27.312  11.524
91416W        W63142  35.651  41.843   1.680
91417W        W63143  28.160  13.307  13.465
91418W        W63144  28.073   0.392  10.839
91419W        W63145  22.024  28.687  12.289
91420W        W63146  30.696   4.288   2.174
91421W        W63147   9.277  27.678   3.319
91422W        W63148  41.849  25.424   1.522
91423W        W63149  40.406  19.010   0.429
91424W        W63150  14.281  19.334  12.592
91425W        W63151  24.286  25.231   9.797
91426W        W63152  15.260  27.538   3.745
91427W        W63153  32.612  38.521   3.564
91428W        W63154  29.441   2.674   4.610
91429W        W63155   3.741  41.479  11.287
91430W        W63156  42.292  34.993   0.202
91431W        W63157  17.541  31.586  12.071
91432W        W63158  30.464  13.567   0.261
91433W        W63159  37.030  17.213   4.561
91434W        W63160   4.978  43.804   0.532
91435W        W63161  21.621  41.542  12.720
91436W        W63162  27.908  16.306  13.911
91437W        W63163  31.384   0.548   3.710
91438W        W63164  39.867  24.289  13.801
91439W        W63165  18.068  26.599   3.226
91440W        W63166  10.799  37.607   4.995
91441W        W63167  42.305   3.754   1.650
91442W        W63168  41.373   0.482   4.427
91443W        W63169  25.453  25.206   1.255
91444W        W63170  30.981  33.078   1.227
91445W        W63171   9.420  19.813   2.531
91446W        W63172   3.522  23.262  11.858
91447W        W63173  40.830   4.301   4.462
91448W        W63174   6.193  34.057   2.427
91449W        W63175   4.815  29.819   1.764
91450W        W63176  21.076  30.155   0.362
91451W        W63177  43.299  21.205  11.340
91452W        W63178   5.364  17.644  13.217
91453W        W63179  24.951  43.965   4.224
91454W        W63180  18.544  34.224  14.420
91455W        W63181  24.428  33.987   0.890
91456W        W63182  10.573  33.688   0.919
91457W        W63183  30.692   4.285  12.017
91458W        W63184  16.574  19.747  14.629
91459W        W63185  18.149  27.731  12.550
91460W        W63186   6.059   7.828   0.766
91461W        W63187  35.046  44.644  12.639
91462W        W63188  42.723  13.672  12.759
91463W        W63189  16.078  18.013  11.008
91464W        W63190  33.556  12.301  12.788
91465W        W63191  32.047  43.676  11.984
91466W        W63192  23.697  24.466   3.871
91467W        W63193   0.877  13.233   3.200
91468W        W63194  41.612  22.051   1.467
91469W        W63195   4.482  10.693   3.326
91470W        W63196  44.470   0.761   1.331
91471W        W63197  13.677  17.279  12.054
91472W        W63198  21.006  20.962  10.226
91473W        W63199  14.099  37.914  14.629
91474W        W63200  38.081  28.218   0.418
91475W        W63201  20.485  14.639  13.140
91476W        W63202  36.425   5.281   3.830
91477W        W63203  30.659  19.206   4.133
91478W        W63204  31.254  29.289   4.915
91479W        W63205  39.272  21.515   1.289
91480W        W63206   0.241   0.863   3.178
91481W        W63207   8.133  19.812   2.894
91482W        W63208  27.754  39.441   3.165
91483W        W63209  18.038  29.858   0.384
91484W        W63210   6.191  40.800  11.479
91485W        W63211  43.831  33.319   3.618
91486W        W63212  35.430   8.124   0.351
91487W        W63213  26.622  24.711   1.449
91488W        W63214  29.153  12.790  12.488
91489W        W63215  38.265  39.940  13.279
91490W        W63216  31.060   7.410   1.235
91491W        W63217  21.453  38.422  14.943
91492W        W63218  19.074  20.178  13.457
91493W        W63219   5.788  11.534   1.336
91494W        W63220  21.245   6.719   3.700
91495W        W63221  22.768   7.484  10.741
91496W        W63222  20.282  12.182   2.919
91497W        W63223  18.104   1.354   3.075
91498W        W63224   7.652  26.518  11.986
91499W        W63225   3.777  15.869   4.050
91500W        W63226   5.527   2.208   3.628
91501W        W63227   5.840  34.064   1.666
91502W        W63228   6.469   3.462  11.848
91503W        W63229  12.150  31.848  14.797
91504W        W63230  29.670  29.440   0.957
91505W        W63231  27.414   2.418   0.184
91506W        W63232  30.040  37.453  10.592
91507W        W63233   6.815  22.244  12.950
91508W        W63234  28.630  20.001   2.829
91509W        W63235  37.381  43.262  10.701
91510W        W63236  22.704  33.957   1.384
91511W        W63237  24.818   9.971  11.669
91512W        W63238  43.479  44.834  13.392
91513W        W63239  16.705  21.200  12.548
91514W        W63240   5.145  13.240  14.482
91515W        W63241   9.113  25.893  14.867
91516W        W63242  39.315  12.166   2.254
91517W        W63243   0.691  37.101   2.332
91518W        W63244  15.712  41.128  10.053
91519W        W63245  16.696   9.698   3.861
91520W        W63246  16.125  13.946  11.567
91521W        W63247  20.660  35.838   3.243
91522W        W63248  44.818   9.300   2.232
91523W        W63249  44.496  13.709   3.698
91524W        W63250   3.810  28.597   0.621
91525W        W63251  17.986  43.048  10.631
91526W        W63252   3.654  37.023   4.359
91527W        W63253  11.147  12.261   4.350
91528W        W63254   9.927  44.953  12.524
91529W        W63255  16.086  44.234   1.763
91530W        W63256  27.007  31.909   1.258
91531W        W63257  11.748  31.422   1.725
91532W        W63258  36.037  27.679   2.863
91533W        W63259   2.396  19.588   3.324
91534W        W63260   4.348  11.286  13.612
91535W        W63261   1.903   8.777  11.473
91536W        W63262   4.871  35.839   0.398
91537W        W63263   0.827  20.221  13.984
91538W        W63264  40.394  39.390  11.908
91539W        W63265  43.877  40.517  11.954
91540W        W63266  41.832  28.713  10.654
91541W        W63267  19.666  37.520   3.134
91542W        W63268  14.757  14.443   3.982
91543W        W63269  38.536  16.283   2.349
91544W        W63270  37.771  24.175   0.334
91545W        W63271  12.059  12.870   4.265
91546W        W63272  34.478  35.872   3.782
91547W        W63273  39.933  25.084  13.353
91548W        W63274  18.759  13.700  11.560
91549W        W63275  10.787   2.929  10.556
91550W        W63276  44.746  41.055   1.732
91551W        W63277   9.318  27.175   0.339
91552W        W63278  21.761  36.836   1.731
91553W        W63279  39.974  19.549  11.189
91554W        W63280  18.643  20.320  14.489
91555W        W63281  28.909   8.346  14.316
91556W        W63282  42.961  21.394   4.137
91557W        W63283  33.876  19.463   5.005
91558W        W63284  10.086  23.474   1.545
91559W        W63285   4.398  28.128  11.748
91560W        W63286   6.027  35.536  14.522
91561W        W63287   4.936  44.215  13.222
91562W        W63288  42.778   4.713   4.543
91563W        W63289  10.163  15.645  13.480
91564W        W63290  31.392  44.680  13.440
91565W        W63291  38.531  39.928  14.711
91566W        W63292  13.585  41.472   1.797
91567W        W63293  17.867  12.309  11.088
91568W        W63294  40.052  10.212   3.372
91569W        W63295   1.311  37.512  10.734
91570W        W63296  21.687  13.632  14.556
91571W        W63297  18.522  25.896  14.588
91572W        W63298  38.805  22.723  13.881
91573W        W63299  14.664  23.632   3.734
91574W        W63300  44.897  18.750  14.401
91575W        W63301  29.039   3.312  12.363
91576W        W63302  31.524  37.908  11.988
91577W        W63303  28.150  43.228  13.451
91578W        W63304  21.735  36.929   0.277
91579W        W63305   8.351  16.746   0.196
91580W        W63306  29.898   1.297  14.853
91581W        W63307   1.806  28.151  14.076
91582W        W63308  25.803  18.718   4.963
91583W        W63309  23.968  44.736   3.634
91584W        W63310  22.123  15.049   0.261
91585W        W63311   0.515  39.859  14.887
91586W        W63312   6.328  13.136   1.028
91587W        W63313  33.318  14.058   1.914
91588W        W63314  35.007  35.094   1.759
91589W        W63315  15.646  17.682   2.373
91590W        W63316  15.724  24.611   1.947
91591W        W63317  31.664  39.750   2.581
91592W        W63318   7.242  30.912  13.791
91593W        W63319  18.562  37.466  10.719
91594W        W63320  42.075  27.002  13.572
91595W        W63321  24.122  33.965  13.919
91596W        W63322  17.587   7.116   2.453
91597W        W63323  13.277  12.360   1.191
91598W        W63324  41.112  39.918  14.392
91599W        W63325  35.186  18.702   3.687
91600W        W63326  11.278  10.493  10.850
91601W        W63327  12.586   3.710   3.906
91602W        W63328  22.068  43.776  12.221
91603W        W63329   9.910   2.789   2.204
91604W        W63330  19.966   5.863   4.616
91605W        W63331  41.993  32.383  12.142
91606W        W63332  25.284  25.778  12.549
91607W        W63333   0.797  12.366  13.615
91608W        W63334   9.325  11.877  13.927
91609W        W63335  41.528  11.715   3.600
91610W        W63336   9.821  27.204  14.253
91611W        W63337  27.864  26.487   4.224
91612W        W63338  44.669   1.010  11.632
91613W        W63339  32.002  42.550  13.956
91614W        W63340  23.883  20.549   0.365
91615W        W63341  18.175   3.766  13.809
91616W        W63342  42.387  20.077  14.437
91617W        W63343   1.555  43.676  11.539
91618W        W63344  27.084   0.982  11.105
91619W        W63345  15.832  23.533   1.332
91620W        W63346   9.798  18.716  10.325
91621W        W63347   0.181  21.279   4.531
91622W        W63348  25.862   4.127   0.891
91623W        W63349  37.034   5.796   3.142
91624W        W63350  35.470  15.559   3.267
91625W        W63351  12.326  39.806  14.484
91626W        W63352  18.032  12.363   2.648
91627W        W63353  16.511  44.061  11.189
91628W        W63354   4.984  12.126   3.177
91629W        W63355  39.558   6.673  14.387
91630W        W63356  33.573  32.233  11.646
91631W        W63357  33.175  21.759   4.162
91632W        W63358  39.824  13.119  12.008
91633W        W63359  37.090  11.149   3.566
91634W        W63360  20.489  18.833   0.843
91635W        W63361  36.567  17.965   2.572
91636W        W63362   0.672  31.553   2.204
91637W        W63363  19.332   5.100   2.990
91638W        W63364  19.797   2.355  11.696
91639W        W63365  43.095  14.165  13.157
91640W        W63366  20.779   3.777  10.251
91641W        W63367  39.914  33.436  12.265
91642W        W63368  26.600  40.252  14.317
91643W        W63369  35.743   8.951  11.012
91644W        W63370   7.206   9.850  14.406
91645W        W63371  20.948   7.373   2.844
91646W        W63372  29.653  12.693  10.828
91647W        W63373  19.797   3.358  13.307
91648W        W63374  14.287  41.004  14.484
91649W        W63375  12.383   8.392  14.465
91650W        W63376   2.892  32.558   0.616
91651W        W63377  37.706  36.521  11.519
91652W        W63378  40.863  15.537   2.272
91653W        W63379  31.926  43.923   5.378
91654W        W63380  33.821   1.323   0.818
91655W        W63381  34.077   1.267  13.812
91656W        W63382  38.347  39.131   2.380
91657W        W63383  17.728  13.791   3.087
91658W        W63384  16.659  38.360   3.399
91659W        W63385   8.317  37.511   3.826
91660W        W63386  22.452  31.415  13.064
91661W        W63387  40.340  18.698   2.912
91662W        W63388   2.675  10.184   1.821
91663W        W63389   2.887  36.860  14.541
91664W        W63390  20.457  21.267  12.519
91665W        W63391  11.107  17.214  14.639
91666W        W63392  31.008  39.498   0.010
91667W        W63393  26.035  42.948   1.676
91668W        W63394   6.187  20.459   2.158
91669W        W63395  14.236  34.397   0.000
91670W        W63396   6.100  16.374  13.828
91671W        W63397   8.422  17.585   3.863
91672W        W63398  40.978  13.664  11.375
91673W        W63399  11.345  33.320  12.884
91674W        W63400  17.033  43.907   1.264
91675W        W63401   3.956  36.706  12.029
91676W        W63402  17.202  28.727   1.901
91677W        W63403   8.372  24.083  10.195
91678W        W63404  10.383  36.601   1.751
91679W        W63405  21.076  12.443  11.436
91680W        W63406   8.179  34.909   3.407
91681W        W63407   1.327  19.263  11.043
91682W        W63408  12.413  14.695  14.898
91683W        W63409  19.152  22.139  12.408
91684W        W63410  23.126  32.675   2.424
91685W        W63411  15.754  23.638   4.340
91686W        W63412  26.225   2.875  11.177
91687W        W63413  27.084  15.002  13.968
91688W        W63414  12.931  33.378  12.033
91689W        W63415  15.642  20.845   0.770
91690W        W63416  38.025  20.225   2.352
91691W        W63417  23.492  21.724   1.930
91692W        W63418  16.595  44.532  14.795
91693W        W63419   6.867  14.729   2.666
91694W        W63420  25.649  38.931   3.840
91695W        W63421  12.229  10.491  12.423
91696W        W63422  24.671  29.723  11.971
91697W        W63423  27.563  40.400   1.443
91698W        W63424  15.936  34.083  14.908
91699W        W63425  23.695  15.207   1.333
91700W        W63426  29.982  36.143   2.701
91701W        W63427  33.608  33.539  14.991
91702W        W63428  12.686  44.474  10.641
91703W        W63429  24.825   0.491   5.452
91704W        W63430  22.603  16.604   0.906
91705W        W63431  43.204  17.743  10.653
91706W        W63432  41.464  27.869  10.687
91707W        W63433   6.377   8.303   3.477
91708W        W63434  28.683  42.438   2.393
91709W        W63435   7.304  33.251   2.089
91710W        W63436  27.690  24.441  14.843
91711W        W63437  14.129  26.193   0.848
91712W        W63438  43.473   1.296  12.496
91713W        W63439   6.819  13.907   0.708
91714W        W63440   8.426  23.570  12.911
91715W        W63441  39.950  23.226  14.210
91716W        W63442  23.505  11.708  12.349
91717W        W63443  14.240   2.315  11.438
91718W        W63444  19.605   0.670   4.110
91719W        W63445  23.376  35.513   1.591
91720W        W63446  15.326  22.893  11.064
91721W        W63447  17.813  17.545   3.435
91722W        W63448  14.366   1.475  12.512
91723W        W63449  38.489  41.031   1.373
91724W        W63450  28.750  28.311   1.361
91725W        W63451  42.759  25.425  14.311
91726W        W63452   5.721  31.886   4.908
91727W        W63453   3.895   3.796  10.411
91728W        W63454  11.165  20.094  14.534
91729W        W63455  14.625   5.246  10.915
91730W        W63456  22.690  35.611  11.989
91731W        W63457  22.647  27.434  11.954
91732W        W63458   6.674   4.703   5.391
91733W        W63459  33.707  20.722   1.293
91734W        W63460  10.390  43.903  13.551
91735W        W63461   3.295  23.330  14.110
91736W        W63462   7.646  33.371  10.699
91737W        W63463  37.674  27.620  14.884
91738W        W63464  19.775  25.027  13.543
91739W        W63465  10.662   4.741  11.191
91740W        W63466  29.747   8.407   2.231
91741W        W63467  41.533  37.574   2.188
91742W        W63468  36.137   9.258   2.834
91743W        W63469  37.849  35.421  13.072
91744W        W63470  29.542  20.111   1.346
91745W        W63471  29.278  20.312  12.035
91746W        W63472  41.513   8.846  14.799
91747W        W63473   7.694  27.137   1.911
91748W        W63474  14.807  43.533  12.139
91749W        W63475  11.756  36.118   1.175
91750W        W63476  21.159  32.207  11.406
91751W        W63477  29.179  31.206  14.744
91752W        W63478  36.792   3.097   4.953
91753W        W63479   0.075  30.459  11.459
91754W        W63480  31.424  33.509  13.760
91755W        W63481   5.287   6.664  13.321
91756W        W63482  11.199  21.007   9.949
91757W        W63483   5.799   5.012  12.166
91758W        W63484  19.598  11.863   4.020
91759W        W63485   2.489   7.116  11.709
91760W        W63486  37.455  25.873   9.984
91761W        W63487  24.649  38.773  13.859
91762W        W63488  24.938   0.788  12.479
91763W        W63489   3.059  36.449  10.323
91764W        W63490  14.050  37.798   0.396
91765W        W63491  13.097  37.864   2.510
91766W        W63492  37.826  21.089   1.774
91767W        W63493  23.997   5.774  10.381
91768W        W63494  36.368  22.612  13.884
91769W        W63495  17.288  29.224   1.676
91770W        W63496  44.965  25.162  10.568
91771W        W63497  21.975  14.702  14.911
91772W        W63498  28.462   8.863  13.040
91773W        W63499  18.890  24.737   4.549
91774W        W63500  35.454  16.061  13.017
91775W        W63501  26.223  23.980  14.234
91776W        W63502  11.160   2.425  14.986
91777W        W63503  35.328  22.442   2.344
91778W        W63504  25.419  36.638  14.434
91779W        W63505  29.029  38.453   0.838
91780W        W63506  36.461   3.840   4.066
91781W        W63507   0.111  16.630   4.655
91782W        W63508  34.122  37.325  11.119
91783W        W63509   0.737  24.180  14.913
91784W        W63510  13.851  35.728   1.104
91785W        W63511  21.197  11.348   0.988
91786W        W63512  34.027   5.882   4.800
91787W        W63513  31.170   2.337   3.466
91788W        W63514  11.773  44.728   1.457
91789W        W63515   1.926  25.025  12.198
91790W        W63516  28.472   7.380   4.773
91791W        W63517  23.697  25.543  12.138
91792W        W63518  30.627  29.077  11.376
91793W        W63519   1.170  41.534   0.900
91794W        W63520   3.462  44.289   2.774
91795W        W63521  37.795  22.861   3.280
91796W        W63522   2.019   7.491  12.878
91797W        W63523   9.847  38.285  12.119
91798W        W63524  27.331   2.892  12.148
91799W        W63525   2.901  36.676  13.304
91800W        W63526  29.747  23.685   5.478
91801W        W63527  10.195   6.418   2.766
91802W        W63528  37.829  15.874  13.453
91803W        W63529  44.886   7.752   2.349
91804W        W63530  29.223  24.741   9.990
91805W        W63531  19.474  43.018   4.066
91806W        W63532  36.936   5.925  13.454
91807W        W63533  39.118  32.309   0.769
91808W        W63534   2.507  27.015   3.130
91809W        W63535   1.923  35.333  12.317
91810W        W63536   2.429  44.227  13.965
91811W        W63537  25.171   4.788   2.355
91812W        W63538  30.770  37.619   0.650
91813W        W63539   0.233  12.022  12.480
91814W        W63540   1.018  25.352  12.497
91815W        W63541  31.916  16.061  13.477
91816W        W63542  16.215  35.937  14.816
91817W        W63543   0.914  35.146  10.954
91818W        W63544  17.769  18.111  11.892
91819W        W63545   4.965  23.263   1.752
91820W        W63546  19.592  15.816   4.054
91821W        W63547  32.440  19.886   3.358
91822W        W63548  39.996  37.504   4.643
91823W        W63549  37.343  21.026  13.240
91824W        W63550  27.059  21.109  11.488
91825W        W63551   6.474  37.570   1.203
91826W        W63552  23.858   4.258   1.942
91827W        W63553  17.182  40.089   5.459
91828W        W63554  15.813  43.418   4.602
91829W        W63555  33.020  30.513   4.508
91830W        W63556  17.555  31.210  10.369
91831W        W63557  35.065  41.772  11.081
91832W        W63558   0.477  26.645  14.859
91833W        W63559   2.830  29.157   3.192
91834W        W63560  34.263  19.100   2.667
91835W        W63561  32.567  41.974   0.505
91836W        W63562   1.752  20.442   4.166
91837W        W63563  29.999  39.521   0.412
91838W        W63564  33.110  18.300  11.896
91839W        W63565  12.103  41.075  11.508
91840W        W63566  41.450   9.233   4.683
91841W        W63567  32.025  39.976   2.910
91842W        W63568  32.614  26.690   2.725
91843W        W63569  25.131  24.013   1.768
91844W        W63570   8.755  10.939   3.312
91845W        W63571  15.115  29.790   1.740
91846W        W63572  14.751  27.632   2.366
91847W        W63573   6.009  43.807   0.398
91848W        W63574  10.364  25.436  13.451
91849W        W63575  21.691  12.315   0.386
91850W        W63576  25.515  34.146   3.228
91851W        W63577  20.733  43.047  12.306
91852W        W63578  24.647  21.486  14.920
91853W        W63579  40.370  25.720   2.650
91854W        W63580  14.556  14.215   3.133
91855W        W63581  44.011  29.931   4.568
91856W        W63582   5.849  17.880   3.581
91857W        W63583  17.374  21.471   0.657
91858W        W63584   7.034   6.423   1.283
91859W        W63585  26.228  13.651  12.474
91860W        W63586  42.543  43.713   2.239
91861W        W63587  22.121  34.000  13.174
91862W        W63588  39.685  36.950   4.195
91863W        W63589  21.178  35.579   1.394
91864W        W63590  24.408  42.721   3.622
91865W        W63591  26.002   0.423   4.105
91866W        W63592  17.054   0.575  12.441
91867W        W63593  18.782   7.924  12.313
91868W        W63594   7.328   3.624   4.838
91869W        W63595  43.356  26.008   3.392
91870W        W63596  23.959   3.930  12.426
91871W        W63597  13.668  38.353   4.063
91872W        W63598   8.651   8.451  11.900
91873W        W63599   2.176  28.577  11.457
91874W        W63600   8.964  10.122   3.790
91875W        W63601  24.519  32.168  13.912
91876W        W63602  25.545  30.907   2.171
91877W        W63603  43.604  38.867   2.417
91878W        W63604   6.181  36.151   1.066
91879W        W63605  32.560  43.317   0.533
91880W        W63606  42.159  36.465  14.180
91881W        W63607  29.589  35.413   0.493
91882W        W63608  32.306  42.525   3.664
91883W        W63609   7.737  18.569   5.081
91884W        W63610   4.412  16.149   5.315
91885W        W63611   0.312  32.285   0.898
91886W        W63612  43.256  29.176   4.653
91887W        W63613  25.083   6.301  12.650
91888W        W63614  42.562  30.929  12.871
91889W        W63615  40.107  28.944  13.522
91890W        W63616  33.275  20.257  11.469
91891W        W63617  43.809  37.561   3.860
91892W        W63618  14.330  29.677   3.142
91893W        W63619  41.535  28.116   1.907
91894W        W63620   5.351  21.428  12.046
91895W        W63621  12.918  17.983   2.756
91896W        W63622  26.984  35.336   1.292
91897W        W63623  15.588  13.168   0.201
91898W        W63624  31.532  11.067  10.897
91899W        W63625   6.187   1.513  12.165
91900W        W63626   0.905  28.180   3.182
91901W        W63627  19.004  10.747  12.433
91902W        W63628  19.079  27.947  11.493
91903W        W63629  23.202   0.438   2.783
91904W        W63630  40.473   1.378   2.669
91905W        W63631  39.022  22.189  14.667
91906W        W63632   5.389  16.354  12.504
91907W        W63633   5.359  27.653   2.672
91908W        W63634   0.993  37.493  10.273
91909W        W63635  13.389   4.463  14.845
91910W        W63636  40.397  20.707   0.387
91911W        W63637  38.990  30.984  11.104
91912W        W63638  41.988  12.593  12.062
91913W        W63639  18.813  37.971  13.524
91914W        W63640  40.510   7.451  11.982
91915W        W63641  40.526  15.518  13.895
91916W        W63642  14.182   4.250   1.431
91917W        W63643  37.806   5.384   4.092
91918W        W63644  20.274  42.445  14.278
91919W        W63645  23.558  44.768   1.462
91920W        W63646   4.038   6.536  10.583
91921W        W63647  40.767  37.126   4.260
91922W        W63648  41.873  19.335  12.796
91923W        W63649  13.721  36.000   2.158
91924W        W63650  17.062  34.707  14.384
91925W        W63651  39.012   5.934   3.800
91926W        W63652  14.879  18.029   1.310
91927W        W63653  25.260  33.830  11.506
91928W        W63654  43.914   5.255  11.038
91929W        W63655  43.675  43.194   2.917
91930W        W63656  38.707  15.725   4.987
91931W        W63657  25.123  12.370   1.653
91932W        W63658   9.855   2.826  13.511
91933W        W63659   1.981  26.906  11.251
91934W        W63660   5.687  15.099   3.666
91935W        W63661  17.386  37.045   4.556
91936W        W63662  25.933  41.496  13.794
91937W        W63663  29.467  24.783  13.979
91938W        W63664  27.129  16.586   4.798
91939W        W63665   1.344  27.883  13.804
91940W        W63666   1.867   6.595  11.983
91941W        W63667  20.092  40.860  13.538
91942W        W63668  41.938  33.945   3.091
91943W        W63669  14.646   0.752   0.700
91944W        W63670  36.878  29.920  14.935
91945W        W63671   4.300  20.203   0.953
91946W        W63672   2.077   0.772  12.920
91947W        W63673   5.331  42.315  13.921
91948W        W63674  23.992   1.465   3.254
91949W        W63675  13.355   9.411  14.074
91950W        W63676  37.823  14.736  14.475
91951W        W63677  32.627  33.340   0.957
91952W        W63678  33.845  23.763   2.299
91953W        W63679  22.243  35.002  11.351
91954W        W63680  37.933  43.586   1.322
91955W        W63681  25.377  10.253  13.360
91956W        W63682   5.806  37.274  10.634
91957W        W63683  21.048  15.028  14.463
91958W        W63684   3.956  13.549   1.847
91959W        W63685   1.507  26.963   1.829
91960W        W63686  44.174   0.080   4.088
91961W        W63687  10.819  30.737   2.411
91962W        W63688  32.389  24.514   2.310
91963W        W63689  27.098  22.745   0.543
91964W        W63690  17.762  23.125  12.555
91965W        W63691  41.406  34.652   1.999
91966W        W63692  17.284  19.055   0.726
91967W        W63693  23.030  13.696  13.790
91968W        W63694  24.684  37.032  12.989
91969W        W63695  11.306  41.304  13.509
91970W        W63696  22.245  21.199   5.067
91971W        W63697  44.469  10.517   1.790
91972W        W63698  20.971   3.913   0.216
91973W        W63699   9.271  22.136   3.841
91974W        W63700  37.918  12.919   0.243
91975W        W63701  41.260  19.365  11.089
91976W        W63702  36.293  32.742  13.854
91977W        W63703  40.251  12.694   2.312
91978W        W63704  12.241  42.478  12.569
91979W        W63705  23.590   4.310  10.903
91980W        W63706  38.488  37.768   2.204
91981W        W63707  39.490  28.622  12.928
91982W        W63708  22.540   5.914  14.338
91983W        W63709  41.590   1.828   1.301
91984W        W63710  10.172  11.778   3.250
91985W        W63711  44.211   8.151   2.730
91986W        W63712  41.739   4.109   0.828
91987W        W63713  23.973   8.928  10.726
91988W        W63714  22.402  41.339   2.066
91989W        W63715   1.282  42.003   2.735
91990W        W63716   5.399   1.920  14.348
91991W        W63717  32.091  18.784   0.210
91992W        W63718   9.353  15.352  13.107
91993W        W63719   1.505  22.404   2.653
91994W        W63720  25.468  42.392  12.118
91995W        W63721  36.880   1.290  14.015
91996W        W63722   4.303   2.871  14.099
91997W        W63723  38.971  20.782   1.777
91998W        W63724   8.358   3.550  12.230
91999W        W63725  41.537  14.576   3.722
92000W        W63726  20.670  35.241   0.404
92001W        W63727   6.217  26.224  12.232
92002W        W63728  20.947   1.528   2.119
92003W        W63729  24.038  44.025   4.142
92004W        W63730  40.263  19.106   2.195
92005W        W63731  27.575  14.787   0.847
92006W        W63732  20.744  22.738  13.763
92007W        W63733   2.291   2.121  14.414
92008W        W63734   7.759  15.779  14.816
92009W        W63735  30.231  10.730   2.739
92010W        W63736  11.346  22.114  13.366
92011W        W63737  28.550   9.852   2.134
92012W        W63738  14.249  23.123   2.566
92013W        W63739   4.148  14.857  11.520
92014W        W63740  17.365  23.058   3.753
92015W        W63741  15.321  42.785   3.322
92016W        W63742  21.400   2.951   0.264
92017W        W63743  20.274  31.148   2.247
92018W        W63744  39.853  14.079  10.669
92019W        W63745  28.937   4.030   4.130
92020W        W63746  33.951  30.645  12.965
92021W        W63747  42.538  31.857   0.257
92022W        W63748  23.202  36.105   2.115
92023W        W63749  28.177  26.604   1.334
92024W        W63750  40.796   7.692   3.260
92025W        W63751   8.523  38.008  11.911
92026W        W63752  41.523  13.366   2.936
92027W        W63753  30.456  28.007   2.805
92028W        W63754   3.483  40.000   1.248
92029W        W63755  25.583   2.490  13.700
92030W        W63756  19.860  20.190   2.389
92031W        W63757  25.048  33.370  14.048
92032W        W63758  44.359  42.743   3.575
92033W        W63759   9.170   2.739  12.809
92034W        W63760  11.467  40.423   0.936
92035W        W63761  25.735  12.735   2.342
92036W        W63762  15.579   3.548   3.920
92037W        W63763   2.651  17.775   2.716
92038W        W63764  39.781  21.693   1.241
92039W        W63765  14.663  15.017  11.218
92040W        W63766  18.729  36.386   0.782
92041W        W63767  21.446  10.722  13.824
92042W        W63768   4.313  29.040   3.190
92043W        W63769  30.533  44.578   3.907
92044W        W63770  16.311  19.313  10.927
92045W        W63771  23.553  28.556   2.373
92046W        W63772  13.606  16.704   1.687
92047W        W63773   6.240  39.947  14.974
92048W        W63774  35.982   3.317  12.050
92049W        W63775  34.197  40.142   2.253
92050W        W63776  25.441  14.736  11.122
92051W        W63777  22.142  27.703  10.584
92052W        W63778   5.634  33.873   4.107
92053W        W63779   1.841  27.424   2.732
92054W        W63780   7.341  41.353  14.865
92055W        W63781  15.032   1.208   1.351
92056W        W63782   1.814  31.141   1.797
92057W        W63783  43.239  44.455   1.239
92058W        W63784  43.521  20.462   1.036
92059W        W63785   1.497  28.227   2.306
92060W        W63786  25.063   6.448   3.421
92061W        W63787  31.284  12.706  13.439
92062W        W63788  15.445  14.187   4.623
92063W        W63789  25.880   9.127  10.079
92064W        W63790  20.651   9.982  11.700
92065W        W63791  38.579  19.510   4.941
92066W        W63792  42.489  13.218   2.653
92067W        W63793  18.717  38.523  14.414
92068W        W63794   5.465   6.939   3.672
92069W        W63795  39.898  25.660  10.802
92070W        W63796   5.650   3.061  13.378
92071W        W63797  11.092  29.111   3.001
92072W        W63798  43.146  38.690  11.182
92073W        W63799  13.716  35.827   3.782
92074W        W63800  10.849  25.210  12.393
92075W        W63801  42.922   1.774   0.265
92076W        W63802  41.170  39.853   3.541
92077W        W63803  11.564  44.397  14.990
92078W        W63804   0.694   3.261   2.786
92079W        W63805  42.836  20.081   5.219
92080W        W63806  31.835   6.852  14.864
92081W        W63807  38.967   3.216   4.715
92082W        W63808  39.249  41.876  10.728
92083W        W63809   7.682   3.360   4.577
92084W        W63810  10.978  41.459  13.865
92085W        W63811  19.225  16.818   2.171
92086W        W63812  44.021  20.727  12.407
92087W        W63813  19.721   0.055  10.679
92088W        W63814  35.395   1.591  14.432
92089W        W63815  12.737   1.242   2.767
92090W        W63816  43.417  40.832  14.441
92091W        W63817  25.253  11.758  12.588
92092W        W63818  10.430   3.307   0.774
92093W        W63819  15.264  21.775  12.118
92094W        W63820  12.212  23.397  12.467
92095W        W63821  21.054  23.602  11.006
92096W        W63822  40.430  30.595  11.664
92097W        W63823   5.466  28.952   3.774
92098W        W63824  44.695  14.628  14.425
92099W        W63825   3.710   1.713   2.850
92100W        W63826  43.469  44.706   2.192
92101W        W63827  40.896  17.351   2.261
92102W        W63828   5.829  36.018   1.427
92103W        W63829  32.604  34.001  12.085
92104W        W63830  23.158  36.976   4.326
92105W        W63831   0.889   2.658  11.584
92106W        W63832  23.804   7.036  13.790
92107W        W63833  27.498  35.383  14.023
92108W        W63834   9.172   7.864   2.664
92109W        W63835  43.331  21.908   3.303
92110W        W63836   1.477   7.084  12.122
92111W        W63837  25.854   1.318   4.959
92112W        W63838  20.727   8.435  14.479
92113W        W63839  34.031   7.149  10.757
92114W        W63840  22.022   7.340   1.015
92115W        W63841   3.714   1.801  13.371
92116W        W63842  35.872  40.440   0.237
92117W        W63843  38.659  12.746   3.089
92118W        W63844  12.344  14.829  12.967
92119W        W63845  24.005  32.546   4.001
92120W        W63846  24.047  43.389  11.147
92121W        W63847  22.905  12.561   3.716
92122W        W63848  43.858  38.343   3.500
92123W        W63849  36.532  43.850   3.267
92124W        W63850  18.628  10.840  14.573
92125W        W63851  41.273  19.099  12.070
92126W        W63852  43.095  38.927   3.752
92127W        W63853  30.870  33.827  11.622
92128W        W63854  31.904  20.600  13.971
92129W        W63855   9.450   3.280   4.616
92130W        W63856  36.086  21.634   1.595
92131W        W63857  43.969  27.629   2.163
92132W        W63858  43.924  14.204  12.489
92133W        W63859  42.837  37.469   3.895
92134W        W63860  37.909  40.929   4.759
92135W        W63861  35.113  30.742  11.187
92136W        W63862  44.833  25.319  12.396
92137W        W63863  37.352  25.552   2.932
92138W        W63864   9.857  24.805   4.151
92139W        W63865   5.464   7.953  11.454
92140W        W63866  39.685  15.132   4.723
92141W        W63867  13.148   0.703   3.391
92142W        W63868  35.893  39.914   1.383
92143W        W63869   0.806   7.795  13.324
92144W        W63870  31.430  41.254  12.536
92145W        W63871  27.191  18.437  13.523
92146W        W63872  23.604  26.106   4.480
92147W        W63873   2.766  23.067   2.353
92148W        W63874  38.052  42.423   2.431
92149W        W63875   9.679   9.385  11.143
92150W        W63876  21.948  32.234  10.971
92151W        W63877   8.736  25.887   3.145
92152W        W63878  26.041   8.653   0.435
92153W        W63879  15.945   8.020   3.834
92154W        W63880  41.800  19.237  13.337
92155W        W63881  29.066  29.977   1.831
92156W        W63882  29.183   9.415   3.546
92157W        W63883   9.584   6.470  10.405
92158W        W63884   3.611   1.478   3.284
92159W        W63885  38.568   4.653   2.824
92160W        W63886  21.434  33.844   5.100
92161W        W63887  35.881   1.228  13.331
92162W        W63888  31.954  39.882  14.318
92163W        W63889  24.195  13.714  10.277
92164W        W63890  12.164   2.821   1.183
92165W        W63891  12.772  13.264  12.022
92166W        W63892  17.011  42.886   1.538
92167W        W63893  32.576  34.712   5.076
92168W        W63894  24.861  38.873  14.890
92169W        W63895  23.678  42.398  10.477
92170W        W63896  36.435  10.657   1.858
92171W        W63897  30.058  17.578  13.862
92172W        W63898  16.258  11.866  14.932
92173W        W63899   0.219   1.846   1.121
92174W        W63900  23.995  38.507   1.805
92175W        W63901  28.695  23.657  11.403
92176W        W63902   5.896  10.875  13.068
92177W        W63903  36.453  37.191  10.779
92178W        W63904  15.779  19.911  11.690
92179W        W63905   2.805  24.435  10.648
92180W        W63906  22.052  31.850   3.230
92181W        W63907  34.131  35.141  13.854
92182W        W63908  44.937  37.059  13.071
92183W        W63909   3.906  28.885  14.010
92184W        W63910   6.577   7.960  11.078
92185W        W63911  44.810  24.132   3.693
92186W        W63912  33.152   0.874  14.824
92187W        W63913   7.507  23.899  13.031
92188W        W63914   3.759  15.108  14.809
92189W        W63915  31.332  16.728   2.337
92190W        W63916  12.272  32.690   0.298
92191W        W63917  18.591  29.037  10.715
92192W        W63918   1.949  18.770  11.596
92193W        W63919  30.669  27.884  11.746
92194W        W63920  14.659   3.226  11.918
92195W        W63921  14.846   0.937   4.606
92196W        W63922   4.536  12.256  13.031
92197W        W63923   4.888  11.170   4.279
92198W        W63924   0.999  34.789   2.531
92199W        W63925  36.475  26.405   3.761
92200W        W63926  28.142  13.831   0.679
92201W        W63927  36.888  36.092  13.061
92202W        W63928  40.022  21.671   3.169
92203W        W63929  31.208  38.918   3.474
92204W        W63930  14.648  31.438  14.939
92205W        W63931  21.733  32.473   2.397
92206W        W63932  33.238  44.405  13.472
92207W        W63933   7.876   0.937   4.009
92208W        W63934  25.836  32.962   0.312
92209W        W63935  36.883  39.920   0.002
92210W        W63936  27.550  34.125   4.623
92211W        W63937  26.702  15.682   5.004
92212W        W63938   0.600  38.118   1.454
92213W        W63939  13.967  19.206  10.766
92214W        W63940  33.984   0.464   0.331
92215W        W63941   5.079  13.961   0.737
92216W        W63942  43.185  24.188  13.828
92217W        W63943  33.117   5.729  14.091
92218W        W63944  42.706  31.550   4.342
92219W        W63945   0.682  22.914   2.700
92220W        W63946  18.289  44.638  12.071
92221W        W63947   4.903  31.575  10.720
92222W        W63948   0.808  30.130  12.036
92223W        W63949   7.185  42.153   1.739
92224W        W63950   6.005   8.795  14.581
92225W        W63951  21.717  25.196   4.191
92226W        W63952  35.954   8.513   4.243
92227W        W63953  21.575  32.964   0.451
92228W        W63954  12.148  38.167  11.238
92229W        W63955  24.113  35.631  14.848
92230W        W63956  12.829  24.890  12.028
92231W        W63957  44.304   8.930   3.698
92232W        W63958  19.985   4.961   0.532
92233W        W63959  10.174  36.865   3.624
92234W        W63960  13.188  15.530   2.756
92235W        W63961  25.893  30.394   2.480
92236W        W63962  12.261  36.438   0.772
92237W        W63963  29.863  22.190   4.342
92238W        W63964  16.174  10.835   2.360
92239W        W63965  11.117  29.583   1.858
92240W        W63966   7.147  44.197   3.967
92241W        W63967   1.154  28.626  10.660
92242W        W63968  13.173   3.080  13.796
92243W        W63969  16.586  26.029   4.678
92244W        W63970  16.114  24.603  11.809
92245W        W63971  41.487   3.844  14.913
92246W        W63972   2.919  11.652   4.670
92247W        W63973   4.476  34.487   1.298
92248W        W63974   8.749  34.632  11.148
92249W        W63975  38.476   5.279  10.762
92250W        W63976  35.073   2.063  11.056
92251W        W63977  43.195  34.976   4.093
92252W        W63978  39.922   5.077  14.023
92253W        W63979  42.014  24.529   1.406
92254W        W63980  12.322  41.030  14.789
92255W        W63981  17.974  11.764   0.945
92256W        W63982  35.615  15.144  11.231
92257W        W63983  42.903  35.378   2.427
92258W        W63984  27.871   3.626  11.608
92259W        W63985  26.589  14.391   4.355
92260W        W63986  28.388   8.873  11.388
92261W        W63987  11.441  12.837  14.887
92262W        W63988  16.329   7.848   1.624
92263W        W63989  16.224   1.072  12.977
92264W        W63990  16.673  30.349  12.012
92265W        W63991  13.422  16.379   2.377
92266W        W63992  31.402  14.561   3.799
92267W        W63993  16.120   1.746  11.213
92268W        W63994  39.608  19.163  10.707
92269W        W63995  19.218   4.806  10.578
92270W        W63996   9.432  18.181   3.159
92271W        W63997  35.393   6.358   0.955
92272W        W63998   0.123   7.793  12.607
92273W        W63999  31.521  14.144   1.695
92274W        W64000  30.907  40.896   3.081
92275W        W64001  10.224   9.103   1.883
92276W        W64002  28.932  39.035   0.776
92277W        W64003  13.768  26.701  11.716
92278W        W64004   6.168  44.412  10.115
92279W        W64005  30.469  14.606   2.262
92280W        W64006  29.970  22.635   2.073
92281W        W64007   7.226  25.240   0.693
92282W        W64008   9.356  38.436  11.140
92283W        W64009  11.529  28.574   0.918
92284W        W64010  43.110   9.146   0.572
92285W        W64011   1.499  13.907   3.663
92286W        W64012  10.393  31.660  11.182
92287W        W64013   7.265  37.667   4.285
92288W        W64014  15.617   7.432   1.662
92289W        W64015  17.850  28.885   0.750
92290W        W64016  19.893   0.803   0.860
92291W        W64017  35.548  15.156   4.834
92292W        W64018  22.147  17.697  11.947
92293W        W64019  35.547   5.621  11.141
92294W        W64020  15.837  24.016  12.505
92295W        W64021  20.841  19.664  11.678
92296W        W64022  27.602  41.220   1.434
92297W        W64023   7.650  35.947  13.791
92298W        W64024  14.632  39.816  13.918
92299W        W64025  20.006   8.452  11.107
92300W        W64026  36.871  41.579   3.252
92301W        W64027  32.972   7.980   3.865
92302W        W64028  35.014  15.717   3.083
92303W        W64029  13.621  37.951  12.849
92304W        W64030   1.372   1.059   4.566
92305W        W64031   9.416  11.615   1.216
92306W        W64032  17.210  34.113  12.430
92307W        W64033  39.382  38.476   2.436
92308W        W64034  17.613  17.831   3.818
92309W        W64035  28.416  17.300  13.535
92310W        W64036  35.582  22.641   0.318
92311W        W64037  21.653  18.672   0.692
92312W        W64038  22.468   8.759  12.334
92313W        W64039   0.536  28.538   3.142
92314W        W64040  26.759   8.116  12.823
92315W        W64041  20.171  13.289   3.853
92316W        W64042  24.677  26.459   1.747
92317W        W64043  27.294   3.812   1.532
92318W        W64044   0.784  14.690  13.444
92319W        W64045  21.475  15.312  10.187
92320W        W64046  39.967  27.676   2.867
92321W        W64047  18.911  37.491  11.130
92322W        W64048  28.698   2.189  14.494
92323W        W64049  26.395  34.439   0.109
92324W        W64050  25.319  37.820  13.968
92325W        W64051  31.661  16.709  10.411
92326W        W64052  14.361   4.954  13.449
92327W        W64053  30.883   0.915  13.862
92328W        W64054  25.490   2.454   2.204
92329W        W64055   3.981  14.898  10.736
92330W        W64056  35.260  19.678  10.768
92331W        W64057  31.815  10.609  12.701
92332W        W64058  35.870  24.802   2.258
92333W        W64059  39.573  20.472   2.326
92334W        W64060  43.909   8.557  12.465
92335W        W64061   5.710  15.844   4.759
92336W        W64062  33.430   8.798   4.323
92337W        W64063  43.133  29.005   3.826
92338W        W64064  37.676  10.148  13.695
92339W        W64065  17.571  14.517   1.471
92340W        W64066   8.669  35.920  12.616
92341W        W64067   5.969  31.224  11.095
92342W        W64068  27.180  23.463  11.577
92343W        W64069   6.248  16.714   2.117
92344W        W64070   3.179   1.555  10.674
92345W        W64071  21.515  44.635   3.942
92346W        W64072   9.196  19.004   2.925
92347W        W64073  43.438  16.590  10.517
92348W        W64074  29.261  28.142   2.268
92349W        W64075   7.765   9.408   1.285
92350W        W64076  10.374  31.406   4.117
92351W        W64077  27.625  34.626  10.426
92352W        W64078  38.349  39.535  11.548
92353W        W64079  28.642  11.758   0.841
92354W        W64080  41.293  34.836   2.702
92355W        W64081  18.328  18.124  14.331
92356W        W64082  31.001  25.039  12.357
92357W        W64083   1.752  42.574   2.873
92358W        W64084  36.974  41.544   1.386
92359W        W64085  12.300  16.348   0.367
92360W        W64086  21.732   9.465  12.998
92361W        W64087  20.761  42.585  11.047
92362W        W64088  35.967  44.529  13.806
92363W        W64089   6.433  25.635  13.397
92364W        W64090  33.298  19.218  13.392
92365W        W64091   7.481  33.185  11.707
92366W        W64092  36.011  29.501   3.571
92367W        W64093  36.151  36.929   3.659
92368W        W64094  35.775   8.330  13.927
92369W        W64095  24.172  29.675   3.602
92370W        W64096   1.531  11.633  14.362
92371W        W64097  43.115  16.214   0.236
92372W        W64098  10.248  16.315  12.075
92373W        W64099  29.034  31.598   2.435
92374W        W64100  43.997  10.713   0.283
92375W        W64101  11.499  19.496   3.130
92376W        W64102   7.958  24.238   2.359
92377W        W64103  40.348   5.653   4.095
92378W        W64104  35.579  37.414   3.190
92379W        W64105   0.899  17.537  12.526
92380W        W64106  40.946  18.536  14.974
92381W        W64107  12.736  24.970   0.744
92382W        W64108   2.990  41.757   4.825
92383W        W64109  40.487  40.412  12.497
92384W        W64110   1.262  22.578  12.012
92385W        W64111   5.963  15.503   3.839
92386W        W64112  24.698  36.358   0.664
92387W        W64113   3.943  16.542  10.672
92388W        W64114  10.049  15.999   0.922
92389W        W64115  38.329  29.891   1.962
92390W        W64116   3.872  13.914   0.463
92391W        W64117  42.899  23.678   1.702
92392W        W64118  27.730  20.206   2.673
92393W        W64119  22.024  36.306  14.902
92394W        W64120  38.255  30.980   3.436
92395W        W64121  28.680  24.543   4.701
92396W        W64122  15.832  40.382   4.523
92397W        W64123   5.697  20.185  13.990
92398W        W64124  31.521  14.056   3.734
92399W        W64125  41.727  22.658  10.553
92400W        W64126  41.245   2.277  11.782
92401W        W64127  41.780   8.316   2.812
92402W        W64128  19.948  20.067  13.023
92403W        W64129   5.676  37.077   2.806
92404W        W64130   7.618  15.329  14.623
92405W        W64131  34.629  38.893   2.013
92406W        W64132  27.262  28.030   2.120
92407W        W64133  23.732  22.012   3.373
92408W        W64134   4.971  12.648   1.231
92409W        W64135  39.839   5.021   3.739
92410W        W64136  25.192   8.126  11.142
92411W        W64137  11.236  25.934   0.929
92412W        W64138  10.843  40.503  14.804
92413W        W64139  20.063  11.731   3.750
92414W        W64140  33.108  41.408   2.843
92415W        W64141  17.063   5.326   3.122
92416W        W64142   5.778  34.622  13.770
92417W        W64143  10.668  24.029  12.821
92418W        W64144  39.065  16.335  12.989
92419W        W64145  13.346   6.274  12.949
92420W        W64146  15.722  35.027  12.440
92421W        W64147  34.059  23.562   4.125
92422W        W64148  15.313  27.662   0.836
92423W        W64149  44.251  44.886  14.971
92424W        W64150  24.109  19.610   3.744
92425W        W64151  30.987  21.820  11.099
92426W        W64152  29.218  26.614  10.634
92427W        W64153   7.091   6.408   5.064
92428W        W64154  44.402   1.200  12.582
92429W        W64155  44.487  15.854  11.552
92430W        W64156   1.773  39.935   4.445
92431W        W64157  13.668  17.286   2.472
92432W        W64158  14.129   9.225  12.112
92433W        W64159  16.148  23.535  10.950
92434W        W64160  13.631  13.618   2.370
92435W        W64161  42.091   3.453   4.127
92436W        W64162  41.316  36.894   4.794
92437W        W64163  24.594  23.271  12.147
92438W        W64164  23.533   8.872   0.494
92439W        W64165  30.972  14.788   3.634
92440W        W64166  28.793  35.918  12.719
92441W        W64167  16.793  37.085   0.005
92442W        W64168  36.426  15.380   3.722
92443W        W64169   4.858   0.316   2.711
92444W        W64170  13.165  15.285   0.975
92445W        W64171  37.464  27.447   5.122
92446W        W64172  37.743   8.172   3.994
92447W        W64173   0.818   9.362  11.705
92448W        W64174  29.291  33.465   1.704
92449W        W64175  37.109   2.768   1.727
92450W        W64176  32.692  40.107  12.049
92451W        W64177  41.780  27.190  12.821
92452W        W64178  40.421  11.986   2.814
92453W        W64179  36.895  19.033  12.909
92454W        W64180  18.295  31.651   4.162
92455W        W64181  22.195  18.679   1.320
92456W        W64182  38.436   9.523  11.082
92457W        W64183  23.502  39.229  12.847
92458W        W64184   3.682  22.749  11.637
92459W        W64185  32.044   8.427   1.710
92460W        W64186   2.872  37.934   1.661
92461W        W64187  44.987  42.069   4.666
92462W        W64188  44.376  16.063   1.350
92463W        W64189   6.915   8.855   1.182
92464W        W64190  37.509   0.801   1.915
92465W        W64191  17.338  22.557   5.084
92466W        W64192  26.669  35.479  10.699
92467W        W64193  12.861  39.930   4.600
92468W        W64194   1.838  19.747  13.948
92469W        W64195  43.293  27.307  12.520
92470W        W64196  35.646  38.016  14.578
92471W        W64197   5.456   9.209  13.794
92472W        W64198  27.188  28.480   1.255
92473W        W64199  35.927  26.587  12.516
92474W        W64200  33.872   3.906   2.398
92475W        W64201   3.031  19.095   1.399
92476W        W64202   5.934   8.097   3.327
92477W        W64203  40.386  33.052  10.969
92478W        W64204   9.786  30.520   3.370
92479W        W64205   4.324  25.570  13.197
92480W        W64206  32.433  30.449  13.644
92481W        W64207  27.192  15.373  10.972
92482W        W64208  36.950   9.219  10.819
92483W        W64209  19.002   3.067   3.406
92484W        W64210  24.846  35.938  13.893
92485W        W64211   9.608   8.416   0.645
92486W        W64212   6.486  15.068   4.228
92487W        W64213  12.341  13.680   2.750
92488W        W64214  32.848  17.955   3.503
92489W        W64215  42.490  41.983  12.031
92490W        W64216  40.927  13.758   4.622
92491W        W64217  28.604  34.993  13.111
92492W        W64218   2.066  19.248   0.375
92493W        W64219  10.010  25.478   3.007
92494W        W64220  13.733  39.384  11.616
92495W        W64221   8.863  33.946  14.911
92496W        W64222   6.294   5.772   0.294
92497W        W64223  41.442  22.266  10.842
92498W        W64224  37.561  18.641  14.400
92499W        W64225  18.843   9.161   2.599
92500W        W64226  30.900  21.485   4.533
92501W        W64227  30.937   1.337   3.591
92502W        W64228  41.795  36.988   4.648
92503W        W64229  21.245   0.816   2.579
92504W        W64230  36.896   5.644  14.930
92505W        W64231   3.889  32.520   2.662
92506W        W64232  36.711  14.215   3.676
92507W        W64233  31.474  37.463   4.232
92508W        W64234  33.610   1.036   0.405
92509W        W64235  35.383  24.505  13.235
92510W        W64236   5.174  24.486   3.248
92511W        W64237  41.984  22.295  10.276
92512W        W64238  27.435  17.994  14.868
92513W        W64239  15.278  19.599   1.472
92514W        W64240   6.937  22.938  11.124
92515W        W64241  23.579  31.557   0.525
92516W        W64242  24.199   8.668   4.463
92517W        W64243  17.064  10.721   4.790
92518W        W64244  35.322  26.289  14.063
92519W        W64245  31.387  22.343  12.497
92520W        W64246  13.814  25.772   3.335
92521W        W64247  28.415   0.815  14.766
92522W        W64248  14.808  22.197   3.833
92523W        W64249   2.349  26.182   4.038
92524W        W64250  16.331  39.136  14.424
92525W        W64251   4.077   8.303  10.527
92526W        W64252  44.795  25.187   5.089
92527W        W64253  22.622  42.941   0.433
92528W        W64254  23.058   0.387   3.400
92529W        W64255   6.202  40.098  12.229
92530W        W64256  21.034   8.126  14.747
92531W        W64257  11.873   1.325   4.647
92532W        W64258  33.125  19.212   4.739
92533W        W64259  13.509   5.420   4.149
92534W        W64260  25.137  27.132  11.443
92535W        W64261   8.696  18.512  12.396
92536W        W64262  36.592  32.589  12.603
92537W        W64263   1.468  30.201  11.152
92538W        W64264  13.736  19.560   3.640
92539W        W64265   0.962   0.690   5.037
92540W        W64266   2.431   0.421   4.257
92541W        W64267  31.214  13.408  12.857
92542W        W64268  44.715  28.039   0.911
92543W        W64269   1.844  25.854  13.099
92544W        W64270  19.026  31.062   4.708
92545W        W64271  31.436  19.054   3.686
92546W        W64272  39.224  24.097   0.975
92547W        W64273  42.251  27.950   0.397
92548W        W64274  16.206  15.179   4.603
92549W        W64275  13.322   4.195  13.849
92550W        W64276  12.067   1.914   0.864
92551W        W64277  41.405  13.113   1.755
92552W        W64278   0.952  14.099   0.937
92553W        W64279  24.979  43.971   2.235
92554W        W64280  16.444  15.672   0.887
92555W        W64281   0.926  30.215   1.690
92556W        W64282   6.149  24.091  10.478
92557W        W64283  25.611  40.850  12.021
92558W        W64284  26.439  26.063  10.748
92559W        W64285  41.786  29.600   3.768
92560W        W64286  32.837  33.030   3.175
92561W        W64287  41.468  29.691  11.956
92562W        W64288  13.245  39.064   4.151
92563W        W64289  40.466  25.224   1.761
92564W        W64290  31.457  25.436  13.494
92565W        W64291  28.405   2.979  13.079
92566W        W64292  10.106  39.766  11.360
92567W        W64293  16.156  19.554   4.494
92568W        W64294  34.106  32.032  10.761
92569W        W64295  31.884  10.678  10.893
92570W        W64296  33.508   2.456  11.961
92571W        W64297  38.297  32.125   4.243
92572W        W64298  11.220  36.521  11.128
92573W        W64299  21.352   2.550   3.774
92574W        W64300  13.102  34.305  12.465
92575W        W64301  17.060  16.075   0.405
92576W        W64302  25.657  43.475  13.283
92577W        W64303  33.049  33.020   4.763
92578W        W64304  15.540   2.981   4.162
92579W        W64305  13.206  34.298  13.722
92580W        W64306  16.086  44.725  13.502
92581W        W64307  37.293  23.027  12.504
92582W        W64308  44.262  38.024  14.301
92583W        W64309  34.002  37.520   0.966
92584W        W64310  33.424   5.656  14.512
92585W        W64311  11.331  25.022   2.015
92586W        W64312  29.928  30.846  11.113
92587W        W64313  43.282  29.512  11.514
92588W        W64314   4.899   1.941  11.571
92589W        W64315  21.507  19.109  11.959
92590W        W64316  34.054   9.079   0.826
92591W        W64317  36.122  39.415  10.681
92592W        W64318  40.995  32.362  14.318
92593W        W64319  17.250  39.575   3.677
92594W        W64320  31.565   0.782   2.289
92595W        W64321   8.303   7.459   2.209
92596W        W64322  38.109  37.871  14.063
92597W        W64323  10.859  33.365   0.591
92598W        W64324  38.507  11.122   2.181
92599W        W64325  31.962  26.616  12.561
92600W        W64326  17.124   1.742  12.023
92601W        W64327   0.312  24.978  11.680
92602W        W64328  10.831  19.577   2.661
92603W        W64329  29.357  34.256   3.228
92604W        W64330  42.899  28.780   3.430
92605W        W64331   7.845  31.692   0.282
92606W        W64332  32.077   4.629   1.998
92607W        W64333  41.343  14.136   3.573
92608W        W64334  18.580  44.381   3.756
92609W        W64335  11.955  21.709  10.749
92610W        W64336   9.393   1.172  12.861
92611W        W64337   3.868  34.923   4.326
92612W        W64338   4.051  24.025   9.979
92613W        W64339  11.090  37.948   2.412
92614W        W64340  20.224  32.892  11.191
92615W        W64341   6.355  11.350   0.364
92616W        W64342  27.995  39.398   1.683
92617W        W64343  31.781   2.151   1.226
92618W        W64344  27.375  14.583   1.844
92619W        W64345   3.903  38.937  12.553
92620W        W64346  18.771  26.270  14.276
92621W        W64347  29.405  16.178   2.421
92622W        W64348  32.891  38.654  13.023
92623W        W64349  30.047  24.645  13.843
92624W        W64350  22.057  24.823   4.262
92625W        W64351  12.152  38.298   1.303
92626W        W64352  17.203  28.426  10.363
92627W        W64353  20.358  24.303   0.798
92628W        W64354   5.104  25.308  11.079
92629W        W64355  43.841  12.231   4.034
92630W        W64356  21.552  20.738   3.717
92631W        W64357  39.351  43.521  12.337
92632W        W64358  18.468   6.402   1.315
92633W        W64359   2.196  37.971   2.235
92634W        W64360  14.207  44.298   4.569
92635W        W64361  15.855  44.166   5.159
92636W        W64362   7.707  17.267  12.548
92637W        W64363  19.772  44.510   1.446
92638W        W64364  19.442   3.680  12.815
92639W        W64365  42.775  29.892  14.477
92640W        W64366  35.011  19.603   3.733
92641W        W64367  34.913  26.002  13.871
92642W        W64368  18.802   9.607   2.877
92643W        W64369  11.693   8.680  11.496
92644W        W64370  23.080  33.403   2.909
92645W        W64371  17.634  35.372   3.619
92646W        W64372  34.015   1.286  12.900
92647W        W64373   4.947  32.919  12.785
92648W        W64374  25.779  11.993  11.073
92649W        W64375  31.566  32.955   1.210
92650W        W64376   9.829  27.553  14.669
92651W        W64377  44.799  36.434  13.875
92652W        W64378  43.890  12.020   0.416
92653W        W64379  43.882   0.803  14.120
92654W        W64380  44.434  17.728   4.584
92655W        W64381  36.170  30.853  13.197
92656W        W64382  32.927  37.646  13.714
92657W        W64383  20.747  23.757   0.377
92658W        W64384  23.396  29.377   4.986
92659W        W64385  40.709  37.989  10.927
92660W        W64386   8.276  34.513  14.446
92661W        W64387  31.887  42.955   2.351
92662W        W64388  12.423  37.658  13.197
92663W        W64389  31.394  24.542   0.151
92664W        W64390  30.727  15.603  10.641
92665W        W64391  37.015   0.787  11.098
92666W        W64392   7.849   0.349  14.712
92667W        W64393   0.894  23.694   0.002
92668W        W64394  42.120  42.553   4.325
92669W        W64395   2.194  34.778   0.346
92670W        W64396  31.484   4.985  10.618
92671W        W64397   7.452   9.979  13.363
92672W        W64398  14.846  37.901  13.426
92673W        W64399  10.310  37.945   2.801
92674W        W64400  14.833  39.198  10.244
92675W        W64401   9.403  12.615  11.999
92676W        W64402   5.622   7.530  10.312
92677W        W64403  36.019   8.201   4.648
92678W        W64404  17.790  23.358  11.210
92679W        W64405  35.181  20.295  14.333
92680W        W64406  42.843  42.529   0.380
92681W        W64407  31.085  12.353   2.633
92682W        W64408  44.791   9.827   0.309
92683W        W64409  21.728  41.906  14.708
92684W        W64410   8.298  44.581  14.307
92685W        W64411  44.001  11.601   3.615
92686W        W64412  41.354  31.083   4.260
92687W        W64413  11.849  41.488   1.469
92688W        W64414  35.126  18.888  13.803
92689W        W64415   9.806  21.054   3.385
92690W        W64416  41.406  32.017   2.670
92691W        W64417   7.691  39.940  11.890
92692W        W64418  11.591   1.205  12.508
92693W        W64419   3.969  12.803   3.720
92694W        W64420  26.676  10.723   4.133
92695W        W64421  24.948   5.673  11.919
92696W        W64422   7.260  13.194  14.881
92697W        W64423  19.086  18.535   4.158
92698W        W64424  27.064  29.412  11.580
92699W        W64425  12.286  33.137   0.558
92700W        W64426  20.177  15.930  14.783
92701W        W64427   9.770  43.493  13.007
92702W        W64428   7.609  19.535   1.743
92703W        W64429  43.943  23.920  14.442
92704W        W64430  15.779  24.658  14.367
92705W        W64431  29.801  36.953   1.561
92706W        W64432  18.315  35.510  11.871
92707W        W64433  10.322  31.364  13.475
92708W        W64434   7.355   4.233  11.000
92709W        W64435   0.150  21.035  12.921
92710W        W64436  22.793  13.591   3.416
92711W        W64437  34.587  41.394  12.862
92712W        W64438  10.506  16.160  13.898
92713W        W64439  31.678  26.739  10.885
92714W        W64440   6.146  21.733  14.776
92715W        W64441  25.166  30.975  14.214
92716W        W64442  18.556  20.702  12.008
92717W        W64443  32.641  14.877   1.805
92718W        W64444  20.627  34.742  14.598
92719W        W64445  26.061   2.739  13.843
92720W        W64446  17.078  24.509  12.413
92721W        W64447  12.255  38.931  10.728
92722W        W64448  35.926  38.891  13.297
92723W        W64449   4.632   4.185  13.320
92724W        W64450   8.927  26.000   5.487
92725W        W64451  17.385  39.289  14.101
92726W        W64452  29.297  42.234  14.125
92727W        W64453  25.339  11.665  14.063
92728W        W64454  29.924  34.238  10.823
92729W        W64455  11.663  20.040  14.793
92730W        W64456  41.534  23.682  11.103
92731W        W64457   2.586  38.391  11.936
92732W        W64458  10.301  16.295   4.024
92733W        W64459  31.900  20.032  11.216
92734W        W64460  26.256  19.786   0.907
92735W        W64461   2.495  13.230  12.026
92736W        W64462  43.308  24.491   3.181
92737W        W64463  33.550  19.776  11.435
92738W        W64464  12.374   1.537   3.678
92739W        W64465  15.570  18.267  13.258
92740W        W64466  22.619  42.463   0.653
92741W        W64467  39.464  18.108   0.938
92742W        W64468  11.259   6.684  11.331
92743W        W64469  40.830   2.571  11.604
92744W        W64470  40.162  27.468  14.823
92745W        W64471  14.468  12.264   2.276
92746W        W64472  11.555  14.546   3.764
92747W        W64473  30.710  36.537   4.604
92748W        W64474   4.207   9.398   1.376
92749W        W64475  28.231  15.868  13.403
92750W        W64476  42.034  35.985   3.682
92751W        W64477  19.577   2.420   4.564
92752W        W64478   0.939   6.979  11.252
92753W        W64479  17.259  11.677  10.991
92754W        W64480  28.037  43.298   3.749
92755W        W64481  21.543  44.216   0.014
92756W        W64482  36.304  24.812  11.087
92757W        W64483  15.007  43.478   3.254
92758W        W64484  39.604  43.376  11.124
92759W        W64485  40.942  25.945   3.104
92760W        W64486  32.538  23.249   2.668
92761W        W64487  37.974  39.357  13.752
92762W        W64488  43.550  43.017   1.900
92763W        W64489  16.276   4.670   1.810
92764W        W64490  12.120  43.718  14.307
92765W        W64491  20.316  37.405   1.233
92766W        W64492   6.900  38.243   1.881
92767W        W64493  16.327   2.744   0.381
92768W        W64494  39.386  23.139   1.894
92769W        W64495  21.327  38.542   2.357
92770W        W64496  40.530  16.690  12.051
92771W        W64497  27.823  26.239  13.953
92772W        W64498   6.236  16.807   0.699
92773W        W64499  13.858  27.605  11.050
92774W        W64500  18.535  39.833   0.299
92775W        W64501  40.353  24.157   4.543
92776W        W64502  27.181   9.431   1.455
92777W        W64503  41.886  23.166  12.984
92778W        W64504  44.443  17.531  11.073
92779W        W64505  17.056  30.113  14.795
92780W        W64506   5.478   5.681  11.013
92781W        W64507  43.730   6.585  14.489
92782W        W64508  37.960  18.322   5.192
92783W        W64509  40.595  25.731   1.737
92784W        W64510  29.108   1.025  12.869
92785W        W64511  43.861   8.187  11.040
92786W        W64512  40.890  17.413  11.611
92787W        W64513  30.199   9.778  11.217
92788W        W64514   1.256   6.615   2.838
92789W        W64515   8.835  34.362  11.594
92790W        W64516   4.453   8.889   3.848
92791W        W64517   8.373   6.852  12.593
92792W        W64518  35.408  43.323   0.821
92793W        W64519  21.931  28.375   4.552
92794W        W64520  35.865  29.640  12.950
92795W        W64521  16.600  39.881  14.898
92796W        W64522  34.446  23.260   1.874
92797W        W64523  10.304  33.382   3.155
92798W        W64524  17.350   2.562  11.214
92799W        W64525  39.363   2.852   3.100
92800W        W64526   2.926  32.149  14.116
92801W        W64527  29.545  24.539  12.504
92802W        W64528  34.925  11.327  13.991
92803W        W64529   4.844  40.999  12.474
92804W        W64530  20.241  39.339  13.429
92805W        W64531  15.132  11.588  10.780
92806W        W64532  43.404  20.031   0.289
92807W        W64533  34.205  16.434   3.039
92808W        W64534  11.359  11.243   4.517
92809W        W64535  26.464  11.136   1.241
92810W        W64536   4.257  41.475   4.294
92811W        W64537  39.875  13.253   1.878
92812W        W64538   5.521   8.889  11.970
92813W        W64539   5.293   4.923   2.828
92814W        W64540  37.511   4.397  13.016
92815W        W64541  14.642  18.435   2.756
92816W        W64542  14.653  35.448   3.309
92817W        W64543   3.823  39.683  14.927
92818W        W64544  38.816  14.784   0.787
92819W        W64545  36.022  25.777  14.388
92820W        W64546  17.242   7.546   1.323
92821W        W64547  10.833  31.725   3.224
92822W        W64548  22.179  10.744  13.381
92823W        W64549  13.521  37.943   3.798
92824W        W64550  24.974   8.117  14.694
92825W        W64551   1.376  38.855  14.276
92826W        W64552  13.093  40.229   3.143
92827W        W64553   4.466   5.555   5.211
92828W        W64554  35.638  27.068  10.531
92829W        W64555  13.304  14.547  13.995
92830W        W64556  39.814  36.378  12.053
92831W        W64557   8.818  37.115  12.986
92832W        W64558  25.900  34.744   2.027
92833W        W64559  16.680  16.743   3.204
92834W        W64560  10.668   6.881   4.367
92835W        W64561  33.939  29.987   3.381
92836W        W64562  19.314  24.052   3.849
92837W        W64563  36.927  12.946   3.162
92838W        W64564   4.442   6.233  10.689
92839W        W64565   0.833  15.368  12.568
92840W        W64566  31.075  32.795  12.846
92841W        W64567  31.908  28.425   2.193
92842W        W64568  44.583   5.756   0.789
92843W        W64569  18.623  16.309   3.145
92844W        W64570   3.933  36.874   1.908
92845W        W64571  11.882  18.795  11.106
92846W        W64572  26.244  42.969  10.727
92847W        W64573   8.280  10.269   2.457
92848W        W64574   1.331  41.610   1.702
92849W        W64575  42.382  20.232   4.980
92850W        W64576  18.700  29.478  13.206
92851W        W64577   0.341  15.613  13.909
92852W        W64578  23.864  38.400  14.454
92853W        W64579  24.249  34.530   1.744
92854W        W64580  41.505  13.939   1.033
92855W        W64581  13.611  34.544   2.312
92856W        W64582  32.546  38.836  11.831
92857W        W64583  10.623  20.698   0.941
92858W        W64584  36.130  41.080  11.631
92859W        W64585   0.386  21.201   0.973
92860W        W64586  38.048  33.811  14.312
92861W        W64587   4.032   7.663   4.722
92862W        W64588  19.856  37.404   1.790
92863W        W64589  13.598  19.020   1.630
92864W        W64590  39.791  18.995  12.022
92865W        W64591   4.481  18.845   1.171
92866W        W64592   4.677  14.453   0.654
92867W        W64593  23.306  44.469   0.351
92868W        W64594  18.094  39.862  14.978
92869W        W64595   8.174   9.706   1.214
92870W        W64596  21.319  25.659   1.834
92871W        W64597  19.051  14.523  12.917
92872W        W64598  23.696  27.544   3.639
92873W        W64599  30.721  13.668   4.153
92874W        W64600  21.055  38.833  14.429
92875W        W64601   3.623   2.304   0.618
92876W        W64602  33.428  15.645   3.704
92877W        W64603  39.953  23.777   1.456
92878W        W64604   6.403  24.615   3.703
92879W        W64605  10.722  34.935   2.349
92880W        W64606  16.838   2.319   1.275
92881W        W64607  40.802  35.876  11.428
92882W        W64608   4.566  26.487   2.693
92883W        W64609  36.024  14.132  12.061
92884W        W64610  43.856  34.925  11.610
92885W        W64611  11.768  15.746  12.400
92886W        W64612  44.911   4.333   4.245
92887W        W64613   6.592   4.827  11.821
92888W        W64614   6.920  39.518   4.552
92889W        W64615   1.410  13.764   4.559
92890W        W64616  11.213  19.040   3.214
92891W        W64617  26.225  16.124   1.734
92892W        W64618  29.501  42.930   1.707
92893W        W64619   5.531  35.352   4.102
92894W        W64620  17.708  40.929  11.080
92895W        W64621   5.756  28.887  12.405
92896W        W64622  10.794  32.095  12.543
92897W        W64623  34.916  29.458   1.648
92898W        W64624  39.905  43.294   0.102
92899W        W64625   7.817  31.974   4.876
92900W        W64626  44.491  11.793   2.695
92901W        W64627  21.581  40.472   3.208
92902W        W64628  40.482  14.972  11.166
92903W        W64629   8.278   5.185  13.278
92904W        W64630  32.826  21.250   2.255
92905W        W64631  10.688  22.032  11.215
92906W        W64632  17.701  17.155   0.933
92907W        W64633  30.875  16.048   2.382
92908W        W64634   0.293   6.304   2.336
92909W        W64635   6.269  31.142  13.111
92910W        W64636  31.886   2.260  10.609
92911W        W64637   7.496  40.376  11.704
92912W        W64638  43.344  11.255   0.532
92913W        W64639  28.153  30.094  13.933
92914W        W64640   7.604  14.831  11.480
92915W        W64641  19.583  44.413   2.888
92916W        W64642  42.991  22.570  11.871
92917W        W64643  18.006  19.796  11.124
92918W        W64644   1.285   2.973  11.704
92919W        W64645  29.344  13.801   3.123
92920W        W64646  42.043  28.109   5.000
92921W        W64647  14.913  33.394  10.044
92922W        W64648  22.197  10.169   0.679
92923W        W64649  43.225   2.311   4.078
92924W        W64650  20.608  24.196  14.966
92925W        W64651  22.076  29.057  12.955
92926W        W64652  36.706  24.948   1.396
92927W        W64653  40.497  21.578  14.333
92928W        W64654   6.261   0.263   2.659
92929W        W64655  15.807   1.526   1.842
92930W        W64656  28.706  22.136  12.902
92931W        W64657  12.092  30.633  14.228
92932W        W64658  42.293  36.901   4.651
92933W        W64659   3.951  39.998   2.298
92934W        W64660  20.192  26.235  12.822
92935W        W64661  10.584   3.185  11.520
92936W        W64662  27.718  34.157  11.116
92937W        W64663  29.499  43.075  14.727
92938W        W64664  13.309  23.000  14.732
92939W        W64665  25.055  35.621  12.487
92940W        W64666   4.494  22.618   1.544
92941W        W64667  32.473  16.563   3.743
92942W        W64668  33.862  35.538  11.487
92943W        W64669  21.160  21.985   0.195
92944W        W64670   4.271  31.019   1.398
92945W        W64671   3.561  17.625   5.093
92946W        W64672   8.189  33.443   4.520
92947W        W64673   6.209   8.439   4.241
92948W        W64674  16.937  34.628   1.459
92949W        W64675  14.748   6.250  12.239
92950W        W64676  30.668  39.099  10.449
92951W        W64677  30.374  13.374  12.514
92952W        W64678  28.300   6.856   5.198
92953W        W64679  30.767  17.084   3.665
92954W        W64680  11.953  33.887  12.193
92955W        W64681  26.099  32.398   4.324
92956W        W64682   5.983  30.440   2.001
92957W        W64683   8.404   9.181  14.890
92958W        W64684   0.484  42.969   3.804
92959W        W64685  15.206  18.551  12.086
92960W        W64686  18.291  20.256  12.010
92961W        W64687  18.215  24.158  11.158
92962W        W64688  34.815  29.850   0.482
92963W        W64689  17.343  35.039   0.828
92964W        W64690  14.598  29.578   3.979
92965W        W64691  27.201  27.194   3.839
92966W        W64692  12.630  25.479   0.779
92967W        W64693  24.232  10.395  12.578
92968W        W64694  36.877  28.462  14.877
92969W        W64695  28.376  28.198  13.487
92970W        W64696   4.415   6.391  10.208
92971W        W64697  27.999  20.581  11.598
92972W        W64698  23.241  36.989  14.842
92973W        W64699   8.842  32.157  14.602
92974W        W64700  41.117  21.277   3.737
92975W        W64701  31.866  39.266   1.912
92976W        W64702  11.120   6.097   2.145
92977W        W64703   4.684  18.328   0.390
92978W        W64704  13.011   0.893  11.523
92979W        W64705   4.438  17.504   4.163
92980W        W64706  23.719  28.599   1.877
92981W        W64707   3.441  42.455   2.417
92982W        W64708  17.607  30.131   0.234
92983W        W64709   0.735   6.887  10.788
92984W        W64710  34.514  37.000  13.931
92985W        W64711   6.867  25.992  12.391
92986W        W64712  38.757   6.126   4.483
92987W        W64713  29.875   8.146  12.033
92988W        W64714  12.872  36.172  12.481
92989W        W64715  20.431  22.662  12.449
92990W        W64716  30.583   4.196   4.757
92991W        W64717  24.199  34.610   4.267
92992W        W64718   2.387  24.427   3.743
92993W        W64719  40.517  16.216  14.414
92994W        W64720  19.908  28.813   2.862
92995W        W64721  41.367  17.146  12.975
92996W        W64722  19.280  36.153   0.147
92997W        W64723  12.626  12.928   1.305
92998W        W64724  22.170  11.516   1.762
92999W        W64725  25.299  44.409   0.214
93000W        W64726  27.171  12.286   2.179
93001W        W64727  17.097  24.248   2.317
93002W        W64728  23.987  44.361  13.050
93003W        W64729   8.403  12.856   4.852
93004W        W64730  40.888   1.257   4.164
93005W        W64731   1.683  39.865   0.383
93006W        W64732   3.691  10.398  11.652
93007W        W64733  26.493   4.884   4.609
93008W        W64734  40.245  32.935   4.368
93009W        W64735  36.323  11.425  14.102
93010W        W64736   9.648   0.873   2.318
93011W        W64737   1.012  25.083   1.962
93012W        W64738  40.746  40.939  11.400
93013W        W64739  40.843  12.312  12.495
93014W        W64740   4.413  25.180  14.499
93015W        W64741  24.158  17.141  14.575
93016W        W64742   7.728  34.766   2.658
93017W        W64743  28.113   4.998   2.849
93018W        W64744   0.615  30.929  12.498
93019W        W64745  13.299  40.685  12.602
93020W        W64746  36.085  33.067  14.812
93021W        W64747   7.325  40.710  14.375
93022W        W64748  33.992   4.843   4.458
93023W        W64749  32.187   6.899   1.917
93024W        W64750  13.187  35.678  12.038
93025W        W64751  22.723  39.066   9.692
93026W        W64752  31.498  17.860  11.237
93027W        W64753   5.481  19.564  11.269
93028W        W64754  31.197  35.967  10.747
93029W        W64755  15.387   5.218  12.669
93030W        W64756  41.890  40.323  12.906
93031W        W64757  14.980  24.706   2.802
93032W        W64758   3.335  28.408   0.338
93033W        W64759  25.557  42.329  11.616
93034W        W64760  37.400  19.807  13.737
93035W        W64761  28.079  31.109  12.417
93036W        W64762  34.464  44.029  13.035
93037W        W64763  23.990  36.504  14.288
93038W        W64764  23.114   2.753   0.693
93039W        W64765  27.650   2.811  14.607
93040W        W64766   0.291  36.963   4.136
93041W        W64767  29.190  41.929  12.088
93042W        W64768  28.935  41.883   4.207
93043W        W64769  28.689  34.890   1.346
93044W        W64770  43.817  40.477  14.428
93045W        W64771   4.911  13.004   0.850
93046W        W64772  16.362   2.745  13.303
93047W        W64773  37.582  32.270  13.304
93048W        W64774   2.915   9.435  14.540
93049W        W64775  25.436   5.734  14.043
93050W        W64776  11.159  21.663  11.987
93051W        W64777  33.575  31.729  11.644
93052W        W64778   9.890  21.765   3.928
93053W        W64779  23.824  41.760  14.887
93054W        W64780  17.869  23.801   0.444
93055W        W64781   8.788   1.296   4.841
93056W        W64782  26.326  43.515  14.589
93057W        W64783  23.597  43.752  14.802
93058W        W64784  33.569   4.412   4.207
93059W        W64785  10.528  44.376  14.899
93060W        W64786  18.828  13.156  13.366
93061W        W64787  25.760  26.090   0.976
93062W        W64788  11.177   8.307   2.746
93063W        W64789  18.622   6.170   1.769
93064W        W64790  32.466  25.762   3.882
93065W        W64791  16.626   0.010   1.378
93066W        W64792   9.849  39.288   0.907
93067W        W64793   6.094  37.077  13.395
93068W        W64794   6.584  22.996   1.355
93069W        W64795  25.562  26.195  12.781
93070W        W64796  10.675  11.593  14.028
93071W        W64797  25.114  37.175   0.302
93072W        W64798   3.026  14.719  10.520
93073W        W64799  21.524  32.457  11.673
93074W        W64800   5.816  20.527  12.860
93075W        W64801  27.527  23.341   0.817
93076W        W64802   4.131  37.362   3.779
93077W        W64803  11.113  11.880   0.714
93078W        W64804  36.665  11.331   0.142
93079W        W64805   3.839  38.661   3.116
93080W        W64806  35.853  27.185  11.916
93081W        W64807  23.634  15.622  11.081
93082W        W64808  43.498   7.745   3.172
93083W        W64809  40.076  12.290  12.971
93084W        W64810  40.279  27.220   2.859
93085W        W64811  44.793   7.382  13.303
93086W        W64812  23.914  12.153  10.946
93087W        W64813  41.482  15.653  11.938
93088W        W64814   5.209  39.436   0.336
93089W        W64815  23.459  34.387  13.851
93090W        W64816  31.150  27.256  14.370
93091W        W64817  32.129  18.080  11.888
93092W        W64818   8.700  24.073  10.616
93093W        W64819   4.331  11.845   1.026
93094W        W64820  10.709  23.679   1.754
93095W        W64821  21.217   4.717  14.632
93096W        W64822  30.625  40.540   4.063
93097W        W64823  22.784   8.616  11.067
93098W        W64824  26.007  41.683  12.084
93099W        W64825  12.031  22.838   2.903
93100W        W64826  23.205  32.908   2.874
93101W        W64827  11.533  42.472  13.312
93102W        W64828  35.369  24.267   1.757
93103W        W64829  44.260  20.678   2.269
93104W        W64830  23.394   4.115   1.777
93105W        W64831  15.280  28.072   0.268
93106W        W64832  12.824   6.599   2.363
93107W        W64833  11.055  44.439   3.694
93108W        W64834  37.545  28.607   2.132
93109W        W64835   2.064  14.241   4.986
93110W        W64836  10.556  27.010   2.397
93111W        W64837  12.402  26.571   1.383
93112W        W64838  24.577   4.704  14.375
93113W        W64839   3.239   0.910   2.395
93114W        W64840   2.241  21.445   4.380
93115W        W64841  41.390  42.025  14.990
93116W        W64842  35.386  24.190  14.931
93117W        W64843  36.524  26.705   0.352
93118W        W64844  25.674   2.763  12.904
93119W        W64845  15.008   4.132  12.615
93120W        W64846  31.623   9.810  11.987
93121W        W64847  32.187  20.219  13.320
93122W        W64848  13.730  12.825  12.007
93123W        W64849  27.589  18.012   0.927
93124W        W64850  19.153  35.994   3.518
93125W        W64851  22.028   3.772   0.307
93126W        W64852  27.985  42.884  14.385
93127W        W64853  22.519  20.855   4.714
93128W        W64854  30.438  22.940   0.805
93129W        W64855  25.987  43.572   3.449
93130W        W64856  39.921  43.435  14.069
93131W        W64857  34.076  24.512   2.877
93132W        W64858  29.746   4.878   3.868
93133W        W64859   7.880  37.874  13.768
93134W        W64860  23.315  29.458  13.288
93135W        W64861  37.690  20.502  10.083
93136W        W64862  30.940  35.641  13.013
93137W        W64863  40.077  43.606  11.109
93138W        W64864   0.011   9.566  12.148
93139W        W64865   4.242  27.347   3.558
93140W        W64866  27.278  32.643   4.679
93141W        W64867  36.037  27.696   3.747
93142W        W64868  23.566  29.280  10.637
93143W        W64869   9.092   1.025  11.191
93144W        W64870   0.340  38.934  13.485
93145W        W64871  13.845   3.830   0.935
93146W        W64872  23.697  22.767   2.716
93147W        W64873  18.198   9.098  10.796
93148W        W64874   2.932  30.579   2.753
93149W        W64875   9.769  42.239   0.621
93150W        W64876  34.904  32.154   2.670
93151W        W64877  43.003  41.998   3.393
93152W        W64878  35.746  43.701   0.953
93153W        W64879  16.268  40.536   0.357
93154W        W64880  34.348   1.320   0.762
93155W        W64881  36.768  32.528  11.001
93156W        W64882   9.872  44.752  13.507
93157W        W64883  22.787  44.528  10.198
93158W        W64884  39.921  11.684   4.841
93159W        W64885  37.343  43.843   1.772
93160W        W64886   9.379  31.807   0.070
93161W        W64887  19.437  19.011   3.319
93162W        W64888  35.825  30.991  12.852
93163W        W64889  38.860   6.148   4.996
93164W        W64890  31.980  19.690   4.068
93165W        W64891  23.128   4.272  14.923
93166W        W64892  21.188   9.648   3.408
93167W        W64893   7.350  39.426   0.191
93168W        W64894  40.178  31.766  14.509
93169W        W64895  30.265  21.367  13.055
93170W        W64896  44.744   3.878   2.182
93171W        W64897  31.867  26.646   0.412
93172W        W64898  31.127  16.191   0.829
93173W        W64899  27.979   7.406   0.665
93174W        W64900  23.591   5.525  13.894
93175W        W64901  43.519  22.193   0.397
93176W        W64902   2.778   4.219  13.285
93177W        W64903  41.375   8.161   1.927
93178W        W64904  37.517  15.367   3.670
93179W        W64905  16.423  16.714   2.753
93180W        W64906  43.274  43.665  10.546
93181W        W64907  32.093   0.807   1.261
93182W        W64908  29.377  15.887   3.261
93183W        W64909  39.874  35.954  14.980
93184W        W64910  19.471  12.484   2.703
93185W        W64911   3.903  41.738   2.905
93186W        W64912  44.459  44.539   0.667
93187W        W64913   4.277  35.259   4.836
93188W        W64914  33.650  20.224   0.314
93189W        W64915   1.274  19.631   3.399
93190W        W64916   8.384  22.532  12.520
93191W        W64917  29.233  26.253   2.169
93192W        W64918  15.703  20.725   4.145
93193W        W64919  35.232  12.338  11.964
93194W        W64920  16.748  26.919  11.559
93195W        W64921  19.213  24.619   3.169
93196W        W64922  35.882  21.457  13.925
93197W        W64923  25.042  23.453  12.830
93198W        W64924  24.934  27.873  12.460
93199W        W64925  26.360  34.576  13.906
93200W        W64926  42.344  23.336   4.111
93201W        W64927  21.260  15.320  10.669
93202W        W64928  40.057  39.993   2.259
93203W        W64929  33.211  28.601  11.073
93204W        W64930  16.229  18.270  14.910
93205W        W64931  28.903  37.340   0.880
93206W        W64932  27.226  29.419  13.089
93207W        W64933   6.151   0.410  14.395
93208W        W64934  14.773  15.141   0.657
93209W        W64935  32.185  27.981   2.393
93210W        W64936   3.696  20.628  13.081
93211W        W64937   6.922  40.673   0.187
93212W        W64938   1.355   8.492   3.342
93213W        W64939  22.532  32.568  10.391
93214W        W64940  41.549  24.383  14.085
93215W        W64941  28.568  21.464  12.543
93216W        W64942  30.393   1.965   3.884
93217W        W64943  25.518  30.788   0.681
93218W        W64944  38.258   4.792   1.079
93219W        W64945  39.855  30.977  11.703
93220W        W64946   4.848   4.812   0.068
93221W        W64947  37.535  41.363  14.381
93222W        W64948  40.357  10.677  11.347
93223W        W64949   8.752  17.017   0.376
93224W        W64950  26.509  29.693   0.188
93225W        W64951  24.414  14.883   1.037
93226W        W64952  25.018  15.047   1.764
93227W        W64953  21.204   7.267   1.287
93228W        W64954  35.556   9.209   3.983
93229W        W64955  31.875  13.697  12.582
93230W        W64956  32.427  32.114  12.411
93231W        W64957  13.524  41.910  12.092
93232W        W64958  42.768  23.078  13.118
93233W        W64959   8.924  35.304   4.635
93234W        W64960  36.951   0.275  11.188
93235W        W64961  32.149  27.429  10.689
93236W        W64962  23.899  20.593   1.226
93237W        W64963  41.391  26.681   2.820
93238W        W64964  29.468  17.881  14.527
93239W        W64965   5.168   2.918  14.125
93240W        W64966  37.876  29.135  10.707
93241W        W64967  25.666  35.231   2.666
93242W        W64968  21.433  22.648   0.446
93243W        W64969  18.611  11.435   0.237
93244W        W64970   2.168  32.600  14.044
93245W        W64971   2.196   4.369   4.809
93246W        W64972  15.346  31.151  12.808
93247W        W64973  27.969  25.314  14.061
93248W        W64974  21.148   3.529  13.292
93249W        W64975   7.287  38.343   3.331
93250W        W64976  35.633   7.164  13.245
93251W        W64977   8.113   3.431   1.235
93252W        W64978  42.089  18.397  12.581
93253W        W64979  43.577   6.926  14.890
93254W        W64980  43.897  23.975  11.371
93255W        W64981  42.051  36.985  14.899
93256W        W64982  37.885  12.658   4.522
93257W        W64983  25.139  36.518   4.230
93258W        W64984  18.617  38.059   2.344
93259W        W64985  39.330   3.982   0.951
93260W        W64986  28.107  42.511   4.373
93261W        W64987  25.546   4.840  14.296
93262W        W64988  11.648  19.703  12.872
93263W        W64989  12.642  18.177   4.162
93264W        W64990  28.064  18.793   1.567
93265W        W64991  31.138  38.158  14.803
93266W        W64992  28.903  32.365  11.116
93267W        W64993   0.904  40.143   0.905
93268W        W64994   2.967   0.103   1.277
93269W        W64995  44.492  21.189  14.922
93270W        W64996  29.804  14.238  12.821
93271W        W64997  17.529  17.668   0.875
93272W        W64998  24.157  10.374   2.334
93273W        W64999  28.074   4.666   2.414
93274W        W65000   4.770  37.922  14.956
93275W        W65001  34.770  40.297   3.728
93276W        W65002  38.767  41.021   1.815
93277W        W65003  39.535  43.372  14.745
93278W        W65004  14.131   9.936  12.945
93279W        W65005   5.703  12.939  14.021
93280W        W65006  13.812  18.790  13.925
93281W        W65007  36.470  28.799   1.199
93282W        W65008  27.012  20.827  11.040
93283W        W65009   5.983  40.292   1.152
93284W        W65010   5.175   3.936   0.752
93285W        W65011  12.601   1.778   0.886
93286W        W65012   7.665  12.094  13.586
93287W        W65013  34.945   1.431   3.767
93288W        W65014  14.533  12.316   3.395
93289W        W65015  32.125   1.205  12.052
93290W        W65016  25.318   7.847  14.414
93291W        W65017  15.286  28.593   0.037
93292W        W65018  42.675  20.750  10.405
93293W        W65019  25.666  10.181  10.763
93294W        W65020  21.144  22.649   5.145
93295W        W65021  37.474  23.663   4.872
93296W        W65022  15.104  13.545  11.621
93297W        W65023   7.332  42.824   3.199
93298W        W65024   5.896   3.721  13.910
93299W        W65025   8.938  15.061  13.954
93300W        W65026  28.133  13.433  12.036
93301W        W65027  17.547  28.415  12.059
93302W        W65028  42.063  30.977   3.993
93303W        W65029  15.214  13.617  12.887
93304W        W65030  40.411  24.878  10.779
93305W        W65031  32.678  42.216   3.867
93306W        W65032  31.208  40.140   3.231
93307W        W65033  28.103  20.460  13.310
93308W        W65034  28.236  22.780  11.434
93309W        W65035   1.008  40.997  13.920
93310W        W65036  17.179  26.786  14.834
93311W        W65037  44.187  18.506   1.261
93312W        W65038  18.268  36.295  13.385
93313W        W65039  13.912  13.605   1.736
93314W        W65040  12.574  18.081   0.014
93315W        W65041   2.161   6.163  11.950
93316W        W65042  37.830  12.840   2.213
93317W        W65043  11.164  37.761   0.311
93318W        W65044   4.175   8.640   1.722
93319W        W65045   8.209  18.133   0.864
93320W        W65046  26.911  23.687  14.949
93321W        W65047  26.669  29.443  12.457
93322W        W65048  17.510  32.041   3.843
93323W        W65049  35.509  34.026  12.435
93324W        W65050   2.544  28.689   2.503
93325W        W65051  40.364  41.956  14.278
93326W        W65052   7.692  34.630   0.807
93327W        W65053  42.986   9.732   3.683
93328W        W65054  38.320  40.612   2.251
93329W        W65055  28.501  29.469   3.740
93330W        W65056  32.997  24.531  10.795
93331W        W65057  38.684  24.699  11.122
93332W        W65058  11.273  22.731   2.879
93333W        W65059  26.597   3.930  13.990
93334W        W65060  27.531  36.376   3.339
93335W        W65061  19.274  25.651   2.966
93336W        W65062  15.625  28.190  14.004
93337W        W65063   6.243  20.429  11.962
93338W        W65064   7.437  24.544   1.292
93339W        W65065  16.551  21.995   3.386
93340W        W65066  31.344  37.301   3.344
93341W        W65067  16.135   1.546   2.257
93342W        W65068   7.142  17.703  12.484
93343W        W65069   7.143  16.169   1.907
93344W        W65070   3.316  35.700   3.282
93345W        W65071  23.037  38.376   4.085
93346W        W65072  17.361   8.172   2.400
93347W        W65073  26.828  20.810  10.166
93348W        W65074   2.963  16.096  14.365
93349W        W65075  43.095   7.908   4.005
93350W        W65076  36.455  33.409   4.637
93351W        W65077  25.961  21.206  10.947
93352W        W65078   2.469  37.524   2.377
93353W        W65079  33.007  30.790  12.633
93354W        W65080  36.648  36.843   3.726
93355W        W65081  43.428   8.884   4.041
93356W        W65082  36.940  44.279  11.983
93357W        W65083  34.386  15.646   2.230
93358W        W65084  36.558  13.329   3.150
93359W        W65085  44.786  20.571   3.599
93360W        W65086  21.677  16.129   2.422
93361W        W65087  31.185   5.791  11.452
93362W        W65088   6.183  22.685  14.713
93363W        W65089  21.499  36.459  11.635
93364W        W65090  30.226  29.221   4.191
93365W        W65091   1.720  34.467  10.506
93366W        W65092  32.917  23.982  14.027
93367W        W65093   5.101  14.059  14.817
93368W        W65094  26.605  18.725  11.691
93369W        W65095  26.005   8.702   4.198
93370W        W65096  44.977  25.100   4.612
93371W        W65097   0.087  26.614  14.226
93372W        W65098  14.830   9.895  13.443
93373W        W65099  17.603  38.302   0.383
93374W        W65100   7.432   3.847  11.999
93375W        W65101  13.988   9.383   4.127
93376W        W65102   8.880  22.262   4.149
93377W        W65103  12.408  35.609   3.398
93378W        W65104  35.565   5.407   2.087
93379W        W65105  36.205  12.089  12.962
93380W        W65106   3.642  31.030   3.797
93381W        W65107  13.895  38.421  10.188
93382W        W65108  37.921  30.661  10.681
93383W        W65109  32.403   1.237  14.509
93384W        W65110  27.903  20.594   0.349
93385W        W65111  21.508  19.156  12.995
93386W        W65112  41.590  13.265  12.951
93387W        W65113  44.710  44.869   1.619
93388W        W65114  27.121  40.329  10.759
93389W        W65115   4.696  31.096  11.555
93390W        W65116  30.214  37.602   0.681
93391W        W65117  14.741  21.047  11.791
93392W        W65118   9.770   6.835   4.270
93393W        W65119  42.802  21.433   2.730
93394W        W65120  29.270   7.634  10.813
93395W        W65121  18.660  30.121   3.445
93396W        W65122  30.655  42.533  13.987
93397W        W65123   8.648  37.065  12.029
93398W        W65124  42.530  34.667   4.521
93399W        W65125   8.372   3.497  13.086
93400W        W65126  27.961  27.702   1.852
93401W        W65127   6.717  38.215   3.769
93402W        W65128  32.855   6.897  11.284
93403W        W65129  19.779  11.196   2.254
93404W        W65130  28.549  26.372  10.100
93405W        W65131  10.115   1.422  12.466
93406W        W65132   3.199  44.700  14.429
93407W        W65133  13.552   2.984   4.330
93408W        W65134   7.930   9.484   4.643
93409W        W65135  24.518  12.351  13.097
93410W        W65136  38.821  20.601   0.405
93411W        W65137  38.906  26.454  10.478
93412W        W65138  40.226   0.723   3.809
93413W        W65139  43.288  43.865   1.307
93414W        W65140  31.878   9.657   0.424
93415W        W65141   4.269  12.152  13.454
93416W        W65142   2.436   2.725   3.657
93417W        W65143  20.319  37.565   3.592
93418W        W65144  13.685  11.287  10.578
93419W        W65145  33.889  32.911   0.463
93420W        W65146  14.338  28.400  10.805
93421W        W65147  12.881  32.088  12.778
93422W        W65148  11.124  27.858  13.148
93423W        W65149   0.369  13.023   1.766
93424W        W65150  34.445  24.410  12.414
93425W        W65151  44.172  31.985  12.963
93426W        W65152  38.071  13.620   2.658
93427W        W65153  13.709  29.452   1.903
93428W        W65154  30.796   3.962  13.289
93429W        W65155  36.146  19.404  12.954
93430W        W65156   0.205  35.319  14.347
93431W        W65157  18.649   4.859   4.884
93432W        W65158   3.773  39.842  13.588
93433W        W65159  29.810  44.298   1.756
93434W        W65160  16.890  19.644   3.169
93435W        W65161  34.012   8.146   4.557
93436W        W65162  35.398  36.606   1.150
93437W        W65163  22.252  36.419  12.926
93438W        W65164   8.720  26.100  14.572
93439W        W65165  41.017  30.165  14.780
93440W        W65166  26.583  16.721   3.531
93441W        W65167   0.937  36.780  12.006
93442W        W65168  14.472  37.050   5.049
93443W        W65169  22.987  15.176   0.758
93444W        W65170  27.645  41.516   3.077
93445W        W65171  17.251  22.066   2.393
93446W        W65172   0.368  10.165   2.259
93447W        W65173  18.507  13.662   1.793
93448W        W65174  22.592  13.840   3.855
93449W        W65175  28.571  26.587  12.827
93450W        W65176  35.097  10.633  11.468
93451W        W65177   9.606  36.725   0.950
93452W        W65178  25.145  19.191   4.845
93453W        W65179   3.223   4.631  11.178
93454W        W65180  40.606  16.578   3.218
93455W        W65181  24.074  15.736  13.360
93456W        W65182  25.222   4.710  11.151
93457W        W65183   3.028  34.185  12.415
93458W        W65184  40.707  26.544   3.639
93459W        W65185  25.218   1.799   1.417
93460W        W65186  32.652  39.407  13.463
93461W        W65187  19.676  20.040  12.418
93462W        W65188  32.735  26.434   1.310
93463W        W65189  39.340  13.758   3.331
93464W        W65190  13.912  31.354   3.577
93465W        W65191  32.312  22.086   4.008
93466W        W65192  37.824   0.712  12.839
93467W        W65193  33.703  16.540   0.423
93468W        W65194  17.642   4.988   4.614
93469W        W65195  22.417  17.220  11.081
93470W        W65196  44.243  24.087   1.118
93471W        W65197  31.000  15.378   1.414
93472W        W65198  37.897   2.767   2.612
93473W        W65199  37.589  11.565   1.334
93474W        W65200  33.689  29.543   3.221
93475W        W65201   3.915  34.472  13.798
93476W        W65202  11.617  13.931   2.218
93477W        W65203   3.002  32.540   4.226
93478W        W65204  21.236   3.952   4.692
93479W        W65205  20.521  16.162   4.889
93480W        W65206  42.291   8.268  14.127
93481W        W65207  18.745  42.496  11.926
93482W        W65208  36.918  43.679  11.559
93483W        W65209  28.925  10.234   9.961
93484W        W65210  30.559  29.622  14.949
93485W        W65211  33.892  30.902   1.757
93486W        W65212  13.559  23.865  10.989
93487W        W65213   6.376   7.816  13.356
93488W        W65214  18.493  17.705   4.871
93489W        W65215  17.034   5.365  14.326
93490W        W65216  24.967   8.150   4.020
93491W        W65217   5.286  16.518  10.102
93492W        W65218  28.354  34.337  12.127
93493W        W65219  26.107   4.493   3.931
93494W        W65220  33.355  43.059  12.066
93495W        W65221  33.114   2.712  12.896
93496W        W65222  15.552   5.322   3.265
93497W        W65223  34.021   3.029  13.908
93498W        W65224  27.595  10.283  11.746
93499W        W65225   7.335  23.574   4.599
93500W        W65226  28.725  25.594  13.118
93501W        W65227   1.961  14.755   1.861
93502W        W65228  14.845  16.266  13.743
93503W        W65229  19.221   2.394  12.822
93504W        W65230  10.763  24.041  11.896
93505W        W65231  29.971  40.457  14.433
93506W        W65232   0.882  33.339  13.928
93507W        W65233  38.741   4.896  13.414
93508W        W65234   7.384  37.655  13.463
93509W        W65235  43.885  32.418   3.521
93510W        W65236  29.921   2.038  11.576
93511W        W65237  44.862   6.119  10.616
93512W        W65238  14.012  32.318   0.697
93513W        W65239   0.341  29.888  14.444
93514W        W65240  29.522  34.477   1.070
93515W        W65241  28.527  39.458  11.394
93516W        W65242  43.207  10.645   3.051
93517W        W65243  37.051   5.959   1.796
93518W        W65244   3.346  42.291   0.522
93519W        W65245  19.295  41.815   0.297
93520W        W65246  15.898  30.068   3.575
93521W        W65247  44.755  28.573   2.707
93522W        W65248  25.477  11.396  13.223
93523W        W65249   0.274  44.852  14.754
93524W        W65250  22.013  13.609   2.684
93525W        W65251   6.114   6.642   4.263
93526W        W65252  21.405  22.180  12.087
93527W        W65253  41.950  28.022   3.922
93528W        W65254  28.909   9.342  14.469
93529W        W65255  20.836  17.869   1.105
93530W        W65256  40.352  21.508   0.921
93531W        W65257  14.248  18.566  13.056
93532W        W65258   0.275  19.979  13.857
93533W        W65259  42.398  10.340   2.409
93534W        W65260  16.593  11.750  12.117
93535W        W65261  40.611   4.860  13.383
93536W        W65262  10.664  27.882   2.755
93537W        W65263  12.953  16.534   2.247
93538W        W65264  18.741  20.731   1.472
93539W        W65265  15.720  15.794  13.514
93540W        W65266   5.899   7.877  12.721
93541W        W65267   0.505  33.466   4.493
93542W        W65268  16.973  19.500  14.845
93543W        W65269  14.076  36.649   4.238
93544W        W65270   6.427  29.193   0.484
93545W        W65271   3.676   4.622   3.669
93546W        W65272  38.436  32.494  12.471
93547W        W65273  12.667  41.028   4.386
93548W        W65274  38.497  21.710   1.772
93549W        W65275  38.108  27.638   2.461
93550W        W65276   9.373  23.699  11.204
93551W        W65277  43.955  11.909   2.146
93552W        W65278  12.639   9.776   4.627
93553W        W65279  34.330  36.377   0.697
93554W        W65280   0.940  14.620   3.700
93555W        W65281  14.872   8.785  13.925
93556W        W65282  18.541  15.268  12.024
93557W        W65283  11.376   1.466  12.909
93558W        W65284  36.492  24.606   3.640
93559W        W65285  32.428  23.347   9.776
93560W        W65286  32.173  35.149  14.092
93561W        W65287   4.925  31.873   0.682
93562W        W65288   4.771  10.762   0.186
93563W        W65289  23.255  22.140   0.668
93564W        W65290  21.106  33.061  10.613
93565W        W65291   1.972  22.847  14.551
93566W        W65292   6.795  30.682  11.237
93567W        W65293  37.603  11.577   3.629
93568W        W65294  37.142  38.005  12.634
93569W        W65295   8.671   4.382   4.589
93570W        W65296  24.743   6.488   4.109
93571W        W65297  38.725  31.156   3.250
93572W        W65298  20.680  38.832   4.597
93573W        W65299  32.148   2.620  12.748
93574W        W65300  36.128  32.210   2.439
93575W        W65301   9.325  40.234   3.758
93576W        W65302   6.871  15.917  10.222
93577W        W65303  31.585  17.086  13.100
93578W        W65304  26.671  23.576  11.410
93579W        W65305  18.074  20.824  12.671
93580W        W65306  43.002   4.539   0.086
93581W        W65307   5.264  15.561   1.934
93582W        W65308  25.035  34.668   2.132
93583W        W65309  25.290  41.779   4.211
93584W        W65310   9.185   2.594   3.247
93585W        W65311  24.470  36.893  13.472
93586W        W65312   0.759  18.548  12.613
93587W        W65313  24.375  40.218   2.776
93588W        W65314  38.927  37.626   4.512
93589W        W65315  17.951  25.259  14.374
93590W        W65316  40.405  14.107   2.316
93591W        W65317  28.938  41.036  12.073
93592W        W65318  32.026  42.902  11.460
93593W        W65319  36.432  30.440  13.374
93594W        W65320  41.606  41.772   3.929
93595W        W65321   6.852  36.569   0.077
93596W        W65322  12.223  23.391  11.152
93597W        W65323   4.253  28.913   4.479
93598W        W65324   1.360  21.692  10.753
93599W        W65325  10.338  37.571   4.110
93600W        W65326  32.461  39.889  13.410
93601W        W65327  21.754  17.555  14.909
93602W        W65328   3.825  34.527  11.490
93603W        W65329  14.652  30.699  10.523
93604W        W65330   6.122  43.802  12.629
93605W        W65331   9.765   6.378   0.194
93606W        W65332   1.836   9.614   1.483
93607W        W65333  16.720  18.830  12.999
93608W        W65334  40.795  40.385   0.495
93609W        W65335  22.219  37.890  14.553
93610W        W65336  18.558   7.190   4.307
93611W        W65337  33.222  39.959  12.951
93612W        W65338  26.582  30.944  12.579
93613W        W65339  36.535   8.116   4.671
93614W        W65340  29.656  24.954   0.282
93615W        W65341  23.003  44.423  12.839
93616W        W65342  34.394  34.457   3.939
93617W        W65343  14.073  27.019  12.968
93618W        W65344  13.309   6.410  11.988
93619W        W65345   8.553   5.224  11.598
93620W        W65346  41.930   5.239  11.169
93621W        W65347   7.801  36.334   3.747
93622W        W65348  14.286  10.109   1.403
93623W        W65349  19.606  37.951  10.902
93624W        W65350  16.060  35.974  11.224
93625W        W65351   4.724  14.500  13.978
93626W        W65352   3.137   8.185   3.944
93627W        W65353  23.510   9.285  12.579
93628W        W65354   8.830  26.145  12.868
93629W        W65355   8.361   1.756   0.954
93630W        W65356  36.823   6.757  11.742
93631W        W65357  19.329  37.369  10.196
93632W        W65358  38.892   4.680   4.605
93633W        W65359  24.286  15.047  14.352
93634W        W65360  17.631  38.028  14.660
93635W        W65361  32.608  17.110   3.320
93636W        W65362  26.179   2.482  12.923
93637W        W65363   1.929   7.825   1.781
93638W        W65364  19.687  39.976   3.158
93639W        W65365  23.074  20.321  13.866
93640W        W65366   9.326  13.765  14.980
93641W        W65367  37.342  21.200  12.749
93642W        W65368  33.574   4.587   2.883
93643W        W65369  26.480   7.469   0.026
93644W        W65370   6.975   7.337  14.869
93645W        W65371  35.834  24.632  13.467
93646W        W65372  19.936  33.419  12.514
93647W        W65373  28.013  39.082   4.699
93648W        W65374  10.688   3.907   0.219
93649W        W65375  22.454  43.019  12.061
93650W        W65376  17.866  36.996   4.799
93651W        W65377  28.451   0.420  10.461
93652W        W65378  33.560   8.885  12.546
93653W        W65379  10.275  21.627   1.320
93654W        W65380   4.297  34.716   2.612
93655W        W65381  28.154  19.210   0.707
93656W        W65382  13.172  43.841  12.413
93657W        W65383   3.507   9.599  13.901
93658W        W65384  32.133   3.224   3.674
93659W        W65385  15.239  11.788   0.412
93660W        W65386  25.073  10.594  13.574
93661W        W65387  38.110  18.242  13.485
93662W        W65388  11.399  28.039   0.408
93663W        W65389   7.016  39.989   4.355
93664W        W65390  38.954  30.469   4.391
93665W        W65391   4.366   9.483   4.750
93666W        W65392  38.314  15.883  11.053
93667W        W65393   9.687  18.061   0.377
93668W        W65394  43.050  14.912  14.904
93669W        W65395  36.431  11.292  11.620
93670W        W65396   7.419  44.896   4.531
93671W        W65397  34.383   2.190  12.434
93672W        W65398  23.004  25.233  12.496
93673W        W65399  32.641  32.499   2.373
93674W        W65400  32.154  43.278   0.201
93675W        W65401  33.096  43.193  13.978
93676W        W65402   3.699   4.320   4.836
93677W        W65403  10.322  26.182  13.006
93678W        W65404   9.506  44.859   0.978
93679W        W65405  12.136  41.390   0.566
93680W        W65406  25.218  31.169  13.560
93681W        W65407  11.854   5.955   0.891
93682W        W65408  38.941  35.330   4.042
93683W        W65409  42.809  33.640   3.748
93684W        W65410   1.623  43.385   3.724
93685W        W65411   9.618  39.043  11.578
93686W        W65412  38.519  34.544  11.081
93687W        W65413  13.193  13.847   4.946
93688W        W65414  32.550  20.658   1.786
93689W        W65415  35.064  18.628   1.111
93690W        W65416  12.110  14.336  13.844
93691W        W65417  29.013   1.739  14.505
93692W        W65418  33.440  18.217  13.599
93693W        W65419   9.681  20.228  14.940
93694W        W65420   8.399  10.894  12.126
93695W        W65421  15.261   2.125  10.911
93696W        W65422  40.044   6.090   1.372
93697W        W65423  29.273   8.339   1.530
93698W        W65424   6.768   3.244   2.351
93699W        W65425   1.582  20.351  10.632
93700W        W65426  37.933  11.918   0.323
93701W        W65427  35.506  29.844   3.343
93702W        W65428  43.833   6.930  13.922
93703W        W65429  31.151  20.566  13.476
93704W        W65430  18.002  31.235  10.994
93705W        W65431  24.107  35.985  11.100
93706W        W65432   3.010  33.611   3.540
93707W        W65433  25.248  26.577   0.830
93708W        W65434  42.079   1.296   1.748
93709W        W65435  39.946  43.370   1.496
93710W        W65436  23.597  26.534   2.803
93711W        W65437  17.325  40.867   9.936
93712W        W65438  32.043  38.613   4.485
93713W        W65439   0.607   9.251   3.245
93714W        W65440  12.206  39.317  10.381
93715W        W65441  18.639  41.456  14.585
93716W        W65442  21.383  36.192   2.202
93717W        W65443  10.154  41.066  12.394
93718W        W65444  14.114  13.790  10.808
93719W        W65445   8.340  14.841  12.854
93720W        W65446   7.637   1.475  12.039
93721W        W65447  32.744   9.533  12.507
93722W        W65448   1.401   5.970   1.677
93723W        W65449  38.061  21.264   3.252
93724W        W65450   3.185  36.048  13.773
93725W        W65451  16.093   0.520   3.679
93726W        W65452   4.580  28.556  14.192
93727W        W65453  42.941  12.828   3.794
93728W        W65454  36.305  11.819   1.376
93729W        W65455   2.009  21.116   1.367
93730W        W65456   5.214   8.644   5.110
93731W        W65457  22.072  26.647   3.799
93732W        W65458  14.136  31.464   0.963
93733W        W65459  12.623   3.470   0.428
93734W        W65460  26.872  40.927  11.899
93735W        W65461  28.690   1.480   2.334
93736W        W65462  32.539  36.791   3.406
93737W        W65463   9.120   1.136  13.406
93738W        W65464  13.676  35.611  14.282
93739W        W65465  18.169   5.439  13.016
93740W        W65466   9.830   0.507  13.920
93741W        W65467  38.604  11.148  13.973
93742W        W65468  31.556  35.883   2.821
93743W        W65469  17.953  14.401  14.543
93744W        W65470  13.556   4.193   0.717
93745W        W65471  20.987  22.485   2.282
93746W        W65472  34.097  19.068   0.152
93747W        W65473  14.559  19.225   3.274
93748W        W65474  40.742  42.109  14.719
93749W        W65475  25.604  36.633  13.111
93750W        W65476  10.820   9.129  13.924
93751W        W65477  34.737  27.232   1.483
93752W        W65478  18.084   5.702  11.564
93753W        W65479  13.155  24.519   4.850
93754W        W65480  30.683   6.425   0.494
93755W        W65481  23.152  14.996   2.285
93756W        W65482  35.737  22.292  14.971
93757W        W65483  23.788  33.524  10.385
93758W        W65484  36.495  19.672  13.885
93759W        W65485   3.913  43.756  12.439
93760W        W65486   0.728   5.331   0.313
93761W        W65487  14.164   5.377  10.613
93762W        W65488   2.472  41.076  11.650
93763W        W65489  43.265  37.198   2.869
93764W        W65490  13.693  44.696   2.246
93765W        W65491  28.776  15.036   1.798
93766W        W65492  13.040  29.205   4.972
93767W        W65493  12.148  14.254   0.639
93768W        W65494   7.784  10.724   4.225
93769W        W65495  16.089  16.317  14.190
93770W        W65496  11.889   6.331   2.293
93771W        W65497   3.953  24.911   1.491
93772W        W65498  27.756  30.050  12.936
93773W        W65499   2.876  41.089   3.831
93774W        W65500  31.090  27.163  12.809
93775W        W65501  34.206   7.465  13.468
93776W        W65502  22.910  13.119   2.778
93777W        W65503  20.740  21.327   1.370
93778W        W65504   2.437   1.481  13.601
93779W        W65505   7.717  21.034  14.468
93780W        W65506   8.107  16.776  12.028
93781W        W65507  19.419  28.767   2.797
93782W        W65508  34.130  14.578   0.713
93783W        W65509  43.561  44.330   0.234
93784W        W65510  19.731  14.375   4.846
93785W        W65511   2.899  26.405   3.726
93786W        W65512  13.659   1.871   1.773
93787W        W65513  28.737   7.948   3.647
93788W        W65514  33.082  16.678  12.154
93789W        W65515  34.565  41.792   5.051
93790W        W65516  31.938  37.023   2.666
93791W        W65517   1.870  42.948   1.631
93792W        W65518  42.998   1.065   2.515
93793W        W65519   0.797   2.339   2.814
93794W        W65520  14.870  42.076  13.305
93795W        W65521  17.476  21.667   3.094
93796W        W65522  19.209  38.334   3.797
93797W        W65523  19.255   8.244   3.847
93798W        W65524   2.460  15.490  11.553
93799W        W65525  28.546  43.365   3.720
93800W        W65526  38.099   2.911   3.640
93801W        W65527  13.719   4.796   1.302
93802W        W65528  25.039  19.526   2.739
93803W        W65529  25.479  41.476   2.683
93804W        W65530  43.178  14.877  14.408
93805W        W65531  44.279  21.327  14.451
93806W        W65532  30.318  19.226   3.221
93807W        W65533  22.558  28.120  13.772
93808W        W65534  31.935  23.511  11.915
93809W        W65535   1.386   3.751   1.022
93810W        W65536  24.523  44.243   0.801
93811W        W65537  19.299  21.055  10.728
93812W        W65538  42.567  22.181   4.010
93813W        W65539   0.133  18.690   2.691
93814W        W65540  19.226  22.516  13.539
93815W        W65541  20.524  18.168   4.059
93816W        W65542   5.297   8.898   0.454
93817W        W65543  21.540   3.174   3.199
93818W        W65544   3.228  29.552  11.710
93819W        W65545  22.584   7.323  11.942
93820W        W65546   1.799  11.369   0.929
93821W        W65547  40.369   5.457  14.056
93822W        W65548   7.614  16.599  12.042
93823W        W65549  36.217  30.810  13.712
93824W        W65550  10.929  12.708  14.067
93825W        W65551  23.658  21.307  11.624
93826W        W65552  26.331  21.280   0.296
93827W        W65553   7.546  26.705  11.133
93828W        W65554  33.663   1.988   0.150
93829W        W65555  16.223   4.316   3.649
93830W        W65556  36.882  26.909  12.690
93831W        W65557  14.061  23.293  13.487
93832W        W65558  31.638  40.997  12.973
93833W        W65559  17.609  16.299  10.650
93834W        W65560   3.632   9.668  12.984
93835W        W65561   2.494  23.969  11.128
93836W        W65562   4.150  11.915   2.999
93837W        W65563   2.196  21.196  11.526
93838W        W65564  30.978  17.993  13.798
93839W        W65565   8.110  38.084   1.712
93840W        W65566  16.208  20.829  11.783
93841W        W65567   5.280  43.611  11.512
93842W        W65568   9.292  23.496   3.953
93843W        W65569  18.511  22.478  14.599
93844W        W65570   1.444  39.027  11.568
93845W        W65571  41.214  17.159   1.875
93846W        W65572   7.507  26.431  10.405
93847W        W65573  10.803  19.755  14.289
93848W        W65574  12.674  41.479   3.809
93849W        W65575  15.015  26.556   2.424
93850W        W65576  31.956  11.371   2.711
93851W        W65577  38.938  31.124   4.626
93852W        W65578  35.239   0.797   3.584
93853W        W65579  28.812  14.482   5.010
93854W        W65580  31.843  17.693  13.123
93855W        W65581   5.365  44.408  12.970
93856W        W65582  26.659  42.385   0.517
93857W        W65583  36.777   7.173  12.275
93858W        W65584  43.411  34.545  12.041
93859W        W65585  26.520  10.848  14.830
93860W        W65586   1.149  25.565  14.547
93861W        W65587  35.752  41.768  14.005
93862W        W65588   8.029  40.572  13.165
93863W        W65589  15.097  35.209   3.168
93864W        W65590  17.711  10.690   0.078
93865W        W65591  29.959  19.720   4.498
93866W        W65592  12.345  33.574   4.349
93867W        W65593  26.151  44.341  10.393
93868W        W65594  32.846  15.332  12.053
93869W        W65595   1.424  41.855  12.989
93870W        W65596  16.235  36.920   5.537
93871W        W65597  25.302   1.436   1.841
93872W        W65598  12.883  26.662   1.145
93873W        W65599   2.666  42.041   3.868
93874W        W65600  40.853   7.307  11.309
93875W        W65601  36.597  21.407  10.723
93876W        W65602  29.409  11.342  14.992
93877W        W65603  26.870  32.485   1.170
93878W        W65604   1.396  14.153  13.394
93879W        W65605   0.001  38.318   4.668
93880W        W65606  15.685  21.688  12.464
93881W        W65607   6.459   1.031   3.339
93882W        W65608  41.139  43.407   3.375
93883W        W65609   1.391  14.629  11.696
93884W        W65610  17.852  18.515   3.299
93885W        W65611  42.553  25.317   4.366
93886W        W65612  38.913   1.621   4.109
93887W        W65613  34.480  14.168   1.495
93888W        W65614  10.145  36.365   4.476
93889W        W65615  34.905   0.039   2.309
93890W        W65616  29.042  44.761  11.215
93891W        W65617  25.944  43.382   1.396
93892W        W65618   7.527  11.160   0.986
93893W        W65619   5.085  19.737   3.695
93894W        W65620  28.146  33.915   2.900
93895W        W65621  24.036   7.912  11.581
93896W        W65622  24.564  16.638   1.238
93897W        W65623  10.217  10.199   0.912
93898W        W65624  15.663  16.083   0.425
93899W        W65625  27.998   5.467  13.362
93900W        W65626  43.426   4.885  10.072
93901W        W65627  36.879  28.523  11.719
93902W        W65628  37.130  20.500  13.014
93903W        W65629  26.839   2.388   0.928
93904W        W65630  40.163  27.557   0.695
93905W        W65631  14.401  33.870  14.946
93906W        W65632  25.773  43.910   0.304
93907W        W65633  25.974  42.456   4.140
93908W        W65634  26.162  40.054   1.898
93909W        W65635  39.536  11.174  11.177
93910W        W65636  31.543   8.261  10.835
93911W        W65637  28.249  29.139  14.357
93912W        W65638  11.671  35.993   0.196
93913W        W65639  14.086  20.320   3.829
93914W        W65640  26.925  20.415   0.874
93915W        W65641  34.435  42.466   4.621
93916W        W65642   8.025  38.442   4.110
93917W        W65643  31.117  15.666   0.952
93918W        W65644   7.893  35.576   3.172
93919W        W65645  23.645  14.834  11.492
93920W        W65646  25.537   7.698  12.066
93921W        W65647  17.491   2.541   2.618
93922W        W65648   0.759  28.479   2.692
93923W        W65649  12.254  11.141  13.618
93924W        W65650  31.435  32.530   2.968
93925W        W65651  31.501  27.155  13.576
93926W        W65652  22.923  19.579   3.261
93927W        W65653  20.535   0.850   3.737
93928W        W65654  19.063  11.061  12.827
93929W        W65655  27.021  11.820   1.372
93930W        W65656  35.344  39.300  12.765
93931W        W65657  35.681  17.754   4.878
93932W        W65658  18.374  17.974   2.331
93933W        W65659  26.449  36.651  14.352
93934W        W65660  22.559  20.031   2.285
93935W        W65661  27.519  13.431  11.636
93936W        W65662  32.521  15.358  12.821
93937W        W65663   3.772  28.091  12.494
93938W        W65664   4.482  10.161   2.563
93939W        W65665  24.341  30.827   2.744
93940W        W65666  39.798  40.433  11.178
93941W        W65667  23.676  43.807  12.578
93942W        W65668  40.948  35.439   4.508
93943W        W65669   9.043   6.055  11.149
93944W        W65670   6.904  37.323   2.159
93945W        W65671  15.042  14.996  11.570
93946W        W65672  24.173  15.643   1.927
93947W        W65673  17.802   4.458  10.301
93948W        W65674   7.091  18.091  13.434
93949W        W65675  44.996  33.400   2.336
93950W        W65676  43.643  18.032  13.447
93951W        W65677  27.367  41.888  13.018
93952W        W65678  43.308  35.101   0.373
93953W        W65679  35.498  41.758   2.178
93954W        W65680  42.762  40.001   3.242
93955W        W65681  42.563  14.216   0.011
93956W        W65682   7.891  29.529  10.595
93957W        W65683  36.573  39.439   0.705
93958W        W65684   0.332   0.998  10.720
93959W        W65685   6.994  15.885  12.869
93960W        W65686   4.691  12.826   2.151
93961W        W65687  18.230   1.817  10.705
93962W        W65688  31.557  22.649   4.400
93963W        W65689  29.613  33.191  11.161
93964W        W65690   0.278   9.988   0.288
93965W        W65691  32.545  34.791  14.060
93966W        W65692   2.255  16.314  13.866
93967W        W65693  16.677   9.800   4.737
93968W        W65694   2.221  29.076   3.374
93969W        W65695  44.404  36.505  14.216
93970W        W65696  22.991  40.008   3.703
93971W        W65697  40.406  22.991   1.308
93972W        W65698  25.048  18.025   3.752
93973W        W65699  17.094  22.718   4.654
93974W        W65700   3.974   1.462  12.505
93975W        W65701  23.953  15.093   3.197
93976W        W65702   3.134  37.936  14.889
93977W        W65703  27.292  14.911  10.728
93978W        W65704  34.885  38.832  10.684
93979W        W65705  28.629  28.615   0.955
93980W        W65706  35.119  21.690   1.387
93981W        W65707  41.540  24.294   2.817
93982W        W65708  11.936   6.883   1.016
93983W        W65709  39.978  42.809  11.559
93984W        W65710  32.902  21.172  13.319
93985W        W65711  10.607  19.136   2.469
93986W        W65712  25.754  20.192  13.554
93987W        W65713  31.183  43.759   3.270
93988W        W65714  26.586   0.419  14.236
93989W        W65715  39.118  41.006   0.229
93990W        W65716   0.807  44.687  12.596
93991W        W65717  14.140  29.962   0.761
93992W        W65718  13.297   2.401   0.040
93993W        W65719   9.273  26.772   4.840
93994W        W65720  23.221  42.360  14.937
93995W        W65721  12.454   0.271   2.583
93996W        W65722  25.681  35.591  11.454
93997W        W65723   3.241   5.360   2.633
93998W        W65724   8.183  37.716   1.316
93999W        W65725  25.966   0.495   2.648
94000W        W65726  28.324  29.034   2.929
94001W        W65727  39.631  19.475  14.833
94002W        W65728  28.962  25.571   2.836
94003W        W65729  40.371  16.252  11.809
94004W        W65730  15.790  34.051  12.973
94005W        W65731  11.738  36.882  10.704
94006W        W65732  17.819  33.813   2.242
94007W        W65733  10.059  21.170   4.895
94008W        W65734   1.087  22.462  10.322
94009W        W65735   8.279  39.407   3.146
94010W        W65736  20.535   7.281  14.969
94011W        W65737   4.613  10.242  11.499
94012W        W65738  31.897  31.902   9.854
94013W        W65739  20.703   2.435   2.240
94014W        W65740  31.628  19.296  13.837
94015W        W65741  32.958  25.136  14.774
94016W        W65742   2.469  37.598   5.088
94017W        W65743  44.575  20.133  11.998
94018W        W65744  20.939   9.646   1.400
94019W        W65745   1.931  31.856  11.564
94020W        W65746  43.355  35.028  11.585
94021W        W65747  12.099  22.623  12.907
94022W        W65748  34.357  13.297  13.075
94023W        W65749  26.281   3.768  11.118
94024W        W65750  35.964   1.487  12.371
94025W        W65751   0.180   7.968  14.453
94026W        W65752   5.723  17.401   3.677
94027W        W65753   0.528  24.512   1.371
94028W        W65754  14.866  13.076   0.525
94029W        W65755   7.923  21.056  14.950
94030W        W65756  34.936  19.932   4.124
94031W        W65757  34.907  24.046   1.809
94032W        W65758  14.054  34.501   0.778
94033W        W65759  19.050  40.462   0.661
94034W        W65760   4.877  29.970   0.750
94035W        W65761  43.827  16.521  12.931
94036W        W65762  17.185  33.874  11.960
94037W        W65763  22.604   5.278  13.007
94038W        W65764  38.603  21.101   2.417
94039W        W65765  27.532   9.290   2.740
94040W        W65766  25.078  34.475   0.842
94041W        W65767  18.974   8.420  11.090
94042W        W65768  35.662  34.911  14.013
94043W        W65769   4.767  11.244  12.411
94044W        W65770  36.958   6.065  13.969
94045W        W65771  19.561  32.916   4.611
94046W        W65772  10.532  21.292  11.693
94047W        W65773  42.927  30.497   1.943
94048W        W65774  43.035  19.451   1.336
94049W        W65775  40.917  11.655   0.356
94050W        W65776  30.640   3.667   0.885
94051W        W65777  26.724  43.804  13.011
94052W        W65778  25.716  17.890  14.313
94053W        W65779  24.524  43.201   4.130
94054W        W65780   5.053  12.858   1.686
94055W        W65781  42.318   1.460   4.356
94056W        W65782   3.212  35.873  12.407
94057W        W65783  30.028  35.537   4.752
94058W        W65784  22.136  31.916  12.415
94059W        W65785  41.063   7.455   0.834
94060W        W65786   9.806  20.881   1.950
94061W        W65787  24.273  18.059   0.015
94062W        W65788  18.984  18.177  10.367
94063W        W65789  20.069  17.278  11.611
94064W        W65790  14.975  22.436   2.841
94065W        W65791  24.664   4.025   4.702
94066W        W65792   5.362   6.393  14.959
94067W        W65793  39.582  44.484  13.901
94068W        W65794  20.128  33.910   2.808
94069W        W65795  40.874  22.507   3.203
94070W        W65796   1.796  22.251  12.512
94071W        W65797  24.615  22.613   2.911
94072W        W65798  41.892   1.520   4.055
94073W        W65799   6.354  44.262   3.312
94074W        W65800  12.261  41.398  14.072
94075W        W65801  22.432   5.426   2.673
94076W        W65802   7.953  27.916   1.371
94077W        W65803   9.766   1.015   3.650
94078W        W65804  38.486  38.729  13.105
94079W        W65805  39.376   2.036   2.485
94080W        W65806  40.674  20.111   1.217
94081W        W65807  14.073  30.214  11.065
94082W        W65808  35.158  20.105  11.040
94083W        W65809  13.737   6.351  13.303
94084W        W65810  32.047  33.518   3.228
94085W        W65811  12.242   0.422   4.381
94086W        W65812  26.141  40.181   3.261
94087W        W65813  31.054  35.850  14.400
94088W        W65814  17.816  31.123  13.237
94089W        W65815  42.043  22.728   1.809
94090W        W65816  36.840  22.480  13.091
94091W        W65817   8.105   0.294   2.734
94092W        W65818   6.681  20.131  13.919
94093W        W65819   7.355  26.137   1.470
94094W        W65820  25.691  44.447  13.379
94095W        W65821  25.590  41.975   4.941
94096W        W65822  29.856  42.965   3.705
94097W        W65823  11.760  12.763  12.304
94098W        W65824  17.646   1.501  13.791
94099W        W65825  28.666  27.627   2.300
94100W        W65826   9.326  43.452  12.063
94101W        W65827  36.671  18.856  11.645
94102W        W65828  42.772  36.151  14.770
94103W        W65829  25.272  13.327   0.657
94104W        W65830  23.545  21.540   3.365
94105W        W65831  27.829  11.884  10.619
94106W        W65832   5.474  27.536  14.308
94107W        W65833  22.743  21.629  11.987
94108W        W65834  30.455  19.465  13.077
94109W        W65835   4.919  42.732  13.038
94110W        W65836   4.372  17.643  13.721
94111W        W65837  44.510  36.324   0.768
94112W        W65838  38.516   1.788   4.388
94113W        W65839  15.118  18.319   3.701
94114W        W65840  13.124  24.385   2.320
94115W        W65841   5.951  31.841  13.478
94116W        W65842  19.717  10.952   0.752
94117W        W65843  24.481  36.603  14.185
94118W        W65844  31.188   7.340   4.364
94119W        W65845   2.969  17.787   3.643
94120W        W65846   5.329   3.753  13.912
94121W        W65847   6.657   7.779   1.451
94122W        W65848  37.972  14.398  11.924
94123W        W65849  40.983  31.014  14.885
94124W        W65850  31.480   2.592   3.805
94125W        W65851  18.061  21.772   4.560
94126W        W65852  18.243  25.635   4.418
94127W        W65853   7.123  13.611   5.189
94128W        W65854   5.980   4.819   4.646
94129W        W65855  15.518  12.912  13.483
94130W        W65856   0.963  19.927  14.421
94131W        W65857  34.566  43.206   2.420
94132W        W65858  34.133  29.941   1.869
94133W        W65859  32.298  22.258   1.236
94134W        W65860  44.807  40.025   4.311
94135W        W65861  11.786   4.331  10.055
94136W        W65862  21.803  35.293  10.297
94137W        W65863  27.147  35.122  12.450
94138W        W65864  41.548  13.821  12.180
94139W        W65865  40.534   4.727   2.935
94140W        W65866  37.424  27.125  14.067
94141W        W65867  22.894  20.674  10.913
94142W        W65868  39.421  40.329   3.417
94143W        W65869  32.231  40.470   4.640
94144W        W65870  44.425  12.161   2.229
94145W        W65871  33.566  18.096   3.685
94146W        W65872  13.536  17.620   2.100
94147W        W65873  34.976  19.663   4.591
94148W        W65874  15.195  40.870  11.508
94149W        W65875  31.616  37.505  14.067
94150W        W65876  11.190   6.648   2.786
94151W        W65877  43.425   1.471   4.344
94152W        W65878  39.979   3.672  14.975
94153W        W65879  24.451  20.220   4.866
94154W        W65880  38.968  14.082   4.188
94155W        W65881  10.115  40.274   1.179
94156W        W65882   3.371  37.834   4.117
94157W        W65883  23.560  25.170  11.055
94158W        W65884  14.416  30.126   3.763
94159W        W65885  35.983  25.055   1.819
94160W        W65886   3.378  21.739   3.580
94161W        W65887  27.746  40.342  12.041
94162W        W65888  36.299  39.880   4.741
94163W        W65889  42.438  15.050  11.966
94164W        W65890  20.132  40.022  13.925
94165W        W65891  41.092   5.837   2.176
94166W        W65892  26.052   1.500   0.290
94167W        W65893  21.969  10.758  13.868
94168W        W65894  28.434  17.389  11.538
94169W        W65895   6.741  40.470   3.173
94170W        W65896  30.052  32.964   0.716
94171W        W65897   2.703   5.395  13.815
94172W        W65898   1.829  16.556   0.312
94173W        W65899   5.801  18.413  13.017
94174W        W65900  12.708  22.172   2.746
94175W        W65901   5.706  32.742   1.333
94176W        W65902   2.767  13.177  14.310
94177W        W65903  24.102  43.997  13.889
94178W        W65904  15.654  40.629  10.182
94179W        W65905   1.435  25.555   2.743
94180W        W65906   9.717   2.835   4.468
94181W        W65907   0.557  26.942   1.175
94182W        W65908  19.222  29.869  13.990
94183W        W65909  13.335  38.217  14.345
94184W        W65910  11.281  13.831   1.844
94185W        W65911   7.270  21.552  14.012
94186W        W65912  38.555  15.530   2.771
94187W        W65913   4.394   0.996  13.940
94188W        W65914  12.185  35.804  11.314
94189W        W65915   5.013   2.234   3.584
94190W        W65916  24.144   4.674  11.118
94191W        W65917  39.287  16.690  14.350
94192W        W65918  14.172  15.108  13.934
94193W        W65919  22.377  38.539  14.332
94194W        W65920  34.819   5.277  12.092
94195W        W65921  31.203  43.266   2.909
94196W        W65922  27.178  32.091  13.545
94197W        W65923   4.891   3.845  13.021
94198W        W65924  38.540   2.701  14.509
94199W        W65925  28.103   6.315   0.381
94200W        W65926  14.845  28.213   1.244
94201W        W65927  38.366  25.548   3.275
94202W        W65928  11.836   8.947  11.922
94203W        W65929   8.328  38.571   0.272
94204W        W65930  12.763   2.492   3.091
94205W        W65931  32.222   4.962  11.636
94206W        W65932   2.781  11.430  12.556
94207W        W65933  39.772  23.685  10.397
94208W        W65934   9.915  41.501   3.594
94209W        W65935  39.451  26.531   3.099
94210W        W65936  23.432  33.428  10.758
94211W        W65937  32.958   8.943  11.587
94212W        W65938   8.455   6.240  14.158
94213W        W65939   3.937  25.590   3.834
94214W        W65940  14.201   3.724  11.125
94215W        W65941  11.713  32.282  10.933
94216W        W65942  43.353  26.503  13.799
94217W        W65943  19.714  10.287   2.107
94218W        W65944  28.108  35.229   4.082
94219W        W65945   9.254  19.265   4.592
94220W        W65946  19.566   5.265   0.527
94221W        W65947  41.626  22.577   3.703
94222W        W65948  17.861   9.544   1.908
94223W        W65949   0.764  43.413   4.484
94224W        W65950  23.317  39.955   2.261
94225W        W65951  31.145   8.845  13.884
94226W        W65952  44.838   2.818   1.292
94227W        W65953  23.088   7.390  12.761
94228W        W65954  24.101  18.232   2.226
94229W        W65955   4.146  26.163   2.589
94230W        W65956  24.143   8.260   0.118
94231W        W65957  44.337  24.189  12.124
94232W        W65958  41.897  41.935  13.437
94233W        W65959  17.648  36.622  13.513
94234W        W65960  14.634  30.111   0.922
94235W        W65961  37.846   6.316  13.810
94236W        W65962  39.014  30.354  13.918
94237W        W65963   6.596  43.074  11.129
94238W        W65964   0.359  14.388   2.436
94239W        W65965  20.661   9.741  12.671
94240W        W65966   0.522  29.163   0.376
94241W        W65967   7.208  19.689   2.059
94242W        W65968  30.817  21.502   0.805
94243W        W65969  34.415  10.769   3.288
94244W        W65970  13.638  11.203   3.364
94245W        W65971  23.516  14.910  13.989
94246W        W65972  18.207  18.861  14.860
94247W        W65973  29.670  26.770   4.550
94248W        W65974  24.981  35.363  13.033
94249W        W65975  26.940  30.769  11.200
94250W        W65976   5.473   3.272  13.895
94251W        W65977  44.020  35.369  10.409
94252W        W65978  15.244   1.334  11.613
94253W        W65979  27.049  29.886   3.209
94254W        W65980  41.923  23.736   3.239
94255W        W65981   4.856  15.241   3.184
94256W        W65982  29.929  21.766   4.650
94257W        W65983  11.404   4.405   3.694
94258W        W65984  34.388   3.314   1.910
94259W        W65985   7.167  30.687  12.135
94260W        W65986   1.545  11.233   1.367
94261W        W65987  40.432  41.029   2.434
94262W        W65988  27.397  36.686   1.158
94263W        W65989  43.000  28.212  13.557
94264W        W65990  43.643  12.881   4.496
94265W        W65991  34.841  43.006  11.042
94266W        W65992  25.609  24.472  12.488
94267W        W65993   9.164  34.249  13.390
94268W        W65994  27.187  11.797  11.716
94269W        W65995  26.250  26.434  12.634
94270W        W65996  20.085  22.518   0.391
94271W        W65997  22.065  43.092  13.530
94272W        W65998  20.043  37.649  12.910
94273W        W65999  16.549   3.021  12.718
94274W        W66000  32.363   1.531   3.727
94275W        W66001  24.082  20.508  13.497
94276W        W66002  22.622  24.512  11.188
94277W        W66003   4.885  31.035  14.698
94278W        W66004  39.403  31.991  12.549
94279W        W66005  32.033  34.922   1.389
94280W        W66006  13.333  13.549  13.817
94281W        W66007  37.454  14.399  14.672
94282W        W66008  44.884  34.605  11.169
94283W        W66009  31.148  42.053  12.122
94284W        W66010   6.232  21.057   0.566
94285W        W66011  15.147  17.363  13.028
94286W        W66012  31.128  10.131   4.802
94287W        W66013  38.813  18.729  11.985
94288W        W66014  37.073  32.618   0.456
94289W        W66015  30.212  37.582  14.288
94290W        W66016  37.512  12.752   4.181
94291W        W66017  36.871  39.931  13.547
94292W        W66018  32.053  30.941   1.210
94293W        W66019  41.107  20.332   2.164
94294W        W66020  17.535  13.413   0.398
94295W        W66021  27.782  17.117  10.345
94296W        W66022  34.825  39.114   0.266
94297W        W66023  38.850   6.621   1.328
94298W        W66024   4.329  34.516  10.751
94299W        W66025  17.258  36.406   4.206
94300W        W66026  34.169   0.963  14.550
94301W        W66027  36.004  10.169  13.972
94302W        W66028  35.986   0.302   0.856
94303W        W66029  38.424  32.317  11.358
94304W        W66030  44.043  21.773  11.273
94305W        W66031   1.691  31.632   1.830
94306W        W66032  25.050  42.075  11.898
94307W        W66033  18.508  10.360  14.377
94308W        W66034  38.074  12.519  13.790
94309W        W66035  26.065  31.074  14.576
94310W        W66036  39.638  33.900   2.717
94311W        W66037   9.582  28.061  13.443
94312W        W66038   6.936  30.573  11.705
94313W        W66039  29.488  29.145  13.881
94314W        W66040  25.110  23.633   1.372
94315W        W66041  37.862   0.234  11.085
94316W        W66042  20.236   7.735   0.777
94317W        W66043   8.413  17.552  11.900
94318W        W66044  12.225   0.973  13.903
94319W        W66045  32.492  18.924  14.462
94320W        W66046  40.797  35.961   2.393
94321W        W66047   3.489  30.978  14.958
94322W        W66048  32.242  35.362  13.262
94323W        W66049  39.978  38.532  11.737
94324W        W66050   0.032  22.198  12.347
94325W        W66051   8.949   7.311   0.819
94326W        W66052  12.136  26.101   0.752
94327W        W66053  41.736  43.659   2.582
94328W        W66054   4.940  43.408  14.809
94329W        W66055  16.048  14.178   2.956
94330W        W66056   3.084  37.867  13.047
94331W        W66057  40.411  31.851   1.306
94332W        W66058  37.817  10.318  14.563
94333W        W66059   6.379  12.202   4.167
94334W        W66060   1.677  24.944  11.167
94335W        W66061  26.189  41.031   0.742
94336W        W66062  19.353   4.630   2.330
94337W        W66063   4.655  28.042  12.344
94338W        W66064  29.928  13.974  12.017
94339W        W66065  36.273  33.846  12.054
94340W        W66066   6.910  32.461  12.375
94341W        W66067  16.884  30.326   2.398
94342W        W66068  17.833  15.666  14.533
94343W        W66069  44.478  19.510   0.807
94344W        W66070  24.224   2.948  14.930
94345W        W66071  36.587  21.819   3.667
94346W        W66072  37.742  34.538  10.082
94347W        W66073  39.406  36.102   3.892
94348W        W66074  36.498  29.453   3.795
94349W        W66075  38.311  16.912   3.691
94350W        W66076   5.667  10.232  11.497
94351W        W66077  40.947  42.318   4.137
94352W        W66078   2.843  14.797  11.031
94353W        W66079  12.387  11.334  14.487
94354W        W66080  11.660  16.566  13.079
94355W        W66081  14.233  13.044  11.933
94356W        W66082   9.131  37.600   2.699
94357W        W66083  28.876  44.287  12.511
94358W        W66084  34.825   7.026  12.021
94359W        W66085  17.773  25.330   2.273
94360W        W66086   5.175   4.333  13.065
94361W        W66087  17.617  39.705   5.015
94362W        W66088   0.190  32.494  10.761
94363W        W66089  13.298  34.581  12.029
94364W        W66090  33.410  44.407  12.222
94365W        W66091  13.384  34.264   3.103
94366W        W66092   3.101  22.029  10.278
94367W        W66093  31.392  44.263   2.156
94368W        W66094   0.671  16.099   3.168
94369W        W66095  42.880   1.230   3.032
94370W        W66096  26.464  32.075   4.189
94371W        W66097  35.964  20.765  13.576
94372W        W66098  36.642  15.875   3.694
94373W        W66099  14.782  19.460  12.359
94374W        W66100   1.803   6.832   2.727
94375W        W66101   9.274   8.626  14.745
94376W        W66102  34.436  35.587  13.763
94377W        W66103   0.585  20.889   1.356
94378W        W66104  42.018  35.388  14.899
94379W        W66105  39.146  40.039  13.053
94380W        W66106  18.074  37.424  10.521
94381W        W66107   1.770  28.375  12.064
94382W        W66108   2.339  25.379  12.113
94383W        W66109  42.247  35.881   0.378
94384W        W66110   6.929  18.585  13.368
94385W        W66111  39.902  26.711  10.758
94386W        W66112  20.739  33.541   3.844
94387W        W66113  43.939   5.804   4.646
94388W        W66114  34.142  36.009   1.022
94389W        W66115  37.384  32.545  14.691
94390W        W66116  35.538  42.227  12.970
94391W        W66117  25.619  24.197   3.537
94392W        W66118  33.497  42.886  10.137
94393W        W66119  21.115  41.927   0.347
94394W        W66120   4.717  33.512  14.062
94395W        W66121  24.693  33.027   3.671
94396W        W66122  32.972  38.278   0.254
94397W        W66123  42.880  24.112   2.302
94398W        W66124  44.938   4.671  13.453
94399W        W66125  17.059  18.077  12.865
94400W        W66126  26.929  24.033  10.751
94401W        W66127  43.335  13.011   0.890
94402W        W66128  23.198  18.135  11.495
94403W        W66129  26.111  27.181  11.126
94404W        W66130  44.021  18.398   3.145
94405W        W66131  21.002   6.919  10.672
94406W        W66132   5.382  23.106   0.386
94407W        W66133  26.498  39.060  14.002
94408W        W66134  37.015  19.286  10.959
94409W        W66135  42.393  14.726   0.480
94410W        W66136  33.544  10.402  14.412
94411W        W66137   4.418   9.726  11.678
94412W        W66138   8.388   0.026  11.554
94413W        W66139  21.886  30.410   2.650
94414W        W66140  27.324  31.479  12.858
94415W        W66141   9.901  15.671   1.725
94416W        W66142  24.550   3.288  11.186
94417W        W66143  32.421   0.031   2.803
94418W        W66144  19.053  42.053   3.708
94419W        W66145  19.091  29.549  11.879
94420W        W66146  30.246  31.287  12.902
94421W        W66147  41.866  42.906  14.712
94422W        W66148   3.770   1.644   4.514
94423W        W66149  40.313   0.881   0.387
94424W        W66150  18.182  28.921   2.666
94425W        W66151  39.111   8.729   0.717
94426W        W66152   1.139  36.970  11.144
94427W        W66153  33.108  18.115  10.378
94428W        W66154  36.559  36.628  14.764
94429W        W66155   4.286  11.339  14.930
94430W        W66156  40.805  40.868   2.135
94431W        W66157  30.449  43.718   0.259
94432W        W66158   0.951  12.036   0.129
94433W        W66159  31.662  20.173  12.429
94434W        W66160  21.735  34.428  11.613
94435W        W66161  21.596  19.495   2.277
94436W        W66162   7.724  37.627   2.260
94437W        W66163  26.040  41.165  11.963
94438W        W66164  21.315  10.998   1.958
94439W        W66165   4.717   4.172   1.882
94440W        W66166  39.956  21.555   4.455
94441W        W66167  28.858  44.751  14.456
94442W        W66168  40.116   1.975  14.410
94443W        W66169   8.360  17.135   1.292
94444W        W66170  11.720  35.812  13.615
94445W        W66171  38.897  30.883   2.814
94446W        W66172  41.384   1.872   4.508
94447W        W66173   2.637  32.953   4.093
94448W        W66174  27.204  14.010   0.823
94449W        W66175   5.682  13.813   1.435
94450W        W66176  29.687  23.080  12.412
94451W        W66177  17.498  20.703  12.140
94452W        W66178  27.592  25.309  13.375
94453W        W66179  37.469  34.478   1.316
94454W        W66180  23.021  22.034  12.133
94455W        W66181   5.874  44.310  13.724
94456W        W66182  22.568  27.834   4.823
94457W        W66183   8.113  37.949  14.500
94458W        W66184  35.434  24.527  11.352
94459W        W66185  19.750  34.468  14.135
94460W        W66186   8.873  42.907   0.965
94461W        W66187  36.404   3.535  14.390
94462W        W66188  22.643  23.710   4.671
94463W        W66189  42.174  36.794   3.379
94464W        W66190  31.014  33.659   0.489
94465W        W66191  38.416  40.001  12.481
94466W        W66192  21.414  14.323  10.639
94467W        W66193   0.387  38.514   0.368
94468W        W66194  19.901  15.305  10.828
94469W        W66195  20.632  26.050   0.313
94470W        W66196  16.910  31.355  13.420
94471W        W66197  42.965  42.886  13.131
94472W        W66198  11.530  29.402   4.183
94473W        W66199   1.010  24.122   0.353
94474W        W66200  36.458  39.483   0.201
94475W        W66201  36.548  20.755   2.651
94476W        W66202  24.414  14.474   5.447
94477W        W66203  21.788  26.229   2.195
94478W        W66204  31.181  44.240  11.057
94479W        W66205  27.416  27.000  14.756
94480W        W66206  36.599  16.581   0.020
94481W        W66207   9.802  21.147  14.562
94482W        W66208  31.346  14.322   2.235
94483W        W66209  13.751  39.934  11.665
94484W        W66210  23.433  34.065   1.852
94485W        W66211  27.637  22.731  14.433
94486W        W66212   8.409   4.021   4.335
94487W        W66213  31.542  20.346   0.372
94488W        W66214  29.124   8.648  10.692
94489W        W66215  15.859  13.158   3.159
94490W        W66216   8.900   7.644  12.587
94491W        W66217   1.944  13.937   4.568
94492W        W66218  19.492  44.314  13.489
94493W        W66219   1.029  15.795   1.417
94494W        W66220  34.119  29.595   4.165
94495W        W66221  28.545  24.270  14.398
94496W        W66222  13.375   9.531   1.013
94497W        W66223   6.865  21.246  10.536
94498W        W66224  16.861  32.686   3.278
94499W        W66225  41.628  32.264  11.343
94500W        W66226  42.718  39.593  11.190
94501W        W66227  11.784   2.513  13.565
94502W        W66228  28.003  40.336  10.785
94503W        W66229  21.741  26.359   2.997
94504W        W66230  26.321  34.646   2.339
94505W        W66231   0.023  23.624  13.069
94506W        W66232  37.309  41.373  11.056
94507W        W66233  34.627  25.980   0.500
94508W        W66234   9.117  23.794   0.311
94509W        W66235   9.514  21.616   0.286
94510W        W66236   9.170  32.896  14.156
94511W        W66237   8.835  32.815  11.589
94512W        W66238  28.178   9.866  14.274
94513W        W66239  23.371  18.489   1.414
94514W        W66240  16.948  43.312  11.951
94515W        W66241  14.612  20.119   1.203
94516W        W66242   2.200  26.451  10.732
94517W        W66243  25.286   0.504   2.358
94518W        W66244  24.574   4.227  11.481
94519W        W66245  22.229   3.396  11.104
94520W        W66246  14.805   3.242  12.950
94521W        W66247  10.916  16.665  14.741
94522W        W66248   5.720  33.431  13.872
94523W        W66249  15.105  29.896   0.789
94524W        W66250  26.758  23.413  12.357
94525W        W66251  22.500  18.149  12.856
94526W        W66252  22.920  27.543  13.542
94527W        W66253   6.726  38.536  12.400
94528W        W66254  16.332   3.735  12.478
94529W        W66255  13.993   6.831   2.901
94530W        W66256   5.005   5.397  13.444
94531W        W66257   3.514   3.764   4.550
94532W        W66258  28.755  37.058  11.892
94533W        W66259  32.792  41.287   3.237
94534W        W66260   4.772  30.345   2.996
94535W        W66261  14.717   7.322  10.246
94536W        W66262  19.768  33.095  13.880
94537W        W66263  42.071  25.020   0.285
94538W        W66264  14.694  38.391   3.195
94539W        W66265  21.288   5.768   2.690
94540W        W66266   2.382  24.367   4.650
94541W        W66267  40.774  11.734  13.086
94542W        W66268  10.274  28.205   2.503
94543W        W66269  43.819   9.532   1.868
94544W        W66270  33.776  42.936   3.203
94545W        W66271  24.999  42.554   4.487
94546W        W66272  34.471  27.932  14.468
94547W        W66273  15.721  42.285  14.321
94548W        W66274  23.682  41.054   1.781
94549W        W66275   2.692  20.291   3.136
94550W        W66276  32.263   4.412  14.815
94551W        W66277  26.950  13.072  14.914
94552W        W66278  36.924   8.948   0.498
94553W        W66279  33.796   7.409  11.164
94554W        W66280  10.123  30.425  12.438
94555W        W66281   8.277  44.282   4.610
94556W        W66282  22.628  28.863  11.634
94557W        W66283  31.455  22.475  11.615
94558W        W66284  34.472   1.976   1.479
94559W        W66285  36.762  17.713   4.067
94560W        W66286  17.816  37.947  11.996
94561W        W66287  32.136  18.930   1.142
94562W        W66288  39.855  40.211  14.880
94563W        W66289  11.452  10.866  12.073
94564W        W66290  23.491  24.604  12.935
94565W        W66291  32.059   6.557   0.856
94566W        W66292  10.375  36.468  12.035
94567W        W66293  15.214  30.014   4.548
94568W        W66294  37.352   0.779   1.419
94569W        W66295  40.386  29.131   0.254
94570W        W66296  23.550  37.260   3.458
94571W        W66297  41.102  40.519   1.499
94572W        W66298  18.098   9.515  12.194
94573W        W66299  20.250  17.780  10.542
94574W        W66300   4.485  38.980  13.470
94575W        W66301  25.637  13.747  13.101
94576W        W66302  38.712  36.052   5.188
94577W        W66303   5.688  42.009   0.861
94578W        W66304   1.535  29.688  11.110
94579W        W66305   2.451  21.713  12.049
94580W        W66306  10.219  14.286  14.947
94581W        W66307  32.746  10.632   4.524
94582W        W66308  23.343  43.871   1.391
94583W        W66309  36.194  41.802  13.113
94584W        W66310  11.650  37.851  10.480
94585W        W66311  14.361  18.784  11.630
94586W        W66312  24.518  33.916  14.269
94587W        W66313   4.793  33.939   2.566
94588W        W66314  15.761  30.618  14.064
94589W        W66315  28.242   9.071  14.847
94590W        W66316   4.791  28.045   1.347
94591W        W66317   6.651  21.711  14.859
94592W        W66318  29.307  29.881  14.930
94593W        W66319  31.110  26.660  12.894
94594W        W66320   0.323  42.793  14.982
94595W        W66321  18.593  27.427  14.765
94596W        W66322  12.914  30.093   2.649
94597W        W66323   7.410  39.770  13.990
94598W        W66324   2.958  29.195   0.408
94599W        W66325  15.230  42.491  10.947
94600W        W66326  35.852  27.920   4.181
94601W        W66327  21.095   8.340   1.659
94602W        W66328  24.948  32.029  10.684
94603W        W66329  31.501  13.843  12.905
94604W        W66330  28.872  18.962   4.271
94605W        W66331  43.507  12.673   0.256
94606W        W66332   6.231  27.328   0.772
94607W        W66333  14.870  21.922  12.415
94608W        W66334   0.194  32.790   0.020
94609W        W66335  37.796   5.132   3.143
94610W        W66336  37.756  36.996  14.436
94611W        W66337   5.908   8.199  11.563
94612W        W66338  20.404   9.805   2.165
94613W        W66339  14.180  18.831  12.607
94614W        W66340  24.312  12.807   0.350
94615W        W66341   0.592  23.494   1.331
94616W        W66342  33.614  25.685   0.925
94617W        W66343  34.495  40.274  10.918
94618W        W66344   2.812  33.713  12.439
94619W        W66345  41.536  34.760   3.164
94620W        W66346  44.316  12.646   2.707
94621W        W66347  36.633  36.187   9.838
94622W        W66348  10.200  20.174  13.607
94623W        W66349  28.685  38.917  14.485
94624W        W66350  11.684  23.311  14.966
94625W        W66351  15.456  13.910  11.119
94626W        W66352  16.247   2.924   3.002
94627W        W66353  27.729   2.410   4.740
94628W        W66354   2.486  35.792  11.569
94629W        W66355   4.164  39.379   3.278
94630W        W66356  10.099  41.498   1.829
94631W        W66357  31.505  25.509   4.714
94632W        W66358   0.953  35.952  10.671
94633W        W66359   9.376  14.218   3.194
94634W        W66360   9.996  12.551  13.274
94635W        W66361  25.506   6.727   0.337
94636W        W66362   2.347  29.532   3.686
94637W        W66363  17.716  43.021   0.938
94638W        W66364  21.572  43.388  10.698
94639W        W66365  22.589  16.325   4.546
94640W        W66366  35.087  36.400  14.519
94641W        W66367   3.468   1.882  14.262
94642W        W66368  25.530  22.255   4.857
94643W        W66369  18.197   6.196  11.481
94644W        W66370  10.322  31.588   0.447
94645W        W66371  26.876  32.562  12.104
94646W        W66372  35.451  19.027  13.415
94647W        W66373  37.138  12.810  13.505
94648W        W66374   0.318   5.558   4.651
94649W        W66375  38.797  32.076   3.200
94650W        W66376  11.117  22.473   3.297
94651W        W66377  33.975  39.821  13.435
94652W        W66378  28.201  17.779   2.196
94653W        W66379  17.072  19.553  12.088
94654W        W66380  40.854   9.498  12.978
94655W        W66381  35.863  20.388  12.917
94656W        W66382   9.516  20.709   2.741
94657W        W66383  10.207  22.158   3.807
94658W        W66384  36.129  41.313  14.422
94659W        W66385  44.483  13.566   3.203
94660W        W66386  10.624  14.118   2.621
94661W        W66387  15.307  39.585  10.972
94662W        W66388  16.381  24.289  14.823
94663W        W66389  37.829  39.308   4.435
94664W        W66390  22.063  22.844   3.169
94665W        W66391  11.174  10.886  10.519
94666W        W66392  16.764   6.960  11.526
94667W        W66393  44.554  42.906   1.796
94668W        W66394   6.225  20.093  12.379
94669W        W66395   7.910  23.228  12.087
94670W        W66396  20.704  44.784   0.470
94671W        W66397  12.611  21.081   3.457
94672W        W66398  18.164  25.579   3.224
94673W        W66399   9.202  27.090   1.581
94674W        W66400   9.455  13.598  13.025
94675W        W66401  35.336   1.481   0.515
94676W        W66402   6.825  15.670   9.739
94677W        W66403  33.404  17.102  10.259
94678W        W66404  21.826  23.774   2.918
94679W        W66405   4.338  31.468  11.525
94680W        W66406  38.520   9.977   1.106
94681W        W66407  42.912  24.713   2.947
94682W        W66408   1.412  39.232   2.373
94683W        W66409  24.935  30.015  14.380
94684W        W66410  16.908  44.501   1.812
94685W        W66411   7.645  37.874   5.002
94686W        W66412  39.347  11.683  14.036
94687W        W66413  38.657  21.560  13.409
94688W        W66414   8.691  24.879   5.217
94689W        W66415   8.632  31.937  10.451
94690W        W66416  16.018  37.632   1.808
94691W        W66417  35.377  40.512   0.289
94692W        W66418  28.981  10.131   2.885
94693W        W66419   9.780  32.958   0.832
94694W        W66420  23.620   4.409  14.298
94695W        W66421  30.985  38.838   1.801
94696W        W66422  10.785  16.851  13.341
94697W        W66423   3.134  30.509  13.068
94698W        W66424  28.454  12.840   0.901
94699W        W66425   3.236  43.339   5.013
94700W        W66426  21.608   0.780   4.906
94701W        W66427  32.575  22.602  14.420
94702W        W66428  31.540  13.071  11.220
94703W        W66429  36.310   5.922   1.295
94704W        W66430  24.670  44.307   1.320
94705W        W66431  21.941  12.179   4.948
94706W        W66432  13.783  38.045   1.792
94707W        W66433   3.473  34.723   1.454
94708W        W66434   5.443  11.136   3.076
94709W        W66435  21.667  33.889   4.119
94710W        W66436  14.991  20.212  10.726
94711W        W66437  17.689  36.446   3.918
94712W        W66438  15.694  21.284   2.660
94713W        W66439  17.227  18.637   3.206
94714W        W66440  29.872  28.912   1.571
94715W        W66441  38.017  30.731  13.922
94716W        W66442  12.937   4.424  14.621
94717W        W66443  41.399  16.233  12.965
94718W        W66444  27.303  36.659  10.999
94719W        W66445  19.806  32.454  13.267
94720W        W66446  19.445  18.127  12.651
94721W        W66447  33.342  18.712  13.676
94722W        W66448   9.965   0.243  12.054
94723W        W66449  20.602  27.515  10.903
94724W        W66450  13.896  41.540   1.377
94725W        W66451  28.958  13.038   1.317
94726W        W66452  34.476  29.093   3.288
94727W        W66453  22.450  14.586  12.102
94728W        W66454   6.015  30.184  11.942
94729W        W66455  39.241  37.599   4.103
94730W        W66456   9.680  11.637  10.722
94731W        W66457  24.393   3.950  10.582
94732W        W66458  36.031  37.795  14.998
94733W        W66459  16.711  38.575  11.149
94734W        W66460  33.908  17.144  10.504
94735W        W66461   2.773  27.674  14.532
94736W        W66462  15.359  10.712   2.769
94737W        W66463  36.594  18.246   3.639
94738W        W66464  22.032  40.482  13.110
94739W        W66465  32.892  27.135   1.835
94740W        W66466  36.105  30.904  11.142
94741W        W66467  33.237  16.042   4.951
94742W        W66468   8.307   0.720  12.515
94743W        W66469  39.998  14.600  14.444
94744W        W66470  36.912  17.469   0.363
94745W        W66471  37.413   7.269  13.520
94746W        W66472  35.014  43.469   2.357
94747W        W66473  24.637   8.227  11.310
94748W        W66474   5.604   5.023  11.639
94749W        W66475  43.491  26.371  11.825
94750W        W66476  17.670  37.920   4.254
94751W        W66477  43.276   9.393  12.163
94752W        W66478  41.328   4.172   3.695
94753W        W66479  15.316  35.476   4.578
94754W        W66480  11.770  20.009  13.929
94755W        W66481  14.277  25.599   3.226
94756W        W66482  27.993  35.625   4.440
94757W        W66483  38.541   2.772   0.036
94758W        W66484  12.572  35.670   1.888
94759W        W66485  15.677  16.978  11.164
94760W        W66486  31.845   2.051  14.812
94761W        W66487  29.061  19.574  13.379
94762W        W66488  21.214  39.720  12.149
94763W        W66489  29.931  29.908  10.803
94764W        W66490  18.164  43.619  11.981
94765W        W66491  15.241  21.013  11.970
94766W        W66492   8.238   5.806   1.422
94767W        W66493  11.246   4.725   0.149
94768W        W66494   2.340  39.252   0.566
94769W        W66495   6.423  30.845   2.761
94770W        W66496   1.942  17.663  10.776
94771W        W66497  38.449   2.095  12.132
94772W        W66498   4.851  14.518  10.446
94773W        W66499  20.594  24.988  11.936
94774W        W66500   6.931  35.506  12.621
94775W        W66501  39.036  17.527  11.057
94776W        W66502  20.559  43.324   3.120
94777W        W66503  19.596  35.327   3.694
94778W        W66504  36.785  29.039   3.637
94779W        W66505  28.965  30.945   1.734
94780W        W66506  10.181  40.376   0.208
94781W        W66507   2.490  13.935  12.345
94782W        W66508  42.436  44.841  13.525
94783W        W66509  19.529  19.096   1.385
94784W        W66510   4.441  44.372  11.142
94785W        W66511   9.154  19.213   3.377
94786W        W66512  10.785  40.521  11.984
94787W        W66513  24.424  30.120   2.087
94788W        W66514   1.717   3.825  11.753
94789W        W66515  18.775  36.306   2.640
94790W        W66516  35.845   6.871  10.748
94791W        W66517  36.601   7.145   0.540
94792W        W66518  19.655  21.742   3.217
94793W        W66519  40.389  42.513  11.649
94794W        W66520  19.844  21.607  13.899
94795W        W66521  19.956   0.992   0.370
94796W        W66522  17.372  13.633   2.729
94797W        W66523   4.444  24.196   0.381
94798W        W66524  38.988  22.951   2.806
94799W        W66525  33.343  23.544   4.606
94800W        W66526   4.771  39.211   0.634
94801W        W66527  32.171  36.151  12.944
94802W        W66528  31.103   8.884   4.081
94803W        W66529  41.292  22.193   3.418
94804W        W66530  18.297  39.047  12.492
94805W        W66531   6.826  16.148   2.326
94806W        W66532   7.364  27.721   0.279
94807W        W66533   2.185  26.936   0.348
94808W        W66534  26.085  15.676  13.583
94809W        W66535  44.784   7.271   3.148
94810W        W66536  37.376  14.699   0.352
94811W        W66537  36.056   3.061  12.492
94812W        W66538  40.563  37.485   0.418
94813W        W66539  26.659  19.921  12.964
94814W        W66540  15.215  10.167  14.163
94815W        W66541  27.678  11.287   3.281
94816W        W66542  25.397  29.028   3.421
94817W        W66543  39.271  13.381  12.860
94818W        W66544  28.006  18.193  11.702
94819W        W66545  15.886  15.612   4.528
94820W        W66546  36.781   9.265   1.876
94821W        W66547  41.395  25.116   3.592
94822W        W66548  35.561   2.739   0.267
94823W        W66549   4.111  26.603  12.625
94824W        W66550  30.172  10.895   0.830
94825W        W66551  18.564  27.118   0.240
94826W        W66552  14.857  32.951  13.399
94827W        W66553  20.761   8.623   4.918
94828W        W66554  42.790  41.484   4.670
94829W        W66555  29.408   8.079   4.376
94830W        W66556  32.736  38.805   1.329
94831W        W66557  24.464   6.118   2.282
94832W        W66558   2.870   2.443   3.659
94833W        W66559   1.550  14.162   4.901
94834W        W66560   3.536   3.209   3.728
94835W        W66561  33.004   3.791  10.779
94836W        W66562  27.654  22.999   2.651
94837W        W66563   8.528  13.819  12.463
94838W        W66564  20.477  36.099  12.048
94839W        W66565  14.244   1.292   4.125
94840W        W66566  16.239  14.171  12.442
94841W        W66567  30.465  12.611  12.060
94842W        W66568  28.712  19.232  14.290
94843W        W66569  42.919   5.051   2.498
94844W        W66570  11.486   8.798  10.223
94845W        W66571   2.583  21.637  14.809
94846W        W66572  13.142  18.732   1.624
94847W        W66573  27.928  24.423   0.768
94848W        W66574  35.868  33.119  13.973
94849W        W66575  37.629  26.099   0.469
94850W        W66576  16.257  36.422  11.441
94851W        W66577  26.230  27.376   2.141
94852W        W66578  37.938  19.658   1.253
94853W        W66579  26.331  43.887  11.142
94854W        W66580  37.051  34.976  14.339
94855W        W66581  25.643  36.335   2.655
94856W        W66582  13.925  19.674   1.879
94857W        W66583  31.367   2.388  13.937
94858W        W66584  23.272  30.045  14.018
94859W        W66585  38.880  14.593  13.357
94860W        W66586  42.116  30.559   3.636
94861W        W66587  34.401  36.757   0.318
94862W        W66588  13.672  11.356  11.895
94863W        W66589  33.464  16.378   0.844
94864W        W66590   5.648   4.498  10.051
94865W        W66591  14.568  27.067   3.681
94866W        W66592  13.481  19.458  10.758
94867W        W66593  28.657  10.915   4.113
94868W        W66594  13.165  36.477   1.624
94869W        W66595   5.742  26.100  10.486
94870W        W66596  19.197  11.122   4.663
94871W        W66597  24.695  37.018   3.803
94872W        W66598  16.780  14.103   2.351
94873W        W66599  24.428  28.942  13.917
94874W        W66600  34.016  37.845   1.866
94875W        W66601   1.502  33.417   3.580
94876W        W66602   2.157  39.278  13.939
94877W        W66603  38.140   8.683  13.966
94878W        W66604  28.621  30.126   0.358
94879W        W66605  42.428  16.930  12.012
94880W        W66606  33.498  31.749  13.376
94881W        W66607  16.847  14.124   0.928
94882W        W66608  30.891  31.685  11.454
94883W        W66609  35.041  25.913   4.605
94884W        W66610  28.423  26.688   2.621
94885W        W66611  25.153  31.504   1.146
94886W        W66612  17.682   5.722  12.566
94887W        W66613  27.076  43.725   1.764
94888W        W66614   8.882  28.036   2.866
94889W        W66615  42.368  32.750   1.821
94890W        W66616  37.885  24.162  13.197
94891W        W66617  15.497  37.590   1.790
94892W        W66618   9.279  16.851  13.932
94893W        W66619  11.688  32.803  10.816
94894W        W66620  43.381   0.974   4.226
94895W        W66621  16.417  38.435  13.792
94896W        W66622   9.133  44.792  12.433
94897W        W66623  26.110  26.908   1.220
94898W        W66624  26.013  17.541  13.942
94899W        W66625   8.315  25.571  12.386
94900W        W66626  32.439  37.490   4.136
94901W        W66627  24.210  19.400  12.569
94902W        W66628   6.345   2.520  12.145
94903W        W66629  20.554   8.857  12.472
94904W        W66630   5.208  26.006  12.146
94905W        W66631  14.521  26.197   4.611
94906W        W66632   9.239  31.811  14.546
94907W        W66633  12.835  34.059  11.120
94908W        W66634  11.903  43.884   2.445
94909W        W66635  14.549  10.703   0.945
94910W        W66636  29.005  21.476  10.707
94911W        W66637  26.123  39.960   2.413
94912W        W66638  40.092  37.468   2.218
94913W        W66639   8.332  27.046  14.339
94914W        W66640  20.779   3.188  12.329
94915W        W66641   7.406   9.149  12.906
94916W        W66642  11.077  15.739  11.219
94917W        W66643   3.449   5.295   4.092
94918W        W66644  13.155  30.719   2.726
94919W        W66645  15.324  33.029   4.702
94920W        W66646  23.443  44.512  12.008
94921W        W66647  35.953  12.901   3.647
94922W        W66648  25.966   4.655   2.478
94923W        W66649  38.582  10.961   0.764
94924W        W66650  24.642   2.234   0.813
94925W        W66651  10.156   1.685   4.408
94926W        W66652   2.129  34.510   4.567
94927W        W66653  43.753  24.814   1.608
94928W        W66654  28.222  10.180  11.095
94929W        W66655  31.594  41.063  11.206
94930W        W66656   0.020  13.770   2.110
94931W        W66657  15.348  13.837   3.714
94932W        W66658   0.845  36.333  11.735
94933W        W66659   4.295  14.374  12.389
94934W        W66660  16.007  26.969  14.085
94935W        W66661  11.825  36.153   1.694
94936W        W66662  31.592  32.027   3.140
94937W        W66663  15.121  16.268  12.353
94938W        W66664  42.689  18.123   1.638
94939W        W66665  28.042  13.793  13.371
94940W        W66666   2.038  39.454   2.896
94941W        W66667  32.068  41.552  13.601
94942W        W66668  23.727  30.542   1.436
94943W        W66669  30.187   6.661   0.998
94944W        W66670  26.752  38.182  12.970
94945W        W66671  12.830  25.958  12.828
94946W        W66672   9.731  38.330   1.838
94947W        W66673  28.616  18.454  12.487
94948W        W66674  16.242  29.782   0.702
94949W        W66675  41.064   6.791  10.416
94950W        W66676   2.942   9.232  13.758
94951W        W66677  43.944  27.765   3.193
94952W        W66678  27.972  31.833   4.986
94953W        W66679  20.845  29.554   4.175
94954W        W66680  30.941  13.132   4.935
94955W        W66681  27.561  11.753  12.906
94956W        W66682  42.911  36.903  12.512
94957W        W66683  43.741  21.510   0.274
94958W        W66684   9.851   9.287   0.689
94959W        W66685   6.616  35.080  14.760
94960W        W66686   2.164  35.415   2.731
94961W        W66687   8.667   8.459  11.115
94962W        W66688   4.373  31.960   9.968
94963W        W66689  40.102  27.997  12.584
94964W        W66690  20.932  37.412   4.774
94965W        W66691  33.490  15.235   4.047
94966W        W66692  40.918  22.725  12.888
94967W        W66693  35.211  36.785  12.429
94968W        W66694  31.628  40.749  12.511
94969W        W66695  34.980  23.246   0.841
94970W        W66696  13.163  30.827   4.512
94971W        W66697   1.265  10.117   1.721
94972W        W66698   6.394  16.557  11.585
94973W        W66699  33.019  31.868  12.497
94974W        W66700   1.414  33.967   3.279
94975W        W66701  14.561  37.871   3.721
94976W        W66702  28.531  42.814   2.707
94977W        W66703   8.658  16.056   4.387
94978W        W66704  31.918  38.727   1.839
94979W        W66705  20.678  19.309   2.714
94980W        W66706  15.816  12.437  12.966
94981W        W66707  30.594  42.181  11.928
94982W        W66708   2.533  21.818   0.981
94983W        W66709  36.394  24.541   1.373
94984W        W66710  22.765  22.461   1.369
94985W        W66711  34.114   6.647  12.932
94986W        W66712  25.575  37.044  13.522
94987W        W66713  25.589  19.537   2.717
94988W        W66714   0.687  11.898  10.851
94989W        W66715  28.852  33.610  14.429
94990W        W66716  21.163   3.831   0.701
94991W        W66717  14.271  28.062   3.262
94992W        W66718  39.944  25.761   1.217
94993W        W66719   9.282  31.398   0.401
94994W        W66720  16.684  20.333   3.791
94995W        W66721  34.449  18.751  14.346
94996W        W66722  18.055  24.697   1.940
94997W        W66723  43.058  21.315  12.835
94998W        W66724   6.367  16.625  14.316
94999W        W66725  21.120  21.665   3.308
95000W        W66726  43.471   0.196   2.345
95001W        W66727  13.290  23.994   4.122
95002W        W66728  33.045   4.215   0.344
95003W        W66729  29.880  23.673  11.130
95004W        W66730  31.170  40.962  12.160
95005W        W66731   6.992  23.653   4.188
95006W        W66732  33.123  23.551  10.653
95007W        W66733  41.848  39.905  12.593
95008W        W66734  11.780   5.381  14.082
95009W        W66735  15.309  34.767  14.409
95010W        W66736   9.255  22.618  14.524
95011W        W66737  41.974  25.981   4.856
95012W        W66738  36.157  34.490   3.849
95013W        W66739  16.589  38.898  12.477
95014W        W66740   5.827  41.034  11.755
95015W        W66741  13.703  36.966  14.573
95016W        W66742   0.720  39.496   0.272
95017W        W66743  28.992  21.261   9.879
95018W        W66744   4.421  18.858  12.620
95019W        W66745   7.064  12.155   0.815
95020W        W66746  39.992  43.976   1.021
95021W        W66747  11.585   0.198  12.964
95022W        W66748  13.350  13.212   2.226
95023W        W66749  14.800  34.806  10.804
95024W        W66750  10.233  41.562   4.006
95025W        W66751  35.133  17.265   0.771
95026W        W66752  29.518  20.991   2.682
95027W        W66753  27.060  42.874   0.288
95028W        W66754  30.499  37.909   0.982
95029W        W66755  35.910  40.193  13.042
95030W        W66756  19.248  18.782  12.370
95031W        W66757   0.866  28.323   9.650
95032W        W66758  19.559   2.899   2.747
95033W        W66759   6.901   9.800   4.331
95034W        W66760  24.036  36.720  13.255
95035W        W66761  36.084  37.430   3.220
95036W        W66762   7.369   5.415  13.570
95037W        W66763   8.650  14.425   2.747
95038W        W66764  22.204  28.172   4.949
95039W        W66765  17.273  13.849   0.292
95040W        W66766  20.260   6.694  10.515
95041W        W66767   9.317  12.081   4.675
95042W        W66768  38.831  24.431   1.134
95043W        W66769   0.679  20.972   5.116
95044W        W66770  12.790  29.365   2.358
95045W        W66771   7.883  25.760  13.032
95046W        W66772   4.228  16.055  14.026
95047W        W66773   9.518  11.674   3.309
95048W        W66774  34.452  35.387   1.358
95049W        W66775  25.674  23.486   4.659
95050W        W66776  22.037  32.843  14.700
95051W        W66777   3.688  19.545   2.186
95052W        W66778   9.138  12.368   4.270
95053W        W66779  23.677   3.480  12.379
95054W        W66780  21.089  29.104   4.403
95055W        W66781  25.595  41.055   4.566
95056W        W66782  41.333   9.585   2.558
95057W        W66783  14.301  43.447  10.709
95058W        W66784  44.854  44.691   2.551
95059W        W66785  41.119  10.287   4.265
95060W        W66786  40.389   3.683   2.716
95061W        W66787  25.409  14.837   0.791
95062W        W66788   3.655  43.234   0.828
95063W        W66789  25.386  37.535   5.064
95064W        W66790   3.651  19.486  11.716
95065W        W66791  30.514  42.472   4.579
95066W        W66792  41.352   8.277   2.464
95067W        W66793   9.889   2.973  11.619
95068W        W66794   9.414  15.666   0.796
95069W        W66795  43.117  44.895  13.962
95070W        W66796  41.786  37.911  11.678
95071W        W66797  44.421  35.826  11.161
95072W        W66798  30.533   1.755   0.886
95073W        W66799   5.424  31.692   3.738
95074W        W66800   8.849  20.297  14.386
95075W        W66801  36.922  44.833  14.454
95076W        W66802  25.035   6.910   1.141
95077W        W66803  31.265  44.767  10.255
95078W        W66804  35.008  18.570   2.661
95079W        W66805  25.220   0.427   1.851
95080W        W66806  11.423  29.340  12.857
95081W        W66807  36.748  19.025   1.317
95082W        W66808  22.599  23.627   9.927
95083W        W66809   7.653   5.102   9.745
95084W        W66810  39.314  35.854  10.956
95085W        W66811   0.806  13.474  12.611
95086W        W66812  42.372  18.821  11.637
95087W        W66813  14.767  20.126  12.883
95088W        W66814  30.465  15.129   2.296
95089W        W66815  25.091  41.806   2.884
95090W        W66816  37.066  17.488  14.821
95091W        W66817  10.316  17.761  13.556
95092W        W66818  24.752   8.613  11.696
95093W        W66819  27.432   7.657   1.331
95094W        W66820   8.920   3.455   1.844
95095W        W66821  11.323  24.152   0.320
95096W        W66822  34.523  34.890   1.187
95097W        W66823  37.931  21.114  10.744
95098W        W66824  10.130  30.533   4.371
95099W        W66825   6.566  19.653   0.204
95100W        W66826  39.552  16.826  13.393
95101W        W66827  29.714  12.266   1.257
95102W        W66828  37.101  22.202   2.428
95103W        W66829  11.197   0.882   5.023
95104W        W66830  37.928   1.219  12.899
95105W        W66831   7.809  23.263  14.752
95106W        W66832   3.236  41.703  13.620
95107W        W66833  19.091  14.190   2.898
95108W        W66834  40.283  39.784   0.879
95109W        W66835  25.311  24.725  11.151
95110W        W66836  36.290  12.399   2.913
95111W        W66837  43.923  36.527   1.528
95112W        W66838  34.747  21.214  12.951
95113W        W66839  44.664  19.283   1.226
95114W        W66840  29.274  20.217   3.876
95115W        W66841  15.765   8.319   4.207
95116W        W66842   7.355  30.052  13.572
95117W        W66843  14.653   1.413  12.063
95118W        W66844  22.009   4.764  13.891
95119W        W66845  41.830  43.839   0.684
95120W        W66846  41.532  36.140   3.633
95121W        W66847  22.213  31.962  14.869
95122W        W66848   2.148  31.633   2.676
95123W        W66849  24.090  10.335  10.665
95124W        W66850  24.096  12.237  11.416
95125W        W66851  28.574   6.613  13.473
95126W        W66852   9.785  39.875  14.265
95127W        W66853  33.877   6.031  11.459
95128W        W66854  15.738  44.031   2.914
95129W        W66855  44.108  20.979   1.707
95130W        W66856  44.335  39.438   3.316
95131W        W66857  15.484  25.211   5.040
95132W        W66858  12.205   2.230  11.624
95133W        W66859   5.446  25.556   1.862
95134W        W66860  17.090  42.994   2.414
95135W        W66861  25.140  41.032  11.969
95136W        W66862  20.545   8.156  14.913
95137W        W66863  25.141  23.752   0.853
95138W        W66864  33.940  21.603  14.008
95139W        W66865  12.015   4.185  14.245
95140W        W66866  13.929  16.587  12.930
95141W        W66867  42.477  29.839  12.802
95142W        W66868  38.425  14.158   2.371
95143W        W66869  23.967  33.094  14.840
95144W        W66870  34.093  16.865   0.293
95145W        W66871  28.268  20.998   0.308
95146W        W66872  40.842  23.730   1.304
95147W        W66873  23.602   0.819  14.960
95148W        W66874  30.160  36.379   1.239
95149W        W66875   2.969   4.653  13.589
95150W        W66876  13.775   7.736  14.652
95151W        W66877  38.528   5.901   3.610
95152W        W66878  36.505  44.894  13.734
95153W        W66879  14.300   3.942  14.398
95154W        W66880  16.311  24.912   1.413
95155W        W66881  17.041   7.756   2.304
95156W        W66882  33.422  24.046  12.032
95157W        W66883  15.761  28.169  14.853
95158W        W66884  36.041  18.087  13.313
95159W        W66885   0.944  40.970   3.291
95160W        W66886  42.397  40.344   1.353
95161W        W66887  17.798  18.118  14.341
95162W        W66888  39.885  21.155   3.373
95163W        W66889  36.599  37.486   3.263
95164W        W66890  25.109  29.398  14.858
95165W        W66891  25.542  10.262  13.860
95166W        W66892  12.413  19.530   0.759
95167W        W66893  14.586  20.734  13.538
95168W        W66894  37.858  14.652   0.556
95169W        W66895  38.949  43.004   0.694
95170W        W66896   0.379  42.317  14.787
95171W        W66897   9.832  32.937   5.590
95172W        W66898  37.036  10.622  13.984
95173W        W66899  17.615  12.631   3.595
95174W        W66900   9.957   3.616  13.128
95175W        W66901  27.224  28.581  14.836
95176W        W66902   4.197  18.588   0.789
95177W        W66903  19.745  40.527   1.797
95178W        W66904  25.261  43.149  13.422
95179W        W66905  12.783  39.970  11.279
95180W        W66906  18.074  39.131   2.015
95181W        W66907   6.869  39.545  12.446
95182W        W66908  23.302  41.985   1.707
95183W        W66909  15.775   9.711  10.720
95184W        W66910  18.123  28.895   0.313
95185W        W66911  10.471  43.376   2.223
95186W        W66912  38.036  38.299  10.421
95187W        W66913  41.672   9.191   4.167
95188W        W66914  18.764   5.923   3.229
95189W        W66915   6.258  14.057  11.682
95190W        W66916  25.206   9.348   2.353
95191W        W66917  30.140   1.047   2.890
95192W        W66918  11.749  33.682   4.987
95193W        W66919  24.475  19.204   0.073
95194W        W66920  19.833  21.541  12.726
95195W        W66921  13.221  17.346  12.285
95196W        W66922  26.727  35.092   1.664
95197W        W66923  30.622  38.778  12.446
95198W        W66924  34.865  14.784  12.935
95199W        W66925  17.155  22.497   2.115
95200W        W66926  24.876  14.262  10.717
95201W        W66927  17.108  14.334   1.602
95202W        W66928  31.480  13.291  10.733
95203W        W66929  39.237  34.241   2.697
95204W        W66930  14.393   1.433  13.375
95205W        W66931   0.980  17.319   4.112
95206W        W66932  40.120  22.781  11.987
95207W        W66933  12.785   4.638   1.862
95208W        W66934   5.387  16.111   0.277
95209W        W66935   3.476   8.424  11.711
95210W        W66936  43.285  29.022  13.494
95211W        W66937  10.763  41.931   0.540
95212W        W66938  22.804  10.336   1.705
95213W        W66939  10.709  17.292   4.839
95214W        W66940  16.733  28.529  10.626
95215W        W66941   4.931   1.677   0.982
95216W        W66942  16.620  40.555  14.508
95217W        W66943  36.103  12.455   3.406
95218W        W66944  28.151   7.835   0.378
95219W        W66945  26.453  32.178  10.726
95220W        W66946  33.366  10.945  12.922
95221W        W66947  42.453  18.207  10.846
95222W        W66948  40.355  39.331   4.099
95223W        W66949  24.115  14.474   3.852
95224W        W66950  27.646  30.552  12.520
95225W        W66951  44.684  32.528  13.913
95226W        W66952  21.952  43.247  11.096
95227W        W66953  34.537  41.363   1.333
95228W        W66954  14.057  16.303   0.091
95229W        W66955  27.157   3.341   2.582
95230W        W66956  18.679  20.202   1.370
95231W        W66957  21.045  35.045   1.281
95232W        W66958   0.553  27.286  12.034
95233W        W66959  39.487   7.095  13.117
95234W        W66960  16.649  28.588  14.968
95235W        W66961  33.985  40.909   0.008
95236W        W66962  17.214   2.649  13.736
95237W        W66963  33.012  23.740   4.262
95238W        W66964  28.395  24.845  12.042
95239W        W66965  38.156  31.413   4.570
95240W        W66966  19.525  41.836   2.783
95241W        W66967  32.816  25.028   5.001
95242W        W66968  20.842  19.801  13.913
95243W        W66969  12.223  39.550  13.378
95244W        W66970  14.038  11.241   0.474
95245W        W66971  32.152  37.908  11.470
95246W        W66972  20.497  10.668   4.549
95247W        W66973   9.594  39.400  14.297
95248W        W66974  14.175   0.019   2.371
95249W        W66975   7.689  20.287   0.205
95250W        W66976  22.304   0.978   2.793
95251W        W66977  24.137  15.230  12.621
95252W        W66978  10.229  41.037   4.060
95253W        W66979  39.586  38.328  12.026
95254W        W66980   0.869  31.111  12.097
95255W        W66981  15.147  25.530   3.630
95256W        W66982  27.874  14.656   3.361
95257W        W66983  30.317  25.480   2.320
95258W        W66984  20.505   8.974   3.337
95259W        W66985  29.509  31.408   4.571
95260W        W66986  12.068  20.189   4.520
95261W        W66987  24.676  15.109   1.389
95262W        W66988  17.805  41.329   2.232
95263W        W66989   0.913  35.607   0.259
95264W        W66990  15.571  10.469  14.449
95265W        W66991  34.265  37.567   1.430
95266W        W66992  28.024  33.425   1.223
95267W        W66993  30.913  18.719   2.277
95268W        W66994  25.537   4.417   4.668
95269W        W66995  24.502  30.014   2.611
95270W        W66996   7.185   7.176  11.074
95271W        W66997  33.933  18.622   2.607
95272W        W66998  40.637  22.673   2.759
95273W        W66999  40.783  11.765   4.275
95274W        W67000  33.601  40.328   1.785
95275W        W67001  42.447  24.721   2.724
95276W        W67002   3.483  28.196   4.925
95277W        W67003  22.703   5.875   1.288
95278W        W67004  34.906  22.655  10.388
95279W        W67005   7.276  19.678   3.952
95280W        W67006  26.491  23.239   4.187
95281W        W67007  17.785  33.803  14.751
95282W        W67008  39.295  28.967  10.730
95283W        W67009  43.431  28.089   4.307
95284W        W67010  28.162  29.602  12.027
95285W        W67011   9.701   8.719   2.415
95286W        W67012  37.896  31.649   1.294
95287W        W67013  22.698   8.804  14.925
95288W        W67014  13.385  40.374   0.926
95289W        W67015  41.804  10.515  12.707
95290W        W67016  15.617  20.368   0.963
95291W        W67017  32.913  12.241  12.181
95292W        W67018  11.702  15.218   1.843
95293W        W67019   1.500   5.321   4.069
95294W        W67020  37.501  28.562  12.067
95295W        W67021  35.601  41.177  10.624
95296W        W67022  19.284  22.093   4.155
95297W        W67023  23.200  11.923  14.860
95298W        W67024  10.272  20.347   3.020
95299W        W67025  33.028   5.487  14.832
95300W        W67026  31.553  32.005   4.265
95301W        W67027  14.586  22.872  11.585
95302W        W67028  20.560   7.456   4.232
95303W        W67029  27.629  37.943   3.417
95304W        W67030   9.023  17.639   3.855
95305W        W67031   0.519  29.662   0.528
95306W        W67032  21.067  12.919   3.711
95307W        W67033  38.038  18.631   4.797
95308W        W67034  22.074  37.441  10.515
95309W        W67035   0.740   0.189   2.237
95310W        W67036   9.020  36.839   0.392
95311W        W67037  34.463  14.312   0.246
95312W        W67038  40.536   7.898  12.339
95313W        W67039  16.358  32.051   1.224
95314W        W67040  31.072  36.110  11.977
95315W        W67041   3.291  22.519  14.281
95316W        W67042  22.971  32.480  10.674
95317W        W67043   0.319  33.613  11.976
95318W        W67044  28.877   5.641  11.624
95319W        W67045  27.788  28.977   0.437
95320W        W67046   2.039  16.215  10.465
95321W        W67047  36.885   5.838   4.986
95322W        W67048   6.004  32.548   1.961
95323W        W67049  18.034  18.545   4.095
95324W        W67050   0.518  43.898  10.722
95325W        W67051   5.454  30.888   1.437
95326W        W67052  16.853  10.379  11.986
95327W        W67053  36.651  14.031  14.152
95328W        W67054  43.287  16.291   3.945
95329W        W67055  26.159  28.181  14.355
95330W        W67056  25.406  36.045  11.610
95331W        W67057  43.403   2.376   2.762
95332W        W67058  29.003  36.397  12.831
95333W        W67059  34.613  29.628   4.099
95334W        W67060   8.700  37.939   2.288
95335W        W67061   4.892  15.659  14.699
95336W        W67062  19.507  10.889   4.261
95337W        W67063  36.870  16.312   2.985
95338W        W67064  16.829  14.695   3.149
95339W        W67065  43.486   8.312  10.695
95340W        W67066  26.906  43.420  14.017
95341W        W67067  31.435  41.535   3.537
95342W        W67068  19.939  25.552  12.251
95343W        W67069  31.358  33.499   1.893
95344W        W67070   7.127  28.909  12.560
95345W        W67071  32.576  13.843  10.404
95346W        W67072  18.328  24.258   2.928
95347W        W67073   0.189  43.477  11.545
95348W        W67074  10.976  10.676   3.112
95349W        W67075  15.784   1.188   0.706
95350W        W67076   6.270  38.085   1.900
95351W        W67077  42.044  34.406   1.430
95352W        W67078  13.592  16.709  11.977
95353W        W67079  38.376  43.323  10.718
95354W        W67080  30.197  34.303   0.445
95355W        W67081  10.304  41.866   3.612
95356W        W67082   6.763  32.166   1.797
95357W        W67083   9.316   4.185  10.585
95358W        W67084  21.532  17.785   3.273
95359W        W67085  26.203  13.329  12.869
95360W        W67086  43.875  26.544   2.810
95361W        W67087  18.644  39.151  12.975
95362W        W67088  37.431  30.125   4.524
95363W        W67089  24.553  42.437   2.829
95364W        W67090  18.743  43.403  10.881
95365W        W67091  10.335   4.810   4.868
95366W        W67092  14.602  13.164   3.767
95367W        W67093  21.303  34.641   1.495
95368W        W67094  28.905  31.039   0.205
95369W        W67095  33.461   5.218  14.796
95370W        W67096  32.569  14.574  14.051
95371W        W67097  30.405   8.838   1.376
95372W        W67098  41.472   3.237  12.494
95373W        W67099   9.706   9.472  14.703
95374W        W67100  18.321  24.788   1.413
95375W        W67101   8.472  25.492  13.377
95376W        W67102  28.988  13.554   0.451
95377W        W67103   2.079   4.919  13.356
95378W        W67104  38.945  12.835   1.716
95379W        W67105   0.188  34.003   1.002
95380W        W67106  14.344   1.024   2.415
95381W        W67107  31.590  25.289  13.023
95382W        W67108  40.449  28.664   4.137
95383W        W67109  20.830  16.263  11.094
95384W        W67110  14.814  12.697  13.991
95385W        W67111  19.073  26.492  14.870
95386W        W67112   0.318  42.408  13.304
95387W        W67113   7.582  36.805  14.357
95388W        W67114  33.914  15.683  14.935
95389W        W67115   2.918  20.015   0.301
95390W        W67116   0.495  43.568  11.983
95391W        W67117  40.583  12.418   3.290
95392W        W67118  41.962  18.399   2.299
95393W        W67119   3.494   1.241  12.506
95394W        W67120  37.275   9.899   3.155
95395W        W67121   8.100  20.564  12.601
95396W        W67122  17.081  35.847   2.623
95397W        W67123  30.948  36.053  10.299
95398W        W67124  32.076  35.521  13.753
95399W        W67125  16.750  10.580   4.240
95400W        W67126  27.174  39.506  14.682
95401W        W67127  12.429  22.147   3.363
95402W        W67128  18.701   6.909  10.751
95403W        W67129  40.936  10.067  11.187
95404W        W67130  38.519  41.507   1.173
95405W        W67131  17.251  42.226   2.986
95406W        W67132   3.538  15.055   4.569
95407W        W67133   4.750  26.490  11.580
95408W        W67134  27.164  39.055   3.709
95409W        W67135  14.312  13.126  13.088
95410W        W67136  32.446   3.937  12.027
95411W        W67137  19.075  44.280  12.535
95412W        W67138  21.225  38.197   0.595
95413W        W67139  12.057  40.635   3.767
95414W        W67140  25.982   6.445  13.531
95415W        W67141  41.820  36.641  10.882
95416W        W67142  13.291  13.331   0.833
95417W        W67143   6.658   8.091   2.232
95418W        W67144  33.166  25.028   1.300
95419W        W67145  14.852  32.996  11.655
95420W        W67146  11.276  15.013   3.641
95421W        W67147  34.132  10.744   1.750
95422W        W67148  17.530  19.366  13.565
95423W        W67149  17.153  21.724   3.599
95424W        W67150  15.549  37.211   4.101
95425W        W67151   3.036  28.112   4.629
95426W        W67152  39.132  43.696   1.432
95427W        W67153  25.512  17.058  11.111
95428W        W67154  34.522  15.557  13.106
95429W        W67155  26.394  20.947  13.581
95430W        W67156  26.061  17.322  14.424
95431W        W67157  16.774  26.904   2.985
95432W        W67158   4.243   7.530   4.234
95433W        W67159  13.224  44.237   3.405
95434W        W67160  15.548  40.546  11.034
95435W        W67161  31.518  26.942   3.980
95436W        W67162  30.029  14.640   0.035
95437W        W67163  23.121  22.276   2.282
95438W        W67164   7.116  14.070   4.896
95439W        W67165  23.568   7.165  11.084
95440W        W67166  25.605  12.812  14.301
95441W        W67167  40.702   3.484  11.241
95442W        W67168  31.667  37.734   4.617
95443W        W67169  44.487  43.258   3.146
95444W        W67170  23.944  36.531  14.844
95445W        W67171  34.473  33.987  11.941
95446W        W67172  21.064  25.788   4.554
95447W        W67173  20.274  24.000   0.323
95448W        W67174  13.110  23.549  10.325
95449W        W67175  34.245   1.587   1.185
95450W        W67176  37.486  30.703   2.767
95451W        W67177  11.737  10.374  11.018
95452W        W67178  31.149  20.044   1.740
95453W        W67179  26.693  10.705  12.816
95454W        W67180   0.223  14.508   3.603
95455W        W67181  36.943  43.537   3.126
95456W        W67182  42.215  34.091   1.789
95457W        W67183  24.006  39.033   3.851
95458W        W67184  36.577  29.924   4.771
95459W        W67185   0.263  17.751  12.869
95460W        W67186  42.987  35.493   0.356
95461W        W67187  20.279  28.454   2.762
95462W        W67188   3.923  17.274  14.930
95463W        W67189  24.499  26.069  12.180
95464W        W67190  19.142  39.008  14.030
95465W        W67191  41.926  42.045   3.629
95466W        W67192  30.885  14.329  11.955
95467W        W67193  43.343  14.317   0.384
95468W        W67194   0.611  20.076   4.511
95469W        W67195  17.631  12.271  13.138
95470W        W67196   9.873   1.930  13.150
95471W        W67197  27.090  35.726   2.212
95472W        W67198  33.093  39.973  11.494
95473W        W67199  15.454  18.208   2.343
95474W        W67200  41.854  15.389  13.125
95475W        W67201  43.797  18.670  13.898
95476W        W67202  11.640  41.844  12.608
95477W        W67203  31.095   1.824   5.131
95478W        W67204  37.145   5.904  11.184
95479W        W67205  32.959  32.916  12.617
95480W        W67206   1.996  40.408   4.597
95481W        W67207   2.896  27.174  12.971
95482W        W67208  14.513  10.311   3.595
95483W        W67209  42.090  17.476  11.560
95484W        W67210  25.099  25.549  12.060
95485W        W67211  10.009  29.721  13.863
95486W        W67212  20.014  20.345   3.814
95487W        W67213  33.441  14.176  10.882
95488W        W67214   0.255   3.906   2.252
95489W        W67215  39.841  23.480   4.113
95490W        W67216  43.929  35.541   2.322
95491W        W67217  37.135  11.268   4.084
95492W        W67218   9.323  42.926  13.331
95493W        W67219  20.813   9.128   0.786
95494W        W67220  40.256   8.411  10.406
95495W        W67221  10.722  42.586  11.862
95496W        W67222  15.592  43.449  14.473
95497W        W67223  32.525  31.133   2.668
95498W        W67224  36.004  42.865  11.552
95499W        W67225  23.913   8.127  12.054
95500W        W67226  37.035  38.487  11.065
95501W        W67227  40.840  20.835   2.836
95502W        W67228  31.753  35.920  11.656
95503W        W67229  32.140  10.910   0.919
95504W        W67230  36.860  38.141   0.395
95505W        W67231  33.962  43.718  10.142
95506W        W67232  10.738  29.222  12.017
95507W        W67233   1.721  15.231   0.265
95508W        W67234  32.089  16.800  14.753
95509W        W67235  17.103   1.314   2.036
95510W        W67236  41.975   0.424  11.889
95511W        W67237   5.243  18.040   1.337
95512W        W67238  11.350  32.928  13.985
95513W        W67239  35.269  40.946  14.041
95514W        W67240  33.156  33.093  14.007
95515W        W67241  16.281  27.232   3.754
95516W        W67242  17.112  37.471  12.068
95517W        W67243  19.054  14.040   4.210
95518W        W67244  41.516  17.021   0.908
95519W        W67245   9.233   8.265  12.546
95520W        W67246   7.208   8.427   0.869
95521W        W67247  39.777   4.907  12.979
95522W        W67248   8.126   4.834  10.005
95523W        W67249  19.868  32.026   3.566
95524W        W67250  11.054  28.734   0.902
95525W        W67251   6.164  38.083  13.541
95526W        W67252   4.180  42.355   1.949
95527W        W67253  29.852  43.543   2.830
95528W        W67254  23.655   2.431   1.787
95529W        W67255  13.340   0.666   1.533
95530W        W67256  27.884  18.654  10.946
95531W        W67257  32.218   8.373   3.251
95532W        W67258   5.584   2.774  13.802
95533W        W67259  29.893  16.638   4.392
95534W        W67260  34.582  21.183  14.039
95535W        W67261  25.250   9.557  14.935
95536W        W67262  25.952  12.634  12.484
95537W        W67263   6.626   4.231  10.121
95538W        W67264  36.494  24.149   3.167
95539W        W67265  33.131  11.801   2.708
95540W        W67266  41.903  17.352   2.295
95541W        W67267  23.268  30.145   3.795
95542W        W67268  31.602  15.042   0.272
95543W        W67269  34.786  19.140  14.367
95544W        W67270  33.566  38.171  12.605
95545W        W67271  18.563  34.033   3.889
95546W        W67272  41.376  28.240   2.860
95547W        W67273  19.796  31.561  10.655
95548W        W67274   4.117  25.209   2.854
95549W        W67275  41.632  11.193  13.875
95550W        W67276  37.418  33.611  11.887
95551W        W67277   4.177   1.494   3.247
95552W        W67278  43.919  16.978   2.676
95553W        W67279  16.600  23.281  13.564
95554W        W67280  13.069  42.746  13.026
95555W        W67281  37.838  33.405  12.085
95556W        W67282  43.340  35.463   0.769
95557W        W67283   8.732  26.949   2.309
95558W        W67284  37.081  13.107  14.365
95559W        W67285  38.348  16.670  11.656
95560W        W67286  38.068  26.987   1.545
95561W        W67287  44.260  18.748  12.429
95562W        W67288  27.223  29.760  11.111
95563W        W67289  19.261  19.511   0.420
95564W        W67290  26.024  10.123  14.913
95565W        W67291  36.821  26.139  14.695
95566W        W67292  31.644  34.583   2.138
95567W        W67293  42.983   1.961   3.633
95568W        W67294  25.042  10.763  11.222
95569W        W67295  41.741  44.198   0.292
95570W        W67296  12.335  11.297   0.018
95571W        W67297   5.379  21.354   1.503
95572W        W67298  32.121   1.411  14.067
95573W        W67299   0.310  16.884  13.346
95574W        W67300  12.814  26.128  14.939
95575W        W67301  35.451   8.863  11.417
95576W        W67302  37.565   6.190  11.146
95577W        W67303   4.240  40.089   3.800
95578W        W67304  10.830  42.304  14.755
95579W        W67305  27.143  38.407  12.646
95580W        W67306  12.224  14.711   2.275
95581W        W67307   5.538   0.675   1.731
95582W        W67308   3.653  29.914   1.251
95583W        W67309  27.140  32.834   2.265
95584W        W67310   4.698  11.802  11.194
95585W        W67311  18.035  44.507   3.470
95586W        W67312  29.180  26.809  14.954
95587W        W67313  25.474  28.590  12.820
95588W        W67314  41.275   8.919  12.547
95589W        W67315  36.910  44.804  12.029
95590W        W67316  26.955  39.505   3.823
95591W        W67317  25.509  13.604   1.282
95592W        W67318   8.094  32.420   1.754
95593W        W67319  43.987  11.750  12.361
95594W        W67320  25.567  21.039   1.887
95595W        W67321  27.038  29.905   1.354
95596W        W67322   7.740  38.029  13.301
95597W        W67323  33.107  35.335  12.426
95598W        W67324  13.309  11.824   0.869
95599W        W67325  37.551  26.161  11.046
95600W        W67326  44.683  39.019   0.857
95601W        W67327  12.549  44.206  13.152
95602W        W67328   4.032  44.474   3.630
95603W        W67329  40.389  18.358  13.804
95604W        W67330  15.122  33.599   0.823
95605W        W67331  31.574  39.102  10.709
95606W        W67332   1.545  31.083   3.127
95607W        W67333  14.375   3.762   0.472
95608W        W67334  39.302  34.845   2.840
95609W        W67335  44.566  34.072  14.477
95610W        W67336   6.176  23.298   1.235
95611W        W67337   3.797   8.645  12.536
95612W        W67338  35.436  28.496  10.778
95613W        W67339  15.272  38.868   1.167
95614W        W67340   8.113  35.620   0.944
95615W        W67341  33.964   8.878  11.521
95616W        W67342  16.272   1.659  12.184
95617W        W67343  23.020  17.826   2.777
95618W        W67344   0.736  27.413  10.402
95619W        W67345  38.504  35.025   0.474
95620W        W67346  43.963  42.532  14.529
95621W        W67347  25.596  27.548  12.648
95622W        W67348  21.751  20.324  13.508
95623W        W67349  11.744   5.303  11.125
95624W        W67350  24.091  30.545  13.404
95625W        W67351  20.045  26.303  11.050
95626W        W67352  10.639  39.597   1.249
95627W        W67353  25.483  17.803   3.597
95628W        W67354   5.908  17.731  13.875
95629W        W67355  36.076  35.971  13.035
95630W        W67356  36.201   1.283   2.728
95631W        W67357   3.989  12.205  12.999
95632W        W67358  28.459   1.961  12.792
95633W        W67359  20.636  24.030   4.248
95634W        W67360  28.602   4.749  14.696
95635W        W67361  37.152  31.697  13.076
95636W        W67362  30.557  18.306  13.657
95637W        W67363  42.709  44.099  14.483
95638W        W67364   1.514  22.295  12.936
95639W        W67365  24.981   4.270  11.091
95640W        W67366  18.294  12.587   3.126
95641W        W67367  38.552  29.645  10.788
95642W        W67368  17.358  13.858  11.952
95643W        W67369  26.398  19.042   2.623
95644W        W67370   6.123  16.326  10.636
95645W        W67371  32.071  13.410   3.355
95646W        W67372  14.397  37.489  14.511
95647W        W67373  15.673  30.952   3.112
95648W        W67374  40.946  12.400   1.214
95649W        W67375  16.812  29.852  10.722
95650W        W67376  42.059   0.854   2.522
95651W        W67377  44.992  22.235  13.819
95652W        W67378  26.892   7.360  14.736
95653W        W67379  30.115  41.780   5.068
95654W        W67380  14.610  40.593  14.436
95655W        W67381  26.220  15.672  10.496
95656W        W67382  14.648  36.761   0.645
95657W        W67383  38.839  36.488   1.016
95658W        W67384  38.145   2.037   3.511
95659W        W67385   1.289   3.956  11.486
95660W        W67386  15.146  29.404   2.111
95661W        W67387  17.028  37.787   1.930
95662W        W67388  32.062   6.349   3.741
95663W        W67389   4.478   7.527   2.120
95664W        W67390  43.756  19.336   0.881
95665W        W67391  22.715  34.095   0.498
95666W        W67392  41.619  25.685  14.509
95667W        W67393  32.719  11.648  14.858
95668W        W67394  30.542  34.797  14.911
95669W        W67395  42.533  30.930   3.152
95670W        W67396  31.503   9.244  13.057
95671W        W67397  17.428   8.854   0.307
95672W        W67398  13.760  35.693  14.787
95673W        W67399  17.699   9.430  11.135
95674W        W67400   1.836  19.393   0.799
95675W        W67401  33.564   1.731   0.579
95676W        W67402  10.786   8.381  12.636
95677W        W67403   9.406  41.726   3.164
95678W        W67404  20.754  17.605  14.818
95679W        W67405  30.956   2.471   1.310
95680W        W67406   5.237  26.862  11.606
95681W        W67407  29.210  36.054  11.937
95682W        W67408  40.221  37.835   5.023
95683W        W67409  20.986   9.579   3.883
95684W        W67410  36.961   7.633   3.163
95685W        W67411  10.366   9.406  11.622
95686W        W67412   9.173  36.448   0.827
95687W        W67413  44.514  32.169  14.367
95688W        W67414   7.909  34.635  10.676
95689W        W67415  18.700  10.443   3.491
95690W        W67416  14.014  35.351   2.172
95691W        W67417  15.542  15.210   2.812
95692W        W67418  14.347  43.030  11.586
95693W        W67419  42.746  11.792  14.488
95694W        W67420  17.755  11.913  12.131
95695W        W67421  23.059  41.326  11.064
95696W        W67422  25.483  32.877   2.928
95697W        W67423   8.605  35.584   5.008
95698W        W67424  41.833  17.779   3.194
95699W        W67425  21.972  43.227   1.846
95700W        W67426  11.097  38.507   0.850
95701W        W67427  35.840  14.216   0.802
95702W        W67428  29.015  22.785  11.522
95703W        W67429   4.948  35.591   1.787
95704W        W67430  11.297  18.369  12.414
95705W        W67431  18.352  25.261   3.601
95706W        W67432   1.369  37.855   1.013
95707W        W67433   6.411  37.645  13.319
95708W        W67434  34.813  12.446  10.685
95709W        W67435  11.805   8.778  14.822
95710W        W67436  28.925  29.987   1.330
95711W        W67437  17.610  44.289   3.139
95712W        W67438  27.611  14.176  14.050
95713W        W67439  18.141   4.050  12.701
95714W        W67440  24.833  24.572   1.733
95715W        W67441  24.781  31.644  14.756
95716W        W67442  17.687  11.947   2.289
95717W        W67443   6.864   7.214   2.634
95718W        W67444  12.141   5.989   1.342
95719W        W67445   4.959  10.363  14.431
95720W        W67446  33.994  32.638   2.596
95721W        W67447  20.728  10.219  10.868
95722W        W67448  26.175  42.524  10.410
95723W        W67449  19.334  12.251   1.753
95724W        W67450  33.636   1.226   4.198
95725W        W67451  36.867  31.546  13.509
95726W        W67452  10.581   5.997   4.438
95727W        W67453   0.205   2.745   0.924
95728W        W67454  43.030   8.873   3.052
95729W        W67455  12.151  44.017   4.308
95730W        W67456  26.011  30.756   0.517
95731W        W67457  10.403  13.692  14.040
95732W        W67458  34.323  26.721  13.896
95733W        W67459  34.241   2.873  14.385
95734W        W67460  33.379   2.339   3.665
95735W        W67461  26.970   6.908  14.392
95736W        W67462  21.034  35.774   2.262
95737W        W67463  20.639  26.676   2.016
95738W        W67464  33.183  22.246  14.977
95739W        W67465  35.491  38.802   4.675
95740W        W67466   5.588   4.490   2.729
95741W        W67467   5.697  37.420  13.459
95742W        W67468  15.750   4.702   2.633
95743W        W67469  25.190  30.502  10.797
95744W        W67470   5.738  28.178  14.857
95745W        W67471  22.991   3.787  14.073
95746W        W67472  17.005  32.891  12.470
95747W        W67473  11.389  31.010  13.817
95748W        W67474  44.368  42.236   1.257
95749W        W67475  29.464  19.101  11.541
95750W        W67476  28.514  16.201   2.879
95751W        W67477  15.263  18.528   1.688
95752W        W67478  15.311  35.826   4.203
95753W        W67479  25.943  32.625   4.760
95754W        W67480  14.316  29.995  13.824
95755W        W67481  15.234  36.815   4.285
95756W        W67482  20.576  39.948   3.719
95757W        W67483  43.716  13.899   1.884
95758W        W67484   1.414   8.704  11.713
95759W        W67485  43.464  18.694   4.690
95760W        W67486  28.068  29.506   2.853
95761W        W67487  35.930   3.222  13.681
95762W        W67488   5.134  32.512   2.719
95763W        W67489  11.064   3.630  13.383
95764W        W67490  34.141  12.688  13.407
95765W        W67491  24.405   8.481   4.912
95766W        W67492  11.225   7.571  11.089
95767W        W67493   4.681  26.001   1.361
95768W        W67494  43.508  10.593   4.078
95769W        W67495  27.487  44.505   2.911
95770W        W67496  26.091  20.463  11.539
95771W        W67497  32.471   6.070  14.403
95772W        W67498  14.370   1.349   1.800
95773W        W67499  30.865  11.083  14.038
95774W        W67500   3.731  42.827   2.666
95775W        W67501  35.973  29.465  10.775
95776W        W67502  42.953  14.308  10.793
95777W        W67503   2.868   1.998   3.369
95778W        W67504  36.071  17.186   1.701
95779W        W67505  36.584  42.104  11.140
95780W        W67506  18.007   2.627   3.788
95781W        W67507  20.787  28.129  14.535
95782W        W67508  32.361  42.429   0.738
95783W        W67509   1.522  27.646  10.672
95784W        W67510   1.277  24.371  11.998
95785W        W67511  23.178  23.593   0.971
95786W        W67512  31.182  16.356  12.511
95787W        W67513   7.773  12.711   1.450
95788W        W67514  23.567  16.767  12.561
95789W        W67515  19.141  36.140  11.512
95790W        W67516  25.135  25.504  11.557
95791W        W67517  25.115   1.496   2.783
95792W        W67518  34.574  31.109   0.282
95793W        W67519   9.575  17.789  13.908
95794W        W67520   1.472   1.021  12.639
95795W        W67521   4.448  21.616   0.092
95796W        W67522  24.186  32.979   3.779
95797W        W67523  44.073  14.242   2.111
95798W        W67524  21.591   6.962   0.314
95799W        W67525  19.139   5.420  14.287
95800W        W67526   9.397   8.709  13.902
95801W        W67527   0.660   1.952   4.696
95802W        W67528  33.601  43.339  12.881
95803W        W67529  30.701  36.591   3.707
95804W        W67530   6.481   6.401  12.078
95805W        W67531   0.784  24.958   1.052
95806W        W67532  16.285   4.367  13.047
95807W        W67533  37.781  27.463  11.117
95808W        W67534  20.505  37.787  12.664
95809W        W67535   6.824   7.714  11.522
95810W        W67536  11.242  37.776   1.199
95811W        W67537  37.765   2.023  10.700
95812W        W67538   1.288  21.348  13.787
95813W        W67539  37.111   1.657   1.613
95814W        W67540  37.093   3.761   1.795
95815W        W67541  29.646  38.322  10.729
95816W        W67542  37.252   9.635  10.765
95817W        W67543   1.536  36.830  14.022
95818W        W67544   2.146   0.816  14.910
95819W        W67545   3.277   3.915   1.610
95820W        W67546  42.858   3.776  10.540
95821W        W67547  42.340  12.090  14.543
95822W        W67548  17.499  41.856  12.858
95823W        W67549  27.822  37.760  13.983
95824W        W67550   2.260  44.332   4.846
95825W        W67551  10.197  22.340  14.269
95826W        W67552   3.816  11.869   1.143
95827W        W67553  15.215  25.918  13.373
95828W        W67554  20.494  23.678  14.930
95829W        W67555   1.264   9.887   3.242
95830W        W67556  21.122  42.448  11.671
95831W        W67557  22.372  32.354  12.736
95832W        W67558  14.042  12.418   3.519
95833W        W67559  22.320  15.924   2.719
95834W        W67560  18.625   8.956   5.084
95835W        W67561  39.618  40.323   4.885
95836W        W67562  18.834  34.125   4.928
95837W        W67563  24.070  13.071   1.851
95838W        W67564  41.132  22.852  14.843
95839W        W67565   8.926  40.016  14.189
95840W        W67566  10.724  14.939   2.133
95841W        W67567   1.796  26.287   0.447
95842W        W67568  36.026  44.504  12.901
95843W        W67569  42.126   6.922  12.540
95844W        W67570  39.994  26.226  11.734
95845W        W67571  28.025  35.394  11.505
95846W        W67572  26.428  34.411   3.312
95847W        W67573   6.636   7.909   0.405
95848W        W67574  39.960  13.059   4.139
95849W        W67575  23.596  18.802  10.807
95850W        W67576  36.378  43.501  13.289
95851W        W67577  32.452  22.752   1.751
95852W        W67578  43.359   7.956  12.005
95853W        W67579  38.364  44.130   1.757
95854W        W67580   5.923  27.161  13.018
95855W        W67581  19.285  28.658   0.171
95856W        W67582  43.899   3.925  10.660
95857W        W67583   7.492  29.402   5.101
95858W        W67584  18.301   6.663  14.944
95859W        W67585  39.920  23.025   2.810
95860W        W67586  25.652  19.932  11.122
95861W        W67587   2.959   0.990  14.362
95862W        W67588  30.195   9.391   0.031
95863W        W67589  23.631  26.697  10.733
95864W        W67590  37.861  17.539   2.289
95865W        W67591  17.609  33.866   3.620
95866W        W67592  27.493   7.419   2.289
95867W        W67593  33.722  30.048   2.338
95868W        W67594  14.761  24.508  11.852
95869W        W67595  38.368  44.551   1.442
95870W        W67596   7.773  20.715   4.559
95871W        W67597   5.570  27.533  11.404
95872W        W67598  23.491  11.140  14.582
95873W        W67599  39.577  15.451  11.477
95874W        W67600   7.116  22.938  14.534
95875W        W67601   4.893   6.862   1.034
95876W        W67602  38.488  25.043  11.553
95877W        W67603  11.745  18.845   3.776
95878W        W67604  16.229  13.250   0.907
95879W        W67605  10.608  41.743   2.788
95880W        W67606  17.975  25.167  14.901
95881W        W67607  26.033  28.558   3.157
95882W        W67608  18.210   9.904  11.872
95883W        W67609  15.577  18.613  12.462
95884W        W67610  28.032  12.840  10.040
95885W        W67611  36.166  19.874   3.133
95886W        W67612  28.263  11.220   0.881
95887W        W67613  16.637  31.103  11.207
95888W        W67614  34.872   2.180  10.596
95889W        W67615   7.813  38.117  10.587
95890W        W67616  10.185  42.500   1.835
95891W        W67617  16.826  18.317  10.725
95892W        W67618  19.558  36.596  13.054
95893W        W67619  35.882  39.838  10.901
95894W        W67620  27.526  11.556  14.359
95895W        W67621  33.693  11.925   0.984
95896W        W67622  36.548  34.671   1.006
95897W        W67623   6.382  23.847   3.351
95898W        W67624   2.983  15.650  14.990
95899W        W67625   1.455   3.191   4.303
95900W        W67626   3.181  21.158  11.381
95901W        W67627  39.322  22.555   3.222
95902W        W67628  20.360  28.469  14.499
95903W        W67629  32.536  27.438   4.572
95904W        W67630   1.418   3.329  13.161
95905W        W67631  11.199  14.892  11.478
95906W        W67632  42.381  40.159  14.430
95907W        W67633  39.083  13.605   0.520
95908W        W67634   6.897  43.283   3.771
95909W        W67635  35.905  35.848   1.127
95910W        W67636  21.991  29.920   0.820
95911W        W67637  13.705   6.950  13.810
95912W        W67638  38.292   4.031  13.025
95913W        W67639   9.706  27.187   1.349
95914W        W67640  33.803  44.353   3.269
95915W        W67641   2.729  10.450   3.633
95916W        W67642   9.763  42.602  12.522
95917W        W67643   6.274  14.620   4.043
95918W        W67644  13.811   3.369  12.904
95919W        W67645  41.564  44.280  11.261
95920W        W67646  28.953  22.252   2.971
95921W        W67647  44.324  40.272   4.558
95922W        W67648  25.046  10.090  14.958
95923W        W67649  31.713  25.183   1.384
95924W        W67650   8.193   2.249  13.513
95925W        W67651  40.861  11.612  11.197
95926W        W67652   9.716   4.802  12.948
95927W        W67653  18.641  20.828  14.506
95928W        W67654  18.278  23.732  10.583
95929W        W67655   2.522  40.290   3.269
95930W        W67656  24.106  42.826   2.198
95931W        W67657  25.080  38.705  11.470
95932W        W67658  18.647  29.606   1.783
95933W        W67659   3.312  28.223   2.902
95934W        W67660  28.451  32.360  14.826
95935W        W67661   3.674  34.966  11.225
95936W        W67662  36.439  39.735  12.544
95937W        W67663   9.146  34.440   2.364
95938W        W67664  15.103  41.271  14.838
95939W        W67665  44.069  28.343  12.890
95940W        W67666  14.341  20.456   3.079
95941W        W67667  38.831  31.706  11.470
95942W        W67668  35.437   5.548  13.932
95943W        W67669  24.460   3.029  10.748
95944W        W67670  22.213  43.382   3.905
95945W        W67671  33.001  34.120   0.483
95946W        W67672  38.504  11.764   1.343
95947W        W67673  34.360  34.831  12.578
95948W        W67674  16.422  30.560   2.412
95949W        W67675  10.365  43.928   3.897
95950W        W67676  10.208   3.587   4.153
95951W        W67677  34.150  31.620   3.338
95952W        W67678  34.816   8.231   0.399
95953W        W67679   1.482  41.322   2.127
95954W        W67680  18.697  23.088  11.582
95955W        W67681   6.287  16.656   5.015
95956W        W67682  42.802  21.144   2.299
95957W        W67683  37.602  42.417  11.094
95958W        W67684   8.617  23.888   0.178
95959W        W67685   0.083  25.690  11.439
95960W        W67686  44.111  12.696  11.219
95961W        W67687   2.705   2.429   0.233
95962W        W67688  40.092  36.693  10.809
95963W        W67689   2.491   5.339  10.647
95964W        W67690  17.398  39.002   0.426
95965W        W67691  30.070  24.047   3.288
95966W        W67692  33.598   0.067   0.818
95967W        W67693  43.321   1.227  10.593
95968W        W67694  19.857  34.405  10.736
95969W        W67695  42.305  19.152   2.992
95970W        W67696  11.233  25.909   2.759
95971W        W67697   8.500  15.447   5.070
95972W        W67698  22.650  44.065   4.013
95973W        W67699  33.979  35.753   5.021
95974W        W67700  16.155  31.858  14.132
95975W        W67701  20.959  35.597  11.096
95976W        W67702  25.850  22.705  13.321
95977W        W67703  11.610  24.132   0.767
95978W        W67704  19.151   9.890   2.566
95979W        W67705   9.688  15.658   4.190
95980W        W67706  17.326  36.171  11.965
95981W        W67707  18.070  31.108   1.652
95982W        W67708   9.420  13.589  12.066
95983W        W67709  11.754  25.545   1.877
95984W        W67710  39.704  39.281   3.505
95985W        W67711  37.235   7.008  14.456
95986W        W67712   3.618  10.399   3.294
95987W        W67713  42.974   8.601  11.557
95988W        W67714   0.798  40.787  14.761
95989W        W67715   5.614  11.214   3.580
95990W        W67716   5.865  21.699   2.386
95991W        W67717   1.260  42.310   3.732
95992W        W67718  18.832  14.359  10.939
95993W        W67719  14.264  23.519  13.917
95994W        W67720   4.260   8.350  14.662
95995W        W67721  22.936   8.311   4.158
95996W        W67722  27.519  43.783   0.331
95997W        W67723  41.525  20.615  13.054
95998W        W67724  25.551  10.704   3.387
95999W        W67725   9.510  17.821   3.627
96000W        W67726   3.635  32.106   0.865
96001W        W67727   9.379   5.405   0.160
96002W        W67728  11.271  41.953  14.787
96003W        W67729   7.093  16.150   4.969
96004W        W67730  18.091  24.211   0.734
96005W        W67731  32.566  11.271  14.512
96006W        W67732  32.512  24.898  10.605
96007W        W67733  20.579  19.358   0.811
96008W        W67734  35.380  37.059  10.792
96009W        W67735   7.454  25.601   2.170
96010W        W67736  28.751  39.051  10.663
96011W        W67737  22.241  12.255  12.316
96012W        W67738  13.449   1.363  14.916
96013W        W67739  28.957  33.640  14.984
96014W        W67740   1.762  32.477  12.305
96015W        W67741  29.942  40.256   2.950
96016W        W67742  19.540  41.386   0.021
96017W        W67743  11.285  42.084   4.364
96018W        W67744  37.494  32.516   3.878
96019W        W67745  22.990   9.871   3.025
96020W        W67746  41.018   7.355  12.064
96021W        W67747  41.052  35.081  14.930
96022W        W67748   7.347   0.453   0.445
96023W        W67749  13.109  33.579   9.988
96024W        W67750  12.068  18.835  13.279
96025W        W67751  32.193  31.642  14.959
96026W        W67752  17.075  37.640  13.813
96027W        W67753  10.236   0.956   3.861
96028W        W67754  11.306  36.537  11.697
96029W        W67755  39.874  30.565   4.408
96030W        W67756  42.435  40.026   0.358
96031W        W67757   8.612   5.155   3.793
96032W        W67758  38.838  26.282   5.031
96033W        W67759  39.425  16.370   4.234
96034W        W67760  13.515  28.609   0.847
96035W        W67761  21.152  33.503   3.099
96036W        W67762  34.142  18.674  10.451
96037W        W67763  21.811  25.289  10.235
96038W        W67764   6.294  27.269   2.134
96039W        W67765  21.836   6.249   3.262
96040W        W67766   5.774   8.297  11.061
96041W        W67767  16.118   1.969  14.842
96042W        W67768  40.949  18.860   0.999
96043W        W67769   8.290  31.376   0.253
96044W        W67770  18.098  29.034   4.733
96045W        W67771  25.723  16.815  13.549
96046W        W67772   1.451   0.226   3.176
96047W        W67773  19.497   8.951  12.219
96048W        W67774   1.478  39.748  14.896
96049W        W67775  15.549  41.061   2.639
96050W        W67776  42.501  24.153  14.926
96051W        W67777  15.547  28.599   3.382
96052W        W67778  26.165  18.687   1.444
96053W        W67779   5.865   1.107  13.397
96054W        W67780  34.464  17.528   1.288
96055W        W67781   9.655  31.665   3.693
96056W        W67782   0.695  38.739   4.112
96057W        W67783  26.712  41.081  11.166
96058W        W67784  26.106  34.417   4.276
96059W        W67785  29.543  25.902   1.908
96060W        W67786  22.634  19.167  14.436
96061W        W67787   6.258  35.643   2.315
96062W        W67788  43.293  23.233   2.716
96063W        W67789   4.882  27.454   0.474
96064W        W67790   7.759  38.532  11.845
96065W        W67791  12.548  26.152   1.718
96066W        W67792  36.570  17.585  12.964
96067W        W67793  11.210   1.988  12.023
96068W        W67794  43.510  38.735  14.577
96069W        W67795  11.379  16.125   0.476
96070W        W67796   5.525  13.052   1.805
96071W        W67797  12.819  25.170  12.484
96072W        W67798  30.380   4.404   1.170
96073W        W67799  15.553   4.661   1.471
96074W        W67800  40.829   6.154  11.171
96075W        W67801  22.606  23.709   0.793
96076W        W67802  27.947  44.597   4.982
96077W        W67803   1.030  31.572   3.976
96078W        W67804  40.881  12.300  10.602
96079W        W67805  18.140  28.912   1.237
96080W        W67806  24.526  19.342   1.905
96081W        W67807   6.247  12.485  12.771
96082W        W67808  33.547   7.068  10.557
96083W        W67809  11.314  20.944   3.109
96084W        W67810  10.070  27.857  13.383
96085W        W67811   0.824  13.618   1.884
96086W        W67812  41.727  38.000   1.967
96087W        W67813   8.707   3.472   2.340
96088W        W67814  14.937   5.905  13.485
96089W        W67815  23.535  25.825   2.157
96090W        W67816  38.761   0.318  12.947
96091W        W67817  16.015  41.940   0.249
96092W        W67818  24.599  38.298  14.040
96093W        W67819  43.459  14.607   0.832
96094W        W67820  13.620  37.548   0.283
96095W        W67821  37.148  35.411  10.860
96096W        W67822  42.994   8.773   4.301
96097W        W67823  17.752  16.143   2.659
96098W        W67824  25.276  24.680  13.514
96099W        W67825  27.941   0.062   2.899
96100W        W67826   1.432  13.054   2.277
96101W        W67827  36.355   5.619  12.773
96102W        W67828  14.654  36.842  11.912
96103W        W67829  12.327  18.532  12.421
96104W        W67830  24.258  18.036  14.490
96105W        W67831  28.369  31.914   4.160
96106W        W67832   5.630   6.363   1.859
96107W        W67833  44.713   3.543   4.999
96108W        W67834  27.111  17.224   1.329
96109W        W67835  18.256  39.281  11.988
96110W        W67836  10.603  10.547   0.936
96111W        W67837  25.922  15.247  10.735
96112W        W67838  21.570  43.470   1.412
96113W        W67839  15.680  26.958   1.485
96114W        W67840  15.140  34.279  14.332
96115W        W67841  39.592  28.833   4.532
96116W        W67842  10.108  21.404   4.364
96117W        W67843  11.831  22.441   0.892
96118W        W67844  19.207   4.391   0.438
96119W        W67845   7.972  23.759  14.785
96120W        W67846   2.725  17.673  12.711
96121W        W67847  17.146   1.003   3.858
96122W        W67848  41.945   0.498  12.398
96123W        W67849  20.103   7.572   1.284
96124W        W67850  21.825  21.645   0.370
96125W        W67851  44.532  28.041   4.403
96126W        W67852   4.253  44.174  12.113
96127W        W67853   6.347  22.419  12.080
96128W        W67854  37.067  32.740  10.651
96129W        W67855  43.719  13.820  12.941
96130W        W67856  31.140   0.958   2.587
96131W        W67857  23.971  10.319   3.845
96132W        W67858  37.134  37.918   3.606
96133W        W67859  17.155  27.656  12.004
96134W        W67860  18.554  17.254  12.638
96135W        W67861   0.351  14.269   2.930
96136W        W67862  36.358  25.597   1.825
96137W        W67863   1.479  36.845  11.996
96138W        W67864  28.952  22.490   4.051
96139W        W67865  29.133  36.835  11.425
96140W        W67866  32.238  14.251   1.167
96141W        W67867  25.144   0.729   3.722
96142W        W67868  22.215  38.822  10.266
96143W        W67869  28.951  37.251   2.361
96144W        W67870   3.373   7.634   4.615
96145W        W67871   2.802   0.979   1.136
96146W        W67872  21.709  12.210   1.950
96147W        W67873  22.496   4.701  12.945
96148W        W67874   7.950  42.226   2.132
96149W        W67875  32.622   0.865  13.005
96150W        W67876   8.903  26.584   9.936
96151W        W67877  23.317  41.487  12.886
96152W        W67878  16.599  40.096   4.145
96153W        W67879  10.792  28.665   3.028
96154W        W67880  33.726  40.602  11.413
96155W        W67881   6.304  44.881   1.783
96156W        W67882  34.898  43.791   4.171
96157W        W67883  11.216  42.056  11.083
96158W        W67884  19.136  35.595  11.539
96159W        W67885   4.396  23.626   4.528
96160W        W67886  21.049  23.439  12.691
96161W        W67887  41.377  37.602   3.283
96162W        W67888  24.291  11.720   3.706
96163W        W67889   5.868   1.673  11.460
96164W        W67890  43.212  28.001  10.831
96165W        W67891  21.402   7.833  14.515
96166W        W67892  43.800  42.511  13.105
96167W        W67893  38.383  10.381   1.454
96168W        W67894   9.640  30.202  12.067
96169W        W67895  29.908   3.361   2.481
96170W        W67896  24.593  33.028  11.874
96171W        W67897   0.851  32.762   3.855
96172W        W67898  26.054  43.841  10.727
96173W        W67899  44.130   1.844  11.351
96174W        W67900  34.402  21.317   3.485
96175W        W67901  41.670  31.640   5.067
96176W        W67902  35.493  28.910  11.952
96177W        W67903  30.446   7.265   3.738
96178W        W67904  32.385   1.141  12.569
96179W        W67905  24.665  25.520   3.137
96180W        W67906  10.690   9.853   0.535
96181W        W67907  35.322  11.882   4.150
96182W        W67908  36.434  33.564  12.891
96183W        W67909  26.844  15.927   2.466
96184W        W67910  20.708   1.452  11.503
96185W        W67911  29.184  17.140   4.506
96186W        W67912  33.999  19.316   4.129
96187W        W67913   0.038  44.552   3.164
96188W        W67914  42.949   4.133  12.032
96189W        W67915   6.401  19.737  13.103
96190W        W67916  16.873  19.700  14.190
96191W        W67917  26.922  26.755  13.699
96192W        W67918  34.601  35.765   1.012
96193W        W67919  18.722  22.616  13.615
96194W        W67920   7.767   6.131  11.593
96195W        W67921   7.856   8.445  13.996
96196W        W67922  19.100   2.861   2.949
96197W        W67923   2.160   1.503   3.248
96198W        W67924   2.247  39.495  13.454
96199W        W67925  29.629  32.880   4.212
96200W        W67926  37.752   9.347   4.510
96201W        W67927  22.779  23.582  13.502
96202W        W67928  27.167  12.717  10.482
96203W        W67929  36.056   2.683   2.332
96204W        W67930  18.309  11.490  14.801
96205W        W67931  37.537  35.364  11.518
96206W        W67932  21.270  36.914   1.517
96207W        W67933   8.327  30.515  12.071
96208W        W67934  20.253  10.141  12.163
96209W        W67935   4.770  14.734   3.093
96210W        W67936  14.653  44.243   3.287
96211W        W67937  12.166  43.288   3.460
96212W        W67938  23.567  33.187   0.660
96213W        W67939  15.918  35.377   0.450
96214W        W67940  22.021  36.794  11.671
96215W        W67941   3.763  43.217   0.313
96216W        W67942  10.644  30.099   1.346
96217W        W67943   6.349   7.385   9.807
96218W        W67944  22.503  20.347   0.953
96219W        W67945  13.286  29.413   2.219
96220W        W67946  19.621  31.728  14.908
96221W        W67947   4.256  35.840  10.982
96222W        W67948  27.440   2.283   2.434
96223W        W67949  38.575  34.934  11.466
96224W        W67950  16.552  41.634  13.013
96225W        W67951  21.052  42.909   3.399
96226W        W67952  23.698   6.646  11.198
96227W        W67953  44.192   7.167   4.438
96228W        W67954   4.351  37.350   0.959
96229W        W67955   3.830  31.466  11.556
96230W        W67956  18.950  28.636  12.655
96231W        W67957  12.140   2.878   0.687
96232W        W67958  36.950   5.886   2.636
96233W        W67959  16.486  34.034  11.715
96234W        W67960  23.936  39.421  13.001
96235W        W67961  18.311  22.953   1.423
96236W        W67962  26.007   3.511   1.923
96237W        W67963   4.928  18.422  13.721
96238W        W67964  18.539  11.269   1.448
96239W        W67965  18.674  44.771  11.535
96240W        W67966  23.523  12.797  14.030
96241W        W67967  14.769  26.430   1.662
96242W        W67968  33.007  40.903   2.815
96243W        W67969  43.221  39.715  11.178
96244W        W67970  27.448   6.321   1.265
96245W        W67971  43.304   9.372  11.131
96246W        W67972  12.239  10.197   1.752
96247W        W67973  40.526  29.716  13.883
96248W        W67974  19.180   3.107  11.590
96249W        W67975  23.585   3.258  14.703
96250W        W67976   3.939  31.179  11.991
96251W        W67977  44.474   9.710   4.507
96252W        W67978   5.870  26.080  11.381
96253W        W67979  16.688  13.313  11.936
96254W        W67980  25.025  39.100  13.626
96255W        W67981   0.525  43.433  13.518
96256W        W67982  37.999   5.947   4.954
96257W        W67983  33.948  13.778   2.456
96258W        W67984  26.891  38.406   3.911
96259W        W67985  39.607  13.254  11.543
96260W        W67986  14.841  27.477   4.691
96261W        W67987  32.060  11.339  12.160
96262W        W67988   7.809  28.434   1.319
96263W        W67989  25.586   1.606   3.213
96264W        W67990  23.763   8.172   0.449
96265W        W67991  18.681  23.951  11.131
96266W        W67992  39.399  41.014  11.604
96267W        W67993   6.519  14.505   1.396
96268W        W67994   1.705   1.840  12.175
96269W        W67995  15.756  31.473   0.893
96270W        W67996  12.231  15.239   3.978
96271W        W67997  27.217   7.357  14.319
96272W        W67998  14.636  44.653   2.339
96273W        W67999   0.897  38.411   1.804
96274W        W68000   2.394  22.097   2.665
96275W        W68001   1.719  42.565  11.178
96276W        W68002  39.088   2.070  13.533
96277W        W68003  37.539  29.191  14.930
96278W        W68004  14.367   8.610   4.119
96279W        W68005  15.220  28.129  13.432
96280W        W68006  44.953  20.240  12.306
96281W        W68007  24.705   6.722  11.225
96282W        W68008  44.191  11.820   1.285
96283W        W68009  32.296  41.164   3.153
96284W        W68010   2.187  14.700  11.155
96285W        W68011  34.417  27.647   1.538
96286W        W68012   0.078   0.751  13.332
96287W        W68013  37.776  29.453   1.355
96288W        W68014   9.323   0.150   2.283
96289W        W68015  14.735   3.541  14.357
96290W        W68016  36.627  36.369  13.446
96291W        W68017  42.408  42.772   4.732
96292W        W68018  21.198  30.088  14.843
96293W        W68019  43.548  11.739  11.975
96294W        W68020  31.936  24.688  11.607
96295W        W68021  22.427  26.616  10.678
96296W        W68022  12.280  20.046   3.243
96297W        W68023  23.416  35.760   4.638
96298W        W68024   4.102   5.138   1.295
96299W        W68025  39.314  24.059   3.668
96300W        W68026  19.874   7.384   4.604
96301W        W68027  15.550  40.135  10.229
96302W        W68028  18.828  16.158   2.681
96303W        W68029  39.305  41.003   2.290
96304W        W68030  34.240   3.949   3.213
96305W        W68031   8.254  18.526  14.717
96306W        W68032   1.735  22.730  12.731
96307W        W68033  40.588  19.670  13.390
96308W        W68034  30.256  26.468   1.312
96309W        W68035  14.204   6.695  13.875
96310W        W68036  33.589   3.413   2.379
96311W        W68037  27.750  12.558  13.455
96312W        W68038  13.371   5.891  12.006
96313W        W68039  38.836  34.945  12.497
96314W        W68040  32.369  37.925   2.833
96315W        W68041  32.606  28.975   3.341
96316W        W68042  41.520  18.101   4.627
96317W        W68043  33.182  43.273  11.636
96318W        W68044  30.837   5.031  11.088
96319W        W68045   0.658  40.967  12.953
96320W        W68046  25.799  38.750  12.019
96321W        W68047  20.540  34.244  12.966
96322W        W68048  18.635  44.203   1.937
96323W        W68049  24.415  43.685   5.062
96324W        W68050  10.132  44.824  14.549
96325W        W68051   7.863  43.004   4.072
96326W        W68052   6.875   4.345   1.867
96327W        W68053   9.751  38.636   3.240
96328W        W68054  32.544   6.036   4.299
96329W        W68055  30.039   1.950   2.490
96330W        W68056   1.260  44.745   1.452
96331W        W68057  23.211   7.457  13.754
96332W        W68058  38.533  35.843   3.228
96333W        W68059  24.891   9.943  10.551
96334W        W68060  23.098   2.680   4.085
96335W        W68061  30.387  41.711  14.313
96336W        W68062  31.506  39.790   4.642
96337W        W68063   8.736  35.050  13.939
96338W        W68064  42.707  30.080  11.982
96339W        W68065  40.535  31.357   3.671
96340W        W68066  30.597  40.044  13.735
96341W        W68067  19.023   6.816  11.134
96342W        W68068  43.273  42.012  13.336
96343W        W68069  43.988  26.002  12.508
96344W        W68070  41.021  15.897   4.546
96345W        W68071  33.042  31.651  11.553
96346W        W68072  31.322   6.065   4.166
96347W        W68073  32.816   3.745   0.493
96348W        W68074   2.886  15.688  12.511
96349W        W68075   0.654  18.781  11.245
96350W        W68076  23.301  19.753  11.241
96351W        W68077   3.001  17.092  14.046
96352W        W68078  33.534  42.544  13.412
96353W        W68079  29.611   0.222   2.000
96354W        W68080   6.945   8.602  12.227
96355W        W68081  32.853  40.038   4.651
96356W        W68082  33.518  43.306   1.875
96357W        W68083  24.097  17.725  11.134
96358W        W68084  34.581  42.055   0.273
96359W        W68085  28.830  37.039   3.629
96360W        W68086  30.200   3.346   4.928
96361W        W68087  29.114  20.344  14.176
96362W        W68088  17.894  11.834   4.577
96363W        W68089  23.211  27.920   2.852
96364W        W68090  13.560  38.782   2.497
96365W        W68091  24.599  44.089  14.037
96366W        W68092  43.502  23.031   2.219
96367W        W68093  13.145  35.682  14.425
96368W        W68094  30.975   8.585  10.121
96369W        W68095  28.048   5.895  11.604
96370W        W68096  23.110   5.323   0.648
96371W        W68097  38.293  15.132  13.048
96372W        W68098  13.137   6.364   2.749
96373W        W68099  11.984  40.213  10.247
96374W        W68100  20.766   3.466   1.045
96375W        W68101  30.231  44.375   2.054
96376W        W68102  19.280   6.022  14.887
96377W        W68103   8.361  19.722  10.512
96378W        W68104  39.420  11.187   1.703
96379W        W68105  41.967  28.115   2.216
96380W        W68106  21.170  35.161   0.272
96381W        W68107  23.228  21.517  11.081
96382W        W68108  44.718  11.698   1.401
96383W        W68109  34.010  40.067  14.386
96384W        W68110  44.052  40.780  14.053
96385W        W68111  25.029  10.334   3.164
96386W        W68112  19.675  20.226  13.842
96387W        W68113  43.189  21.613  11.044
96388W        W68114  19.675   0.943   1.882
96389W        W68115   9.109  30.888  13.001
96390W        W68116   6.617   1.021   2.802
96391W        W68117  17.580  31.119  12.281
96392W        W68118   0.385   1.546  12.430
96393W        W68119  25.774   1.756  10.782
96394W        W68120  19.202  25.101   1.216
96395W        W68121  39.696   0.039   2.754
96396W        W68122  18.294   3.864  10.521
96397W        W68123  16.630  15.214   4.317
96398W        W68124   1.628  34.491   4.001
96399W        W68125  35.068   6.424  11.559
96400W        W68126  40.575  39.058   3.721
96401W        W68127   1.459  28.104   4.594
96402W        W68128  15.014  14.406   1.712
96403W        W68129  24.965   8.791  14.121
96404W        W68130  33.017   8.400   1.444
96405W        W68131  18.383  33.060   1.743
96406W        W68132  14.161  25.926  11.706
96407W        W68133  37.470  29.481  12.443
96408W        W68134  23.702  28.662   3.380
96409W        W68135  19.614   5.530   3.217
96410W        W68136  22.512  33.886  10.172
96411W        W68137  43.581  32.131  13.479
96412W        W68138  26.080  33.973   0.051
96413W        W68139  33.920  44.277  14.179
96414W        W68140   7.927   9.862  11.575
96415W        W68141   6.170  40.540  12.986
96416W        W68142  44.911  15.598   3.736
96417W        W68143  34.510  23.201  11.741
96418W        W68144  25.024  36.983   0.798
96419W        W68145  27.967  28.141   4.001
96420W        W68146   7.635   0.449  11.532
96421W        W68147   3.403   1.343  13.875
96422W        W68148   9.950  26.559  14.964
96423W        W68149   1.327  23.157   1.757
96424W        W68150   0.113  44.888   0.239
96425W        W68151   8.716  23.269  11.653
96426W        W68152  21.616  42.941  13.761
96427W        W68153  19.038  42.477   1.984
96428W        W68154  33.116  24.602  10.298
96429W        W68155  36.869  25.074   2.308
96430W        W68156  31.414  33.837  12.561
96431W        W68157   3.475  23.136  12.459
96432W        W68158  22.306  28.374   2.814
96433W        W68159   9.720   2.301   2.168
96434W        W68160  26.959  16.729   1.398
96435W        W68161  15.188  23.941   1.691
96436W        W68162  15.319  11.299   4.144
96437W        W68163   8.878  43.035  12.007
96438W        W68164  36.197  34.132   2.812
96439W        W68165  28.080  39.406  11.136
96440W        W68166  43.233  36.429   3.239
96441W        W68167  36.502   7.158  13.602
96442W        W68168   1.494  16.726  13.460
96443W        W68169   9.629  11.480   2.799
96444W        W68170  41.820  31.875  13.027
96445W        W68171  39.259  37.823   0.623
96446W        W68172   8.904  31.062  12.547
96447W        W68173   3.847   5.873   2.333
96448W        W68174  35.410  16.105  10.818
96449W        W68175  39.548  13.571  13.256
96450W        W68176  36.222  42.007  14.127
96451W        W68177  22.264  29.196   4.127
96452W        W68178  13.699   7.836   4.061
96453W        W68179  12.339   9.663   2.348
96454W        W68180  16.083   2.437   0.827
96455W        W68181  20.226  17.715  12.982
96456W        W68182  31.444  31.887  10.247
96457W        W68183  31.648  21.783   4.145
96458W        W68184  36.982  35.432   4.527
96459W        W68185   1.330  31.337  12.908
96460W        W68186  36.324  34.338   1.327
96461W        W68187  32.605   4.210  12.415
96462W        W68188  36.159  35.406  10.704
96463W        W68189  23.480  29.422  11.620
96464W        W68190  31.488   2.308   0.804
96465W        W68191  27.031   3.937   0.348
96466W        W68192  38.755   5.478   2.554
96467W        W68193   9.858  37.191   3.352
96468W        W68194   5.309  44.798   0.667
96469W        W68195  17.507   7.712  13.371
96470W        W68196  29.383   3.254  10.651
96471W        W68197  37.983  40.896  11.496
96472W        W68198  23.179  35.142   2.403
96473W        W68199  34.540   4.866  13.062
96474W        W68200   8.015  21.230   4.573
96475W        W68201  11.780  40.271  14.442
96476W        W68202  18.412  24.619  11.065
96477W        W68203  19.346   8.269  13.855
96478W        W68204  17.836  28.086   1.908
96479W        W68205  44.832  16.163  11.321
96480W        W68206  35.395   3.327  14.915
96481W        W68207  35.806  24.450   4.332
96482W        W68208  22.290  44.084  12.559
96483W        W68209  18.495   2.198  12.070
96484W        W68210   6.687  27.705  14.921
96485W        W68211  44.892   2.726  12.328
96486W        W68212  44.523  29.084  12.560
96487W        W68213   9.225   7.904   3.669
96488W        W68214  10.347   3.186   1.679
96489W        W68215  10.411  37.126  12.849
96490W        W68216  40.287  21.113   0.011
96491W        W68217  10.086  39.767   1.204
96492W        W68218   7.582   8.885  12.449
96493W        W68219  43.278  43.246  11.926
96494W        W68220  33.158  35.830   3.265
96495W        W68221   2.443  16.037  10.164
96496W        W68222   7.890  36.263   1.913
96497W        W68223  37.092  41.008  13.487
96498W        W68224   7.370  27.495  10.768
96499W        W68225   7.824  22.142  12.122
96500W        W68226  32.897  26.693  12.530
96501W        W68227   0.265  31.887  12.436
96502W        W68228  41.805  44.957  11.988
96503W        W68229  41.177  33.142   1.351
96504W        W68230  15.239  40.425   3.881
96505W        W68231  22.593   4.899   9.994
96506W        W68232  21.736  24.035  14.524
96507W        W68233  31.406  36.070  14.061
96508W        W68234  37.505  25.198   0.964
96509W        W68235   1.863  14.654  14.882
96510W        W68236  42.510  14.187   4.322
96511W        W68237  22.038   8.185  14.871
96512W        W68238  23.977   7.304  14.844
96513W        W68239  39.756  14.791   0.471
96514W        W68240  24.246  16.740   2.625
96515W        W68241  24.572  25.044  10.736
96516W        W68242  43.476  34.943   0.839
96517W        W68243  36.761   7.779  12.895
96518W        W68244   8.250  22.177   3.243
96519W        W68245  26.003  27.359  12.399
96520W        W68246  28.011  43.560  14.773
96521W        W68247  24.624  29.225   0.918
96522W        W68248   1.824   9.234  13.914
96523W        W68249   6.422  23.608  10.751
96524W        W68250  32.133   1.306   0.403
96525W        W68251   1.847  14.157   0.040
96526W        W68252  23.835  32.459  14.328
96527W        W68253  40.018  43.779   4.548
96528W        W68254   4.740  12.543   2.709
96529W        W68255  40.510   0.015  14.803
96530W        W68256  39.531  41.393  10.643
96531W        W68257  10.787  17.586  12.015
96532W        W68258   3.962  36.443  12.462
96533W        W68259  20.753  34.678  13.318
96534W        W68260  35.949   6.929  11.259
96535W        W68261  35.036  21.275   3.056
96536W        W68262  14.179   9.915   3.722
96537W        W68263   0.929   7.428   0.728
96538W        W68264  30.465  34.271  14.984
96539W        W68265  29.158  44.199  13.549
96540W        W68266  12.570  44.209   3.974
96541W        W68267  22.257  35.071  10.865
96542W        W68268  33.182  22.121  13.950
96543W        W68269  37.869  30.189  11.591
96544W        W68270   7.261  14.723   4.312
96545W        W68271  40.002  27.966  13.468
96546W        W68272   3.933  36.127  12.857
96547W        W68273  27.587  41.455  14.333
96548W        W68274  15.004  24.641  10.651
96549W        W68275  28.899  12.327  12.490
96550W        W68276  28.081  18.034   3.882
96551W        W68277   1.408  43.376   1.127
96552W        W68278   7.474  21.288  14.881
96553W        W68279  16.249  35.930   2.187
96554W        W68280  21.674   5.369   3.882
96555W        W68281  21.933   5.797   1.674
96556W        W68282   3.760   8.486   0.903
96557W        W68283  31.970   6.654  10.648
96558W        W68284  28.627  10.733   0.808
96559W        W68285  34.855  43.839   2.717
96560W        W68286   0.247  27.017   2.157
96561W        W68287  36.073  22.668   3.595
96562W        W68288  35.891  33.070   0.684
96563W        W68289  23.656  30.982   2.340
96564W        W68290  26.024  21.571  10.605
96565W        W68291   5.861  39.938  13.526
96566W        W68292  41.749  14.961   2.067
96567W        W68293  30.891  33.992  14.064
96568W        W68294  18.761  38.789   1.935
96569W        W68295  12.813  20.290  13.861
96570W        W68296   3.954  28.205   4.167
96571W        W68297  31.995  35.358  10.647
96572W        W68298  25.663  43.258  13.760
96573W        W68299  22.500  18.300   1.526
96574W        W68300   3.750  42.741   2.125
96575W        W68301  33.969  39.863  12.499
96576W        W68302  26.158  25.206   2.775
96577W        W68303  26.479   6.062  14.762
96578W        W68304  41.867  39.084  13.801
96579W        W68305  31.214  14.498  13.453
96580W        W68306  32.446  22.896   0.756
96581W        W68307  28.206  17.676  11.935
96582W        W68308  36.394  35.532   2.649
96583W        W68309  30.130  41.425  14.689
96584W        W68310  26.717  35.189  11.118
96585W        W68311  31.792  28.046  11.082
96586W        W68312  30.980   8.580  13.301
96587W        W68313   3.410   3.840  12.107
96588W        W68314  43.000   6.832  13.815
96589W        W68315  40.878  37.366  13.615
96590W        W68316  23.433  35.341  12.066
96591W        W68317  28.422   4.205   3.775
96592W        W68318  42.878  34.445   2.155
96593W        W68319   6.905  36.854  12.594
96594W        W68320  28.938  17.264  13.552
96595W        W68321  37.461  20.569  11.010
96596W        W68322  10.627  36.084   2.210
96597W        W68323   7.753   5.009   0.351
96598W        W68324  18.252  26.182   4.416
96599W        W68325  35.784   8.371  14.760
96600W        W68326  16.938  34.370  10.128
96601W        W68327  35.654  19.275  12.965
96602W        W68328   1.784   1.499   2.291
96603W        W68329  41.436   7.943   1.251
96604W        W68330  32.838  26.647   4.145
96605W        W68331  12.759   6.498  11.821
96606W        W68332  43.327  32.226  13.905
96607W        W68333  20.986  22.730   1.388
96608W        W68334  25.259   6.910  12.081
96609W        W68335  26.280  10.736   1.545
96610W        W68336  39.392  35.031  14.773
96611W        W68337  38.290  11.874  12.722
96612W        W68338  39.844  23.632   3.194
96613W        W68339  22.530  24.231   0.801
96614W        W68340  28.417  43.973  12.444
96615W        W68341  13.150  24.375  12.667
96616W        W68342  21.224  38.319  13.601
96617W        W68343   0.454  20.814   4.674
96618W        W68344  42.350  42.110  10.721
96619W        W68345   7.620  18.970  14.541
96620W        W68346  30.104   4.402  14.451
96621W        W68347  43.780  26.223  10.603
96622W        W68348  32.064  22.382   1.871
96623W        W68349  14.189   8.863   0.521
96624W        W68350  11.715   9.841  14.036
96625W        W68351  30.053  25.580  14.858
96626W        W68352   3.259  12.232   1.752
96627W        W68353  28.466  20.496  13.815
96628W        W68354  43.922  20.809   0.790
96629W        W68355  12.385  24.593   0.770
96630W        W68356   3.221  24.576  11.510
96631W        W68357  35.141   6.805  11.233
96632W        W68358  43.471  24.833   1.181
96633W        W68359   3.079   3.244   0.803
96634W        W68360  11.870   8.169  11.490
96635W        W68361  32.431  38.955   4.538
96636W        W68362  27.970  44.798   3.747
96637W        W68363  36.514  43.447   4.403
96638W        W68364  14.448   5.873  13.546
96639W        W68365  10.543  14.864  13.410
96640W        W68366  16.282  38.787   4.425
96641W        W68367  24.678  17.692  12.316
96642W        W68368  18.190  25.685   1.613
96643W        W68369   5.567  26.036  13.380
96644W        W68370  19.784  15.292   4.867
96645W        W68371  24.934  26.375  13.495
96646W        W68372   4.783  10.581  13.952
96647W        W68373  23.803  29.630  13.287
96648W        W68374  22.529  24.918  13.325
96649W        W68375   4.413  40.228  14.324
96650W        W68376   9.741   6.819  12.790
96651W        W68377  42.334   7.098  11.584
96652W        W68378   7.165  26.570  10.763
96653W        W68379  33.990  33.452  13.426
96654W        W68380   0.250  28.078   3.286
96655W        W68381  42.779  35.056   2.811
96656W        W68382  28.090  14.452  11.807
96657W        W68383   4.197  18.680   3.696
96658W        W68384   7.370  37.268  10.586
96659W        W68385  21.032  16.129  11.743
96660W        W68386  24.169  42.031  13.138
96661W        W68387  23.178  35.590  14.218
96662W        W68388  24.707  19.208   0.524
96663W        W68389  27.517   0.047  12.424
96664W        W68390   7.324  16.365   0.508
96665W        W68391  41.090  35.585   3.689
96666W        W68392   5.815   0.446   2.436
96667W        W68393  35.710  42.297   0.965
96668W        W68394  10.147  21.788  11.823
96669W        W68395  42.317   2.692  12.365
96670W        W68396  25.734   1.198  11.602
96671W        W68397  18.738  18.255   0.259
96672W        W68398  41.269  12.921  12.721
96673W        W68399  35.293   2.465   0.995
96674W        W68400  13.559  35.515   0.691
96675W        W68401   8.389  22.810  10.462
96676W        W68402  10.577  10.077  13.853
96677W        W68403  17.602  28.141  14.275
96678W        W68404   1.350  21.913   4.196
96679W        W68405  27.956  38.342   1.183
96680W        W68406  44.311  17.669  13.848
96681W        W68407   3.886  32.896   1.388
96682W        W68408   2.283   4.906  10.878
96683W        W68409  34.788  25.484  11.074
96684W        W68410  17.605  34.497  12.395
96685W        W68411  26.959  37.432  11.624
96686W        W68412  31.083  11.375   2.627
96687W        W68413  21.119  37.763   0.289
96688W        W68414  33.296  25.972   2.709
96689W        W68415   2.488  29.034   1.652
96690W        W68416   5.228  41.778   0.939
96691W        W68417  21.710  21.545  14.023
96692W        W68418  43.417  27.085   1.023
96693W        W68419   0.841   9.869   1.272
96694W        W68420  18.243  44.843  13.942
96695W        W68421  30.489  10.119   4.038
96696W        W68422   8.826  27.129   3.862
96697W        W68423   0.183  37.581   0.726
96698W        W68424   5.520  13.692   0.669
96699W        W68425  22.749   9.326  11.577
96700W        W68426   1.213  37.502   3.569
96701W        W68427  23.669  14.768   3.726
96702W        W68428  32.966  11.759  11.979
96703W        W68429  27.104  28.229   3.881
96704W        W68430  11.644  21.196  13.435
96705W        W68431  29.619   4.434   3.177
96706W        W68432  38.923  41.470  14.309
96707W        W68433   2.559  42.329  11.962
96708W        W68434  30.933   2.261   1.820
96709W        W68435  20.545  13.318  11.416
96710W        W68436   0.863   0.966  14.503
96711W        W68437  35.355  33.258  12.050
96712W        W68438  26.608  19.098  12.501
96713W        W68439   6.432   0.216  13.892
96714W        W68440  20.738  21.220  10.769
96715W        W68441  30.255   9.766   1.759
96716W        W68442  36.313  41.480  10.352
96717W        W68443  36.988  37.915   2.257
96718W        W68444   0.015  23.635   3.585
96719W        W68445  42.821  39.311  12.836
96720W        W68446  27.819  43.647  11.069
96721W        W68447  20.465  29.162   0.071
96722W        W68448  29.691  40.519   4.006
96723W        W68449  26.212  40.578  10.667
96724W        W68450  17.784   5.211   2.484
96725W        W68451  28.597   0.838   2.761
96726W        W68452  42.506  21.307  12.021
96727W        W68453  40.954  26.285   2.302
96728W        W68454  15.658   7.260   2.151
96729W        W68455  14.275  31.064  12.061
96730W        W68456  30.833  31.400   4.308
96731W        W68457  44.280   1.666  14.509
96732W        W68458  21.592  17.877   1.242
96733W        W68459  31.518  39.315   0.297
96734W        W68460  21.204   4.601  11.537
96735W        W68461  11.353  22.408  13.832
96736W        W68462  32.101  17.622   1.328
96737W        W68463  21.490   8.055   3.427
96738W        W68464  42.810  16.495   2.913
96739W        W68465  28.532  14.642  12.091
96740W        W68466  19.536  13.604  10.586
96741W        W68467  35.281  16.747  12.500
96742W        W68468  20.933  30.429  14.545
96743W        W68469  21.493   9.817   0.255
96744W        W68470  42.307  14.234  11.592
96745W        W68471   3.051  42.429  14.820
96746W        W68472  21.452  26.006   4.103
96747W        W68473  17.737  28.992   2.930
96748W        W68474   2.235  27.553   1.888
96749W        W68475   9.286   0.188  14.776
96750W        W68476  10.896  35.510   4.297
96751W        W68477  44.122  32.852   3.676
96752W        W68478  20.771   2.120  13.310
96753W        W68479  41.114   1.507  14.866
96754W        W68480  26.410  32.409  12.211
96755W        W68481  13.529  30.057   2.349
96756W        W68482  18.717   3.657  11.167
96757W        W68483   5.877   3.087  11.178
96758W        W68484   2.408   4.802   4.516
96759W        W68485  37.552  11.229   3.222
96760W        W68486  17.888  36.930   3.093
96761W        W68487  44.971  13.167  11.795
96762W        W68488  37.511   5.979   4.612
96763W        W68489   7.369  38.442  14.732
96764W        W68490   7.052   6.811  12.848
96765W        W68491  23.584   2.827  11.535
96766W        W68492  21.983  22.593   4.149
96767W        W68493  30.043  36.070   4.775
96768W        W68494  31.651  29.427  13.841
96769W        W68495  33.953  12.237   4.143
96770W        W68496  35.515  40.103   4.568
96771W        W68497  34.828  17.167   1.221
96772W        W68498  12.614  17.259   4.669
96773W        W68499  44.903  32.824  12.447
96774W        W68500  35.035  21.903  11.467
96775W        W68501  13.729  16.199   4.162
96776W        W68502   8.244   7.786  13.005
96777W        W68503   6.865  36.436   2.303
96778W        W68504  24.611  43.919  12.638
96779W        W68505  13.367  33.095  12.083
96780W        W68506  15.524  18.611   1.238
96781W        W68507  32.310  14.774   3.692
96782W        W68508  11.937  33.050   4.929
96783W        W68509   0.707  34.176  10.635
96784W        W68510   5.376  14.731  14.084
96785W        W68511  18.053  35.476   2.685
96786W        W68512   7.695  18.270   2.772
96787W        W68513   9.773  43.947   2.002
96788W        W68514  23.552  17.744   2.836
96789W        W68515  24.985  27.050   4.853
96790W        W68516  17.779   6.158  14.949
96791W        W68517  11.080  20.106   4.280
96792W        W68518  23.215  24.948  10.712
96793W        W68519  22.211  21.023  14.793
96794W        W68520   2.810  24.963  10.648
96795W        W68521  40.269  30.087  11.628
96796W        W68522  20.745   3.244   5.077
96797W        W68523   1.011  43.173  12.451
96798W        W68524  35.274  18.477  13.476
96799W        W68525  31.606  21.198   0.938
96800W        W68526  38.240  38.049   0.372
96801W        W68527  39.394  16.005   1.888
96802W        W68528  42.938  24.613   0.364
96803W        W68529  24.151  26.612   1.805
96804W        W68530  36.898  34.834   3.384
96805W        W68531  36.410   8.633  11.455
96806W        W68532  36.648  16.186  11.456
96807W        W68533  32.703  27.843  11.136
96808W        W68534   7.227   4.785   1.640
96809W        W68535  33.177  33.163  13.006
96810W        W68536  34.952  44.225   1.827
96811W        W68537   3.997  13.959  10.552
96812W        W68538  41.053  27.548   0.979
96813W        W68539  19.032  13.715   1.702
96814W        W68540  43.978   8.771   4.275
96815W        W68541   6.270   5.838   0.815
96816W        W68542  12.035  14.730   0.796
96817W        W68543  33.880  20.046   3.596
96818W        W68544   4.965   7.200   1.421
96819W        W68545  43.919   9.848   2.299
96820W        W68546  19.150   2.924   1.926
96821W        W68547  11.704   8.281  14.910
96822W        W68548  26.788  39.349   2.884
96823W        W68549   5.222  31.122  11.575
96824W        W68550  27.693   4.336   2.301
96825W        W68551  30.989  14.320  14.880
96826W        W68552   0.539  34.819   2.263
96827W        W68553   8.223  31.794   3.711
96828W        W68554  23.051  26.583   2.924
96829W        W68555  12.111   6.599   4.591
96830W        W68556   7.081  24.654  10.187
96831W        W68557  31.329  37.141   3.854
96832W        W68558  12.823  10.616  14.484
96833W        W68559  28.829  40.044   3.650
96834W        W68560  39.799  40.529  12.277
96835W        W68561  39.371  30.692  13.806
96836W        W68562   1.543  19.921   4.671
96837W        W68563  29.036  18.229   4.710
96838W        W68564  44.901   0.241   1.944
96839W        W68565  21.997  26.184   4.037
96840W        W68566   9.667  17.297  13.756
96841W        W68567   6.253  37.286   0.333
96842W        W68568  43.811  30.434  12.305
96843W        W68569  16.206  23.246  14.883
96844W        W68570  20.177   3.883  14.879
96845W        W68571  32.104  44.138  12.865
96846W        W68572  39.807  27.478  11.956
96847W        W68573  15.018  41.917   2.839
96848W        W68574  31.118  26.633   0.960
96849W        W68575  44.343   3.936  12.666
96850W        W68576  26.801  12.569  10.817
96851W        W68577  12.660  13.663   4.404
96852W        W68578  17.572  27.465  11.744
96853W        W68579  16.028  27.003   0.172
96854W        W68580   1.986  18.538  14.811
96855W        W68581  35.361  18.308  10.713
96856W        W68582  16.538  28.163   0.843
96857W        W68583  29.181  31.934  14.538
96858W        W68584   6.742  28.444  14.430
96859W        W68585   4.686  29.925  12.432
96860W        W68586  29.091  23.678  13.463
96861W        W68587  27.967  24.536  11.946
96862W        W68588  44.071  23.514   1.433
96863W        W68589  26.604  20.090   4.607
96864W        W68590  13.117  16.832  13.602
96865W        W68591  40.072   7.435   4.214
96866W        W68592   5.780  35.826   3.488
96867W        W68593  21.983  35.295  12.519
96868W        W68594  16.607   9.470   0.558
96869W        W68595  20.247  42.356   3.083
96870W        W68596  17.231  22.166  12.697
96871W        W68597   5.722  33.657  10.569
96872W        W68598  25.852  20.277  14.063
96873W        W68599  14.643  41.529  11.588
96874W        W68600  11.126  29.580  14.427
96875W        W68601  11.873   4.137   2.331
96876W        W68602   1.048   8.642  14.089
96877W        W68603   5.768  16.254   9.796
96878W        W68604  16.755  10.648  11.552
96879W        W68605   8.876  36.022   0.826
96880W        W68606  16.283  17.391   0.256
96881W        W68607  43.266  43.418   2.679
96882W        W68608  24.477  17.104   0.999
96883W        W68609  26.047  23.484  12.794
96884W        W68610  43.825  18.834   1.100
96885W        W68611  43.455  43.034  13.293
96886W        W68612   7.712   3.591  13.458
96887W        W68613  21.315  33.660  13.686
96888W        W68614  44.246  42.872  12.057
96889W        W68615  23.367  24.990   2.371
96890W        W68616  22.544  37.645  11.669
96891W        W68617  36.593  41.070   2.708
96892W        W68618  15.756  40.364   0.368
96893W        W68619  15.843   8.596  13.524
96894W        W68620  14.151  38.695   4.232
96895W        W68621  20.687  41.530   2.822
96896W        W68622   4.763   6.426  14.039
96897W        W68623   2.958  36.956  12.026
96898W        W68624  11.614  33.634   0.898
96899W        W68625   8.086  10.805   0.424
96900W        W68626  35.292   5.748   0.296
96901W        W68627   8.613  17.138   1.743
96902W        W68628  20.478  12.238   2.446
96903W        W68629  19.255  22.204   0.890
96904W        W68630  18.515  36.472   3.068
96905W        W68631   9.158  38.983   1.615
96906W        W68632   9.876  22.408   2.728
96907W        W68633  36.451   3.473  11.734
96908W        W68634   7.256  35.557  14.500
96909W        W68635  25.891  43.059   9.761
96910W        W68636  38.755  10.365   1.811
96911W        W68637  23.620  27.577   1.809
96912W        W68638  25.641  20.744   0.853
96913W        W68639  14.139  11.165   2.465
96914W        W68640  11.812  34.641  12.397
96915W        W68641  22.053   7.880  11.354
96916W        W68642   6.373  21.045  10.690
96917W        W68643   8.655  29.904  10.706
96918W        W68644  42.704  21.194   0.470
96919W        W68645  27.950   1.310   4.458
96920W        W68646  31.177  34.855   1.989
96921W        W68647  13.610   7.432   0.240
96922W        W68648  26.004  38.552   3.789
96923W        W68649  38.353  36.944  13.510
96924W        W68650  29.516  37.134  14.256
96925W        W68651  37.085  26.069   4.316
96926W        W68652  12.322   2.105  12.553
96927W        W68653   8.452  20.512   2.398
96928W        W68654  26.222  28.741   4.533
96929W        W68655  34.484  42.859  13.717
96930W        W68656   6.935   4.737  13.140
96931W        W68657  35.517  11.400   4.068
96932W        W68658  27.538   0.644   0.857
96933W        W68659   1.208  40.014  10.678
96934W        W68660  12.682  41.543   2.775
96935W        W68661  15.607  31.974  13.376
96936W        W68662  32.096  21.590  13.516
96937W        W68663   4.960  14.282   4.570
96938W        W68664  32.954   6.223   3.315
96939W        W68665  44.447  26.717   1.072
96940W        W68666  39.582   8.541   1.606
96941W        W68667   7.684  41.465   3.648
96942W        W68668  32.419  39.221   1.290
96943W        W68669   5.256  35.919   0.041
96944W        W68670  30.757  35.989   1.666
96945W        W68671   1.919   8.361   0.832
96946W        W68672  15.751   3.777  14.986
96947W        W68673  28.624  36.513  10.647
96948W        W68674   9.956  36.184  10.405
96949W        W68675   3.002   6.224  10.696
96950W        W68676   5.752  37.909   1.133
96951W        W68677  37.443  36.672   4.328
96952W        W68678   6.789  40.194   0.268
96953W        W68679  34.436  30.358   2.794
96954W        W68680  12.156  13.166  14.106
96955W        W68681  36.029  35.100   0.971
96956W        W68682   7.423   2.159   0.872
96957W        W68683  33.867  41.356   0.268
96958W        W68684  23.248  27.588  13.938
96959W        W68685  28.471  29.645  14.394
96960W        W68686  24.350   6.408   2.694
96961W        W68687  40.968  28.852  14.936
96962W        W68688  14.649   6.300   3.271
96963W        W68689   1.556  29.904  13.750
96964W        W68690   9.706  19.256   3.644
96965W        W68691  27.223   1.444   5.126
96966W        W68692   2.790  26.546   1.797
96967W        W68693   7.586  24.646  11.925
96968W        W68694   2.330  23.330   2.364
96969W        W68695  32.643  11.217  13.552
96970W        W68696   2.608  31.200   3.993
96971W        W68697  12.886  18.691   1.163
96972W        W68698  22.555  38.435  10.526
96973W        W68699  11.656  31.704   1.296
96974W        W68700  33.268   0.014  13.990
96975W        W68701  25.032  21.021   4.532
96976W        W68702  11.368   4.797   4.973
96977W        W68703  32.227  36.991   1.150
96978W        W68704   6.783  36.200   2.921
96979W        W68705  12.483   8.316  13.522
96980W        W68706  11.769  11.833  12.441
96981W        W68707  23.266   9.586   2.107
96982W        W68708   1.303   7.968   2.233
96983W        W68709  14.749  37.986   1.814
96984W        W68710  38.588  36.523  13.279
96985W        W68711  32.037  27.136   0.403
96986W        W68712   2.254  37.568   4.200
96987W        W68713   1.442   3.224   1.795
96988W        W68714  22.306   1.064  11.193
96989W        W68715  17.123  23.933  13.877
96990W        W68716  36.846   7.276  12.774
96991W        W68717  17.082   6.235  12.139
96992W        W68718   0.234  25.651   0.034
96993W        W68719   0.241  29.268   3.618
96994W        W68720  28.417  38.927  14.038
96995W        W68721   6.387  12.237  10.668
96996W        W68722  27.124  22.996   4.783
96997W        W68723   7.046   5.483   2.900
96998W        W68724  35.636  44.881   1.381
96999W        W68725  23.554  43.319  12.408
97000W        W68726  13.008   1.506  13.003
97001W        W68727  12.613   9.425  12.943
97002W        W68728  15.749  22.733   1.910
97003W        W68729  32.069   8.297  12.984
97004W        W68730  32.293  16.178   1.785
97005W        W68731  23.490  40.528  12.596
97006W        W68732  21.840  27.103  13.205
97007W        W68733  13.172  35.062   0.420
97008W        W68734  19.312   0.440   0.443
97009W        W68735  33.114   6.988   1.997
97010W        W68736  32.854   0.717  11.729
97011W        W68737  29.004   0.443   4.173
97012W        W68738  18.780   8.440  12.383
97013W        W68739  30.818   2.173   3.137
97014W        W68740  26.646  17.094   3.144
97015W        W68741  41.087  23.006  12.442
97016W        W68742   1.749  33.600   3.161
97017W        W68743  13.524  35.543   2.005
97018W        W68744  16.984   7.959  10.740
97019W        W68745   5.652   0.355   4.454
97020W        W68746  18.043   5.346  13.863
97021W        W68747  18.005   6.962   2.164
97022W        W68748  27.390  41.281   0.368
97023W        W68749   9.132  23.718  12.470
97024W        W68750  36.527   5.999  12.028
97025W        W68751  32.499   3.268   4.077
97026W        W68752  34.730  43.125   4.132
97027W        W68753  10.607  32.155  10.750
97028W        W68754   9.308  14.871   0.385
97029W        W68755  34.967  34.654  14.898
97030W        W68756   4.133  44.764  12.499
97031W        W68757   8.862   1.108  10.754
97032W        W68758   9.989   3.680   5.028
97033W        W68759   5.009  35.094   2.929
97034W        W68760  30.256  42.734   5.208
97035W        W68761  35.680  25.977   2.345
97036W        W68762  25.061   2.752  14.390
97037W        W68763  16.284  23.773  14.847
97038W        W68764   5.339  28.372   2.172
97039W        W68765   9.825  16.339   3.836
97040W        W68766  18.158  10.720   2.240
97041W        W68767  19.018  24.363  14.376
97042W        W68768  42.728  20.980   4.582
97043W        W68769   1.515  29.547   3.063
97044W        W68770  32.438  26.147   1.641
97045W        W68771  19.972  43.749   2.517
97046W        W68772  44.769  37.905   0.863
97047W        W68773  26.521   6.682   0.362
97048W        W68774  19.503  31.976  14.458
97049W        W68775   9.796  21.198   0.077
97050W        W68776  35.119  27.507  12.606
97051W        W68777  33.643  11.782   2.803
97052W        W68778  34.026   9.515  10.959
97053W        W68779  40.581  35.452   1.263
97054W        W68780   6.870   2.323   3.496
97055W        W68781  22.066  22.815  11.241
97056W        W68782   5.674  44.749  13.879
97057W        W68783  23.715   7.170  10.524
97058W        W68784  32.450  40.489  12.975
97059W        W68785  36.257  43.722  10.840
97060W        W68786  21.257   6.467  13.086
97061W        W68787  24.425  31.494   3.660
97062W        W68788  15.238  44.765   2.855
97063W        W68789  38.541  36.959  11.930
97064W        W68790   9.574   9.261   4.626
97065W        W68791  35.513  25.767  14.986
97066W        W68792   2.234  10.127  12.446
97067W        W68793  39.657  31.508  12.545
97068W        W68794  40.628   5.464   4.545
97069W        W68795  28.502  39.905  13.014
97070W        W68796  43.386  33.078  10.546
97071W        W68797   0.327  15.615   4.577
97072W        W68798  16.106  32.097   4.156
97073W        W68799   3.723  35.485  12.247
97074W        W68800  30.888   0.338  11.016
97075W        W68801  29.086   1.343  13.300
97076W        W68802   4.658  43.878  12.882
97077W        W68803  28.772  14.734  12.542
97078W        W68804  15.961  44.856  12.939
97079W        W68805  41.372  36.368  10.839
97080W        W68806   8.239  41.104  12.470
97081W        W68807  27.482  27.082   4.259
97082W        W68808   4.745   6.676   0.219
97083W        W68809  13.512  25.223   4.516
97084W        W68810  27.659  28.535   0.136
97085W        W68811  23.455  21.138  14.526
97086W        W68812  34.576  26.170  10.614
97087W        W68813  38.801  32.574   0.342
97088W        W68814  13.793   1.974  14.435
97089W        W68815   4.884   9.600  11.912
97090W        W68816   7.172  30.121  14.928
97091W        W68817  40.196  24.244   0.549
97092W        W68818  41.931  25.976   4.302
97093W        W68819  36.166   2.832  14.874
97094W        W68820  26.493  37.662  11.533
97095W        W68821   7.820  13.544   0.393
97096W        W68822  25.686   3.043   1.005
97097W        W68823  27.884  19.139   1.182
97098W        W68824  18.813  34.515   2.799
97099W        W68825   6.257  15.568  11.373
97100W        W68826  29.934  40.983  14.496
97101W        W68827  32.201  40.241   3.315
97102W        W68828  34.572  43.719   2.279
97103W        W68829  11.237  44.961   3.185
97104W        W68830  34.820  28.458   0.667
97105W        W68831  23.419  22.147   0.020
97106W        W68832   8.319   7.618   1.240
97107W        W68833  44.758  15.424   2.794
97108W        W68834  23.158  22.105   1.728
97109W        W68835  18.084  13.947   4.483
97110W        W68836  24.989  17.211   0.874
97111W        W68837  14.154  10.789   0.279
97112W        W68838  22.258  17.578   2.199
97113W        W68839  20.618  40.347  14.901
97114W        W68840  14.320  25.003  10.894
97115W        W68841  44.900  10.827   0.759
97116W        W68842   0.786  34.360  13.100
97117W        W68843  18.066  40.028   0.474
97118W        W68844  15.717  26.664  11.528
97119W        W68845   6.367   5.734   1.834
97120W        W68846  22.953   0.827   4.506
97121W        W68847  24.512   3.584  13.065
97122W        W68848   3.940  15.674  11.451
97123W        W68849  42.280   1.030  11.629
97124W        W68850  25.713  27.507  14.784
97125W        W68851  35.030  18.545  12.975
97126W        W68852  34.356  16.975   1.133
97127W        W68853   7.683  35.820  14.309
97128W        W68854  37.213  31.033   3.675
97129W        W68855  44.323  26.665   3.065
97130W        W68856  42.832   0.298  14.942
97131W        W68857   6.224   7.730   2.303
97132W        W68858   9.929  35.446   1.461
97133W        W68859  27.775  35.769   1.326
97134W        W68860  20.097  30.709  11.945
97135W        W68861  11.305   6.606   4.846
97136W        W68862  42.031  25.108  13.943
97137W        W68863  17.041  27.617   4.211
97138W        W68864  34.928  40.522  14.038
97139W        W68865  39.645  42.485   4.980
97140W        W68866   4.925  37.930   2.236
97141W        W68867   8.649  36.749   1.304
97142W        W68868  29.108  16.817   1.863
97143W        W68869   5.406   4.785   4.596
97144W        W68870   2.014  40.301   1.879
97145W        W68871  32.122  10.864  12.378
97146W        W68872   6.222   2.862   1.671
97147W        W68873   2.788   3.545  12.570
97148W        W68874  39.840  10.146  11.946
97149W        W68875  29.518   3.045  12.387
97150W        W68876  39.629  24.721  13.567
97151W        W68877   8.996  44.421   1.967
97152W        W68878  12.375  40.598   4.172
97153W        W68879  12.227  25.125   1.504
97154W        W68880  19.100  33.398  11.398
97155W        W68881  35.976   9.610  12.592
97156W        W68882   3.848  23.953   3.613
97157W        W68883  28.606  38.444   2.341
97158W        W68884  18.357  19.841   4.035
97159W        W68885  17.488  27.062  10.412
97160W        W68886   1.777  27.098   3.731
97161W        W68887  11.881  23.848   1.118
97162W        W68888   7.760  18.178  14.097
97163W        W68889  20.427  14.469   4.132
97164W        W68890  17.152  43.788   2.795
97165W        W68891  10.337   5.514   2.671
97166W        W68892   1.263  11.158  11.710
97167W        W68893   0.710  26.809  13.500
97168W        W68894  11.259  42.646  12.371
97169W        W68895  17.662  18.579  10.755
97170W        W68896  39.485  25.498  11.978
97171W        W68897  15.796   7.045   2.618
97172W        W68898  34.175  30.931  13.382
97173W        W68899  25.283  40.282  12.855
97174W        W68900   0.565  14.009  11.495
97175W        W68901  22.236  26.442  10.216
97176W        W68902  19.372  11.236   1.932
97177W        W68903  36.554  31.368   4.060
97178W        W68904  19.768  36.017  11.368
97179W        W68905  15.156  37.297  13.388
97180W        W68906  36.129  40.162  12.564
97181W        W68907   7.879  26.665  10.707
97182W        W68908  44.684   8.367  11.638
97183W        W68909   6.432  13.248  14.935
97184W        W68910  12.470   6.840  12.436
97185W        W68911  33.437   5.454  12.916
97186W        W68912  13.641  18.065  13.403
97187W        W68913  17.639  25.130  13.408
97188W        W68914  39.095   9.617  14.414
97189W        W68915   5.797  17.485  14.319
97190W        W68916  42.820  11.348   0.378
97191W        W68917  19.653  34.121   0.511
97192W        W68918   8.619   9.212  11.640
97193W        W68919  27.827  29.293   3.250
97194W        W68920   2.801  23.924  10.700
97195W        W68921  30.030  13.254   3.454
97196W        W68922  10.130  36.996  13.261
97197W        W68923  37.090  42.601   3.253
97198W        W68924  33.586  41.898  13.939
97199W        W68925  43.428  36.065   0.395
97200W        W68926   8.782  41.385   1.000
97201W        W68927  31.317  11.633  13.652
97202W        W68928  41.061  37.464  14.481
97203W        W68929  25.057   0.567  11.526
97204W        W68930  42.908  12.359   4.038
97205W        W68931  29.668  36.048  10.344
97206W        W68932   1.959  37.320   4.553
97207W        W68933  44.493   5.240  11.144
97208W        W68934   1.225  16.466   2.645
97209W        W68935  36.371   5.372   1.978
97210W        W68936  15.251  29.592   3.240
97211W        W68937  28.609  35.596  10.760
97212W        W68938   5.322  24.535  11.982
97213W        W68939  10.224   2.237  11.405
97214W        W68940  10.180   4.525  12.957
97215W        W68941  29.581  40.563  13.277
97216W        W68942  38.230  19.186   3.809
97217W        W68943  10.147  24.531  11.568
97218W        W68944   0.208  12.527  12.513
97219W        W68945  37.846  40.158  10.349
97220W        W68946  13.905  13.167   2.257
97221W        W68947   1.221  25.990   1.764
97222W        W68948   2.038  18.488  13.874
97223W        W68949   6.429   2.891  14.298
97224W        W68950  18.584  14.629  12.642
97225W        W68951   9.554  15.070  14.984
97226W        W68952  32.714  22.164   3.072
97227W        W68953  19.123  32.655   1.496
97228W        W68954  28.192  35.846   3.457
97229W        W68955  39.251  15.278  12.237
97230W        W68956  34.568  40.557  14.942
97231W        W68957   4.316  10.346   4.846
97232W        W68958   5.257   9.824   0.841
97233W        W68959   4.018  23.122   1.766
97234W        W68960   9.118  31.990  12.510
97235W        W68961  21.814  14.729  13.557
97236W        W68962  13.172  16.581  14.414
97237W        W68963  28.059  42.353  14.433
97238W        W68964  26.997  21.627  14.768
97239W        W68965   0.784  21.245   0.257
97240W        W68966   6.688  27.323  13.369
97241W        W68967   5.138  12.358   0.295
97242W        W68968  37.104  30.993  13.539
97243W        W68969  26.521  11.164  11.457
97244W        W68970  28.265  24.993   1.826
97245W        W68971  20.624   6.389  14.468
97246W        W68972  29.623   9.476   2.907
97247W        W68973  27.457  18.145  12.869
97248W        W68974   8.681  18.772   2.921
97249W        W68975  14.800   1.848   3.231
97250W        W68976  35.919  40.500   2.638
97251W        W68977  44.366  31.130  13.019
97252W        W68978  13.550  21.796   4.109
97253W        W68979   7.621  37.346  13.006
97254W        W68980  38.980  20.197   3.283
97255W        W68981  26.416  26.693   2.153
97256W        W68982  26.571   2.338   0.047
97257W        W68983   0.124  41.195  11.581
97258W        W68984  35.401   8.375  11.268
97259W        W68985  39.495  38.063  14.351
97260W        W68986  33.411  10.164  10.423
97261W        W68987  36.307  36.819   2.231
97262W        W68988   7.862  39.927  12.390
97263W        W68989  17.681  29.152  13.565
97264W        W68990  34.718  40.205  10.454
97265W        W68991  23.753  36.952   2.847
97266W        W68992  29.124  30.939   0.691
97267W        W68993  30.605  15.152  11.873
97268W        W68994  12.700   3.894   2.728
97269W        W68995  43.966  38.574   2.661
97270W        W68996   0.889   1.717   4.304
97271W        W68997  17.507  21.093   4.665
97272W        W68998   9.153  27.659   0.246
97273W        W68999  30.860  24.157  14.449
97274W        W69000  40.362  26.159   3.837
97275W        W69001  34.559  37.322  11.452
97276W        W69002  30.859  31.205   2.763
97277W        W69003   4.385  14.183   4.513
97278W        W69004  28.399  15.729   4.299
97279W        W69005  24.918  18.045  12.015
97280W        W69006  33.332  16.220  14.302
97281W        W69007  26.482  43.955   1.795
97282W        W69008  41.893   9.642   0.278
97283W        W69009   1.400  36.410  13.439
97284W        W69010  29.331  16.572   0.342
97285W        W69011  15.888  38.537   1.901
97286W        W69012  21.682  33.403  11.563
97287W        W69013  24.173  25.119   2.763
97288W        W69014   4.576  32.627  14.106
97289W        W69015  16.094  31.134   2.885
97290W        W69016  32.962  13.316  13.373
97291W        W69017  10.719  25.715   4.814
97292W        W69018  13.199  40.372   4.659
97293W        W69019   3.456   7.733   0.316
97294W        W69020  29.740  34.665  11.079
97295W        W69021  21.075  15.340   0.830
97296W        W69022  35.083  19.708  11.695
97297W        W69023  19.045  12.861   2.717
97298W        W69024  17.752  22.764  14.338
97299W        W69025  18.233   3.760  11.013
97300W        W69026  33.019   8.578  14.574
97301W        W69027  43.806  25.602   3.893
97302W        W69028  43.295  21.164   3.778
97303W        W69029  21.289  14.886  10.943
97304W        W69030  32.594  12.625   2.723
97305W        W69031   8.887   4.851   2.674
97306W        W69032  15.787  22.554   2.382
97307W        W69033   4.942  19.267  11.588
97308W        W69034   3.002  35.669  11.539
97309W        W69035  42.706   6.754  13.309
97310W        W69036  36.598  23.077   0.904
97311W        W69037  27.437  44.799   0.013
97312W        W69038  20.352  32.143   3.729
97313W        W69039  27.706  18.908   0.360
97314W        W69040  36.872   7.628  11.971
97315W        W69041  28.972  16.772  11.164
97316W        W69042  28.030  23.017  12.599
97317W        W69043   0.811  21.688  11.928
97318W        W69044  31.108  44.181   2.612
97319W        W69045  30.208  40.987  12.342
97320W        W69046  34.804  15.008   1.217
97321W        W69047   2.824  35.123   3.738
97322W        W69048  14.119  20.467  13.304
97323W        W69049  23.078   3.262  13.446
97324W        W69050  41.525  41.480   3.304
97325W        W69051  24.003  42.505   1.757
97326W        W69052   4.362  14.050  13.364
97327W        W69053  26.874  19.135   2.773
97328W        W69054   4.052  25.134   4.309
97329W        W69055  29.901   7.684  13.031
97330W        W69056  34.982  36.342  12.114
97331W        W69057  31.020  25.464   0.221
97332W        W69058  12.581  32.199  12.385
97333W        W69059  25.927   0.410  10.582
97334W        W69060   9.342   3.711  12.416
97335W        W69061  23.111  33.528  13.487
97336W        W69062  42.306  13.611   1.445
97337W        W69063  28.638  30.715   4.878
97338W        W69064  35.315  30.682  12.912
97339W        W69065   0.438  19.042  10.759
97340W        W69066  29.335  34.949   1.871
97341W        W69067  35.479  33.917   2.107
97342W        W69068  34.994   8.938  12.785
97343W        W69069   7.046  31.075   0.573
97344W        W69070  25.618  35.636   4.256
97345W        W69071  34.185  27.083   2.177
97346W        W69072  30.341  22.261   2.160
97347W        W69073  23.791  41.370  12.648
97348W        W69074  40.436  38.812   0.689
97349W        W69075  29.596   4.451   0.346
97350W        W69076  39.599  41.825   1.779
97351W        W69077  42.797  41.320   4.168
97352W        W69078  32.958  32.650  11.918
97353W        W69079  32.970  40.948   0.721
97354W        W69080  18.856  24.928  11.145
97355W        W69081  42.954   4.381  12.497
97356W        W69082   3.786   9.432  13.477
97357W        W69083  32.023  29.309   4.642
97358W        W69084  27.921  29.309   0.037
97359W        W69085  15.037  24.932   3.299
97360W        W69086  22.457   1.487  11.962
97361W        W69087   8.547  42.481  12.715
97362W        W69088  24.712  15.355   4.148
97363W        W69089  28.418  34.043   3.633
97364W        W69090  31.499  34.574  13.944
97365W        W69091  16.308  26.553   1.899
97366W        W69092  17.543  19.965  14.235
97367W        W69093   0.451  22.980  12.640
97368W        W69094  31.386   2.245  14.917
97369W        W69095   5.852  15.132   1.213
97370W        W69096   7.930  28.676  12.915
97371W        W69097  28.136  31.785   1.110
97372W        W69098  20.827  33.026   4.617
97373W        W69099  20.466  30.908   2.665
97374W        W69100  25.594  18.370   0.787
97375W        W69101  20.606   2.387  11.266
97376W        W69102   4.273  31.970   3.180
97377W        W69103  11.757  17.120   1.764
97378W        W69104  30.893  11.864   2.594
97379W        W69105  31.884   9.163  12.085
97380W        W69106   0.765  23.736   2.369
97381W        W69107  16.031  38.354   4.675
97382W        W69108   4.986   8.543  10.723
97383W        W69109  30.485  20.484   0.406
97384W        W69110  39.997  38.095   0.974
97385W        W69111  25.560   8.566  12.869
97386W        W69112  17.091   7.172  13.111
97387W        W69113  14.999   8.035   3.782
97388W        W69114  34.878   9.639   1.686
97389W        W69115  34.038   6.421  13.484
97390W        W69116  31.540   7.610  13.712
97391W        W69117  16.331   4.843   0.297
97392W        W69118   5.217  38.724   3.391
97393W        W69119   3.376  20.110   0.970
97394W        W69120  23.778  28.295   1.075
97395W        W69121  23.060  36.518   4.088
97396W        W69122  24.045  29.425   1.872
97397W        W69123   4.005  37.515   3.296
97398W        W69124  15.153  41.843   1.906
97399W        W69125  14.847   6.692  12.970
97400W        W69126  31.883   4.163  14.496
97401W        W69127   1.859   2.585   4.277
97402W        W69128  21.715  21.568   2.322
97403W        W69129  32.235  14.065  12.624
97404W        W69130  42.918  15.015   2.237
97405W        W69131  40.733  17.663  13.413
97406W        W69132  33.136  37.379   0.391
97407W        W69133   2.159  22.932   1.458
97408W        W69134  40.950  17.865   0.794
97409W        W69135  37.867  32.381   3.558
97410W        W69136   0.301  10.117   3.063
97411W        W69137  17.644  32.651  10.512
97412W        W69138  29.147  41.431  11.205
97413W        W69139   2.950  40.543   3.101
97414W        W69140  14.163   1.813  13.008
97415W        W69141   2.936  29.911  13.487
97416W        W69142  18.619  35.147   4.540
97417W        W69143  25.209  31.374   3.354
97418W        W69144  40.566  30.858  10.550
97419W        W69145  18.723  18.517  10.671
97420W        W69146  44.803  39.601   3.159
97421W        W69147  11.661   8.717  12.384
97422W        W69148   2.813  39.482   4.979
97423W        W69149  16.543  42.037   0.243
97424W        W69150  28.758  21.332   3.322
97425W        W69151  36.008  34.582   0.980
97426W        W69152   4.663  20.310  12.493
97427W        W69153  39.332  23.803   2.657
97428W        W69154  22.797  24.890   3.819
97429W        W69155  17.312  40.466  10.476
97430W        W69156  20.501  12.919   4.086
97431W        W69157  16.702  35.558   2.866
97432W        W69158  35.911  10.761  11.010
97433W        W69159  18.289   0.968  14.806
97434W        W69160  15.940  12.069   1.399
97435W        W69161  26.549  43.511   2.725
97436W        W69162  22.679  36.929   1.654
97437W        W69163  19.449   7.265   1.693
97438W        W69164   0.495  21.605  11.083
97439W        W69165   7.365  12.042   1.227
97440W        W69166  35.283   1.002   9.767
97441W        W69167   8.830   8.264   4.754
97442W        W69168  20.573  44.524  10.380
97443W        W69169  26.395  23.315   3.318
97444W        W69170  16.355  13.787   3.432
97445W        W69171  11.110   1.742   0.843
97446W        W69172  19.104  43.726   0.815
97447W        W69173  44.418  20.178   2.189
97448W        W69174  26.944  22.544  12.614
97449W        W69175   8.859  28.152   4.314
97450W        W69176  25.996  18.219   2.816
97451W        W69177   7.920  14.149  11.072
97452W        W69178   0.942  21.882   1.555
97453W        W69179   9.199  24.943   1.642
97454W        W69180   3.698  11.017  13.892
97455W        W69181  42.497  11.200   2.896
97456W        W69182   4.283  15.314   1.366
97457W        W69183  16.395   5.771   1.184
97458W        W69184  18.694  21.255  13.337
97459W        W69185   0.530  39.288   0.959
97460W        W69186   8.628  16.499  12.907
97461W        W69187  15.001  27.656   0.387
97462W        W69188  16.209   9.342  13.313
97463W        W69189  20.352  21.100   4.125
97464W        W69190  16.200  30.954  11.584
97465W        W69191  40.730  36.467  13.566
97466W        W69192   7.400  17.766   3.769
97467W        W69193  34.399  44.435   0.756
97468W        W69194  11.976  26.512  13.507
97469W        W69195   1.377  38.785   0.798
97470W        W69196   6.785   7.486  11.067
97471W        W69197  36.648  36.125  13.902
97472W        W69198  28.190  25.909  14.826
97473W        W69199   3.392  25.904  13.854
97474W        W69200  20.628  31.207  13.399
97475W        W69201  10.427  12.805   2.167
97476W        W69202  13.700  34.036  12.496
97477W        W69203  30.757  43.398  11.637
97478W        W69204  29.355  14.101  14.895
97479W        W69205  14.771  43.176  14.735
97480W        W69206  25.462  43.308   4.697
97481W        W69207  39.734  41.505  13.850
97482W        W69208  31.383  28.522  11.626
97483W        W69209  43.505  20.811   2.810
97484W        W69210   0.514   1.771   3.615
97485W        W69211   9.509  41.557   3.926
97486W        W69212   7.921   6.811   3.649
97487W        W69213  40.478  29.972   0.185
97488W        W69214  16.077  27.155  10.313
97489W        W69215  21.392  13.289   0.551
97490W        W69216  43.932   1.442   4.486
97491W        W69217  26.976  27.700   3.059
97492W        W69218  15.624  39.684  14.467
97493W        W69219  43.859   4.050  12.530
97494W        W69220   4.695  15.011   1.296
97495W        W69221   4.904  28.131  13.864
97496W        W69222  26.373  39.912   1.399
97497W        W69223  33.116  13.346   2.356
97498W        W69224   8.676  25.499   1.236
97499W        W69225   3.192  39.586   2.192
97500W        W69226   2.178   2.244  13.805
97501W        W69227  29.966  43.544   2.321
97502W        W69228  39.985  25.127  12.308
97503W        W69229  16.280  43.294  10.781
97504W        W69230   9.583   1.350  13.334
97505W        W69231  37.980   5.220   4.561
97506W        W69232  25.790  33.589  12.987
97507W        W69233  18.360  42.379  12.646
97508W        W69234  22.118   5.289  13.280
97509W        W69235  39.756  14.179  11.938
97510W        W69236   2.856  16.684  11.122
97511W        W69237  37.033  27.254   0.286
97512W        W69238   7.408   4.410  13.641
97513W        W69239   8.135  10.167   3.471
97514W        W69240   1.857   4.454  13.505
97515W        W69241  38.639  31.164  10.723
97516W        W69242  15.726  12.236   0.972
97517W        W69243  18.193  36.892   1.244
97518W        W69244  17.711  31.139   3.258
97519W        W69245  10.222  13.151   4.794
97520W        W69246  29.828   1.003  10.576
97521W        W69247  33.877   4.876   1.647
97522W        W69248   3.205  41.405   1.924
97523W        W69249  37.455  36.154  14.486
97524W        W69250  25.034  42.801   1.219
97525W        W69251  23.719  15.264  10.282
97526W        W69252  37.380   8.150   3.605
97527W        W69253  24.310  32.320  14.348
97528W        W69254  13.112   5.445  14.722
97529W        W69255  16.642  24.078  11.983
97530W        W69256  36.567  28.746   3.235
97531W        W69257  28.317   3.433  11.778
97532W        W69258  39.720   4.540  13.418
97533W        W69259   9.150  32.491   4.634
97534W        W69260  44.027  21.590   3.356
97535W        W69261   5.870  12.598  11.458
97536W        W69262  37.020  42.030   1.236
97537W        W69263  13.365  29.393  10.738
97538W        W69264  16.112   3.219  12.505
97539W        W69265   8.207  25.774   5.126
97540W        W69266  35.958  12.298  11.881
97541W        W69267  15.536   0.950   0.308
97542W        W69268  12.169  20.751  14.507
97543W        W69269  20.305  19.799  14.896
97544W        W69270   1.167  31.616   2.351
97545W        W69271  10.363   6.056  14.557
97546W        W69272  16.924  24.411  13.813
97547W        W69273  41.719  14.664  11.038
97548W        W69274  40.052  12.242   2.104
97549W        W69275  21.493  27.167  12.339
97550W        W69276  10.285  17.091   5.331
97551W        W69277  32.449   7.083  14.692
97552W        W69278   5.411  26.492   4.299
97553W        W69279  41.827  32.641   1.004
97554W        W69280  37.675  15.173   4.118
97555W        W69281   4.233  29.843   1.919
97556W        W69282  44.463  12.081  12.058
97557W        W69283  28.194  26.086   4.233
97558W        W69284  26.439  10.322   0.909
97559W        W69285  36.616  26.592   1.436
97560W        W69286  42.796  32.261   0.446
97561W        W69287  26.451  15.238  10.697
97562W        W69288  36.551  43.163   0.020
97563W        W69289  24.037   3.384   1.402
97564W        W69290  32.112  15.810  11.225
97565W        W69291  42.893   2.048  14.792
97566W        W69292  15.146   5.100   3.492
97567W        W69293  40.386  25.232  12.679
97568W        W69294  31.523  12.022  13.362
97569W        W69295  39.756  10.916   2.411
97570W        W69296  31.009  41.864   0.772
97571W        W69297   7.412   7.436   2.299
97572W        W69298   4.717   3.899   0.993
97573W        W69299  40.009  33.459  10.951
97574W        W69300  33.603  21.816   1.349
97575W        W69301  44.496  27.107   2.839
97576W        W69302  30.563  22.022   1.210
97577W        W69303   9.481   2.023   4.291
97578W        W69304  35.117   2.436   4.403
97579W        W69305  25.511  39.758  14.053
97580W        W69306  40.679  20.742   4.655
97581W        W69307  27.472  37.311   0.470
97582W        W69308  28.439  32.091  12.467
97583W        W69309  29.847  32.606   1.388
97584W        W69310  21.105  39.035   0.851
97585W        W69311  17.950  10.623   3.668
97586W        W69312  43.176  38.811   0.967
97587W        W69313  17.276  22.188  11.037
97588W        W69314  36.708  44.324   0.543
97589W        W69315   7.452  14.915   0.339
97590W        W69316  37.334   7.920  12.044
97591W        W69317  29.008   4.381   1.344
97592W        W69318  27.947   5.163  10.928
97593W        W69319  30.418  32.538   3.843
97594W        W69320  19.103  36.659  11.440
97595W        W69321  36.320  35.401  14.287
97596W        W69322  35.895  16.271   2.351
97597W        W69323  24.723  33.006  12.399
97598W        W69324  38.963  20.464  12.663
97599W        W69325   2.992  23.555   4.521
97600W        W69326  29.007  22.248  11.487
97601W        W69327  13.552   2.571   2.762
97602W        W69328  30.210   5.796   2.450
97603W        W69329  15.069  31.115   4.217
97604W        W69330  21.996   3.311  11.983
97605W        W69331   4.201  17.203   0.611
97606W        W69332  43.993   7.867   3.343
97607W        W69333  13.037   5.512  10.343
97608W        W69334  22.132  33.393   0.350
97609W        W69335  39.827  39.923  14.100
97610W        W69336   5.547  35.776  14.603
97611W        W69337  18.675   4.613  12.125
97612W        W69338  14.356  35.949   2.754
97613W        W69339   6.608  18.258   0.295
97614W        W69340  14.022  14.656  11.613
97615W        W69341  28.370  36.537  11.089
97616W        W69342  14.120  44.900   4.077
97617W        W69343  14.793  22.964   1.821
97618W        W69344  27.013   3.800   4.210
97619W        W69345  37.523   0.773  10.670
97620W        W69346  29.430  44.343  13.124
97621W        W69347  31.975  13.087  10.466
97622W        W69348  16.674  42.048  12.277
97623W        W69349   8.281  41.531  14.798
97624W        W69350  13.353  36.962   1.501
97625W        W69351  33.835   7.333  12.012
97626W        W69352  44.967  11.195   2.855
97627W        W69353  17.653   3.977  12.956
97628W        W69354  26.028  31.005   1.833
97629W        W69355   6.174  30.236  14.053
97630W        W69356  13.961  42.399   0.145
97631W        W69357  21.969  27.201   3.698
97632W        W69358  43.514  32.700   0.284
97633W        W69359  36.246  31.823  11.136
97634W        W69360  25.165   1.939   3.861
97635W        W69361  41.440  41.053  10.816
97636W        W69362  39.669  43.495   3.381
97637W        W69363  26.766   7.090  12.993
97638W        W69364  21.981   9.323  13.485
97639W        W69365  12.748  10.460  13.149
97640W        W69366  10.906  33.536   2.772
97641W        W69367  34.404  14.414  14.323
97642W        W69368  26.658  37.874   0.475
97643W        W69369  30.906  43.895   0.806
97644W        W69370   8.841  16.708  10.708
97645W        W69371  40.247  32.417  10.289
97646W        W69372   5.330  39.752   1.809
97647W        W69373  22.130   1.441   4.163
97648W        W69374  36.475   9.613   3.751
97649W        W69375  33.786  16.119  10.516
97650W        W69376   4.473  19.303   1.862
97651W        W69377  33.738  37.392   9.999
97652W        W69378  30.620   6.391   1.012
97653W        W69379  41.377  40.133  11.783
97654W        W69380  37.113  13.571   4.160
97655W        W69381  40.917   8.481   4.743
97656W        W69382   4.119  43.403  13.968
97657W        W69383  42.567  31.628  14.034
97658W        W69384  22.120  40.433   1.889
97659W        W69385  19.744   1.619   1.778
97660W        W69386  43.825  24.988   2.804
97661W        W69387   5.812  37.976   1.665
97662W        W69388  12.584   6.731  13.066
97663W        W69389  43.301  37.645  12.043
97664W        W69390  12.215   9.132  14.723
97665W        W69391  33.447  43.023   3.682
97666W        W69392  21.785  11.731   3.069
97667W        W69393  40.519  22.036  11.148
97668W        W69394  23.948  25.192  14.329
97669W        W69395  22.526  10.009  13.866
97670W        W69396  33.650  10.320   5.081
97671W        W69397  38.500  26.243   1.347
97672W        W69398  37.590  25.933  14.084
97673W        W69399   7.734   7.615  13.013
97674W        W69400  25.616  19.329   4.067
97675W        W69401  18.613  39.563   1.004
97676W        W69402   1.094  29.079  13.562
97677W        W69403  38.026  40.310  13.543
97678W        W69404  33.295  12.258  13.466
97679W        W69405  20.989  20.054  12.852
97680W        W69406   0.360  43.421  14.399
97681W        W69407  22.901  38.986   2.135
97682W        W69408   2.658  16.339   3.668
97683W        W69409  17.127  14.693  10.909
97684W        W69410  37.491  23.412   0.714
97685W        W69411  15.591   1.462   0.310
97686W        W69412  42.306  28.405  12.422
97687W        W69413  28.216  43.668   2.183
97688W        W69414  24.130  17.595   2.738
97689W        W69415  12.392  19.162   4.090
97690W        W69416  25.697  19.836   4.082
97691W        W69417  21.272  33.521  10.892
97692W        W69418  19.688   6.420   1.804
97693W        W69419   7.452  18.709   3.617
97694W        W69420  15.655  39.321  10.358
97695W        W69421  44.326  31.216  13.920
97696W        W69422   0.023  11.809  13.287
97697W        W69423  28.203  27.519   0.733
97698W        W69424   9.080  22.332  10.289
97699W        W69425  36.114  41.831   3.718
97700W        W69426  23.771   2.214   4.423
97701W        W69427  22.052  35.926   1.312
97702W        W69428   4.338  33.191   2.405
97703W        W69429  18.664  35.688  11.092
97704W        W69430  31.916  16.246  11.965
97705W        W69431  41.303  16.351   1.866
97706W        W69432  23.006   0.119  13.343
97707W        W69433   3.280  11.584  12.591
97708W        W69434  28.753  43.811  11.094
97709W        W69435  36.245  34.120  14.900
97710W        W69436  34.049  18.172   0.293
97711W        W69437   1.748   8.606   4.457
97712W        W69438  27.272  42.711   1.777
97713W        W69439  39.007  17.363  12.877
97714W        W69440   9.047  30.419  14.635
97715W        W69441  14.359  28.514   0.737
97716W        W69442  30.097  37.932   2.241
97717W        W69443  42.933  37.608   2.875
97718W        W69444  15.848  18.347  12.840
97719W        W69445  39.887  37.003  11.175
97720W        W69446  27.949   2.360  13.966
97721W        W69447  42.938  22.783   4.611
97722W        W69448  35.932  27.508  10.589
97723W        W69449   9.706  22.864   2.898
97724W        W69450  17.501   4.716   4.166
97725W        W69451   3.977  36.659  14.857
97726W        W69452  27.941  29.029   4.156
97727W        W69453  14.176  35.151   3.305
97728W        W69454   0.487  31.598  12.796
97729W        W69455   9.739  38.871  13.573
97730W        W69456  24.094  39.132  10.682
97731W        W69457  24.055  42.995  12.871
97732W        W69458  26.927   3.627   3.628
97733W        W69459  12.988  23.317  13.595
97734W        W69460   5.032  39.750  10.662
97735W        W69461   1.161  22.668   1.821
97736W        W69462  19.136  15.663  11.610
97737W        W69463   8.076  12.281   4.054
97738W        W69464  35.436  32.827   0.829
97739W        W69465  21.446  27.763  14.743
97740W        W69466  25.293  34.878  12.169
97741W        W69467  23.129  14.643  11.529
97742W        W69468  36.850  38.918   2.306
97743W        W69469   0.937  13.571   2.795
97744W        W69470  44.516  16.848   3.369
97745W        W69471  41.141  32.474  12.703
97746W        W69472  27.446  20.027   1.775
97747W        W69473  23.471  35.569   2.434
97748W        W69474  18.118  44.538  10.715
97749W        W69475   9.602  37.647   3.260
97750W        W69476  32.072  20.492   0.809
97751W        W69477  27.598  44.468  11.346
97752W        W69478  18.410  42.124  11.741
97753W        W69479  32.081  44.009   3.225
97754W        W69480  28.687  35.555   1.733
97755W        W69481  17.605  33.951  12.687
97756W        W69482  25.014  32.494  10.480
97757W        W69483  43.269  34.992   3.591
97758W        W69484  21.136  16.004   4.295
97759W        W69485  23.699  14.866  12.405
97760W        W69486  32.341   1.078   2.952
97761W        W69487  13.795  41.258  10.872
97762W        W69488  16.011  41.882   2.587
97763W        W69489  34.088  10.684   2.620
97764W        W69490  18.163  29.830  13.518
97765W        W69491  28.444  30.377   2.192
97766W        W69492  20.560   2.783   4.447
97767W        W69493   2.721   0.933   3.055
97768W        W69494  17.237  20.227   4.892
97769W        W69495  10.113  10.333   3.235
97770W        W69496  15.883   7.907   5.346
97771W        W69497  41.111  34.451  10.673
97772W        W69498  28.153   0.432   2.221
97773W        W69499   9.414   2.399  10.631
97774W        W69500  42.931  28.045   4.638
97775W        W69501  42.513  34.775   3.232
97776W        W69502  26.612  27.584   0.398
97777W        W69503  18.416  20.461  12.495
97778W        W69504  42.017  44.432   0.665
97779W        W69505  19.529   5.337   1.028
97780W        W69506  26.915  15.714   1.334
97781W        W69507  34.100  17.293   0.797
97782W        W69508  29.109  39.938  13.418
97783W        W69509  21.574  11.662   1.173
97784W        W69510  42.752  18.681   0.510
97785W        W69511  30.945  23.556   2.393
97786W        W69512  24.561   8.718   0.849
97787W        W69513  34.928  30.978  14.918
97788W        W69514  38.527  28.153  11.519
97789W        W69515   8.047  25.080   3.268
97790W        W69516  43.021  10.323  13.084
97791W        W69517  40.226   9.313   1.864
97792W        W69518  30.244  43.266  13.752
97793W        W69519   6.472  44.883  11.319
97794W        W69520  41.264  28.979   4.630
97795W        W69521   5.765  21.558   3.751
97796W        W69522  44.770  11.187   3.753
97797W        W69523  21.273  28.906   1.691
97798W        W69524   0.374  21.473  13.080
97799W        W69525   5.454   8.796   4.679
97800W        W69526  39.782  37.517  11.588
97801W        W69527  10.067  33.719   0.815
97802W        W69528  27.676  40.974  11.574
97803W        W69529  24.537   5.691  14.550
97804W        W69530  18.547  42.521  11.417
97805W        W69531  10.055  41.791  11.901
97806W        W69532   6.277  20.456   2.694
97807W        W69533  17.600  18.066   1.866
97808W        W69534  13.354  35.477   3.817
97809W        W69535  40.498  17.748  14.937
97810W        W69536   1.870  23.133   2.401
97811W        W69537  42.444  33.931   2.907
97812W        W69538  26.348  18.194   1.246
97813W        W69539  10.146  44.385   0.257
97814W        W69540  37.874   2.977   0.320
97815W        W69541  22.029   0.818  12.954
97816W        W69542  22.765   1.833   1.014
97817W        W69543   2.368  17.999   4.704
97818W        W69544  20.167  20.956  11.201
97819W        W69545  11.167  16.622   3.010
97820W        W69546  27.918  43.304   1.253
97821W        W69547  12.503  27.918   1.376
97822W        W69548  35.090  27.477  13.129
97823W        W69549  11.257   7.548   0.431
97824W        W69550   0.010  21.786  11.058
97825W        W69551  39.304  27.801   0.265
97826W        W69552  10.474  29.427   3.344
97827W        W69553  29.581  11.352   1.389
97828W        W69554   6.642   7.304  10.225
97829W        W69555  37.356  38.585   2.772
97830W        W69556  17.631  24.031  13.790
97831W        W69557  20.551   4.419   0.980
97832W        W69558  30.145   7.672  13.501
97833W        W69559  20.622   8.845   3.818
97834W        W69560  16.617  17.627   2.868
97835W        W69561  12.712   8.837  12.092
97836W        W69562  24.081  15.096  12.119
97837W        W69563  26.252  19.771   3.402
97838W        W69564  26.731  25.461   0.377
97839W        W69565  27.584  34.118  10.625
97840W        W69566  36.806  12.373  10.753
97841W        W69567  39.701   7.326  12.365
97842W        W69568  18.843  10.563   2.432
97843W        W69569  10.795  19.506  12.123
97844W        W69570  19.811  15.650   1.286
97845W        W69571   2.037  35.880  14.418
97846W        W69572  11.329  39.297   3.248
97847W        W69573   6.695  38.749  11.048
97848W        W69574  12.507  11.441  13.986
97849W        W69575  31.982  27.893  13.321
97850W        W69576  26.559  32.607   4.190
97851W        W69577  27.506  38.349   1.801
97852W        W69578  41.963  25.122  12.992
97853W        W69579   3.000  24.146   0.010
97854W        W69580  36.124  16.710   2.300
97855W        W69581   6.450   9.862   0.393
97856W        W69582  14.611  20.954   4.904
97857W        W69583  33.240  37.050   1.224
97858W        W69584  36.791  32.295   3.947
97859W        W69585   7.029  25.768   4.209
97860W        W69586  22.711  39.612   3.251
97861W        W69587  21.267  29.576  14.845
97862W        W69588  37.898   3.889   3.590
97863W        W69589  32.392  30.101   4.427
97864W        W69590  26.914  25.650  11.035
97865W        W69591  14.019  33.954  13.091
97866W        W69592  22.111  31.006  12.966
97867W        W69593  21.080  43.383   3.084
97868W        W69594  20.669  19.569   4.544
97869W        W69595  24.484  10.395   3.792
97870W        W69596  12.277  32.632  10.481
97871W        W69597  25.751  38.311  11.004
97872W        W69598  35.590   6.874   3.697
97873W        W69599  36.785  16.543  13.365
97874W        W69600  19.472  12.666  12.991
97875W        W69601  12.708   1.273   0.945
97876W        W69602  44.895  11.801  12.791
97877W        W69603  10.371  42.893   0.646
97878W        W69604   8.988  20.484   0.444
97879W        W69605  43.372  40.112   2.154
97880W        W69606   2.746  35.032  14.747
97881W        W69607  11.637  29.140   3.069
97882W        W69608  17.634  19.262   1.999
97883W        W69609   6.106  44.007   1.297
97884W        W69610  38.645   8.629   0.939
97885W        W69611  39.025  12.770  13.407
97886W        W69612  37.563   5.241  10.847
97887W        W69613   7.418  29.563   0.814
97888W        W69614  31.884  22.743  14.848
97889W        W69615  17.541  14.178   1.867
97890W        W69616  40.561  24.358  13.334
97891W        W69617  38.276   9.719   0.282
97892W        W69618  20.202   4.811  10.220
97893W        W69619  40.931  19.718  10.724
97894W        W69620  23.242  25.424   3.317
97895W        W69621   5.441   9.619   1.737
97896W        W69622  35.477  31.447  10.881
97897W        W69623  32.671   0.838   2.620
97898W        W69624   5.158   3.168  11.167
97899W        W69625  30.447   5.508   2.106
97900W        W69626  12.294  39.361   4.040
97901W        W69627  18.771  39.934   4.075
97902W        W69628  31.054  22.033   0.999
97903W        W69629  18.775  19.288  13.416
97904W        W69630  42.307  15.830   1.196
97905W        W69631  43.924   1.737   0.719
97906W        W69632  28.147  35.611   1.680
97907W        W69633  15.517  34.359   4.737
97908W        W69634   3.717  39.089  13.990
97909W        W69635  39.396  33.462  13.994
97910W        W69636  16.513  31.931  11.586
97911W        W69637   4.185  12.341   3.855
97912W        W69638  16.562   7.897  13.369
97913W        W69639  22.631  37.578   5.010
97914W        W69640  37.322  43.538   2.197
97915W        W69641  39.545  27.724   2.164
97916W        W69642  28.104  34.192  14.867
97917W        W69643  23.536  13.804   1.465
97918W        W69644  14.601  25.409  12.061
97919W        W69645  14.043  20.009  11.898
97920W        W69646  42.967  44.901   1.324
97921W        W69647  12.679  43.926   4.394
97922W        W69648  41.163   4.785  14.035
97923W        W69649  15.597  23.190  13.538
97924W        W69650  42.823   1.705  13.048
97925W        W69651  18.655  26.735  11.647
97926W        W69652  22.685  31.014   2.035
97927W        W69653  19.273  13.178   1.739
97928W        W69654  23.202  24.265  12.590
97929W        W69655  31.603  34.881   1.697
97930W        W69656  27.466   4.736   0.843
97931W        W69657  34.897  12.401   1.678
97932W        W69658  36.029  13.177  12.095
97933W        W69659   6.271  32.683   2.395
97934W        W69660  31.199   1.801  10.321
97935W        W69661   8.179  16.243  12.852
97936W        W69662  32.423  37.102  10.673
97937W        W69663  14.140  16.746  11.169
97938W        W69664  44.324  16.999  10.335
97939W        W69665  29.975  13.753   0.366
97940W        W69666  23.082  16.398  13.569
97941W        W69667  24.140  23.779   0.694
97942W        W69668  15.848  30.987  14.401
97943W        W69669  11.309  16.113   1.895
97944W        W69670   0.737  15.231   3.270
97945W        W69671  23.771   8.411   4.565
97946W        W69672   9.972  25.288   9.837
97947W        W69673   4.537   1.464  12.448
97948W        W69674  12.877  25.746   1.795
97949W        W69675  40.517   2.544   4.489
97950W        W69676   1.820   3.262  10.617
97951W        W69677  29.461   6.217  11.117
97952W        W69678  43.240  16.469   3.174
97953W        W69679  34.655   8.216  11.438
97954W        W69680  20.816   7.271  13.906
97955W        W69681  10.185  31.449  12.458
97956W        W69682   6.968   3.293  10.326
97957W        W69683   0.215   7.450  14.472
97958W        W69684  18.348   4.301   1.024
97959W        W69685   7.005  27.671   2.533
97960W        W69686   5.798  14.660  12.381
97961W        W69687  34.621  31.100   4.145
97962W        W69688  11.841  32.459   2.681
97963W        W69689  35.887   0.939  13.799
97964W        W69690  39.081  16.870  13.002
97965W        W69691  36.646  25.940   2.160
97966W        W69692  22.217  37.389  11.981
97967W        W69693  19.008  43.078  14.270
97968W        W69694  15.779   9.179  14.947
97969W        W69695   6.821  41.540   3.330
97970W        W69696  35.566  25.476  14.486
97971W        W69697  26.363   4.959  13.014
97972W        W69698   8.365  38.590  12.038
97973W        W69699  11.361  37.587  14.851
97974W        W69700  26.663   5.203   4.066
97975W        W69701  38.490  23.657   2.510
97976W        W69702  27.622  13.638  11.094
97977W        W69703   6.489  40.412  11.185
97978W        W69704  36.470  19.125   4.547
97979W        W69705   7.387  12.740   2.373
97980W        W69706   0.970  35.378  12.433
97981W        W69707  24.568  42.404  13.499
97982W        W69708   3.647   9.584  14.826
97983W        W69709   3.969  37.735   2.248
97984W        W69710  11.630   9.665   0.934
97985W        W69711   2.601  39.017   4.884
97986W        W69712  23.110  27.039   3.230
97987W        W69713  12.695  38.131   0.206
97988W        W69714  17.522  14.316  12.107
97989W        W69715  42.199  11.952  13.363
97990W        W69716   0.999   9.753  13.947
97991W        W69717  37.882   0.190   2.789
97992W        W69718   5.445  28.733  11.076
97993W        W69719  41.837   8.387  13.374
97994W        W69720  37.619  16.954   3.772
97995W        W69721  30.094  34.046   2.731
97996W        W69722   1.728   0.436   2.198
97997W        W69723  32.443  39.816   2.139
97998W        W69724  38.486  38.948  14.807
97999W        W69725   5.201  24.548  12.469
98000W        W69726  34.047   5.952   4.256
98001W        W69727   0.475   3.075   0.588
98002W        W69728  41.024  33.681  11.014
98003W        W69729  13.116   2.698   0.778
98004W        W69730  23.030  33.454   4.366
98005W        W69731  17.463  16.698   0.945
98006W        W69732  33.913  20.087  10.510
98007W        W69733  14.765  39.925   1.741
98008W        W69734  22.280   1.948   0.825
98009W        W69735  17.508   9.530   2.272
98010W        W69736  22.069  30.961   0.915
98011W        W69737   8.075  39.025  11.164
98012W        W69738  11.821  34.731   2.631
98013W        W69739  10.191  15.622  12.204
98014W        W69740  30.137  40.507  12.537
98015W        W69741   4.887  33.997   2.060
98016W        W69742  13.714  29.585   3.867
98017W        W69743  34.604  26.172   4.392
98018W        W69744  12.194   6.912   2.853
98019W        W69745  20.568   6.824  12.087
98020W        W69746  22.530  22.720   3.822
98021W        W69747  22.212  11.936  14.814
98022W        W69748  29.599  23.512  13.507
98023W        W69749  22.407  26.283  13.388
98024W        W69750  38.848  12.477  10.826
98025W        W69751  22.943  11.201  13.916
98026W        W69752  29.643  35.781  14.690
98027W        W69753   9.253  17.624  10.521
98028W        W69754   4.833  30.399  12.550
98029W        W69755  43.438  16.076   2.477
98030W        W69756  15.027   4.426  11.877
98031W        W69757   6.087  14.162   1.376
98032W        W69758  13.016  30.410   1.374
98033W        W69759   3.867  16.368   0.394
98034W        W69760  31.106  12.415   3.636
98035W        W69761  10.759  21.990   4.079
98036W        W69762  29.175   8.911  13.334
98037W        W69763  34.856  31.434   3.802
98038W        W69764  25.615  20.619  13.005
98039W        W69765  29.413  12.598   3.878
98040W        W69766  28.594  19.220  11.894
98041W        W69767   2.544  14.341  11.109
98042W        W69768   9.241   0.562   0.361
98043W        W69769  12.218   9.114  13.837
98044W        W69770   0.101   6.153  11.993
98045W        W69771   9.789  13.750   4.851
98046W        W69772  15.276  12.579   1.197
98047W        W69773   6.151  25.075   2.813
98048W        W69774  22.024  21.504  10.490
98049W        W69775   0.199  36.504   1.290
98050W        W69776  43.875  17.191   1.314
98051W        W69777  37.390  42.389   1.868
98052W        W69778  30.935  42.912   3.256
98053W        W69779  13.791   2.312   0.233
98054W        W69780  37.414  34.024  12.179
98055W        W69781  44.271  23.649  14.798
98056W        W69782  13.452  32.427  11.072
98057W        W69783  21.345   7.238   4.849
98058W        W69784  28.823  17.661   2.783
98059W        W69785  25.319  38.591  11.045
98060W        W69786   0.453  36.636   0.819
98061W        W69787   3.981  28.767   1.966
98062W        W69788   2.825  27.998  12.632
98063W        W69789   9.409  25.007  12.105
98064W        W69790  35.549   0.928  12.153
98065W        W69791  34.636  40.678  13.281
98066W        W69792  21.755   7.181   3.209
98067W        W69793  25.008  13.364  10.606
98068W        W69794  34.052  15.245   4.073
98069W        W69795  22.072  27.015   0.566
98070W        W69796  32.332  30.908  14.397
98071W        W69797  18.736  29.841  11.006
98072W        W69798  29.879  33.212  10.720
98073W        W69799   1.938  42.460   1.467
98074W        W69800  15.186   3.468   2.751
98075W        W69801   9.659   2.674  13.973
98076W        W69802  17.154  36.857  13.345
98077W        W69803  29.447   3.337   2.222
98078W        W69804   2.302  11.628   2.851
98079W        W69805  39.328  15.858   4.327
98080W        W69806   2.687  16.157   0.947
98081W        W69807  25.284  25.822   4.106
98082W        W69808  27.876  10.345  13.094
98083W        W69809   7.369  23.489   1.750
98084W        W69810  21.805  44.071  11.468
98085W        W69811  37.401  16.532   0.888
98086W        W69812   3.963  34.664   3.488
98087W        W69813  33.592  39.623   2.710
98088W        W69814  23.089  37.869  14.902
98089W        W69815  10.292  23.520   3.579
98090W        W69816  14.343  19.555  10.679
98091W        W69817  29.646  27.539   0.762
98092W        W69818  31.266   5.379   3.172
98093W        W69819  43.587   3.929  11.075
98094W        W69820  41.918  10.170   0.382
98095W        W69821   4.696  19.018  14.006
98096W        W69822  21.266   2.076   2.841
98097W        W69823   1.572  28.976   0.349
98098W        W69824  27.644   8.466   3.111
98099W        W69825  40.436  13.556   4.641
98100W        W69826  16.773  20.599  14.640
98101W        W69827   5.838   5.473  10.340
98102W        W69828  41.447   6.708  11.576
98103W        W69829  13.229   0.444  10.304
98104W        W69830  34.206  20.309   3.906
98105W        W69831  30.266  26.835   2.665
98106W        W69832  16.231  44.338   0.230
98107W        W69833   2.493  16.572   0.742
98108W        W69834  38.868  22.534  12.539
98109W        W69835   6.993  33.703   2.174
98110W        W69836  17.279  39.790  12.046
98111W        W69837  26.142  38.295   2.844
98112W        W69838  44.419  32.490   4.375
98113W        W69839   2.691   5.009  11.621
98114W        W69840  11.955  41.538  12.993
98115W        W69841  40.516  32.347  14.863
98116W        W69842  22.610  28.060   2.172
98117W        W69843  28.134   8.471  13.010
98118W        W69844  35.022  43.496  10.685
98119W        W69845  13.850  10.291  13.796
98120W        W69846   2.183  23.086   0.481
98121W        W69847  15.174  20.041   2.902
98122W        W69848   8.487  43.865  13.522
98123W        W69849   0.213   1.256   1.857
98124W        W69850  40.945   1.962  12.523
98125W        W69851  38.298  29.586  11.232
98126W        W69852  39.566  11.726  10.369
98127W        W69853  35.553  11.387   0.039
98128W        W69854  37.857   7.756  12.195
98129W        W69855  36.795  34.491   4.630
98130W        W69856  25.161  29.454   3.249
98131W        W69857  31.486  36.568   1.245
98132W        W69858  21.959  41.539  14.408
98133W        W69859  28.613  29.644  12.835
98134W        W69860  35.286  21.620   3.339
98135W        W69861  11.461  21.544  10.660
98136W        W69862  33.867   3.834  11.056
98137W        W69863   5.167   7.525  13.775
98138W        W69864  21.073   1.566   3.950
98139W        W69865  26.966   5.772  12.967
98140W        W69866   8.769  10.707   0.955
98141W        W69867  17.289  20.332  11.107
98142W        W69868  19.116  33.034   0.687
98143W        W69869  21.139  25.473   3.067
98144W        W69870  24.505  26.276   4.040
98145W        W69871   8.188  43.369  13.057
98146W        W69872  31.054  16.376   1.332
98147W        W69873  41.295  21.914  14.049
98148W        W69874  21.769  24.529  10.676
98149W        W69875  23.753  43.060  13.598
98150W        W69876   4.749   0.449  12.043
98151W        W69877   0.807  13.273  10.854
98152W        W69878  14.189  29.908   1.796
98153W        W69879  44.794   1.094  13.012
98154W        W69880  19.759  29.713   0.986
98155W        W69881  38.810   1.949   1.828
98156W        W69882  39.126  38.348   0.691
98157W        W69883  22.215  39.549  11.077
98158W        W69884  19.799  31.570  11.159
98159W        W69885  20.563  20.789  10.517
98160W        W69886  17.520  27.710   2.080
98161W        W69887   9.393  33.802  14.031
98162W        W69888  27.524  37.917   2.369
98163W        W69889   9.301  22.536   4.650
98164W        W69890  17.604   8.602  14.890
98165W        W69891   9.010  42.311   0.290
98166W        W69892   9.861  14.354   2.228
98167W        W69893   6.645  24.243  14.369
98168W        W69894  44.739  40.648   3.766
98169W        W69895  26.076  20.905   1.204
98170W        W69896  10.804   9.597   4.157
98171W        W69897  27.894  13.401  14.323
98172W        W69898  15.229  29.806  13.469
98173W        W69899  10.279   2.208   9.931
98174W        W69900   6.325   3.494  13.541
98175W        W69901  41.401   8.386   4.893
98176W        W69902  14.605   6.982  13.860
98177W        W69903   8.317  12.204  14.517
98178W        W69904  38.631   8.736  13.790
98179W        W69905   7.607  29.689   2.922
98180W        W69906  37.019  25.072  10.628
98181W        W69907   3.308  24.067   5.028
98182W        W69908   2.685   6.734   2.132
98183W        W69909  31.211   1.768  12.059
98184W        W69910  37.975  22.201   4.585
98185W        W69911   1.436  33.574  14.657
98186W        W69912  33.042   3.796  14.995
98187W        W69913   0.780  21.511   1.886
98188W        W69914   1.724  14.686   4.176
98189W        W69915  28.459   2.816   4.622
98190W        W69916  39.541  41.868  11.139
98191W        W69917  18.776   2.708   0.314
98192W        W69918  25.939  14.596   4.586
98193W        W69919  22.990  13.628   2.833
98194W        W69920   5.780  34.626   3.744
98195W        W69921  18.242  40.974   0.739
98196W        W69922  19.562   8.977   4.118
98197W        W69923  35.331  10.120   0.367
98198W        W69924  15.527  42.585  13.955
98199W        W69925  19.550  20.221   4.495
98200W        W69926  41.902  21.153  11.207
98201W        W69927  43.302  16.733   0.297
98202W        W69928  43.433   7.071   3.351
98203W        W69929  42.312  24.593   1.817
98204W        W69930  36.029  40.989  13.422
98205W        W69931   8.309  17.653  12.472
98206W        W69932  34.369  11.843  11.958
98207W        W69933  43.506  41.830   1.579
98208W        W69934  12.835  25.573   4.192
98209W        W69935   2.021  11.869   1.723
98210W        W69936  31.055  16.536   3.661
98211W        W69937  13.673  10.175   3.686
98212W        W69938  26.715  24.517  10.890
98213W        W69939  23.332  18.101  14.569
98214W        W69940   9.666  26.790  14.603
98215W        W69941  14.344   1.058   4.570
98216W        W69942  34.829  28.226  14.227
98217W        W69943   1.344  11.791   4.665
98218W        W69944   3.857  21.758  13.969
98219W        W69945  20.828   5.713  11.166
98220W        W69946  38.011  12.670  12.490
98221W        W69947   7.785  36.491   3.260
98222W        W69948   8.809  42.751   0.476
98223W        W69949  24.147   8.695   2.820
98224W        W69950  28.685  39.482  12.400
98225W        W69951  31.172  25.561   2.909
98226W        W69952   8.872  38.127   4.298
98227W        W69953   3.846  19.508  11.238
98228W        W69954  21.602  29.891  11.602
98229W        W69955  43.980   9.326   2.297
98230W        W69956  43.411  41.945   1.073
98231W        W69957  42.305  31.494  11.518
98232W        W69958  27.248   9.297   2.308
98233W        W69959  31.420   5.267   4.156
98234W        W69960  34.192   8.492   3.020
98235W        W69961  13.747  43.577   3.924
98236W        W69962  41.754   0.799  13.993
98237W        W69963  40.137   1.091  11.241
98238W        W69964  34.668  20.512   0.977
98239W        W69965  18.569  34.180  12.198
98240W        W69966  35.224   7.249  13.539
98241W        W69967   9.292  44.054   0.374
98242W        W69968  29.204   1.946  10.452
98243W        W69969  31.859  34.678   3.700
98244W        W69970  42.538  17.137  14.430
98245W        W69971  44.806  21.189   0.342
98246W        W69972  29.832  12.382   2.015
98247W        W69973  41.281  32.972   3.358
98248W        W69974  16.315  41.849   0.652
98249W        W69975  33.003   9.228  10.664
98250W        W69976  28.237  23.561   0.047
98251W        W69977  22.578  30.456  10.738
98252W        W69978   9.980  37.777   0.941
98253W        W69979  16.206  42.022  11.108
98254W        W69980  37.993   3.871   1.931
98255W        W69981  23.693  38.785  11.483
98256W        W69982  28.096   8.368  12.500
98257W        W69983  43.887   6.405  10.562
98258W        W69984  21.401  34.319   4.333
98259W        W69985  30.975  29.470  11.606
98260W        W69986  41.901   5.269  11.682
98261W        W69987  24.930  41.612   4.625
98262W        W69988  16.387  35.662  12.474
98263W        W69989  33.387  20.547   4.406
98264W        W69990  12.586  20.708   1.748
98265W        W69991  41.845  10.271  10.630
98266W        W69992  39.243  39.127   2.436
98267W        W69993   7.806  20.200   2.748
98268W        W69994  10.132   5.903  12.844
98269W        W69995  22.639  32.473   2.350
98270W        W69996  19.567  41.545   4.233
98271W        W69997  25.723  11.187  10.264
98272W        W69998   3.923  11.815   4.652
98273W        W69999  44.260  30.362  13.494
98274W        W70000  34.694   4.824  13.950
98275W        W70001  18.067  42.955   4.803
98276W        W70002   8.161  35.511  11.610
98277W        W70003  41.725  32.872  14.386
98278W        W70004  10.665   5.950   0.379
98279W        W70005  31.321  16.513   0.456
98280W        W70006  35.987   3.761  11.818
98281W        W70007  37.712  15.250  13.773
98282W        W70008  16.081  12.838  14.359
98283W        W70009  24.020  37.140  13.583
98284W        W70010  35.603  14.032  12.917
98285W        W70011  22.089  41.289  10.651
98286W        W70012  28.158  17.129   4.535
98287W        W70013  27.898  25.012  12.146
98288W        W70014   7.955  34.314  14.917
98289W        W70015  33.642  13.554   4.150
98290W        W70016  31.893   0.249  10.652
98291W        W70017  19.322  16.016   2.916
98292W        W70018   0.744  30.694  11.185
98293W        W70019  29.760  24.480   3.267
98294W        W70020  31.067   2.798  11.559
98295W        W70021  26.416   0.054  10.254
98296W        W70022   1.393  23.694   3.049
98297W        W70023  38.958  43.801   2.306
98298W        W70024  28.232  35.659  11.111
98299W        W70025  44.690   9.228   4.536
98300W        W70026  10.184   1.743  11.549
98301W        W70027  31.901  20.638  12.041
98302W        W70028  30.937  37.431   0.201
98303W        W70029  12.933  33.486  14.369
98304W        W70030  10.570   9.126  13.014
98305W        W70031  21.765  20.804   1.814
98306W        W70032  23.429  24.116  10.970
98307W        W70033  22.185   6.962   4.084
98308W        W70034  43.425  37.649   2.650
98309W        W70035  36.488  22.752  12.843
98310W        W70036  17.986   1.043  10.771
98311W        W70037  36.440  26.988  13.038
98312W        W70038   4.841  38.890  11.682
98313W        W70039  32.782   4.450  13.988
98314W        W70040  33.457  10.061  14.848
98315W        W70041  44.443  44.638  11.060
98316W        W70042  11.366  31.964   2.246
98317W        W70043  14.102  22.396  12.393
98318W        W70044  30.098  26.631  13.814
98319W        W70045  15.040  11.827  13.370
98320W        W70046  41.040  24.550  12.596
98321W        W70047  17.887  31.740   2.802
98322W        W70048  39.442   5.734  10.666
98323W        W70049   3.808   8.423  11.218
98324W        W70050   5.055  17.706  11.465
98325W        W70051  11.722  13.356  12.430
98326W        W70052   4.874  23.509  14.352
98327W        W70053  24.683  22.470  12.578
98328W        W70054  17.498  32.484   2.366
98329W        W70055  37.352  43.175  14.862
98330W        W70056   2.308   9.141   2.766
98331W        W70057  11.118  24.248   3.820
98332W        W70058  20.769   6.956   3.295
98333W        W70059  23.126  42.142  11.640
98334W        W70060  17.884  40.254  12.897
98335W        W70061  18.303  19.556  14.286
98336W        W70062  20.576   6.377   1.973
98337W        W70063  41.098  16.083  12.540
98338W        W70064  32.092  22.261  13.900
98339W        W70065  37.459   7.120   0.512
98340W        W70066  35.427   4.385  12.888
98341W        W70067  24.252  13.304  13.946
98342W        W70068  19.664   0.800  11.960
98343W        W70069  24.618  41.642   1.668
98344W        W70070   7.730  16.906  13.417
98345W        W70071  43.207   8.936  14.461
98346W        W70072  26.666   1.031   4.915
98347W        W70073  17.327   2.191   0.383
98348W        W70074  13.784  23.668   3.151
98349W        W70075  10.081   7.819   1.341
98350W        W70076  21.954  27.697   3.421
98351W        W70077  34.729  35.421  12.015
98352W        W70078   5.882  19.960  10.807
98353W        W70079  33.836  26.675  14.075
98354W        W70080  12.358  39.476   2.672
98355W        W70081  36.578  16.500   1.373
98356W        W70082  18.513  15.042   0.469
98357W        W70083   8.604  44.803   1.874
98358W        W70084  14.161   8.557   1.483
98359W        W70085  23.037  23.107  12.892
98360W        W70086  28.491  38.939  13.039
98361W        W70087  39.821   6.334  12.205
98362W        W70088  38.877  43.425   4.611
98363W        W70089  28.842  40.851   4.236
98364W        W70090  23.192  16.607   4.567
98365W        W70091   8.590  15.723  10.638
98366W        W70092  31.160  23.071   3.850
98367W        W70093  41.192   6.705   0.829
98368W        W70094   2.831  37.121   0.008
98369W        W70095  33.921  17.354  10.982
98370W        W70096  37.904  33.939   0.964
98371W        W70097  43.328  20.628   0.082
98372W        W70098  39.403  34.095   0.034
98373W        W70099  14.760  25.004  14.525
98374W        W70100   5.547   3.303   1.290
98375W        W70101  13.172  19.270  14.496
98376W        W70102  23.239  43.339  14.857
98377W        W70103  19.613  43.542   0.935
98378W        W70104   7.800   5.944   2.725
98379W        W70105   3.907   7.696  10.518
98380W        W70106   4.367  13.774   9.775
98381W        W70107   0.851   6.323   4.040
98382W        W70108  43.869   5.318  13.477
98383W        W70109  22.968   1.396  11.993
98384W        W70110   7.119  37.065  14.381
98385W        W70111  30.157  33.467  14.428
98386W        W70112  15.604   1.493  14.423
98387W        W70113   3.733  16.129  10.418
98388W        W70114   2.214  40.386  12.362
98389W        W70115  44.738  28.796   1.656
98390W        W70116  27.931  43.200  10.127
98391W        W70117  21.689  24.778  10.215
98392W        W70118   5.721  16.213   3.291
98393W        W70119  40.264  18.241  11.324
98394W        W70120  30.364   2.416   3.210
98395W        W70121   3.865   7.142  13.320
98396W        W70122  43.506  24.811  12.806
98397W        W70123  21.645  34.234  11.143
98398W        W70124  40.373  17.596  14.361
98399W        W70125  24.270  38.637  11.651
98400W        W70126   2.451  20.089   0.766
98401W        W70127  29.947   4.219   4.051
98402W        W70128   4.383  11.581  14.508
98403W        W70129   6.262  42.452  12.892
98404W        W70130   6.291  16.265  14.746
98405W        W70131  42.072  27.233   1.786
98406W        W70132   5.707  10.309   1.580
98407W        W70133   5.428   0.841  13.213
98408W        W70134   8.467   2.841   0.300
98409W        W70135  36.350  15.662   1.028
98410W        W70136   8.851  25.651  10.307
98411W        W70137  14.640   8.632   1.690
98412W        W70138  42.145   9.017  11.743
98413W        W70139  32.978  40.940   0.204
98414W        W70140  13.800  42.362  12.095
98415W        W70141  19.475  30.978   4.439
98416W        W70142  16.624  19.689  13.326
98417W        W70143   7.339  13.982  14.055
98418W        W70144   9.234   6.534  11.144
98419W        W70145  40.028  38.345  13.307
98420W        W70146  44.897  20.075   3.632
98421W        W70147  11.466  30.477   5.144
98422W        W70148  15.208  16.323   2.652
98423W        W70149   7.390  34.340  13.009
98424W        W70150  15.638  27.950  10.685
98425W        W70151  20.314   7.744   1.736
98426W        W70152  30.064  34.415  12.798
98427W        W70153  34.986  33.818   0.327
98428W        W70154   6.235  24.051  11.003
98429W        W70155  13.853  25.524   4.758
98430W        W70156   6.732  39.875  12.911
98431W        W70157  37.633   3.757  14.240
98432W        W70158  27.580   4.347  12.440
98433W        W70159  15.818   0.167  12.059
98434W        W70160  44.712  10.867  10.909
98435W        W70161  13.811  22.154  11.465
98436W        W70162  24.754  24.108  14.501
98437W        W70163   5.682  12.369   1.062
98438W        W70164  33.442  20.456  11.039
98439W        W70165   3.277  28.882  10.573
98440W        W70166  10.836  22.539  13.740
98441W        W70167  40.780  15.324   0.758
98442W        W70168  35.493  44.108   2.531
98443W        W70169  30.745  27.566  12.697
98444W        W70170  38.220  41.221  11.146
98445W        W70171  19.552  12.684   0.944
98446W        W70172  10.583  10.804   3.411
98447W        W70173  23.973  32.951  14.338
98448W        W70174  13.974  36.965   3.162
98449W        W70175  14.261  37.909   1.932
98450W        W70176  20.728  41.939   1.838
98451W        W70177  12.113   1.347   0.240
98452W        W70178  38.328   9.011  11.868
98453W        W70179  44.555  22.245  13.010
98454W        W70180  42.861  40.064   1.483
98455W        W70181  31.542  21.325  10.907
98456W        W70182  21.658  44.761   0.861
98457W        W70183  35.427  18.517  13.984
98458W        W70184  20.561  24.530   4.264
98459W        W70185   9.324  43.975   3.829
98460W        W70186  43.499  25.761   2.683
98461W        W70187  43.079  20.301  11.228
98462W        W70188   8.521  13.246   0.818
98463W        W70189  21.077  12.230   3.298
98464W        W70190  33.596   4.931  11.706
98465W        W70191   8.260  10.774  11.091
98466W        W70192   2.939  28.622  12.613
98467W        W70193   0.701  25.938   3.213
98468W        W70194  26.497  34.128   1.135
98469W        W70195  11.035  40.891  12.252
98470W        W70196   5.300  21.232   4.492
98471W        W70197   4.364  35.134  11.491
98472W        W70198  26.449  35.636   0.342
98473W        W70199   6.632  15.442   4.553
98474W        W70200  40.869  14.474   2.343
98475W        W70201  18.514  27.040   1.052
98476W        W70202  42.030  30.673  13.707
98477W        W70203  10.552  44.369   3.739
98478W        W70204   8.186  22.722  14.862
98479W        W70205  13.407  29.126   4.618
98480W        W70206  13.800  40.322  12.739
98481W        W70207  10.853   2.304  12.611
98482W        W70208  35.336  43.564   2.760
98483W        W70209  33.643   5.007  13.085
98484W        W70210  10.924  18.797   2.209
98485W        W70211  27.530  32.898  12.408
98486W        W70212  42.450   0.136   3.040
98487W        W70213  40.820  11.473  12.349
98488W        W70214  36.349  40.546  12.019
98489W        W70215  12.441  40.309  14.518
98490W        W70216   2.218   1.464  10.965
98491W        W70217  36.612   6.686  10.523
98492W        W70218  12.272  41.847  10.367
98493W        W70219   2.279  28.657  12.375
98494W        W70220  34.301  13.235   4.643
98495W        W70221  27.179  14.302  14.316
98496W        W70222  18.587  34.544  11.233
98497W        W70223  40.621  42.548  10.798
98498W        W70224  43.405  12.305  12.542
98499W        W70225  19.040  11.828   4.107
98500W        W70226  28.663  22.638  10.627
98501W        W70227   5.689  42.390  11.533
98502W        W70228   8.854   5.522   0.250
98503W        W70229  35.491  40.178  10.844
98504W        W70230  27.969  10.276   1.453
98505W        W70231  30.538  21.077   0.687
98506W        W70232  25.015   7.737   4.606
98507W        W70233  36.056  10.385   2.436
98508W        W70234  27.044   7.680  12.476
98509W        W70235   9.892  35.583  14.092
98510W        W70236   0.446  43.835   4.659
98511W        W70237  13.814  33.544   1.291
98512W        W70238  29.523  43.053  13.844
98513W        W70239  37.292  15.655   0.422
98514W        W70240   5.496  30.525   0.337
98515W        W70241  41.567  24.591   4.671
98516W        W70242  10.383   1.211   1.962
98517W        W70243  20.333  12.273   4.195
98518W        W70244  24.809   1.329   4.275
98519W        W70245  19.329  33.878  11.508
98520W        W70246  40.292  42.341   0.520
98521W        W70247  23.243  14.162  11.684
98522W        W70248  31.897   6.199  10.361
98523W        W70249   2.401  31.534   0.748
98524W        W70250  44.330   1.305  13.532
98525W        W70251  39.842  16.517   4.550
98526W        W70252  18.295  39.806  13.351
98527W        W70253  26.623  35.575   4.336
98528W        W70254  38.834  36.123  12.082
98529W        W70255  36.128   9.988  13.487
98530W        W70256  32.095  39.933  11.561
98531W        W70257   7.745   8.236   3.362
98532W        W70258  17.601   1.943  13.369
98533W        W70259   4.817  22.756  12.985
98534W        W70260   7.163  10.168   1.398
98535W        W70261  38.050  32.993   2.732
98536W        W70262  23.222   1.901   3.626
98537W        W70263  14.056  17.989  14.868
98538W        W70264  35.552  15.843   0.460
98539W        W70265  26.984  34.801  11.530
98540W        W70266  31.573  31.142  13.179
98541W        W70267   5.913  34.525   0.993
98542W        W70268   4.147   0.454   1.861
98543W        W70269  19.983  35.333  12.488
98544W        W70270   2.618   7.738   2.772
98545W        W70271  15.246  35.466   3.599
98546W        W70272  21.433  28.430   1.504
98547W        W70273   2.957  21.545   2.151
98548W        W70274  41.741  35.937  11.528
98549W        W70275  44.793  24.675   5.141
98550W        W70276   8.690  22.179   3.673
98551W        W70277  12.206   7.112   4.701
98552W        W70278   8.278   3.734   4.767
98553W        W70279  32.601  27.061   4.918
98554W        W70280  34.835  30.407   3.602
98555W        W70281  18.560   4.898  13.080
98556W        W70282   0.437  10.251   4.145
98557W        W70283   2.740  18.027   3.194
98558W        W70284   1.163  28.226   3.635
98559W        W70285   0.523  29.067  13.481
98560W        W70286   7.350  37.351   3.388
98561W        W70287  13.492   1.930   3.615
98562W        W70288   8.226   8.630  10.509
98563W        W70289  23.970  28.467  12.968
98564W        W70290  36.827  18.112  12.923
98565W        W70291  41.934  39.606   1.531
98566W        W70292  10.367   0.710  10.830
98567W        W70293  44.535  19.480   1.688
98568W        W70294  10.839  30.546   1.912
98569W        W70295  39.732   2.406  12.553
98570W        W70296  20.545  16.620   0.949
98571W        W70297   6.444   9.947   4.154
98572W        W70298  32.719  17.363  13.562
98573W        W70299  42.173  21.990   2.159
98574W        W70300  39.061  40.981  14.311
98575W        W70301  40.086   5.411  11.249
98576W        W70302  16.238  25.593  13.992
98577W        W70303  23.518   0.741   1.390
98578W        W70304   4.873  31.059   2.360
98579W        W70305  16.475  16.161  12.818
98580W        W70306  26.491   3.485  11.689
98581W        W70307  21.702   7.393   2.192
98582W        W70308   7.805   0.294   0.241
98583W        W70309  17.800  22.026  11.902
98584W        W70310   2.951  34.982   2.741
98585W        W70311  15.219  26.459  11.534
98586W        W70312   6.242  27.530   1.282
98587W        W70313  38.388   0.364   2.837
98588W        W70314  31.433   9.910   5.301
98589W        W70315  10.722  21.942  10.724
98590W        W70316  14.337  23.162  12.088
98591W        W70317  14.227  20.950  13.213
98592W        W70318  27.519  40.843   0.112
98593W        W70319  41.844  27.210  10.702
98594W        W70320  29.904  29.079   4.576
98595W        W70321  24.243  31.623  14.782
98596W        W70322  15.790  39.994   0.928
98597W        W70323   8.646  12.716  11.253
98598W        W70324   4.049  39.285  12.201
98599W        W70325   5.670  24.380   2.319
98600W        W70326  39.555   6.857   0.393
98601W        W70327  31.658   1.368  12.890
98602W        W70328  16.239  12.143  12.287
98603W        W70329  32.679  36.949   0.863
98604W        W70330   4.759   8.803  14.103
98605W        W70331  22.964  35.017   4.905
98606W        W70332   5.156  25.004  14.746
98607W        W70333  34.585  21.583   4.791
98608W        W70334  27.488  18.522   0.926
98609W        W70335   1.352   9.754  11.526
98610W        W70336  42.038  10.425  11.501
98611W        W70337   7.093  32.898  11.946
98612W        W70338   8.367  12.994  10.642
98613W        W70339  37.051  29.058  12.627
98614W        W70340  17.592  34.365   3.616
98615W        W70341  41.302  26.280  12.171
98616W        W70342  42.645  10.837   3.677
98617W        W70343  35.478  43.372  10.944
98618W        W70344  43.030   7.568   2.720
98619W        W70345  13.117   7.535  12.852
98620W        W70346  31.555  16.142  12.809
98621W        W70347   1.429   3.029   0.314
98622W        W70348  14.382   0.843   2.886
98623W        W70349  24.981   7.687   5.105
98624W        W70350  26.137  12.702  14.392
98625W        W70351  39.789  41.406  11.145
98626W        W70352   0.030   4.377   2.735
98627W        W70353  18.233  40.968  10.508
98628W        W70354  17.327  29.124  11.561
98629W        W70355  33.375  26.616   4.121
98630W        W70356  40.092  14.703   1.866
98631W        W70357  28.902  38.454  14.583
98632W        W70358  27.919  34.973  14.326
98633W        W70359  27.232  35.283   4.230
98634W        W70360   2.847   3.310   3.211
98635W        W70361  37.495  25.588   4.701
98636W        W70362  25.228   8.360   4.423
98637W        W70363  35.399  26.492   1.027
98638W        W70364  10.357  30.895  11.139
98639W        W70365  26.495  23.060  11.142
98640W        W70366  29.584  38.982   4.605
98641W        W70367  32.017  22.430   4.657
98642W        W70368  12.167  44.721  11.213
98643W        W70369  11.143  41.938   0.918
98644W        W70370  29.749   9.683  14.187
98645W        W70371  39.789   4.373   1.762
98646W        W70372  42.928  11.136  11.936
98647W        W70373  15.066  16.222   1.735
98648W        W70374  37.134  37.411   1.488
98649W        W70375  22.002  26.821  14.951
98650W        W70376  16.291  25.988   0.916
98651W        W70377   4.610  28.750  10.622
98652W        W70378  41.949  41.795  12.897
98653W        W70379  39.818  30.623  13.567
98654W        W70380  27.207  32.848   1.360
98655W        W70381  40.881  29.037   0.419
98656W        W70382  15.633  21.124   3.799
98657W        W70383  24.114  43.038  13.995
98658W        W70384  14.690   6.243   1.367
98659W        W70385  29.092   3.843  10.705
98660W        W70386  39.429  36.784  12.438
98661W        W70387   2.036  14.986   4.460
98662W        W70388   3.545  23.759  11.692
98663W        W70389  27.202  10.486  11.500
98664W        W70390   8.742   0.493   3.209
98665W        W70391  21.093   5.879  13.935
98666W        W70392  21.604  37.616  10.897
98667W        W70393  22.129  37.281  11.509
98668W        W70394  20.776  36.964   4.410
98669W        W70395  23.774  10.313  13.457
98670W        W70396  17.139  26.278  14.894
98671W        W70397   0.422  19.098   4.777
98672W        W70398  14.444  20.663   0.955
98673W        W70399  26.878   8.964   3.167
98674W        W70400  32.689  21.489   1.256
98675W        W70401   2.469  25.597   1.727
98676W        W70402  16.275  32.541   4.655
98677W        W70403   5.388  24.183  11.622
98678W        W70404  10.489  22.765  10.678
98679W        W70405  43.319   5.196   1.817
98680W        W70406  44.953   5.708  12.435
98681W        W70407  12.965   5.259  12.886
98682W        W70408  28.973  19.184  14.895
98683W        W70409   9.120  14.203   2.629
98684W        W70410  23.254  37.807  10.717
98685W        W70411  14.210  40.386  12.370
98686W        W70412  31.027  33.086   1.760
98687W        W70413  44.757   3.041  10.857
98688W        W70414  18.028   5.560   2.157
98689W        W70415  42.504  31.473   4.831
98690W        W70416  33.536   2.261   2.720
98691W        W70417  27.804  12.971   4.216
98692W        W70418  11.372  31.492  13.574
98693W        W70419  29.524  33.083   4.685
98694W        W70420  19.272   7.512   0.376
98695W        W70421   7.732  15.560   1.891
98696W        W70422  33.870  15.424  10.741
98697W        W70423  27.033  18.665  10.765
98698W        W70424  33.667  28.920  14.449
98699W        W70425  25.026  18.087   4.270
98700W        W70426  34.125  16.922   3.241
98701W        W70427  14.302  15.341  14.382
98702W        W70428   1.951  21.113  13.362
98703W        W70429   2.338  37.470   9.799
98704W        W70430  22.162  23.794  12.490
98705W        W70431  20.696  20.973  11.738
98706W        W70432  40.307  33.676   0.957
98707W        W70433  35.478  18.795  12.922
98708W        W70434  34.652  31.439  12.825
98709W        W70435  42.386  43.014  11.911
98710W        W70436  42.339  34.270   4.229
98711W        W70437  36.766  41.923   2.712
98712W        W70438  20.448  35.215  11.150
98713W        W70439  14.039  11.894   1.315
98714W        W70440  42.892   2.011  10.461
98715W        W70441  18.674   0.376  14.379
98716W        W70442  15.236  33.420  10.476
98717W        W70443  13.749  39.959   0.016
98718W        W70444  27.699  11.705   1.660
98719W        W70445  29.769   3.356   1.119
98720W        W70446   3.443  10.670  11.281
98721W        W70447   4.379  30.125   3.782
98722W        W70448   8.388  13.371   2.167
98723W        W70449  31.563  39.754   3.076
98724W        W70450  13.866  22.281   2.137
98725W        W70451  34.136  32.400  12.482
98726W        W70452  11.712  21.166   9.913
98727W        W70453   9.898   1.460  11.241
98728W        W70454  14.570  14.537   4.479
98729W        W70455  19.833  36.759  14.580
98730W        W70456  29.350  27.584  12.105
98731W        W70457  19.205  42.861  12.350
98732W        W70458   7.213  19.221  13.963
98733W        W70459  32.623   4.984  11.022
98734W        W70460  25.280  17.238  10.588
98735W        W70461  31.922   8.435   0.780
98736W        W70462  27.250  11.887   1.853
98737W        W70463  15.211  20.977   4.089
98738W        W70464   4.750  33.156  11.894
98739W        W70465  43.266  12.434   1.781
98740W        W70466  43.724  28.384   3.923
98741W        W70467  26.625  30.399  12.505
98742W        W70468  24.255  33.612   1.517
98743W        W70469  18.227  31.841  13.412
98744W        W70470  13.072   6.819  13.668
98745W        W70471   8.605  18.950  14.901
98746W        W70472  41.122   6.905  13.290
98747W        W70473  29.727  19.072   0.795
98748W        W70474  21.419   2.243   5.076
98749W        W70475   0.591  10.823  14.238
98750W        W70476   1.022  20.214   1.826
98751W        W70477  31.396  41.158   1.757
98752W        W70478   9.200   0.728   3.222
98753W        W70479  16.849  13.080   3.184
98754W        W70480  21.019  31.169  12.908
98755W        W70481  29.476   6.410   5.114
98756W        W70482  10.730  24.260   9.953
98757W        W70483  13.380  21.956   1.349
98758W        W70484  31.209  13.767  10.434
98759W        W70485  37.079  44.268  14.383
98760W        W70486  14.397  35.586  10.620
98761W        W70487  16.675  39.468   4.812
98762W        W70488  34.498  18.049  12.147
98763W        W70489  22.200  35.467   1.529
98764W        W70490  35.517  28.975  11.069
98765W        W70491  26.459  24.605  14.976
98766W        W70492  36.807  12.380   2.890
98767W        W70493  23.099  30.061  14.809
98768W        W70494  31.632  43.355   4.728
98769W        W70495   3.162  26.550  12.095
98770W        W70496  14.560  20.025  11.913
98771W        W70497  10.731  31.045   3.649
98772W        W70498  23.140   0.876  12.004
98773W        W70499  26.622  36.370   1.488
98774W        W70500  35.512  28.377  12.147
98775W        W70501  36.644  44.772   3.175
98776W        W70502  42.411   8.421  11.148
98777W        W70503  28.853  25.326   1.290
98778W        W70504  17.526  27.859   4.172
98779W        W70505  31.463  41.638   5.523
98780W        W70506  26.656  19.024   2.132
98781W        W70507   7.950  17.254  14.357
98782W        W70508  15.579  20.984  14.395
98783W        W70509   8.348  32.688   1.271
98784W        W70510  44.588   8.704  12.969
98785W        W70511  14.873   8.822  10.830
98786W        W70512  11.629   5.764  13.149
98787W        W70513  33.019  13.336   3.299
98788W        W70514  44.795  34.326   3.767
98789W        W70515  40.400   0.393  10.869
98790W        W70516  10.520  39.910  11.081
98791W        W70517  13.118  12.811   1.411
98792W        W70518  34.531  34.467   1.472
98793W        W70519  24.218  23.412  14.807
98794W        W70520  25.995  26.221  10.953
98795W        W70521  30.767  26.648   2.446
98796W        W70522  16.080  39.299   1.406
98797W        W70523   4.834  33.040   3.386
98798W        W70524   8.317  35.441  10.351
98799W        W70525  35.048   8.225  14.395
98800W        W70526  19.637  16.115   0.414
98801W        W70527  22.061  16.971  14.222
98802W        W70528  27.118  19.653   3.643
98803W        W70529  21.209  42.831  13.084
98804W        W70530   4.267   6.781   2.340
98805W        W70531  30.013  10.800  12.055
98806W        W70532   2.494  27.655  12.417
98807W        W70533  27.185  39.081   9.497
98808W        W70534  28.643  30.594  11.293
98809W        W70535  39.517   2.453   2.790
98810W        W70536  11.218  41.152  12.662
98811W        W70537  24.260  10.462  14.501
98812W        W70538  36.405  32.011   3.239
98813W        W70539  13.696   3.770  12.089
98814W        W70540   5.653  30.376  14.265
98815W        W70541  10.887  41.810   4.176
98816W        W70542  20.409   6.431   5.089
98817W        W70543  11.064  21.563   1.346
98818W        W70544   5.620  41.502   4.520
98819W        W70545  44.016  22.139  13.995
98820W        W70546  25.640  42.743   3.848
98821W        W70547  41.037  38.064  10.526
98822W        W70548  20.130  39.475   4.775
98823W        W70549  17.406   9.353   3.169
98824W        W70550   7.758  15.133  10.942
98825W        W70551  35.584  41.720  12.045
98826W        W70552  18.602  30.089  11.432
98827W        W70553  35.388  39.308   3.346
98828W        W70554   3.890  40.476   4.657
98829W        W70555   7.859  27.483   3.726
98830W        W70556  38.297  29.106   3.126
98831W        W70557  40.564  27.473  14.478
98832W        W70558  26.514  34.736  13.090
98833W        W70559  23.476  42.717   2.604
98834W        W70560   3.840  10.153  12.928
98835W        W70561  36.040   5.504   4.679
98836W        W70562  29.235  43.946   1.237
98837W        W70563  13.228  29.592   0.889
98838W        W70564  13.359  31.033  12.796
98839W        W70565  44.970  33.338  12.501
98840W        W70566  38.892   6.483   2.721
98841W        W70567  37.594  17.924  11.207
98842W        W70568  24.521   2.508   4.618
98843W        W70569  33.619  44.024   4.152
98844W        W70570  24.033   1.387   3.820
98845W        W70571   8.339  34.843   2.203
98846W        W70572   7.630  17.156   1.863
98847W        W70573   1.460  20.093  13.501
98848W        W70574   5.803  15.149  12.120
98849W        W70575  35.346  26.641  10.604
98850W        W70576   3.241  17.826   2.336
98851W        W70577  25.587  21.122  13.181
98852W        W70578  28.915  35.324  11.723
98853W        W70579   7.283  21.278   0.767
98854W        W70580   1.274  29.351   0.747
98855W        W70581   5.489  23.608   3.090
98856W        W70582   8.285  26.511   0.072
98857W        W70583   2.408   1.265  14.930
98858W        W70584  31.698  40.089   0.793
98859W        W70585  40.577   0.454   0.540
98860W        W70586  11.317  42.902  13.464
98861W        W70587  17.432  38.809   4.211
98862W        W70588  41.247   7.291  10.457
98863W        W70589  29.109  37.770  12.083
98864W        W70590  35.502   0.822  13.434
98865W        W70591  44.781   1.535  14.273
98866W        W70592   4.698  28.679   4.643
98867W        W70593   3.736   7.849   0.812
98868W        W70594  19.397  26.450  12.412
98869W        W70595  15.547  26.954  13.498
98870W        W70596  43.930   4.272   3.590
98871W        W70597   3.435   7.333   0.651
98872W        W70598  12.297   8.628  14.926
98873W        W70599   9.611   2.171  14.862
98874W        W70600  27.971  12.944   1.224
98875W        W70601  13.109  41.701  14.803
98876W        W70602   2.631  42.512  11.482
98877W        W70603  35.017  34.097   4.870
98878W        W70604  25.899  44.782   0.819
98879W        W70605  40.999   8.457   1.750
98880W        W70606   9.148  21.695   4.079
98881W        W70607  16.557  20.032  13.733
98882W        W70608   2.464  20.523   1.045
98883W        W70609  33.116  44.837  10.760
98884W        W70610  11.604  27.077   1.362
98885W        W70611  24.799  13.546  12.476
98886W        W70612  21.619  27.064   0.790
98887W        W70613   0.748  25.508   0.298
98888W        W70614   1.980  28.421  10.700
98889W        W70615  29.924  24.475  12.899
98890W        W70616  28.522  17.720   4.150
98891W        W70617  18.804  32.867  14.832
98892W        W70618   8.871  16.637  12.437
98893W        W70619  27.154  39.544   1.417
98894W        W70620  31.822  11.234  13.891
98895W        W70621  35.992  39.833   3.823
98896W        W70622  18.175  11.345  11.667
98897W        W70623  34.876   5.460   4.588
98898W        W70624   4.359   5.820  14.045
98899W        W70625  30.060  37.959  10.779
98900W        W70626  34.266  22.708  12.841
98901W        W70627  22.292   2.002  11.118
98902W        W70628  42.840  12.244  12.343
98903W        W70629   3.513  44.506  14.804
98904W        W70630  26.305  16.768  11.095
98905W        W70631  10.450  37.355   1.305
98906W        W70632  42.862  43.031  12.136
98907W        W70633   0.979  22.813  11.142
98908W        W70634   5.401  30.981  13.081
98909W        W70635  13.412  28.956  12.111
98910W        W70636  10.746  29.385  13.852
98911W        W70637   8.486  13.266   3.210
98912W        W70638   8.464   0.997  13.030
98913W        W70639  42.971  20.246   2.002
98914W        W70640   0.617   6.229  13.215
98915W        W70641   2.781  43.233   4.534
98916W        W70642  35.798  12.689  14.543
98917W        W70643  41.847  21.809  12.550
98918W        W70644  40.253   1.909  13.012
98919W        W70645   6.294  26.401  14.754
98920W        W70646  44.008  23.368  13.042
98921W        W70647   9.123  22.591   0.038
98922W        W70648  20.539  18.722  12.028
98923W        W70649  30.094  42.230  13.025
98924W        W70650  31.933  40.803  13.381
98925W        W70651  14.761   4.863  13.123
98926W        W70652   4.144  11.910   4.189
98927W        W70653   7.373   2.793   4.248
98928W        W70654  18.664  16.102  13.291
98929W        W70655  12.820  42.949   0.285
98930W        W70656  37.653  23.649   1.390
98931W        W70657   9.176  44.962  14.300
98932W        W70658  23.444  28.585  12.082
98933W        W70659   6.371  37.342   4.119
98934W        W70660  44.289  15.076   4.191
98935W        W70661  11.363   8.462  11.145
98936W        W70662  13.076  28.609  11.182
98937W        W70663  20.814  17.550   0.704
98938W        W70664  28.052  19.457  11.070
98939W        W70665  27.549   2.734  13.090
98940W        W70666  16.584   3.172   3.352
98941W        W70667   9.841  37.383   0.045
98942W        W70668   3.888   0.709   2.239
98943W        W70669  23.441  32.365   3.324
98944W        W70670  16.167  12.132   0.402
98945W        W70671  26.410   5.915   1.902
98946W        W70672  12.344   9.713  10.747
98947W        W70673  11.574  37.441   0.299
98948W        W70674  12.025  26.379   0.311
98949W        W70675   7.561  21.623  13.570
98950W        W70676  21.306  41.703  13.875
98951W        W70677  37.803  32.923   3.752
98952W        W70678  26.535  22.052  12.079
98953W        W70679   6.824  29.079   0.841
98954W        W70680  30.024  19.664   3.987
98955W        W70681   9.428  26.369  14.910
98956W        W70682  41.942  31.493   3.697
98957W        W70683  35.904  37.256  11.663
98958W        W70684  39.407  32.317  13.952
98959W        W70685   2.732  32.376   1.596
98960W        W70686  22.329   3.487  11.599
98961W        W70687  26.900  22.186  14.759
98962W        W70688  23.481  27.570   4.113
98963W        W70689  27.004   0.454   3.330
98964W        W70690  30.865  16.862   1.371
98965W        W70691  28.937  10.690  13.470
98966W        W70692  13.621   6.336  10.769
98967W        W70693   8.723  36.145  10.088
98968W        W70694  33.612   2.948   4.521
98969W        W70695   3.829  12.663   4.205
98970W        W70696  31.342  43.389   1.970
98971W        W70697   4.791  44.430   1.249
98972W        W70698  23.743  41.751  13.051
98973W        W70699  43.212  16.560  13.730
98974W        W70700  37.724  13.159   5.294
98975W        W70701  37.051   2.004   1.220
98976W        W70702  30.143   2.660  14.320
98977W        W70703  21.492  25.897  11.961
98978W        W70704   3.129  15.360  14.239
98979W        W70705  28.950  21.270   1.813
98980W        W70706  42.941  25.026   1.791
98981W        W70707  31.872  40.341   1.906
98982W        W70708  16.789  30.390  13.410
98983W        W70709  23.910  24.946   2.349
98984W        W70710  34.062  21.510   4.763
98985W        W70711  31.499  20.464  13.132
98986W        W70712  36.369  36.929   0.177
98987W        W70713  37.519  32.326   0.679
98988W        W70714  12.357  25.048  14.590
98989W        W70715  11.121  21.149  13.491
98990W        W70716   6.754  36.160  14.787
98991W        W70717  23.887  15.656  11.914
98992W        W70718   4.672  18.699   3.872
98993W        W70719  28.123   3.269  13.524
98994W        W70720  10.706  33.097  10.853
98995W        W70721  38.408  31.621   1.347
98996W        W70722  37.396   4.914  12.941
98997W        W70723  36.419  12.385   3.839
98998W        W70724  32.149  26.797   0.811
98999W        W70725  13.535  31.122   4.296
99000W        W70726  34.588  27.169  13.246
99001W        W70727   5.980  13.558  10.597
99002W        W70728  38.290  18.171   4.746
99003W        W70729  41.851  33.884  10.702
99004W        W70730   9.485  28.258  11.091
99005W        W70731  35.047  25.470   3.839
99006W        W70732  42.460   2.282   2.328
99007W        W70733  18.222   8.079   0.356
99008W        W70734  32.181  43.367  13.348
99009W        W70735  23.887  34.878   0.318
99010W        W70736  16.866  15.356   1.429
99011W        W70737  17.723  37.298   0.406
99012W        W70738  20.670  16.286  13.088
99013W        W70739  36.523   4.873  14.540
99014W        W70740  42.766  13.668   2.154
99015W        W70741   4.492  31.501   3.229
99016W        W70742  41.455   9.663  14.020
99017W        W70743   9.764  20.989   0.984
99018W        W70744  20.068  29.771   4.562
99019W        W70745  12.102   4.498  10.468
99020W        W70746  31.470   5.494   2.724
99021W        W70747   3.874  22.504  13.518
99022W        W70748  33.504  23.032   0.972
99023W        W70749  29.013  40.115  14.879
99024W        W70750   0.828  28.149   4.035
99025W        W70751  28.460  38.391  14.316
99026W        W70752  21.705  12.359   1.470
99027W        W70753  31.221   8.354  14.035
99028W        W70754   3.206   5.797   1.360
99029W        W70755  27.976  25.228   2.803
99030W        W70756  14.112   6.253   4.112
99031W        W70757  27.865   9.239  14.417
99032W        W70758  40.119  34.100   3.622
99033W        W70759  37.703  21.303  11.991
99034W        W70760  10.300  20.701   4.967
99035W        W70761  35.320  25.017   5.013
99036W        W70762  40.906  22.014   3.072
99037W        W70763  29.531  17.102  11.755
99038W        W70764   1.879  22.664   3.728
99039W        W70765  33.033  41.773   3.211
99040W        W70766  40.994   0.190   0.712
99041W        W70767  13.777  10.408   2.222
99042W        W70768  24.733  20.718  14.085
99043W        W70769  28.762  41.678  14.862
99044W        W70770  24.347  36.443  11.032
99045W        W70771   3.430   7.406  11.635
99046W        W70772  36.464  14.681   2.442
99047W        W70773  13.130  44.431  14.504
99048W        W70774  24.666  34.214   3.645
99049W        W70775   7.528  24.482  14.475
99050W        W70776  25.226   1.372  12.928
99051W        W70777  16.562   9.694  11.097
99052W        W70778  35.843  17.899  12.848
99053W        W70779  29.592  23.300   3.926
99054W        W70780  19.189   7.309   3.011
99055W        W70781  41.778  22.712   2.242
99056W        W70782   6.529  22.540  11.212
99057W        W70783  11.692  28.154  14.938
99058W        W70784  18.754  11.664  14.369
99059W        W70785   0.178   4.217  13.487
99060W        W70786  28.393   9.903   3.275
99061W        W70787  28.632  36.698  11.516
99062W        W70788  39.654  43.800  11.449
99063W        W70789   7.330   9.656  14.888
99064W        W70790  19.208   1.360  10.772
99065W        W70791  22.506  44.083   0.730
99066W        W70792  36.887  39.432   2.450
99067W        W70793  25.077   1.438   3.310
99068W        W70794  35.053   1.973   0.802
99069W        W70795   2.680   3.517   1.012
99070W        W70796  13.883  38.820   3.330
99071W        W70797  30.034   3.271  14.107
99072W        W70798  19.092  39.331   4.463
99073W        W70799  34.093   9.012   2.164
99074W        W70800   5.785  13.794  11.844
99075W        W70801  20.793  25.183   3.741
99076W        W70802  34.160  23.143  13.106
99077W        W70803  28.559   1.198  13.284
99078W        W70804  26.617   0.029  12.504
99079W        W70805  41.533   2.249   1.648
99080W        W70806  43.484  24.999   3.189
99081W        W70807   4.973   2.664   2.737
99082W        W70808  28.665  13.854   0.716
99083W        W70809  44.688  40.043   3.373
99084W        W70810  40.494  23.108  12.472
99085W        W70811  25.709  16.832   2.457
99086W        W70812  12.242  11.236  11.555
99087W        W70813  13.823  20.320  11.542
99088W        W70814  24.698  21.089   4.936
99089W        W70815  36.212  11.124   3.656
99090W        W70816  18.095   2.720  12.505
99091W        W70817  37.730  25.705  10.934
99092W        W70818  38.458  14.114  10.544
99093W        W70819  39.591  30.461  14.217
99094W        W70820  31.343  43.535   1.003
99095W        W70821  20.474   4.843  14.311
99096W        W70822  14.380   1.563  14.902
99097W        W70823  23.232  35.813   3.340
99098W        W70824  26.038  35.646   0.678
99099W        W70825  17.268  10.568  11.565
99100W        W70826  27.436   6.819  13.361
99101W        W70827  19.997  22.491   1.378
99102W        W70828  13.069  11.422  12.995
99103W        W70829  18.980  28.478  13.911
99104W        W70830  30.096  17.299   0.059
99105W        W70831  28.006  41.882  12.963
99106W        W70832   8.002   4.825   2.761
99107W        W70833   8.144  18.975   3.254
99108W        W70834  33.381  44.092  13.063
99109W        W70835   1.231  22.227  10.765
99110W        W70836  25.487  36.889   0.531
99111W        W70837   9.815   5.344   0.449
99112W        W70838   2.213  29.416   1.886
99113W        W70839   8.318  16.712  10.744
99114W        W70840  10.940   0.620  12.039
99115W        W70841  10.599  38.347  12.490
99116W        W70842  19.593  23.026  11.632
99117W        W70843  27.221   7.778  10.751
99118W        W70844  42.712  25.680   4.680
99119W        W70845  24.468  15.567  14.409
99120W        W70846  22.073  26.237  10.674
99121W        W70847  35.145  12.191   2.165
99122W        W70848  25.526  14.005  11.945
99123W        W70849  43.417  39.999  12.240
99124W        W70850   0.694   2.262   3.654
99125W        W70851   0.503  23.197  12.169
99126W        W70852  40.145  14.556  10.745
99127W        W70853  42.770  18.694   5.120
99128W        W70854  24.712  24.625   1.191
99129W        W70855  11.874   6.345  14.966
99130W        W70856   1.118  25.387   0.975
99131W        W70857  19.643  30.015   2.380
99132W        W70858  10.687  29.980   4.122
99133W        W70859  15.235   4.537  14.923
99134W        W70860  42.868   5.754   0.731
99135W        W70861  17.967  41.819   2.237
99136W        W70862  22.468  28.008  11.963
99137W        W70863  16.170  32.350   2.460
99138W        W70864  36.438  16.134   3.202
99139W        W70865  44.461  29.163   4.193
99140W        W70866   1.658  29.848   1.134
99141W        W70867  31.634  30.446  13.901
99142W        W70868  18.605  31.668  14.626
99143W        W70869  20.244  30.553   3.795
99144W        W70870  24.245  21.086   1.868
99145W        W70871  13.545  24.176  11.413
99146W        W70872  27.107  15.199   4.434
99147W        W70873  17.565  44.950  13.530
99148W        W70874   4.160  37.098   4.284
99149W        W70875  14.345  11.482   4.498
99150W        W70876   3.981   6.951  14.790
99151W        W70877  33.100  35.468  13.794
99152W        W70878   2.843  42.760  11.100
99153W        W70879  42.311  27.869  10.794
99154W        W70880  16.353  40.645   5.465
99155W        W70881  27.403   6.734  11.538
99156W        W70882  41.493  38.116   2.956
99157W        W70883  10.169  12.780   3.090
99158W        W70884  20.803  33.811  14.202
99159W        W70885   1.959  31.511  14.484
99160W        W70886  32.965  19.468   2.892
99161W        W70887  29.553  35.811   2.616
99162W        W70888  25.445  30.032   0.255
99163W        W70889  15.229   8.809  12.506
99164W        W70890   8.698   2.172  14.814
99165W        W70891  31.577   7.841  13.241
99166W        W70892  34.373  17.311   0.285
99167W        W70893  43.133  40.156  13.365
99168W        W70894  20.318  28.163   3.767
99169W        W70895  23.995  30.131   1.264
99170W        W70896  42.743   3.635  12.066
99171W        W70897  38.403  21.364  10.721
99172W        W70898  23.479  42.778   1.253
99173W        W70899  26.966  19.053  11.493
99174W        W70900  40.275  28.670  12.633
99175W        W70901   4.334   9.283   4.263
99176W        W70902  19.815   8.271   4.828
99177W        W70903   1.255  38.918   3.715
99178W        W70904  20.053   9.284   3.439
99179W        W70905  12.167  12.877  13.098
99180W        W70906  21.095   4.903  11.146
99181W        W70907  44.534  10.784   4.002
99182W        W70908  20.089  27.429  13.596
99183W        W70909  31.461  23.651   1.216
99184W        W70910   9.764   1.902   2.994
99185W        W70911  15.302  44.293   3.717
99186W        W70912  11.804  26.295  12.254
99187W        W70913   7.406  44.411   2.363
99188W        W70914  11.318  36.841  13.574
99189W        W70915  12.153   6.384  14.373
99190W        W70916   1.924  10.599   1.386
99191W        W70917  19.521  10.702  14.750
99192W        W70918  19.578  32.889  13.447
99193W        W70919  18.052  33.440  11.055
99194W        W70920  34.045  35.288  12.480
99195W        W70921  28.187  30.948  11.412
99196W        W70922  11.080  21.546  12.989
99197W        W70923  11.270   4.238  12.949
99198W        W70924  22.485   6.219   5.153
99199W        W70925  10.579  23.170   1.823
99200W        W70926  15.067  44.001   1.133
99201W        W70927  35.834  33.068   3.618
99202W        W70928  37.974  38.877   0.992
99203W        W70929  37.479   6.427  12.106
99204W        W70930  34.336  40.591   2.502
99205W        W70931  13.710   3.015  13.349
99206W        W70932  12.410  36.643  11.125
99207W        W70933   6.374   8.632  12.898
99208W        W70934  36.449   3.260  13.936
99209W        W70935  38.301  30.938  12.551
99210W        W70936  33.018  13.671  11.616
99211W        W70937  17.689   6.195  12.730
99212W        W70938  35.177  15.673  10.643
99213W        W70939  25.277  27.412   1.952
99214W        W70940  41.249  19.032   1.962
99215W        W70941  28.024  24.240  11.509
99216W        W70942  26.458   2.702   0.396
99217W        W70943  18.077  14.896  11.622
99218W        W70944   7.262  15.690   4.146
99219W        W70945  12.832  11.756   3.541
99220W        W70946  34.099  22.095   4.192
99221W        W70947  22.253  12.157  13.380
99222W        W70948  14.748  18.259   4.726
99223W        W70949  22.278  33.083   1.182
99224W        W70950  38.416  12.802   0.037
99225W        W70951  27.512   3.932  10.663
99226W        W70952  37.338  34.671   0.848
99227W        W70953   9.715  18.616   3.729
99228W        W70954  18.496  28.637  12.965
99229W        W70955  36.535  29.075   2.861
99230W        W70956  41.474  29.357  11.558
99231W        W70957  35.937  35.047  11.001
99232W        W70958   1.735  13.188   1.716
99233W        W70959   9.153  39.247   3.743
99234W        W70960  35.360   8.799   3.704
99235W        W70961  11.132   7.777   1.401
99236W        W70962   6.633  32.884  12.252
99237W        W70963   6.312   0.724  13.153
99238W        W70964  31.407  28.154   0.993
99239W        W70965  16.382  43.560  11.217
99240W        W70966  26.507  12.154  10.675
99241W        W70967  24.652  28.827  14.452
99242W        W70968   3.131  39.826   4.156
99243W        W70969  44.533   0.119  11.201
99244W        W70970  26.216   6.971  10.572
99245W        W70971  41.012  25.459   0.370
99246W        W70972  26.803  37.749   3.821
99247W        W70973  34.432  12.780  12.104
99248W        W70974  13.664  10.767  14.546
99249W        W70975   4.410  38.768   4.878
99250W        W70976  34.436  18.583   0.922
99251W        W70977  32.884   1.450   3.734
99252W        W70978  42.356   2.713  14.157
99253W        W70979  42.480   4.647   3.323
99254W        W70980  10.441  13.009   3.681
99255W        W70981  44.680  44.993   4.101
99256W        W70982  15.345  23.441   1.611
99257W        W70983  27.289   9.827  14.487
99258W        W70984   4.925  15.904   4.517
99259W        W70985  44.220  12.850  13.337
99260W        W70986  23.773  34.557  13.290
99261W        W70987   1.868  43.861   2.477
99262W        W70988  31.977  21.493  10.059
99263W        W70989  24.765  19.570  12.958
99264W        W70990  29.555  39.491   2.859
99265W        W70991  19.710  18.398   2.643
99266W        W70992  40.035  26.235  12.270
99267W        W70993  15.021  33.542  11.592
99268W        W70994  36.890  20.296  14.400
99269W        W70995  23.654   9.980  12.893
99270W        W70996  42.049  27.999  13.583
99271W        W70997  35.897  33.865   2.464
99272W        W70998   2.670   2.392   2.178
99273W        W70999  14.637  30.600   3.648
99274W        W71000  35.980  15.262  10.697
99275W        W71001   0.370  18.147  13.258
99276W        W71002  35.743   2.297   1.867
99277W        W71003   4.253  22.223   1.298
99278W        W71004  33.002  44.226   2.641
99279W        W71005   0.940   0.352   4.230
99280W        W71006  22.261  23.622  13.453
99281W        W71007  10.721  44.985  11.470
99282W        W71008  40.070  23.695   4.541
99283W        W71009  17.337  32.944   2.167
99284W        W71010  37.062  35.035   2.940
99285W        W71011  25.962   1.772  13.101
99286W        W71012  14.758  31.177  14.494
99287W        W71013  31.834  12.546   4.290
99288W        W71014   1.336   0.411   3.670
99289W        W71015  12.095  24.440   4.531
99290W        W71016  34.471   1.522  13.078
99291W        W71017  24.267   2.894   1.321
99292W        W71018  14.208  14.051  12.489
99293W        W71019  13.129  13.339  14.257
99294W        W71020   3.465  16.248  14.469
99295W        W71021   0.790  35.968   1.530
99296W        W71022   0.504  20.206  14.391
99297W        W71023  24.653  39.259   3.680
99298W        W71024  43.493  11.804  12.477
99299W        W71025  14.296  41.523  13.714
99300W        W71026  38.837  16.189  10.838
99301W        W71027  30.487   2.824  14.881
99302W        W71028  14.634   1.413   2.267
99303W        W71029  19.561  20.160  11.488
99304W        W71030  14.357   0.345   4.243
99305W        W71031  28.156  28.644   0.257
99306W        W71032   0.195  17.104   0.714
99307W        W71033  22.566  24.888   4.265
99308W        W71034  28.112  18.543   0.279
99309W        W71035  28.229   3.889  14.237
99310W        W71036  34.396   6.824  11.129
99311W        W71037  44.817  10.405   3.356
99312W        W71038  30.967  30.188  10.953
99313W        W71039  28.646  43.862   0.418
99314W        W71040  34.899  41.609   4.662
99315W        W71041  36.944  41.121  12.459
99316W        W71042   7.439  19.810  12.757
99317W        W71043  13.243  15.827  13.264
99318W        W71044  30.167   7.886  12.373
99319W        W71045  23.287  31.337   2.410
99320W        W71046  38.575  22.130   1.464
99321W        W71047  14.786  24.551   1.994
99322W        W71048  34.473  39.843  14.293
99323W        W71049  13.697  13.366  13.501
99324W        W71050  33.588  43.748   2.204
99325W        W71051  25.873  19.081   2.702
99326W        W71052  24.893  36.974   4.307
99327W        W71053   7.131  29.899   1.734
99328W        W71054   2.740   3.746  13.480
99329W        W71055  22.511  35.551  13.901
99330W        W71056  42.772  23.016  14.123
99331W        W71057  12.729   2.896   1.884
99332W        W71058   1.846  35.355   2.302
99333W        W71059  24.056  35.116   4.711
99334W        W71060  18.719  15.853  11.376
99335W        W71061   1.431   6.400   3.287
99336W        W71062  28.610  39.532  14.783
99337W        W71063  41.196   4.506  13.573
99338W        W71064  14.382   4.799  12.421
99339W        W71065  43.374  31.817  14.253
99340W        W71066  32.669  10.308   2.959
99341W        W71067  44.795  44.293   4.612
99342W        W71068  31.764  37.585   0.472
99343W        W71069  30.513  20.658  11.594
99344W        W71070  39.981   8.384  12.948
99345W        W71071  44.024   5.289  12.064
99346W        W71072   1.794  18.625  14.335
99347W        W71073   1.713  20.167  13.002
99348W        W71074  32.987  28.536  12.894
99349W        W71075   1.779  11.668  12.549
99350W        W71076  42.903  42.331  11.447
99351W        W71077   1.737  13.576   1.208
99352W        W71078  37.045   4.804   4.255
99353W        W71079   7.167  21.706  14.965
99354W        W71080  24.238  24.627   0.959
99355W        W71081  15.798  15.777   9.980
99356W        W71082  23.205   6.847   1.257
99357W        W71083  27.703  11.640   3.652
99358W        W71084  12.141  39.306   3.547
99359W        W71085  35.095  18.195   3.826
99360W        W71086  18.982  32.531  11.024
99361W        W71087  16.588   1.732   3.647
99362W        W71088  21.275  36.105  13.431
99363W        W71089  37.157  27.471  14.836
99364W        W71090   4.474  18.250  12.037
99365W        W71091  21.775  37.359   1.702
99366W        W71092  33.052  10.974   2.410
99367W        W71093  30.672  14.754  14.403
99368W        W71094  18.490  31.849   2.253
99369W        W71095  17.605  44.763   3.337
99370W        W71096  37.072  36.364   2.434
99371W        W71097   0.288  35.102  12.009
99372W        W71098   4.176  42.275  13.735
99373W        W71099  43.042  44.615   4.395
99374W        W71100  32.650  26.625  14.934
99375W        W71101  37.286  27.188  11.440
99376W        W71102  28.941  38.096  13.441
99377W        W71103  33.469  13.585   3.195
99378W        W71104   6.375  42.971   4.723
99379W        W71105  35.382  41.438  13.875
99380W        W71106  10.393  31.960   1.968
99381W        W71107  29.263  29.488   1.755
99382W        W71108  19.290  41.458   4.671
99383W        W71109  33.586  42.178  14.402
99384W        W71110   0.777  20.786  10.243
99385W        W71111  35.592  11.776   3.704
99386W        W71112  12.198  26.737  11.138
99387W        W71113  30.642   8.014   4.184
99388W        W71114  25.268  27.589  14.496
99389W        W71115  28.950  26.116  10.336
99390W        W71116  24.887   4.595   2.762
99391W        W71117   0.763  19.249  14.724
99392W        W71118  15.318   2.220  11.516
99393W        W71119   7.657   6.382   1.818
99394W        W71120  34.993  44.743  11.065
99395W        W71121  16.469   2.552   2.747
99396W        W71122  38.794   2.490  12.128
99397W        W71123  36.923  10.896   0.999
99398W        W71124  11.894  43.990  13.900
99399W        W71125  16.318   6.237  12.541
99400W        W71126  15.292  19.068   1.620
99401W        W71127  29.129  18.803   1.656
99402W        W71128  11.744  36.090  11.283
99403W        W71129  15.203   8.876   0.786
99404W        W71130  20.711  40.509   2.744
99405W        W71131  36.858   6.883  14.957
99406W        W71132  16.047  40.211   5.386
99407W        W71133  35.126  20.091   1.658
99408W        W71134  17.385   0.808  12.138
99409W        W71135  15.741  32.827  13.325
99410W        W71136  23.704  19.741   2.855
99411W        W71137  36.026  12.727   1.275
99412W        W71138  22.137   0.597   3.114
99413W        W71139   0.866  41.716   4.981
99414W        W71140  43.646   5.332  11.458
99415W        W71141   4.903  26.948   1.395
99416W        W71142   7.836  14.097   1.707
99417W        W71143  26.230   1.908  13.520
99418W        W71144   8.577  31.072  12.148
99419W        W71145  20.117  25.554   3.391
99420W        W71146   0.203  33.226   3.249
99421W        W71147  10.148  19.508   3.812
99422W        W71148  40.929  28.012  10.686
99423W        W71149  40.959  13.740  10.880
99424W        W71150  27.991   6.392   2.647
99425W        W71151   6.949   1.801   2.072
99426W        W71152  27.962  27.624   2.814
99427W        W71153  16.251  29.205   2.141
99428W        W71154  41.228  11.238   1.214
99429W        W71155  27.501  43.331  10.837
99430W        W71156  32.495  25.328   4.763
99431W        W71157   0.305   7.712   4.694
99432W        W71158   8.302   5.986   4.992
99433W        W71159   5.840  21.497  14.409
99434W        W71160  28.744  36.567   4.194
99435W        W71161  25.242  38.467  14.801
99436W        W71162  17.447  18.163   9.836
99437W        W71163  36.940  19.801   2.329
99438W        W71164  40.036  18.695   0.259
99439W        W71165  18.991   3.701  13.217
99440W        W71166  34.833  35.839   0.260
99441W        W71167  20.564  41.435   3.867
99442W        W71168   3.946  39.107   0.597
99443W        W71169  38.049   7.239  14.479
99444W        W71170  30.983  17.185  10.684
99445W        W71171  11.331  42.980   0.212
99446W        W71172   5.714  25.260  12.908
99447W        W71173  19.591  17.253  13.702
99448W        W71174  32.285  21.717  12.117
99449W        W71175  30.094   0.947  12.426
99450W        W71176  12.415  32.016   0.826
99451W        W71177  25.532  34.645   1.142
99452W        W71178  15.717  31.092  11.519
99453W        W71179  12.130  24.505  12.237
99454W        W71180   1.797  16.009  11.946
99455W        W71181  26.259  43.745   1.230
99456W        W71182  33.413  15.043  13.049
99457W        W71183  29.687  10.389  11.668
99458W        W71184   7.375  33.303  12.961
99459W        W71185  17.192  17.202   2.300
99460W        W71186  30.918  40.980  11.713
99461W        W71187   1.765  20.523  14.941
99462W        W71188  30.873  20.469   4.794
99463W        W71189  35.985  19.602   2.275
99464W        W71190  32.652  19.907  14.396
99465W        W71191  10.196   5.635  11.166
99466W        W71192  37.433   7.384  12.934
99467W        W71193  35.451  41.491   1.330
99468W        W71194  38.889  35.979   4.676
99469W        W71195   7.860  32.436  12.285
99470W        W71196  30.644  41.806  12.283
99471W        W71197  38.564  20.407  11.880
99472W        W71198  43.672   4.673  14.410
99473W        W71199   4.933  28.064  10.668
99474W        W71200   2.028   3.845  14.680
99475W        W71201  38.787  17.655   2.362
99476W        W71202  36.537   0.799   0.266
99477W        W71203   9.632  27.654  11.102
99478W        W71204  21.044  36.956   3.928
99479W        W71205   9.679  37.158   4.249
99480W        W71206  23.790   3.755  13.735
99481W        W71207  42.457  12.111   3.927
99482W        W71208  28.699  33.569   2.825
99483W        W71209   1.184  26.516   4.197
99484W        W71210  40.464  27.941  14.763
99485W        W71211  17.930  31.170   4.158
99486W        W71212  39.938   2.772  14.810
99487W        W71213  39.553  17.375   4.161
99488W        W71214  13.799   6.681  12.136
99489W        W71215   7.676   3.273  14.782
99490W        W71216  18.712   5.733  14.139
99491W        W71217  12.692  23.130   4.974
99492W        W71218   7.924  35.357  14.447
99493W        W71219  19.673  40.852  14.962
99494W        W71220  43.008  38.796  10.316
99495W        W71221  29.669  41.004  14.008
99496W        W71222  12.227   0.220  10.746
99497W        W71223   3.743  41.412  13.781
99498W        W71224  33.717  40.866  14.029
99499W        W71225  13.240  20.885  14.828
99500W        W71226   0.888  26.098   2.383
99501W        W71227   8.141  37.433  13.878
99502W        W71228  36.753   8.092   3.283
99503W        W71229   0.059   0.455   2.925
99504W        W71230  30.932  42.492  12.301
99505W        W71231  27.908   6.820  10.192
99506W        W71232   7.831  21.440   4.126
99507W        W71233   0.565  39.858   1.217
99508W        W71234  38.370   3.544  12.112
99509W        W71235   1.972   5.843   4.517
99510W        W71236  35.170  29.891   1.828
99511W        W71237   3.753  23.901  10.669
99512W        W71238   2.546  41.580  14.236
99513W        W71239   9.665  40.690  11.174
99514W        W71240   0.298  27.577   4.432
99515W        W71241  25.254   0.005  14.767
99516W        W71242  37.502  39.397  13.528
99517W        W71243   2.301  29.458  14.889
99518W        W71244  12.656  33.134  11.646
99519W        W71245   1.979  27.043  11.786
99520W        W71246  18.685  24.047  12.030
99521W        W71247  33.497  15.418  13.398
99522W        W71248  27.997  27.751   3.629
99523W        W71249  29.249   3.763  13.383
99524W        W71250  13.811   0.818   3.713
99525W        W71251  21.515  10.061  13.276
99526W        W71252  26.190  21.821   0.400
99527W        W71253   0.923  23.939   2.876
99528W        W71254  13.520   4.744  13.222
99529W        W71255  35.851   3.805  13.529
99530W        W71256  43.439  16.260  12.702
99531W        W71257   2.677   2.386  13.552
99532W        W71258  42.044   9.574   2.285
99533W        W71259  31.455  39.050   1.713
99534W        W71260  40.085  14.787   2.761
99535W        W71261   6.310  25.511  10.693
99536W        W71262  30.030   5.303   3.680
99537W        W71263   3.781  30.059   2.686
99538W        W71264  18.077  10.034  10.600
99539W        W71265   9.810  21.121  10.658
99540W        W71266  24.537  31.110  12.959
99541W        W71267  24.500  13.170   4.219
99542W        W71268  28.580   7.404  11.932
99543W        W71269  24.108   2.287   4.826
99544W        W71270  36.437   3.986  11.616
99545W        W71271  29.010  42.975   0.265
99546W        W71272  44.294  43.079  12.563
99547W        W71273  10.195  24.630   0.004
99548W        W71274  40.822  38.525   0.960
99549W        W71275  33.726  22.988  12.897
99550W        W71276  25.122  37.839  10.897
99551W        W71277  25.085   4.273   3.259
99552W        W71278  40.195  24.375  12.958
99553W        W71279  22.076  10.821   4.216
99554W        W71280  43.283   3.789  11.478
99555W        W71281   2.378  10.884   4.793
99556W        W71282  21.947  26.770  10.505
99557W        W71283   9.254  25.256   4.584
99558W        W71284  40.875   6.256   4.299
99559W        W71285  29.518  19.262  12.853
99560W        W71286  31.606  23.250   3.109
99561W        W71287  25.153   1.128   0.243
99562W        W71288  18.948  14.221  14.322
99563W        W71289  13.750  31.586  12.503
99564W        W71290  34.959  28.688  10.529
99565W        W71291   5.848  25.571  11.585
99566W        W71292   0.372  25.932  10.608
99567W        W71293   6.163   2.994  13.390
99568W        W71294  22.509  34.055   2.760
99569W        W71295  41.590  23.840  14.368
99570W        W71296  20.701  18.304  14.405
99571W        W71297  13.693  14.062   1.560
99572W        W71298   7.168  21.991  13.746
99573W        W71299  42.047  22.944  12.107
99574W        W71300   4.757  41.053   3.408
99575W        W71301   4.261  43.693   3.654
99576W        W71302  18.244  26.222  14.310
99577W        W71303  30.243  14.895   1.865
99578W        W71304  41.520  28.442   0.486
99579W        W71305  14.789  21.916  11.919
99580W        W71306  42.046  13.076  13.074
99581W        W71307  43.932  33.039   2.838
99582W        W71308  25.017  39.506  13.964
99583W        W71309  19.718  21.204  13.341
99584W        W71310   5.496  37.968  10.886
99585W        W71311  40.972   9.807   1.655
99586W        W71312  20.005  35.672   2.382
99587W        W71313  21.197  41.504   2.836
99588W        W71314   1.405  11.191   2.923
99589W        W71315  35.335  26.454  14.766
99590W        W71316   8.904  18.214   3.219
99591W        W71317   9.769  40.082  11.569
99592W        W71318   5.437  36.836   1.827
99593W        W71319  37.388  14.264   2.321
99594W        W71320   3.978  39.338  14.540
99595W        W71321  11.025   5.631   3.774
99596W        W71322  40.724  43.761   0.403
99597W        W71323   4.669   1.712  14.987
99598W        W71324  19.293   1.391  14.519
99599W        W71325  31.532  15.870   0.712
99600W        W71326  35.817  10.073  12.430
99601W        W71327  32.058  15.087  14.536
99602W        W71328  10.294  21.659  11.349
99603W        W71329  14.316   0.817  12.911
99604W        W71330  14.278  39.004  12.860
99605W        W71331  22.744  21.669  14.056
99606W        W71332  41.580   9.920  14.513
99607W        W71333   3.356  10.409  10.837
99608W        W71334   1.832   3.917   1.697
99609W        W71335  32.909  27.673   3.879
99610W        W71336  18.520  34.079  10.582
99611W        W71337  23.945   4.609   4.990
99612W        W71338  21.674   4.355  11.384
99613W        W71339  17.040  35.080  14.036
99614W        W71340  42.764  11.264  14.521
99615W        W71341   8.947   5.802  12.342
99616W        W71342  13.204  41.844   3.171
99617W        W71343  11.217   4.022   1.419
99618W        W71344   1.960  38.980  11.556
99619W        W71345  33.513  13.068  10.687
99620W        W71346  21.623  34.884   4.126
99621W        W71347   7.132  19.534   1.557
99622W        W71348  18.597   4.008  13.101
99623W        W71349  37.570  40.488   0.164
99624W        W71350  15.584  33.069   4.243
99625W        W71351  28.983  20.035  14.582
99626W        W71352  13.489  22.012   3.220
99627W        W71353  27.924  15.563  10.123
99628W        W71354   0.002  29.170  13.413
99629W        W71355  43.222  11.356  12.551
99630W        W71356  16.297  36.163   3.721
99631W        W71357  26.927  38.870  12.606
99632W        W71358  16.749  14.125  12.469
99633W        W71359   2.539  38.448   2.148
99634W        W71360  29.178   6.447  14.269
99635W        W71361   4.908  44.430   3.693
99636W        W71362  41.406  39.091  13.548
99637W        W71363  34.346  25.191   2.469
99638W        W71364  38.116  30.079   3.393
99639W        W71365  26.442  36.340  11.136
99640W        W71366   8.907  29.701   0.859
99641W        W71367  34.979  32.200   1.470
99642W        W71368  39.903  21.562  13.085
99643W        W71369  24.987  38.475   4.016
99644W        W71370   6.253  29.663   1.371
99645W        W71371  38.625   0.353  10.639
99646W        W71372   1.635  25.610  14.776
99647W        W71373   9.670  23.469   0.338
99648W        W71374  38.471   8.010  11.473
99649W        W71375  16.513  31.557  12.859
99650W        W71376   2.309  38.400  12.879
99651W        W71377  32.244  31.362  12.112
99652W        W71378  22.844   4.298  13.996
99653W        W71379   2.835  32.851   1.388
99654W        W71380   8.124  35.357   1.384
99655W        W71381  40.338   6.711   1.537
99656W        W71382   0.565  19.541  10.639
99657W        W71383   4.621   4.318   2.756
99658W        W71384  11.339  19.661   2.658
99659W        W71385  18.713  30.529  12.451
99660W        W71386  23.052  42.326   3.928
99661W        W71387  36.856  12.691   3.585
99662W        W71388  32.697  29.253   4.187
99663W        W71389  41.676  10.613  11.014
99664W        W71390  22.059  11.305   3.316
99665W        W71391  12.872   6.709   0.751
99666W        W71392  24.155  32.573  14.811
99667W        W71393  25.179  31.321  11.189
99668W        W71394  32.299   7.913   1.525
99669W        W71395  38.480  41.123  11.591
99670W        W71396  43.409  21.732   4.611
99671W        W71397  39.544  40.113   2.306
99672W        W71398   6.854  18.080   2.237
99673W        W71399  24.472  26.620   1.304
99674W        W71400  17.471   0.143   3.655
99675W        W71401  24.877  10.624  12.696
99676W        W71402  18.734  44.985  14.001
99677W        W71403  25.777  20.006   3.284
99678W        W71404  39.961  20.760   2.565
99679W        W71405  21.773  12.910   4.218
99680W        W71406  14.535  28.027   0.865
99681W        W71407   6.496  30.478   5.032
99682W        W71408  37.003  27.195  13.107
99683W        W71409  36.060  23.784   2.246
99684W        W71410  10.809   4.883   1.417
99685W        W71411  14.482  28.361   5.097
99686W        W71412  29.707  19.849   0.130
99687W        W71413  39.902  33.192  14.112
99688W        W71414  18.232   8.741   1.737
99689W        W71415  33.178   5.335   4.810
99690W        W71416   3.750  25.570  14.037
99691W        W71417  21.737   7.915   2.206
99692W        W71418  31.852  26.105   3.698
99693W        W71419  16.925  40.792  10.355
99694W        W71420   6.301   4.303  14.359
99695W        W71421  19.537  40.556  14.440
99696W        W71422  37.390  27.019   1.894
99697W        W71423  18.202  39.853  12.852
99698W        W71424  38.493  11.767   0.323
99699W        W71425   9.857  39.336  11.214
99700W        W71426  13.417  12.671  11.594
99701W        W71427  12.178   1.220   3.296
99702W        W71428  36.207  29.234  10.372
99703W        W71429   7.347  26.436   2.768
99704W        W71430   9.128   2.573  13.323
99705W        W71431  15.718  40.616   5.428
99706W        W71432  14.152  36.587   5.093
99707W        W71433  32.510  29.720   4.051
99708W        W71434  38.666  33.487  12.747
99709W        W71435  15.898  21.779   1.012
99710W        W71436   3.474  23.501  10.495
99711W        W71437  42.543   0.835   4.178
99712W        W71438  24.934  26.151   1.381
99713W        W71439   1.704  31.928   2.829
99714W        W71440  32.108  31.073   2.370
99715W        W71441  26.569  15.748  13.909
99716W        W71442  13.130  23.807  13.506
99717W        W71443   0.335   0.972   2.290
99718W        W71444  28.710  17.496  11.981
99719W        W71445  28.639  20.002   4.578
99720W        W71446  42.861   9.086   5.068
99721W        W71447  40.838  40.382   1.967
99722W        W71448   5.106  33.185   4.830
99723W        W71449  20.615   5.262   4.538
99724W        W71450  22.212  34.518   3.215
99725W        W71451  32.507   3.443  13.004
99726W        W71452  41.312  39.610  11.841
99727W        W71453  43.090  35.488   2.896
99728W        W71454  12.696  35.939   0.145
99729W        W71455  44.537  16.606  12.969
99730W        W71456  11.191   9.276   2.668
99731W        W71457  28.047   3.255  10.747
99732W        W71458  16.128  32.367  13.051
99733W        W71459  35.475  29.457  13.279
99734W        W71460  14.251  28.697  12.029
99735W        W71461  36.381  20.275   2.889
99736W        W71462  29.294  17.607  10.650
99737W        W71463  34.942  25.892   4.105
99738W        W71464  39.428  10.097   0.089
99739W        W71465  16.631  42.302  10.954
99740W        W71466  17.911  10.508  10.437
99741W        W71467  21.670   8.738  14.774
99742W        W71468   9.235  26.873   3.655
99743W        W71469  16.554   7.917   2.297
99744W        W71470  12.597  32.599   4.568
99745W        W71471   9.348  24.934   3.603
99746W        W71472  42.496  41.691   0.556
99747W        W71473  26.818  19.174   4.510
99748W        W71474  40.554  32.034  10.494
99749W        W71475  39.849  25.528   2.801
99750W        W71476  12.760  10.816  13.534
99751W        W71477  15.019  38.542  13.919
99752W        W71478  16.868  28.424   2.895
99753W        W71479   3.276  39.503  10.560
99754W        W71480  22.501  10.991  13.722
99755W        W71481   2.580  14.344  10.000
99756W        W71482   3.059  39.130  14.063
99757W        W71483  12.108  16.626   1.704
99758W        W71484   2.973  20.431  10.772
99759W        W71485  18.697  27.887  10.140
99760W        W71486  17.291  34.303   2.727
99761W        W71487   6.508  20.128   2.357
99762W        W71488  20.111  38.590  10.689
99763W        W71489   8.678  29.471   3.390
99764W        W71490  41.773  34.458  14.322
99765W        W71491  29.182  32.952  13.026
99766W        W71492  44.947   2.972  11.843
99767W        W71493  27.424  10.463   0.223
99768W        W71494  14.277  38.991   0.187
99769W        W71495  38.315  12.103   2.378
99770W        W71496  10.402  34.543  12.323
99771W        W71497  27.346  10.303   0.811
99772W        W71498  40.720   4.767   3.653
99773W        W71499  33.525  33.699  12.119
99774W        W71500   5.521  15.516  10.216
99775W        W71501   3.003  16.181  11.431
99776W        W71502  11.889  31.558   2.824
99777W        W71503   5.372  12.517  12.419
99778W        W71504  37.683  12.271   4.122
99779W        W71505  30.992  37.945   3.314
99780W        W71506   0.858  40.773   1.728
99781W        W71507  41.392  17.310   2.318
99782W        W71508  38.495  42.637   4.182
99783W        W71509  22.005  38.834  12.566
99784W        W71510  38.092  18.558  13.917
99785W        W71511  24.815   5.148  14.274
99786W        W71512   7.609   0.785  13.312
99787W        W71513  26.585   2.971  11.621
99788W        W71514   4.120  44.686  14.024
99789W        W71515  43.419  28.270  12.421
99790W        W71516  28.192  10.329  14.509
99791W        W71517  28.428  41.720   4.269
99792W        W71518  19.108   3.247   4.658
99793W        W71519  31.336  24.101  12.337
99794W        W71520   6.201  23.807   1.166
99795W        W71521  34.858   8.375   2.383
99796W        W71522  41.038  27.027   4.132
99797W        W71523  16.182  28.022  12.949
99798W        W71524  41.618  25.903   3.273
99799W        W71525  39.736   8.887  12.086
99800W        W71526   4.622   8.777  10.249
99801W        W71527  40.811   8.788  11.828
99802W        W71528  42.999   9.236   3.476
99803W        W71529  43.449  18.546   2.452
99804W        W71530   6.057  32.147   4.519
99805W        W71531  18.624  10.884   2.093
99806W        W71532   3.171  17.872  13.055
99807W        W71533   2.792   7.710  13.871
99808W        W71534  20.247   5.328   0.272
99809W        W71535  33.581  30.619  11.178
99810W        W71536  28.144  24.590  12.528
99811W        W71537  37.886  31.624   0.379
99812W        W71538  12.805  43.767   2.454
99813W        W71539  27.454  15.903   4.120
99814W        W71540  24.326  37.907  13.807
99815W        W71541  43.213  20.894   3.225
99816W        W71542  15.740  36.759   5.441
99817W        W71543  17.797  12.138   1.775
99818W        W71544  43.714   1.837  11.052
99819W        W71545  37.873  21.510   2.845
99820W        W71546   6.064  15.400   2.642
99821W        W71547  23.942  28.407   4.271
99822W        W71548  31.559  42.838   2.730
99823W        W71549  11.763   2.028   4.133
99824W        W71550  14.724  18.484  14.407
99825W        W71551  20.025  20.553   2.854
99826W        W71552  42.464  35.185   1.339
99827W        W71553  23.707  11.642  13.252
99828W        W71554  24.455   8.089  10.820
99829W        W71555  27.102  13.305   2.209
99830W        W71556  38.125  25.456   3.920
99831W        W71557   7.903  25.117  12.055
99832W        W71558   5.642  19.215  13.955
99833W        W71559  37.624  12.782  11.753
99834W        W71560  31.360  21.537  13.908
99835W        W71561   3.636   6.149   2.793
99836W        W71562   9.369   8.251   4.770
99837W        W71563   9.393   4.297   2.297
99838W        W71564  17.766  25.987   4.591
99839W        W71565  16.664  44.279  13.458
99840W        W71566  14.209  19.298  14.456
99841W        W71567   9.202  28.463   0.867
99842W        W71568  42.097  11.979  12.860
99843W        W71569  30.527  34.543   3.376
99844W        W71570   9.826  14.855   2.215
99845W        W71571  24.612  16.102  11.734
99846W        W71572  27.702   8.642  13.247
99847W        W71573  37.082  32.968   2.686
99848W        W71574  12.286   0.006  12.547
99849W        W71575  30.998  44.984  13.682
99850W        W71576   8.887  33.851  11.562
99851W        W71577   7.423  13.583   2.356
99852W        W71578  14.380  38.499   1.377
99853W        W71579  43.789  20.765  14.836
99854W        W71580  19.763   9.569   3.039
99855W        W71581  18.696  36.405  11.650
99856W        W71582  41.175  30.175  13.924
99857W        W71583  42.969  24.710  10.798
99858W        W71584  14.154  21.565   1.864
99859W        W71585   9.131  43.471  10.701
99860W        W71586   7.231  40.312   3.202
99861W        W71587  21.024  36.378   0.288
99862W        W71588  14.775  44.506   2.852
99863W        W71589  24.134  39.447  12.110
99864W        W71590  35.558  38.358  11.261
99865W        W71591  42.918  18.840   1.926
99866W        W71592   0.191  29.648   2.756
99867W        W71593  17.819  11.862   0.449
99868W        W71594  27.964  25.609   2.456
99869W        W71595  17.662  29.593  12.414
99870W        W71596  27.092   1.776  12.559
99871W        W71597  26.488  16.195  12.269
99872W        W71598  18.740  19.956  12.493
99873W        W71599   7.733   1.066   2.682
99874W        W71600   1.758  43.041   2.627
99875W        W71601  43.319  25.601   3.717
99876W        W71602  28.080  37.466  12.403
99877W        W71603  35.563  23.055  11.523
99878W        W71604   0.473  38.051   0.654
99879W        W71605   8.681  26.161   1.591
99880W        W71606   0.652   3.404  11.110
99881W        W71607  38.382  42.060  13.022
99882W        W71608  11.139  20.631   0.904
99883W        W71609   7.805  29.233   2.850
99884W        W71610  25.728  39.288  12.034
99885W        W71611  40.691  24.618  12.166
99886W        W71612  15.652  44.032  12.647
99887W        W71613  20.217  23.151  12.587
99888W        W71614  34.647  11.230  11.216
99889W        W71615  40.175  34.134  12.902
99890W        W71616  23.224   1.015   4.911
99891W        W71617  30.704  40.752   0.848
99892W        W71618   3.863  20.171   2.239
99893W        W71619  24.679  35.053   1.271
99894W        W71620  33.043  17.773   0.487
99895W        W71621  35.409  43.278  10.426
99896W        W71622   4.834  22.001  10.406
99897W        W71623  36.380  15.640   3.272
99898W        W71624  33.792   6.116   1.346
99899W        W71625   3.249  13.814  11.210
99900W        W71626  18.845  28.148   4.114
99901W        W71627  32.723  19.226   0.739
99902W        W71628  35.535  39.618   4.323
99903W        W71629  14.013  23.968  11.702
99904W        W71630   7.266  32.411  11.970
99905W        W71631  27.220  36.568   2.600
99906W        W71632  33.397   0.167   4.895
99907W        W71633  19.307  22.464   0.009
99908W        W71634   3.521   9.641  12.390
99909W        W71635  43.914  33.355   0.746
99910W        W71636  33.464  38.059  11.705
99911W        W71637  18.537  29.011  13.386
99912W        W71638  27.684  26.124   2.401
99913W        W71639  38.428  43.866   3.003
99914W        W71640  20.433  17.707  13.508
99915W        W71641  26.087  10.093   3.323
99916W        W71642   2.956  21.128  13.546
99917W        W71643  23.050   7.051   0.408
99918W        W71644  34.109   1.893   4.609
99919W        W71645  20.057  18.899  14.561
99920W        W71646  17.622  27.948   3.274
99921W        W71647  29.001  43.040  10.639
99922W        W71648  41.510  18.167   2.248
99923W        W71649  42.208  31.706   4.295
99924W        W71650  17.338  14.758   1.849
99925W        W71651   7.135  18.327   0.320
99926W        W71652  17.332  44.206  11.096
99927W        W71653  37.330  23.624   2.248
99928W        W71654  28.097   7.316  11.671
99929W        W71655  17.718  37.924   4.779
99930W        W71656  29.564  14.560  14.805
99931W        W71657   5.991  15.182   4.228
99932W        W71658   3.284   9.949  12.024
99933W        W71659  42.765  14.815  11.630
99934W        W71660  43.516   3.434  11.183
99935W        W71661  36.077   1.173  11.111
99936W        W71662  33.360  13.635  14.806
99937W        W71663   0.655  32.820  14.796
99938W        W71664  13.184  12.811  14.230
99939W        W71665  33.827   6.278  14.438
99940W        W71666   5.143  16.756   3.269
99941W        W71667  39.858  39.267   4.003
99942W        W71668  22.084  21.115  14.292
99943W        W71669  40.350  13.081   1.735
99944W        W71670  37.974   2.742   1.706
99945W        W71671  37.853  16.551   4.024
99946W        W71672   5.263  15.600  12.919
99947W        W71673  36.196   4.721   2.310
99948W        W71674  12.060  15.096   0.030
99949W        W71675  34.220  39.946  13.005
99950W        W71676  34.794  10.472  11.845
99951W        W71677  34.668  15.665   2.665
99952W        W71678  31.549  39.476  11.153
99953W        W71679  38.109  16.143  13.798
99954W        W71680  40.317   9.323  10.575
99955W        W71681  21.069  14.432  11.008
99956W        W71682   5.641  42.489   4.505
99957W        W71683  38.339  27.418   0.325
99958W        W71684  22.909  43.393  14.012
99959W        W71685  25.994  28.032   2.981
99960W        W71686  44.090  20.037  12.089
99961W        W71687   9.710  16.200   0.057
99962W        W71688   4.545  31.466   1.361
99963W        W71689   0.970  37.507  11.720
99964W        W71690   7.869   8.123   2.482
99965W        W71691  40.561  17.779  11.201
99966W        W71692  31.200  22.693  14.364
99967W        W71693  40.514  13.849  12.126
99968W        W71694  11.146  12.643  14.512
99969W        W71695  30.169  25.145  14.351
99970W        W71696  25.933   5.793  13.693
99971W        W71697  24.880  37.470   0.718
99972W        W71698   3.253  28.952  12.888
99973W        W71699  32.159  19.923   2.561
99974W        W71700   0.890  16.448  12.933
99975W        W71701   7.637  29.065  10.694
99976W        W71702  32.985   6.473   3.773
99977W        W71703  33.324  10.602  11.140
99978W        W71704  30.681  32.525   2.374
99979W        W71705   7.734  36.676  14.858
99980W        W71706  16.276   9.845  13.489
99981W        W71707  13.641  12.763   1.464
99982W        W71708  23.226   4.426   3.599
99983W        W71709  12.745  31.602   3.661
99984W        W71710  34.810  12.002   4.194
99985W        W71711  33.477   8.415   1.222
99986W        W71712  26.898  10.551   0.787
99987W        W71713   3.688  37.872   1.805
99988W        W71714  12.796  26.623   0.156
99989W        W71715  10.140  39.855   2.449
99990W        W71716  14.852  39.507  13.474
99991W        W71717  25.709  23.101  12.648
99992W        W71718  33.616  38.319   1.423
99993W        W71719  17.274   3.877  14.292
99994W        W71720   1.108  14.190   4.597
99995W        W71721  38.380  15.295   2.372
99996W        W71722  33.568   4.923   4.175
99997W        W71723   5.704  13.610   0.197
99998W        W71724  31.357  25.972  14.052
99999W        W71725  17.830   3.397  14.790
    0W        W71726  10.590  20.503  13.618
    1W        W71727  15.629  43.717   3.303
    2W        W71728  31.181  29.861  11.330
    3W        W71729  20.684  43.273  14.725
    4W        W71730  11.792   2.423   1.791
    5W        W71731   1.949  29.656   0.468
    6W        W71732  11.369   6.321  14.920
    7W        W71733   0.379  34.276   2.318
    8W        W71734  13.817  30.062  13.970
    9W        W71735  21.799   2.374   3.609
   10W        W71736  10.904  21.264  14.848
   11W        W71737  39.166  39.761  12.412
   12W        W71738  15.812   1.731   4.175
   13W        W71739  40.686  30.730  11.039
   14W        W71740  37.393  37.870   1.107
   15W        W71741   5.997  34.950   0.680
   16W        W71742  43.695  22.301   4.678
   17W        W71743  22.629   7.819  12.093
   18W        W71744  33.895  32.163   2.737
   19W        W71745  40.793  23.695  13.964
   20W        W71746  19.604  10.597   3.095
   21W        W71747  14.777  23.055   3.366
   22W        W71748  37.248  29.595   1.272
   23W        W71749  38.521  19.052   1.595
   24W        W71750  35.108  27.061  13.424
   25W        W71751  39.352   6.244  10.746
   26W        W71752  25.477  27.585   1.364
   27W        W71753   4.441  17.612   2.386
   28W        W71754  24.167  44.893  12.070
   29W        W71755  26.965  23.786  13.924
   30W        W71756  41.720   8.790   1.220
   31W        W71757  12.855  34.778   2.718
   32W        W71758   7.916  32.628  14.821
   33W        W71759  42.352   6.258   3.283
   34W        W71760  18.205  30.925  14.511
   35W        W71761  42.726  23.770   0.842
   36W        W71762  26.979  23.288  14.084
   37W        W71763  43.875  20.090  11.620
   38W        W71764  10.089  28.416   1.713
   39W        W71765  37.878  32.999  11.423
   40W        W71766  36.926  17.892   3.040
   41W        W71767  14.600   0.795  11.574
   42W        W71768   9.539  37.702  14.773
   43W        W71769  40.824  43.707  13.316
   44W        W71770   5.863  18.727   2.204
   45W        W71771   3.079  37.582   1.284
   46W        W71772  24.435   1.016   4.449
   47W        W71773  31.594  10.716   3.748
   48W        W71774  27.124  18.854  12.574
   49W        W71775  28.215  23.062  13.065
   50W        W71776  14.146   8.458  11.647
   51W        W71777  31.056  36.882  11.517
   52W        W71778  14.698  14.563   0.481
   53W        W71779  23.184  16.929  12.274
   54W        W71780  32.048  21.186   1.893
   55W        W71781  37.858   5.463   0.914
   56W        W71782  25.229  30.613   3.710
   57W        W71783  43.799   5.039   1.933
   58W        W71784  43.835  35.362   1.449
   59W        W71785   2.153  33.629  13.984
   60W        W71786   7.806  20.432   3.222
   61W        W71787  23.417  12.417   1.463
   62W        W71788  17.168  26.956   0.975
   63W        W71789  12.321   3.215   2.036
   64W        W71790  33.455   1.222  13.398
   65W        W71791   8.767  19.693  10.124
   66W        W71792   7.418  15.281   3.243
   67W        W71793   5.602  43.624   1.782
   68W        W71794  10.354  15.637   2.495
   69W        W71795  19.562   4.823  11.920
   70W        W71796   8.738  18.761  11.411
   71W        W71797  12.641  11.899   2.238
   72W        W71798  26.368   7.181  11.033
   73W        W71799  32.413   0.429   4.591
   74W        W71800  12.723  35.950  11.000
   75W        W71801  34.977   2.637  10.366
   76W        W71802   7.924   7.620  12.099
   77W        W71803  11.165  40.903  11.302
   78W        W71804  17.339  43.437  11.652
   79W        W71805  24.843  27.350  14.706
   80W        W71806  40.840   9.580  11.214
   81W        W71807  43.926  34.316   3.471
   82W        W71808  28.982  27.512   4.666
   83W        W71809  44.427  27.729  13.866
   84W        W71810  19.915  31.055  11.068
   85W        W71811  11.505  28.870   4.086
   86W        W71812  14.108  41.317   0.942
   87W        W71813  15.735   7.991   2.920
   88W        W71814   7.902   6.324   3.368
   89W        W71815   1.109   7.933  12.937
   90W        W71816  11.644  10.178   0.864
   91W        W71817  15.786   5.541  12.955
   92W        W71818  34.960   7.123  13.112
   93W        W71819  11.208  10.166   3.116
   94W        W71820  35.503  24.427  11.855
   95W        W71821  27.606  31.088  14.465
   96W        W71822   0.251  39.460   1.385
   97W        W71823  31.803  30.930  12.053
   98W        W71824   4.933  37.338  11.578
   99W        W71825  39.203  19.947   3.683
  100W        W71826  15.790  32.254  14.851
  101W        W71827  10.039  43.354   3.576
  102W        W71828  10.569  18.596  14.033
  103W        W71829  34.492  20.401   0.517
  104W        W71830  42.800  37.500  14.800
  105W        W71831  38.378   9.829   2.593
  106W        W71832  26.539  29.526   1.228
  107W        W71833   4.188  11.456   3.922
  108W        W71834  44.801  33.063  12.894
  109W        W71835  34.498  28.991  10.633
  110W        W71836  41.333  12.518  13.296
  111W        W71837  18.682  41.056   2.271
  112W        W71838  39.707  19.971   0.909
  113W        W71839  17.511  25.815   3.791
  114W        W71840   4.731   3.732  12.539
  115W        W71841  40.819  42.417   0.436
  116W        W71842   8.234  24.283   0.932
  117W        W71843   0.421   3.466   0.961
  118W        W71844  18.542  10.791   4.146
  119W        W71845  17.664   0.520  12.994
  120W        W71846  29.229  11.813  11.616
  121W        W71847  36.142  40.589   0.683
  122W        W71848  11.891  15.233  12.799
  123W        W71849  43.687  15.464   1.174
  124W        W71850   8.591  15.065  11.298
  125W        W71851  16.747  35.100   4.507
  126W        W71852  21.224  44.315   2.191
  127W        W71853  27.208  30.504   5.087
  128W        W71854  25.228   3.664   0.889
  129W        W71855  20.597  23.115  13.401
  130W        W71856  41.057  28.131   4.528
  131W        W71857   5.412   0.292   0.766
  132W        W71858  34.819  18.043   2.668
  133W        W71859  40.576  25.067  11.701
  134W        W71860  43.325   5.252  14.289
  135W        W71861   3.748  14.578   4.583
  136W        W71862  42.516  23.080  10.696
  137W        W71863  37.507  21.483   0.411
  138W        W71864  22.122  23.578   1.487
  139W        W71865  32.634  24.090   4.160
  140W        W71866  28.216  14.268   3.287
  141W        W71867  28.533  15.336  10.319
  142W        W71868  21.602  29.552   1.852
  143W        W71869  14.703  33.679  12.486
  144W        W71870   4.348  27.029  13.159
  145W        W71871  35.273  30.701   3.638
  146W        W71872   1.912   4.270  14.388
  147W        W71873   5.483  43.762   0.370
  148W        W71874  38.763  28.580   2.838
  149W        W71875  27.690   6.339  11.690
  150W        W71876  21.223   1.053   3.950
  151W        W71877   6.034   9.911  11.287
  152W        W71878  23.961  20.212  11.486
  153W        W71879  22.406  26.757   2.547
  154W        W71880   1.228  42.455   4.642
  155W        W71881  36.901  28.172  13.094
  156W        W71882  15.593  29.745  11.335
  157W        W71883  41.916  29.861   3.283
  158W        W71884  30.534  28.612  10.577
  159W        W71885  21.087   8.871  11.537
  160W        W71886  23.474  35.186   0.420
  161W        W71887   6.731  12.543  12.911
  162W        W71888  34.419  14.774  10.993
  163W        W71889   0.243  38.140  11.561
  164W        W71890  16.682  23.834   0.691
  165W        W71891   2.911  25.557   0.376
  166W        W71892  23.242  40.243  14.492
  167W        W71893  25.087   1.873  13.512
  168W        W71894  10.132  21.643   0.814
  169W        W71895  38.126  23.297  13.356
  170W        W71896  15.620  38.525  13.147
  171W        W71897  24.224  42.556  14.931
  172W        W71898   4.345   2.501   0.314
  173W        W71899  32.470  13.935  10.906
  174W        W71900  43.536  37.080   0.190
  175W        W71901  35.812  30.580  14.505
  176W        W71902  19.516   1.665  11.119
  177W        W71903   8.073  13.947   5.018
  178W        W71904  27.898  28.617  11.889
  179W        W71905   6.374   1.755  12.623
  180W        W71906   2.900   9.546  13.336
  181W        W71907  28.147  30.938  11.935
  182W        W71908  37.590   6.223   0.517
  183W        W71909   4.792  27.123   2.885
  184W        W71910  24.304  23.645  13.381
  185W        W71911   4.385   3.934   0.562
  186W        W71912  33.212  25.257   1.849
  187W        W71913  22.420  18.064   2.873
  188W        W71914  17.159  43.982  11.578
  189W        W71915  24.700  21.665  13.081
  190W        W71916  10.320   1.063  12.124
  191W        W71917  21.834  27.324  11.022
  192W        W71918  43.819  15.649   4.039
  193W        W71919  32.311   0.761   3.375
  194W        W71920  37.263  15.182   0.196
  195W        W71921  43.078  13.680   3.602
  196W        W71922  22.765  12.938   5.005
  197W        W71923   7.417   7.696  14.770
  198W        W71924  14.720  36.352  10.478
  199W        W71925  40.887  36.076  14.066
  200W        W71926  26.488   3.205  14.496
  201W        W71927  14.629  21.675   3.088
  202W        W71928  29.172  38.281  13.868
  203W        W71929  26.493  41.994  14.617
  204W        W71930  28.727  30.156  11.601
  205W        W71931  38.807   5.956   2.730
  206W        W71932  35.834  34.444  13.491
  207W        W71933  16.241  11.330   4.196
  208W        W71934  16.060  25.897   2.370
  209W        W71935  15.086  42.521  11.443
  210W        W71936  10.852  44.293  14.436
  211W        W71937   1.224   6.495  11.251
  212W        W71938  29.670  35.180  14.482
  213W        W71939  24.084  20.785   0.784
  214W        W71940  18.190   7.274  12.828
  215W        W71941  37.315  13.787  11.998
  216W        W71942  38.611  30.424  14.311
  217W        W71943   2.568   9.100  13.382
  218W        W71944  27.231  20.610  12.491
  219W        W71945  19.387   3.423   3.445
  220W        W71946  36.808  11.285  12.888
  221W        W71947  21.917   0.275  10.600
  222W        W71948  35.124  13.851  11.174
  223W        W71949  29.212   0.451  14.001
  224W        W71950   8.679  44.770   1.368
  225W        W71951   7.354  16.722  12.459
  226W        W71952  32.788  11.646  13.014
  227W        W71953  27.278  42.010   1.330
  228W        W71954  34.703  36.363   2.820
  229W        W71955   1.512   8.435  14.294
  230W        W71956  24.098  43.900  12.306
  231W        W71957   8.895  36.128  13.029
  232W        W71958  21.958  24.659  13.793
  233W        W71959  16.117   1.243  11.162
  234W        W71960   8.331  42.580   0.843
  235W        W71961  21.161  10.523   1.803
  236W        W71962   9.133   0.492  14.390
  237W        W71963  30.080   1.947   1.089
  238W        W71964  17.100  44.553   2.299
  239W        W71965  20.807   3.260  10.521
  240W        W71966  12.780  18.048  14.528
  241W        W71967  16.857  33.400  11.556
  242W        W71968  42.748  34.739   5.013
  243W        W71969  38.399  25.523  11.779
  244W        W71970  29.286  32.118  13.612
  245W        W71971  27.555  35.424  12.542
  246W        W71972  34.999  15.470   3.656
  247W        W71973  38.460  44.720  14.562
  248W        W71974  25.104   5.772  10.581
  249W        W71975  27.507  35.667  12.996
  250W        W71976  28.948  27.029  14.521
  251W        W71977  21.163  26.989   4.157
  252W        W71978  26.243  13.634   0.929
  253W        W71979  34.116  22.513   0.389
  254W        W71980   6.762  12.346  11.524
  255W        W71981  42.774  41.835  10.674
  256W        W71982  29.218  42.860  12.903
  257W        W71983  33.967  33.052   4.610
  258W        W71984  34.571   0.246  14.860
  259W        W71985  37.050   4.347   2.759
  260W        W71986  30.219  20.669   0.835
  261W        W71987   9.741  22.253   4.050
  262W        W71988  32.486  27.676   0.848
  263W        W71989  43.061  44.937  12.499
  264W        W71990   7.468   8.611  14.887
  265W        W71991   6.643  28.342   3.216
  266W        W71992  28.947  15.485   4.210
  267W        W71993   7.859   4.296   1.468
  268W        W71994  35.944   0.825   1.861
  269W        W71995  36.921  40.570  14.393
  270W        W71996   4.819  23.446  11.999
  271W        W71997  35.646  43.519   4.184
  272W        W71998   1.474  42.444   4.197
  273W        W71999  21.931   2.916   0.199
  274W        W72000  38.817   6.732  14.843
  275W        W72001  31.804  31.347   0.232
  276W        W72002   6.689  11.184  13.755
  277W        W72003  37.964  42.309   1.399
  278W        W72004  18.952  26.657  12.489
  279W        W72005  42.036  17.003   2.854
  280W        W72006   5.806  20.118   2.145
  281W        W72007  13.310  21.746  10.914
  282W        W72008   4.018   2.709   2.745
  283W        W72009  38.398   2.424   1.835
  284W        W72010  24.134  36.113   2.321
  285W        W72011  22.225  36.874   0.444
  286W        W72012   8.718   7.875   1.443
  287W        W72013   2.773  36.485  13.767
  288W        W72014  22.767  18.201   4.912
  289W        W72015  17.036  15.639   2.654
  290W        W72016  26.168   2.903   1.215
  291W        W72017  40.957  12.556  12.927
  292W        W72018  22.628   1.013  12.035
  293W        W72019  18.388   5.417  10.692
  294W        W72020  15.680  35.179   4.227
  295W        W72021   6.809   5.239  10.283
  296W        W72022   6.367   7.229  10.665
  297W        W72023  28.651  28.640   0.395
  298W        W72024  25.557   1.215   2.874
  299W        W72025  39.573   8.688   4.500
  300W        W72026  31.910   0.515   3.118
  301W        W72027  26.585  43.394   5.042
  302W        W72028  41.095  41.888  12.962
  303W        W72029  33.002  11.131   4.213
  304W        W72030  23.522  34.839  12.060
  305W        W72031   7.695  18.046   0.909
  306W        W72032   6.370  12.192  14.121
  307W        W72033  31.590  32.596   0.801
  308W        W72034  41.865  10.546  10.117
  309W        W72035   7.167   4.267   4.211
  310W        W72036  11.504  39.770  13.359
  311W        W72037  18.926   6.827   3.160
  312W        W72038   6.266  29.367  12.952
  313W        W72039  29.930  38.611  11.035
  314W        W72040  26.205   4.297  13.958
  315W        W72041  10.085  36.495   0.892
  316W        W72042  11.231   0.485   4.687
  317W        W72043   5.449   4.488  13.463
  318W        W72044  21.488  42.801   2.675
  319W        W72045  43.788   0.297  14.841
  320W        W72046  36.851  33.255  14.012
  321W        W72047  27.941  15.903   1.264
  322W        W72048  27.274  17.763  12.125
  323W        W72049  40.609  41.895   4.008
  324W        W72050  22.442   5.975   0.834
  325W        W72051  17.618  22.346   0.302
  326W        W72052  15.291  32.396  13.922
  327W        W72053  20.112  10.012  11.026
  328W        W72054  39.839  26.651   1.185
  329W        W72055  24.571  32.398   0.117
  330W        W72056  10.433  24.281  14.232
  331W        W72057  43.334  22.454  14.058
  332W        W72058  24.276  44.417   0.383
  333W        W72059  17.543  17.173  11.389
  334W        W72060  35.758  19.635   1.207
  335W        W72061  34.742  33.113  11.442
  336W        W72062   8.436  11.548   2.668
  337W        W72063  23.913  26.628  11.190
  338W        W72064  27.536  27.110   0.244
  339W        W72065  30.894  36.611  11.121
  340W        W72066   5.919  21.724  12.891
  341W        W72067  38.861  41.477   3.190
  342W        W72068  12.645  31.784  11.178
  343W        W72069   6.904  15.089   3.254
  344W        W72070  28.710  10.828  13.043
  345W        W72071   6.661  30.866   3.277
  346W        W72072  43.954   9.800   4.417
  347W        W72073  24.987  23.486  10.746
  348W        W72074  25.542   6.310  11.362
  349W        W72075  40.618  12.221  13.905
  350W        W72076  33.048   6.781  10.823
  351W        W72077  37.069  41.901  11.879
  352W        W72078  15.572   1.787   3.709
  353W        W72079   5.959  10.004  14.219
  354W        W72080   0.265  20.716   0.885
  355W        W72081  15.562   1.664   4.627
  356W        W72082  44.311  37.377  14.919
  357W        W72083  32.362  25.441  11.571
  358W        W72084  25.465  26.932   1.866
  359W        W72085   7.180  27.162  12.602
  360W        W72086  13.137   0.546   2.484
  361W        W72087   0.900  10.376  14.387
  362W        W72088  13.121  28.544   3.595
  363W        W72089  28.415  33.369  14.554
  364W        W72090  15.815  23.629  14.303
  365W        W72091  33.397   6.365   2.562
  366W        W72092  13.418  32.041   3.305
  367W        W72093  28.163  30.650   0.407
  368W        W72094  38.037  38.717   2.310
  369W        W72095   3.285   3.762  12.601
  370W        W72096  20.094  36.864  11.913
  371W        W72097  24.137  29.198  13.489
  372W        W72098  39.224   9.265   4.600
  373W        W72099  38.110  27.926   1.336
  374W        W72100  11.521  28.664   0.018
  375W        W72101  27.415  23.465   4.007
  376W        W72102  21.792  11.094  11.130
  377W        W72103  19.192   5.669  13.404
  378W        W72104  15.104  37.839   1.203
  379W        W72105  20.790   2.719   3.331
  380W        W72106  11.762  19.728  11.115
  381W        W72107  27.083  10.246  12.523
  382W        W72108   2.658   8.379   4.072
  383W        W72109   7.641  18.330   0.460
  384W        W72110  41.731   4.949   0.425
  385W        W72111   9.864  17.195  11.944
  386W        W72112   0.717  12.847  13.366
  387W        W72113  38.336  21.226   1.605
  388W        W72114   8.968   2.097  11.282
  389W        W72115  21.629   2.217   0.745
  390W        W72116  14.775  41.245   3.692
  391W        W72117  27.273  18.875  14.964
  392W        W72118  32.015  28.900   1.393
  393W        W72119  17.829  28.153  11.012
  394W        W72120  24.292  11.132   0.249
  395W        W72121  24.517  21.927  11.804
  396W        W72122  20.337  33.534  13.829
  397W        W72123   8.413   7.967   0.387
  398W        W72124   2.290  18.114  13.215
  399W        W72125   7.715   6.199   4.320
  400W        W72126  25.713  16.607   0.966
  401W        W72127  12.195  19.800   3.731
  402W        W72128  25.082  11.314  12.388
  403W        W72129  43.041  32.675   1.335
  404W        W72130  39.418  29.081   0.636
  405W        W72131  34.961   7.657  12.650
  406W        W72132  41.875  29.768   5.260
  407W        W72133  27.939  16.176   4.301
  408W        W72134  18.792   3.194   4.249
  409W        W72135  12.128  43.180  13.765
  410W        W72136  32.969   2.435  12.495
  411W        W72137  35.367   6.932  12.876
  412W        W72138  38.128  33.871   1.440
  413W        W72139  14.781  38.564  12.513
  414W        W72140  41.522  14.410  13.750
  415W        W72141  44.735  31.155  12.068
  416W        W72142   5.138  12.626  13.398
  417W        W72143  22.032  43.821   0.841
  418W        W72144  43.964  43.290   0.838
  419W        W72145   8.836  22.711   4.870
  420W        W72146  26.369  17.249   0.818
  421W        W72147  27.663  28.608   1.467
  422W        W72148  27.131  11.205   4.679
  423W        W72149   6.368  15.658  12.995
  424W        W72150  37.767  22.694   1.447
  425W        W72151  15.582  41.710   2.287
  426W        W72152  27.458  43.428   1.977
  427W        W72153  35.488   7.882  11.410
  428W        W72154  27.039   4.041   2.369
  429W        W72155  39.251  37.413  10.320
  430W        W72156  21.073  40.201  12.893
  431W        W72157   1.931  28.620  14.279
  432W        W72158  17.660  42.038   0.883
  433W        W72159   9.127   4.689   9.829
  434W        W72160  25.416  36.513  11.191
  435W        W72161  17.776  32.325   0.869
  436W        W72162   2.182  33.059  14.907
  437W        W72163  19.364  29.261  11.087
  438W        W72164   1.891  23.611  11.860
  439W        W72165   0.350  10.540  13.799
  440W        W72166  39.659   4.257  12.030
  441W        W72167   7.251  16.343  11.177
  442W        W72168  22.671   7.193   3.161
  443W        W72169   1.283  17.549  14.303
  444W        W72170  36.569  35.799   3.734
  445W        W72171  39.318   7.430  11.027
  446W        W72172  10.846  14.597  13.090
  447W        W72173  28.709  14.077   3.365
  448W        W72174  32.461  35.317   3.608
  449W        W72175  37.319  16.479   2.754
  450W        W72176  41.609  43.929   3.923
  451W        W72177  28.043  44.772  10.158
  452W        W72178  24.011  39.462   1.260
  453W        W72179  19.233   8.650  12.539
  454W        W72180   2.373  26.169  14.897
  455W        W72181  41.944  36.908  13.921
  456W        W72182  11.017   7.200  14.041
  457W        W72183  37.047  21.645  10.644
  458W        W72184  28.363   6.633   3.681
  459W        W72185  38.963  30.165   4.827
  460W        W72186  36.506  15.499  13.984
  461W        W72187   2.903  35.947  10.230
  462W        W72188  31.701  12.104  11.969
  463W        W72189  34.290  41.983  13.291
  464W        W72190  16.092  11.065   4.617
  465W        W72191  10.375  30.334  10.754
  466W        W72192  24.438  14.373   0.957
  467W        W72193  44.397  25.492  10.727
  468W        W72194  32.841  14.781  11.215
  469W        W72195  28.339  21.642   3.298
  470W        W72196  34.702  34.702   9.759
  471W        W72197  30.116  34.794  14.357
  472W        W72198  36.133  24.996  11.536
  473W        W72199  11.811  35.462  10.627
  474W        W72200  36.082   9.875  12.032
  475W        W72201  22.596  20.819   2.938
  476W        W72202   9.870   1.092   1.902
  477W        W72203  12.962  37.837   3.781
  478W        W72204  41.906  38.335   3.230
  479W        W72205   5.106  15.300  14.295
  480W        W72206  25.074   4.665  13.470
  481W        W72207  24.568  10.549  10.463
  482W        W72208  39.392   0.992  12.047
  483W        W72209  44.933  41.317   2.667
  484W        W72210   1.579  37.473   2.647
  485W        W72211   2.266  13.885   3.259
  486W        W72212  14.590  20.314   2.205
  487W        W72213  28.967  33.387   3.701
  488W        W72214   3.352   0.445  11.734
  489W        W72215  34.290  34.980   0.736
  490W        W72216  12.279  21.455  14.057
  491W        W72217  14.805  22.798  12.127
  492W        W72218   7.374  16.360   3.006
  493W        W72219  28.411   5.117  13.374
  494W        W72220  11.391  16.459  11.562
  495W        W72221  42.886   6.358  12.662
  496W        W72222   3.885   7.705  12.961
  497W        W72223   9.921  44.804   0.031
  498W        W72224  41.485  20.379  13.915
  499W        W72225   7.265  38.873  14.455
  500W        W72226   6.649  10.672  14.675
  501W        W72227  26.658   5.766  11.034
  502W        W72228  36.497  20.948  12.440
  503W        W72229  40.782  12.704   2.301
  504W        W72230   9.735   0.456  11.614
  505W        W72231  15.782  27.393   3.726
  506W        W72232  30.060  36.423   1.734
  507W        W72233  31.350  21.966  14.307
  508W        W72234  35.972  33.705   2.992
  509W        W72235  11.706   7.373   3.653
  510W        W72236   1.110  42.911  12.005
  511W        W72237  21.610  12.015  11.211
  512W        W72238  21.863  27.861   0.705
  513W        W72239  24.485  34.185  11.161
  514W        W72240  19.647  25.658   3.600
  515W        W72241  35.372   7.255   2.829
  516W        W72242   9.265  23.890   3.231
  517W        W72243  36.583  22.700   3.662
  518W        W72244   7.340  24.297   3.371
  519W        W72245  29.138   8.426  13.865
  520W        W72246  27.090  42.702   2.647
  521W        W72247  16.063  15.248  10.464
  522W        W72248  10.542  39.563   2.632
  523W        W72249  20.058  40.788   4.637
  524W        W72250  26.062  32.643   3.608
  525W        W72251   2.844  20.788  10.402
  526W        W72252  22.060  28.179   4.054
  527W        W72253  40.324  43.961   0.133
  528W        W72254  15.770  34.463   0.229
  529W        W72255  11.154   2.979   2.880
  530W        W72256  21.157   0.371  14.915
  531W        W72257  38.863  26.956  10.598
  532W        W72258  11.716  36.433  10.921
  533W        W72259   5.677  21.292  10.725
  534W        W72260  32.372   1.832  13.443
  535W        W72261  44.410  38.781   3.959
  536W        W72262  18.492  21.080   4.686
  537W        W72263  12.104  24.082  12.552
  538W        W72264   0.787  19.041   2.324
  539W        W72265  30.444  41.297  10.981
  540W        W72266   3.051  21.731   1.674
  541W        W72267  36.051  29.950  10.957
  542W        W72268  29.688  23.490  12.765
  543W        W72269  22.673  11.868  13.206
  544W        W72270  36.423  25.569   3.823
  545W        W72271  21.060   7.904  12.982
  546W        W72272  41.487  15.817  10.939
  547W        W72273  33.851  12.812  14.371
  548W        W72274  44.714  31.485  11.183
  549W        W72275   2.381  18.241   3.706
  550W        W72276  39.908  13.614  13.607
  551W        W72277  43.793  21.100  11.554
  552W        W72278   2.790  19.315   0.968
  553W        W72279   3.022   1.775  11.527
  554W        W72280   1.785  33.601  11.052
  555W        W72281   3.729  44.884  13.607
  556W        W72282  29.965  13.149  11.695
  557W        W72283  14.785  27.473  10.578
  558W        W72284  11.137  19.247  11.851
  559W        W72285  34.036  40.103   0.409
  560W        W72286  22.785  35.100   2.746
  561W        W72287   7.944   1.514  13.851
  562W        W72288  37.637  14.649  13.481
  563W        W72289  26.961   2.268   2.679
  564W        W72290  30.657   7.318  10.754
  565W        W72291  24.429  44.633   3.377
  566W        W72292  21.528  25.912  13.792
  567W        W72293  29.753  33.365   0.891
  568W        W72294   5.898  21.755   4.211
  569W        W72295  17.224   2.475  12.492
  570W        W72296  19.628   8.042  11.120
  571W        W72297  15.037   9.237  14.733
  572W        W72298  36.420  13.110  12.452
  573W        W72299   0.445   0.413  13.931
  574W        W72300  21.754  20.139  13.982
  575W        W72301  31.700   4.274   4.415
  576W        W72302  39.547  21.511   3.239
  577W        W72303   7.469  41.902  10.786
  578W        W72304  30.443  34.157  11.546
  579W        W72305   5.507  36.833   0.480
  580W        W72306   9.228  29.191   1.488
  581W        W72307  37.429   7.595   2.273
  582W        W72308  26.600   0.201   3.121
  583W        W72309  21.354  30.936   4.113
  584W        W72310  21.146  31.878  14.227
  585W        W72311  42.903  22.493   0.837
  586W        W72312  42.046  35.810   0.888
  587W        W72313  43.898  32.944   1.568
  588W        W72314   6.499  31.734  12.822
  589W        W72315  19.590  38.598  12.010
  590W        W72316  29.510   2.559  12.140
  591W        W72317  43.213  35.546  12.066
  592W        W72318  44.049  38.836   2.180
  593W        W72319  44.026   9.387  14.504
  594W        W72320  37.746  35.146   2.316
  595W        W72321   1.505  12.773  13.929
  596W        W72322   9.162  26.820  14.898
  597W        W72323  43.580  33.510  11.467
  598W        W72324  21.195   5.633  12.086
  599W        W72325  42.273  15.992  14.801
  600W        W72326  33.990  32.143   3.244
  601W        W72327  10.104  24.226  13.791
  602W        W72328  26.387  38.120  12.593
  603W        W72329  44.657  17.710   4.105
  604W        W72330  29.616   4.754  14.931
  605W        W72331  24.480  25.582  12.853
  606W        W72332  28.027  35.439  14.050
  607W        W72333  16.672  43.066   2.890
  608W        W72334  44.555  24.996   4.114
  609W        W72335   2.713  43.021   3.679
  610W        W72336  36.560   4.811   4.073
  611W        W72337  33.419  44.505   4.163
  612W        W72338  11.619  10.733   4.542
  613W        W72339  28.598  37.389   1.590
  614W        W72340  41.113  27.246  11.146
  615W        W72341   6.687   4.472   4.184
  616W        W72342  15.611  22.435  13.039
  617W        W72343   2.924  21.531  12.125
  618W        W72344   0.969  14.717  13.931
  619W        W72345   8.953  31.974  11.616
  620W        W72346   4.400  43.879   0.427
  621W        W72347  31.516  30.183  13.351
  622W        W72348  10.205  21.896  14.870
  623W        W72349  20.277  25.364  12.585
  624W        W72350   7.326   6.149  10.651
  625W        W72351  31.798  28.981  10.793
  626W        W72352  18.845  25.932   3.290
  627W        W72353  41.773   8.451   1.793
  628W        W72354  39.005  11.606   1.139
  629W        W72355   6.769  16.022  11.174
  630W        W72356  34.380  11.781  11.158
  631W        W72357  10.480  39.046   1.657
  632W        W72358   1.387  23.643  11.763
  633W        W72359  15.436  41.849  14.474
  634W        W72360   4.315  16.711  13.317
  635W        W72361  43.691  29.948  12.154
  636W        W72362  25.170  17.006   0.405
  637W        W72363  12.761   4.406   2.790
  638W        W72364  41.024  35.422  11.525
  639W        W72365  13.661  26.506  14.937
  640W        W72366  21.752  29.755   1.401
  641W        W72367   9.822  38.835   2.720
  642W        W72368  42.414  29.440  12.434
  643W        W72369   1.225  33.582  13.079
  644W        W72370   1.846  37.648  14.708
  645W        W72371  25.214  40.281   4.549
  646W        W72372  40.767  27.571  10.961
  647W        W72373  33.563  37.122  11.994
  648W        W72374  16.575  29.485   2.454
  649W        W72375  33.983   1.794  14.537
  650W        W72376   2.443  15.166   3.324
  651W        W72377  23.257  39.380  12.410
  652W        W72378  14.689  25.165  13.027
  653W        W72379  40.620  34.346  13.669
  654W        W72380  18.508   6.977   2.307
  655W        W72381  23.427  10.048   1.713
  656W        W72382   6.822  29.128  13.321
  657W        W72383  10.246  17.108   3.703
  658W        W72384  10.081  13.553  14.453
  659W        W72385  12.151  38.669   4.582
  660W        W72386  23.964   6.248  13.024
  661W        W72387  43.745   0.777   0.019
  662W        W72388  21.551  13.891   2.769
  663W        W72389  18.988   1.683   1.465
  664W        W72390  44.352  25.491  13.994
  665W        W72391  21.326   0.979  13.469
  666W        W72392  14.315  17.465   0.938
  667W        W72393  25.139  40.273  10.731
  668W        W72394  16.533  10.699   3.272
  669W        W72395  21.690  20.532   2.265
  670W        W72396  12.635  38.363   1.064
  671W        W72397  41.833  26.424   2.731
  672W        W72398  29.999  34.018   4.506
  673W        W72399   3.062   6.575  11.073
  674W        W72400  15.868  34.051   0.811
  675W        W72401  44.802   5.147   0.403
  676W        W72402  29.898  35.832   0.469
  677W        W72403  28.844  29.145   3.086
  678W        W72404  25.551  35.113   4.504
  679W        W72405  10.079  30.468   2.487
  680W        W72406  21.182  39.054  14.904
  681W        W72407  18.278  26.076   3.732
  682W        W72408  36.284   5.777   2.367
  683W        W72409  31.115   3.899   2.393
  684W        W72410  32.976  41.936   1.606
  685W        W72411  12.057  33.652  11.006
  686W        W72412  36.657  11.065  11.217
  687W        W72413   0.378  41.960   0.580
  688W        W72414   7.012   5.607  12.622
  689W        W72415  27.798  25.110  11.140
  690W        W72416  32.137  24.546  14.035
  691W        W72417   0.421  10.908   2.783
  692W        W72418  32.168  18.145  10.487
  693W        W72419  34.914  35.912   9.685
  694W        W72420  17.665   8.557  13.982
  695W        W72421  32.958  28.634  11.525
  696W        W72422  26.976   0.514   2.421
  697W        W72423   6.828  32.846  14.392
  698W        W72424  12.684  30.544  10.560
  699W        W72425  24.700  10.424  14.767
  700W        W72426   8.822  17.597   1.712
  701W        W72427   2.442  19.024  12.823
  702W        W72428   8.207  24.541  10.971
  703W        W72429  25.388   6.950  14.878
  704W        W72430  28.605  21.417  11.661
  705W        W72431  14.537  17.015  12.106
  706W        W72432  38.302  39.239   0.759
  707W        W72433  24.415  10.262   1.882
  708W        W72434  10.320  12.158  14.524
  709W        W72435  27.136   2.253  12.374
  710W        W72436   9.866  36.743   1.391
  711W        W72437  31.039  30.398  13.166
  712W        W72438  41.083  27.589  11.945
  713W        W72439  25.934   7.448  13.810
  714W        W72440  25.756  14.074   3.698
  715W        W72441  40.303  29.493   2.825
  716W        W72442  11.478  30.689  11.033
  717W        W72443  41.887  40.256  12.018
  718W        W72444  40.302   1.452   0.970
  719W        W72445  34.855  23.801   2.827
  720W        W72446  13.933  21.205  12.861
  721W        W72447  19.642  36.182   4.176
  722W        W72448  41.441  34.852  14.079
  723W        W72449   9.519  14.871   2.651
  724W        W72450  20.867  29.476   1.372
  725W        W72451  27.121  31.927  14.617
  726W        W72452  11.391  33.359   2.750
  727W        W72453  25.124  14.134  11.676
  728W        W72454  40.750  37.505   3.197
  729W        W72455  25.332  38.372  11.758
  730W        W72456  36.106   3.982   1.852
  731W        W72457  19.530  20.665   3.670
  732W        W72458  15.463  40.771   4.679
  733W        W72459  26.101  13.603  14.520
  734W        W72460  17.781   5.469   0.421
  735W        W72461  11.235   4.684  13.572
  736W        W72462  42.501  27.760  12.194
  737W        W72463   4.459   4.324   0.941
  738W        W72464  13.232  10.825  14.246
  739W        W72465  27.872  21.569  11.105
  740W        W72466  22.753   3.692   1.700
  741W        W72467  32.238  21.293  11.377
  742W        W72468   7.834  12.709   3.385
  743W        W72469   7.389  17.143   3.125
  744W        W72470  27.928  32.413   1.779
  745W        W72471  34.330  23.740   3.587
  746W        W72472  37.875  37.339   1.905
  747W        W72473  12.115  40.637   4.620
  748W        W72474  26.441  17.371   1.686
  749W        W72475  13.339   0.407   4.949
  750W        W72476  43.392  13.091  10.789
  751W        W72477   1.464   2.529  11.021
  752W        W72478  36.382  16.292  13.547
  753W        W72479  33.134  20.009  11.008
  754W        W72480  42.770   4.430   1.069
  755W        W72481  20.168  14.280  12.927
  756W        W72482  35.444  21.254   3.685
  757W        W72483  31.109   1.416  13.866
  758W        W72484  12.089  36.392   2.262
  759W        W72485  26.851  12.315   1.260
  760W        W72486   5.953   7.684  11.432
  761W        W72487  27.551  20.192   4.432
  762W        W72488  28.457  22.056   2.966
  763W        W72489  33.379   4.650   3.783
  764W        W72490  28.322   4.176   4.649
  765W        W72491  11.634  29.975   3.177
  766W        W72492  36.836  25.903  12.550
  767W        W72493  16.158   7.609  13.572
  768W        W72494  25.121  10.864   3.117
  769W        W72495   3.231  24.648   1.034
  770W        W72496  17.802  22.358   3.086
  771W        W72497   6.805   0.407  12.609
  772W        W72498  13.827  26.225  12.058
  773W        W72499  24.261  26.661  11.579
  774W        W72500  29.018  38.265  11.144
  775W        W72501  21.511   0.294   0.891
  776W        W72502   0.077  34.822  11.625
  777W        W72503  22.518  17.415   0.355
  778W        W72504   1.986  15.252   0.772
  779W        W72505   9.323  25.452  14.410
  780W        W72506  12.794  22.512  14.944
  781W        W72507   9.426  29.652   4.149
  782W        W72508  22.756  33.185   1.386
  783W        W72509   7.026   6.306  14.449
  784W        W72510  29.037   6.197   0.456
  785W        W72511  41.626   1.958   4.036
  786W        W72512  15.921  11.573   2.082
  787W        W72513  39.768  42.335   0.464
  788W        W72514   0.805   6.706  14.246
  789W        W72515   0.113  23.700   1.232
  790W        W72516   7.182  37.865   4.758
  791W        W72517   4.425  20.087   1.459
  792W        W72518  43.759  32.631   2.563
  793W        W72519  42.012  29.970   4.254
  794W        W72520  20.827  27.068   3.777
  795W        W72521   8.603  12.122   3.422
  796W        W72522   4.495  12.160  13.947
  797W        W72523  41.364  29.380  14.348
  798W        W72524   3.282  38.591   0.434
  799W        W72525   0.724  27.652   1.619
  800W        W72526  37.408  10.379   2.904
  801W        W72527  15.764  20.130  14.967
  802W        W72528  43.556  33.953   1.796
  803W        W72529   6.154   6.811   5.020
  804W        W72530  42.996  16.476  12.913
  805W        W72531  41.055  22.335  14.913
  806W        W72532  23.855  40.417   4.600
  807W        W72533  41.546  31.856  11.651
  808W        W72534  24.042  15.664   2.432
  809W        W72535  32.082   0.082  12.875
  810W        W72536  12.860  11.078  11.154
  811W        W72537   7.990  23.758  13.099
  812W        W72538  28.301  21.231  12.912
  813W        W72539  24.179   3.342   4.543
  814W        W72540   6.936  44.014  10.703
  815W        W72541  27.605  33.188  12.849
  816W        W72542  37.977  37.707   2.294
  817W        W72543  42.195  40.971  10.929
  818W        W72544  40.727  24.463   2.788
  819W        W72545  38.969   1.959   2.768
  820W        W72546  15.638   0.751   2.090
  821W        W72547  39.271  24.424   1.444
  822W        W72548  40.427  43.657   2.566
  823W        W72549  30.623   6.807  10.843
  824W        W72550   0.757  42.890   0.718
  825W        W72551  10.044  18.789  12.502
  826W        W72552   7.827  36.090   0.937
  827W        W72553   8.645  10.084  12.800
  828W        W72554  15.119  13.078   3.674
  829W        W72555   8.626  29.219  11.132
  830W        W72556  10.119  14.831  11.648
  831W        W72557  10.690   9.444   0.230
  832W        W72558  10.006   8.570  13.557
  833W        W72559  43.346   3.588  12.492
  834W        W72560  15.713   5.473   0.354
  835W        W72561   3.500  22.708   2.742
  836W        W72562   8.825  16.049   3.865
  837W        W72563   3.909  36.949  13.345
  838W        W72564  22.849  42.811   4.509
  839W        W72565  43.327  10.101   1.349
  840W        W72566  32.669   8.167   3.470
  841W        W72567   0.979  41.676  14.484
  842W        W72568  28.678  44.283   0.739
  843W        W72569  19.693  40.538  11.998
  844W        W72570   0.532   2.711   1.844
  845W        W72571  13.097  25.624   0.549
  846W        W72572  22.079   3.842  12.939
  847W        W72573  43.693  15.771  11.986
  848W        W72574  29.626  28.479  14.679
  849W        W72575  30.457   9.178  14.442
  850W        W72576  32.059   7.556  10.802
  851W        W72577   2.656  41.472   4.515
  852W        W72578   0.709  32.034   0.662
  853W        W72579   7.654  37.620  11.199
  854W        W72580  13.165  23.826  11.319
  855W        W72581  41.933  13.872  11.812
  856W        W72582  13.191  25.657  11.997
  857W        W72583  25.638  15.765  11.389
  858W        W72584  36.208  14.280   4.942
  859W        W72585  27.632  24.777  13.364
  860W        W72586  37.979  21.584   0.194
  861W        W72587  28.997  12.872   3.563
  862W        W72588   4.271  14.616  11.058
  863W        W72589  27.459  28.262   4.696
  864W        W72590  18.261  42.352   4.841
  865W        W72591   7.331  36.574   3.624
  866W        W72592  14.618  14.766  13.049
  867W        W72593  43.608  11.740  13.549
  868W        W72594  13.328  43.725  12.932
  869W        W72595  23.166  39.736   1.821
  870W        W72596   4.833   9.047  10.669
  871W        W72597   0.305  24.197  12.172
  872W        W72598  24.520   7.797   3.725
  873W        W72599   3.296  22.149  14.624
  874W        W72600  12.153  26.034  12.539
  875W        W72601  10.675  30.455  11.169
  876W        W72602  29.373   1.950   0.395
  877W        W72603  40.656  25.651  14.545
  878W        W72604   9.079  23.592   1.158
  879W        W72605  29.638  35.571   3.822
  880W        W72606  20.057  37.557   4.611
  881W        W72607   4.943  41.315   1.381
  882W        W72608  11.585  35.483   2.853
  883W        W72609  36.078  17.132  12.294
  884W        W72610  36.281  22.114   2.904
  885W        W72611  22.788   7.711  14.970
  886W        W72612  40.066  44.828   4.539
  887W        W72613  30.130   0.488   0.446
  888W        W72614  22.976  28.315   9.687
  889W        W72615   9.321  26.725  13.971
  890W        W72616   5.923  13.252  14.902
  891W        W72617  39.315  26.634  12.108
  892W        W72618   4.045  27.145  14.455
  893W        W72619  35.784  26.025  11.415
  894W        W72620  10.266   0.373   0.288
  895W        W72621  19.654  40.911   4.296
  896W        W72622  10.458  24.991   4.980
  897W        W72623  34.648  33.219   1.975
  898W        W72624  28.930   7.850   2.328
  899W        W72625  38.117  39.860   0.548
  900W        W72626  29.547  35.532  10.493
  901W        W72627  29.355  21.956  14.448
  902W        W72628  18.456   6.128  11.044
  903W        W72629   9.863  17.662  14.849
  904W        W72630  29.256  40.346   3.661
  905W        W72631  37.335   6.945  13.941
  906W        W72632  27.630  28.915   3.664
  907W        W72633  43.794   6.362   3.200
  908W        W72634  12.698   7.255   3.331
  909W        W72635  42.069   1.975   1.146
  910W        W72636  38.510   0.457   0.300
  911W        W72637  14.690   1.459  14.353
  912W        W72638   2.792  33.280  11.137
  913W        W72639  10.383  12.405  10.817
  914W        W72640  26.947  17.269   1.821
  915W        W72641  20.116   7.772  14.027
  916W        W72642  31.097  25.786   3.344
  917W        W72643  35.606  19.146   4.232
  918W        W72644  18.773  14.079   0.792
  919W        W72645  41.898  15.207   3.047
  920W        W72646  24.450  11.716   4.227
  921W        W72647   4.691  33.003   4.536
  922W        W72648  39.434  17.188  10.710
  923W        W72649  16.550  23.445   0.278
  924W        W72650   9.553  23.027   3.770
  925W        W72651   9.354  32.916  11.545
  926W        W72652  27.449  19.239  11.536
  927W        W72653  25.240  40.136  12.360
  928W        W72654  37.971   1.877   3.993
  929W        W72655  39.991  40.619   0.805
  930W        W72656   9.382  35.397  10.856
  931W        W72657  38.068  36.537  13.342
  932W        W72658  10.406   3.427   3.694
  933W        W72659  17.395  15.800   3.439
  934W        W72660   4.184   3.398   4.100
  935W        W72661  42.387  16.347  12.563
  936W        W72662  40.891  41.366   2.231
  937W        W72663  42.227  14.202   0.424
  938W        W72664  19.757  30.166   0.715
  939W        W72665  40.032  32.847   1.757
  940W        W72666  25.668  14.582   2.785
  941W        W72667  37.050  12.574  12.590
  942W        W72668  14.175  36.803  11.041
  943W        W72669  12.859   2.485  11.031
  944W        W72670  16.851  43.116   4.208
  945W        W72671  32.724  44.486   5.761
  946W        W72672  28.610  17.756   0.237
  947W        W72673  13.814  32.624  12.793
  948W        W72674  42.875  41.642   1.777
  949W        W72675   1.757  38.405  13.151
  950W        W72676  34.354  19.691   0.530
  951W        W72677  12.211  30.317   2.380
  952W        W72678  33.492  15.038   3.185
  953W        W72679   5.009  32.122   3.674
  954W        W72680  25.654   2.006  12.197
  955W        W72681  40.829  10.784  13.320
  956W        W72682   6.927  25.975  14.557
  957W        W72683  26.231  38.491  14.967
  958W        W72684   6.943  14.735   5.166
  959W        W72685  27.510   5.395   4.686
  960W        W72686   3.121   7.783   2.602
  961W        W72687  18.016  11.147   0.061
  962W        W72688   1.814   3.932   2.701
  963W        W72689  21.483  18.234  12.062
  964W        W72690  23.244  11.855   2.627
  965W        W72691  20.783  21.623  11.137
  966W        W72692  34.191  32.548  11.942
  967W        W72693  44.886  15.804  14.349
  968W        W72694   3.196  44.929  10.449
  969W        W72695   5.340  20.016   1.936
  970W        W72696  11.143  28.209   0.822
  971W        W72697   9.409  33.109  12.052
  972W        W72698   6.511  15.128  13.788
  973W        W72699  41.907  28.911  13.866
  974W        W72700   1.427  20.639   3.233
  975W        W72701  24.540  23.462   2.244
  976W        W72702   6.740  15.781   1.938
  977W        W72703  10.609   3.272  12.391
  978W        W72704  37.815  15.240  12.819
  979W        W72705  16.251   6.258  13.909
  980W        W72706   1.889  16.527  12.076
  981W        W72707   9.384  21.189  13.788
  982W        W72708  11.200  32.120  14.439
  983W        W72709  18.527  34.812  13.018
  984W        W72710  41.564  42.498  12.117
  985W        W72711  42.988  13.441  10.704
  986W        W72712  10.094   6.158   0.509
  987W        W72713  35.051  11.540   0.833
  988W        W72714  31.641  32.653  14.906
  989W        W72715   3.445  35.640   1.787
  990W        W72716   1.441   7.957  12.366
  991W        W72717  15.625  41.921   1.744
  992W        W72718  34.930  15.250   2.844
  993W        W72719  28.753  22.767   0.420
  994W        W72720  16.745   6.547   4.604
  995W        W72721  14.045   2.218  11.912
  996W        W72722  40.552   1.446   1.849
  997W        W72723   9.614  12.640   4.273
  998W        W72724  38.961  24.139  13.793
  999W        W72725  41.945  40.891  14.409
 1000W        W72726  37.178  40.354  11.156
 1001W        W72727  31.400  40.305   0.417
 1002W        W72728  12.917   4.222  10.773
 1003W        W72729   6.138  32.549   1.127
 1004W        W72730  14.655  22.606  10.160
 1005W        W72731  13.822  20.858   4.275
 1006W        W72732  25.990  36.912   0.286
 1007W        W72733   4.487  17.607  10.851
 1008W        W72734  23.229  19.273   4.559
 1009W        W72735  31.214   2.835  13.728
 1010W        W72736  11.852  22.977   4.802
 1011W        W72737  19.460  38.757  11.097
 1012W        W72738  23.558  37.670  14.822
 1013W        W72739  10.084   6.359  10.615
 1014W        W72740  34.387  42.902  14.217
 1015W        W72741  31.203   7.254  13.911
 1016W        W72742   0.758  21.294  10.112
 1017W        W72743   5.185  41.400   0.343
 1018W        W72744  15.584  31.175  10.522
 1019W        W72745  36.501  44.823   2.677
 1020W        W72746  24.224  32.461  11.144
 1021W        W72747  28.996  21.746   4.673
 1022W        W72748  19.085   0.576  12.492
 1023W        W72749  25.609  19.163   0.340
 1024W        W72750  23.134  15.178   4.085
 1025W        W72751  10.342  39.584   0.804
 1026W        W72752  44.300  34.685  11.697
 1027W        W72753  42.889  38.053   3.157
 1028W        W72754  31.739  19.089   0.848
 1029W        W72755  21.717  21.821  14.454
 1030W        W72756  39.150  11.302  12.096
 1031W        W72757  29.856  23.056   2.376
 1032W        W72758  38.158   2.714   0.773
 1033W        W72759  34.308   7.313  11.163
 1034W        W72760  36.360  41.597  11.927
 1035W        W72761  15.075  44.718   4.124
 1036W        W72762  25.363  19.027   1.133
 1037W        W72763   5.950   2.034  12.918
 1038W        W72764  26.006   6.225   4.512
 1039W        W72765  31.608  38.609  10.933
 1040W        W72766  32.914   6.426  11.458
 1041W        W72767  14.341  41.104   3.430
 1042W        W72768  28.342  37.493  13.255
 1043W        W72769  43.810  41.401   4.946
 1044W        W72770  30.247  16.761  11.824
 1045W        W72771  22.130  42.989  14.509
 1046W        W72772   6.448  35.445   2.754
 1047W        W72773  29.077  33.099   4.431
 1048W        W72774  38.874  10.320   1.297
 1049W        W72775  13.600   0.996   3.127
 1050W        W72776  41.964  16.068  12.601
 1051W        W72777  33.552  32.346   5.049
 1052W        W72778  23.034   4.635   2.966
 1053W        W72779  44.408  38.676  12.091
 1054W        W72780   0.570  16.248  12.591
 1055W        W72781  15.240  25.146   2.557
 1056W        W72782  20.779   6.372  14.985
 1057W        W72783  35.237   6.704  11.952
 1058W        W72784  26.074  13.119   2.224
 1059W        W72785   0.446  32.351  13.376
 1060W        W72786  31.443  31.909  13.863
 1061W        W72787  43.972  32.447   0.287
 1062W        W72788  43.262  21.613  12.448
 1063W        W72789  37.399   7.206   1.472
 1064W        W72790  43.317  37.673   3.704
 1065W        W72791   8.594  19.205  13.856
 1066W        W72792  31.402   9.867   0.696
 1067W        W72793  35.102   5.237   0.825
 1068W        W72794  22.507   9.670   2.572
 1069W        W72795  22.478  40.972   2.454
 1070W        W72796  41.739  12.472   0.757
 1071W        W72797  36.427   1.876   2.414
 1072W        W72798  19.361  30.736  11.418
 1073W        W72799  20.637  20.219   0.502
 1074W        W72800   0.428  24.847   4.546
 1075W        W72801   1.088  43.753  13.779
 1076W        W72802  27.447  40.048  14.137
 1077W        W72803   6.207  43.664  12.156
 1078W        W72804  12.114  16.394   2.739
 1079W        W72805  26.228  27.887   4.315
 1080W        W72806   4.734  38.046   3.424
 1081W        W72807  40.307   9.928   4.626
 1082W        W72808  15.070  21.159   0.379
 1083W        W72809  15.233  39.525   4.396
 1084W        W72810  43.437  27.720  14.503
 1085W        W72811  13.012  18.619  14.829
 1086W        W72812  42.052   9.568  12.475
 1087W        W72813  26.690  20.708   2.300
 1088W        W72814  31.664  36.379  11.433
 1089W        W72815   7.329  41.314   1.318
 1090W        W72816  11.855  44.463   1.920
 1091W        W72817  33.636  24.608   0.785
 1092W        W72818  27.048   0.713  12.154
 1093W        W72819   6.266   1.357   1.761
 1094W        W72820  27.633  36.063  13.390
 1095W        W72821  26.756  38.566  14.929
 1096W        W72822  14.543  28.504   3.230
 1097W        W72823  25.031  37.036   1.746
 1098W        W72824  23.095  12.902  14.784
 1099W        W72825  12.537   5.729   4.561
 1100W        W72826   1.754  24.222  14.454
 1101W        W72827  16.577   3.954  12.083
 1102W        W72828  19.952   6.362   3.634
 1103W        W72829   0.791  44.171  12.518
 1104W        W72830  14.247  37.613  10.592
 1105W        W72831  27.978   5.677   2.238
 1106W        W72832  36.673  10.882  12.528
 1107W        W72833  16.544  36.856  12.583
 1108W        W72834  43.101  19.046   4.925
 1109W        W72835  44.466  44.256   3.387
 1110W        W72836  37.995   4.356  11.549
 1111W        W72837  41.000  21.325  14.368
 1112W        W72838  31.987  35.798  10.935
 1113W        W72839   4.957  21.737   0.057
 1114W        W72840  37.373  17.336  11.211
 1115W        W72841   0.797  31.443   2.724
 1116W        W72842  37.027   9.009   1.404
 1117W        W72843  15.853   4.653  10.539
 1118W        W72844  10.761  25.816  10.146
 1119W        W72845  21.532  39.401   0.271
 1120W        W72846  30.131  28.029   3.219
 1121W        W72847  19.880  38.181   2.241
 1122W        W72848   5.555   3.485  11.167
 1123W        W72849  44.565  33.676  12.510
 1124W        W72850  36.483  33.633   0.776
 1125W        W72851  23.653  22.259   2.898
 1126W        W72852  19.692  13.329   4.648
 1127W        W72853  34.538   8.429  14.426
 1128W        W72854  30.336  34.006   1.259
 1129W        W72855  18.106  39.005   1.191
 1130W        W72856  30.093  29.671  11.967
 1131W        W72857  12.092   2.323   1.352
 1132W        W72858  21.712  25.221   0.802
 1133W        W72859   1.978   4.280   3.992
 1134W        W72860  16.026  23.861   2.408
 1135W        W72861  27.479   3.765   4.492
 1136W        W72862  25.977  39.084  11.648
 1137W        W72863  42.439  17.107  11.524
 1138W        W72864   7.891   7.686   4.046
 1139W        W72865  35.446   5.870  11.909
 1140W        W72866  44.370  40.405   2.373
 1141W        W72867  33.315   8.292  11.269
 1142W        W72868  18.041  28.587  11.236
 1143W        W72869  28.696  36.372  14.026
 1144W        W72870  24.931   0.190  10.088
 1145W        W72871  28.849  38.591   1.346
 1146W        W72872  35.760  14.801  10.686
 1147W        W72873  12.561   8.605  12.532
 1148W        W72874  37.891  27.308  12.279
 1149W        W72875  42.876  16.298  11.387
 1150W        W72876  24.314  31.800  14.277
 1151W        W72877  44.938   8.140   3.685
 1152W        W72878   7.591   1.809   3.685
 1153W        W72879   8.702  11.878   2.979
 1154W        W72880  36.546  12.212  14.717
 1155W        W72881  37.510   5.413  12.035
 1156W        W72882  18.693  17.275   1.344
 1157W        W72883  17.620  25.009   1.913
 1158W        W72884   1.879  35.352  12.853
 1159W        W72885  23.769  10.727   4.132
 1160W        W72886  20.122  30.460  13.905
 1161W        W72887  14.749  11.721  12.441
 1162W        W72888  42.191  18.220   3.075
 1163W        W72889  31.914  20.044  12.004
 1164W        W72890  25.435   8.181  14.861
 1165W        W72891  14.045  35.619  11.927
 1166W        W72892  19.714  31.542   4.439
 1167W        W72893   3.348   1.913  11.131
 1168W        W72894  32.365  42.756  11.993
 1169W        W72895   0.578   1.853  13.849
 1170W        W72896   5.578  12.854  12.026
 1171W        W72897   2.900  35.077  10.770
 1172W        W72898   5.176   0.069  14.351
 1173W        W72899  37.944  25.500  12.011
 1174W        W72900  43.804  43.995   1.247
 1175W        W72901   8.892  35.794  12.182
 1176W        W72902  19.246  18.218   0.389
 1177W        W72903  27.445  35.083  13.588
 1178W        W72904  13.605  10.269  10.825
 1179W        W72905  44.768  22.790   4.189
 1180W        W72906   6.096  10.652  10.600
 1181W        W72907  13.697  17.763   1.202
 1182W        W72908  23.569  36.408   4.789
 1183W        W72909  18.781  18.648   3.647
 1184W        W72910  24.021  27.457   4.069
 1185W        W72911  22.625   2.556  10.544
 1186W        W72912   6.942  23.146   1.691
 1187W        W72913  41.820   7.042  14.587
 1188W        W72914  13.938  37.393  14.276
 1189W        W72915  15.730   7.321  13.772
 1190W        W72916   2.302  24.202  14.254
 1191W        W72917  10.392  37.119   2.167
 1192W        W72918   9.163  11.857   0.780
 1193W        W72919  25.653  21.737   4.739
 1194W        W72920   5.321   7.850  14.158
 1195W        W72921  29.503  28.871   0.382
 1196W        W72922  26.640  35.620  12.991
 1197W        W72923  23.757  34.565   2.680
 1198W        W72924  21.513  15.740   5.149
 1199W        W72925  43.539   7.937  12.484
 1200W        W72926  42.047  44.381  10.364
 1201W        W72927  11.808  28.723   1.814
 1202W        W72928  17.669   6.215  10.916
 1203W        W72929  34.629  15.089  14.809
 1204W        W72930   3.477   6.396   0.692
 1205W        W72931  21.211  28.170  14.955
 1206W        W72932   2.961  23.210   1.875
 1207W        W72933   5.256  40.421   3.088
 1208W        W72934  20.265  30.402  14.866
 1209W        W72935  26.170  35.905   1.268
 1210W        W72936  20.054  13.568   0.821
 1211W        W72937  10.205  23.014   1.349
 1212W        W72938  24.166   7.498   2.245
 1213W        W72939  42.530  29.202   2.766
 1214W        W72940  26.814   5.305   4.547
 1215W        W72941   4.840  34.088  13.421
 1216W        W72942  27.563  26.374   3.715
 1217W        W72943  23.523  21.640   0.825
 1218W        W72944  17.359  12.303  11.222
 1219W        W72945   7.617  40.872   1.380
 1220W        W72946  22.710  43.932  14.717
 1221W        W72947   6.794   8.117  14.868
 1222W        W72948  22.358   1.627   4.607
 1223W        W72949  15.523  25.964   3.721
 1224W        W72950  37.574   5.935   1.799
 1225W        W72951   4.912   8.685  13.535
 1226W        W72952  30.612  33.949   2.738
 1227W        W72953  12.648  42.903   2.666
 1228W        W72954  18.925  40.122   3.599
 1229W        W72955  44.385  37.971  10.888
 1230W        W72956   5.328  21.496  11.076
 1231W        W72957  34.524  34.097  14.314
 1232W        W72958  29.176  17.792  12.741
 1233W        W72959  26.513  39.597   2.108
 1234W        W72960   7.252   5.938  11.724
 1235W        W72961  12.346  10.996  12.389
 1236W        W72962  17.194  11.954   0.306
 1237W        W72963  33.097  22.812  13.417
 1238W        W72964   8.706  20.156  13.037
 1239W        W72965  33.471  23.444  11.564
 1240W        W72966  16.021  22.624   0.917
 1241W        W72967  22.162  44.099   1.252
 1242W        W72968   1.958  39.782   1.955
 1243W        W72969  42.797  34.805   3.682
 1244W        W72970   8.869  36.398  14.540
 1245W        W72971  40.984   0.894   1.144
 1246W        W72972   5.947  26.844   2.979
 1247W        W72973   1.224  42.666  12.442
 1248W        W72974   7.426  26.552   0.763
 1249W        W72975  36.471  34.825   3.105
 1250W        W72976  20.493  23.246   4.706
 1251W        W72977  15.104  21.615  11.139
 1252W        W72978   8.468   1.829  13.642
 1253W        W72979  15.804   4.039  11.622
 1254W        W72980  23.469  10.320   3.234
 1255W        W72981  35.823  14.129   1.301
 1256W        W72982  32.181  19.743  14.481
 1257W        W72983  43.554  25.620  12.392
 1258W        W72984  18.021   7.702  12.569
 1259W        W72985  23.329   4.816   0.800
 1260W        W72986  30.162  37.923  11.638
 1261W        W72987   8.224   5.690  10.146
 1262W        W72988  17.222  33.685   3.900
 1263W        W72989  30.505  20.841   3.322
 1264W        W72990  15.924   5.086   0.084
 1265W        W72991   8.310  13.088  14.398
 1266W        W72992  24.627   1.106   9.794
 1267W        W72993  12.196   7.292   4.207
 1268W        W72994   9.206  36.586  10.594
 1269W        W72995   6.128  27.450   2.603
 1270W        W72996   8.716  36.586  11.865
 1271W        W72997  29.666  42.492   3.568
 1272W        W72998  13.289  35.900  13.024
 1273W        W72999  22.581  30.891  11.597
 1274W        W73000   8.275  13.365  13.923
 1275W        W73001   1.308  29.931  10.710
 1276W        W73002  20.195  41.619  14.034
 1277W        W73003   7.281  35.494   2.008
 1278W        W73004  12.089  28.902   1.353
 1279W        W73005  20.831   6.182  12.910
 1280W        W73006  24.959  20.279  10.730
 1281W        W73007   2.478  30.004   4.793
 1282W        W73008  17.231   4.846   0.351
 1283W        W73009   9.398  42.033  13.456
 1284W        W73010  41.732   4.367   2.734
 1285W        W73011  34.107  11.136   0.734
 1286W        W73012  23.734  38.947  13.213
 1287W        W73013  19.951  15.381  12.087
 1288W        W73014  19.107  27.592  13.931
 1289W        W73015   3.673  16.342   4.313
 1290W        W73016  34.589  10.289   2.349
 1291W        W73017  11.765   6.708   2.615
 1292W        W73018  41.065   1.863  12.032
 1293W        W73019  36.600  20.836   1.224
 1294W        W73020  16.888  30.094   3.849
 1295W        W73021  32.560  17.644  11.382
 1296W        W73022  23.271  34.049  13.436
 1297W        W73023  30.893  25.517   4.564
 1298W        W73024   7.397  22.143  13.323
 1299W        W73025  12.987  43.331  14.089
 1300W        W73026  29.603   4.012  12.579
 1301W        W73027  39.607   4.006   1.393
 1302W        W73028  39.526  14.794   4.360
 1303W        W73029   8.726   6.086  10.702
 1304W        W73030  28.666  36.081   2.851
 1305W        W73031  18.067  37.391  11.030
 1306W        W73032   1.785  17.633  14.359
 1307W        W73033  14.082  10.859   0.811
 1308W        W73034  10.242  31.247   3.617
 1309W        W73035  36.391  17.069  14.979
 1310W        W73036  31.983   3.317   4.546
 1311W        W73037  33.032  15.313   3.809
 1312W        W73038   8.357  43.953   5.005
 1313W        W73039  24.106  41.042   2.797
 1314W        W73040  26.619  27.584   4.525
 1315W        W73041   8.247  25.531   0.932
 1316W        W73042  15.501  20.625   5.208
 1317W        W73043  20.493  26.150   1.766
 1318W        W73044   3.276  20.035  12.449
 1319W        W73045  20.967  30.901   4.611
 1320W        W73046   2.584   8.614  14.707
 1321W        W73047  16.042  22.698   4.633
 1322W        W73048  27.022   0.201  12.022
 1323W        W73049  31.276  25.532  12.413
 1324W        W73050   4.900  43.413   2.235
 1325W        W73051  35.367  30.127   2.916
 1326W        W73052  19.042   8.765  12.044
 1327W        W73053  30.904  10.316  14.522
 1328W        W73054  22.982   0.738   2.314
 1329W        W73055   6.851   1.718  11.162
 1330W        W73056   0.764  31.237   1.746
 1331W        W73057   1.758  25.194   1.263
 1332W        W73058  23.069  32.036   0.978
 1333W        W73059   4.287  40.197  12.825
 1334W        W73060   7.338  14.204  13.043
 1335W        W73061   4.423  22.857  12.689
 1336W        W73062  43.320  28.580   0.717
 1337W        W73063   9.706  23.996   0.444
 1338W        W73064  18.719  37.850  10.356
 1339W        W73065  23.052  19.981   3.876
 1340W        W73066   5.228  22.480  12.025
 1341W        W73067  16.824   6.239  14.805
 1342W        W73068  12.246  31.011   4.684
 1343W        W73069   4.757   1.542   4.498
 1344W        W73070  25.775  15.212   4.255
 1345W        W73071  31.117  33.973   0.869
 1346W        W73072  14.887   1.426  10.704
 1347W        W73073   8.836  32.416  10.290
 1348W        W73074   2.386  35.292  10.721
 1349W        W73075  16.262   8.227   3.355
 1350W        W73076  38.996  40.439  13.381
 1351W        W73077  42.427  32.051  13.771
 1352W        W73078  26.523  23.551  14.155
 1353W        W73079   9.051  32.150   1.413
 1354W        W73080  25.161  14.314   1.303
 1355W        W73081   3.011  34.360  14.963
 1356W        W73082  31.928  26.798   3.234
 1357W        W73083  22.973  26.575  11.518
 1358W        W73084  21.190  24.875   0.832
 1359W        W73085  20.262   7.720  14.832
 1360W        W73086  15.255  16.829   3.451
 1361W        W73087  12.343  31.166  10.470
 1362W        W73088   7.665  15.057   2.032
 1363W        W73089  43.137  32.770  11.715
 1364W        W73090  31.194   3.540  13.300
 1365W        W73091  25.151   2.076   2.781
 1366W        W73092  34.087   3.120  14.839
 1367W        W73093   1.101  17.724   3.705
 1368W        W73094   0.365   6.979  14.260
 1369W        W73095  13.297  11.385   2.654
 1370W        W73096  22.253  34.496  11.539
 1371W        W73097  19.530  41.064  14.503
 1372W        W73098  20.404   2.143  10.042
 1373W        W73099  14.897  12.489   2.463
 1374W        W73100   5.204  11.675   0.894
 1375W        W73101  10.987  14.404   0.828
 1376W        W73102  16.075  14.200   4.700
 1377W        W73103   8.112  22.757  12.143
 1378W        W73104   4.741  20.300  11.082
 1379W        W73105  15.995  33.051  12.485
 1380W        W73106  34.156   9.101   4.210
 1381W        W73107  22.991  23.557   1.939
 1382W        W73108  30.143   8.441   1.857
 1383W        W73109   3.665   0.270   4.553
 1384W        W73110  34.046  40.800  13.585
 1385W        W73111  35.299  44.204  13.229
 1386W        W73112  36.860  18.571   2.238
 1387W        W73113   6.785  39.691   0.269
 1388W        W73114  36.930   7.353  14.693
 1389W        W73115  30.528  11.911   4.593
 1390W        W73116  29.137  20.008   2.303
 1391W        W73117  14.510  33.041   2.265
 1392W        W73118  18.664  26.021   4.678
 1393W        W73119  29.456  10.635  11.265
 1394W        W73120  35.613  13.644   0.036
 1395W        W73121   4.736  17.113   2.576
 1396W        W73122  22.380   0.081   2.186
 1397W        W73123   2.488  11.062   2.194
 1398W        W73124  43.207  27.526   4.573
 1399W        W73125  31.606  28.184  12.064
 1400W        W73126   4.008   6.785   5.424
 1401W        W73127  30.431  41.934  12.751
 1402W        W73128  30.701  32.019   0.765
 1403W        W73129  32.194  28.138  13.756
 1404W        W73130   3.625  41.562  12.794
 1405W        W73131   7.444  29.125  14.530
 1406W        W73132   1.255  36.583  14.409
 1407W        W73133  26.030  31.134   4.642
 1408W        W73134  24.052   3.204  10.140
 1409W        W73135  24.907  10.066   2.731
 1410W        W73136  18.021  14.391   1.859
 1411W        W73137  13.301  32.158   4.204
 1412W        W73138  19.797  35.052   0.686
 1413W        W73139  21.508  38.691   4.224
 1414W        W73140  22.057   3.398  13.631
 1415W        W73141  24.995  20.155  11.644
 1416W        W73142  11.294   8.197   0.217
 1417W        W73143  23.147   1.301  14.522
 1418W        W73144  37.019  17.642  13.814
 1419W        W73145   3.417  38.386   3.256
 1420W        W73146   2.212  18.594  12.592
 1421W        W73147  33.834  33.742   1.397
 1422W        W73148  44.579  22.451  12.496
 1423W        W73149  37.888  30.183  12.506
 1424W        W73150  17.330  41.561  12.454
 1425W        W73151   4.406  28.636  12.865
 1426W        W73152  13.361  42.309   0.955
 1427W        W73153  25.562  29.736   1.161
 1428W        W73154  29.112  44.417   0.996
 1429W        W73155  32.680  15.827   1.759
 1430W        W73156  39.587  30.413   0.727
 1431W        W73157  11.603  14.704   4.245
 1432W        W73158  33.626   3.446  11.986
 1433W        W73159  29.918  44.059   2.829
 1434W        W73160  23.518  30.603   3.114
 1435W        W73161  20.998  42.500   3.868
 1436W        W73162   7.901  34.545   2.214
 1437W        W73163  32.862  16.726   3.084
 1438W        W73164  36.532  40.451   1.332
 1439W        W73165  35.961  40.966  14.765
 1440W        W73166   9.710  34.474  13.177
 1441W        W73167  39.043  21.055   0.489
 1442W        W73168  10.557  40.463   1.985
 1443W        W73169  19.572  13.281  14.147
 1444W        W73170  23.324  25.189  12.087
 1445W        W73171  22.558  22.643  10.209
 1446W        W73172  25.033  31.281   4.230
 1447W        W73173  35.527  32.846  14.840
 1448W        W73174  31.946  23.669   0.998
 1449W        W73175   8.942  11.387   0.955
 1450W        W73176  20.315  41.805  13.014
 1451W        W73177  31.464  14.319  10.724
 1452W        W73178   1.365   7.390   4.278
 1453W        W73179  34.473  12.379   1.962
 1454W        W73180  39.328  39.817   0.889
 1455W        W73181  42.392  28.173  14.940
 1456W        W73182  16.702  26.260   1.044
 1457W        W73183  39.083   1.515   1.721
 1458W        W73184   3.516  16.612   2.809
 1459W        W73185  18.546  17.182  11.574
 1460W        W73186  37.326  18.083  12.994
 1461W        W73187  16.582  27.680   1.423
 1462W        W73188  36.832  40.803  12.035
 1463W        W73189  31.579   4.842  12.971
 1464W        W73190  12.852   0.078   3.755
 1465W        W73191  25.354  37.896   0.892
 1466W        W73192  32.605  33.223   4.499
 1467W        W73193   9.290  27.521   1.312
 1468W        W73194   5.494  13.817  10.629
 1469W        W73195   9.754   2.784  12.617
 1470W        W73196  15.501  36.966  11.613
 1471W        W73197   6.458   3.888   3.334
 1472W        W73198  11.146  11.938  13.773
 1473W        W73199  44.745  29.084  12.090
 1474W        W73200  38.233  34.018  10.994
 1475W        W73201  43.746  10.472   4.521
 1476W        W73202  32.468   2.945   1.354
 1477W        W73203  43.408  13.878   4.636
 1478W        W73204  37.285  43.265  14.172
 1479W        W73205   0.818  37.769   4.314
 1480W        W73206  39.856  20.299   1.275
 1481W        W73207  19.819  39.340   2.245
 1482W        W73208  27.203  44.009  13.003
 1483W        W73209  28.522  35.086   2.873
 1484W        W73210  37.637   6.216  14.281
 1485W        W73211   7.718  43.344  10.720
 1486W        W73212  11.751  13.097   2.725
 1487W        W73213  38.444   0.920   1.759
 1488W        W73214  12.327  38.100   4.508
 1489W        W73215   5.599   2.696   2.787
 1490W        W73216   7.212   4.860   5.387
 1491W        W73217   6.074  15.558  11.847
 1492W        W73218  14.214   7.668  13.760
 1493W        W73219  16.113  29.632   2.659
 1494W        W73220  24.628  14.266   1.821
 1495W        W73221  40.112  41.309   2.134
 1496W        W73222  22.066  39.969   2.614
 1497W        W73223  33.627   2.706   0.539
 1498W        W73224   5.820  34.519   0.461
 1499W        W73225  28.950  20.458  13.679
 1500W        W73226  25.590  16.360   2.649
 1501W        W73227  32.437  12.858  10.601
 1502W        W73228   9.252  29.536  14.370
 1503W        W73229  36.015  38.366  13.430
 1504W        W73230  20.037  26.798  10.862
 1505W        W73231   2.769  14.224   0.141
 1506W        W73232   7.800  30.027  10.727
 1507W        W73233   1.583  28.112  13.371
 1508W        W73234  34.063  43.226   1.877
 1509W        W73235  34.988   5.666  14.879
 1510W        W73236   0.256  17.358  13.608
 1511W        W73237  26.503  34.441  10.576
 1512W        W73238  27.121   0.410   1.045
 1513W        W73239  43.329   7.104   4.379
 1514W        W73240  22.239  29.096  13.453
 1515W        W73241  34.468  41.516  11.104
 1516W        W73242  29.142  16.131   3.670
 1517W        W73243  15.714  23.800   4.851
 1518W        W73244  42.644  32.659  11.583
 1519W        W73245  40.940   0.041   1.358
 1520W        W73246   5.478  17.146  13.345
 1521W        W73247  29.485  37.773   0.476
 1522W        W73248  13.594  42.780  13.857
 1523W        W73249  30.984   7.353  11.512
 1524W        W73250  42.450  43.388  12.294
 1525W        W73251  23.466  27.038  13.557
 1526W        W73252   3.950  11.901   0.656
 1527W        W73253  17.971  35.491   4.908
 1528W        W73254   3.206   8.844   2.097
 1529W        W73255  21.837  43.958   4.498
 1530W        W73256  30.041  40.478  14.962
 1531W        W73257  35.491  42.611  11.142
 1532W        W73258  15.644  24.405  11.889
 1533W        W73259  39.513  44.482   0.444
 1534W        W73260  31.104  23.701  14.382
 1535W        W73261  15.914  35.948   3.402
 1536W        W73262  15.281  43.495   1.198
 1537W        W73263  19.996   6.577   2.243
 1538W        W73264  25.694   5.538   2.231
 1539W        W73265  11.576  39.981  14.839
 1540W        W73266  33.895   5.277  12.006
 1541W        W73267  43.684   0.417   1.273
 1542W        W73268  13.677  12.110  12.523
 1543W        W73269   5.728  27.231   3.353
 1544W        W73270   1.412  34.553  14.296
 1545W        W73271   8.925  12.698  12.156
 1546W        W73272  27.581  25.824  13.458
 1547W        W73273  17.153  43.448  10.700
 1548W        W73274   7.763  37.525  14.485
 1549W        W73275  15.183   4.432  13.542
 1550W        W73276  25.127   0.926  13.482
 1551W        W73277   4.491  28.878  13.328
 1552W        W73278  25.292  11.827  11.052
 1553W        W73279  39.513   8.224  12.184
 1554W        W73280  24.165  27.392   0.980
 1555W        W73281  37.843   0.297  14.333
 1556W        W73282   2.526  33.490   3.619
 1557W        W73283  36.895  27.987  11.641
 1558W        W73284  22.126  28.734   0.303
 1559W        W73285  21.459  20.550  13.890
 1560W        W73286  23.688  14.029   0.253
 1561W        W73287  36.345  24.772  13.588
 1562W        W73288  17.857  37.540  12.353
 1563W        W73289  36.985   7.506   4.341
 1564W        W73290  18.500  20.999  12.444
 1565W        W73291  16.872   7.050   3.914
 1566W        W73292   6.906  16.355   2.793
 1567W        W73293  20.551  10.830   4.045
 1568W        W73294  18.292   1.081   2.074
 1569W        W73295  22.987  17.615   0.409
 1570W        W73296   1.723   9.078  11.837
 1571W        W73297  44.327   7.099   3.375
 1572W        W73298  22.632   2.959  10.960
 1573W        W73299   7.663  12.674  13.829
 1574W        W73300  24.640  18.275  11.601
 1575W        W73301  14.104   9.787   2.786
 1576W        W73302  37.595   5.353   0.208
 1577W        W73303  42.352  35.307  11.880
 1578W        W73304   2.766  40.546  11.634
 1579W        W73305  30.267   6.983   2.359
 1580W        W73306  30.037  13.473  12.128
 1581W        W73307   8.452  24.657  14.534
 1582W        W73308  22.289  44.518   1.500
 1583W        W73309  42.418  23.718   2.893
 1584W        W73310   2.731  19.633   2.401
 1585W        W73311  26.127  34.867  14.919
 1586W        W73312  39.436  24.093  14.014
 1587W        W73313  24.102  37.086   4.683
 1588W        W73314  19.997   2.999  11.121
 1589W        W73315  41.546  15.732   0.591
 1590W        W73316  10.095  22.621   3.181
 1591W        W73317   6.870   3.155  14.097
 1592W        W73318  44.911   4.260   3.236
 1593W        W73319  25.679  28.316  14.524
 1594W        W73320  40.916  32.080   2.386
 1595W        W73321  25.733  38.073  13.161
 1596W        W73322  39.949  38.834  13.443
 1597W        W73323  40.577  31.595   0.892
 1598W        W73324  16.716  29.565   0.845
 1599W        W73325  25.877  19.565   3.678
 1600W        W73326  30.942  27.133   0.197
 1601W        W73327  18.220  27.556   3.182
 1602W        W73328  13.272  17.202   0.898
 1603W        W73329  25.167  37.126  14.386
 1604W        W73330  13.529  33.608  11.371
 1605W        W73331   3.452   4.801   3.245
 1606W        W73332  27.145  29.577  13.945
 1607W        W73333  17.036   8.195   0.866
 1608W        W73334   5.225  28.480   2.993
 1609W        W73335  22.868  41.564  13.119
 1610W        W73336  31.428  20.622   3.736
 1611W        W73337  25.734  39.819   2.106
 1612W        W73338  26.626  24.062  11.614
 1613W        W73339  10.918  13.728  14.936
 1614W        W73340  41.300  13.734  12.625
 1615W        W73341  19.251  13.730   0.399
 1616W        W73342  37.369   5.681  13.409
 1617W        W73343  37.307   9.928   0.412
 1618W        W73344  27.259  39.437  10.550
 1619W        W73345  35.047  13.725   1.492
 1620W        W73346  41.586  31.556  14.926
 1621W        W73347  35.216  19.204   4.558
 1622W        W73348  26.585  36.012  13.316
 1623W        W73349  17.991   5.924  13.053
 1624W        W73350  36.319  18.149  12.010
 1625W        W73351   1.320  42.105   0.253
 1626W        W73352  39.317  33.721  12.306
 1627W        W73353  32.900  22.600  13.002
 1628W        W73354  44.546  33.128   3.599
 1629W        W73355  16.026  15.277   1.814
 1630W        W73356  22.007  42.816  12.200
 1631W        W73357  33.983   7.144  14.794
 1632W        W73358   2.744  17.657  12.168
 1633W        W73359  39.545  15.172   3.294
 1634W        W73360  32.894  14.667   1.395
 1635W        W73361  21.305  11.917   2.832
 1636W        W73362  37.571  34.720  13.338
 1637W        W73363  15.821  17.619  14.507
 1638W        W73364  19.625  31.840   4.026
 1639W        W73365  37.530  19.946   3.868
 1640W        W73366  18.033  24.037   2.103
 1641W        W73367  40.985  41.481   1.339
 1642W        W73368  24.056   1.044  12.429
 1643W        W73369   9.697   0.995   0.903
 1644W        W73370  35.268  26.015   3.282
 1645W        W73371  44.942  30.675  10.604
 1646W        W73372  27.650  23.530  10.609
 1647W        W73373   8.139  18.062   1.794
 1648W        W73374  31.793  38.139  11.078
 1649W        W73375  38.919  33.996   4.310
 1650W        W73376  35.399  39.764   3.115
 1651W        W73377  20.865   2.857   2.702
 1652W        W73378  23.709  20.016   2.240
 1653W        W73379   1.244  21.187   2.381
 1654W        W73380  30.880  16.047   3.721
 1655W        W73381  43.773  16.675  14.413
 1656W        W73382  36.495   0.416   4.178
 1657W        W73383  34.898  24.987  10.259
 1658W        W73384   7.066  40.658  11.125
 1659W        W73385  20.162  14.544   2.974
 1660W        W73386  31.705  43.249   3.023
 1661W        W73387  10.714  24.781   1.320
 1662W        W73388  28.160  26.626  11.430
 1663W        W73389  44.483  20.473  12.409
 1664W        W73390  35.314   9.938   1.690
 1665W        W73391  37.541  21.559   3.294
 1666W        W73392  15.840   9.628   1.291
 1667W        W73393  10.837  13.097  14.412
 1668W        W73394   8.223  42.927  13.330
 1669W        W73395  41.877   7.403   0.415
 1670W        W73396  31.034  40.464   3.607
 1671W        W73397  11.153  10.966   4.103
 1672W        W73398  15.680  32.419   1.696
 1673W        W73399   5.192  43.858  11.964
 1674W        W73400  19.249   6.751   4.323
 1675W        W73401   3.430  27.858  10.812
 1676W        W73402  38.914  32.082  10.657
 1677W        W73403  42.008   0.473  11.386
 1678W        W73404   5.348  25.606   3.665
 1679W        W73405   6.531  29.070  11.767
 1680W        W73406   9.827   9.342  13.842
 1681W        W73407  23.929   2.207   3.707
 1682W        W73408  14.148   1.504  10.854
 1683W        W73409  31.142  29.830  11.941
 1684W        W73410  34.413  44.696   2.402
 1685W        W73411  43.499  26.232   1.274
 1686W        W73412  19.699  29.616  14.540
 1687W        W73413  28.359  43.900   0.911
 1688W        W73414   8.253  29.502  12.408
 1689W        W73415  15.107   9.380   0.709
 1690W        W73416  22.601   5.425   0.393
 1691W        W73417   8.477  23.688  14.727
 1692W        W73418  23.207   1.147   1.201
 1693W        W73419  24.001   7.915  10.977
 1694W        W73420  33.569  36.109  13.535
 1695W        W73421  29.946   3.516   2.970
 1696W        W73422  37.354  30.110   2.214
 1697W        W73423  20.019  39.850   1.228
 1698W        W73424   8.309  35.638   0.431
 1699W        W73425  35.436  22.763   1.930
 1700W        W73426  29.345  19.806  12.038
 1701W        W73427  22.938  35.657   4.132
 1702W        W73428  35.645  17.554   4.158
 1703W        W73429  42.402  27.983   3.322
 1704W        W73430  12.386  37.942  14.078
 1705W        W73431  21.713  10.857  14.318
 1706W        W73432  19.082  37.491  10.652
 1707W        W73433  23.970   1.966  11.644
 1708W        W73434  13.646  21.664  14.528
 1709W        W73435   8.294  33.604   0.964
 1710W        W73436  39.564  38.031   4.220
 1711W        W73437  44.446  28.456  14.668
 1712W        W73438  38.544  18.705   0.351
 1713W        W73439  22.389  14.973   1.914
 1714W        W73440  22.497  12.103  10.950
 1715W        W73441   4.763  36.671  12.307
 1716W        W73442   6.311  29.899  12.233
 1717W        W73443  31.068  13.155  13.276
 1718W        W73444  10.818  37.861  10.611
 1719W        W73445   7.459   7.722  11.927
 1720W        W73446  28.253  18.870  11.663
 1721W        W73447  14.727  17.925   2.806
 1722W        W73448  24.841  16.890  12.843
 1723W        W73449  26.868   1.841   0.440
 1724W        W73450  26.507  39.169   0.751
 1725W        W73451  42.776  32.935   3.220
 1726W        W73452  15.858  21.992  10.632
 1727W        W73453   3.401  22.825  11.201
 1728W        W73454  21.912  38.787  12.048
 1729W        W73455  12.093  21.652  14.511
 1730W        W73456   8.231  42.283   3.964
 1731W        W73457   6.987  18.087   3.000
 1732W        W73458  26.815  43.239   3.528
 1733W        W73459   6.601  29.132   1.335
 1734W        W73460  22.105  15.358  14.076
 1735W        W73461  32.678  35.061   4.712
 1736W        W73462  21.174  20.482  11.142
 1737W        W73463  10.214  34.041   3.357
 1738W        W73464  21.736  22.825   4.570
 1739W        W73465   0.814  26.298  13.574
 1740W        W73466  36.012  37.197   1.340
 1741W        W73467  10.077   0.695   0.651
 1742W        W73468  19.033  35.817   2.511
 1743W        W73469  40.809  23.283  12.111
 1744W        W73470   1.790  28.065  14.909
 1745W        W73471  18.976   1.871  10.878
 1746W        W73472   3.905  36.934  14.386
 1747W        W73473  11.517  27.749   2.882
 1748W        W73474   9.841  16.162  13.122
 1749W        W73475  19.165   2.032   3.330
 1750W        W73476   5.204  20.107  13.890
 1751W        W73477  40.428   5.215   1.342
 1752W        W73478  32.443  34.479  11.994
 1753W        W73479  17.771  22.713   4.248
 1754W        W73480  40.914  34.172  11.066
 1755W        W73481  36.907   4.015  10.978
 1756W        W73482  23.497  35.243  13.994
 1757W        W73483  20.533  38.951   4.119
 1758W        W73484  44.956  38.484  10.414
 1759W        W73485   5.406   3.425   5.089
 1760W        W73486  10.618  17.103   2.379
 1761W        W73487   1.897  11.626   4.116
 1762W        W73488  17.653  10.858   0.568
 1763W        W73489  38.920  12.102   1.283
 1764W        W73490  35.951  28.193  11.972
 1765W        W73491  32.370  15.849   4.168
 1766W        W73492  39.285   0.407  12.066
 1767W        W73493  19.502   8.631   0.467
 1768W        W73494  14.789   0.725  14.709
 1769W        W73495  36.980  11.148  11.638
 1770W        W73496  10.571  39.795   4.146
 1771W        W73497  22.006  29.896   2.780
 1772W        W73498  42.497  27.980  12.658
 1773W        W73499   6.810  16.780  10.967
 1774W        W73500   1.984  42.358   4.214
 1775W        W73501  40.423   9.650   2.245
 1776W        W73502  12.234  15.838  10.348
 1777W        W73503  33.668   2.530  11.090
 1778W        W73504  24.161   7.960   1.398
 1779W        W73505  16.815  28.998   1.677
 1780W        W73506  24.996  42.313  10.545
 1781W        W73507  42.982   9.216   3.997
 1782W        W73508  15.831  10.270  11.205
 1783W        W73509  22.993  21.259  13.845
 1784W        W73510  35.610   8.128   4.130
 1785W        W73511  28.356  20.566   0.575
 1786W        W73512  13.226  10.408   1.584
 1787W        W73513  26.880  10.084   1.975
 1788W        W73514   1.396  17.216  11.677
 1789W        W73515  38.967  40.284   1.338
 1790W        W73516  17.802  39.537  13.304
 1791W        W73517  10.677  23.306  11.496
 1792W        W73518  21.978  29.404   0.802
 1793W        W73519  38.318  12.274   0.337
 1794W        W73520  10.629   9.341  13.488
 1795W        W73521   3.472  33.361  13.787
 1796W        W73522  15.526  11.083   3.292
 1797W        W73523  14.185  26.491  14.015
 1798W        W73524  25.951  29.939   0.238
 1799W        W73525  37.570  36.395  10.484
 1800W        W73526  11.312  34.609  11.877
 1801W        W73527   2.183   7.393   4.010
 1802W        W73528  20.269  27.148  14.533
 1803W        W73529  43.351  23.681  13.867
 1804W        W73530  25.312  39.554  13.560
 1805W        W73531  43.926  16.315   1.252
 1806W        W73532  24.665  24.764  11.937
 1807W        W73533   9.249  12.583   3.822
 1808W        W73534  24.669  14.272  11.895
 1809W        W73535  16.689  40.302   3.251
 1810W        W73536   5.534  30.483  10.637
 1811W        W73537  16.208  31.028   2.399
 1812W        W73538  15.636  12.137  11.139
 1813W        W73539   6.014  22.143  11.673
 1814W        W73540  33.855  38.865   2.767
 1815W        W73541  41.945  11.639  11.011
 1816W        W73542  29.979  34.388  11.464
 1817W        W73543   7.335   4.279   2.196
 1818W        W73544  22.776  35.523   3.644
 1819W        W73545  21.634   4.862  11.604
 1820W        W73546  13.542   0.582  13.934
 1821W        W73547   9.152  36.155   3.677
 1822W        W73548  41.308  39.746   4.420
 1823W        W73549  19.368  37.063  10.641
 1824W        W73550  36.326  44.359   2.586
 1825W        W73551  20.144  40.052   2.911
 1826W        W73552   9.535  40.722  14.411
 1827W        W73553  37.400  17.786   2.231
 1828W        W73554  38.307  13.822   0.742
 1829W        W73555   6.751  20.680   2.754
 1830W        W73556  37.100  25.763   1.238
 1831W        W73557  44.210   9.513  11.206
 1832W        W73558  44.525  36.097  13.533
 1833W        W73559  23.906  28.939  13.878
 1834W        W73560  34.408  17.780  12.576
 1835W        W73561  44.380  20.411   2.710
 1836W        W73562  31.004  10.875  11.075
 1837W        W73563  18.305  43.865  12.969
 1838W        W73564  13.580  20.868   1.011
 1839W        W73565  36.792  14.206  13.680
 1840W        W73566  31.343  25.485  11.555
 1841W        W73567  25.033  26.637  14.849
 1842W        W73568  27.906  34.039  12.976
 1843W        W73569  17.234  40.024   2.757
 1844W        W73570  20.510  40.078  14.457
 1845W        W73571  18.499  28.686  13.789
 1846W        W73572  17.188  16.875  14.372
 1847W        W73573  40.345  21.270   3.187
 1848W        W73574  35.489  10.619  13.594
 1849W        W73575  18.254  27.516  12.075
 1850W        W73576   1.454  34.050  11.894
 1851W        W73577   6.449  18.057  11.880
 1852W        W73578   0.916  28.614   0.004
 1853W        W73579  29.631  43.199   4.134
 1854W        W73580  16.729  42.762  14.734
 1855W        W73581  42.374  39.597   4.012
 1856W        W73582   2.703  13.211   2.640
 1857W        W73583  38.944   0.664  13.329
 1858W        W73584  36.839  31.546   4.450
 1859W        W73585  10.040  35.045  10.296
 1860W        W73586  31.021  40.618   1.310
 1861W        W73587  32.560   9.809   0.169
 1862W        W73588  42.067   3.959  11.096
 1863W        W73589  37.386  11.616  12.421
 1864W        W73590  17.617   1.549  14.325
 1865W        W73591  38.990  37.108  12.520
 1866W        W73592  24.942  21.619   1.596
 1867W        W73593  14.168  31.575   1.966
 1868W        W73594   2.094  28.663   3.081
 1869W        W73595  15.862  19.808   0.790
 1870W        W73596  38.988  35.814   3.919
 1871W        W73597  32.251  22.024   2.180
 1872W        W73598  14.404   2.306   1.981
 1873W        W73599   7.087  38.037  11.726
 1874W        W73600  33.086  42.525  11.009
 1875W        W73601  44.964  10.873  13.700
 1876W        W73602  39.654  18.686   2.303
 1877W        W73603  21.729  28.714   3.822
 1878W        W73604  27.178  37.557   1.700
 1879W        W73605  22.167  20.593   4.468
 1880W        W73606  35.889  21.475   3.508
 1881W        W73607  41.230  34.352   3.335
 1882W        W73608   3.028  38.866  13.152
 1883W        W73609  40.371  31.555  13.698
 1884W        W73610  24.203  30.953  12.172
 1885W        W73611  42.499  20.260  13.953
 1886W        W73612  28.110   0.967  13.056
 1887W        W73613  33.585   9.346   3.534
 1888W        W73614  38.442  27.499   3.770
 1889W        W73615   7.578  10.539  12.995
 1890W        W73616  19.658  30.827   3.084
 1891W        W73617  13.062   2.960   4.121
 1892W        W73618  29.014  40.939  11.258
 1893W        W73619   7.249  17.586  14.519
 1894W        W73620   8.389  15.535   3.182
 1895W        W73621  20.270   0.229  11.060
 1896W        W73622  30.961  23.058  14.631
 1897W        W73623   5.820  41.732  10.553
 1898W        W73624   8.039  43.825  12.480
 1899W        W73625   9.378  15.559   1.594
 1900W        W73626  15.322  11.580  13.780
 1901W        W73627  27.765   0.489  13.949
 1902W        W73628  33.183  20.065   1.757
 1903W        W73629  22.295   8.866   1.414
 1904W        W73630  19.861  27.186  11.165
 1905W        W73631  40.253  18.068   1.288
 1906W        W73632  10.303  34.282  10.181
 1907W        W73633  24.151  30.588  10.618
 1908W        W73634  37.312   8.264  14.977
 1909W        W73635  32.855   6.453   4.276
 1910W        W73636  36.075  18.280   3.631
 1911W        W73637  30.106  15.130  11.669
 1912W        W73638  35.110  39.170  10.323
 1913W        W73639  22.264  19.839  11.243
 1914W        W73640  43.317  19.485  12.013
 1915W        W73641  43.896  43.738  12.549
 1916W        W73642  18.696   2.019   1.720
 1917W        W73643  16.360   6.333  11.223
 1918W        W73644  38.504   3.043   0.973
 1919W        W73645  14.153  10.741  14.777
 1920W        W73646  32.094  23.973   4.629
 1921W        W73647  18.721   0.335   3.522
 1922W        W73648  24.316  37.485  10.373
 1923W        W73649  42.114  27.209  11.143
 1924W        W73650  30.043  20.904   2.728
 1925W        W73651  13.689  32.410  13.238
 1926W        W73652   7.472  13.934  10.900
 1927W        W73653   7.655  20.909   0.813
 1928W        W73654  32.070  31.194  13.024
 1929W        W73655   3.406  19.672   1.782
 1930W        W73656  31.060  24.679  13.246
 1931W        W73657  16.531   8.273  11.466
 1932W        W73658  33.579  12.813   0.945
 1933W        W73659  13.396  41.076  14.092
 1934W        W73660  42.182  31.395  11.031
 1935W        W73661  30.422  41.454   2.640
 1936W        W73662   3.441  25.534   3.209
 1937W        W73663  40.793   6.600  11.978
 1938W        W73664  36.963  44.814  12.931
 1939W        W73665  23.542  21.891   1.425
 1940W        W73666  15.671   4.299   4.396
 1941W        W73667  34.251   6.839   4.394
 1942W        W73668  35.974  40.307   4.631
 1943W        W73669  17.461   9.726   0.935
 1944W        W73670  40.353  33.240   0.683
 1945W        W73671  18.099  34.730  11.237
 1946W        W73672  12.812   3.701   0.861
 1947W        W73673  38.115  34.582   4.532
 1948W        W73674  23.078  26.528   5.088
 1949W        W73675  12.873  29.546  10.672
 1950W        W73676  42.001  30.320  13.366
 1951W        W73677   4.931   1.051  13.328
 1952W        W73678  11.433  37.056  13.055
 1953W        W73679  33.138  43.802   4.925
 1954W        W73680  17.658  12.065  14.457
 1955W        W73681  38.357  29.053   2.216
 1956W        W73682  10.694  28.095  10.443
 1957W        W73683  21.170   8.241   1.170
 1958W        W73684  33.242   7.394   2.951
 1959W        W73685   9.518  12.435  11.068
 1960W        W73686  34.663  42.624   4.215
 1961W        W73687  34.314  38.411  12.890
 1962W        W73688   4.235   3.775  12.434
 1963W        W73689  18.113   4.882  11.235
 1964W        W73690  21.512   3.812   4.091
 1965W        W73691   8.284  37.114  13.487
 1966W        W73692   8.106  19.043  14.747
 1967W        W73693  36.731   4.676   0.862
 1968W        W73694   1.387  35.690  11.536
 1969W        W73695  11.798  24.900  12.052
 1970W        W73696  43.473  41.780   4.809
 1971W        W73697  12.805  42.357  11.950
 1972W        W73698  19.244  10.761  14.293
 1973W        W73699   6.901  23.489  12.474
 1974W        W73700  12.591  30.170   4.006
 1975W        W73701  11.726  44.048   3.340
 1976W        W73702  26.939   2.269  13.787
 1977W        W73703  24.532   0.917   4.947
 1978W        W73704   9.305  20.690  13.441
 1979W        W73705  16.882  41.289   2.959
 1980W        W73706   5.456  39.310  13.433
 1981W        W73707  12.739   0.739   3.737
 1982W        W73708  19.295  17.135   2.901
 1983W        W73709  42.915   3.868  12.501
 1984W        W73710  12.269   2.831  12.114
 1985W        W73711   6.225  25.067   1.313
 1986W        W73712  28.464  25.974   0.298
 1987W        W73713  21.933  28.649   3.320
 1988W        W73714  42.947  23.102  12.634
 1989W        W73715  35.564  43.052   4.334
 1990W        W73716   8.362  26.684   2.813
 1991W        W73717  44.714  38.568  14.768
 1992W        W73718  27.435  36.804  14.145
 1993W        W73719   7.125  30.354  14.401
 1994W        W73720  40.822   7.226   2.823
 1995W        W73721  18.633  11.125  11.621
 1996W        W73722  24.999  24.871   2.133
 1997W        W73723  37.113  13.791  13.785
 1998W        W73724  40.799  22.338  11.706
 1999W        W73725  10.362  39.879   4.960
 2000W        W73726  27.910  39.838  12.030
 2001W        W73727  41.269  31.922  14.035
 2002W        W73728  27.411   2.465  13.741
 2003W        W73729  15.553  16.041   4.564
 2004W        W73730   4.535  38.695  14.339
 2005W        W73731  35.877   8.568  11.329
 2006W        W73732   3.724  20.639   0.475
 2007W        W73733   4.213  40.725  12.940
 2008W        W73734  16.533  33.223  13.823
 2009W        W73735  26.915  29.580  12.035
 2010W        W73736  32.575  31.617  12.427
 2011W        W73737   3.764  39.616  13.126
 2012W        W73738  43.946  34.569   4.439
 2013W        W73739  30.909   0.390  12.613
 2014W        W73740   5.212  32.017  14.713
 2015W        W73741  40.392   3.911  11.170
 2016W        W73742  31.465  40.845  14.550
 2017W        W73743  43.071   5.189   4.643
 2018W        W73744   8.797  35.830   0.349
 2019W        W73745  10.749  14.452   2.247
 2020W        W73746  21.457  30.666   0.413
 2021W        W73747   8.126  23.679   3.221
 2022W        W73748  20.799  20.552  11.475
 2023W        W73749  42.179  41.320  14.610
 2024W        W73750   0.328  44.807  13.436
 2025W        W73751  30.516  33.841  11.986
 2026W        W73752  17.705  43.513   0.798
 2027W        W73753  40.727  17.733   3.121
 2028W        W73754  11.227  42.596  11.110
 2029W        W73755   8.555  14.820  10.473
 2030W        W73756  21.723  43.926  12.921
 2031W        W73757  25.303  13.828   0.750
 2032W        W73758  23.659   8.830  12.896
 2033W        W73759  36.865  34.192  13.862
 2034W        W73760   6.452  42.731   0.729
 2035W        W73761  19.285  27.719   4.676
 2036W        W73762  43.509  35.935   2.454
 2037W        W73763  27.575  37.783   3.889
 2038W        W73764  44.474  38.102   0.477
 2039W        W73765   5.877  29.666  12.880
 2040W        W73766  24.403  11.193   1.302
 2041W        W73767   1.753   9.335   2.778
 2042W        W73768  41.092   2.185  14.243
 2043W        W73769  17.708  43.748  11.763
 2044W        W73770  26.013   8.836  11.138
 2045W        W73771  39.038   3.778  12.556
 2046W        W73772  21.804   8.710   1.661
 2047W        W73773  32.110  38.929  10.680
 2048W        W73774  38.851  36.568   1.520
 2049W        W73775  29.299  33.501  11.450
 2050W        W73776   9.775  27.592   1.650
 2051W        W73777  20.790  29.679   2.271
 2052W        W73778   8.875  21.156   2.177
 2053W        W73779  10.229  29.452   4.597
 2054W        W73780   2.374  14.881  14.057
 2055W        W73781  40.535  23.497   0.405
 2056W        W73782   9.635  17.605  12.827
 2057W        W73783   9.392  25.606   0.627
 2058W        W73784  17.161  12.746   1.249
 2059W        W73785  36.535  11.796  11.485
 2060W        W73786  44.220  17.634   2.220
 2061W        W73787  21.222  26.990   3.249
 2062W        W73788  31.037   2.542   0.681
 2063W        W73789   7.007  20.038  14.337
 2064W        W73790  42.415  43.471   0.218
 2065W        W73791  21.829  23.459   5.189
 2066W        W73792   9.576   8.442  11.163
 2067W        W73793  31.097  34.432  14.268
 2068W        W73794   2.522   0.724  14.297
 2069W        W73795  36.108   7.368   1.267
 2070W        W73796  27.708  41.589  12.441
 2071W        W73797  44.274  37.531   3.622
 2072W        W73798  24.634  13.396  11.098
 2073W        W73799   3.707   9.141   2.703
 2074W        W73800  35.007   5.629   3.247
 2075W        W73801  10.321  33.771   4.828
 2076W        W73802  21.230   7.865  11.589
 2077W        W73803  34.456   1.714   2.373
 2078W        W73804  37.027  44.970   1.291
 2079W        W73805  27.893  28.072  13.524
 2080W        W73806   7.792   4.712   4.068
 2081W        W73807   2.274   7.364   0.409
 2082W        W73808  42.292   3.336  13.615
 2083W        W73809  18.782  27.460  10.470
 2084W        W73810  38.494  27.283   3.208
 2085W        W73811  28.132  37.388   2.877
 2086W        W73812  38.946   0.740   0.204
 2087W        W73813   7.456  28.443  12.677
 2088W        W73814  43.204  19.053  12.754
 2089W        W73815  41.038  14.725  12.089
 2090W        W73816  29.675  19.719  10.767
 2091W        W73817  33.653   8.728  13.950
 2092W        W73818  16.553   4.600   2.934
 2093W        W73819   8.148  38.896  14.893
 2094W        W73820  28.753  37.557  14.708
 2095W        W73821   1.273   2.573   4.951
 2096W        W73822  10.765   9.458  12.668
 2097W        W73823  27.021  33.012   3.719
 2098W        W73824  38.797  27.977   4.906
 2099W        W73825  29.072  42.922  14.387
 2100W        W73826   9.126  13.990  13.058
 2101W        W73827  20.132  23.304   0.871
 2102W        W73828  19.069  36.592  10.725
 2103W        W73829   3.697  25.737  13.440
 2104W        W73830  29.411  37.667   1.738
 2105W        W73831   4.888  25.266   1.687
 2106W        W73832   9.870   2.807   0.346
 2107W        W73833  17.765   7.346  14.311
 2108W        W73834  38.560  15.689   0.849
 2109W        W73835  15.223  40.494  13.726
 2110W        W73836  28.420  15.574   4.789
 2111W        W73837  28.225  13.123   4.511
 2112W        W73838  22.990  33.463  12.978
 2113W        W73839  20.769  30.416   4.700
 2114W        W73840  26.858  20.553   1.797
 2115W        W73841  25.055  14.539   1.796
 2116W        W73842  21.163  31.059   0.204
 2117W        W73843  24.473  44.911   2.004
 2118W        W73844  18.698  10.114   2.660
 2119W        W73845   1.920  17.346   3.226
 2120W        W73846  18.254  25.489  12.904
 2121W        W73847   5.781  14.634  10.512
 2122W        W73848  44.202  40.102   1.432
 2123W        W73849   5.737  29.920  11.548
 2124W        W73850  36.487   8.078  10.480
 2125W        W73851  21.772  18.653  11.901
 2126W        W73852  13.243   7.759  13.400
 2127W        W73853  26.555  10.355  10.315
 2128W        W73854  27.002   3.385  12.825
 2129W        W73855  41.884  19.820  12.670
 2130W        W73856   0.819  42.439  12.098
 2131W        W73857  28.816   9.231  13.103
 2132W        W73858  11.458  24.117   2.005
 2133W        W73859  18.317  26.075   2.340
 2134W        W73860   3.236  43.460   4.506
 2135W        W73861  15.383   0.514  12.073
 2136W        W73862   6.013  18.173   2.846
 2137W        W73863  40.353  41.201  10.309
 2138W        W73864  33.876  11.877  11.199
 2139W        W73865   5.984  13.765   3.566
 2140W        W73866   4.628   1.829   4.078
 2141W        W73867  25.423  43.463  12.821
 2142W        W73868   6.239  33.917  11.623
 2143W        W73869  33.028   7.700  12.135
 2144W        W73870  30.944  19.280  11.645
 2145W        W73871   9.302  11.488  14.287
 2146W        W73872  15.543  43.951  13.135
 2147W        W73873   5.830  34.623  10.662
 2148W        W73874  34.641  13.241   2.422
 2149W        W73875   8.736  32.381  11.839
 2150W        W73876  18.498  44.636   2.232
 2151W        W73877  16.124  44.802   3.997
 2152W        W73878   2.980  14.659   0.333
 2153W        W73879  35.914  10.870  10.516
 2154W        W73880  38.582  27.785   3.375
 2155W        W73881  14.333  14.593  11.222
 2156W        W73882   5.985  27.964  13.450
 2157W        W73883  44.511  40.027  14.887
 2158W        W73884  30.610   5.445  10.857
 2159W        W73885  23.164   9.393  10.858
 2160W        W73886  24.635  40.519   0.962
 2161W        W73887  39.493  33.539   1.890
 2162W        W73888   8.222   1.287  13.407
 2163W        W73889   9.027  21.585   1.918
 2164W        W73890  42.843  10.995   3.225
 2165W        W73891  18.123  29.060  13.837
 2166W        W73892  36.078  36.480   3.426
 2167W        W73893  38.092  11.709  14.459
 2168W        W73894  26.857  41.255  14.540
 2169W        W73895   0.971  18.523   0.757
 2170W        W73896  19.202  30.113   4.493
 2171W        W73897   8.329   8.159   4.581
 2172W        W73898  14.795  34.704   4.102
 2173W        W73899  23.489   9.433   4.588
 2174W        W73900  27.212  38.591   2.512
 2175W        W73901  12.369  32.885  13.746
 2176W        W73902  21.152   9.840  14.843
 2177W        W73903   5.724   9.300  10.690
 2178W        W73904  28.028   8.676  12.063
 2179W        W73905  16.755  40.261   1.783
 2180W        W73906  36.293   8.247  13.870
 2181W        W73907   8.999  30.198   1.827
 2182W        W73908  43.648   3.308  12.180
 2183W        W73909   2.076  23.799   1.692
 2184W        W73910  25.508  25.381  11.237
 2185W        W73911  18.378   6.905   3.847
 2186W        W73912  21.469   7.705   2.592
 2187W        W73913  23.428  34.260   0.922
 2188W        W73914  28.455   5.202   4.744
 2189W        W73915  35.612  41.216   3.237
 2190W        W73916  28.096  38.588   4.538
 2191W        W73917  33.943  29.561   3.693
 2192W        W73918  41.455  11.221   3.805
 2193W        W73919  18.224  39.488   3.845
 2194W        W73920  24.517  35.121  13.996
 2195W        W73921  27.707   8.502   4.013
 2196W        W73922   8.925  10.218  11.591
 2197W        W73923  32.681  16.761   4.177
 2198W        W73924   1.891  41.424  14.260
 2199W        W73925  22.637  24.481  13.586
 2200W        W73926   8.819  36.493   1.757
 2201W        W73927  42.289  28.028   1.385
 2202W        W73928  10.930  23.801   3.578
 2203W        W73929  26.126  26.921  12.592
 2204W        W73930  10.738  24.815  10.065
 2205W        W73931  33.660  40.418   4.379
 2206W        W73932  37.991   6.436  10.991
 2207W        W73933  44.813  11.167  12.109
 2208W        W73934   5.226  32.439   1.366
 2209W        W73935   6.827  10.189  12.386
 2210W        W73936  36.771  15.525   0.363
 2211W        W73937   2.501  32.514   4.334
 2212W        W73938  13.955  27.237  10.716
 2213W        W73939  15.877  43.880  14.499
 2214W        W73940  30.632  22.766  14.918
 2215W        W73941  18.306  16.109  11.151
 2216W        W73942  25.128   3.755   1.941
 2217W        W73943  34.686  27.017   2.324
 2218W        W73944   3.760  34.642   1.893
 2219W        W73945  41.729  38.641   0.829
 2220W        W73946   7.368  33.367   3.374
 2221W        W73947  26.836   4.665  12.434
 2222W        W73948  19.635   7.811  10.660
 2223W        W73949   9.788  23.261   0.804
 2224W        W73950  37.363  36.683  14.288
 2225W        W73951  38.952  42.852  13.481
 2226W        W73952  43.847  17.352   3.012
 2227W        W73953  19.673   8.599  13.584
 2228W        W73954  13.636  20.676   4.732
 2229W        W73955  23.271  27.024   4.078
 2230W        W73956  42.424  23.192   2.884
 2231W        W73957  12.741  22.141  14.586
 2232W        W73958  10.340   3.395  14.068
 2233W        W73959  30.554  38.880   4.590
 2234W        W73960  26.094  11.542  10.429
 2235W        W73961  33.886  13.481  10.738
 2236W        W73962  24.729  26.952  13.861
 2237W        W73963  25.879  37.538  11.087
 2238W        W73964  23.169  34.673  10.742
 2239W        W73965  42.709  41.534   1.259
 2240W        W73966   2.193  14.225   2.882
 2241W        W73967  27.647  22.250  11.267
 2242W        W73968  42.582  13.292  12.416
 2243W        W73969  35.943  36.520   4.424
 2244W        W73970  28.880  22.519   1.249
 2245W        W73971  33.630  11.833  14.081
 2246W        W73972  16.076   7.999   2.088
 2247W        W73973  36.611  20.090   3.316
 2248W        W73974  36.404   5.129  12.610
 2249W        W73975  24.700  35.590   2.621
 2250W        W73976   5.309   2.810   4.744
 2251W        W73977  28.707   6.953  13.860
 2252W        W73978   4.487   6.901  13.903
 2253W        W73979  36.770   5.741   2.175
 2254W        W73980  27.349  10.290  14.742
 2255W        W73981   6.265  22.465   1.566
 2256W        W73982  33.398  35.111   2.260
 2257W        W73983  20.992  23.189   2.671
 2258W        W73984   2.405  14.477  14.390
 2259W        W73985   1.162   3.303  14.706
 2260W        W73986  27.464  24.601   1.733
 2261W        W73987  18.813  23.459  11.111
 2262W        W73988   2.139  33.862  13.477
 2263W        W73989  22.745  18.932  10.888
 2264W        W73990   7.954  24.957  11.127
 2265W        W73991  23.569  20.129   4.950
 2266W        W73992  20.583  32.005  12.896
 2267W        W73993  14.613  18.477  10.773
 2268W        W73994  27.009  24.256  11.217
 2269W        W73995  15.056  23.216  10.743
 2270W        W73996   0.919  23.353   4.556
 2271W        W73997  22.601  41.520  11.265
 2272W        W73998  11.267   2.230   1.738
 2273W        W73999  42.872  26.562   0.145
 2274W        W74000  16.255  37.946  11.983
 2275W        W74001  24.666   4.809   0.513
 2276W        W74002  41.032  17.642   1.744
 2277W        W74003   7.377   3.629  10.342
 2278W        W74004  41.584   1.374   1.584
 2279W        W74005   0.021   5.878   0.046
 2280W        W74006  26.844  41.390   1.030
 2281W        W74007  21.080   3.199   1.390
 2282W        W74008  37.105  42.417  13.071
 2283W        W74009  14.216   7.605   3.149
 2284W        W74010  24.611  43.631   3.158
 2285W        W74011  35.958  37.917  13.741
 2286W        W74012  44.276   4.708   3.713
 2287W        W74013  16.660  25.004   4.277
 2288W        W74014   5.347  25.563   3.161
 2289W        W74015   0.222  41.319   3.880
 2290W        W74016  22.158  34.946  11.833
 2291W        W74017  16.236  25.458   3.243
 2292W        W74018  23.055  19.277  10.685
 2293W        W74019  35.348  26.596  11.520
 2294W        W74020  37.947   3.536  11.165
 2295W        W74021  40.819  25.680  14.024
 2296W        W74022  34.136  27.543   3.366
 2297W        W74023  15.711  18.286   1.814
 2298W        W74024  25.176  21.978   4.020
 2299W        W74025  35.300  28.604   0.418
 2300W        W74026   8.865  23.562  13.784
 2301W        W74027  32.631  23.205   1.257
 2302W        W74028  21.074   1.851   3.297
 2303W        W74029  29.895  29.544   3.736
 2304W        W74030  29.217  25.120   3.032
 2305W        W74031  20.016   5.115   1.023
 2306W        W74032  26.527  41.372  13.255
 2307W        W74033  17.270   5.026   0.835
 2308W        W74034   1.373  20.053   0.300
 2309W        W74035  10.378  26.144  12.143
 2310W        W74036   8.264  15.670  13.494
 2311W        W74037  23.153  28.726   4.004
 2312W        W74038  13.590  43.431   2.899
 2313W        W74039   4.219   7.927  13.309
 2314W        W74040  11.833  40.466   4.208
 2315W        W74041  15.713  36.402  13.832
 2316W        W74042  21.045  35.468  11.577
 2317W        W74043   1.304  25.750   5.081
 2318W        W74044  22.158  11.506   4.258
 2319W        W74045   5.168  30.976   3.314
 2320W        W74046  10.950  34.160   4.962
 2321W        W74047  23.084  30.590  10.623
 2322W        W74048  15.140  40.594   1.367
 2323W        W74049   3.830   2.418   2.352
 2324W        W74050   4.906  37.380   0.285
 2325W        W74051  12.151  32.880  14.776
 2326W        W74052  14.845  26.606   3.549
 2327W        W74053  30.375   2.361  11.966
 2328W        W74054  40.322   8.331  10.927
 2329W        W74055  36.900  41.782  14.782
 2330W        W74056  32.039  41.274  10.986
 2331W        W74057  25.368  20.406  13.949
 2332W        W74058  42.806  25.916  11.420
 2333W        W74059  30.348  38.085  13.539
 2334W        W74060   2.805  23.648   0.251
 2335W        W74061  10.920  20.928   2.758
 2336W        W74062   3.007  24.555   2.357
 2337W        W74063  28.423  39.417  12.857
 2338W        W74064  39.082   5.950  12.570
 2339W        W74065  30.042  23.750  12.476
 2340W        W74066  35.820  39.053   3.245
 2341W        W74067   8.951  19.271  14.255
 2342W        W74068  11.922  11.358  11.058
 2343W        W74069  25.091  44.201   4.671
 2344W        W74070  27.025  17.526  11.014
 2345W        W74071  35.310  32.221  11.185
 2346W        W74072  13.085  12.121   3.800
 2347W        W74073  14.131  42.521   0.628
 2348W        W74074  35.478  24.463  14.272
 2349W        W74075   4.928   0.160  14.789
 2350W        W74076   6.181  31.898  14.828
 2351W        W74077  44.937   1.857  12.524
 2352W        W74078  36.018  10.703   0.017
 2353W        W74079  39.553   6.257   1.615
 2354W        W74080  25.850  41.964  12.920
 2355W        W74081  27.010  34.501   2.728
 2356W        W74082  36.449  44.696  10.839
 2357W        W74083  26.445  39.785  11.975
 2358W        W74084  20.700   5.830   0.276
 2359W        W74085  38.546   4.815  11.671
 2360W        W74086   5.485  24.120   1.858
 2361W        W74087  38.360  21.544   0.668
 2362W        W74088  14.744  21.246  10.827
 2363W        W74089  26.396  43.927  13.398
 2364W        W74090  27.840  24.310  10.521
 2365W        W74091   2.488  40.420  13.691
 2366W        W74092  43.792   2.347   3.910
 2367W        W74093  42.666  18.168  13.426
 2368W        W74094  12.823   9.081  11.136
 2369W        W74095   2.867  25.516   2.704
 2370W        W74096  38.673  43.448   2.810
 2371W        W74097  17.993  36.561  14.284
 2372W        W74098  43.001   0.521   2.406
 2373W        W74099  38.875  11.603   4.162
 2374W        W74100  38.407   9.756  14.302
 2375W        W74101   9.822  18.607  13.467
 2376W        W74102  14.206  25.983   2.679
 2377W        W74103  36.359  25.900  12.984
 2378W        W74104  13.293   6.361  13.564
 2379W        W74105  21.606   3.212   1.437
 2380W        W74106   7.081  22.296   3.284
 2381W        W74107  41.720  30.981   2.504
 2382W        W74108   8.316  10.462  14.448
 2383W        W74109  20.074  10.117   3.758
 2384W        W74110  25.841  21.433   0.366
 2385W        W74111   8.544   2.190   5.036
 2386W        W74112  43.421  30.650  12.573
 2387W        W74113  37.295  24.588   3.229
 2388W        W74114   9.339  31.701   4.174
 2389W        W74115  15.362   7.228   2.790
 2390W        W74116  43.728  22.577  10.643
 2391W        W74117   5.233  36.850  12.040
 2392W        W74118   1.463  35.989  10.601
 2393W        W74119   8.293  41.132   1.644
 2394W        W74120   1.026  25.152  11.986
 2395W        W74121  21.725   6.564   1.397
 2396W        W74122  44.899  21.168   1.824
 2397W        W74123  38.449  35.463  10.733
 2398W        W74124  21.499  12.773   0.511
 2399W        W74125  15.245  14.375   3.629
 2400W        W74126  38.100  15.710  11.490
 2401W        W74127  36.383   7.734   3.250
 2402W        W74128  33.938  36.312  13.837
 2403W        W74129  32.081  30.134   3.427
 2404W        W74130  36.873   0.367   0.345
 2405W        W74131   5.775  31.896  11.615
 2406W        W74132   7.696   8.784   3.266
 2407W        W74133   2.698  40.125   0.872
 2408W        W74134  40.491  39.829   1.353
 2409W        W74135  40.018  17.101   4.506
 2410W        W74136   1.382  28.624  11.129
 2411W        W74137  40.821  13.738   3.328
 2412W        W74138  19.632  15.083  11.236
 2413W        W74139  38.434  41.205  14.104
 2414W        W74140  14.730   1.289  11.552
 2415W        W74141  41.403  24.220   3.720
 2416W        W74142  26.836   4.813   1.935
 2417W        W74143  10.242  34.450   4.088
 2418W        W74144   8.767  23.109   2.667
 2419W        W74145  30.679  22.740   3.301
 2420W        W74146  43.321  17.535   4.566
 2421W        W74147  18.721  22.968   4.407
 2422W        W74148   1.339  37.649   1.726
 2423W        W74149  14.846  41.399   4.658
 2424W        W74150  42.921  33.940  13.450
 2425W        W74151  27.104  24.203   2.876
 2426W        W74152  13.617  31.035  13.246
 2427W        W74153  31.608  27.649   0.279
 2428W        W74154  19.348  41.319   1.700
 2429W        W74155  43.846  37.048  11.632
 2430W        W74156  30.115  25.082   2.037
 2431W        W74157  37.533  25.015  10.674
 2432W        W74158  43.962  40.499   1.760
 2433W        W74159  30.975  25.020  10.835
 2434W        W74160   3.502   4.652   5.200
 2435W        W74161  31.669   5.751  11.282
 2436W        W74162   8.486   0.764  10.712
 2437W        W74163  21.563  13.593   3.196
 2438W        W74164  17.801  44.474  11.999
 2439W        W74165  40.907  34.590  14.862
 2440W        W74166  29.554  26.570  10.203
 2441W        W74167  41.995  25.473  13.566
 2442W        W74168  12.247  13.176   2.900
 2443W        W74169   6.660  37.083   1.321
 2444W        W74170  10.195   6.771  12.537
 2445W        W74171  12.377  25.586   1.697
 2446W        W74172  44.438  24.577   0.928
 2447W        W74173  20.926  14.441   4.157
 2448W        W74174  25.560  31.344  12.355
 2449W        W74175  19.737   4.878  10.475
 2450W        W74176  31.443  21.986  12.128
 2451W        W74177  11.873  10.752   2.211
 2452W        W74178  38.444  17.037   2.876
 2453W        W74179  22.231  42.513   3.366
 2454W        W74180  29.470  28.372  14.181
 2455W        W74181  25.193  27.633  11.407
 2456W        W74182  34.093  24.369  14.902
 2457W        W74183  32.557   0.021   1.696
 2458W        W74184  26.403  26.077  11.660
 2459W        W74185  24.280  17.574   0.250
 2460W        W74186  11.396  37.965  12.465
 2461W        W74187  35.525  27.905   0.761
 2462W        W74188  39.077  29.672   0.488
 2463W        W74189  39.823  13.796  10.243
 2464W        W74190  17.470   8.781   1.204
 2465W        W74191   7.831  38.454   0.503
 2466W        W74192   6.492   8.066   3.926
 2467W        W74193   6.435  13.072   4.615
 2468W        W74194   3.517   3.720  11.220
 2469W        W74195  31.881  20.115  14.849
 2470W        W74196  36.881   0.305  12.113
 2471W        W74197  26.496  28.584  12.024
 2472W        W74198  25.879  26.566  13.531
 2473W        W74199  38.261   8.694   3.277
 2474W        W74200  19.763   7.280  14.010
 2475W        W74201   4.292  21.678   3.372
 2476W        W74202  20.508  17.151  14.852
 2477W        W74203  12.662   7.164   0.791
 2478W        W74204  41.911  13.131   0.857
 2479W        W74205  25.509  16.375  13.354
 2480W        W74206  26.747   2.817   3.904
 2481W        W74207  29.589  18.300  13.777
 2482W        W74208   7.771  31.568  10.554
 2483W        W74209   5.316  19.887  11.628
 2484W        W74210  42.042  28.539   1.226
 2485W        W74211   8.762   1.804  12.658
 2486W        W74212  10.671  16.816   3.660
 2487W        W74213  39.130  43.172  13.837
 2488W        W74214  28.502  15.674   2.932
 2489W        W74215  10.022  20.770  11.513
 2490W        W74216  29.968  10.187   4.113
 2491W        W74217  22.790  31.841  13.059
 2492W        W74218  26.601  40.826   3.673
 2493W        W74219  12.035   3.562   2.338
 2494W        W74220   5.254  17.489   4.298
 2495W        W74221  25.517  21.338  10.707
 2496W        W74222  20.195   6.405   0.779
 2497W        W74223  33.622  21.465  14.431
 2498W        W74224  20.005   0.666  14.974
 2499W        W74225  32.475   6.653  10.497
 2500W        W74226  16.651  37.905   1.428
 2501W        W74227   8.148   7.842   0.807
 2502W        W74228   7.830  29.094  14.860
 2503W        W74229   3.258  10.821   1.891
 2504W        W74230  15.839  33.475  14.307
 2505W        W74231  30.480  12.210  13.271
 2506W        W74232  11.259  20.025  11.463
 2507W        W74233  22.785  28.077   3.596
 2508W        W74234  31.135  16.294   4.105
 2509W        W74235  23.404   6.223   0.883
 2510W        W74236  29.018   1.806   2.595
 2511W        W74237  11.279   9.184  11.050
 2512W        W74238  37.578  25.554  11.409
 2513W        W74239  16.401  39.869  12.263
 2514W        W74240  20.312   3.470  11.158
 2515W        W74241  33.418  37.545   4.138
 2516W        W74242   6.319  18.047  10.002
 2517W        W74243  27.121  26.748  11.500
 2518W        W74244  32.377  38.326   0.850
 2519W        W74245  14.230   8.245  13.084
 2520W        W74246  20.547   2.203   2.662
 2521W        W74247  22.792  33.127  13.539
 2522W        W74248   0.824  15.802  14.540
 2523W        W74249   0.304  21.458   0.535
 2524W        W74250  22.414  24.648   5.175
 2525W        W74251  38.344  39.082   4.153
 2526W        W74252  11.327  18.832  12.104
 2527W        W74253  30.011  41.327   1.234
 2528W        W74254  22.531  28.800  13.030
 2529W        W74255  43.424  25.647   1.872
 2530W        W74256  26.472  30.669   0.309
 2531W        W74257  12.595  19.593   4.450
 2532W        W74258  17.057  36.639  11.912
 2533W        W74259   2.488   7.297   3.054
 2534W        W74260  22.123   2.093   4.833
 2535W        W74261  34.634  28.031  13.752
 2536W        W74262  42.819  22.434   2.782
 2537W        W74263  37.155  40.464  14.858
 2538W        W74264   5.779  30.626  12.853
 2539W        W74265   4.617  42.605   5.209
 2540W        W74266  27.839  21.083  14.471
 2541W        W74267   3.911  34.526   5.018
 2542W        W74268  25.694  13.213   2.608
 2543W        W74269  39.499  29.590   4.084
 2544W        W74270  21.201  28.485   2.003
 2545W        W74271  28.850  26.579  12.044
 2546W        W74272  30.953  20.706   0.396
 2547W        W74273  33.962  12.879  13.865
 2548W        W74274  41.935   1.256   0.280
 2549W        W74275  34.641  39.811   3.610
 2550W        W74276  40.146  36.000  10.416
 2551W        W74277  11.880  30.191  13.486
 2552W        W74278  24.969  20.638   2.845
 2553W        W74279  15.989  19.219  14.936
 2554W        W74280  36.830  16.832  13.809
 2555W        W74281  35.404  16.720  13.351
 2556W        W74282  41.956  25.289  14.447
 2557W        W74283   1.318   1.379  14.852
 2558W        W74284  19.052  23.705  14.116
 2559W        W74285   2.463  20.596   1.570
 2560W        W74286  10.719  39.317   4.393
 2561W        W74287  35.299  29.889  13.507
 2562W        W74288  33.888  20.563   4.241
 2563W        W74289  39.079  19.676  13.039
 2564W        W74290  43.148  36.151   2.753
 2565W        W74291  20.351  24.240   3.830
 2566W        W74292  18.569   4.870   2.769
 2567W        W74293  23.693   6.463   0.510
 2568W        W74294  38.943  28.010  13.414
 2569W        W74295  27.145   5.632  12.513
 2570W        W74296  29.939  22.278   4.838
 2571W        W74297  43.166  22.519  10.903
 2572W        W74298   1.280  24.237   3.158
 2573W        W74299  20.254   1.547  14.496
 2574W        W74300   0.334  33.950  14.109
 2575W        W74301  13.268   2.285  12.451
 2576W        W74302   2.880  22.658  12.068
 2577W        W74303  11.872  34.043  10.726
 2578W        W74304  24.710  12.163   3.290
 2579W        W74305  22.685  41.544   2.443
 2580W        W74306  19.159  44.972   1.663
 2581W        W74307  23.467  32.532  10.513
 2582W        W74308  21.801  29.431  10.830
 2583W        W74309   0.897   6.641  13.389
 2584W        W74310  24.934  37.597  14.403
 2585W        W74311   5.699  27.385   4.411
 2586W        W74312  30.902  39.833  11.963
 2587W        W74313  18.742  34.688   3.305
 2588W        W74314  35.602  33.696  12.881
 2589W        W74315   1.744  11.990   2.681
 2590W        W74316  44.755  44.302  14.617
 2591W        W74317   9.358   5.240  11.173
 2592W        W74318   9.823  32.579   0.304
 2593W        W74319   4.351  16.218   2.780
 2594W        W74320  36.081   1.868  12.043
 2595W        W74321  37.377  18.042   2.718
 2596W        W74322   4.766  13.775  10.112
 2597W        W74323  43.343  28.625   1.889
 2598W        W74324  21.300  16.851   0.814
 2599W        W74325  10.803  22.252   0.274
 2600W        W74326   6.666  14.344   4.952
 2601W        W74327   2.845  22.186  12.924
 2602W        W74328  10.146  42.793  14.255
 2603W        W74329  18.774  19.202   4.848
 2604W        W74330  13.872  12.436   4.539
 2605W        W74331  41.857  26.792  13.143
 2606W        W74332  16.740  32.132  12.011
 2607W        W74333  28.073   1.262   0.274
 2608W        W74334  13.159  36.590  13.384
 2609W        W74335  43.051   9.148  10.706
 2610W        W74336  18.030  31.491  12.123
 2611W        W74337   6.962  26.205  12.845
 2612W        W74338  43.946  39.358  11.079
 2613W        W74339  41.935  38.805   2.294
 2614W        W74340  10.482  28.969  14.535
 2615W        W74341   5.723  32.021  14.461
 2616W        W74342  40.882  14.676   1.377
 2617W        W74343  27.520  17.580  13.524
 2618W        W74344  36.589  39.467   1.263
 2619W        W74345  38.613  44.233   2.207
 2620W        W74346  36.439  14.395  11.204
 2621W        W74347  18.779  30.369   0.596
 2622W        W74348  13.090  15.936   0.935
 2623W        W74349   7.258  17.068  13.300
 2624W        W74350  27.645  17.644   3.990
 2625W        W74351  35.347  24.786  12.799
 2626W        W74352  28.503  35.487   4.295
 2627W        W74353  13.831  28.456   2.624
 2628W        W74354  11.183   7.852   3.349
 2629W        W74355  16.080  39.101  13.971
 2630W        W74356  39.254   2.364  12.335
 2631W        W74357  19.933  22.715   2.114
 2632W        W74358   0.452  24.538  11.450
 2633W        W74359  20.405  21.105   3.599
 2634W        W74360   8.821   5.741   3.781
 2635W        W74361  31.635  24.183  11.907
 2636W        W74362  25.307   0.760  11.109
 2637W        W74363  26.218  34.105  11.482
 2638W        W74364   8.178  31.661   0.678
 2639W        W74365  36.915  29.063  11.456
 2640W        W74366  31.519   9.448  10.732
 2641W        W74367  41.246  10.272  10.785
 2642W        W74368  10.949  29.084  14.206
 2643W        W74369   8.618  24.138   4.554
 2644W        W74370   2.486   3.390  13.975
 2645W        W74371  20.937  28.958   3.507
 2646W        W74372  38.182  23.790  11.988
 2647W        W74373  16.914  27.460  14.240
 2648W        W74374  11.431  30.435  12.220
 2649W        W74375  22.689  37.480   2.556
 2650W        W74376  40.046  10.262   1.300
 2651W        W74377  32.103   4.022   4.087
 2652W        W74378  20.290  17.485   2.665
 2653W        W74379  33.878  40.496   3.895
 2654W        W74380  15.652  37.832  10.684
 2655W        W74381  24.024   8.356   4.079
 2656W        W74382  11.707  25.772  12.435
 2657W        W74383  28.711  40.865   3.738
 2658W        W74384   5.837  31.131  12.839
 2659W        W74385  11.076  34.916  14.041
 2660W        W74386  20.534  32.637  11.953
 2661W        W74387  31.967  12.111  11.512
 2662W        W74388  13.098  42.461  14.328
 2663W        W74389  42.949  37.470   4.934
 2664W        W74390  26.688  19.664   4.321
 2665W        W74391  44.303  22.014  11.689
 2666W        W74392  25.948  44.276   0.959
 2667W        W74393   2.384  21.630  10.568
 2668W        W74394  11.294  13.114   2.403
 2669W        W74395  12.136  35.901   2.059
 2670W        W74396  22.016  11.564   0.856
 2671W        W74397   3.244   1.798  14.715
 2672W        W74398   6.450  11.893   2.216
 2673W        W74399   8.467  10.300  10.803
 2674W        W74400  30.477  31.262  14.163
 2675W        W74401  30.248  26.820  10.636
 2676W        W74402  19.248   8.189   3.351
 2677W        W74403  25.385  25.019  11.574
 2678W        W74404  11.893  31.980  11.701
 2679W        W74405  22.650  14.799   2.312
 2680W        W74406  27.467  26.156  10.849
 2681W        W74407   5.643  12.306  11.038
 2682W        W74408   1.223  11.148   0.037
 2683W        W74409  15.719  18.113  14.218
 2684W        W74410  42.218  35.364  14.366
 2685W        W74411   1.260  24.769   4.753
 2686W        W74412  12.645  18.571   0.213
 2687W        W74413  43.209  40.538  14.801
 2688W        W74414  12.193  13.283   2.371
 2689W        W74415   7.567  11.415   3.676
 2690W        W74416   3.580  20.183   2.693
 2691W        W74417  33.090  26.359   4.512
 2692W        W74418  29.229  14.666   4.769
 2693W        W74419  34.306  31.854  12.899
 2694W        W74420   1.783   2.654   3.111
 2695W        W74421  11.717  35.758  14.113
 2696W        W74422  26.561  27.057   2.730
 2697W        W74423  39.134  23.840  11.619
 2698W        W74424   1.982  10.860  11.199
 2699W        W74425  38.837  28.625  13.490
 2700W        W74426   8.620  31.510   0.989
 2701W        W74427  15.152  27.194   0.162
 2702W        W74428  11.208  18.217  13.397
 2703W        W74429  16.706  15.663   4.073
 2704W        W74430  17.253   7.188   4.270
 2705W        W74431   0.525   0.890   0.913
 2706W        W74432  21.570  29.220  12.950
 2707W        W74433  19.670  17.057   2.295
 2708W        W74434   0.782  24.031  10.479
 2709W        W74435   7.748   2.802   1.839
 2710W        W74436  13.222  19.762   5.061
 2711W        W74437  40.903  43.013   1.487
 2712W        W74438  32.298   2.188  13.068
 2713W        W74439  39.413   5.075   2.936
 2714W        W74440  24.266  31.127  10.583
 2715W        W74441   1.203  13.797  14.966
 2716W        W74442   7.769  41.846   2.736
 2717W        W74443   5.836  41.571  13.729
 2718W        W74444  32.443  22.028  12.518
 2719W        W74445   6.419  37.086  11.532
 2720W        W74446  29.413   5.766  11.995
 2721W        W74447   0.602  23.676   9.974
 2722W        W74448   0.008   1.801   2.127
 2723W        W74449   6.801   5.995   1.071
 2724W        W74450   8.038   4.760  13.982
 2725W        W74451  27.010  20.301  11.100
 2726W        W74452  37.363  19.784  14.252
 2727W        W74453  40.962  13.226  11.618
 2728W        W74454  37.944  14.205  14.658
 2729W        W74455  29.996  39.334   3.089
 2730W        W74456  23.801  27.875   3.231
 2731W        W74457  32.984  42.302  10.265
 2732W        W74458  29.687  24.723  13.445
 2733W        W74459  34.842  30.600   1.673
 2734W        W74460  29.760  33.636   2.609
 2735W        W74461   6.276  27.151  12.034
 2736W        W74462  23.043   6.016   2.635
 2737W        W74463   6.933  13.142   5.491
 2738W        W74464  44.421  14.213   1.414
 2739W        W74465   0.571  19.253   2.778
 2740W        W74466  42.085  29.177  10.607
 2741W        W74467  20.584  41.378   1.023
 2742W        W74468   3.948  39.969   0.370
 2743W        W74469  25.875  41.566   1.669
 2744W        W74470   6.660  23.644  13.860
 2745W        W74471  26.543  44.857   0.458
 2746W        W74472   6.394  26.579   2.909
 2747W        W74473  24.201  27.657  13.573
 2748W        W74474  35.918  34.368   0.487
 2749W        W74475  23.798   3.446   4.208
 2750W        W74476   1.944   8.405   2.587
 2751W        W74477  25.024  13.639   0.293
 2752W        W74478  39.872  30.617   3.859
 2753W        W74479   3.829  16.846   0.604
 2754W        W74480  25.595  41.908   2.409
 2755W        W74481  39.854  32.597   4.001
 2756W        W74482   9.186  14.310   0.292
 2757W        W74483   3.366  12.346  14.854
 2758W        W74484  38.095  17.604  12.924
 2759W        W74485  14.578   8.253  12.117
 2760W        W74486   8.323  11.010  13.510
 2761W        W74487   6.464  37.559  14.943
 2762W        W74488  20.455  34.738  12.888
 2763W        W74489  11.153  43.937   4.518
 2764W        W74490   1.338   0.351  14.997
 2765W        W74491  16.291   3.452   4.226
 2766W        W74492  10.159  31.065  12.039
 2767W        W74493  19.630   7.412   3.318
 2768W        W74494  44.946  44.298  12.144
 2769W        W74495  33.685  44.500  13.199
 2770W        W74496   7.787  39.804  12.906
 2771W        W74497  35.967  32.389  13.432
 2772W        W74498  44.337   0.072   4.570
 2773W        W74499  24.723  14.593   2.211
 2774W        W74500  18.275  31.110  13.022
 2775W        W74501   8.717  30.084   0.252
 2776W        W74502  41.047  38.930   3.927
 2777W        W74503  12.578  27.065   2.281
 2778W        W74504  10.695  30.220  11.858
 2779W        W74505  38.564  35.562   3.720
 2780W        W74506  41.963  22.225  11.441
 2781W        W74507   0.572  39.026  13.022
 2782W        W74508  10.155  21.093   1.304
 2783W        W74509  26.183  41.534   4.025
 2784W        W74510  20.856  25.696   0.990
 2785W        W74511  35.328  16.935  11.043
 2786W        W74512   0.078  12.003   3.286
 2787W        W74513  18.484  44.768   3.375
 2788W        W74514  40.428  32.060   2.842
 2789W        W74515  20.090  16.791   2.119
 2790W        W74516  23.484  29.706   2.734
 2791W        W74517   2.227  15.705  11.967
 2792W        W74518  22.036   7.798   0.290
 2793W        W74519  21.056  24.364   0.883
 2794W        W74520   8.376  34.018   4.946
 2795W        W74521  26.045   6.366  12.970
 2796W        W74522   7.422  44.768  12.939
 2797W        W74523  40.519  23.787  13.525
 2798W        W74524  34.524  18.858  11.701
 2799W        W74525  40.528  21.276  10.869
 2800W        W74526  22.050   3.796  10.836
 2801W        W74527  27.201  44.431   1.031
 2802W        W74528  16.459  35.056  14.761
 2803W        W74529  38.672  39.545   4.225
 2804W        W74530  12.332  33.181  10.973
 2805W        W74531  21.541   6.253   2.818
 2806W        W74532  25.431  16.694  10.687
 2807W        W74533   1.219   6.080   2.868
 2808W        W74534  13.997  33.410  11.650
 2809W        W74535   8.571  29.004  10.677
 2810W        W74536  43.915  12.270  13.794
 2811W        W74537  10.382   1.712   1.831
 2812W        W74538  40.542  38.028  14.494
 2813W        W74539   3.454  18.048  12.642
 2814W        W74540  10.842  31.900  11.124
 2815W        W74541  43.712  35.837   0.777
 2816W        W74542  15.814   9.191  10.616
 2817W        W74543  15.755  34.529  12.000
 2818W        W74544  34.135  38.874  13.105
 2819W        W74545   2.837  10.617   4.749
 2820W        W74546  38.263  36.480   4.944
 2821W        W74547   4.468  17.376  12.420
 2822W        W74548   0.417  44.034  14.231
 2823W        W74549  20.020  32.608  12.000
 2824W        W74550  26.761  18.791  14.899
 2825W        W74551   6.773  12.195   1.944
 2826W        W74552  31.568   2.722  11.681
 2827W        W74553  31.515   4.947   3.288
 2828W        W74554  11.826  30.012  12.477
 2829W        W74555  30.340   3.608  10.014
 2830W        W74556   2.281  25.842   2.178
 2831W        W74557  25.490  41.889   3.444
 2832W        W74558   8.930   1.648   3.579
 2833W        W74559  37.819   2.226   0.058
 2834W        W74560  37.461  18.328   0.331
 2835W        W74561  42.060   4.015   2.880
 2836W        W74562  31.838  16.730   3.121
 2837W        W74563  12.104   5.746   0.486
 2838W        W74564  41.587   7.347   3.038
 2839W        W74565  34.607  34.406  10.700
 2840W        W74566   1.833  27.017  14.983
 2841W        W74567  21.630  26.398   3.717
 2842W        W74568  24.198  13.843  13.056
 2843W        W74569  38.664  39.541  12.465
 2844W        W74570  31.369  39.808   0.253
 2845W        W74571  21.365  36.957  13.083
 2846W        W74572  17.312   2.760   3.038
 2847W        W74573  31.142   3.777   0.683
 2848W        W74574  17.545  42.024  10.760
 2849W        W74575   5.159   1.222   1.015
 2850W        W74576   5.394   9.825  11.274
 2851W        W74577   5.905  26.477   4.356
 2852W        W74578  29.317   0.431   3.766
 2853W        W74579  26.803  33.076  10.716
 2854W        W74580  17.002   4.399  12.481
 2855W        W74581  13.815  34.665   2.802
 2856W        W74582   1.001  17.169  12.855
 2857W        W74583  14.678  10.829  13.061
 2858W        W74584   2.809   2.789   3.258
 2859W        W74585  40.967  31.838  14.431
 2860W        W74586  18.623  33.993   2.688
 2861W        W74587  24.114   3.843   4.321
 2862W        W74588  14.953   0.429   4.836
 2863W        W74589   4.805  41.146  13.443
 2864W        W74590  11.752  17.207  10.482
 2865W        W74591  28.975  37.795   4.592
 2866W        W74592  36.939  20.580  13.954
 2867W        W74593   0.573  23.756   1.802
 2868W        W74594  44.791  20.147  13.795
 2869W        W74595  15.227  37.302  10.213
 2870W        W74596   9.112   9.733   1.320
 2871W        W74597   9.525  21.263  11.503
 2872W        W74598  15.774  22.103   0.371
 2873W        W74599   0.351  37.674  11.929
 2874W        W74600   7.072  12.938  12.915
 2875W        W74601   3.746  20.247  12.082
 2876W        W74602  19.557  33.906   0.023
 2877W        W74603  33.551  44.359  14.589
 2878W        W74604   0.439  27.032   3.337
 2879W        W74605   6.233  17.635   3.837
 2880W        W74606  22.729  13.399   0.776
 2881W        W74607  14.131  16.679  14.637
 2882W        W74608  20.267  14.924   0.452
 2883W        W74609  41.015  12.187   4.103
 2884W        W74610  37.877  18.739   3.584
 2885W        W74611  29.279  10.114   0.439
 2886W        W74612   4.754  22.481  14.564
 2887W        W74613  21.548   7.968  14.047
 2888W        W74614  20.331  21.089   2.595
 2889W        W74615  44.279   0.281   3.206
 2890W        W74616  34.656  31.514  11.156
 2891W        W74617  10.166  20.805   3.713
 2892W        W74618  37.461  15.860   4.516
 2893W        W74619  19.136   2.109   0.882
 2894W        W74620  30.115  23.513   0.283
 2895W        W74621  17.101  33.218   3.737
 2896W        W74622   4.369  24.083  13.624
 2897W        W74623   1.668  18.731   2.699
 2898W        W74624   1.552   2.947  14.807
 2899W        W74625  30.413  44.694   4.924
 2900W        W74626  21.204   4.028  10.047
 2901W        W74627  27.618  44.175  13.355
 2902W        W74628  41.769  43.639   1.358
 2903W        W74629  31.561   9.809   2.219
 2904W        W74630  12.274   5.647  14.055
 2905W        W74631  34.794  12.923   1.978
 2906W        W74632  26.255  25.953   0.962
 2907W        W74633  21.851  14.685   5.086
 2908W        W74634  24.699  40.414  10.468
 2909W        W74635  10.243  41.901  11.431
 2910W        W74636  41.533  25.257  13.497
 2911W        W74637  12.115  32.339   1.853
 2912W        W74638  40.537  18.801   3.920
 2913W        W74639  31.923  40.526   1.377
 2914W        W74640  26.710   8.547  11.833
 2915W        W74641  11.206  16.640   3.517
 2916W        W74642  32.450  44.033  13.976
 2917W        W74643  15.645  40.375  12.841
 2918W        W74644   8.796  29.408   2.401
 2919W        W74645  16.637  20.240   0.951
 2920W        W74646  36.474  39.315  13.377
 2921W        W74647  16.116   0.454  10.704
 2922W        W74648  29.786  11.154   3.178
 2923W        W74649  30.523  30.471  12.464
 2924W        W74650  15.249  43.308  14.868
 2925W        W74651  20.675  12.049  11.997
 2926W        W74652   3.011  31.937  10.781
 2927W        W74653  21.097   6.146   0.876
 2928W        W74654  28.603  23.086   0.017
 2929W        W74655  37.776  21.832  12.041
 2930W        W74656  24.010   6.404  10.801
 2931W        W74657   0.428  23.008  14.055
 2932W        W74658  17.760  38.611  10.177
 2933W        W74659   8.813  11.145   0.509
 2934W        W74660   4.251  23.827   3.018
 2935W        W74661  11.774   5.494   1.792
 2936W        W74662  28.372   4.775  12.385
 2937W        W74663   8.144  37.538   4.312
 2938W        W74664  26.836   2.777  12.037
 2939W        W74665  43.149  19.575  10.637
 2940W        W74666   4.485   2.230   3.589
 2941W        W74667   6.705  40.590  10.744
 2942W        W74668  15.314  28.094  12.563
 2943W        W74669   4.199  28.585   0.953
 2944W        W74670   9.723  42.545  14.447
 2945W        W74671  26.072   2.650   3.146
 2946W        W74672  34.910  20.042  14.733
 2947W        W74673  29.048  11.816   2.386
 2948W        W74674  27.727  23.042   1.192
 2949W        W74675  40.808  44.518   3.489
 2950W        W74676  34.617  26.880  12.356
 2951W        W74677  30.318  11.221  12.188
 2952W        W74678  31.059  16.836   2.766
 2953W        W74679  10.013   5.784  14.813
 2954W        W74680  42.581  13.617   3.773
 2955W        W74681   9.680  12.907   3.616
 2956W        W74682  38.250   5.805  11.719
 2957W        W74683  26.591   7.896  12.384
 2958W        W74684   9.616  42.920   0.491
 2959W        W74685  39.239  12.073  12.674
 2960W        W74686  21.682  24.485   1.325
 2961W        W74687  39.331  42.642   0.714
 2962W        W74688  17.844  33.825   4.586
 2963W        W74689   2.279  41.784  10.498
 2964W        W74690  29.783  39.241   2.106
 2965W        W74691   5.569  40.302  12.457
 2966W        W74692  28.812  31.584  14.647
 2967W        W74693   7.171  31.365  14.123
 2968W        W74694  15.724   6.114   4.749
 2969W        W74695   7.708  39.626  10.626
 2970W        W74696   3.517  15.146   0.709
 2971W        W74697  43.639  20.762  10.673
 2972W        W74698  23.792  36.998   0.595
 2973W        W74699  44.006  11.338   1.332
 2974W        W74700  40.711  43.551   4.896
 2975W        W74701  20.346  24.195  14.524
 2976W        W74702  44.237  33.447  13.346
 2977W        W74703  26.130   3.003  12.928
 2978W        W74704  27.374  26.537  13.893
 2979W        W74705   4.715  35.262  12.620
 2980W        W74706  35.460  33.099  13.320
 2981W        W74707  33.131  26.738  11.584
 2982W        W74708  26.602  44.429   2.703
 2983W        W74709  17.453   3.191   3.304
 2984W        W74710   2.014  28.735   2.497
 2985W        W74711   1.696  26.767  13.372
 2986W        W74712  11.812  41.250  13.799
 2987W        W74713  11.748  12.656   3.435
 2988W        W74714  33.703   0.364  10.332
 2989W        W74715  24.983   5.599  13.838
 2990W        W74716  17.139   3.277   1.159
 2991W        W74717  24.648   4.340  12.385
 2992W        W74718  39.441  19.669   3.178
 2993W        W74719  39.868  37.860   1.925
 2994W        W74720   2.182  29.552  11.565
 2995W        W74721  30.968  21.840  13.977
 2996W        W74722  43.023  44.508   1.748
 2997W        W74723  26.203   4.033   0.380
 2998W        W74724  41.575  34.658   0.574
 2999W        W74725  38.399  33.178   3.109
 3000W        W74726  36.074  35.059   0.468
 3001W        W74727  17.097  43.000  11.557
 3002W        W74728  39.533   7.316   1.185
 3003W        W74729  27.908  12.207  11.491
 3004W        W74730  38.009  13.286   3.632
 3005W        W74731   0.800  12.621   1.987
 3006W        W74732  24.096  36.559  10.603
 3007W        W74733  22.217  10.299   0.194
 3008W        W74734  35.915  31.481  12.632
 3009W        W74735  41.610   7.814   2.752
 3010W        W74736  32.773   6.830  14.039
 3011W        W74737  31.857  23.098  10.660
 3012W        W74738  16.872  42.882  13.810
 3013W        W74739  34.230  19.221  14.296
 3014W        W74740   5.272  35.414  14.335
 3015W        W74741  22.557  26.689  12.539
 3016W        W74742   5.406  29.566  10.715
 3017W        W74743   9.652  11.591   4.156
 3018W        W74744  16.013  44.287   4.110
 3019W        W74745  18.857  17.210   0.861
 3020W        W74746  27.449  41.542   4.632
 3021W        W74747  13.631  44.404  12.099
 3022W        W74748   5.740  21.783  10.854
 3023W        W74749   2.369  43.045  14.546
 3024W        W74750  10.249  42.521  12.342
 3025W        W74751  14.594   0.255   0.812
 3026W        W74752  19.354  34.483   3.827
 3027W        W74753  35.452  26.054  12.630
 3028W        W74754  28.123   7.967  13.018
 3029W        W74755  44.916  13.019   4.128
 3030W        W74756  20.844  17.608  13.815
 3031W        W74757  23.064  29.817   0.267
 3032W        W74758  22.245  20.834  11.690
 3033W        W74759  10.817  16.082  10.964
 3034W        W74760   6.787   1.110   1.820
 3035W        W74761  17.258  41.511  14.765
 3036W        W74762  28.088  31.343  13.416
 3037W        W74763  31.559  30.111   4.774
 3038W        W74764  11.201  17.897  11.100
 3039W        W74765  15.703   0.683  14.895
 3040W        W74766   0.007  29.486   4.060
 3041W        W74767  33.036   4.316  10.730
 3042W        W74768  20.984  13.015  12.325
 3043W        W74769   2.484   2.673  12.910
 3044W        W74770  16.604  23.205   1.296
 3045W        W74771  19.948  39.834  11.115
 3046W        W74772  12.242  19.209  12.937
 3047W        W74773   4.907  16.847   0.198
 3048W        W74774   1.246  35.913  15.000
 3049W        W74775  38.019  27.771   1.974
 3050W        W74776  35.431   7.976   2.266
 3051W        W74777  37.879  11.245  13.344
 3052W        W74778   6.927   6.676  13.702
 3053W        W74779  44.939  42.768  14.256
 3054W        W74780  14.288  11.545   1.601
 3055W        W74781   6.145   2.892  14.759
 3056W        W74782   3.245   7.261   0.190
 3057W        W74783  17.318  27.555  10.652
 3058W        W74784   5.552  35.700  12.523
 3059W        W74785  39.595   5.950  12.466
 3060W        W74786   9.139  13.405   4.222
 3061W        W74787  35.071  26.502   0.238
 3062W        W74788   6.326  25.891  14.747
 3063W        W74789  43.214   2.902   3.710
 3064W        W74790  23.659   3.514  10.337
 3065W        W74791   7.828   9.802   3.233
 3066W        W74792  21.767  34.479   0.244
 3067W        W74793  23.611  39.907  14.743
 3068W        W74794  32.982  17.072  14.357
 3069W        W74795  23.424  27.640   5.258
 3070W        W74796   6.974   4.541   4.608
 3071W        W74797   7.844   7.700   2.183
 3072W        W74798  28.086   4.507  11.545
 3073W        W74799  41.951  16.536   3.799
 3074W        W74800   9.629   1.286  14.362
 3075W        W74801  19.034   5.923   3.660
 3076W        W74802  38.458  19.287  14.217
 3077W        W74803   5.294  21.037   1.927
 3078W        W74804  20.210  32.778  13.179
 3079W        W74805  26.990  32.009   4.080
 3080W        W74806   1.232  15.319   4.213
 3081W        W74807  21.836  30.029   3.284
 3082W        W74808  20.585  18.528   2.219
 3083W        W74809   5.383  37.806   1.964
 3084W        W74810  20.448  42.903   1.078
 3085W        W74811   7.092   9.230  10.727
 3086W        W74812  26.011   4.246  13.482
 3087W        W74813  11.753   9.424  11.040
 3088W        W74814   2.201   3.417   2.838
 3089W        W74815  35.897  25.590  13.897
 3090W        W74816  24.582   9.289  11.200
 3091W        W74817  40.780  20.548   3.275
 3092W        W74818  22.071  42.808  13.998
 3093W        W74819  28.197   3.431  14.022
 3094W        W74820  25.583   3.098   4.960
 3095W        W74821   6.714  40.849  11.450
 3096W        W74822  43.167  12.304  14.287
 3097W        W74823  28.012   5.169   2.341
 3098W        W74824  13.249   5.425  13.289
 3099W        W74825  29.752  10.183  11.201
 3100W        W74826  33.465  31.229   4.748
 3101W        W74827  39.179  18.964  12.396
 3102W        W74828  32.046   0.063   4.072
 3103W        W74829   4.959   0.708  10.000
 3104W        W74830  44.985  19.515  13.059
 3105W        W74831   6.271  27.692  12.063
 3106W        W74832  36.943  18.343   3.295
 3107W        W74833  41.712  23.139  11.735
 3108W        W74834  30.163  22.270   3.652
 3109W        W74835   6.637   4.186   0.415
 3110W        W74836  12.898  38.025  11.103
 3111W        W74837   2.609  36.869  12.949
 3112W        W74838  42.074  34.821  14.769
 3113W        W74839  23.970  11.714   4.543
 3114W        W74840  22.415  24.003  11.132
 3115W        W74841  21.678   3.766   0.728
 3116W        W74842  23.769  34.360   0.349
 3117W        W74843   2.292  28.367  13.998
 3118W        W74844  20.072  20.297  13.476
 3119W        W74845  19.580  26.045   2.816
 3120W        W74846  30.467   2.827   3.510
 3121W        W74847   3.006  14.321  10.912
 3122W        W74848   0.793  23.107  13.497
 3123W        W74849  24.623  37.749  11.406
 3124W        W74850  25.082  17.557  13.648
 3125W        W74851  34.559  32.259  11.687
 3126W        W74852  33.886  25.816  12.114
 3127W        W74853  36.061   4.192   0.900
 3128W        W74854  21.703  39.615   4.790
 3129W        W74855  29.864  25.596   4.561
 3130W        W74856  10.609  29.018   3.880
 3131W        W74857  36.854  40.256  11.987
 3132W        W74858   9.385  18.300   2.382
 3133W        W74859  21.982  13.323  13.425
 3134W        W74860  39.391   1.395   0.732
 3135W        W74861  26.444  24.151  10.626
 3136W        W74862  39.266  37.546  12.238
 3137W        W74863  12.259  43.233   4.774
 3138W        W74864   5.648  12.875   2.336
 3139W        W74865  24.036  26.000  11.269
 3140W        W74866  18.537   7.599  11.337
 3141W        W74867  44.728  13.039   0.871
 3142W        W74868  13.655   1.110  13.877
 3143W        W74869  13.278   4.031   4.092
 3144W        W74870  41.904  24.007  13.559
 3145W        W74871  26.788   9.287   4.044
 3146W        W74872  14.383  30.690   1.403
 3147W        W74873   5.257   4.241   1.365
 3148W        W74874   8.126  38.434  13.844
 3149W        W74875  44.511   4.411   0.643
 3150W        W74876  37.781  42.947   3.615
 3151W        W74877  31.661  41.622   1.740
 3152W        W74878   8.666  40.599  14.803
 3153W        W74879  35.346  14.161   1.471
 3154W        W74880  14.325  29.060  14.840
 3155W        W74881  29.050   6.229   3.213
 3156W        W74882  25.996  12.723  11.663
 3157W        W74883  34.562  18.330   0.287
 3158W        W74884  14.624   8.746  10.386
 3159W        W74885   5.725  17.292   4.505
 3160W        W74886  15.350  15.574   4.544
 3161W        W74887  17.002  31.632  12.975
 3162W        W74888   3.755  35.014   4.849
 3163W        W74889   6.633  18.660   4.039
 3164W        W74890  21.122  37.445  10.131
 3165W        W74891  20.276  26.628   1.676
 3166W        W74892  34.554   7.154  10.721
 3167W        W74893  36.199  19.027  11.539
 3168W        W74894  25.134  42.917   4.824
 3169W        W74895  12.038  16.823  12.864
 3170W        W74896   5.150   5.307   4.575
 3171W        W74897  25.253  17.032   2.300
 3172W        W74898  19.028  37.531   4.349
 3173W        W74899  41.854   0.466   4.203
 3174W        W74900  12.538  21.801   2.397
 3175W        W74901  26.784   0.225   4.653
 3176W        W74902  42.362  22.371   4.826
 3177W        W74903  34.119  39.478  10.617
 3178W        W74904  35.509  21.519   4.146
 3179W        W74905  27.629  18.614  12.658
 3180W        W74906  21.737  24.343   3.616
 3181W        W74907  26.573  43.699   4.249
 3182W        W74908  20.650  33.453   3.273
 3183W        W74909   6.265   6.759   0.433
 3184W        W74910  26.080  37.106  14.817
 3185W        W74911   8.428  36.367  12.682
 3186W        W74912   5.872  31.163  13.806
 3187W        W74913  26.707  20.573  14.462
 3188W        W74914  12.343  13.348  12.915
 3189W        W74915   1.293   9.669   2.746
 3190W        W74916  37.273  37.210  10.502
 3191W        W74917   2.982   5.278  14.853
 3192W        W74918  44.343  35.306   3.231
 3193W        W74919  25.641  24.020  11.262
 3194W        W74920   9.951  37.823  13.920
 3195W        W74921  16.175  36.668   3.885
 3196W        W74922  30.528  18.700  12.339
 3197W        W74923   9.645  16.305  10.789
 3198W        W74924  24.216  21.177   4.549
 3199W        W74925  30.350  19.965  13.037
 3200W        W74926  38.777   3.754  13.029
 3201W        W74927  18.251  23.467   1.328
 3202W        W74928  22.004  44.731   2.972
 3203W        W74929  26.018  11.225  12.081
 3204W        W74930   2.921  23.645  12.933
 3205W        W74931  43.398  44.386  11.051
 3206W        W74932  11.384   9.260   3.635
 3207W        W74933  27.110  18.754  13.101
 3208W        W74934  39.579   1.303  13.310
 3209W        W74935  38.532  22.193   0.422
 3210W        W74936  24.060  21.235   5.169
 3211W        W74937  11.934  37.947   0.933
 3212W        W74938  19.197  44.829  13.845
 3213W        W74939  35.046   4.246  13.250
 3214W        W74940  34.881  42.333   1.882
 3215W        W74941   9.665  23.323   2.597
 3216W        W74942  37.138   2.153  13.516
 3217W        W74943  40.872  41.886   2.317
 3218W        W74944  35.740  34.942   5.308
 3219W        W74945  37.232  37.761   0.297
 3220W        W74946  37.125   1.939  12.010
 3221W        W74947  27.100  19.972   4.578
 3222W        W74948  17.352  22.721  11.227
 3223W        W74949  28.585  28.433  14.908
 3224W        W74950  40.438   3.838   3.650
 3225W        W74951  26.101  18.314  14.414
 3226W        W74952  34.510   2.470  11.590
 3227W        W74953   5.879  31.179   1.390
 3228W        W74954  11.846  25.470   0.233
 3229W        W74955   4.899  44.337  12.723
 3230W        W74956  19.639   9.574  13.592
 3231W        W74957   3.034  13.224  11.998
 3232W        W74958  38.628  18.482  13.852
 3233W        W74959  33.975  41.983   5.071
 3234W        W74960  21.141  37.929   1.634
 3235W        W74961  13.122  31.008  13.318
 3236W        W74962  27.444  13.602  10.344
 3237W        W74963   3.908  14.659   1.661
 3238W        W74964  12.187  38.383  13.958
 3239W        W74965   4.676  35.429   3.258
 3240W        W74966  22.280  25.543  12.160
 3241W        W74967  29.165   5.350  12.823
 3242W        W74968  28.687  35.010   4.470
 3243W        W74969  18.179  28.112  11.418
 3244W        W74970  39.466  33.532  11.000
 3245W        W74971  22.078  12.693   9.886
 3246W        W74972  43.945  34.188   4.090
 3247W        W74973  30.949  38.088   0.391
 3248W        W74974  16.835  10.947  12.562
 3249W        W74975  27.022  19.610   2.705
 3250W        W74976  28.220  31.609   0.316
 3251W        W74977  23.215  32.962   0.352
 3252W        W74978  21.731  25.889   3.664
 3253W        W74979  29.151  21.844  11.053
 3254W        W74980  16.218  37.663   3.590
 3255W        W74981  32.033  11.543  10.649
 3256W        W74982  42.076  36.995   4.203
 3257W        W74983  27.332  40.471   2.399
 3258W        W74984  16.540  41.506  11.990
 3259W        W74985  36.257  30.878   4.665
 3260W        W74986  18.507   3.973   4.550
 3261W        W74987  15.486  20.159  10.823
 3262W        W74988   4.943   7.180   4.715
 3263W        W74989   5.998  11.832  13.990
 3264W        W74990  42.489  17.830  13.080
 3265W        W74991   1.804  36.575  10.840
 3266W        W74992  25.078  14.761  10.657
 3267W        W74993  30.636  21.761  14.787
 3268W        W74994   0.008   4.893   2.301
 3269W        W74995  40.848  37.939  11.407
 3270W        W74996  37.232  40.137   0.973
 3271W        W74997  20.954  24.333  11.117
 3272W        W74998  18.313  25.134  11.746
 3273W        W74999   7.370  28.785  14.078
 3274W        W75000  26.923   6.294   1.256
 3275W        W75001   6.258   2.024  12.194
 3276W        W75002  25.223  40.359  14.724
 3277W        W75003  36.812   6.765  11.105
 3278W        W75004  13.334   9.818  12.385
 3279W        W75005  28.419   0.865   3.324
 3280W        W75006  15.896  27.109  13.116
 3281W        W75007  32.475   7.970   4.017
 3282W        W75008   5.180  16.310  10.562
 3283W        W75009  13.740  34.570   3.303
 3284W        W75010  32.332  26.099   3.524
 3285W        W75011   2.966  39.351  11.102
 3286W        W75012  22.212  40.066  12.843
 3287W        W75013  32.847  42.926   3.599
 3288W        W75014  13.386   4.638  12.399
 3289W        W75015  36.113   0.298  12.425
 3290W        W75016  42.887  43.760  13.547
 3291W        W75017   6.318  37.935   2.408
 3292W        W75018  16.789  18.780  11.656
 3293W        W75019  17.442  16.460   3.776
 3294W        W75020   9.644  30.071   0.032
 3295W        W75021  13.128  24.109   1.226
 3296W        W75022  37.716  43.439  12.011
 3297W        W75023  32.935  28.548  10.641
 3298W        W75024   3.670  27.629   2.271
 3299W        W75025  12.295  23.738  11.547
 3300W        W75026  44.716  27.568   2.731
 3301W        W75027  32.242  43.397  10.687
 3302W        W75028  19.513   6.071   2.746
 3303W        W75029  11.026  15.569   4.169
 3304W        W75030  24.002   6.940  10.873
 3305W        W75031  34.086  34.081  10.581
 3306W        W75032  21.743  10.816  11.973
 3307W        W75033  20.104  30.509  12.445
 3308W        W75034   4.403   3.482   0.880
 3309W        W75035  30.583  42.399   5.427
 3310W        W75036  38.281   3.912  11.356
 3311W        W75037  28.191  14.619   3.781
 3312W        W75038  40.054  41.286  10.726
 3313W        W75039  14.541   3.890   1.415
 3314W        W75040  34.552  12.724   0.981
 3315W        W75041  37.188  42.006   3.725
 3316W        W75042  13.097  28.029   5.180
 3317W        W75043   3.782  43.166  14.796
 3318W        W75044   4.350  29.160   1.357
 3319W        W75045  30.201   2.839  12.028
 3320W        W75046  23.036  43.758  10.566
 3321W        W75047   5.991  35.062  11.976
 3322W        W75048  39.486  26.803   0.357
 3323W        W75049  17.481  32.583  11.003
 3324W        W75050   7.750  43.723   2.249
 3325W        W75051  44.999   5.824   2.357
 3326W        W75052  24.694  23.475  11.660
 3327W        W75053  31.511   4.512  14.336
 3328W        W75054  24.690   6.396  13.993
 3329W        W75055  40.317  34.509  14.971
 3330W        W75056  22.451  16.699   2.288
 3331W        W75057  24.753   3.169  14.270
 3332W        W75058  19.084  33.544  11.903
 3333W        W75059  34.653  16.444   1.045
 3334W        W75060  39.585  27.986  12.637
 3335W        W75061  14.111  16.805   1.903
 3336W        W75062   2.401  16.653  14.739
 3337W        W75063  36.981   9.879  11.127
 3338W        W75064  25.428  23.616  10.510
 3339W        W75065  35.902  11.165  11.654
 3340W        W75066  42.506   9.642  10.667
 3341W        W75067   2.976  38.050  11.413
 3342W        W75068   7.253  22.540   1.343
 3343W        W75069  15.048  18.501   4.347
 3344W        W75070  17.275  28.034   0.049
 3345W        W75071  36.817   5.416   1.757
 3346W        W75072   8.799  11.618   3.841
 3347W        W75073  34.563  18.716   2.914
 3348W        W75074  17.854  20.556   2.356
 3349W        W75075  29.026   6.257  12.842
 3350W        W75076  36.385  27.962  13.982
 3351W        W75077   0.294  18.559  10.863
 3352W        W75078  42.103  28.542  11.972
 3353W        W75079  24.736  21.172  12.343
 3354W        W75080  11.868  26.579   1.298
 3355W        W75081   3.855  16.616  14.612
 3356W        W75082  21.659   4.868  10.057
 3357W        W75083  22.338  11.724   0.440
 3358W        W75084  11.095  32.376   3.074
 3359W        W75085  13.798  35.200   1.064
 3360W        W75086   6.759   5.776  13.598
 3361W        W75087  34.036   6.654   1.921
 3362W        W75088  15.683  12.927  12.973
 3363W        W75089  17.603  43.493   2.742
 3364W        W75090  38.593  13.665  13.368
 3365W        W75091   3.831   7.725  14.004
 3366W        W75092  21.087  12.018   4.864
 3367W        W75093  44.911   8.858  10.733
 3368W        W75094  38.040   7.991  12.611
 3369W        W75095  15.226  34.764  13.244
 3370W        W75096   5.621   7.472  13.475
 3371W        W75097   9.859   1.820   3.994
 3372W        W75098  23.969   4.713  11.994
 3373W        W75099  18.594  39.880   1.412
 3374W        W75100  44.175  38.367   0.952
 3375W        W75101  12.946  37.751  10.676
 3376W        W75102   3.939  10.859   3.184
 3377W        W75103  14.995  33.114   2.485
 3378W        W75104  41.820  30.085  12.563
 3379W        W75105   8.203  37.068   4.964
 3380W        W75106  36.562   0.285   1.444
 3381W        W75107  10.360  39.561   1.677
 3382W        W75108  10.587   5.812  11.960
 3383W        W75109   7.970  33.370  11.512
 3384W        W75110  42.911  16.199  13.388
 3385W        W75111   0.573  34.640  11.685
 3386W        W75112  18.291   7.850  11.730
 3387W        W75113  32.042  21.089  13.830
 3388W        W75114  35.988  11.840  12.156
 3389W        W75115  35.605  37.017   0.865
 3390W        W75116  35.073  33.084  12.485
 3391W        W75117  18.310   6.149  14.945
 3392W        W75118  36.077  43.014  14.001
 3393W        W75119  20.487  11.876   1.202
 3394W        W75120  24.586  12.417  12.199
 3395W        W75121  23.886  18.573   1.359
 3396W        W75122   3.499  30.287   3.647
 3397W        W75123  28.113  35.411   2.670
 3398W        W75124  24.392  39.813   1.468
 3399W        W75125   0.454   0.372  12.882
 3400W        W75126  35.627  24.501   2.618
 3401W        W75127   5.352  20.254  13.429
 3402W        W75128   8.323  19.240   3.662
 3403W        W75129  14.760  32.486   4.795
 3404W        W75130  22.464  12.013   5.101
 3405W        W75131  17.073   7.957   3.760
 3406W        W75132   6.266   5.915   3.342
 3407W        W75133   1.306  13.294  14.878
 3408W        W75134  18.783  30.808  12.007
 3409W        W75135  24.727  43.753  11.200
 3410W        W75136   0.314  14.441   1.410
 3411W        W75137  40.013  40.812  10.907
 3412W        W75138   0.962  34.128   4.092
 3413W        W75139  24.269  26.315  10.930
 3414W        W75140  25.100  20.711  13.179
 3415W        W75141  41.924  22.185   4.621
 3416W        W75142  27.093  11.028   0.879
 3417W        W75143  26.935  40.769  10.503
 3418W        W75144   6.808  24.576  11.499
 3419W        W75145  10.185  11.341  13.914
 3420W        W75146   0.950   3.882   0.780
 3421W        W75147  16.846  20.990  10.645
 3422W        W75148   7.762  14.034   0.282
 3423W        W75149  24.478   1.239  11.868
 3424W        W75150   4.048   9.420   3.415
 3425W        W75151   8.244  12.731   4.326
 3426W        W75152  38.063  35.360   3.908
 3427W        W75153  42.947  37.767   0.493
 3428W        W75154  22.919  25.441   1.004
 3429W        W75155   5.679  41.007   3.689
 3430W        W75156  40.637  33.305  12.813
 3431W        W75157  17.314  26.652  10.087
 3432W        W75158  40.095  16.973  11.184
 3433W        W75159  20.489   3.937   1.306
 3434W        W75160  31.850   8.830  12.988
 3435W        W75161  25.160  36.815   3.808
 3436W        W75162   4.897   5.265   4.099
 3437W        W75163   1.068  39.798   1.251
 3438W        W75164   2.388   3.108   1.801
 3439W        W75165  21.070  14.786  14.915
 3440W        W75166   7.424  24.531   4.313
 3441W        W75167  19.617  43.562   3.427
 3442W        W75168  23.148  31.664  13.389
 3443W        W75169  23.722   2.894   1.997
 3444W        W75170  35.499   1.805  11.193
 3445W        W75171  41.885  44.063   1.682
 3446W        W75172   9.540  30.908  13.393
 3447W        W75173  36.591  41.285  11.600
 3448W        W75174   5.457  22.925  11.839
 3449W        W75175   5.762  35.120  13.815
 3450W        W75176   9.213  15.388   4.707
 3451W        W75177  44.478   4.918  13.893
 3452W        W75178   9.230  10.307  13.258
 3453W        W75179  40.044  18.539  14.772
 3454W        W75180  25.517  41.564   1.290
 3455W        W75181  17.829  31.413   3.699
 3456W        W75182  41.684   6.338   3.759
 3457W        W75183  31.064  17.512  11.948
 3458W        W75184   6.195  11.166  10.633
 3459W        W75185  32.185  34.075   4.485
 3460W        W75186  37.063  14.187  12.917
 3461W        W75187  17.063  17.171  14.816
 3462W        W75188  42.829  33.370   4.533
 3463W        W75189  34.522  41.921   1.236
 3464W        W75190   7.356  43.311   3.072
 3465W        W75191  43.068  32.951   1.778
 3466W        W75192  33.971  35.192   1.355
 3467W        W75193  17.245  19.082   1.245
 3468W        W75194  20.933  23.090  14.467
 3469W        W75195  19.643  22.836   1.232
 3470W        W75196  27.148  14.307   2.241
 3471W        W75197  12.180  39.934  12.998
 3472W        W75198  13.603  32.886   3.839
 3473W        W75199  37.047  40.078  14.503
 3474W        W75200  40.989  17.565  13.855
 3475W        W75201  36.014  11.480  12.552
 3476W        W75202  26.412   6.428  12.460
 3477W        W75203  39.555  21.345  10.312
 3478W        W75204  41.586  38.979  11.110
 3479W        W75205   2.678   8.375   0.276
 3480W        W75206  19.976   4.450  12.008
 3481W        W75207  11.561  26.121   4.012
 3482W        W75208   0.682   1.439   0.417
 3483W        W75209  27.104  44.610  10.613
 3484W        W75210  19.665  16.824  12.799
 3485W        W75211  43.437   0.792  11.032
 3486W        W75212  11.656  34.460   0.971
 3487W        W75213  19.089  35.308   2.378
 3488W        W75214  41.921   5.198   3.314
 3489W        W75215  22.189   2.914  11.251
 3490W        W75216  18.314  33.422  13.902
 3491W        W75217  30.642   1.720  12.813
 3492W        W75218  44.390   0.552   2.309
 3493W        W75219  42.805  18.274   2.124
 3494W        W75220  35.589  38.007   2.825
 3495W        W75221   5.304  11.455   4.158
 3496W        W75222   7.396  14.204   3.032
 3497W        W75223  24.257  28.921  13.023
 3498W        W75224  32.047  33.901  14.783
 3499W        W75225  18.657  42.225  14.282
 3500W        W75226  31.088  31.964  14.840
 3501W        W75227  30.086  18.411   1.703
 3502W        W75228   6.512  40.291   1.322
 3503W        W75229  39.031  20.124   0.399
 3504W        W75230  39.840  30.056   3.417
 3505W        W75231  13.305  14.501  12.577
 3506W        W75232  28.092   0.471  12.164
 3507W        W75233  41.433   9.291  11.254
 3508W        W75234  11.360   4.512   1.523
 3509W        W75235  38.321  28.482  12.723
 3510W        W75236   7.783   8.814  10.710
 3511W        W75237  24.638  34.940   4.400
 3512W        W75238   9.743   4.451  14.258
 3513W        W75239  29.152  23.947  13.909
 3514W        W75240  10.753  22.119   3.077
 3515W        W75241   6.345   0.725   3.760
 3516W        W75242   1.272   4.394   1.722
 3517W        W75243   8.855  31.130   4.314
 3518W        W75244  24.733  31.138  12.035
 3519W        W75245  37.641  12.284   3.158
 3520W        W75246  40.835  10.560  11.124
 3521W        W75247  11.142  34.933  14.935
 3522W        W75248   3.230  20.359  12.052
 3523W        W75249   6.744  15.836  13.309
 3524W        W75250  43.999  43.947  14.444
 3525W        W75251  10.145   9.697   2.752
 3526W        W75252  10.699  17.295  11.572
 3527W        W75253  42.388  10.124   0.582
 3528W        W75254  27.006  17.562  12.551
 3529W        W75255   7.975  12.651   2.899
 3530W        W75256   2.540  10.378   2.289
 3531W        W75257  27.059   5.889  14.382
 3532W        W75258   1.196   5.647  10.736
 3533W        W75259  29.119  42.972  12.145
 3534W        W75260  19.655  13.182   1.210
 3535W        W75261  35.116   2.853  13.044
 3536W        W75262  29.524   8.687  14.287
 3537W        W75263  28.958  12.193   1.985
 3538W        W75264  44.027  33.873  13.912
 3539W        W75265  10.816  27.876  11.954
 3540W        W75266  39.834   2.981   4.866
 3541W        W75267  22.348  12.257  10.087
 3542W        W75268  11.346   7.338  13.651
 3543W        W75269  37.620  34.047  13.175
 3544W        W75270  24.166  37.536   2.290
 3545W        W75271  36.515  25.268   2.877
 3546W        W75272  16.765  31.657   3.434
 3547W        W75273  40.031   5.357  13.619
 3548W        W75274  29.998  37.618   3.161
 3549W        W75275  18.270  15.942   4.114
 3550W        W75276   6.394  14.210  14.519
 3551W        W75277  12.298   6.890  10.722
 3552W        W75278   4.316  38.888  12.931
 3553W        W75279   9.809   6.616   4.740
 3554W        W75280   3.889  39.186  10.990
 3555W        W75281  19.481  10.716   2.324
 3556W        W75282   2.824  13.654  11.593
 3557W        W75283  26.616   8.657   4.179
 3558W        W75284  30.389  30.153   3.300
 3559W        W75285  14.529  44.890  13.452
 3560W        W75286   4.839   5.422  12.103
 3561W        W75287  26.798  23.277   1.214
 3562W        W75288  26.628  23.493  13.645
 3563W        W75289  23.455   9.395  14.858
 3564W        W75290  15.661  44.693  11.613
 3565W        W75291  25.466  30.138  14.367
 3566W        W75292  37.490  34.054  14.944
 3567W        W75293  26.899  36.011   4.448
 3568W        W75294   4.959   6.815   3.682
 3569W        W75295   9.170  14.392  12.742
 3570W        W75296  19.964  15.362   0.396
 3571W        W75297  26.142  31.930  13.105
 3572W        W75298  11.894  43.379  12.835
 3573W        W75299   0.333   4.906  14.294
 3574W        W75300  44.403  21.680  13.070
 3575W        W75301  29.291  39.865  14.522
 3576W        W75302  12.710   6.455   0.317
 3577W        W75303  37.073  43.966   2.246
 3578W        W75304  21.475  27.678   2.581
 3579W        W75305   8.712   6.248   2.001
 3580W        W75306   9.145  37.407   3.180
 3581W        W75307  31.048  43.745  11.138
 3582W        W75308  26.219   9.850   0.868
 3583W        W75309   6.091   7.187  11.991
 3584W        W75310  14.270  29.991  12.941
 3585W        W75311   3.190  36.607   3.619
 3586W        W75312  32.884   8.169  11.978
 3587W        W75313  39.528  12.163  10.706
 3588W        W75314   5.730  38.101  11.877
 3589W        W75315   1.683  23.662   2.592
 3590W        W75316  26.820  19.099   3.611
 3591W        W75317   3.842   2.807   1.423
 3592W        W75318  36.191  37.887  12.565
 3593W        W75319  22.806  44.462   2.714
 3594W        W75320  18.123  30.307   3.413
 3595W        W75321  42.801  19.983  14.769
 3596W        W75322   8.973  29.026  14.274
 3597W        W75323   3.384   7.154   1.135
 3598W        W75324  27.917  35.888  10.754
 3599W        W75325   5.388  32.946   2.545
 3600W        W75326  27.597  25.746   2.093
 3601W        W75327  43.497  11.822  13.013
 3602W        W75328  38.587  23.711   0.448
 3603W        W75329   8.038   5.991  12.789
 3604W        W75330  44.992  39.464  11.916
 3605W        W75331  10.218  18.801  11.647
 3606W        W75332  40.390  19.699  12.866
 3607W        W75333   5.406  12.549  14.874
 3608W        W75334  19.287  13.864  13.473
 3609W        W75335   0.903  17.214   2.365
 3610W        W75336  31.607  35.027   3.107
 3611W        W75337  20.611   9.237   1.259
 3612W        W75338  39.380  38.916   3.254
 3613W        W75339  33.105  28.115  10.376
 3614W        W75340  24.819  40.562   4.752
 3615W        W75341  16.560  40.486  11.160
 3616W        W75342  39.900   1.904  11.577
 3617W        W75343  42.892  28.496  14.402
 3618W        W75344  26.075   3.226  12.457
 3619W        W75345  25.659   7.601  10.762
 3620W        W75346  16.288  28.716   3.451
 3621W        W75347   8.284  17.569   2.849
 3622W        W75348  12.644  20.154  13.405
 3623W        W75349  32.076   5.863  13.578
 3624W        W75350   4.232  18.851   1.637
 3625W        W75351  31.024  39.441   2.828
 3626W        W75352  19.939  36.291   2.447
 3627W        W75353  12.946   7.656   4.737
 3628W        W75354   4.301  15.414   5.610
 3629W        W75355  25.676  35.093   1.343
 3630W        W75356   3.341   9.307  13.250
 3631W        W75357   1.835  29.120  13.058
 3632W        W75358   2.810   7.938  13.372
 3633W        W75359   5.965  26.941  11.652
 3634W        W75360  18.126   9.245  13.012
 3635W        W75361  34.951   5.960   4.734
 3636W        W75362  27.244  25.716  11.418
 3637W        W75363  24.192  14.519  14.302
 3638W        W75364  26.565  40.491  12.470
 3639W        W75365   7.422  40.229  12.518
 3640W        W75366  39.476  20.651   1.306
 3641W        W75367   7.385   8.289  10.794
 3642W        W75368  32.032   9.346  11.396
 3643W        W75369   8.478  24.546  13.584
 3644W        W75370  34.064  18.754  10.946
 3645W        W75371  29.481  13.308   3.191
 3646W        W75372  15.673  25.742   0.410
 3647W        W75373  28.720  28.699  11.495
 3648W        W75374  28.526   6.319  11.046
 3649W        W75375  20.491  16.588   3.637
 3650W        W75376  35.586   4.750   2.978
 3651W        W75377  23.239  27.141  14.753
 3652W        W75378  42.825  17.747   3.640
 3653W        W75379  37.540  44.262  11.092
 3654W        W75380   3.283  36.843  11.634
 3655W        W75381  35.426   3.305   4.001
 3656W        W75382  23.000  14.239   0.899
 3657W        W75383  34.145   6.372  11.084
 3658W        W75384  16.486  22.983  14.521
 3659W        W75385  18.361  16.569   2.211
 3660W        W75386   1.831   4.783  11.104
 3661W        W75387  10.831   8.597  13.948
 3662W        W75388  38.589  37.565   1.227
 3663W        W75389  30.472  11.152  13.630
 3664W        W75390   6.307   5.154  12.109
 3665W        W75391  11.703  25.891  11.111
 3666W        W75392  34.815   2.893  12.138
 3667W        W75393  16.559   8.726   3.633
 3668W        W75394  37.891   3.944   0.429
 3669W        W75395  30.741  29.960  11.617
 3670W        W75396  37.264  33.549   2.822
 3671W        W75397  44.729   0.383   4.704
 3672W        W75398  15.752  22.932   3.260
 3673W        W75399  11.211  29.642  13.912
 3674W        W75400  21.786  39.869  11.476
 3675W        W75401  24.819   2.298   1.769
 3676W        W75402  17.544   5.643  14.986
 3677W        W75403  27.916   9.339   0.127
 3678W        W75404  11.969  29.360  14.291
 3679W        W75405  15.698  31.746  14.923
 3680W        W75406  29.645  18.236   0.982
 3681W        W75407  40.269  42.517   2.131
 3682W        W75408  33.592  43.359  13.796
 3683W        W75409  30.655  24.174  14.915
 3684W        W75410   9.105   8.390  13.054
 3685W        W75411  33.126   9.203   0.944
 3686W        W75412  18.048  37.803   3.681
 3687W        W75413   0.002  37.067   0.628
 3688W        W75414   5.682   7.491  13.985
 3689W        W75415  42.216  29.174   0.815
 3690W        W75416  25.223  28.877  14.815
 3691W        W75417  11.070  29.649   4.099
 3692W        W75418  25.514  30.462   3.313
 3693W        W75419  19.234  10.229   4.260
 3694W        W75420  42.834  27.990   1.316
 3695W        W75421  13.776  31.989  10.408
 3696W        W75422  11.925   5.980   1.859
 3697W        W75423   1.237  10.622   0.211
 3698W        W75424  14.130  32.177   0.208
 3699W        W75425  31.280  19.020  14.923
 3700W        W75426  34.152   1.801   3.747
 3701W        W75427  19.787  33.812   3.709
 3702W        W75428   4.890  38.843   2.453
 3703W        W75429   1.194  13.141  12.496
 3704W        W75430  38.875  23.074  14.715
 3705W        W75431   3.748  26.516  12.960
 3706W        W75432   8.184   1.337   4.140
 3707W        W75433  34.017   4.940  12.468
 3708W        W75434  32.885   8.730   1.817
 3709W        W75435  42.536  31.789  11.866
 3710W        W75436  29.405  22.485  14.829
 3711W        W75437  25.628  36.323  10.743
 3712W        W75438  32.873  27.093   0.038
 3713W        W75439  24.982  18.813   1.403
 3714W        W75440  43.706  29.052  12.152
 3715W        W75441  29.088  31.318  11.014
 3716W        W75442   6.673  26.770   3.294
 3717W        W75443  31.072  25.747   1.257
 3718W        W75444  18.128  43.978   4.563
 3719W        W75445   7.852  24.250  14.932
 3720W        W75446   4.777  13.299  11.773
 3721W        W75447   1.369  37.167  12.840
 3722W        W75448  15.819   1.983  14.419
 3723W        W75449  15.173  13.091  13.065
 3724W        W75450  27.049   5.442  12.041
 3725W        W75451   7.179   2.980   1.843
 3726W        W75452  12.823  10.415  11.723
 3727W        W75453  36.576  42.442   3.325
 3728W        W75454  20.556   8.920  10.869
 3729W        W75455   2.936  27.441   0.415
 3730W        W75456  40.411   6.632  13.089
 3731W        W75457  35.165  28.576   1.702
 3732W        W75458  27.676  13.404   4.522
 3733W        W75459  30.216  41.892   2.927
 3734W        W75460  23.244   6.368   3.414
 3735W        W75461  38.214   3.413   1.304
 3736W        W75462  17.596  15.839   1.423
 3737W        W75463   0.238  39.843  11.345
 3738W        W75464  29.584  41.532   4.789
 3739W        W75465  32.155  22.820   4.996
 3740W        W75466   8.893   6.823  11.379
 3741W        W75467  29.912  43.597  11.905
 3742W        W75468  28.920  16.942   0.399
 3743W        W75469  40.315   4.604  14.836
 3744W        W75470  17.263  44.993   4.099
 3745W        W75471   3.027  41.748   2.932
 3746W        W75472  25.846   9.122  14.380
 3747W        W75473  37.862  20.806  12.034
 3748W        W75474  26.974  29.578   3.627
 3749W        W75475  35.650  44.211   0.416
 3750W        W75476  35.125  11.387   2.834
 3751W        W75477  34.065  43.307   5.020
 3752W        W75478  25.008   0.063  11.496
 3753W        W75479   3.577   6.718  11.175
 3754W        W75480  29.137  11.742  14.839
 3755W        W75481  33.345  31.959   1.109
 3756W        W75482  24.267  18.517  13.700
 3757W        W75483   1.983  30.044   2.199
 3758W        W75484  34.734  19.720  10.748
 3759W        W75485  22.066  41.299  14.859
 3760W        W75486  34.650  38.103  14.922
 3761W        W75487   8.981  19.065   2.193
 3762W        W75488   4.177  35.296  12.614
 3763W        W75489  22.219  22.993  13.845
 3764W        W75490  20.190  37.560  11.487
 3765W        W75491  36.075  33.392  11.918
 3766W        W75492  31.142  13.703   0.856
 3767W        W75493   7.911  17.271  13.074
 3768W        W75494  11.531  42.499  11.949
 3769W        W75495   4.799  28.973   0.295
 3770W        W75496  43.244   6.928  10.993
 3771W        W75497  37.561  21.899   0.724
 3772W        W75498  24.994  44.921  12.361
 3773W        W75499  37.643   3.418   0.535
 3774W        W75500  37.635   0.919   4.702
 3775W        W75501  25.937   6.575   1.249
 3776W        W75502  32.156  41.572  10.614
 3777W        W75503   8.694   2.712  14.813
 3778W        W75504   6.797  43.767  13.779
 3779W        W75505   8.915  24.983  11.959
 3780W        W75506  43.262  28.709  14.747
 3781W        W75507   7.194  39.336  11.480
 3782W        W75508  36.510  29.448  10.743
 3783W        W75509   0.877   6.706  12.726
 3784W        W75510  24.280   5.840  12.451
 3785W        W75511  30.747  39.841   0.953
 3786W        W75512  35.424  12.330   1.645
 3787W        W75513  29.389  13.802  14.484
 3788W        W75514   4.723  40.804   3.874
 3789W        W75515  29.907  36.568  14.995
 3790W        W75516  17.316  37.565   2.313
 3791W        W75517  20.096  38.042  10.759
 3792W        W75518  27.300  43.241   3.346
 3793W        W75519  38.598  43.845  11.655
 3794W        W75520  24.979  17.400  12.750
 3795W        W75521   3.124  27.695  13.854
 3796W        W75522  29.912  37.200   4.647
 3797W        W75523  13.406  22.873   1.656
 3798W        W75524  10.930  34.611   9.697
 3799W        W75525  38.999  27.596  12.408
 3800W        W75526  30.127  12.350   0.010
 3801W        W75527  22.038  15.616  13.492
 3802W        W75528  30.605  28.277  12.059
 3803W        W75529  27.957  19.684   0.847
 3804W        W75530  32.471  10.438  10.614
 3805W        W75531  21.968  32.006  14.377
 3806W        W75532  13.635  44.050  10.753
 3807W        W75533  18.813   9.086  11.694
 3808W        W75534   6.719  38.341  11.930
 3809W        W75535   4.247  27.913  10.125
 3810W        W75536  39.397   8.585   3.219
 3811W        W75537   7.991  12.610  14.354
 3812W        W75538  33.042  14.266  11.924
 3813W        W75539   2.074   0.272   2.573
 3814W        W75540  19.042  42.271  13.467
 3815W        W75541  18.204  29.244  12.424
 3816W        W75542  43.916   3.458   1.201
 3817W        W75543  35.072  22.851  11.153
 3818W        W75544  42.304  25.496   1.213
 3819W        W75545  10.783   9.082   4.134
 3820W        W75546   4.194   8.467  13.525
 3821W        W75547  37.327   7.124  14.996
 3822W        W75548  10.262  28.684  12.954
 3823W        W75549  28.480   5.304  11.542
 3824W        W75550  32.363   0.551   2.895
 3825W        W75551   2.259  17.096   4.617
 3826W        W75552   8.866  33.140  11.994
 3827W        W75553  29.572  39.420   3.375
 3828W        W75554  18.143   4.408  13.931
 3829W        W75555  14.640   3.385   9.846
 3830W        W75556  25.041   9.401  14.156
 3831W        W75557  30.056  38.051  13.996
 3832W        W75558   1.295  28.261  14.955
 3833W        W75559  24.197  24.962  13.970
 3834W        W75560  42.694  44.813  11.688
 3835W        W75561  34.365   9.301  13.997
 3836W        W75562  18.080  43.498   4.778
 3837W        W75563   5.814  29.100   1.853
 3838W        W75564  41.213  23.103  11.860
 3839W        W75565  41.800  22.433   4.186
 3840W        W75566  29.962  34.893  12.592
 3841W        W75567  18.697  38.502  12.159
 3842W        W75568  29.854  29.950  14.127
 3843W        W75569   5.820  23.520  13.447
 3844W        W75570  16.584  38.008  10.308
 3845W        W75571  16.754   2.014  12.543
 3846W        W75572  20.182  42.975   3.410
 3847W        W75573   3.759  11.066   2.732
 3848W        W75574  28.785  14.271  11.376
 3849W        W75575  32.548  36.943  12.022
 3850W        W75576  12.565   7.056   2.518
 3851W        W75577  13.083  10.054   2.543
 3852W        W75578  41.829  19.207   1.257
 3853W        W75579  32.840  19.626   4.561
 3854W        W75580  27.079  44.668  13.659
 3855W        W75581   5.000  37.421  13.892
 3856W        W75582  15.298  24.505  14.451
 3857W        W75583  10.596  21.586   2.115
 3858W        W75584   6.394  28.138   0.415
 3859W        W75585  20.698   7.298   2.368
 3860W        W75586  28.006  36.191   2.159
 3861W        W75587  18.629  25.026  14.948
 3862W        W75588  25.027  21.394   4.150
 3863W        W75589  23.622   7.379  11.594
 3864W        W75590  29.927  15.916  13.375
 3865W        W75591  25.235   8.032  12.364
 3866W        W75592  30.595  42.001  14.678
 3867W        W75593  39.864  16.275  11.607
 3868W        W75594   2.986  36.034   3.603
 3869W        W75595   4.010  34.309  13.148
 3870W        W75596   7.127  14.337   2.217
 3871W        W75597  18.784   3.704  10.665
 3872W        W75598  31.608  39.189  11.588
 3873W        W75599  28.673   9.282  11.167
 3874W        W75600  39.407  27.215   2.198
 3875W        W75601  31.104  44.955   2.632
 3876W        W75602  26.378  11.108  12.822
 3877W        W75603   0.316  40.571  12.902
 3878W        W75604   1.779  21.772   0.800
 3879W        W75605  44.419  32.196   0.233
 3880W        W75606  36.606  20.884  11.525
 3881W        W75607  14.888  19.970   4.709
 3882W        W75608   9.296  12.768  13.835
 3883W        W75609  22.109   7.436   3.870
 3884W        W75610  12.089  28.737   0.204
 3885W        W75611  26.138  11.891   2.961
 3886W        W75612  10.545  21.958  12.842
 3887W        W75613   7.451  17.112  14.307
 3888W        W75614  32.759  19.137  11.508
 3889W        W75615  43.766   8.098   1.371
 3890W        W75616  38.361   5.813   0.484
 3891W        W75617  29.836   6.700   2.311
 3892W        W75618  10.229  29.302   1.867
 3893W        W75619  14.734   3.806  11.074
 3894W        W75620   2.772  19.390  12.941
 3895W        W75621  32.583   9.324   4.267
 3896W        W75622  44.343  41.798   0.397
 3897W        W75623  28.223  30.599  13.958
 3898W        W75624  15.017   9.237  12.333
 3899W        W75625  24.558   1.877  11.600
 3900W        W75626  25.955   9.780  10.623
 3901W        W75627   8.627  25.539  13.912
 3902W        W75628  31.224  15.193  10.483
 3903W        W75629  12.202  11.646   4.244
 3904W        W75630  16.096  21.065  10.921
 3905W        W75631  44.001  38.598  11.521
 3906W        W75632  40.922  13.957   2.194
 3907W        W75633  13.771  33.780   1.874
 3908W        W75634   7.170  31.332  11.094
 3909W        W75635   8.266  33.348  12.509
 3910W        W75636  26.959  36.013  12.403
 3911W        W75637  37.960  19.782  11.107
 3912W        W75638  42.424  13.574  12.006
 3913W        W75639   9.181  16.130  11.548
 3914W        W75640  35.034  28.510   2.195
 3915W        W75641  13.796   0.617   1.814
 3916W        W75642  16.681  37.910   3.853
 3917W        W75643  22.616  22.704   0.846
 3918W        W75644  33.334   3.723   0.458
 3919W        W75645  32.875   1.918   2.264
 3920W        W75646   3.445  31.499   4.038
 3921W        W75647   6.388  20.305   4.748
 3922W        W75648  25.657  34.403  12.456
 3923W        W75649  27.935  44.244   1.041
 3924W        W75650  28.557   7.311  11.426
 3925W        W75651  30.755  27.852   1.705
 3926W        W75652   5.163  25.684  12.887
 3927W        W75653   2.268   7.109  13.538
 3928W        W75654  21.958  29.049  14.921
 3929W        W75655  32.628  42.261   1.377
 3930W        W75656   8.374  40.772   4.590
 3931W        W75657  41.975  40.072   1.187
 3932W        W75658  11.858  18.489   2.921
 3933W        W75659  17.494  42.434  11.505
 3934W        W75660  20.288   0.765  13.878
 3935W        W75661  16.047  16.724  14.942
 3936W        W75662  20.210  13.409   2.413
 3937W        W75663  22.455  31.177  14.300
 3938W        W75664  43.966   4.233  14.345
 3939W        W75665  42.994  32.481   3.389
 3940W        W75666  37.154  11.107   0.176
 3941W        W75667   4.194  29.505  11.981
 3942W        W75668  40.090  31.456  14.977
 3943W        W75669  34.013  21.702   1.043
 3944W        W75670   4.029  26.434   0.251
 3945W        W75671  25.663  37.806   0.244
 3946W        W75672  23.092  44.808   4.171
 3947W        W75673   6.795  20.379   3.219
 3948W        W75674  15.208  25.296   4.290
 3949W        W75675   0.439  21.032  14.837
 3950W        W75676   9.189  26.142   4.125
 3951W        W75677  34.827  26.625   4.583
 3952W        W75678  10.447   7.366   4.645
 3953W        W75679  33.372  22.248  12.570
 3954W        W75680  12.845  44.729   4.820
 3955W        W75681   1.638  23.935   3.423
 3956W        W75682  27.894  13.361  12.490
 3957W        W75683  32.479  15.312  14.755
 3958W        W75684  36.641  28.943   0.750
 3959W        W75685  29.750  10.319  13.398
 3960W        W75686  11.345  10.248   4.594
 3961W        W75687  13.215  24.016   4.643
 3962W        W75688  34.585  36.328   1.728
 3963W        W75689  10.671   6.598   2.685
 3964W        W75690  41.910  42.372  10.700
 3965W        W75691  13.161  14.706   0.313
 3966W        W75692  10.738  34.168  14.554
 3967W        W75693  21.636  33.494   0.378
 3968W        W75694  26.376   6.879  11.571
 3969W        W75695  42.055  33.562  10.328
 3970W        W75696  39.794  37.000  13.401
 3971W        W75697   6.572   3.421   1.519
 3972W        W75698  28.432  26.883   0.203
 3973W        W75699  34.991  12.346   2.839
 3974W        W75700  16.072  15.837   1.257
 3975W        W75701  15.791  14.376  14.770
 3976W        W75702  40.854   8.601  13.431
 3977W        W75703  25.501   4.897  13.670
 3978W        W75704  17.681  30.031   3.398
 3979W        W75705  43.397  20.680  12.617
 3980W        W75706  21.445  23.082  14.500
 3981W        W75707   8.223   8.125   3.172
 3982W        W75708  11.698  37.974  11.463
 3983W        W75709  23.488  39.237   1.336
 3984W        W75710  34.739   9.989  14.468
 3985W        W75711  37.552  20.264  13.969
 3986W        W75712  18.000  29.355   0.474
 3987W        W75713  35.603   9.502   3.560
 3988W        W75714  41.402  30.051   2.050
 3989W        W75715   1.379  14.944   3.439
 3990W        W75716  14.822  14.610   3.478
 3991W        W75717  18.322   1.751  14.004
 3992W        W75718  42.489  40.733   2.456
 3993W        W75719  38.413  33.848   4.226
 3994W        W75720  24.432  38.441   0.243
 3995W        W75721  22.753  32.001  10.643
 3996W        W75722  43.328  34.240   2.360
 3997W        W75723   9.695  44.943   4.640
 3998W        W75724  43.034  28.968  10.985
 3999W        W75725   0.056   9.364  14.471
 4000W        W75726  39.778  18.122   1.662
 4001W        W75727  31.448  31.547  10.670
 4002W        W75728  11.903  35.535   3.283
 4003W        W75729  23.083   6.460  12.563
 4004W        W75730  14.166  11.872  13.001
 4005W        W75731  40.363   1.825  14.849
 4006W        W75732  10.342  22.204   2.777
 4007W        W75733  10.676   0.063   0.445
 4008W        W75734  20.116  16.382   3.951
 4009W        W75735  38.912  11.958   0.751
 4010W        W75736  30.597  31.474   0.689
 4011W        W75737  36.607  21.103  13.925
 4012W        W75738  34.591  20.914   0.507
 4013W        W75739   2.070  39.023   1.392
 4014W        W75740  38.896   1.585   3.110
 4015W        W75741  29.654  13.141  12.126
 4016W        W75742  38.469  32.897  10.604
 4017W        W75743   2.468  38.928   2.309
 4018W        W75744  44.765   0.835  12.434
 4019W        W75745  24.049  28.096  14.854
 4020W        W75746  10.865  28.966   4.875
 4021W        W75747  11.252  32.535  10.923
 4022W        W75748  24.003  20.956   3.127
 4023W        W75749  14.526   2.377   1.460
 4024W        W75750  19.314  44.519   2.446
 4025W        W75751  17.201   5.770   4.532
 4026W        W75752  20.369  22.661  10.638
 4027W        W75753   5.363  37.736  14.371
 4028W        W75754   6.245  14.573  11.609
 4029W        W75755  23.655   5.928   4.641
 4030W        W75756  14.042  37.999   2.391
 4031W        W75757   6.665  14.863  11.571
 4032W        W75758  26.893  26.269  13.926
 4033W        W75759  25.538   2.974   2.323
 4034W        W75760  35.825  17.406  14.085
 4035W        W75761  22.185  13.584  10.623
 4036W        W75762  42.270  11.388  12.545
 4037W        W75763   4.843  11.347  13.434
 4038W        W75764  41.511  32.063  14.984
 4039W        W75765  11.405   6.219   0.766
 4040W        W75766   9.206  42.700  10.432
 4041W        W75767  43.583  17.506  13.433
 4042W        W75768  40.824   9.084   2.865
 4043W        W75769   0.559  37.642  13.821
 4044W        W75770  38.610  15.335   3.752
 4045W        W75771   7.695  36.308  14.482
 4046W        W75772  38.321   8.467   1.311
 4047W        W75773   5.904  23.068   0.835
 4048W        W75774  44.570  19.763   4.782
 4049W        W75775  30.528  30.343  10.716
 4050W        W75776  28.499  17.525   1.855
 4051W        W75777  21.677  40.405  13.497
 4052W        W75778  38.395  38.790   3.212
 4053W        W75779  34.408  24.720  10.951
 4054W        W75780  34.091  10.254  13.153
 4055W        W75781  22.516   9.363   0.791
 4056W        W75782  43.884  13.929   1.363
 4057W        W75783  16.404   6.846  11.161
 4058W        W75784  30.644  32.893  13.469
 4059W        W75785  10.861  16.335   3.747
 4060W        W75786  40.856  40.378   3.196
 4061W        W75787  37.982  21.585  11.625
 4062W        W75788  21.034  10.172  12.999
 4063W        W75789   3.712  32.115   2.225
 4064W        W75790  31.367  36.079   1.484
 4065W        W75791  35.121  31.353   0.725
 4066W        W75792  16.156  21.989  14.487
 4067W        W75793  30.491  20.720  14.385
 4068W        W75794  14.757  25.072  10.653
 4069W        W75795  14.348  16.573   3.317
 4070W        W75796  26.416  35.439  12.573
 4071W        W75797  16.853  23.168  11.533
 4072W        W75798  39.475   3.374  13.338
 4073W        W75799  19.292  40.014   3.943
 4074W        W75800  20.139  34.854   2.831
 4075W        W75801  21.778  17.807  12.286
 4076W        W75802  21.811  28.052   2.675
 4077W        W75803  29.861  34.401  11.961
 4078W        W75804  38.639  41.742   3.907
 4079W        W75805  14.870  37.758  12.107
 4080W        W75806  11.303  38.795   0.471
 4081W        W75807  15.866  38.681  11.797
 4082W        W75808   7.109  29.074   4.884
 4083W        W75809  44.787   6.306   2.388
 4084W        W75810   9.511  33.082   9.459
 4085W        W75811   5.763  33.374  13.355
 4086W        W75812  13.240  38.158   1.750
 4087W        W75813   4.029  42.213  10.693
 4088W        W75814  21.224  24.038  12.979
 4089W        W75815  41.840   4.741   3.099
 4090W        W75816   8.248  30.189   2.136
 4091W        W75817  42.631  42.796   3.302
 4092W        W75818   6.617  17.353   0.315
 4093W        W75819  29.344  27.378  13.913
 4094W        W75820  12.290   7.235   0.420
 4095W        W75821  36.005  26.881   3.193
 4096W        W75822   1.456  43.778   4.384
 4097W        W75823  11.433  26.597  11.945
 4098W        W75824  24.669  42.829  14.867
 4099W        W75825  13.889  38.417  12.914
 4100W        W75826  25.612  24.754   1.058
 4101W        W75827  19.972  43.116   0.964
 4102W        W75828  34.685  28.923  14.290
 4103W        W75829  33.107  26.876   0.444
 4104W        W75830  16.294  11.523  11.657
 4105W        W75831  25.514  24.222  14.884
 4106W        W75832   6.441   9.837  13.398
 4107W        W75833  22.678  29.616  12.465
 4108W        W75834  29.119  30.826   4.596
 4109W        W75835   2.922   0.130   4.248
 4110W        W75836  13.218  43.215   3.227
 4111W        W75837  26.636  41.334   3.873
 4112W        W75838  15.774  24.317   4.692
 4113W        W75839  43.395  22.259  11.630
 4114W        W75840  40.254  11.801  13.078
 4115W        W75841  35.402   0.401  14.488
 4116W        W75842   5.387  18.463  13.470
 4117W        W75843  11.074   8.057  10.974
 4118W        W75844   5.871  22.638   2.834
 4119W        W75845   5.290  34.811  11.417
 4120W        W75846  37.048   6.201   4.679
 4121W        W75847  27.636  21.448  12.494
 4122W        W75848  24.648  32.519  12.597
 4123W        W75849   5.732  30.974  10.689
 4124W        W75850   3.973  36.307   2.358
 4125W        W75851  13.790  41.568  12.401
 4126W        W75852  44.893   3.275   3.231
 4127W        W75853  10.710  43.842   2.086
 4128W        W75854   8.934   9.686   1.877
 4129W        W75855  39.437   7.189  10.543
 4130W        W75856  35.623  19.287  10.907
 4131W        W75857  19.546  18.719  11.936
 4132W        W75858  20.778  29.930   4.906
 4133W        W75859  20.224   6.683   1.766
 4134W        W75860  18.768  22.596  10.786
 4135W        W75861  31.384  22.667  12.901
 4136W        W75862   4.736  25.455  10.741
 4137W        W75863  28.884   1.714   0.318
 4138W        W75864  28.440   7.327   0.403
 4139W        W75865   3.780  37.940  13.635
 4140W        W75866  28.607  35.986   3.738
 4141W        W75867  24.652  22.184  13.053
 4142W        W75868  15.652  12.387   4.480
 4143W        W75869  20.602  35.674   2.752
 4144W        W75870  11.729  42.585   2.841
 4145W        W75871  17.524  15.234  12.018
 4146W        W75872  42.789  42.365  10.577
 4147W        W75873   2.303  23.078   3.376
 4148W        W75874  21.523  25.086   5.182
 4149W        W75875  19.712  40.327  14.887
 4150W        W75876  12.571  15.356   2.740
 4151W        W75877   1.421   3.862   3.527
 4152W        W75878   4.453   9.654  12.633
 4153W        W75879  39.993  14.235  11.125
 4154W        W75880  26.086  12.371  12.039
 4155W        W75881  27.072   7.014  10.274
 4156W        W75882  10.835   9.178  14.800
 4157W        W75883  38.766   0.143  12.117
 4158W        W75884  24.009   3.607  12.867
 4159W        W75885  20.234  24.944   4.125
 4160W        W75886   0.481  42.058  11.944
 4161W        W75887  38.464  37.473  13.899
 4162W        W75888  18.506  19.953   1.929
 4163W        W75889  38.459  23.768  12.781
 4164W        W75890  12.763   2.289  12.375
 4165W        W75891  10.903  38.931   4.105
 4166W        W75892  38.823  14.274  10.209
 4167W        W75893  29.956   0.287   0.005
 4168W        W75894  10.906  35.993  14.447
 4169W        W75895  26.135  14.799   2.565
 4170W        W75896  10.239  24.506   4.869
 4171W        W75897  11.217  24.661   1.270
 4172W        W75898  14.980  22.819  12.648
 4173W        W75899  36.126  23.230   3.313
 4174W        W75900  38.327   1.871  14.502
 4175W        W75901  25.531   9.287  13.383
 4176W        W75902   6.927  33.064   3.003
 4177W        W75903  36.409   7.478  13.994
 4178W        W75904   0.480  35.506  14.765
 4179W        W75905   0.362   0.920  14.760
 4180W        W75906  25.158   7.234   0.243
 4181W        W75907   4.787  38.887  13.914
 4182W        W75908  39.104  12.286  14.805
 4183W        W75909  21.738  31.173  11.875
 4184W        W75910   5.370  23.178  13.487
 4185W        W75911  25.503  31.073   1.680
 4186W        W75912   9.044  33.415   2.527
 4187W        W75913  32.344   6.294   3.305
 4188W        W75914  23.965   3.942   0.686
 4189W        W75915  35.591  22.463   1.310
 4190W        W75916  13.274   5.339   1.720
 4191W        W75917  10.416   0.699   2.647
 4192W        W75918  33.872  23.915   3.768
 4193W        W75919   4.386  41.458  13.452
 4194W        W75920  44.954   4.914  11.505
 4195W        W75921  32.830   8.671  11.997
 4196W        W75922  38.416  25.212  14.579
 4197W        W75923  10.157   0.227   2.695
 4198W        W75924  34.159  20.876   3.302
 4199W        W75925  11.817  37.641   1.866
 4200W        W75926  22.995  36.612  10.409
 4201W        W75927   6.264  27.984  12.982
 4202W        W75928  35.475   0.133  14.947
 4203W        W75929  34.380  29.616   0.357
 4204W        W75930  11.226  10.806  14.586
 4205W        W75931   6.848  24.091   3.284
 4206W        W75932  20.015  39.401  11.635
 4207W        W75933  11.160  16.992   0.128
 4208W        W75934   2.573  41.975   2.827
 4209W        W75935  19.476  26.955  12.542
 4210W        W75936  24.624  39.272   2.854
 4211W        W75937   2.206   0.148  13.601
 4212W        W75938   1.838  13.290  11.121
 4213W        W75939  26.292  38.263  12.098
 4214W        W75940   9.295  15.306   4.175
 4215W        W75941  30.294  33.387   0.875
 4216W        W75942   1.408   0.770  12.203
 4217W        W75943  40.582  39.518  11.043
 4218W        W75944  40.545   6.894  11.188
 4219W        W75945  31.499  32.814  11.081
 4220W        W75946  11.467   3.252   1.755
 4221W        W75947   0.069  12.587  11.173
 4222W        W75948  37.343   9.432  11.830
 4223W        W75949   5.113  36.472   1.723
 4224W        W75950  15.558   8.813   0.347
 4225W        W75951  25.527  24.265   4.030
 4226W        W75952  17.367  38.113  13.118
 4227W        W75953   3.411  18.644   4.434
 4228W        W75954  12.610   0.966   1.401
 4229W        W75955  21.744   6.475   0.226
 4230W        W75956  24.642  10.741   1.195
 4231W        W75957  28.968  16.755  12.936
 4232W        W75958  44.113  38.993   4.640
 4233W        W75959   7.137  26.576   3.209
 4234W        W75960  24.225  23.685  11.613
 4235W        W75961  44.287  41.797  11.456
 4236W        W75962  20.820  26.494  13.877
 4237W        W75963  10.107  42.707  11.094
 4238W        W75964  14.302  11.814   4.113
 4239W        W75965  31.458  16.505   2.860
 4240W        W75966  24.081  12.385  12.826
 4241W        W75967  14.722  14.116   1.364
 4242W        W75968   2.457  11.197   0.371
 4243W        W75969   7.692   5.162   4.299
 4244W        W75970  23.547  26.565  13.789
 4245W        W75971   1.483  12.687  12.509
 4246W        W75972  14.816   0.680  12.970
 4247W        W75973   7.235  34.794   0.278
 4248W        W75974   0.992  39.379   1.879
 4249W        W75975  32.525   8.578  11.601
 4250W        W75976  11.136  40.883   1.014
 4251W        W75977  10.040  33.506   2.294
 4252W        W75978  32.041   4.000   5.094
 4253W        W75979  27.587  23.156  12.399
 4254W        W75980  14.991  19.056  12.110
 4255W        W75981  11.966  17.832   2.935
 4256W        W75982   1.773   4.270  12.609
 4257W        W75983  19.565  27.673  10.489
 4258W        W75984   2.753  25.191   1.595
 4259W        W75985  15.562  34.512   0.738
 4260W        W75986  11.294  37.856   2.874
 4261W        W75987  40.327  27.562  13.495
 4262W        W75988   2.492  35.468  14.913
 4263W        W75989  37.466   0.774   4.217
 4264W        W75990  17.331  35.257   4.926
 4265W        W75991  35.345   3.302  12.900
 4266W        W75992  19.974  18.671   1.077
 4267W        W75993  11.913   4.448  10.943
 4268W        W75994   6.916  32.365   4.902
 4269W        W75995  23.755  39.993  11.625
 4270W        W75996  29.884  22.158  10.493
 4271W        W75997  20.950  41.423   0.670
 4272W        W75998  37.398  18.192   1.306
 4273W        W75999  32.697  28.167  13.812
 4274W        W76000  31.870   9.350   2.283
 4275W        W76001   5.734   0.959  11.344
 4276W        W76002  34.568  32.613  13.452
 4277W        W76003  29.175   6.746  12.934
 4278W        W76004  15.825  39.442  14.882
 4279W        W76005  19.734  14.164   2.476
 4280W        W76006  30.469  24.068  11.482
 4281W        W76007  42.441  21.280  13.863
 4282W        W76008   4.892   4.928   5.450
 4283W        W76009  14.805  20.231   3.221
 4284W        W76010  39.070  23.973  11.128
 4285W        W76011  26.011   5.374  11.215
 4286W        W76012  22.256  32.087   5.040
 4287W        W76013   0.376  25.105   3.670
 4288W        W76014  33.874   9.238  10.520
 4289W        W76015  39.251  29.924  12.529
 4290W        W76016  25.660  14.197   5.088
 4291W        W76017  37.522  30.891  14.023
 4292W        W76018   6.980  41.391   4.822
 4293W        W76019   4.930  12.861   0.345
 4294W        W76020  15.202   3.554  11.141
 4295W        W76021   9.827   4.284   3.833
 4296W        W76022  41.774  31.848   4.048
 4297W        W76023  28.577  24.272   0.263
 4298W        W76024   3.084  41.248  13.373
 4299W        W76025  16.193  25.729   2.820
 4300W        W76026   6.242  41.211   3.900
 4301W        W76027  15.057   9.647  12.979
 4302W        W76028  18.001  13.191  12.050
 4303W        W76029  39.870  20.478  10.706
 4304W        W76030   5.509  12.536   4.611
 4305W        W76031  28.332  16.620  11.561
 4306W        W76032  12.656  21.109   2.927
 4307W        W76033   9.792  13.291   5.062
 4308W        W76034  11.171  42.224   1.738
 4309W        W76035  24.981  13.519   1.648
 4310W        W76036  21.282  37.954  10.495
 4311W        W76037  14.296  39.073   2.612
 4312W        W76038   5.642  23.969   2.643
 4313W        W76039  18.826  13.582   4.332
 4314W        W76040  24.081  43.860   3.136
 4315W        W76041  27.154  31.876  11.717
 4316W        W76042  20.954  14.161  11.873
 4317W        W76043  26.077  37.200  12.632
 4318W        W76044  44.827  43.716  10.601
 4319W        W76045  30.418  17.336  12.603
 4320W        W76046  43.583  41.513   2.562
 4321W        W76047  44.604  38.534   0.722
 4322W        W76048   4.888   6.808  10.782
 4323W        W76049  42.417  22.296  13.068
 4324W        W76050  44.890  15.718   1.727
 4325W        W76051  44.307  35.901   1.942
 4326W        W76052  31.955  10.280   4.185
 4327W        W76053   4.940  24.601  14.524
 4328W        W76054  38.413  42.329   0.643
 4329W        W76055  40.756  28.029  12.948
 4330W        W76056  13.598  27.422   1.460
 4331W        W76057  16.110  20.743   0.935
 4332W        W76058  14.691  41.873  13.816
 4333W        W76059  12.296   4.285   3.042
 4334W        W76060  31.590  13.214  14.415
 4335W        W76061  26.164   8.774   1.919
 4336W        W76062  37.343  15.717  12.587
 4337W        W76063   1.207  29.159  10.384
 4338W        W76064  39.309  37.123   1.611
 4339W        W76065  31.635   1.462   3.243
 4340W        W76066  39.263  13.637   4.150
 4341W        W76067   6.696  33.937   1.234
 4342W        W76068  39.441   3.683   2.135
 4343W        W76069  15.003  22.497   1.747
 4344W        W76070  25.436  34.095  14.748
 4345W        W76071   5.787  21.161  12.130
 4346W        W76072  18.760  12.813   0.451
 4347W        W76073  12.148  12.140  14.802
 4348W        W76074  23.742  19.957   1.156
 4349W        W76075  10.940  19.681   5.179
 4350W        W76076  19.144  28.139  14.440
 4351W        W76077  35.384  40.899   0.973
 4352W        W76078  38.900  38.034   1.903
 4353W        W76079  37.356  43.831   0.866
 4354W        W76080  34.970  25.102   1.676
 4355W        W76081   5.790  27.120  14.933
 4356W        W76082   9.358   2.396   4.659
 4357W        W76083   6.631   8.228  11.967
 4358W        W76084  41.752   3.955  12.037
 4359W        W76085  17.049   1.358   0.479
 4360W        W76086  30.110  33.991  12.266
 4361W        W76087  31.940  40.706  10.276
 4362W        W76088  20.221  41.868   1.680
 4363W        W76089  16.835  44.028   4.102
 4364W        W76090  12.340   1.042   3.757
 4365W        W76091  43.472  30.113   2.832
 4366W        W76092  33.486  28.680   2.877
 4367W        W76093   1.168  18.814  11.231
 4368W        W76094  15.666  32.376  10.569
 4369W        W76095  26.757  30.558   4.749
 4370W        W76096  37.875  11.195  10.811
 4371W        W76097  15.443  27.142  10.338
 4372W        W76098  43.973  43.799   4.862
 4373W        W76099  38.794  29.409  11.182
 4374W        W76100  39.117  38.865  11.501
 4375W        W76101  26.433  42.353   3.908
 4376W        W76102  42.490   1.360   1.379
 4377W        W76103  35.010  38.112   0.278
 4378W        W76104  11.445   6.729   0.943
 4379W        W76105  41.735  23.532  14.787
 4380W        W76106   5.161  11.596   1.863
 4381W        W76107  18.770   2.413   2.357
 4382W        W76108  44.248  32.987   4.500
 4383W        W76109   5.743  41.591   1.777
 4384W        W76110  43.035  27.065   0.013
 4385W        W76111  11.269   1.278   1.969
 4386W        W76112  12.370  44.807   2.330
 4387W        W76113  24.950  11.884   1.598
 4388W        W76114  14.999  10.221  10.719
 4389W        W76115  37.923  20.573  10.698
 4390W        W76116  30.548  42.993   0.944
 4391W        W76117  22.224  33.418   3.159
 4392W        W76118  11.805  20.366   1.180
 4393W        W76119  42.987  17.078  14.732
 4394W        W76120  28.955  21.451  13.610
 4395W        W76121  21.736  10.647   0.840
 4396W        W76122  11.312  26.390   4.390
 4397W        W76123  15.010  15.229   1.976
 4398W        W76124  15.609  24.728   0.844
 4399W        W76125   4.458  32.588   0.796
 4400W        W76126   4.755   7.744  10.567
 4401W        W76127  17.518  15.806  10.894
 4402W        W76128  35.651  20.686  14.052
 4403W        W76129  29.533  43.298  12.140
 4404W        W76130  37.412  10.203   4.672
 4405W        W76131  43.278  17.621  13.832
 4406W        W76132   1.885  22.544   4.740
 4407W        W76133  22.411  14.587   5.063
 4408W        W76134  15.225  10.175  13.649
 4409W        W76135  22.535  26.616  13.894
 4410W        W76136  11.823   0.314  14.972
 4411W        W76137  11.154  13.005  10.698
 4412W        W76138  27.259   0.954   2.358
 4413W        W76139  41.967  11.028  12.743
 4414W        W76140  30.371  25.574   4.562
 4415W        W76141  34.808  21.977  11.020
 4416W        W76142  32.148  37.954   4.622
 4417W        W76143  38.494   3.838  14.737
 4418W        W76144   7.205  43.272  10.670
 4419W        W76145  37.574   0.516   3.732
 4420W        W76146  32.071  23.443   2.898
 4421W        W76147   1.230  20.437   4.026
 4422W        W76148   6.990  11.081  14.563
 4423W        W76149  36.527  30.549  14.023
 4424W        W76150   7.266  13.065  14.369
 4425W        W76151  35.111  31.852   4.582
 4426W        W76152  24.310   9.364  13.008
 4427W        W76153  11.403  25.735   3.310
 4428W        W76154  13.041  26.126   3.143
 4429W        W76155  28.551  14.720   2.606
 4430W        W76156  34.467   3.326  14.109
 4431W        W76157   4.952  16.180   1.269
 4432W        W76158  14.055  37.494  13.741
 4433W        W76159   9.709  43.765   3.015
 4434W        W76160  16.154  37.898  14.984
 4435W        W76161  41.698  15.604   2.728
 4436W        W76162  23.195  39.174   3.185
 4437W        W76163  37.041  18.220  14.377
 4438W        W76164  28.638   4.470   4.166
 4439W        W76165   2.351  37.771  13.285
 4440W        W76166  44.295   3.169   1.425
 4441W        W76167  31.914   1.287   3.690
 4442W        W76168  31.096   2.622  10.685
 4443W        W76169   8.309  18.578  11.153
 4444W        W76170  18.198   7.964  11.251
 4445W        W76171  36.532  27.229   0.327
 4446W        W76172  32.062  22.659   1.426
 4447W        W76173  13.393   1.143   4.809
 4448W        W76174  10.383   2.359  14.453
 4449W        W76175  30.373  16.061   2.320
 4450W        W76176  23.114   7.068  11.423
 4451W        W76177  42.304  44.068   0.862
 4452W        W76178  36.639  41.425   2.342
 4453W        W76179  42.458  28.178   1.941
 4454W        W76180  36.816  39.869   2.784
 4455W        W76181  15.861  29.184   2.694
 4456W        W76182   4.878  44.219  10.692
 4457W        W76183   0.417   8.681  10.671
 4458W        W76184  28.051   8.759   0.848
 4459W        W76185  10.946  41.347  12.030
 4460W        W76186  43.022  31.030   1.758
 4461W        W76187   3.343  28.205   1.468
 4462W        W76188  22.451  42.820  10.733
 4463W        W76189  20.090  42.133   1.239
 4464W        W76190  42.750  40.965   4.607
 4465W        W76191   2.954   8.621  12.904
 4466W        W76192  18.790   2.566   1.296
 4467W        W76193  38.318  25.181   4.679
 4468W        W76194  41.946  11.358  14.857
 4469W        W76195  15.277   6.530   3.661
 4470W        W76196  12.207  43.310  14.723
 4471W        W76197  15.072  44.442   2.026
 4472W        W76198   5.048  35.933   2.918
 4473W        W76199  42.326  24.232  13.297
 4474W        W76200  24.965  21.050  12.804
 4475W        W76201  42.978  12.294  13.299
 4476W        W76202  41.259   7.436  12.522
 4477W        W76203  43.447  11.350   4.210
 4478W        W76204  27.953  37.803  13.453
 4479W        W76205   3.286   7.326   3.744
 4480W        W76206  21.692  39.950  10.555
 4481W        W76207  16.313  41.750  12.545
 4482W        W76208  41.460  42.150   4.323
 4483W        W76209  39.476   1.675   2.846
 4484W        W76210  29.710  32.156  11.972
 4485W        W76211  29.535  23.290  11.948
 4486W        W76212   3.376  17.327  13.099
 4487W        W76213  41.079  10.287  11.611
 4488W        W76214  40.897   0.391   2.848
 4489W        W76215  34.635  10.666   2.693
 4490W        W76216  31.862   6.202  13.928
 4491W        W76217  11.830  30.382  10.125
 4492W        W76218  30.168  22.592   3.227
 4493W        W76219  15.743   9.100  13.566
 4494W        W76220  12.813  22.867   1.886
 4495W        W76221  19.028   1.378   4.336
 4496W        W76222   0.991  27.726  11.373
 4497W        W76223   2.652  32.932  11.709
 4498W        W76224  37.423   4.372   2.384
 4499W        W76225  42.436  17.213  12.883
 4500W        W76226  42.512  44.150  10.562
 4501W        W76227  11.868  26.122  13.951
 4502W        W76228  37.717  43.114   1.387
 4503W        W76229  22.467  33.006  13.935
 4504W        W76230  35.374   2.917  12.155
 4505W        W76231  21.129  17.171   2.640
 4506W        W76232  12.271  22.595  10.440
 4507W        W76233  26.380  12.344  11.605
 4508W        W76234   8.690  43.947   4.589
 4509W        W76235  28.121  16.598   4.563
 4510W        W76236  35.174  30.987  13.422
 4511W        W76237  15.874  34.668  11.527
 4512W        W76238  15.678  16.481  11.233
 4513W        W76239   1.304  25.156  13.036
 4514W        W76240  22.724  10.786  14.156
 4515W        W76241  24.594  23.121  14.589
 4516W        W76242  28.454  10.032  10.067
 4517W        W76243  40.297   1.850   2.761
 4518W        W76244  21.732  34.452  10.677
 4519W        W76245  25.209  34.599  14.433
 4520W        W76246  12.064  19.649   2.106
 4521W        W76247  35.868  22.481   1.755
 4522W        W76248  14.581  26.222  11.728
 4523W        W76249  37.792   1.282  14.880
 4524W        W76250  19.704  18.668  10.594
 4525W        W76251  16.056  11.710   1.046
 4526W        W76252  21.614   9.889   4.321
 4527W        W76253   9.941  19.202   1.280
 4528W        W76254  43.821  37.496   0.050
 4529W        W76255  11.967  23.270  13.522
 4530W        W76256  37.541  40.790   3.350
 4531W        W76257   6.799  32.390  13.453
 4532W        W76258  18.049  16.378   4.014
 4533W        W76259  29.211  44.541  10.792
 4534W        W76260   0.504  28.200   4.841
 4535W        W76261  40.095  19.045   3.260
 4536W        W76262  31.581  36.876   3.146
 4537W        W76263  14.157  31.472   4.943
 4538W        W76264  29.409  18.168  14.992
 4539W        W76265  12.104   0.891  12.380
 4540W        W76266  33.992  39.316   3.809
 4541W        W76267   5.924  26.569   1.157
 4542W        W76268  43.873  11.641  10.872
 4543W        W76269  33.457  21.206   2.679
 4544W        W76270  33.560  36.916   1.966
 4545W        W76271  25.516  11.396   4.160
 4546W        W76272   3.372  15.613   0.971
 4547W        W76273   4.755  20.759  14.443
 4548W        W76274  37.252  12.941  12.091
 4549W        W76275   6.159   0.059  11.707
 4550W        W76276  28.112  31.008  10.467
 4551W        W76277  37.445  10.439  10.461
 4552W        W76278  26.534  40.445   1.336
 4553W        W76279  42.584  13.078   0.346
 4554W        W76280  27.870  42.982  12.589
 4555W        W76281  35.080  13.098   3.244
 4556W        W76282  27.401  20.498  10.831
 4557W        W76283  28.859  10.591  12.623
 4558W        W76284  43.398   0.428  14.511
 4559W        W76285   1.990  37.965  12.987
 4560W        W76286  35.597  11.830   1.741
 4561W        W76287  39.613   7.948  13.967
 4562W        W76288  35.542  37.386   2.308
 4563W        W76289   9.886  10.913  13.950
 4564W        W76290  34.624  16.729   0.261
 4565W        W76291  26.901  11.147   3.804
 4566W        W76292  12.606  19.577   2.135
 4567W        W76293   4.640  43.515   0.815
 4568W        W76294  25.095  24.209  12.544
 4569W        W76295  31.507  32.834  14.403
 4570W        W76296   9.761  12.711  10.722
 4571W        W76297  14.269  17.777   1.911
 4572W        W76298  24.642  17.287  13.935
 4573W        W76299  16.355  33.343   0.452
 4574W        W76300  35.907  19.747  12.084
 4575W        W76301   4.782   0.420  12.554
 4576W        W76302  26.947  42.732  11.087
 4577W        W76303  14.028  13.950   0.993
 4578W        W76304  32.853  36.923  10.431
 4579W        W76305  42.492  18.202   0.482
 4580W        W76306   9.765  29.720  14.338
 4581W        W76307  31.589  11.385   3.245
 4582W        W76308  33.840  10.051   3.077
 4583W        W76309   8.468  17.131   3.250
 4584W        W76310  22.364  38.099   1.894
 4585W        W76311  33.207   7.727   1.310
 4586W        W76312  37.482   0.427   4.633
 4587W        W76313  30.919   4.526  11.138
 4588W        W76314  27.859  29.157  11.945
 4589W        W76315  18.218  20.182  13.883
 4590W        W76316   0.932  41.398  13.102
 4591W        W76317  26.268   4.097  13.033
 4592W        W76318  26.971  25.371  12.923
 4593W        W76319  14.182  23.779   0.971
 4594W        W76320  23.425  12.833  13.326
 4595W        W76321  21.557  39.878  13.445
 4596W        W76322   6.350  17.186   1.176
 4597W        W76323  24.754  11.375   0.371
 4598W        W76324  39.977  31.073  13.376
 4599W        W76325  43.824  36.523   3.865
 4600W        W76326  20.593  20.426  14.579
 4601W        W76327  14.367  36.961   1.567
 4602W        W76328  34.881  18.532  10.501
 4603W        W76329   9.164  15.246  12.065
 4604W        W76330  43.788  30.355   4.945
 4605W        W76331  11.735  37.159   5.006
 4606W        W76332  27.377  29.359  11.973
 4607W        W76333  31.538   7.800  14.734
 4608W        W76334  14.097  10.243  12.129
 4609W        W76335  40.814  25.985  10.551
 4610W        W76336  11.688  36.897  13.958
 4611W        W76337   1.024  16.491   3.123
 4612W        W76338  18.273  42.527  10.561
 4613W        W76339   1.317  13.472   3.351
 4614W        W76340  26.002  30.152  14.341
 4615W        W76341  34.040  38.981   1.900
 4616W        W76342  39.779  42.814  14.890
 4617W        W76343  43.496   5.954   2.302
 4618W        W76344  21.727  20.840   0.788
 4619W        W76345  33.674  13.581   0.240
 4620W        W76346   0.387  24.397  10.519
 4621W        W76347  20.041  44.036  12.472
 4622W        W76348  39.447  22.124  14.966
 4623W        W76349  12.959  13.339   1.254
 4624W        W76350  17.083  25.415  10.448
 4625W        W76351  13.151  30.243  14.289
 4626W        W76352  30.214  24.736   1.132
 4627W        W76353  22.148  12.198  10.583
 4628W        W76354  10.653   3.903   2.610
 4629W        W76355  28.051  19.134  12.698
 4630W        W76356   7.913  15.891   5.028
 4631W        W76357   6.786   4.252  13.005
 4632W        W76358  42.908  23.795  14.958
 4633W        W76359   9.830   1.279  13.821
 4634W        W76360  21.067  17.109  11.077
 4635W        W76361  34.185  43.399   3.290
 4636W        W76362  36.881  25.492   1.943
 4637W        W76363  10.008  14.723   2.774
 4638W        W76364  41.053  30.041   3.929
 4639W        W76365  18.880   2.498   1.798
 4640W        W76366  27.003  10.352   4.331
 4641W        W76367   9.718  19.903   1.754
 4642W        W76368   4.201  28.552  10.832
 4643W        W76369  25.648  28.600   3.557
 4644W        W76370  41.887   6.523   4.304
 4645W        W76371  37.578  18.531  12.996
 4646W        W76372  41.608   3.818   2.700
 4647W        W76373   3.900  21.726   3.753
 4648W        W76374  25.148   4.436  12.395
 4649W        W76375  16.230  22.205  13.771
 4650W        W76376  15.933  43.578  12.000
 4651W        W76377   3.640  40.002  14.056
 4652W        W76378  37.606   6.894  10.732
 4653W        W76379  31.007   4.326  14.288
 4654W        W76380  26.928  41.489   0.536
 4655W        W76381   3.220  40.965   2.190
 4656W        W76382  43.877   6.427  13.974
 4657W        W76383  28.019  40.227   1.569
 4658W        W76384  42.110   2.281  13.010
 4659W        W76385  42.884  16.566   2.410
 4660W        W76386  36.607  37.044   1.848
 4661W        W76387   4.915  35.908   2.427
 4662W        W76388   3.386   9.850   0.752
 4663W        W76389  33.612   3.424  11.179
 4664W        W76390  12.939   3.417   2.698
 4665W        W76391  10.718  31.727   1.318
 4666W        W76392   4.055  31.345  11.109
 4667W        W76393   3.184  38.876   0.014
 4668W        W76394   6.895  21.017   2.361
 4669W        W76395   2.109  33.372   4.532
 4670W        W76396  21.623  35.037   2.135
 4671W        W76397  28.518  33.454  12.577
 4672W        W76398   1.473  42.523   3.312
 4673W        W76399   0.252   4.412   0.030
 4674W        W76400  44.799  23.795  14.706
 4675W        W76401  32.624  25.643  12.953
 4676W        W76402   3.939  42.757  10.675
 4677W        W76403  38.281  35.001  11.009
 4678W        W76404  28.232   3.164   3.238
 4679W        W76405  23.504  35.061   3.653
 4680W        W76406   2.846   1.219   2.179
 4681W        W76407  15.108  36.360  12.040
 4682W        W76408  20.619  41.605  11.305
 4683W        W76409  20.355   8.903   0.312
 4684W        W76410   5.968  14.075  10.580
 4685W        W76411  33.685  43.273  11.373
 4686W        W76412   9.091  13.203  12.200
 4687W        W76413  34.820  27.794   2.250
 4688W        W76414  31.850  24.500   0.420
 4689W        W76415  37.325   5.493   3.675
 4690W        W76416  13.027  32.139  11.081
 4691W        W76417  27.489  28.467   3.377
 4692W        W76418  21.074  41.721   4.699
 4693W        W76419  32.890  11.789  10.417
 4694W        W76420   8.241  36.243   9.776
 4695W        W76421  26.196   0.312   0.040
 4696W        W76422  38.337   4.937  13.930
 4697W        W76423  12.082   9.340   0.223
 4698W        W76424  30.485  13.937   1.093
 4699W        W76425   4.790  15.041   2.668
 4700W        W76426   9.119   3.893  12.836
 4701W        W76427  38.916  32.208  13.399
 4702W        W76428  15.626  19.335  13.850
 4703W        W76429  21.237  22.972   4.491
 4704W        W76430  11.590  27.086   3.923
 4705W        W76431  10.201   8.739   2.257
 4706W        W76432  44.151  18.967   2.786
 4707W        W76433  35.522  24.004  13.049
 4708W        W76434  21.635  27.714   9.981
 4709W        W76435  18.204  13.188  13.988
 4710W        W76436  33.575  22.981  12.133
 4711W        W76437  32.861   3.517   3.176
 4712W        W76438  25.689  30.555   4.584
 4713W        W76439  39.218  20.513   4.600
 4714W        W76440   7.154   9.710  13.916
 4715W        W76441  44.988  32.404  14.342
 4716W        W76442  42.887  42.557   2.728
 4717W        W76443  35.602  32.044   5.111
 4718W        W76444  33.525   0.509  11.148
 4719W        W76445   2.237  13.392   3.956
 4720W        W76446  24.040   0.099   4.150
 4721W        W76447  35.793  31.017   1.819
 4722W        W76448  38.150  43.454   1.825
 4723W        W76449  13.094  24.345   2.872
 4724W        W76450  42.574  40.534   0.411
 4725W        W76451  27.385  30.917   1.252
 4726W        W76452  12.668  19.490   0.284
 4727W        W76453  11.798  13.884   0.718
 4728W        W76454  31.422  26.869   1.947
 4729W        W76455  40.261  13.121  12.965
 4730W        W76456  40.461  10.816   0.437
 4731W        W76457   7.296  36.132  13.269
 4732W        W76458  13.800  19.098   2.094
 4733W        W76459  34.876  41.767  13.408
 4734W        W76460  32.396  25.542   0.366
 4735W        W76461   7.841  14.754  11.941
 4736W        W76462  15.555  35.025   4.712
 4737W        W76463  17.559   4.413   2.747
 4738W        W76464  23.228  26.232  14.922
 4739W        W76465   5.736  31.377  11.520
 4740W        W76466  34.085  40.549   3.406
 4741W        W76467  14.025  25.067   4.530
 4742W        W76468  31.893   0.294  12.429
 4743W        W76469  26.705  37.992  11.920
 4744W        W76470   3.960   8.375   2.119
 4745W        W76471   6.183  33.576  12.614
 4746W        W76472   5.147   3.764  10.978
 4747W        W76473  36.461   3.747   3.562
 4748W        W76474   0.362  42.491   0.839
 4749W        W76475  37.713  33.308  10.734
 4750W        W76476  44.938  21.719  13.882
 4751W        W76477  16.780  11.426   2.139
 4752W        W76478  18.535  20.035  10.697
 4753W        W76479  33.617  28.869  10.412
 4754W        W76480   6.304  38.699  12.629
 4755W        W76481   7.745  39.927   1.286
 4756W        W76482  40.605  13.682   1.471
 4757W        W76483   9.469  10.026  12.349
 4758W        W76484   8.664   8.930   3.328
 4759W        W76485  13.668  23.623   0.422
 4760W        W76486  13.876  27.620  13.814
 4761W        W76487  36.001   1.170  14.277
 4762W        W76488  23.150  16.225  11.570
 4763W        W76489  19.553  39.222   4.223
 4764W        W76490   3.827  10.051   2.886
 4765W        W76491  28.100   2.238   3.590
 4766W        W76492  42.503  17.950   4.018
 4767W        W76493   0.328  38.605  11.709
 4768W        W76494  27.185  24.996  12.460
 4769W        W76495   9.411   4.680  12.546
 4770W        W76496  14.564  28.638   3.710
 4771W        W76497  32.980  22.557  10.525
 4772W        W76498  11.803  34.608   4.998
 4773W        W76499  40.833  12.838  12.414
 4774W        W76500  31.417  43.046  12.005
 4775W        W76501  24.628  10.362   4.654
 4776W        W76502  13.673  39.968   2.830
 4777W        W76503   1.848  42.469  13.504
 4778W        W76504  26.505  10.673  10.735
 4779W        W76505  31.957  38.972   0.295
 4780W        W76506  12.833  26.759  11.581
 4781W        W76507  11.770  39.458   4.814
 4782W        W76508  14.109  13.795   3.242
 4783W        W76509  44.233  15.143   2.843
 4784W        W76510  11.334  14.232  10.730
 4785W        W76511  25.918   6.282  11.024
 4786W        W76512  26.786  37.313   4.111
 4787W        W76513   1.976  37.811  14.193
 4788W        W76514  21.975  14.864   0.729
 4789W        W76515  15.337   3.132  12.813
 4790W        W76516   3.888  29.952   3.705
 4791W        W76517   0.669  25.572   0.816
 4792W        W76518  42.807  38.848  10.788
 4793W        W76519  35.359  23.985  14.459
 4794W        W76520  22.369  30.503  13.533
 4795W        W76521   6.288  34.572   3.661
 4796W        W76522  35.460  30.051  14.351
 4797W        W76523  35.773  13.582  14.424
 4798W        W76524   5.382  25.742   2.670
 4799W        W76525   5.851  15.965   2.419
 4800W        W76526  20.104  28.623  12.193
 4801W        W76527  22.735   0.306  10.510
 4802W        W76528   9.306  31.134   2.670
 4803W        W76529  28.003  38.639  13.910
 4804W        W76530  37.404  17.547   1.268
 4805W        W76531  34.183  22.085  14.009
 4806W        W76532  14.167  33.099  13.434
 4807W        W76533  29.476  23.183  14.369
 4808W        W76534   6.400  44.844  13.111
 4809W        W76535   8.987  21.679   3.293
 4810W        W76536  28.423   7.723  12.691
 4811W        W76537  38.943  11.426  11.615
 4812W        W76538  34.608  44.729  13.515
 4813W        W76539  10.204  43.290  14.376
 4814W        W76540  15.969  22.944  11.717
 4815W        W76541  42.755  42.415   1.256
 4816W        W76542  11.124  14.666   4.045
 4817W        W76543  26.385   7.513  11.435
 4818W        W76544  35.125  43.677  12.980
 4819W        W76545  16.182  38.305  10.129
 4820W        W76546  13.429  40.499  13.086
 4821W        W76547  43.507   8.556   2.371
 4822W        W76548  31.910   6.345  13.416
 4823W        W76549   7.160  39.540   4.097
 4824W        W76550   0.237   8.196   2.857
 4825W        W76551  19.779  44.864   0.938
 4826W        W76552  30.880  24.417  12.316
 4827W        W76553  33.587  30.910  11.912
 4828W        W76554   9.963  30.939  12.503
 4829W        W76555  38.024   9.918   1.349
 4830W        W76556  30.614  26.368   0.187
 4831W        W76557  26.787  30.029   4.140
 4832W        W76558  36.051  31.011  14.715
 4833W        W76559   3.304  40.378  14.944
 4834W        W76560   0.918  30.260   5.038
 4835W        W76561  38.282  17.067  13.933
 4836W        W76562  37.535  41.283   2.163
 4837W        W76563  21.784  22.155   3.164
 4838W        W76564  32.309   1.777  11.225
 4839W        W76565  23.701  42.477  14.390
 4840W        W76566  39.289   1.395   1.245
 4841W        W76567   1.383  40.595   3.347
 4842W        W76568  15.276  42.047  11.211
 4843W        W76569  31.241   7.137   2.163
 4844W        W76570  33.919  28.224  11.487
 4845W        W76571  27.676   0.730   5.483
 4846W        W76572  33.965  11.682  13.420
 4847W        W76573  14.897  29.039   1.829
 4848W        W76574  21.763  36.679  12.118
 4849W        W76575  32.820  11.732   3.125
 4850W        W76576   5.802  41.644  13.204
 4851W        W76577  24.495  12.635   3.285
 4852W        W76578  13.631  40.214   4.451
 4853W        W76579   3.841  31.356  13.319
 4854W        W76580  33.763  38.416  11.978
 4855W        W76581  43.321  22.272   2.913
 4856W        W76582  30.174  19.174   0.519
 4857W        W76583  25.872  38.871  14.953
 4858W        W76584  12.814  20.816   2.223
 4859W        W76585  23.118  31.415  13.847
 4860W        W76586  31.637  19.205   4.688
 4861W        W76587   1.852  24.193  14.969
 4862W        W76588  44.923  14.361  14.817
 4863W        W76589  28.106   9.424  13.980
 4864W        W76590  34.042  21.544   9.968
 4865W        W76591  28.904   2.922  10.698
 4866W        W76592  19.229  12.056  12.949
 4867W        W76593  41.388  34.960  11.367
 4868W        W76594  37.858   5.980  10.782
 4869W        W76595   0.235  19.665  11.854
 4870W        W76596  24.507  42.741  12.049
 4871W        W76597  28.807  42.835   4.534
 4872W        W76598  31.092   3.708  11.651
 4873W        W76599  18.687  16.652  10.724
 4874W        W76600   0.047  23.670   1.769
 4875W        W76601  13.599  15.896  11.037
 4876W        W76602  40.548  24.689  13.794
 4877W        W76603   1.488   2.367  12.903
 4878W        W76604  25.204  28.090  14.352
 4879W        W76605  23.569  32.142   0.824
 4880W        W76606  17.535  28.599  11.225
 4881W        W76607  12.696   7.270  12.638
 4882W        W76608  44.994  28.149   4.668
 4883W        W76609  37.416  24.190   4.946
 4884W        W76610  44.736   0.504   0.973
 4885W        W76611   9.973  15.826   2.224
 4886W        W76612  18.143  13.680   4.040
 4887W        W76613  43.606   5.747   4.183
 4888W        W76614  32.955  36.763   4.170
 4889W        W76615   5.908  22.678  11.162
 4890W        W76616  39.032  17.309   0.735
 4891W        W76617  22.573  36.209  14.053
 4892W        W76618  21.008   9.576  11.243
 4893W        W76619   4.837  17.575   1.914
 4894W        W76620  31.260  26.699   1.455
 4895W        W76621   0.166   2.749  10.660
 4896W        W76622  26.536   5.165  14.251
 4897W        W76623  18.422  28.358  14.181
 4898W        W76624   7.787  36.846   3.666
 4899W        W76625  28.860   7.372  10.571
 4900W        W76626  33.597  25.036  12.127
 4901W        W76627  16.838  31.886   1.332
 4902W        W76628   7.278  41.218  14.318
 4903W        W76629  14.682  19.973  12.402
 4904W        W76630   4.697  21.909   0.484
 4905W        W76631  32.437  40.502  10.939
 4906W        W76632  29.538  25.451  11.156
 4907W        W76633  28.620  17.134   3.268
 4908W        W76634  16.151  38.027   5.509
 4909W        W76635   5.594  22.098   0.775
 4910W        W76636  36.777  33.850   2.979
 4911W        W76637  24.440  25.670   0.581
 4912W        W76638  41.333  36.414   4.205
 4913W        W76639  19.971  20.069   4.246
 4914W        W76640  30.318  36.714  12.724
 4915W        W76641  40.599   9.823   0.774
 4916W        W76642  14.582  28.851  14.425
 4917W        W76643  17.660  35.607   3.148
 4918W        W76644  40.600   2.729   0.547
 4919W        W76645   8.948   9.430   0.673
 4920W        W76646  29.924  14.149   1.742
 4921W        W76647   2.699  29.378  13.503
 4922W        W76648   9.651  18.025   2.732
 4923W        W76649  11.929  36.987   1.370
 4924W        W76650  42.381   5.809   1.455
 4925W        W76651  20.448   6.292   3.741
 4926W        W76652   9.230  28.251  12.098
 4927W        W76653  21.756  38.011  14.748
 4928W        W76654  35.242  23.250   3.736
 4929W        W76655  31.737  17.450   4.917
 4930W        W76656  17.778  43.335   4.400
 4931W        W76657  37.347   8.333  14.098
 4932W        W76658  26.667  42.718  14.047
 4933W        W76659  43.371   0.996   2.860
 4934W        W76660  20.029  39.109  13.013
 4935W        W76661  36.005  12.325   0.897
 4936W        W76662  24.643  31.404   1.767
 4937W        W76663  34.428  30.491  13.069
 4938W        W76664   1.527   4.228   0.869
 4939W        W76665  12.228  33.904  14.020
 4940W        W76666   8.569  39.732   0.157
 4941W        W76667  34.404  42.356   2.094
 4942W        W76668  40.625  40.312   1.467
 4943W        W76669  39.768  29.191  13.812
 4944W        W76670  34.572  42.107   4.248
 4945W        W76671  38.825  25.699   0.826
 4946W        W76672  31.186  32.621   1.125
 4947W        W76673  40.586  25.684   3.879
 4948W        W76674  14.220   6.676  11.659
 4949W        W76675  32.045  17.324  14.950
 4950W        W76676  12.184  38.876  14.006
 4951W        W76677   2.673   9.914  12.123
 4952W        W76678  29.128  37.303  10.050
 4953W        W76679  18.313  20.114   1.001
 4954W        W76680  33.534  12.529  10.882
 4955W        W76681  28.575  20.233  13.358
 4956W        W76682  14.067  34.653  13.606
 4957W        W76683   4.151  34.633  14.415
 4958W        W76684   7.031  33.011   3.543
 4959W        W76685  41.544  27.115   1.323
 4960W        W76686  13.303   7.271   1.436
 4961W        W76687  21.248  11.845  10.573
 4962W        W76688   7.114  24.961  10.663
 4963W        W76689  28.546   1.324   0.086
 4964W        W76690  33.626  24.182   3.360
 4965W        W76691  23.540  13.650   4.812
 4966W        W76692  17.264  20.135   0.013
 4967W        W76693  17.762   1.069  11.914
 4968W        W76694  22.061  13.341   3.119
 4969W        W76695  23.203  20.088  13.415
 4970W        W76696  15.720  29.649   0.801
 4971W        W76697  31.460  42.644   0.708
 4972W        W76698   2.544  36.911  11.154
 4973W        W76699  11.873   1.768   3.560
 4974W        W76700  43.630   3.601  13.067
 4975W        W76701  14.123  40.940   2.676
 4976W        W76702  14.624  43.958   0.854
 4977W        W76703  12.427  18.675   0.694
 4978W        W76704  32.541  35.524  14.056
 4979W        W76705   7.566  37.410   0.918
 4980W        W76706  39.671   4.712   2.697
 4981W        W76707  39.416  39.514   3.855
 4982W        W76708   1.899   6.185   0.940
 4983W        W76709  20.595  10.728  13.420
 4984W        W76710  26.253  18.047   3.238
 4985W        W76711  18.228   4.409  12.037
 4986W        W76712   3.325  42.164  14.473
 4987W        W76713  28.186   2.346   4.507
 4988W        W76714   3.795  30.877  12.442
 4989W        W76715  44.446  11.808  12.541
 4990W        W76716   8.407   2.975   1.256
 4991W        W76717  42.858   7.648   0.975
 4992W        W76718  42.529  31.398   2.448
 4993W        W76719  11.030  36.533   3.190
 4994W        W76720  20.347  34.819   0.527
 4995W        W76721  43.469   8.066   2.130
 4996W        W76722  26.735   1.598   4.132
 4997W        W76723   1.482  10.909   4.488
 4998W        W76724  19.783  26.037  14.420
 4999W        W76725  33.623  13.242   2.454
 5000W        W76726  29.643  20.759   3.162
 5001W        W76727   7.174  44.357   1.891
 5002W        W76728   4.171  15.163   5.170
 5003W        W76729   9.775   7.710  10.639
 5004W        W76730  36.451  42.225  11.860
 5005W        W76731  11.374   2.366   2.225
 5006W        W76732  32.417  16.157  13.452
 5007W        W76733  23.631   1.095   1.927
 5008W        W76734  13.712  21.663  13.078
 5009W        W76735  38.430   8.145   3.438
 5010W        W76736   8.093  30.582  13.444
 5011W        W76737  35.677  37.669  11.879
 5012W        W76738  13.799  26.968   2.703
 5013W        W76739   5.923   0.306   1.955
 5014W        W76740  20.717  32.318   1.522
 5015W        W76741  23.096   0.686  11.491
 5016W        W76742   1.777  43.237   0.762
 5017W        W76743  22.259  23.766   3.216
 5018W        W76744   4.889   9.784  14.402
 5019W        W76745  21.222   4.129  11.304
 5020W        W76746  28.469   8.859  11.910
 5021W        W76747  35.685   4.464   2.254
 5022W        W76748  12.652  26.554   4.426
 5023W        W76749  38.428  29.631  13.052
 5024W        W76750  34.122  20.644  11.559
 5025W        W76751  18.318   4.908  13.958
 5026W        W76752   2.097  38.147  14.588
 5027W        W76753  15.791  32.967  14.320
 5028W        W76754  30.392  36.332  14.884
 5029W        W76755  34.398  32.460   0.788
 5030W        W76756  10.427  20.521  12.304
 5031W        W76757  39.989   2.727   4.418
 5032W        W76758   6.036  22.441  12.525
 5033W        W76759  26.506   0.303  12.046
 5034W        W76760  19.481   8.746  14.063
 5035W        W76761  30.053  21.618   0.295
 5036W        W76762   1.273  39.529  13.057
 5037W        W76763  35.497  18.759   1.369
 5038W        W76764  36.862  23.996  12.593
 5039W        W76765  37.323  31.080   0.965
 5040W        W76766  41.573  40.080  14.509
 5041W        W76767  20.060  35.383  10.772
 5042W        W76768  12.765   5.207   1.854
 5043W        W76769  31.179  40.892   0.045
 5044W        W76770   1.336  30.906   1.851
 5045W        W76771  19.216  24.978  11.847
 5046W        W76772  21.182  12.517   9.783
 5047W        W76773  32.822  14.764   2.262
 5048W        W76774  10.142  36.763  11.006
 5049W        W76775  43.201  30.571  11.223
 5050W        W76776  26.370   9.568   2.690
 5051W        W76777   9.116  28.689   3.303
 5052W        W76778  34.012  31.562  11.440
 5053W        W76779  40.419  27.809  11.578
 5054W        W76780   4.261  11.176  11.600
 5055W        W76781  12.120  19.332  11.097
 5056W        W76782  43.586  10.145   4.894
 5057W        W76783  31.470  16.224  13.299
 5058W        W76784  40.356  23.843   0.848
 5059W        W76785  40.943   4.977   2.703
 5060W        W76786  18.754  37.986   3.159
 5061W        W76787  39.197  12.926   0.897
 5062W        W76788  16.612  35.996  11.447
 5063W        W76789  32.547  23.738   3.801
 5064W        W76790  42.734  41.834  14.920
 5065W        W76791  36.399  16.033   4.139
 5066W        W76792  36.909  13.452   2.276
 5067W        W76793  38.723  43.228  14.383
 5068W        W76794   9.737  36.683  13.116
 5069W        W76795  30.434  13.141   5.057
 5070W        W76796   3.713   3.895  11.687
 5071W        W76797  30.357  39.251   2.249
 5072W        W76798  25.496  27.643   0.836
 5073W        W76799  38.344   7.258   0.170
 5074W        W76800  23.252  24.691   3.974
 5075W        W76801  39.030  12.399   3.203
 5076W        W76802  35.525  35.191   1.675
 5077W        W76803  32.655  13.127  11.116
 5078W        W76804  36.415   4.227  12.887
 5079W        W76805  33.168  43.516  12.640
 5080W        W76806  37.593  42.735  11.481
 5081W        W76807  28.381  18.039  12.650
 5082W        W76808  31.889  10.296   3.652
 5083W        W76809  35.029   9.395  12.549
 5084W        W76810  43.753   5.820  13.347
 5085W        W76811  16.266  26.573  13.853
 5086W        W76812  29.479   7.022  14.377
 5087W        W76813  32.418  41.369   3.615
 5088W        W76814  18.302  42.923  12.844
 5089W        W76815  38.869  12.872   2.627
 5090W        W76816  11.540  20.133   2.620
 5091W        W76817  41.240   6.942   0.316
 5092W        W76818   9.800  36.662   3.311
 5093W        W76819  31.574  36.817  13.547
 5094W        W76820  42.487  37.931  11.042
 5095W        W76821   0.354  33.521  10.665
 5096W        W76822  19.214  11.021  11.137
 5097W        W76823  43.966  33.591   2.253
 5098W        W76824   0.375   2.812  12.181
 5099W        W76825  18.097  38.314  13.306
 5100W        W76826  41.381  19.143   0.419
 5101W        W76827   3.466  20.164  10.701
 5102W        W76828   8.876  29.925  14.396
 5103W        W76829  20.334  17.259  12.038
 5104W        W76830  31.528  41.309   4.017
 5105W        W76831   0.660  27.282  11.250
 5106W        W76832  35.995  42.489  12.862
 5107W        W76833   0.230  37.767   1.592
 5108W        W76834  29.161  35.955  13.086
 5109W        W76835   5.366  35.604   2.637
 5110W        W76836   8.914  11.005  13.057
 5111W        W76837   6.049   7.686   5.465
 5112W        W76838  43.149   3.342   2.820
 5113W        W76839  13.191  32.959   0.774
 5114W        W76840  40.378  22.437   2.360
 5115W        W76841  41.912   0.334  13.843
 5116W        W76842   2.364   3.062   3.288
 5117W        W76843  19.255  42.068  13.913
 5118W        W76844  30.892  14.154   0.847
 5119W        W76845  11.841  25.218   2.302
 5120W        W76846  25.732  42.766  12.456
 5121W        W76847  23.248   9.302  11.355
 5122W        W76848  12.732  16.476   1.015
 5123W        W76849  10.012  14.809  13.344
 5124W        W76850  10.897  22.114   0.785
 5125W        W76851  23.795  19.671  11.165
 5126W        W76852  33.509   9.761   3.847
 5127W        W76853  14.065  13.339  11.556
 5128W        W76854  37.821  24.968   4.649
 5129W        W76855  16.158  35.111   1.890
 5130W        W76856  18.272  15.185   0.894
 5131W        W76857  18.313  32.896  12.033
 5132W        W76858  22.412  26.053  14.259
 5133W        W76859   5.094  21.707   4.539
 5134W        W76860  38.135  35.872   3.735
 5135W        W76861  37.161  19.592  12.548
 5136W        W76862  13.731   4.498  13.988
 5137W        W76863  39.121  21.260  11.199
 5138W        W76864   8.732  27.524  12.015
 5139W        W76865  22.612  36.251  13.542
 5140W        W76866  28.646  35.290  11.188
 5141W        W76867  35.659  23.385   3.175
 5142W        W76868  43.329  40.203  12.745
 5143W        W76869  43.039   6.695  12.296
 5144W        W76870  13.753   1.729   4.166
 5145W        W76871  14.725  32.777  10.711
 5146W        W76872  10.358   7.309  13.360
 5147W        W76873  44.495   0.013   2.321
 5148W        W76874  38.865   0.944  10.753
 5149W        W76875  17.345  17.622   3.156
 5150W        W76876  13.028   4.932  13.314
 5151W        W76877  29.535  26.462  13.904
 5152W        W76878  33.578  33.070   0.944
 5153W        W76879  32.038  28.803   4.560
 5154W        W76880  39.516   6.910  12.633
 5155W        W76881   0.055   1.905   1.617
 5156W        W76882  37.467   1.677   0.040
 5157W        W76883  41.165  35.625   2.272
 5158W        W76884  35.992  15.273   2.416
 5159W        W76885  39.435  18.844   3.126
 5160W        W76886   9.094  29.128   4.181
 5161W        W76887  26.083  33.152   3.615
 5162W        W76888  12.714   4.902   1.397
 5163W        W76889  42.234  26.689  11.052
 5164W        W76890  24.933   0.823   1.616
 5165W        W76891  15.423  42.972  14.372
 5166W        W76892   3.998   8.610   3.798
 5167W        W76893  10.674   3.340  13.560
 5168W        W76894  27.407  28.428  11.046
 5169W        W76895  15.659  42.780  11.048
 5170W        W76896  25.770   3.870   3.343
 5171W        W76897  17.030   0.050   0.278
 5172W        W76898   8.883   2.534  10.686
 5173W        W76899  41.078  39.477  14.088
 5174W        W76900  15.918   7.378   5.030
 5175W        W76901  25.205  10.719  13.100
 5176W        W76902  38.325  17.854   3.686
 5177W        W76903  33.522  35.611  13.521
 5178W        W76904  42.922  34.892   1.199
 5179W        W76905  31.326   2.654   1.722
 5180W        W76906  26.156  30.321  12.865
 5181W        W76907  21.112   6.801   2.132
 5182W        W76908  13.570  19.342  13.656
 5183W        W76909  41.502  17.060  14.240
 5184W        W76910   5.734  11.393  13.938
 5185W        W76911  30.547  32.805   1.956
 5186W        W76912  44.214   4.863   2.804
 5187W        W76913  38.040  31.475  13.063
 5188W        W76914  27.958  40.583   3.798
 5189W        W76915   7.790   7.651  13.531
 5190W        W76916  20.777  20.088  12.040
 5191W        W76917  18.406  17.889  11.080
 5192W        W76918  17.852  25.079  10.652
 5193W        W76919  27.234  41.855  11.125
 5194W        W76920  23.711  32.135   3.953
 5195W        W76921  30.096  15.074  13.052
 5196W        W76922   8.792  23.669   1.926
 5197W        W76923  15.887  13.562   3.533
 5198W        W76924  30.911   1.507  12.386
 5199W        W76925  44.560  25.320  10.278
 5200W        W76926  16.181  39.940  11.225
 5201W        W76927  15.870  37.482   2.294
 5202W        W76928   9.113  38.478  10.682
 5203W        W76929   8.814  31.883   2.704
 5204W        W76930  23.668  10.389   4.845
 5205W        W76931  40.811   7.198   4.673
 5206W        W76932  11.168  14.071  13.995
 5207W        W76933  35.566  13.279  13.460
 5208W        W76934  38.982  22.488  13.041
 5209W        W76935   7.126  21.768   0.791
 5210W        W76936  35.833   0.154  14.536
 5211W        W76937  41.097   2.495   1.768
 5212W        W76938  35.937  31.845   0.201
 5213W        W76939  35.094  20.666   1.340
 5214W        W76940  26.428   9.692  14.750
 5215W        W76941  19.821  19.187  11.135
 5216W        W76942  12.301   3.451  12.935
 5217W        W76943  33.560   8.238  12.092
 5218W        W76944  42.748   9.954   3.268
 5219W        W76945   2.376  17.382   0.524
 5220W        W76946  31.192  31.493   1.920
 5221W        W76947  14.089  22.076   1.717
 5222W        W76948   0.706  34.720   5.056
 5223W        W76949  33.773  10.892   0.347
 5224W        W76950  15.149  36.652   1.851
 5225W        W76951   4.986  38.385  11.576
 5226W        W76952   5.872   9.591  14.537
 5227W        W76953  32.914  34.595  13.144
 5228W        W76954  44.015  13.581  11.181
 5229W        W76955  16.639  32.113  14.712
 5230W        W76956  38.973  38.144   3.428
 5231W        W76957  29.875  28.142   1.958
 5232W        W76958  39.923   3.140  11.075
 5233W        W76959  39.382   5.923   0.373
 5234W        W76960  44.438  25.973   2.218
 5235W        W76961  31.129  25.462  11.099
 5236W        W76962  44.526  28.916  11.640
 5237W        W76963   1.070  27.242  11.547
 5238W        W76964  31.542  19.576   3.755
 5239W        W76965  19.784   6.924   1.921
 5240W        W76966  30.191  44.630  10.972
 5241W        W76967  20.319  26.486   3.517
 5242W        W76968   4.827  27.097   2.351
 5243W        W76969  24.628  31.923  11.553
 5244W        W76970  25.959  41.547  14.311
 5245W        W76971  37.032   0.774   2.630
 5246W        W76972  15.599  28.475  13.557
 5247W        W76973  26.629   3.011  14.981
 5248W        W76974  37.104  32.521  13.456
 5249W        W76975  38.402  38.566   0.217
 5250W        W76976   9.695  23.415  12.707
 5251W        W76977  23.981   5.633  12.095
 5252W        W76978  18.511  14.280   5.015
 5253W        W76979  25.729  25.947   1.877
 5254W        W76980  20.429   3.089   3.235
 5255W        W76981  34.905  17.393  13.863
 5256W        W76982  28.824  17.911  12.368
 5257W        W76983  13.106  24.804   1.965
 5258W        W76984  36.520  43.833   0.468
 5259W        W76985  43.492  27.194   1.516
 5260W        W76986  25.896  12.724   3.277
 5261W        W76987  43.344   6.068   3.241
 5262W        W76988  21.199  21.500   1.517
 5263W        W76989  32.356   2.451  10.574
 5264W        W76990  42.859  37.438  11.917
 5265W        W76991  38.925  19.432  14.883
 5266W        W76992  25.298  15.148   4.075
 5267W        W76993  13.903  29.463  11.619
 5268W        W76994  43.456  31.049  11.086
 5269W        W76995  13.931  40.444   3.818
 5270W        W76996  10.743  43.965  11.624
 5271W        W76997  15.332  34.579  13.923
 5272W        W76998  43.269  40.452   0.708
 5273W        W76999  31.706  42.221   4.178
 5274W        W77000  36.659  19.547  13.009
 5275W        W77001  41.575   1.999  14.350
 5276W        W77002  37.566  26.169   2.475
 5277W        W77003  34.166  27.028  14.396
 5278W        W77004  35.525  33.083  14.366
 5279W        W77005  18.511  30.714   0.305
 5280W        W77006  24.411  34.139   4.258
 5281W        W77007  18.196  11.232  10.768
 5282W        W77008  21.499  28.304   3.188
 5283W        W77009  31.412  39.390   3.872
 5284W        W77010  34.891  20.781   4.317
 5285W        W77011   6.233  42.140  11.723
 5286W        W77012  32.836   8.196   2.969
 5287W        W77013  31.380  21.933   1.400
 5288W        W77014   6.992  43.045  11.988
 5289W        W77015  11.097  24.784  11.404
 5290W        W77016  13.154  28.270  10.228
 5291W        W77017  17.577  35.013   4.061
 5292W        W77018   8.435   3.008   3.255
 5293W        W77019  41.526  29.222  13.444
 5294W        W77020  12.045  23.814   4.190
 5295W        W77021  40.031  10.596   2.708
 5296W        W77022  27.486  30.426  12.010
 5297W        W77023  25.500  43.851   2.146
 5298W        W77024  17.989  43.979  14.966
 5299W        W77025  41.750  37.026   1.267
 5300W        W77026  12.823  10.710   0.392
 5301W        W77027  38.963  25.971   1.263
 5302W        W77028   2.171  42.558   1.943
 5303W        W77029  13.333   9.734   0.504
 5304W        W77030  28.064  25.061   2.306
 5305W        W77031  34.149  16.206  13.908
 5306W        W77032  20.154  38.736   4.963
 5307W        W77033  29.420  42.412   1.691
 5308W        W77034  36.892  42.340   1.947
 5309W        W77035  28.907   4.296  11.064
 5310W        W77036  22.113  16.347  10.955
 5311W        W77037  44.728  39.375   1.379
 5312W        W77038  18.982  42.222   2.431
 5313W        W77039   2.348  43.406  11.754
 5314W        W77040  10.307  40.336   2.417
 5315W        W77041  28.602  22.519  11.682
 5316W        W77042   5.685  23.673  11.205
 5317W        W77043  22.911  26.235  13.402
 5318W        W77044  18.193  16.019   3.223
 5319W        W77045  22.964  38.957  12.255
 5320W        W77046  27.388  42.505   1.245
 5321W        W77047  28.525  30.091   1.736
 5322W        W77048  15.095   2.967  13.799
 5323W        W77049  32.701  26.958   1.363
 5324W        W77050  15.315  16.110  13.563
 5325W        W77051  40.032  18.097   4.502
 5326W        W77052  33.502  17.977   5.025
 5327W        W77053   8.425  34.526   5.054
 5328W        W77054  10.460  17.727  10.796
 5329W        W77055  43.000  38.483   3.488
 5330W        W77056  26.757   4.219  13.033
 5331W        W77057  24.133  34.006   0.458
 5332W        W77058  23.745  29.894  10.589
 5333W        W77059  16.363  41.520   0.240
 5334W        W77060  29.007  39.416  11.612
 5335W        W77061  14.785  31.961   2.198
 5336W        W77062  34.107  43.537  13.990
 5337W        W77063  24.567  17.232   3.619
 5338W        W77064  29.686  33.578   4.665
 5339W        W77065  29.429   4.677   1.373
 5340W        W77066  14.971  44.028  12.088
 5341W        W77067  10.410  39.106  14.182
 5342W        W77068   4.127   6.457   5.022
 5343W        W77069  25.715  30.178  11.994
 5344W        W77070  30.225  11.995  10.744
 5345W        W77071  32.377  12.834  12.919
 5346W        W77072  28.186  41.443   2.226
 5347W        W77073  44.949  13.150  14.504
 5348W        W77074  21.671  28.980  10.608
 5349W        W77075   6.163   9.477   2.128
 5350W        W77076  28.761  24.969   1.677
 5351W        W77077  41.868  11.772  13.715
 5352W        W77078   0.939  22.654  11.619
 5353W        W77079  18.272  29.003   1.745
 5354W        W77080  25.386  25.183  13.348
 5355W        W77081  42.526  34.944   2.372
 5356W        W77082  12.636  28.378   0.779
 5357W        W77083   3.975  28.290   1.746
 5358W        W77084  32.065   6.450  11.122
 5359W        W77085   8.895  27.008  13.065
 5360W        W77086   3.556  39.957  10.684
 5361W        W77087  23.506   8.163   4.173
 5362W        W77088   0.123  34.883  13.674
 5363W        W77089  29.509  23.825  13.119
 5364W        W77090   8.610  38.994  11.108
 5365W        W77091  42.969   0.117  10.798
 5366W        W77092  25.579  33.162  11.123
 5367W        W77093  31.357  32.402  14.077
 5368W        W77094  27.187   6.794   2.389
 5369W        W77095  33.427  31.119   1.570
 5370W        W77096  25.680  26.028   2.387
 5371W        W77097  28.049  33.802   4.453
 5372W        W77098  37.009  15.040   1.490
 5373W        W77099  38.115  43.852   2.151
 5374W        W77100  40.367  33.850   3.234
 5375W        W77101  16.299  13.575   3.897
 5376W        W77102  12.588   7.677   0.913
 5377W        W77103  41.868   1.962  12.466
 5378W        W77104   5.721  10.763   1.876
 5379W        W77105  25.711  43.551  11.086
 5380W        W77106  37.646  16.169   1.701
 5381W        W77107   3.948  29.156  14.920
 5382W        W77108  20.306  18.741  12.836
 5383W        W77109   6.117  23.530   0.735
 5384W        W77110  23.450  31.913   3.072
 5385W        W77111  19.363  12.798   3.151
 5386W        W77112  34.388   2.565  12.071
 5387W        W77113  39.416  22.212  10.990
 5388W        W77114  33.587   1.959  11.940
 5389W        W77115   1.562  16.425  10.499
 5390W        W77116  29.932  34.903   3.962
 5391W        W77117  42.252  34.314   3.274
 5392W        W77118  32.986  34.862  11.575
 5393W        W77119  30.859  36.150   2.788
 5394W        W77120  22.739  25.410   3.204
 5395W        W77121   3.072   9.323   4.199
 5396W        W77122   7.918  13.224  11.985
 5397W        W77123  35.531  23.059   0.932
 5398W        W77124  10.554  20.297  10.710
 5399W        W77125  28.198   3.231  12.644
 5400W        W77126  23.467   4.796  12.146
 5401W        W77127   1.922  30.087  13.398
 5402W        W77128  34.912  31.472  14.710
 5403W        W77129  31.159   1.247  12.012
 5404W        W77130  24.794   7.472  13.051
 5405W        W77131  11.311  18.502   3.990
 5406W        W77132  38.320  20.556   0.437
 5407W        W77133  43.089  14.049   2.424
 5408W        W77134  43.221  25.232   1.382
 5409W        W77135  26.015   8.630  14.444
 5410W        W77136  22.685   8.167  13.355
 5411W        W77137  40.363   8.891  12.071
 5412W        W77138   2.304  25.787   4.470
 5413W        W77139  27.822  22.656   2.261
 5414W        W77140  44.379  23.579   4.279
 5415W        W77141  30.428  27.282   0.314
 5416W        W77142  38.122  33.306   3.642
 5417W        W77143  33.950  35.578  12.900
 5418W        W77144  25.084  27.945   5.049
 5419W        W77145  30.780  25.520  10.657
 5420W        W77146  10.712  43.377   1.760
 5421W        W77147  42.522  31.541  12.540
 5422W        W77148  21.561  41.885   4.728
 5423W        W77149  34.827  28.351  12.431
 5424W        W77150   9.640  44.400   0.166
 5425W        W77151  14.676  27.077   3.193
 5426W        W77152  41.184  32.171  13.618
 5427W        W77153   8.172  31.919   1.571
 5428W        W77154  22.574  15.740  11.561
 5429W        W77155  30.853  24.132  10.627
 5430W        W77156  30.623   3.968   2.805
 5431W        W77157  23.540   2.498  12.506
 5432W        W77158  44.673  21.206  13.051
 5433W        W77159  26.102   8.645  12.571
 5434W        W77160  20.118  10.647  12.556
 5435W        W77161  23.642  31.215  11.033
 5436W        W77162  23.649  22.209   1.871
 5437W        W77163  28.633  16.891   3.723
 5438W        W77164  22.172  25.640   0.523
 5439W        W77165   8.092  14.830   2.186
 5440W        W77166  15.274  22.722  11.900
 5441W        W77167   4.206  24.541  11.564
 5442W        W77168  44.217  32.845   2.430
 5443W        W77169   0.325  16.617  10.690
 5444W        W77170  14.604  31.263   1.416
 5445W        W77171   5.770  26.461  11.735
 5446W        W77172  13.642  26.234   1.037
 5447W        W77173  41.745  23.091  13.934
 5448W        W77174   2.516  42.011   1.287
 5449W        W77175  41.349  37.682   0.710
 5450W        W77176   8.997   1.951  14.452
 5451W        W77177  38.800  37.480  12.059
 5452W        W77178  23.705  35.388   1.974
 5453W        W77179  28.116  17.181  13.130
 5454W        W77180  37.067  15.009   0.985
 5455W        W77181  37.919  20.986   2.817
 5456W        W77182  43.298  18.828  11.653
 5457W        W77183  39.402  18.362   0.508
 5458W        W77184  33.459   1.821   1.420
 5459W        W77185  19.383  14.427   0.004
 5460W        W77186   3.446  16.505   0.781
 5461W        W77187  29.108  41.793   1.386
 5462W        W77188  17.573  30.976  11.361
 5463W        W77189  35.920  18.617   2.654
 5464W        W77190   5.578  13.830  14.312
 5465W        W77191  21.652  43.380   4.650
 5466W        W77192  17.082  12.008   2.851
 5467W        W77193  29.890  17.354  10.947
 5468W        W77194  27.132  32.799   2.867
 5469W        W77195   4.156  13.768   0.039
 5470W        W77196  19.090  44.233   0.737
 5471W        W77197  27.688  31.890  12.153
 5472W        W77198  40.334  20.645  14.470
 5473W        W77199  28.965  27.464   2.740
 5474W        W77200  27.892   5.884  14.323
 5475W        W77201  21.761  28.111   5.224
 5476W        W77202  17.235  39.956   9.727
 5477W        W77203  19.429  11.948   2.662
 5478W        W77204  44.457  15.357   4.598
 5479W        W77205  21.006   0.935  14.564
 5480W        W77206  37.429   6.333   3.445
 5481W        W77207  29.966  40.131  12.040
 5482W        W77208  11.882   4.961  10.684
 5483W        W77209  41.558  18.313  11.074
 5484W        W77210   4.257  29.890   2.439
 5485W        W77211  35.045  40.107  13.061
 5486W        W77212  26.268  14.324  13.082
 5487W        W77213  10.119   8.247  13.084
 5488W        W77214  17.431  31.966   2.967
 5489W        W77215  29.643  30.890   4.565
 5490W        W77216   4.745  26.816  13.981
 5491W        W77217  30.839  42.902   2.274
 5492W        W77218  16.616  34.124  13.897
 5493W        W77219   6.963   1.258  12.478
 5494W        W77220  27.700  44.752   4.208
 5495W        W77221  31.232  24.666  13.742
 5496W        W77222  33.422  35.789  11.646
 5497W        W77223  35.262  27.993  12.448
 5498W        W77224  28.060   3.265   1.873
 5499W        W77225  15.322  36.843   1.224
 5500W        W77226  12.386  25.555  13.364
 5501W        W77227  21.792  13.352   3.594
 5502W        W77228   7.869  22.208  11.160
 5503W        W77229  32.328  29.096  12.447
 5504W        W77230   7.400   4.514  13.127
 5505W        W77231  41.495  20.974   1.219
 5506W        W77232  19.060  32.479  13.031
 5507W        W77233   4.719  44.468   4.180
 5508W        W77234  22.018  20.704   0.324
 5509W        W77235  43.367  33.974   2.807
 5510W        W77236  22.263   1.575  13.460
 5511W        W77237  23.935  17.113   2.792
 5512W        W77238   9.435   4.921  14.989
 5513W        W77239  34.223  28.133  14.020
 5514W        W77240  23.749  18.805   3.776
 5515W        W77241  42.453  28.379   4.793
 5516W        W77242  22.679  20.762  14.638
 5517W        W77243   6.220  19.070  10.987
 5518W        W77244  10.823  41.851   0.042
 5519W        W77245  20.337   3.386   4.777
 5520W        W77246  43.750   8.479   3.908
 5521W        W77247  44.488  19.571  14.958
 5522W        W77248   9.322  24.393   4.974
 5523W        W77249  30.462  44.092   3.685
 5524W        W77250  36.034   0.829   0.933
 5525W        W77251  20.457   9.754  10.724
 5526W        W77252  17.342  16.092   0.884
 5527W        W77253  40.994  21.622   2.136
 5528W        W77254  39.382  16.200   4.724
 5529W        W77255   3.523  25.746  12.516
 5530W        W77256  36.494  13.820   0.483
 5531W        W77257  21.023  41.224  11.046
 5532W        W77258  43.835   0.854  12.793
 5533W        W77259  15.916  26.447  11.951
 5534W        W77260  26.604   8.044  11.523
 5535W        W77261  41.879  16.775   4.259
 5536W        W77262  38.063   0.212   0.271
 5537W        W77263  16.193   8.119  11.114
 5538W        W77264  12.349  22.660   1.704
 5539W        W77265  44.317  11.679   4.518
 5540W        W77266  18.799  32.287  12.641
 5541W        W77267   1.322   4.094   0.035
 5542W        W77268  42.531  27.654  13.061
 5543W        W77269  16.117  37.953   2.213
 5544W        W77270  21.659  30.632   1.926
 5545W        W77271  10.371  28.081   1.987
 5546W        W77272   3.774  28.446   1.232
 5547W        W77273   3.986  15.046   2.007
 5548W        W77274   8.983  21.092   1.681
 5549W        W77275  42.945  37.804   2.295
 5550W        W77276  43.499   8.879   2.797
 5551W        W77277  33.546  40.520   0.873
 5552W        W77278  44.418  25.463  12.046
 5553W        W77279  37.842   4.208  12.019
 5554W        W77280   5.248  34.836   2.104
 5555W        W77281   3.698  16.049   0.788
 5556W        W77282  41.389  40.522  10.817
 5557W        W77283  39.818  23.955   2.779
 5558W        W77284  26.643   0.545  12.478
 5559W        W77285  12.971  36.927  14.536
 5560W        W77286  17.377  35.145   3.174
 5561W        W77287   1.755   1.190   3.260
 5562W        W77288  12.890  18.784  11.909
 5563W        W77289  26.736  18.257  10.882
 5564W        W77290  18.746  38.449   4.054
 5565W        W77291  30.002  25.568  13.328
 5566W        W77292  24.881  32.543  13.981
 5567W        W77293   4.824  42.980  13.485
 5568W        W77294  32.658  28.040   3.126
 5569W        W77295  31.729  29.984   0.289
 5570W        W77296  12.851  14.698   2.972
 5571W        W77297  19.618  38.476  14.591
 5572W        W77298   3.597  31.471   3.541
 5573W        W77299  32.880  21.590   1.763
 5574W        W77300  42.088  14.172   2.592
 5575W        W77301   6.746  38.493   3.294
 5576W        W77302   4.906  17.598  13.880
 5577W        W77303  15.124  14.841   0.390
 5578W        W77304   1.246  22.923  13.665
 5579W        W77305  19.174  10.721   1.889
 5580W        W77306  19.762  26.155  10.641
 5581W        W77307  33.614   8.840   2.289
 5582W        W77308  25.221  13.794  12.321
 5583W        W77309  14.043  28.123   0.936
 5584W        W77310  22.415  29.046   4.628
 5585W        W77311  32.083  44.466  14.588
 5586W        W77312  13.722   2.860  14.474
 5587W        W77313  27.901  43.696  13.397
 5588W        W77314  34.606  34.260   2.232
 5589W        W77315  23.095  27.943  10.985
 5590W        W77316  39.358  23.250   0.452
 5591W        W77317  19.261   9.391   4.094
 5592W        W77318   2.893  30.160  14.886
 5593W        W77319  42.971   7.425   4.092
 5594W        W77320  25.455  24.271   0.800
 5595W        W77321   3.989  19.520  14.240
 5596W        W77322  25.284   8.134  12.860
 5597W        W77323  11.799   9.747  12.398
 5598W        W77324  17.130  13.691   0.899
 5599W        W77325  44.563   1.977   1.815
 5600W        W77326  28.932  32.264   1.241
 5601W        W77327  22.766  36.296   2.355
 5602W        W77328   5.959  38.572  11.868
 5603W        W77329  30.916   8.834   4.580
 5604W        W77330   3.375  12.210   2.674
 5605W        W77331  37.617  28.104   2.721
 5606W        W77332   4.306  27.334  11.610
 5607W        W77333  28.288  17.714  10.661
 5608W        W77334  35.134  41.871   1.807
 5609W        W77335  24.297  19.234   0.826
 5610W        W77336  21.495  26.872  11.900
 5611W        W77337  15.401  35.631  13.416
 5612W        W77338  29.093  25.993   3.111
 5613W        W77339  42.714  44.273  13.403
 5614W        W77340  33.662  22.746   0.518
 5615W        W77341  24.531  20.771  13.608
 5616W        W77342  37.076  36.640   4.710
 5617W        W77343  40.830  29.576  10.520
 5618W        W77344  29.815  33.647  13.002
 5619W        W77345  16.541  27.771  14.084
 5620W        W77346  33.934  43.215  10.119
 5621W        W77347   0.954   1.444   1.871
 5622W        W77348  31.319  43.954   3.723
 5623W        W77349  35.789  30.488  13.017
 5624W        W77350  20.135  13.342  12.472
 5625W        W77351  21.471  40.412  14.942
 5626W        W77352  33.696   5.775  14.088
 5627W        W77353  30.598  44.221   9.768
 5628W        W77354  25.047   3.286   1.728
 5629W        W77355   9.891  11.699  11.181
 5630W        W77356  17.705  38.487  11.000
 5631W        W77357   9.681  10.832  11.164
 5632W        W77358   6.370  20.142   0.843
 5633W        W77359  12.355  12.819  11.224
 5634W        W77360  35.945   8.477  12.423
 5635W        W77361  40.801   6.230   2.413
 5636W        W77362   4.722  41.246   0.610
 5637W        W77363  25.037  36.975   2.269
 5638W        W77364  29.954  43.475   3.816
 5639W        W77365  10.801  35.456  12.357
 5640W        W77366  30.182  18.215  14.435
 5641W        W77367  29.492  20.057   1.866
 5642W        W77368  28.194  27.928   0.348
 5643W        W77369  16.108   7.005   2.200
 5644W        W77370  12.141  33.906  12.664
 5645W        W77371  20.590   9.713   4.210
 5646W        W77372  19.566  20.323  13.349
 5647W        W77373   5.490   5.322   3.708
 5648W        W77374  41.890  12.314  12.508
 5649W        W77375  38.012   8.171  14.794
 5650W        W77376  30.588  22.184  13.979
 5651W        W77377  40.483  14.126   0.721
 5652W        W77378  30.150   7.925   1.849
 5653W        W77379  34.004   4.820   2.651
 5654W        W77380  33.989   4.338  13.522
 5655W        W77381  21.729  15.197   1.772
 5656W        W77382   0.368  40.993  11.165
 5657W        W77383  41.683  42.807  13.689
 5658W        W77384   3.751  19.823  13.386
 5659W        W77385  17.507  16.301  11.542
 5660W        W77386  26.025   2.192  12.520
 5661W        W77387  35.691   8.243  11.693
 5662W        W77388  22.739  23.695  11.448
 5663W        W77389  19.591  28.497   0.795
 5664W        W77390  10.798  44.509  10.700
 5665W        W77391   6.731  39.949  14.815
 5666W        W77392  35.275  13.736  12.092
 5667W        W77393  37.850  19.538   3.872
 5668W        W77394  40.369  27.277  11.617
 5669W        W77395  32.159  11.510   1.233
 5670W        W77396  32.529   2.502  11.073
 5671W        W77397   8.693  15.571  11.151
 5672W        W77398  21.441  12.683  11.985
 5673W        W77399  35.643  20.593  12.510
 5674W        W77400  39.980  30.111   0.347
 5675W        W77401  15.298   7.131   0.020
 5676W        W77402  24.141  14.544  10.183
 5677W        W77403   0.489   4.830   1.500
 5678W        W77404  44.794  32.914   3.171
 5679W        W77405   3.199   0.838   2.899
 5680W        W77406   5.769  13.823  10.182
 5681W        W77407  19.731  42.913  10.485
 5682W        W77408  23.550  15.337   2.327
 5683W        W77409   4.179  37.856  14.094
 5684W        W77410  25.702  42.029   4.438
 5685W        W77411  25.618  15.818   0.345
 5686W        W77412   3.220  16.564   3.239
 5687W        W77413  30.523  27.903   4.035
 5688W        W77414   6.816  24.915   3.639
 5689W        W77415  40.503  24.573   1.315
 5690W        W77416   7.785  44.942  11.972
 5691W        W77417   7.228   5.872  13.377
 5692W        W77418   2.831   4.027  12.455
 5693W        W77419  21.654  20.280  10.740
 5694W        W77420   5.164  11.081   3.831
 5695W        W77421  31.705  44.804   0.068
 5696W        W77422  38.401   3.213   2.435
 5697W        W77423  29.054  23.323  11.572
 5698W        W77424  42.474  16.181  11.695
 5699W        W77425   0.715  36.533  13.942
 5700W        W77426  23.249  36.291   2.608
 5701W        W77427  42.504   6.114  13.944
 5702W        W77428  32.592  42.810  14.624
 5703W        W77429  18.560  37.721   4.507
 5704W        W77430  42.607  24.221  12.332
 5705W        W77431  24.057  22.334   5.046
 5706W        W77432   7.259  34.800  11.019
 5707W        W77433  32.262  18.314   4.097
 5708W        W77434  37.424  16.536  11.692
 5709W        W77435  17.635   4.767  14.595
 5710W        W77436  15.513  10.808   1.852
 5711W        W77437  30.745  42.449  14.496
 5712W        W77438   3.359  17.751   1.445
 5713W        W77439  26.387  41.709   1.620
 5714W        W77440   6.634  31.500   4.673
 5715W        W77441  31.904  24.906  12.318
 5716W        W77442  32.590  41.265  10.657
 5717W        W77443  17.171  35.132   2.300
 5718W        W77444  16.318  10.156  11.108
 5719W        W77445  37.840   0.216  13.045
 5720W        W77446  19.659  44.903   3.273
 5721W        W77447  34.533  38.125  13.600
 5722W        W77448  42.703   2.951   3.676
 5723W        W77449  43.538   3.654   4.138
 5724W        W77450  13.717  17.338   4.366
 5725W        W77451  35.083  39.877   3.906
 5726W        W77452   8.358  25.540   4.158
 5727W        W77453  29.583  31.126  14.398
 5728W        W77454  38.325  28.156   3.611
 5729W        W77455   1.481  22.582   4.040
 5730W        W77456   3.200  33.639  11.192
 5731W        W77457  17.258  30.225   0.641
 5732W        W77458  33.235  39.551   4.088
 5733W        W77459  15.776  31.501  13.479
 5734W        W77460  36.255  40.287   5.085
 5735W        W77461  35.001  16.953   3.801
 5736W        W77462  36.882   1.534  12.743
 5737W        W77463  15.140   0.669   0.503
 5738W        W77464  37.082  37.058  13.858
 5739W        W77465  14.083  14.325   4.564
 5740W        W77466  20.356   6.545  12.459
 5741W        W77467  23.078   5.530  12.892
 5742W        W77468  30.908  39.957  10.607
 5743W        W77469   1.012  12.800  13.806
 5744W        W77470   9.596  24.654  12.443
 5745W        W77471  42.959  38.781   0.506
 5746W        W77472  31.028   8.391  12.659
 5747W        W77473  29.580  16.082   1.889
 5748W        W77474  43.983  40.416   3.197
 5749W        W77475  27.628   5.794  11.887
 5750W        W77476  18.939   6.307  11.079
 5751W        W77477   6.766  22.293  13.965
 5752W        W77478  30.473   0.788  11.534
 5753W        W77479  30.483  44.020   5.507
 5754W        W77480  30.375  16.859  13.527
 5755W        W77481  16.707  44.222   0.406
 5756W        W77482  24.726   6.963  12.083
 5757W        W77483  39.789  13.340   2.758
 5758W        W77484   6.180  44.044  14.989
 5759W        W77485  24.301  10.310   4.263
 5760W        W77486  38.081  39.723  14.571
 5761W        W77487   8.284  22.539   0.364
 5762W        W77488   2.730  19.633   3.878
 5763W        W77489  40.896   5.783   2.679
 5764W        W77490  29.530  18.617  11.096
 5765W        W77491  12.429   6.854  14.361
 5766W        W77492  30.970  18.146   1.508
 5767W        W77493  27.340  11.697   4.516
 5768W        W77494  25.679  33.925   2.748
 5769W        W77495   7.769   5.592  11.556
 5770W        W77496  27.991   4.950  13.102
 5771W        W77497  32.420  13.364  10.728
 5772W        W77498  44.844  27.065   1.816
 5773W        W77499  29.404  36.488  13.512
 5774W        W77500  22.138  33.984  12.673
 5775W        W77501  29.153  44.148   3.752
 5776W        W77502  31.591  43.955  11.086
 5777W        W77503  17.763  19.255   0.013
 5778W        W77504   1.257  26.084  13.730
 5779W        W77505  38.059  40.445  12.422
 5780W        W77506  41.990  14.065   3.076
 5781W        W77507  28.929  26.474   0.745
 5782W        W77508   3.365  43.298  10.766
 5783W        W77509  39.061  38.526   4.934
 5784W        W77510  34.284   9.904  12.446
 5785W        W77511   9.270  34.073   4.647
 5786W        W77512  39.115   1.476  12.006
 5787W        W77513  36.106  39.584  11.585
 5788W        W77514  28.054  27.513   4.659
 5789W        W77515   6.861   0.170  11.489
 5790W        W77516  31.927   4.392   0.496
 5791W        W77517  21.900  36.398   1.472
 5792W        W77518   8.295   4.288   0.242
 5793W        W77519   4.185  32.387  13.827
 5794W        W77520  38.289  16.871  14.541
 5795W        W77521  11.580   8.140  14.413
 5796W        W77522  20.812  37.580   3.416
 5797W        W77523  30.472  25.548  14.547
 5798W        W77524  41.318   4.856  11.687
 5799W        W77525  33.551  22.525   3.760
 5800W        W77526  12.152   3.221  11.600
 5801W        W77527   6.675  10.172   4.601
 5802W        W77528   3.421  30.217   0.890
 5803W        W77529   1.899   9.781   3.842
 5804W        W77530  28.623  44.320  11.128
 5805W        W77531  39.328  39.018  14.248
 5806W        W77532  25.328  27.051   1.043
 5807W        W77533  14.337  20.804  14.193
 5808W        W77534  14.217  30.736   0.489
 5809W        W77535  40.929  15.601  14.767
 5810W        W77536  10.207  33.566  11.921
 5811W        W77537  14.339  26.009  14.851
 5812W        W77538  24.711  43.984   5.388
 5813W        W77539  36.565   4.226   1.030
 5814W        W77540  15.903   3.030   0.451
 5815W        W77541   3.784   1.989   4.146
 5816W        W77542   7.623  35.873   4.070
 5817W        W77543  41.058   7.823  12.265
 5818W        W77544  33.572  23.330   4.137
 5819W        W77545  34.162  13.519   3.310
 5820W        W77546   7.990  36.859  10.459
 5821W        W77547  18.674  43.433  14.069
 5822W        W77548  26.679   3.019   1.826
 5823W        W77549  39.929   7.173   0.209
 5824W        W77550  35.443   8.564  14.334
 5825W        W77551  28.937   1.271   2.767
 5826W        W77552  23.123  12.615   1.059
 5827W        W77553  28.160   6.414  12.955
 5828W        W77554  17.817  24.387  12.862
 5829W        W77555  43.778  14.054   0.257
 5830W        W77556  32.836  39.170  13.907
 5831W        W77557  14.575  22.897   4.217
 5832W        W77558  20.596  41.162  11.601
 5833W        W77559   9.849   0.860  13.515
 5834W        W77560   3.348  14.086   3.581
 5835W        W77561   7.213  21.508   3.664
 5836W        W77562  38.616  42.349   4.603
 5837W        W77563  15.040  29.190   4.763
 5838W        W77564  36.623  20.321   1.236
 5839W        W77565   0.329  38.969   2.973
 5840W        W77566  19.922  31.452   0.840
 5841W        W77567  37.179  44.310   0.815
 5842W        W77568  12.744  37.356   5.249
 5843W        W77569  43.006  13.542   4.605
 5844W        W77570  30.450  41.501   3.175
 5845W        W77571  23.674   7.776   0.777
 5846W        W77572  43.884   3.334   1.697
 5847W        W77573  35.435  22.429  12.018
 5848W        W77574  24.616  15.711   3.225
 5849W        W77575  37.632  12.325  13.120
 5850W        W77576  31.152  21.069   3.665
 5851W        W77577  41.591  20.315  10.988
 5852W        W77578  13.296  42.033   2.219
 5853W        W77579  39.289  37.998   4.668
 5854W        W77580  35.614  37.246   9.942
 5855W        W77581   2.525  14.780  12.866
 5856W        W77582  14.246  35.387   1.239
 5857W        W77583  30.446  24.039  12.356
 5858W        W77584  22.553   5.811  11.505
 5859W        W77585  30.625  20.664  10.702
 5860W        W77586  40.172  12.764   0.312
 5861W        W77587  42.272  34.467  12.433
 5862W        W77588  35.943  12.197   1.406
 5863W        W77589  32.459  41.644   5.310
 5864W        W77590  42.773  24.500  11.647
 5865W        W77591  30.084  28.372   2.822
 5866W        W77592  24.643  26.581  10.608
 5867W        W77593   3.343  10.649   0.307
 5868W        W77594  41.314  35.053   0.392
 5869W        W77595  44.261  21.778  13.556
 5870W        W77596  32.909  22.864  12.565
 5871W        W77597  21.736  33.957   2.240
 5872W        W77598   5.912   9.844   3.376
 5873W        W77599   3.730   7.876  14.854
 5874W        W77600  19.253  30.361   2.345
 5875W        W77601  40.524  15.960  14.866
 5876W        W77602   0.991   3.228  14.059
 5877W        W77603  38.846   9.757  13.465
 5878W        W77604  35.965  19.134  13.386
 5879W        W77605  13.857  37.416   3.413
 5880W        W77606   2.973  37.239  13.062
 5881W        W77607  37.754  17.165  14.038
 5882W        W77608   2.011  26.056   3.619
 5883W        W77609  23.673  40.100  14.269
 5884W        W77610  22.389  44.518  13.935
 5885W        W77611  21.034  28.105   1.331
 5886W        W77612  38.819  14.665  11.856
 5887W        W77613  11.929  41.721   1.946
 5888W        W77614  41.281  38.280  12.954
 5889W        W77615  28.221  37.120   1.816
 5890W        W77616  19.738  43.384   4.343
 5891W        W77617  36.214  13.067  11.201
 5892W        W77618  26.388  36.932   2.796
 5893W        W77619  32.443  18.821  13.940
 5894W        W77620   9.919   5.366   2.942
 5895W        W77621  30.996   5.146   0.770
 5896W        W77622   4.461  33.035  12.598
 5897W        W77623  34.862  28.139  14.756
 5898W        W77624  42.812  39.658   0.480
 5899W        W77625  43.737  26.542  14.926
 5900W        W77626   9.956   3.976  14.259
 5901W        W77627  39.131  11.209   3.289
 5902W        W77628  18.831  18.335  14.380
 5903W        W77629  34.956  36.407   3.293
 5904W        W77630   2.000  31.228   0.847
 5905W        W77631  12.377  16.624  12.514
 5906W        W77632  40.855  17.166  12.914
 5907W        W77633   3.932   6.905   1.232
 5908W        W77634  19.045  21.123   1.690
 5909W        W77635  11.954   0.559   0.872
 5910W        W77636   9.158  15.945   1.925
 5911W        W77637   9.093  35.897   9.843
 5912W        W77638  12.629  33.464  14.841
 5913W        W77639  21.203  38.931  10.595
 5914W        W77640  11.320  21.618  13.484
 5915W        W77641  26.984  40.497  13.568
 5916W        W77642  35.124   1.959  14.780
 5917W        W77643   4.760  27.776  11.606
 5918W        W77644  31.130  23.961   1.473
 5919W        W77645  11.151  16.723   2.064
 5920W        W77646  23.986  19.328   9.865
 5921W        W77647  10.121  40.574   0.687
 5922W        W77648   6.668  23.311  12.905
 5923W        W77649  24.458  19.283  11.691
 5924W        W77650  28.899  38.001  12.509
 5925W        W77651  39.939  43.680  12.839
 5926W        W77652  38.124  19.150   1.951
 5927W        W77653  33.676  29.576  10.778
 5928W        W77654  42.806  22.386  14.790
 5929W        W77655  19.669   9.043   3.168
 5930W        W77656  39.167   4.587   2.786
 5931W        W77657  30.159  24.589   4.143
 5932W        W77658  25.308  42.341   3.674
 5933W        W77659  30.008  13.265  14.939
 5934W        W77660  10.140  44.910   1.837
 5935W        W77661  28.239  41.973   1.341
 5936W        W77662  20.740  42.409   2.898
 5937W        W77663  17.107  19.939  13.396
 5938W        W77664  22.459  36.314   4.520
 5939W        W77665  32.021   4.489  11.714
 5940W        W77666   8.058  22.965  14.405
 5941W        W77667   9.271  30.074   0.950
 5942W        W77668   0.446  10.340   5.128
 5943W        W77669   3.839  15.570   0.687
 5944W        W77670   1.723  27.584  11.924
 5945W        W77671  15.254   3.647   0.855
 5946W        W77672  27.919  33.901   0.280
 5947W        W77673  33.055  44.214   1.756
 5948W        W77674  32.366  26.598  14.466
 5949W        W77675  23.008  36.937  11.285
 5950W        W77676  19.127  25.009   0.714
 5951W        W77677  39.513  12.850  14.537
 5952W        W77678   7.858  14.062   4.244
 5953W        W77679  31.567  29.002   4.632
 5954W        W77680  24.523   4.741  11.967
 5955W        W77681  22.798  39.844   2.268
 5956W        W77682  31.844  23.009   4.632
 5957W        W77683   8.744  44.652   2.788
 5958W        W77684  32.398  43.000   4.479
 5959W        W77685  22.135  18.977   1.767
 5960W        W77686   3.887   7.547   3.851
 5961W        W77687   3.738  35.008   3.796
 5962W        W77688  23.350   1.862   4.506
 5963W        W77689  42.364  33.039  14.994
 5964W        W77690  23.590   5.665  11.749
 5965W        W77691   0.306  22.303   0.878
 5966W        W77692  36.253  44.997  12.834
 5967W        W77693  36.382  32.554  10.664
 5968W        W77694   4.696   1.135   1.849
 5969W        W77695   7.893  31.629  11.062
 5970W        W77696   3.750  30.972  13.696
 5971W        W77697  38.876  13.162   4.972
 5972W        W77698  11.473  30.124   2.458
 5973W        W77699  29.231  35.608   1.664
 5974W        W77700  37.351  36.608  13.065
 5975W        W77701  32.370  13.554  11.249
 5976W        W77702  24.537  20.102  12.100
 5977W        W77703   9.281  26.289   4.655
 5978W        W77704   4.875  39.550  12.541
 5979W        W77705  39.250  32.843   0.356
 5980W        W77706  36.829  40.830  13.936
 5981W        W77707  11.869  20.167  12.986
 5982W        W77708  37.922  42.737  14.388
 5983W        W77709   4.930   4.537  10.702
 5984W        W77710  24.641   2.221  13.894
 5985W        W77711  43.291   8.196  11.568
 5986W        W77712  16.692  27.490  13.077
 5987W        W77713   6.817  29.043   1.800
 5988W        W77714  32.827   1.253  10.481
 5989W        W77715  30.570  35.014   3.124
 5990W        W77716   3.259  43.187  14.568
 5991W        W77717  24.510   0.333   4.174
 5992W        W77718  15.788  37.387  11.598
 5993W        W77719  23.392  15.333   3.227
 5994W        W77720  41.352  29.856   0.516
 5995W        W77721   6.916  24.483  12.618
 5996W        W77722  29.041  20.166  11.594
 5997W        W77723  36.643   0.222   3.429
 5998W        W77724   0.333  27.648  14.800
 5999W        W77725  40.437   0.238   1.443
 6000W        W77726  32.022  31.153   3.866
 6001W        W77727  26.504   3.211   0.451
 6002W        W77728  19.900  43.229  14.737
 6003W        W77729  40.407  14.080  11.541
 6004W        W77730  16.100  14.679  12.300
 6005W        W77731  39.907  14.598   4.077
 6006W        W77732  27.142   2.249   1.773
 6007W        W77733  29.616   2.930  13.483
 6008W        W77734   2.876  10.573  13.005
 6009W        W77735  22.698  12.347  13.606
 6010W        W77736  37.307  26.523   0.753
 6011W        W77737   2.374  13.711  11.879
 6012W        W77738  40.396   5.440   1.817
 6013W        W77739  15.909  31.630  11.262
 6014W        W77740  10.860  38.283  11.068
 6015W        W77741  44.226   2.800   4.850
 6016W        W77742  42.217  38.931   1.878
 6017W        W77743  10.695  31.845   4.118
 6018W        W77744  15.174   7.849  13.637
 6019W        W77745   7.394  34.547   2.250
 6020W        W77746  30.489  18.362   3.303
 6021W        W77747   2.906  26.213  14.834
 6022W        W77748   1.038   0.981   3.639
 6023W        W77749   1.822  34.841   3.652
 6024W        W77750  33.406  17.059   2.148
 6025W        W77751  17.756  42.363   4.893
 6026W        W77752  29.120  26.496   3.675
 6027W        W77753  22.708  14.269  14.844
 6028W        W77754   0.936  15.861   0.049
 6029W        W77755  12.740   1.370  13.981
 6030W        W77756  21.114  38.119  11.462
 6031W        W77757  19.685   6.364  14.783
 6032W        W77758  33.284  40.064   0.792
 6033W        W77759   9.342  27.526  11.657
 6034W        W77760  21.699  41.595  13.520
 6035W        W77761  13.983  16.548   4.531
 6036W        W77762   1.430   5.474  13.052
 6037W        W77763  17.499  27.099   3.667
 6038W        W77764  21.943  32.813   1.470
 6039W        W77765   2.776  26.851  11.467
 6040W        W77766   0.429  34.678  12.881
 6041W        W77767   8.723   2.942   2.502
 6042W        W77768  10.253  18.403   1.808
 6043W        W77769   2.537   7.410   4.380
 6044W        W77770   6.374  31.532   2.794
 6045W        W77771  18.718  18.064  12.067
 6046W        W77772   4.352  27.894   4.848
 6047W        W77773  27.403  21.625   4.045
 6048W        W77774  37.447   6.394  10.693
 6049W        W77775  28.195  43.644   3.351
 6050W        W77776  39.382  37.256   1.081
 6051W        W77777  31.504  38.986   4.279
 6052W        W77778  30.452  28.039  14.256
 6053W        W77779  30.006  33.599   3.242
 6054W        W77780  15.860  32.749  14.774
 6055W        W77781   9.693   2.297   3.818
 6056W        W77782  23.930  29.929  14.738
 6057W        W77783  25.058  30.847   1.498
 6058W        W77784  44.404   6.378   4.133
 6059W        W77785  17.030  22.184   3.380
 6060W        W77786  36.945  41.807   4.324
 6061W        W77787  18.245  28.407   1.255
 6062W        W77788   0.262  20.161   2.729
 6063W        W77789   8.781  36.646   4.229
 6064W        W77790  28.335  37.001   5.079
 6065W        W77791  17.284   0.516   3.963
 6066W        W77792  31.602  12.245  10.682
 6067W        W77793  43.565   2.112   5.147
 6068W        W77794  16.689   1.219   3.728
 6069W        W77795  13.857   7.356  11.250
 6070W        W77796  22.466  41.823   4.566
 6071W        W77797  27.044  30.976  14.386
 6072W        W77798  36.961  25.317  11.401
 6073W        W77799  38.967  18.213   2.510
 6074W        W77800  44.302   2.936  11.685
 6075W        W77801  22.010   8.946  12.502
 6076W        W77802   0.146   8.230  13.396
 6077W        W77803  19.610  32.555   4.216
 6078W        W77804  23.716  25.094  14.762
 6079W        W77805  37.056  11.437   3.136
 6080W        W77806  17.238   3.759   4.357
 6081W        W77807  28.746  27.054   2.042
 6082W        W77808  39.293  21.443  14.864
 6083W        W77809  37.351  18.133  10.737
 6084W        W77810  38.708  33.349  10.531
 6085W        W77811  25.507  10.380  12.874
 6086W        W77812  35.478  21.208  14.183
 6087W        W77813  14.129   5.400  11.156
 6088W        W77814  16.127  40.116   4.887
 6089W        W77815  11.757  30.421   2.128
 6090W        W77816  35.596  14.152  14.915
 6091W        W77817  42.767  17.525  14.942
 6092W        W77818  37.138  30.476  14.890
 6093W        W77819   2.387  20.684   2.913
 6094W        W77820  35.876  14.825  11.597
 6095W        W77821  17.241  31.539  10.645
 6096W        W77822  29.070  38.777   2.248
 6097W        W77823  33.154   3.693  11.623
 6098W        W77824  33.278  14.906   3.627
 6099W        W77825  12.439  37.155   0.270
 6100W        W77826  37.325   5.493   1.779
 6101W        W77827  18.522   9.054   0.407
 6102W        W77828  13.094  34.715   3.676
 6103W        W77829  15.346  13.795  12.022
 6104W        W77830  38.076  43.398  13.432
 6105W        W77831   7.430   0.535  14.932
 6106W        W77832  38.467   3.319   2.960
 6107W        W77833  38.022  23.679  13.021
 6108W        W77834  14.866  22.074   1.986
 6109W        W77835  15.297  23.823  10.796
 6110W        W77836   0.711   3.247   1.405
 6111W        W77837  26.124  33.292  12.127
 6112W        W77838   6.365  15.544  13.497
 6113W        W77839  40.073   9.349   4.171
 6114W        W77840  20.659  25.660  10.742
 6115W        W77841  41.105  15.407   3.741
 6116W        W77842  17.822  39.473   2.317
 6117W        W77843  17.966  40.044  12.429
 6118W        W77844   5.269  33.286  13.434
 6119W        W77845  42.918   0.577   1.055
 6120W        W77846   6.378   9.788   2.689
 6121W        W77847   8.808  37.975   3.815
 6122W        W77848   4.888   6.362  11.043
 6123W        W77849  20.959   5.636  12.964
 6124W        W77850  29.408  26.653  12.921
 6125W        W77851  26.850  17.390  11.483
 6126W        W77852  30.367  33.935  14.583
 6127W        W77853  12.838  33.045   4.679
 6128W        W77854  37.951  20.713   3.281
 6129W        W77855  18.385   6.325  11.979
 6130W        W77856  10.715  26.993   3.901
 6131W        W77857  44.695  39.437  12.409
 6132W        W77858  37.026  18.115   2.346
 6133W        W77859  41.990   4.885  13.947
 6134W        W77860   6.684   3.310   1.029
 6135W        W77861  38.053  37.360   4.138
 6136W        W77862  36.080   6.138  14.477
 6137W        W77863  33.227  35.030  14.019
 6138W        W77864  34.887   3.342   3.985
 6139W        W77865  38.292  11.655  11.262
 6140W        W77866  40.061   9.901   0.901
 6141W        W77867  23.030  23.674  13.037
 6142W        W77868  19.122  44.188  12.029
 6143W        W77869  30.199  20.532   1.690
 6144W        W77870   0.534  19.292  14.264
 6145W        W77871  13.669  29.187  14.292
 6146W        W77872  32.080  36.892   4.519
 6147W        W77873  29.094  37.818   0.857
 6148W        W77874   0.122  25.499   4.279
 6149W        W77875  30.505   5.948  13.018
 6150W        W77876  16.581   5.000  11.203
 6151W        W77877  29.242   9.151   3.089
 6152W        W77878  20.737  19.856   1.830
 6153W        W77879  17.644  25.727  11.116
 6154W        W77880  22.019  38.359  11.754
 6155W        W77881  25.205  22.961   1.649
 6156W        W77882  36.065   0.174  11.105
 6157W        W77883  42.015  27.836   0.940
 6158W        W77884  33.698  39.964   2.288
 6159W        W77885   4.657  19.097  11.081
 6160W        W77886  29.169  43.415   4.241
 6161W        W77887  39.367  44.736  14.502
 6162W        W77888  18.033  26.129   1.892
 6163W        W77889  21.318  30.749  10.320
 6164W        W77890  29.430  23.716  14.362
 6165W        W77891  44.041   6.588   1.325
 6166W        W77892  41.957   1.804   1.656
 6167W        W77893  22.084  22.972   3.804
 6168W        W77894   9.826  14.387  11.533
 6169W        W77895  16.384  40.596   2.656
 6170W        W77896  12.963  27.968  11.193
 6171W        W77897  43.435   5.424  14.787
 6172W        W77898  14.133  13.697   2.331
 6173W        W77899  42.789   2.870  12.392
 6174W        W77900  44.572   1.592  11.169
 6175W        W77901  10.709  13.054   4.569
 6176W        W77902  12.892  11.706  13.611
 6177W        W77903  15.765  30.461   1.344
 6178W        W77904  11.610   7.659  11.454
 6179W        W77905  14.620  40.830   0.037
 6180W        W77906  25.017  27.666   1.588
 6181W        W77907  38.957  25.476   4.575
 6182W        W77908  11.098   5.124  12.370
 6183W        W77909  38.117  30.480   4.558
 6184W        W77910  33.644  26.772  12.911
 6185W        W77911  23.788  27.268  14.812
 6186W        W77912  28.428  11.724   0.371
 6187W        W77913  25.570  28.111   4.965
 6188W        W77914  25.941  40.923  12.413
 6189W        W77915  24.346   2.536  10.639
 6190W        W77916  16.076  14.673  12.814
 6191W        W77917  18.659   3.255  11.567
 6192W        W77918   9.730  21.665  12.780
 6193W        W77919  26.939   9.267   0.987
 6194W        W77920  31.625  10.618  13.198
 6195W        W77921   5.427   9.141   2.760
 6196W        W77922   6.317  28.690   3.561
 6197W        W77923  21.028   3.242  11.852
 6198W        W77924  14.069  17.692  13.459
 6199W        W77925  43.540  33.321   3.165
 6200W        W77926  11.666   9.990   2.904
 6201W        W77927  12.764  41.914   4.135
 6202W        W77928  33.273   6.712   1.013
 6203W        W77929  39.249  44.513   3.212
 6204W        W77930   2.349  18.164   4.216
 6205W        W77931  36.612  18.237   0.749
 6206W        W77932  31.612  19.777  14.567
 6207W        W77933   2.942  41.085   4.352
 6208W        W77934  32.896  16.348  10.603
 6209W        W77935  13.808  12.161  14.299
 6210W        W77936  17.614  25.274   5.181
 6211W        W77937  42.858  44.005  11.667
 6212W        W77938   1.833  40.919   1.403
 6213W        W77939   4.306  29.052   3.975
 6214W        W77940  11.595  41.398   4.280
 6215W        W77941  18.048  42.446  13.559
 6216W        W77942  43.545  41.530  11.522
 6217W        W77943  20.192  14.097   4.808
 6218W        W77944  12.604  27.588  11.261
 6219W        W77945  16.704  20.249   4.842
 6220W        W77946   6.586  16.303  12.033
 6221W        W77947   7.674  35.946   4.598
 6222W        W77948  42.628  37.086   5.115
 6223W        W77949  22.083  32.872  12.053
 6224W        W77950  15.366   2.183   4.435
 6225W        W77951  13.524  35.411  10.708
 6226W        W77952  16.690   2.874  11.721
 6227W        W77953   3.960  34.966   0.678
 6228W        W77954   5.959  29.966   2.325
 6229W        W77955  30.981  36.947   0.410
 6230W        W77956  39.249  24.582  13.899
 6231W        W77957  38.841   7.829   4.230
 6232W        W77958  13.732  24.680  14.422
 6233W        W77959  12.583  23.608  12.038
 6234W        W77960   7.292  32.570   4.596
 6235W        W77961   5.610  30.394  13.294
 6236W        W77962  24.623  36.867  11.094
 6237W        W77963   5.210  32.781  13.459
 6238W        W77964  23.770  17.088   3.286
 6239W        W77965  16.383   4.397   1.168
 6240W        W77966   9.602  34.632   0.831
 6241W        W77967   8.969  21.047   4.613
 6242W        W77968  33.532  22.601  13.592
 6243W        W77969  33.120   6.269  10.998
 6244W        W77970   0.856  14.924   4.135
 6245W        W77971  33.514  13.203  12.122
 6246W        W77972  33.822  32.011  11.237
 6247W        W77973  18.193  30.346  13.505
 6248W        W77974  19.562   3.372   2.962
 6249W        W77975  20.171  33.150  10.735
 6250W        W77976  27.680  32.834  13.217
 6251W        W77977   6.269  26.844  13.901
 6252W        W77978  24.559  24.499  10.747
 6253W        W77979  32.669  43.521  12.551
 6254W        W77980  38.130  22.610  14.982
 6255W        W77981  20.181  29.673  14.344
 6256W        W77982  15.551  22.477   4.568
 6257W        W77983  41.500   1.702   3.585
 6258W        W77984  34.839  18.734   0.653
 6259W        W77985  17.195  38.557  10.197
 6260W        W77986  32.151  34.045   1.872
 6261W        W77987   8.164  36.915  10.939
 6262W        W77988   9.751   3.874   1.249
 6263W        W77989  35.169  26.666   3.690
 6264W        W77990  34.152  23.292   3.199
 6265W        W77991  12.949  40.833  13.968
 6266W        W77992  34.855  34.530   4.584
 6267W        W77993   1.485   8.314  11.397
 6268W        W77994  26.908  36.970   2.682
 6269W        W77995  26.708  35.568   1.877
 6270W        W77996  22.500  35.294  12.533
 6271W        W77997  25.374   0.452  10.239
 6272W        W77998   4.682  13.792   3.723
 6273W        W77999  31.372  16.990   1.870
 6274W        W78000   4.121  43.448   1.021
 6275W        W78001  28.724   6.861  10.634
 6276W        W78002  33.526  38.569   0.691
 6277W        W78003  41.565  36.670  13.585
 6278W        W78004   9.335  38.566   2.400
 6279W        W78005  40.254   2.764  12.973
 6280W        W78006   1.268  33.610  13.617
 6281W        W78007   9.479  11.912  13.446
 6282W        W78008  43.066  43.180   3.195
 6283W        W78009  22.241   8.724   2.916
 6284W        W78010  28.202  14.837  13.979
 6285W        W78011  20.266  44.473  13.982
 6286W        W78012   5.758  33.574   1.880
 6287W        W78013   0.364  13.520  11.415
 6288W        W78014  42.837   4.046   2.364
 6289W        W78015   9.853  36.505  12.135
 6290W        W78016  41.197  31.028   2.380
 6291W        W78017  28.215  14.290   2.323
 6292W        W78018   7.659  20.754  13.519
 6293W        W78019  22.609  18.748   1.765
 6294W        W78020  38.495  20.359   1.265
 6295W        W78021  23.197  14.238   4.144
 6296W        W78022  30.043   3.543   0.708
 6297W        W78023   6.374  11.109  13.321
 6298W        W78024   9.327  32.825  12.950
 6299W        W78025  11.790  30.150  11.962
 6300W        W78026   3.886  15.832   3.548
 6301W        W78027   4.631   0.635   1.833
 6302W        W78028  31.888  19.136  13.419
 6303W        W78029  24.340   5.670  11.299
 6304W        W78030  30.531  44.992   1.473
 6305W        W78031  17.001  42.002  10.722
 6306W        W78032  31.683  42.817   5.008
 6307W        W78033  16.107  12.123   4.610
 6308W        W78034   9.307   3.740  10.878
 6309W        W78035  43.581  27.735  11.062
 6310W        W78036  24.590  40.439   2.343
 6311W        W78037  37.019   9.350  13.443
 6312W        W78038   9.806  34.550  10.179
 6313W        W78039  32.331  25.754   1.990
 6314W        W78040   1.753  29.545  13.402
 6315W        W78041  32.454  23.219   5.173
 6316W        W78042   8.113  20.197   0.480
 6317W        W78043  29.512   4.233  12.096
 6318W        W78044  11.702  31.095  13.407
 6319W        W78045  38.760  11.864  11.386
 6320W        W78046  17.225   9.258  11.206
 6321W        W78047  26.520  43.696   2.249
 6322W        W78048  10.741   2.201  14.081
 6323W        W78049  21.825  16.305   1.922
 6324W        W78050  24.568   1.812  13.498
 6325W        W78051  35.474   5.755   4.830
 6326W        W78052   6.330  39.218  12.542
 6327W        W78053  22.582  40.561   2.144
 6328W        W78054  24.269   5.285   2.328
 6329W        W78055   9.084  12.628   0.403
 6330W        W78056  43.915  14.669  13.185
 6331W        W78057  27.053  44.483  13.151
 6332W        W78058  12.139  12.685   3.087
 6333W        W78059  30.279  27.080   3.158
 6334W        W78060  38.975  39.015  14.974
 6335W        W78061  40.249  26.461   5.054
 6336W        W78062  18.804   6.810  11.586
 6337W        W78063  16.067  34.508   0.674
 6338W        W78064  42.930  42.725  12.622
 6339W        W78065   6.164  11.649   1.853
 6340W        W78066  37.940  30.991   4.899
 6341W        W78067  30.196   2.869   4.719
 6342W        W78068   1.710  21.366   4.983
 6343W        W78069  28.943  36.008  11.078
 6344W        W78070  17.394  21.086  14.895
 6345W        W78071   5.280  22.593   0.256
 6346W        W78072  20.212  40.768   1.905
 6347W        W78073  28.968  31.194  12.421
 6348W        W78074   9.112  28.163   3.328
 6349W        W78075  27.787   9.105   2.223
 6350W        W78076  30.721  44.213   1.958
 6351W        W78077  37.934  40.107   4.351
 6352W        W78078   1.189   4.850   4.057
 6353W        W78079  37.144  38.456  10.569
 6354W        W78080   0.315   2.142  12.361
 6355W        W78081  17.185  38.977   2.928
 6356W        W78082  30.982   6.638  13.913
 6357W        W78083  36.006  36.679  11.201
 6358W        W78084   3.744  20.635   4.821
 6359W        W78085  35.463  43.727   0.448
 6360W        W78086  11.905  14.770  11.195
 6361W        W78087   6.383  21.009  13.991
 6362W        W78088   8.691  42.613   1.837
 6363W        W78089  42.816  18.766  12.969
 6364W        W78090  35.515  38.956   0.489
 6365W        W78091  42.796  34.331   0.793
 6366W        W78092  31.466  12.962  12.999
 6367W        W78093  28.029  31.911  14.541
 6368W        W78094  15.661  35.686  12.957
 6369W        W78095  10.816  43.197  11.134
 6370W        W78096   9.836  34.174   0.913
 6371W        W78097  12.235  37.999  14.974
 6372W        W78098  31.344  42.957   1.300
 6373W        W78099  33.715   7.340   4.968
 6374W        W78100  24.557  29.526   1.859
 6375W        W78101  42.842   7.237   4.548
 6376W        W78102  40.503  29.075   1.273
 6377W        W78103  13.030  32.416   3.431
 6378W        W78104  43.525   5.415  11.946
 6379W        W78105  33.543  41.143   2.822
 6380W        W78106   0.156  20.775   3.892
 6381W        W78107  21.900  33.220  11.124
 6382W        W78108  29.090  38.246   2.240
 6383W        W78109  38.986  20.515   2.783
 6384W        W78110   3.007  18.625   2.635
 6385W        W78111  35.711  18.224   2.392
 6386W        W78112   0.312  37.390   3.855
 6387W        W78113  27.383  26.663  10.983
 6388W        W78114   8.706  20.695   1.454
 6389W        W78115  10.101   0.785   3.332
 6390W        W78116   3.130  41.458   3.357
 6391W        W78117   5.377  35.551  12.047
 6392W        W78118  37.275  29.872   0.829
 6393W        W78119  33.968  14.311  12.055
 6394W        W78120  23.230  11.097  11.239
 6395W        W78121  30.843  43.419   1.054
 6396W        W78122   1.504  37.870   0.358
 6397W        W78123  11.385  30.119  14.029
 6398W        W78124  23.957  35.854  12.549
 6399W        W78125  17.610  28.640  13.578
 6400W        W78126  21.336  24.517   3.890
 6401W        W78127  32.692  41.601   0.870
 6402W        W78128   8.989  15.448   0.468
 6403W        W78129  23.737  29.347   0.035
 6404W        W78130  33.592  26.151   3.222
 6405W        W78131  30.096  33.612  13.594
 6406W        W78132   1.839   7.130  12.525
 6407W        W78133  25.691  42.801   0.725
 6408W        W78134  17.143  31.025  12.519
 6409W        W78135  41.182   6.209   3.743
 6410W        W78136   6.740  41.263   3.785
 6411W        W78137  21.594   5.958  14.396
 6412W        W78138  11.071  20.163  10.662
 6413W        W78139  17.595  29.576  13.273
 6414W        W78140  24.413  32.751  14.119
 6415W        W78141  14.154  28.408  11.589
 6416W        W78142   5.415  34.309   0.900
 6417W        W78143   5.939   5.457  10.832
 6418W        W78144  22.060  33.553  11.891
 6419W        W78145  22.472  12.185   2.751
 6420W        W78146  31.606  22.004  13.820
 6421W        W78147  31.374  30.600   1.471
 6422W        W78148  12.855  21.240  14.233
 6423W        W78149  23.149  31.823   2.666
 6424W        W78150  14.235  41.932   1.486
 6425W        W78151  19.513  15.153  12.103
 6426W        W78152  38.578  43.434  13.530
 6427W        W78153  33.465  17.131  11.142
 6428W        W78154  36.699   5.306  14.114
 6429W        W78155  21.169  19.763   2.189
 6430W        W78156  38.837  23.778   0.907
 6431W        W78157  18.223  23.687   0.097
 6432W        W78158   2.307  18.714   5.052
 6433W        W78159  43.998   3.195  10.525
 6434W        W78160  13.736  18.306  11.967
 6435W        W78161   0.438  28.944   1.631
 6436W        W78162  25.330   5.878  11.562
 6437W        W78163  25.913  40.921  11.544
 6438W        W78164  39.930  10.695   3.229
 6439W        W78165  28.907  37.834   1.765
 6440W        W78166  24.731   5.794  10.972
 6441W        W78167   8.644  34.281  13.439
 6442W        W78168  43.438  30.459   2.390
 6443W        W78169  10.635   3.023   4.943
 6444W        W78170  34.971  16.750  12.048
 6445W        W78171  16.013   5.198   0.935
 6446W        W78172  18.216   6.787   4.304
 6447W        W78173   2.298   3.419  12.473
 6448W        W78174  35.404  40.703  11.947
 6449W        W78175  31.167   4.312   4.531
 6450W        W78176   1.411  16.165   4.397
 6451W        W78177  41.092  14.828   2.783
 6452W        W78178  28.935  24.535  13.092
 6453W        W78179  28.609  34.629   0.819
 6454W        W78180  33.442  14.625   1.452
 6455W        W78181  42.975  37.444   3.381
 6456W        W78182  31.344  36.400   3.090
 6457W        W78183  29.414   2.643  13.103
 6458W        W78184  11.791  27.651  14.637
 6459W        W78185  10.283  33.064   2.161
 6460W        W78186  44.014  33.309  12.513
 6461W        W78187  37.435   7.630   0.313
 6462W        W78188  30.144  10.191   1.367
 6463W        W78189  20.024  33.601  11.109
 6464W        W78190   3.814  14.853  12.816
 6465W        W78191  39.037  19.732  11.133
 6466W        W78192  41.596   0.325  10.492
 6467W        W78193  16.409  35.537  11.526
 6468W        W78194   4.696  44.750  11.369
 6469W        W78195  20.831  42.969   4.664
 6470W        W78196   2.464  44.771   1.958
 6471W        W78197   9.630  34.051  11.062
 6472W        W78198  34.865  24.952  12.775
 6473W        W78199   1.148   3.176  13.573
 6474W        W78200  28.685  30.902   2.193
 6475W        W78201  35.068  11.776   4.598
 6476W        W78202  39.563  16.029   3.875
 6477W        W78203  42.085   4.382  14.055
 6478W        W78204  19.993  25.782   1.231
 6479W        W78205  15.894   8.829   4.179
 6480W        W78206   5.883  13.312   5.304
 6481W        W78207  34.523   6.999  12.875
 6482W        W78208  13.261  39.720  11.522
 6483W        W78209   3.468  38.118  12.130
 6484W        W78210  23.134  43.419  12.713
 6485W        W78211  32.295  24.156  12.285
 6486W        W78212  29.044  21.157  11.533
 6487W        W78213  19.154  23.135  11.319
 6488W        W78214  42.311  20.605  10.755
 6489W        W78215   5.313  42.240   0.011
 6490W        W78216   5.627  36.875  12.590
 6491W        W78217  40.484  21.735   4.413
 6492W        W78218  19.092  18.145   1.501
 6493W        W78219  32.590  23.133   3.175
 6494W        W78220  36.842   7.057   4.654
 6495W        W78221  23.179  44.136   2.848
 6496W        W78222  16.376  26.413   3.597
 6497W        W78223   4.081   5.283   3.984
 6498W        W78224  36.984  33.165   4.005
 6499W        W78225  22.043  22.494  13.890
 6500W        W78226   0.729  18.437  10.395
 6501W        W78227  44.240  34.461  14.388
 6502W        W78228  36.511  44.333   4.476
 6503W        W78229  38.101  41.627  12.947
 6504W        W78230  13.842  20.555   1.468
 6505W        W78231  31.544   3.151   1.770
 6506W        W78232   5.446  11.626  12.488
 6507W        W78233   4.288  37.417   5.109
 6508W        W78234  38.796  21.264   5.062
 6509W        W78235  16.920   4.236  14.007
 6510W        W78236  10.140   8.913   3.598
 6511W        W78237  21.006  34.463  14.815
 6512W        W78238   6.167  25.443  14.973
 6513W        W78239   3.864  13.460  10.456
 6514W        W78240  19.635  12.213   4.727
 6515W        W78241  16.344  17.713   4.233
 6516W        W78242  27.330  39.538  14.193
 6517W        W78243  31.383  22.404   1.133
 6518W        W78244  40.801   0.839   0.185
 6519W        W78245  18.056   5.799   4.565
 6520W        W78246  10.842   6.261  14.905
 6521W        W78247  26.643  25.104   4.660
 6522W        W78248  42.834  39.554   1.591
 6523W        W78249   9.372  11.564   4.603
 6524W        W78250   2.542  38.949  14.103
 6525W        W78251  25.502  15.097  13.837
 6526W        W78252  22.258  26.869  12.963
 6527W        W78253  13.313  11.328  14.410
 6528W        W78254   6.791   5.846   0.070
 6529W        W78255  20.096  34.390  11.704
 6530W        W78256  37.986   0.524   4.615
 6531W        W78257  13.772  33.653   2.820
 6532W        W78258  24.522  27.504   1.450
 6533W        W78259  15.839  20.125   1.351
 6534W        W78260   4.536   4.317  11.039
 6535W        W78261  26.744  37.466   3.183
 6536W        W78262   5.995  19.220   2.306
 6537W        W78263  41.585  36.462   1.269
 6538W        W78264  23.395  14.741   4.166
 6539W        W78265   8.847  14.035  11.564
 6540W        W78266  44.869  42.930   1.335
 6541W        W78267  16.376  21.619  13.554
 6542W        W78268  10.228  21.807  10.867
 6543W        W78269   8.229   8.798  12.496
 6544W        W78270  36.084  21.987   3.432
 6545W        W78271  32.777  27.397  13.497
 6546W        W78272  12.631  41.364   0.808
 6547W        W78273  18.284   2.117   2.418
 6548W        W78274  44.770  18.076  10.405
 6549W        W78275  26.451  37.852   2.891
 6550W        W78276  14.153  44.444   1.542
 6551W        W78277   5.633   1.407  12.256
 6552W        W78278  12.591  15.084   2.296
 6553W        W78279  43.649  44.056  10.726
 6554W        W78280   9.916   0.761  12.034
 6555W        W78281  42.316  40.082  12.687
 6556W        W78282   7.720  44.812   1.199
 6557W        W78283   8.362  15.290   4.585
 6558W        W78284  14.847  36.914   3.381
 6559W        W78285  39.965  39.351   1.653
 6560W        W78286  12.851  39.994  14.019
 6561W        W78287  42.061  16.555  11.998
 6562W        W78288  37.336  22.689  11.581
 6563W        W78289   5.230  19.928  12.135
 6564W        W78290  41.574  19.101  10.741
 6565W        W78291  36.386  23.729   0.811
 6566W        W78292  36.524  19.272   2.709
 6567W        W78293  35.441  21.784  11.169
 6568W        W78294   9.406  39.374   1.880
 6569W        W78295  15.203  19.058   1.089
 6570W        W78296  38.711   2.079   3.245
 6571W        W78297  44.925   1.284   2.267
 6572W        W78298  15.506   2.213  11.998
 6573W        W78299  10.272  38.737   1.271
 6574W        W78300  22.366  20.072  14.811
 6575W        W78301   0.498  25.955   1.378
 6576W        W78302  25.080  41.800   1.466
 6577W        W78303  19.472  13.433  14.655
 6578W        W78304  21.494   2.398  11.061
 6579W        W78305  21.495  24.079   3.210
 6580W        W78306  29.711   6.340   4.641
 6581W        W78307  21.087  12.708  14.243
 6582W        W78308   0.874  40.481  12.936
 6583W        W78309  32.678  20.973   1.374
 6584W        W78310  11.221  42.521   4.649
 6585W        W78311  11.820  33.364   0.486
 6586W        W78312   9.921  10.030   1.456
 6587W        W78313   1.237  19.287   1.615
 6588W        W78314  35.493  26.701  13.320
 6589W        W78315  17.676  36.388   1.970
 6590W        W78316  22.512  32.768  13.009
 6591W        W78317  42.634  38.042  12.654
 6592W        W78318   3.247   1.034  10.797
 6593W        W78319   8.756  28.219  13.861
 6594W        W78320  31.864   6.886  11.465
 6595W        W78321  42.018  37.497   1.954
 6596W        W78322  36.002  20.105   4.137
 6597W        W78323  20.703  20.400   1.030
 6598W        W78324  12.946  16.172   2.615
 6599W        W78325  39.386  20.974   0.878
 6600W        W78326  38.320  32.680  12.962
 6601W        W78327   9.773  14.118  11.983
 6602W        W78328  43.930   3.713  14.833
 6603W        W78329   6.430  25.005   3.267
 6604W        W78330  11.141  39.093   4.590
 6605W        W78331   3.377  42.661   1.300
 6606W        W78332  31.084  24.433   2.714
 6607W        W78333  44.517  15.448  11.201
 6608W        W78334   6.326  42.804   1.657
 6609W        W78335  44.864  17.709   2.732
 6610W        W78336  18.334  14.213   1.040
 6611W        W78337  37.485  10.283  14.148
 6612W        W78338  40.715  27.518   1.964
 6613W        W78339  40.041  39.133   0.850
 6614W        W78340  31.030  22.452  14.787
 6615W        W78341  23.120  40.520  13.029
 6616W        W78342  11.161   8.114  12.039
 6617W        W78343  28.450  43.133  10.047
 6618W        W78344  26.448  40.298   3.664
 6619W        W78345  31.115  44.470  14.628
 6620W        W78346  41.826  42.855   3.091
 6621W        W78347  31.441  28.113   4.573
 6622W        W78348  36.380   9.498  12.187
 6623W        W78349  33.369  21.203   2.163
 6624W        W78350  19.985   3.831  13.494
 6625W        W78351  33.434  25.550  13.429
 6626W        W78352   8.269  13.839   1.946
 6627W        W78353   6.852   7.849  13.543
 6628W        W78354  11.260  23.791  12.005
 6629W        W78355   5.849  21.461   0.463
 6630W        W78356  17.079   5.164  13.868
 6631W        W78357  31.908  21.489   4.914
 6632W        W78358  24.531  23.572   4.478
 6633W        W78359  33.663  28.105   1.237
 6634W        W78360  20.442   1.912  12.099
 6635W        W78361  44.894  36.099   2.301
 6636W        W78362   4.936  27.587  12.524
 6637W        W78363  18.967  36.398   3.286
 6638W        W78364   9.334  14.367   2.169
 6639W        W78365  13.141  35.434  11.147
 6640W        W78366   9.121  25.097   0.780
 6641W        W78367  15.276  24.340  10.938
 6642W        W78368  28.287   8.183   3.628
 6643W        W78369   0.718  27.002   2.398
 6644W        W78370  44.941  17.164  12.669
 6645W        W78371  24.190  16.771  11.356
 6646W        W78372  10.861  13.606  11.215
 6647W        W78373  18.282  18.730  12.648
 6648W        W78374  35.417   4.739  12.444
 6649W        W78375  43.452  32.014  11.842
 6650W        W78376  43.737  39.882   3.570
 6651W        W78377  15.007  37.584   1.640
 6652W        W78378  22.712  23.509   1.270
 6653W        W78379  27.037  16.212  12.593
 6654W        W78380  18.257  21.050   1.254
 6655W        W78381  14.653  22.999  11.004
 6656W        W78382  42.506   7.493   2.713
 6657W        W78383  27.080  38.071   1.637
 6658W        W78384  43.329  24.149   1.367
 6659W        W78385  16.277  41.428   2.465
 6660W        W78386   2.776  41.025  12.997
 6661W        W78387  29.106  17.454  12.333
 6662W        W78388   0.530   5.839  13.961
 6663W        W78389   9.124  17.127   1.647
 6664W        W78390   5.278  27.391  12.192
 6665W        W78391  40.009  39.917   0.409
 6666W        W78392   4.740  29.985   2.629
 6667W        W78393  26.486  32.941  13.390
 6668W        W78394  26.953  16.351  13.114
 6669W        W78395  11.137  43.392  13.432
 6670W        W78396  38.893  34.926   3.157
 6671W        W78397  30.009   2.708   0.372
 6672W        W78398  18.666  26.574   0.205
 6673W        W78399   8.172   8.719  13.112
 6674W        W78400   9.831  18.665   2.303
 6675W        W78401  24.696  22.768   1.437
 6676W        W78402  39.277   0.135   4.867
 6677W        W78403   0.389  18.227   2.580
 6678W        W78404   3.850  20.974   3.417
 6679W        W78405  20.070  30.653   1.212
 6680W        W78406  17.680  34.394   0.811
 6681W        W78407  43.468  44.356   3.765
 6682W        W78408  31.064  25.744  13.367
 6683W        W78409  32.586  32.168   5.049
 6684W        W78410  12.861  21.982   1.334
 6685W        W78411  24.740  19.816   1.919
 6686W        W78412  21.489  22.492   1.398
 6687W        W78413  10.370   5.444  12.932
 6688W        W78414  37.354  34.297  14.013
 6689W        W78415  35.314  13.342   2.859
 6690W        W78416   4.247  31.452   4.682
 6691W        W78417  12.644  41.015   1.431
 6692W        W78418   7.522   2.355   4.036
 6693W        W78419  27.357  37.315  11.915
 6694W        W78420  37.788   3.711  14.748
 6695W        W78421  14.189   5.363  12.184
 6696W        W78422  39.878  43.233   2.424
 6697W        W78423  13.060  27.712  11.621
 6698W        W78424  12.650  12.674  13.140
 6699W        W78425  39.260  10.413  13.534
 6700W        W78426  18.692  18.496  12.947
 6701W        W78427  34.583  15.153  11.808
 6702W        W78428  38.533  43.466   3.808
 6703W        W78429  16.850   5.213  11.613
 6704W        W78430  20.283  15.246   4.716
 6705W        W78431  40.088   4.896  13.437
 6706W        W78432  33.980  24.379  11.275
 6707W        W78433   8.229  40.338  14.658
 6708W        W78434  11.348   9.550  13.253
 6709W        W78435   6.501  25.874   1.686
 6710W        W78436  30.129   7.469   2.157
 6711W        W78437  37.023  28.709   1.291
 6712W        W78438  28.190  10.698  14.855
 6713W        W78439  34.073  22.514   3.776
 6714W        W78440  32.827   4.442  14.893
 6715W        W78441  10.650  21.275   1.306
 6716W        W78442   2.780  12.269  12.155
 6717W        W78443  22.346   6.301   3.213
 6718W        W78444  12.506  43.252   3.860
 6719W        W78445  35.310   2.038   3.233
 6720W        W78446   8.806  30.918  11.685
 6721W        W78447  43.568   8.148   0.789
 6722W        W78448  36.348  21.445  14.217
 6723W        W78449   4.024   6.304  12.395
 6724W        W78450   3.946  40.861  10.671
 6725W        W78451  19.418  10.087  12.740
 6726W        W78452   7.274   3.664  14.806
 6727W        W78453  19.142  31.061  11.747
 6728W        W78454  23.612  42.995   3.852
 6729W        W78455  33.835  34.140   3.279
 6730W        W78456   7.172  41.525   3.770
 6731W        W78457  38.961   8.591  10.303
 6732W        W78458  18.663  39.294   1.879
 6733W        W78459  28.282  43.090  13.927
 6734W        W78460   5.126  17.985  13.534
 6735W        W78461  37.927  39.075  12.496
 6736W        W78462   6.206  33.686  12.089
 6737W        W78463  14.237  18.778  14.440
 6738W        W78464   8.139  34.089  11.233
 6739W        W78465  32.497   0.295  14.540
 6740W        W78466  44.317   4.850   5.100
 6741W        W78467   3.708   1.437  14.392
 6742W        W78468   7.875  35.493  10.741
 6743W        W78469  20.461   4.869   0.738
 6744W        W78470   0.104  23.686  13.854
 6745W        W78471  25.780  30.581  11.516
 6746W        W78472   7.199  23.301   3.137
 6747W        W78473  31.094  44.271   3.313
 6748W        W78474  40.276  25.783   0.814
 6749W        W78475  42.828  20.135   3.050
 6750W        W78476  13.577  42.476  14.789
 6751W        W78477   3.917  19.846  10.846
 6752W        W78478   1.970  13.344  11.976
 6753W        W78479  42.157  16.303   4.249
 6754W        W78480  18.085  24.354  13.308
 6755W        W78481  13.926  44.736   0.199
 6756W        W78482  19.528  38.799  13.753
 6757W        W78483   1.914  32.610   0.952
 6758W        W78484   0.735  43.443   3.974
 6759W        W78485  30.249  41.446   1.757
 6760W        W78486   7.737  17.731  14.345
 6761W        W78487  36.612   7.829   1.212
 6762W        W78488   1.443  43.450  12.385
 6763W        W78489  30.000  13.786   1.306
 6764W        W78490   7.122   2.326  11.977
 6765W        W78491  32.424  43.224  12.888
 6766W        W78492  38.054  35.613  12.638
 6767W        W78493  31.089  12.688   4.708
 6768W        W78494   3.080  23.135  12.120
 6769W        W78495  43.702  25.969   0.880
 6770W        W78496  12.609  22.553  12.791
 6771W        W78497   9.144  39.852   2.803
 6772W        W78498  26.340   5.413   2.624
 6773W        W78499  34.218  26.511   1.934
 6774W        W78500  11.542  35.572   0.455
 6775W        W78501  14.505   3.396  12.368
 6776W        W78502  17.606  22.863   0.322
 6777W        W78503  19.598  22.513   4.110
 6778W        W78504   6.280  40.773   4.795
 6779W        W78505  12.187  33.420   3.624
 6780W        W78506  11.405  35.041   2.647
 6781W        W78507  18.773  24.004   2.921
 6782W        W78508  18.742  12.862   2.213
 6783W        W78509  44.946  41.381   3.272
 6784W        W78510  36.208  42.079   0.803
 6785W        W78511  36.573  30.124   1.702
 6786W        W78512  19.366  11.044   3.762
 6787W        W78513   7.301  36.484   2.573
 6788W        W78514  34.546  39.517   0.790
 6789W        W78515  19.149  31.946   3.223
 6790W        W78516  18.767  17.124   2.825
 6791W        W78517  11.433  37.789   3.381
 6792W        W78518  31.498  20.719   1.464
 6793W        W78519  13.149  26.690   4.552
 6794W        W78520  36.545  10.465  14.005
 6795W        W78521   5.331  14.609  10.231
 6796W        W78522  18.244  20.540   1.352
 6797W        W78523  44.584  33.029  11.917
 6798W        W78524   5.449   9.913  12.673
 6799W        W78525  21.259  40.334  13.785
 6800W        W78526  31.505  19.473   0.041
 6801W        W78527  25.029  25.178  11.118
 6802W        W78528   6.654  21.104   0.306
 6803W        W78529  35.395  13.156  12.586
 6804W        W78530   1.469  44.512  13.942
 6805W        W78531  17.648  40.489  10.081
 6806W        W78532  28.820  11.794  10.771
 6807W        W78533  19.164  36.330  12.421
 6808W        W78534  29.589  29.944   3.448
 6809W        W78535  25.130  25.669   4.570
 6810W        W78536  39.456  30.681  12.906
 6811W        W78537  20.040  24.642  14.452
 6812W        W78538  41.414  14.917  12.374
 6813W        W78539  15.354  10.219   0.860
 6814W        W78540  14.532  13.841   0.950
 6815W        W78541  25.524  30.352  11.143
 6816W        W78542   7.604  44.230  11.276
 6817W        W78543   1.325  26.106   0.256
 6818W        W78544  28.976  38.528  11.568
 6819W        W78545  16.212  32.016  10.692
 6820W        W78546  43.183  22.349  13.005
 6821W        W78547  40.968  14.257   0.862
 6822W        W78548  12.673   5.195  14.936
 6823W        W78549  21.977  28.876   0.850
 6824W        W78550   4.510  11.301  11.148
 6825W        W78551   9.852  10.261   3.706
 6826W        W78552  22.337   6.911  14.288
 6827W        W78553  38.782  33.629   2.226
 6828W        W78554  42.984  41.970   1.365
 6829W        W78555  24.680  25.244  12.123
 6830W        W78556   7.633   9.827  13.823
 6831W        W78557   9.495  15.963   2.432
 6832W        W78558  33.774  43.738   0.913
 6833W        W78559  15.741   7.765   4.241
 6834W        W78560  26.699  23.672  10.401
 6835W        W78561  34.753  36.477  11.182
 6836W        W78562  29.298  12.621   1.331
 6837W        W78563   1.374  31.964  14.325
 6838W        W78564  23.991  17.306   0.967
 6839W        W78565  42.992  25.051  10.410
 6840W        W78566  41.802  11.391  11.466
 6841W        W78567   7.124  28.027  14.946
 6842W        W78568  14.576  25.025   0.813
 6843W        W78569  39.255  28.876   1.669
 6844W        W78570   8.439  13.894   3.840
 6845W        W78571  35.723  19.751   0.155
 6846W        W78572  14.575  22.674   3.760
 6847W        W78573  43.436  33.021  13.206
 6848W        W78574  24.741  18.480   1.098
 6849W        W78575  12.004  27.225   4.218
 6850W        W78576  26.138  37.080  14.289
 6851W        W78577  41.504  41.005   4.204
 6852W        W78578  33.807   3.840  13.513
 6853W        W78579  38.338  40.051  10.442
 6854W        W78580  21.758  22.550  13.051
 6855W        W78581  24.491  33.650   0.501
 6856W        W78582  19.137  11.336   2.840
 6857W        W78583  40.961   9.103  11.142
 6858W        W78584  30.812  36.883   0.930
 6859W        W78585   1.908  15.588   3.740
 6860W        W78586  43.824  21.644   1.177
 6861W        W78587  16.581  42.447  13.784
 6862W        W78588  44.883  18.553   3.131
 6863W        W78589  21.685  15.222  13.346
 6864W        W78590  29.872  20.046  13.945
 6865W        W78591  36.829  25.627   3.082
 6866W        W78592  41.348  42.962  12.028
 6867W        W78593  26.556  43.286   0.012
 6868W        W78594  42.769   2.913   2.772
 6869W        W78595  30.549  21.657  13.729
 6870W        W78596  20.244  17.910  14.445
 6871W        W78597  32.663  43.247   2.395
 6872W        W78598   9.982   5.189   3.429
 6873W        W78599  32.621  11.615   0.959
 6874W        W78600  27.619  34.979  12.219
 6875W        W78601  40.859  29.528   3.547
 6876W        W78602   7.304  39.303   3.288
 6877W        W78603  16.803  13.812   0.493
 6878W        W78604  30.608  44.764   1.935
 6879W        W78605  29.442  14.256  10.804
 6880W        W78606   0.853  19.954   0.332
 6881W        W78607  36.186  11.328   0.342
 6882W        W78608   4.468  13.388   3.385
 6883W        W78609  25.273  29.899  13.931
 6884W        W78610   6.193  21.702  11.089
 6885W        W78611  15.869  15.823   0.027
 6886W        W78612   2.446  16.736  11.433
 6887W        W78613  38.797  34.644  10.628
 6888W        W78614   3.758  30.354  12.375
 6889W        W78615  11.292  10.447  14.965
 6890W        W78616  12.367  17.340  12.132
 6891W        W78617  19.991  42.467  11.456
 6892W        W78618  39.665  43.538   0.642
 6893W        W78619   5.779   4.294   3.179
 6894W        W78620   2.172  23.084  10.664
 6895W        W78621  24.495  38.525   3.279
 6896W        W78622  25.874  40.229   2.778
 6897W        W78623  24.919  12.063  12.348
 6898W        W78624   1.713  41.496   3.656
 6899W        W78625  22.840  14.916   9.893
 6900W        W78626  21.492  34.645   2.670
 6901W        W78627  30.196  21.011  13.446
 6902W        W78628   3.343  27.620  13.389
 6903W        W78629  17.483  11.488  13.494
 6904W        W78630  13.911  22.324   3.304
 6905W        W78631  21.062   1.793  14.061
 6906W        W78632  38.456   1.284  10.781
 6907W        W78633  19.531  37.599  12.998
 6908W        W78634   8.402  27.990  12.514
 6909W        W78635  32.048  17.376  13.900
 6910W        W78636  30.444  29.507  11.620
 6911W        W78637  33.653  24.222   2.411
 6912W        W78638   5.982  27.078   3.781
 6913W        W78639  27.817  44.259  10.148
 6914W        W78640   1.409  34.017  12.832
 6915W        W78641  16.329  44.426  13.088
 6916W        W78642  15.308  27.553  10.646
 6917W        W78643  10.265   8.907  14.930
 6918W        W78644  43.001  31.775  11.559
 6919W        W78645  38.714  13.970   0.402
 6920W        W78646  27.528  44.405  12.884
 6921W        W78647  18.487   1.265  12.539
 6922W        W78648  22.542  40.560  11.657
 6923W        W78649  43.863  32.404   0.799
 6924W        W78650  24.828  44.020  14.511
 6925W        W78651  31.337  36.805  14.500
 6926W        W78652  39.504  22.015  11.938
 6927W        W78653   5.814   9.759   0.850
 6928W        W78654  34.174  40.299  13.454
 6929W        W78655  44.434   1.245   3.117
 6930W        W78656  42.883  19.766   2.187
 6931W        W78657  31.622  27.365  12.723
 6932W        W78658   2.399  19.243   2.198
 6933W        W78659  14.274  32.189  11.106
 6934W        W78660  11.765  16.040   2.861
 6935W        W78661   1.453  42.857   4.912
 6936W        W78662   6.690  42.528  14.490
 6937W        W78663  33.679  31.393   2.339
 6938W        W78664  14.788  17.757   1.790
 6939W        W78665  20.353   8.219   0.860
 6940W        W78666  35.162  30.623  13.782
 6941W        W78667  18.382  11.583  13.886
 6942W        W78668  17.014  17.250  11.874
 6943W        W78669  15.402  37.830   5.023
 6944W        W78670  42.316  21.529   0.312
 6945W        W78671  44.049  42.971   1.793
 6946W        W78672  15.022  32.878   2.940
 6947W        W78673   2.149  10.700   2.362
 6948W        W78674  33.184  25.191  12.410
 6949W        W78675   0.228  24.252  13.065
 6950W        W78676  32.327   9.268  12.314
 6951W        W78677   2.651  24.540  13.311
 6952W        W78678  41.043   0.411  11.590
 6953W        W78679  22.779  16.651   2.699
 6954W        W78680  31.578  40.226   2.835
 6955W        W78681  35.975   0.484  14.076
 6956W        W78682   0.853  18.279  13.066
 6957W        W78683  37.975  36.444   3.555
 6958W        W78684  41.102  23.716  14.417
 6959W        W78685  42.091  20.960  13.588
 6960W        W78686  42.216  37.776  13.940
 6961W        W78687  34.453  30.881   2.802
 6962W        W78688  37.935  16.120  12.997
 6963W        W78689  33.650  27.027  14.394
 6964W        W78690  32.525  25.671   9.896
 6965W        W78691  44.994   0.918   1.249
 6966W        W78692  11.110   1.418  12.470
 6967W        W78693  38.381   9.191  10.627
 6968W        W78694  11.398  33.889  10.676
 6969W        W78695  27.888  14.685   1.938
 6970W        W78696  19.617  14.854  10.784
 6971W        W78697  33.709   9.743  10.552
 6972W        W78698  35.000  25.660  12.445
 6973W        W78699  26.127   1.368  10.918
 6974W        W78700   9.254  16.633  11.500
 6975W        W78701  41.305   2.742   0.966
 6976W        W78702  30.284  38.069  14.947
 6977W        W78703   7.178  17.354   3.565
 6978W        W78704  23.524  21.332   3.822
 6979W        W78705   1.360  34.586  13.790
 6980W        W78706  28.526  44.022  11.547
 6981W        W78707  40.421  12.117  10.156
 6982W        W78708  44.372  30.929   0.858
 6983W        W78709   5.995   9.615   0.377
 6984W        W78710   3.682   0.368   1.662
 6985W        W78711   0.220   2.331  10.943
 6986W        W78712  17.105  11.058  11.526
 6987W        W78713  13.190   1.699   1.206
 6988W        W78714  38.542  35.383  11.242
 6989W        W78715  32.643  24.419  10.454
 6990W        W78716  23.382  17.354   0.199
 6991W        W78717  39.833   6.227  14.340
 6992W        W78718  17.068   2.218  13.944
 6993W        W78719   8.163  22.550  13.388
 6994W        W78720  30.187  43.509  12.333
 6995W        W78721  10.855  29.643   3.091
 6996W        W78722  43.495  30.415   3.239
 6997W        W78723  43.551   9.352  12.588
 6998W        W78724   4.196  35.640  13.038
 6999W        W78725  24.735  24.204  12.951
 7000W        W78726  18.070  17.258  12.797
 7001W        W78727  12.286  31.606   4.283
 7002W        W78728  39.974  19.568   4.157
 7003W        W78729  11.104  15.507  13.912
 7004W        W78730  41.059  22.941   1.678
 7005W        W78731   7.025  36.427   0.684
 7006W        W78732  38.985  24.850  11.506
 7007W        W78733  33.164  26.917  14.271
 7008W        W78734  16.227   0.541  12.889
 7009W        W78735  19.308  42.922   0.287
 7010W        W78736   3.651  17.695   4.219
 7011W        W78737  20.450  39.852  11.148
 7012W        W78738  10.235   2.789   4.634
 7013W        W78739  38.399  24.949   0.655
 7014W        W78740   0.329  21.514   4.105
 7015W        W78741  17.018  31.139   2.952
 7016W        W78742  11.618  15.267   2.339
 7017W        W78743   2.112  37.874   1.407
 7018W        W78744  30.246  44.759   3.186
 7019W        W78745  30.056  19.241   4.706
 7020W        W78746   5.694  42.723  12.369
 7021W        W78747  28.943  15.399   4.763
 7022W        W78748  34.118  15.039  11.625
 7023W        W78749  11.868  26.439  11.734
 7024W        W78750  33.237  39.918   3.714
 7025W        W78751  22.001  42.754  13.097
 7026W        W78752   7.307   5.310  14.551
 7027W        W78753  20.552  39.040   0.330
 7028W        W78754   4.860  27.486  14.962
 7029W        W78755   1.633  37.349  11.962
 7030W        W78756  14.302  15.216   2.018
 7031W        W78757  37.762   9.627   1.781
 7032W        W78758   2.349  31.072   4.664
 7033W        W78759  32.812  23.629   1.000
 7034W        W78760  38.269  16.213   0.645
 7035W        W78761   9.226  40.769  14.804
 7036W        W78762  43.311  39.491   3.697
 7037W        W78763  29.797  22.027  13.548
 7038W        W78764  35.640  27.162  13.521
 7039W        W78765  35.357  19.144  12.558
 7040W        W78766  24.579  13.755   4.811
 7041W        W78767  38.274  32.524   1.166
 7042W        W78768  43.456  34.112  14.569
 7043W        W78769   5.588  25.487  11.113
 7044W        W78770  30.655  20.947  12.990
 7045W        W78771  14.215  21.091   0.710
 7046W        W78772  36.545  43.338   3.417
 7047W        W78773  28.128  40.849  13.419
 7048W        W78774  25.358  38.349   1.299
 7049W        W78775  13.923   7.990   4.505
 7050W        W78776   3.913  31.669   0.794
 7051W        W78777   3.820  16.784   0.096
 7052W        W78778  26.928  16.051  14.107
 7053W        W78779   8.641  11.881  11.519
 7054W        W78780  19.714  38.471  12.511
 7055W        W78781  24.197  40.304   0.653
 7056W        W78782  24.539  30.043  12.767
 7057W        W78783  13.165  33.448   2.533
 7058W        W78784  19.124  28.127   3.229
 7059W        W78785  38.627  43.497  11.163
 7060W        W78786  29.665   2.063  12.074
 7061W        W78787   1.861  26.098  11.665
 7062W        W78788   8.278  25.987   1.901
 7063W        W78789  12.727  44.665   2.676
 7064W        W78790  33.626  38.644  12.452
 7065W        W78791  44.530  16.261  14.164
 7066W        W78792  14.223  41.469  12.692
 7067W        W78793   6.614  22.612   3.203
 7068W        W78794  20.021  31.843   1.816
 7069W        W78795  27.129  24.611   1.335
 7070W        W78796  19.711   0.498  10.364
 7071W        W78797  40.005  12.444   1.224
 7072W        W78798   3.256   1.017   5.160
 7073W        W78799  26.236  34.553  12.697
 7074W        W78800  19.608  42.833  14.841
 7075W        W78801   6.143  44.810  13.577
 7076W        W78802  20.143   9.695   0.783
 7077W        W78803   6.874  17.805   0.283
 7078W        W78804  18.616  37.399  14.557
 7079W        W78805  25.112  41.539  11.045
 7080W        W78806  26.865  14.670   1.407
 7081W        W78807   6.766   0.017   3.377
 7082W        W78808  34.815  38.997   3.922
 7083W        W78809  10.057  34.538   3.174
 7084W        W78810  36.465  31.549   1.292
 7085W        W78811  13.584  43.362  13.543
 7086W        W78812  39.981  17.469   0.911
 7087W        W78813  42.652  41.342  11.616
 7088W        W78814  18.661  42.559  10.918
 7089W        W78815  41.510  32.546   3.580
 7090W        W78816  20.177   8.680  11.531
 7091W        W78817  14.871  38.670  10.245
 7092W        W78818  40.812  21.554   4.816
 7093W        W78819  19.012  42.522  14.040
 7094W        W78820  11.873  27.308   0.990
 7095W        W78821   6.044   6.899  12.928
 7096W        W78822  26.252   0.847   4.298
 7097W        W78823  13.041  28.079   3.335
 7098W        W78824  34.131   2.286   1.827
 7099W        W78825  15.821  19.079   2.592
 7100W        W78826  29.563  15.958   3.909
 7101W        W78827  12.698  15.671  14.280
 7102W        W78828  27.510  30.046  12.468
 7103W        W78829  23.271  22.575   1.887
 7104W        W78830  41.033  21.152   4.573
 7105W        W78831  29.779  20.252  12.158
 7106W        W78832  14.741   0.840   5.094
 7107W        W78833  30.756  37.874  14.983
 7108W        W78834  41.386  20.553  12.546
 7109W        W78835  33.024  11.734   0.304
 7110W        W78836  30.990  30.319   0.709
 7111W        W78837   4.710  17.379  12.901
 7112W        W78838  11.802  37.088  11.189
 7113W        W78839  28.073  28.320  14.851
 7114W        W78840   9.245   1.831   0.898
 7115W        W78841  35.625  15.520  12.080
 7116W        W78842  34.083   0.010  13.567
 7117W        W78843  22.991   5.888   0.859
 7118W        W78844  34.474  24.775   1.650
 7119W        W78845  40.659  14.661  10.756
 7120W        W78846  39.094  19.058  10.748
 7121W        W78847   6.381  15.059   3.289
 7122W        W78848  41.896  32.642  12.637
 7123W        W78849   4.223  11.434   4.432
 7124W        W78850  16.357  41.319  13.402
 7125W        W78851   6.310  40.757   3.156
 7126W        W78852  44.791  36.192   1.372
 7127W        W78853  18.632   3.741  12.667
 7128W        W78854  37.807  16.540  13.964
 7129W        W78855  44.744   0.448   3.837
 7130W        W78856  25.938   7.725   4.870
 7131W        W78857  20.098  14.051   2.810
 7132W        W78858  25.578  38.940   3.336
 7133W        W78859  25.137  18.174  11.503
 7134W        W78860  36.129  32.616   3.660
 7135W        W78861  35.363  32.309  11.964
 7136W        W78862  12.747  25.519  14.277
 7137W        W78863  20.570  29.868   2.778
 7138W        W78864  19.083  26.900   0.212
 7139W        W78865  22.501  34.893   0.479
 7140W        W78866  36.054  14.958  13.370
 7141W        W78867  31.906   2.666  11.012
 7142W        W78868  38.254  27.467   1.655
 7143W        W78869  44.896  25.867   2.530
 7144W        W78870  14.017  30.444   1.764
 7145W        W78871  34.900  37.977  10.528
 7146W        W78872  38.953  12.843   3.545
 7147W        W78873  10.759  34.536   4.204
 7148W        W78874  41.469  36.985  14.080
 7149W        W78875  44.755  31.124  10.396
 7150W        W78876  23.693   8.967  14.692
 7151W        W78877  11.330  25.624  11.328
 7152W        W78878  20.077  36.604  12.904
 7153W        W78879  37.624   0.495  11.608
 7154W        W78880  38.789   5.223  12.988
 7155W        W78881  23.547  21.671  14.854
 7156W        W78882   1.064   8.886  10.737
 7157W        W78883  30.977  24.092   0.318
 7158W        W78884   3.930  16.167   1.247
 7159W        W78885  16.164  19.023   4.511
 7160W        W78886  27.704  16.158  11.120
 7161W        W78887  43.441   9.177   3.207
 7162W        W78888   1.357  28.015   4.070
 7163W        W78889   4.803   6.809  11.298
 7164W        W78890  32.004  23.942   2.979
 7165W        W78891  33.943  43.820  14.432
 7166W        W78892  23.759  21.040   4.771
 7167W        W78893  33.616  26.136   4.259
 7168W        W78894  17.113  36.971  12.508
 7169W        W78895   1.717  44.247  14.382
 7170W        W78896  40.409  30.832   3.766
 7171W        W78897  15.242  42.863   1.910
 7172W        W78898  28.143   4.029  11.862
 7173W        W78899   4.828  41.238   2.861
 7174W        W78900  29.101  14.891   3.004
 7175W        W78901  21.508  33.739   1.827
 7176W        W78902  37.130  37.910  10.563
 7177W        W78903   2.599  23.212  12.997
 7178W        W78904  23.019  27.250   0.717
 7179W        W78905  15.397   0.034   3.264
 7180W        W78906  20.840  28.100   3.594
 7181W        W78907  14.708  11.809   4.652
 7182W        W78908   4.084  42.199  13.216
 7183W        W78909   2.649  32.951   0.914
 7184W        W78910   9.105  22.697   1.053
 7185W        W78911   5.375  36.015   0.551
 7186W        W78912   4.452   4.614   4.667
 7187W        W78913   6.119  20.585  10.618
 7188W        W78914  17.954  20.622   3.897
 7189W        W78915  22.161   9.183   3.209
 7190W        W78916  34.255  22.279   2.837
 7191W        W78917  20.314  36.463  13.375
 7192W        W78918  43.323  27.460  13.577
 7193W        W78919  32.747  26.002  13.339
 7194W        W78920  32.690  35.050   0.040
 7195W        W78921  42.670  18.804   2.820
 7196W        W78922   1.788   1.468  11.830
 7197W        W78923  19.284  42.897  12.853
 7198W        W78924  41.626  16.411   2.280
 7199W        W78925  24.045  43.301  14.448
 7200W        W78926  37.544  29.092   2.691
 7201W        W78927  29.416   5.369   3.071
 7202W        W78928  18.205  10.166  13.524
 7203W        W78929  31.692  40.022  14.798
 7204W        W78930   9.282  39.091  13.383
 7205W        W78931  38.693  14.251   3.795
 7206W        W78932   4.698  13.763  12.838
 7207W        W78933  23.015  40.270  12.570
 7208W        W78934  39.108  28.666   3.212
 7209W        W78935  23.470  20.071  12.950
 7210W        W78936  10.709  22.120   3.590
 7211W        W78937  14.770  34.335  10.569
 7212W        W78938  29.075  17.303   0.799
 7213W        W78939  25.321  31.091   2.948
 7214W        W78940   3.692  38.735   3.639
 7215W        W78941  16.812   2.922   0.327
 7216W        W78942  22.169  41.450  12.025
 7217W        W78943  18.633   4.006  13.985
 7218W        W78944   5.704  40.909  11.280
 7219W        W78945  19.622  40.880  13.310
 7220W        W78946   1.300  16.261  11.336
 7221W        W78947  22.055  26.660  13.452
 7222W        W78948   7.863   9.133   1.764
 7223W        W78949  19.036  42.330  10.658
 7224W        W78950   9.390  29.316   4.575
 7225W        W78951  40.595  24.296   0.882
 7226W        W78952  39.509   0.384  13.865
 7227W        W78953  14.703  29.008  12.648
 7228W        W78954  32.519  22.549   3.949
 7229W        W78955  35.939  42.947   3.995
 7230W        W78956   4.013  38.775  12.046
 7231W        W78957  42.446  20.076   4.366
 7232W        W78958   6.136  29.212   2.298
 7233W        W78959  32.265  18.253   0.037
 7234W        W78960  26.482  33.391   2.936
 7235W        W78961   0.528  30.025   2.672
 7236W        W78962  34.623   8.634   4.858
 7237W        W78963  44.599  18.384  11.613
 7238W        W78964  12.754  28.165  11.635
 7239W        W78965  28.828  25.066  13.008
 7240W        W78966  39.788  28.116  13.927
 7241W        W78967   2.635  34.394  13.023
 7242W        W78968   5.041   6.852  10.278
 7243W        W78969  11.497  28.510  12.019
 7244W        W78970  23.683  34.502   4.110
 7245W        W78971  10.878  37.928  12.488
 7246W        W78972   4.930  22.035  12.028
 7247W        W78973  21.967  30.480  12.079
 7248W        W78974  15.135  18.504  13.885
 7249W        W78975   4.481  12.685   1.062
 7250W        W78976   9.184  36.133  10.320
 7251W        W78977  38.005  38.071  12.627
 7252W        W78978  17.187  30.704  12.904
 7253W        W78979   8.400  12.707   3.171
 7254W        W78980   8.223  31.692   2.460
 7255W        W78981  42.288   2.948  10.760
 7256W        W78982  32.166  10.287  11.515
 7257W        W78983   5.792   8.821  10.911
 7258W        W78984   2.214   5.773   1.003
 7259W        W78985  26.080  15.565  11.565
 7260W        W78986  19.955  23.823   2.696
 7261W        W78987   9.751   3.440   2.326
 7262W        W78988  14.358  38.337  11.149
 7263W        W78989   6.482  11.436  12.499
 7264W        W78990  44.768   1.250  13.849
 7265W        W78991  15.580  35.804   1.859
 7266W        W78992  10.319  15.107   3.178
 7267W        W78993   9.232  17.615  12.493
 7268W        W78994   8.872  22.009  13.227
 7269W        W78995  12.045  21.744   2.277
 7270W        W78996  42.348   1.246   2.258
 7271W        W78997  11.803   4.673   1.229
 7272W        W78998  34.618  34.040   3.697
 7273W        W78999  38.090   5.441  13.559
 7274W        W79000  40.801  16.508  14.763
 7275W        W79001  17.058   7.943  13.569
 7276W        W79002  33.004  44.601   3.586
 7277W        W79003   7.232  39.351  13.692
 7278W        W79004  18.962  15.600   0.467
 7279W        W79005   9.394  33.732   3.457
 7280W        W79006  17.779  36.520  12.642
 7281W        W79007  29.650  37.017  10.748
 7282W        W79008  43.980  44.854  13.509
 7283W        W79009  26.997  43.459   2.190
 7284W        W79010  28.307  32.201  13.505
 7285W        W79011   3.176  27.015   1.192
 7286W        W79012  11.135  18.032  12.011
 7287W        W79013  12.099  24.613   3.827
 7288W        W79014  25.982  13.861  12.086
 7289W        W79015  42.943  18.163  10.468
 7290W        W79016  10.350  17.257   2.814
 7291W        W79017   8.420  21.192  11.448
 7292W        W79018  41.549  30.209   4.014
 7293W        W79019  32.202  22.462  12.061
 7294W        W79020  10.993  21.146  11.849
 7295W        W79021   7.222  18.267   0.831
 7296W        W79022  37.659   4.222   3.925
 7297W        W79023  25.277  26.606   0.302
 7298W        W79024  35.599  25.538   2.649
 7299W        W79025   8.314  17.628   1.020
 7300W        W79026   7.342  31.249   2.329
 7301W        W79027  41.918  31.269   1.238
 7302W        W79028   7.934  39.535  11.108
 7303W        W79029   2.483  19.959  14.500
 7304W        W79030  22.243  26.539   0.346
 7305W        W79031  11.850  23.468   4.624
 7306W        W79032  29.610   1.969  11.174
 7307W        W79033  33.330   4.904  10.692
 7308W        W79034   1.281  28.373  12.520
 7309W        W79035  26.645   1.000   3.987
 7310W        W79036  17.558  12.917   0.610
 7311W        W79037  21.008  30.417  12.672
 7312W        W79038  41.049  34.078  12.453
 7313W        W79039   9.734  18.990  11.641
 7314W        W79040  17.182  40.843   4.923
 7315W        W79041  30.532  10.210  10.698
 7316W        W79042  41.085  16.757  10.830
 7317W        W79043  13.127  11.889   4.284
 7318W        W79044  19.028  26.456   3.310
 7319W        W79045  28.534   2.008  11.431
 7320W        W79046  13.089  38.808   0.383
 7321W        W79047  10.740   2.431   2.193
 7322W        W79048   6.498   7.160  14.848
 7323W        W79049  25.600  27.012   0.037
 7324W        W79050  27.315  34.512   0.700
 7325W        W79051  31.670   4.597   2.328
 7326W        W79052  34.447  28.189   0.950
 7327W        W79053  28.705  19.650  10.598
 7328W        W79054  37.576  44.866   1.948
 7329W        W79055  17.742  37.802  10.702
 7330W        W79056   4.440  28.901  11.133
 7331W        W79057  19.707   2.301  10.790
 7332W        W79058  41.455  19.779   3.200
 7333W        W79059  13.543  44.423   0.833
 7334W        W79060  24.063  13.378   0.885
 7335W        W79061  10.922  43.933   1.131
 7336W        W79062   8.882  41.348  11.547
 7337W        W79063  13.609  26.210  12.534
 7338W        W79064  18.582  22.499   3.586
 7339W        W79065  34.991  21.007  10.904
 7340W        W79066  11.326  23.577  12.525
 7341W        W79067  41.444   3.200   3.749
 7342W        W79068  17.758  41.357   3.437
 7343W        W79069  27.446  23.145   0.367
 7344W        W79070  26.538  31.377  10.751
 7345W        W79071  38.962  17.044   1.185
 7346W        W79072  32.130  11.225  13.485
 7347W        W79073  12.788  20.208   0.886
 7348W        W79074  19.606   2.193   1.170
 7349W        W79075  38.945  23.437   2.629
 7350W        W79076  37.196   1.306   3.346
 7351W        W79077  35.717  22.888   3.268
 7352W        W79078  41.020  25.262   0.841
 7353W        W79079  33.941  31.886  14.204
 7354W        W79080  18.749  43.857  12.653
 7355W        W79081  24.687   9.849   4.517
 7356W        W79082  44.203  29.768   0.268
 7357W        W79083  40.849   6.790   1.640
 7358W        W79084  10.066  22.125  12.725
 7359W        W79085  37.189  12.216   4.178
 7360W        W79086  28.095  44.119   2.431
 7361W        W79087  40.574  14.225   3.275
 7362W        W79088  34.062   4.686  13.145
 7363W        W79089  18.710  10.922  13.354
 7364W        W79090  15.028  43.073  12.009
 7365W        W79091  21.454  41.608  14.365
 7366W        W79092  40.902  39.740   2.619
 7367W        W79093   3.836   4.701  13.952
 7368W        W79094   6.554  19.504   4.983
 7369W        W79095  14.542  26.107  13.986
 7370W        W79096  38.934  44.006   1.816
 7371W        W79097  21.150  42.732  14.038
 7372W        W79098  19.491   0.887  12.637
 7373W        W79099  13.912  21.714  14.976
 7374W        W79100   5.301  36.417   2.187
 7375W        W79101  32.516  11.823   3.773
 7376W        W79102  15.243  31.739   0.434
 7377W        W79103  30.646   0.799  11.061
 7378W        W79104  21.564  33.941  10.691
 7379W        W79105  17.050  12.371   2.049
 7380W        W79106  12.821   6.303  12.897
 7381W        W79107   7.319  30.976   0.155
 7382W        W79108  37.275  24.176  14.505
 7383W        W79109  35.112   0.099  12.371
 7384W        W79110  10.416  36.289   2.612
 7385W        W79111  17.622  22.445   3.832
 7386W        W79112  21.578  36.085   2.668
 7387W        W79113  35.229  18.131  14.376
 7388W        W79114   5.765  27.058   0.964
 7389W        W79115  22.004   8.866  11.958
 7390W        W79116  19.139   0.975  14.795
 7391W        W79117   3.381  23.718   2.698
 7392W        W79118   5.801  25.624  10.672
 7393W        W79119   8.749  15.686  12.551
 7394W        W79120  14.653  34.772  11.637
 7395W        W79121  42.885  39.905   1.975
 7396W        W79122  29.992  44.290  14.971
 7397W        W79123  21.896  35.882  11.007
 7398W        W79124  10.658  43.280  10.652
 7399W        W79125  24.798   9.377  14.806
 7400W        W79126  30.800   7.259  11.996
 7401W        W79127   5.712  35.553   1.236
 7402W        W79128   9.214  11.123   1.309
 7403W        W79129   4.426  27.165   1.240
 7404W        W79130   9.958  31.537   1.827
 7405W        W79131  27.514  20.803   0.616
 7406W        W79132  21.417  40.864  11.038
 7407W        W79133   1.836   9.301   3.652
 7408W        W79134   2.687  18.024  13.591
 7409W        W79135  34.019  33.362   0.275
 7410W        W79136  26.149   4.930   4.222
 7411W        W79137  34.439   4.348  14.760
 7412W        W79138   0.317  35.590  12.899
 7413W        W79139  43.991  12.286  14.763
 7414W        W79140  24.318   7.371   4.123
 7415W        W79141  19.070  43.931  11.565
 7416W        W79142  17.029  44.527   4.130
 7417W        W79143   5.532   1.024   1.334
 7418W        W79144  31.558   0.569  11.545
 7419W        W79145  37.844  34.282  10.529
 7420W        W79146  16.155  35.550  12.010
 7421W        W79147  17.342  26.520  13.442
 7422W        W79148   4.830  21.084  12.086
 7423W        W79149  33.468   3.107   4.985
 7424W        W79150  41.698  44.532  11.698
 7425W        W79151  41.500  34.304   2.898
 7426W        W79152   4.178  38.333  14.284
 7427W        W79153  31.207  32.149   1.319
 7428W        W79154  22.668  19.645   2.815
 7429W        W79155  34.664   7.258   0.800
 7430W        W79156   3.049  38.488  11.674
 7431W        W79157  23.976  31.475   4.107
 7432W        W79158  40.526   5.332  10.999
 7433W        W79159   8.407  27.669   1.871
 7434W        W79160  18.529  25.948  12.919
 7435W        W79161  23.540  33.579   1.739
 7436W        W79162  15.315  37.641   3.156
 7437W        W79163  31.845  33.112  14.713
 7438W        W79164  30.509   2.844   0.424
 7439W        W79165  22.749   6.775  13.978
 7440W        W79166   0.361  21.465  12.544
 7441W        W79167  17.266  24.034  14.944
 7442W        W79168  15.254  20.132  13.024
 7443W        W79169   9.203  35.131   3.543
 7444W        W79170  27.672  21.198   4.250
 7445W        W79171  22.017  32.440   4.131
 7446W        W79172  29.018  37.759  13.859
 7447W        W79173  27.973  18.683   2.082
 7448W        W79174   4.036   3.945  11.289
 7449W        W79175  21.325  28.463  13.323
 7450W        W79176   0.953  32.616   1.961
 7451W        W79177  39.718  42.388   2.971
 7452W        W79178  38.064  33.607   3.225
 7453W        W79179   7.557  23.910   3.634
 7454W        W79180  28.051  12.889   2.167
 7455W        W79181  27.569  29.131   1.383
 7456W        W79182  11.308  25.127  12.606
 7457W        W79183  27.141   8.432   4.218
 7458W        W79184   8.318   9.669   3.084
 7459W        W79185   7.719  40.758  11.469
 7460W        W79186   3.769  35.591  12.745
 7461W        W79187   4.370   8.798   0.468
 7462W        W79188  19.347  27.117   0.940
 7463W        W79189  26.325  16.513  11.872
 7464W        W79190  28.541   7.297  12.923
 7465W        W79191  22.321   5.715   3.908
 7466W        W79192  38.841   2.822  12.939
 7467W        W79193  31.467  13.101   2.682
 7468W        W79194   5.523  13.264  13.091
 7469W        W79195  19.622  21.991  12.571
 7470W        W79196  23.282  13.157   1.965
 7471W        W79197  31.678  16.175   3.226
 7472W        W79198  37.073  22.207  10.646
 7473W        W79199  44.399  22.202   0.953
 7474W        W79200  30.970  27.983   4.758
 7475W        W79201  36.838  13.701   3.758
 7476W        W79202   5.654  35.309   0.791
 7477W        W79203   4.397   1.712  11.980
 7478W        W79204   6.918   4.493   0.081
 7479W        W79205   2.452   9.337  14.307
 7480W        W79206   7.587   5.167   3.751
 7481W        W79207  42.009  12.270   2.687
 7482W        W79208  14.547  20.841  14.897
 7483W        W79209   7.274   6.416  12.493
 7484W        W79210  22.363  19.138   3.913
 7485W        W79211  42.067  37.868   0.468
 7486W        W79212   6.927  21.245  13.078
 7487W        W79213  37.500   7.354   0.989
 7488W        W79214   3.711  38.664   0.765
 7489W        W79215  29.531  15.054   1.345
 7490W        W79216  21.738  32.036   0.066
 7491W        W79217  15.036  35.022  14.752
 7492W        W79218  44.390  13.066  13.789
 7493W        W79219   3.175  16.073   0.788
 7494W        W79220  42.680  28.081  11.467
 7495W        W79221  40.576  24.127   4.083
 7496W        W79222  33.497  22.290   3.303
 7497W        W79223  25.084  24.780   2.654
 7498W        W79224  43.798  14.671  12.690
 7499W        W79225  12.579   6.938  13.543
 7500W        W79226   3.923  35.744  10.581
 7501W        W79227  33.843  23.499   4.571
 7502W        W79228  37.666  44.436  10.084
 7503W        W79229  24.713  29.492  14.526
 7504W        W79230  43.416   7.487  10.975
 7505W        W79231  32.438   4.845  10.224
 7506W        W79232   9.264  35.998   4.493
 7507W        W79233   2.592  25.642   4.084
 7508W        W79234  38.570  17.395   4.442
 7509W        W79235  12.852   5.755  13.018
 7510W        W79236  44.521  38.909  13.068
 7511W        W79237  12.422   6.942   1.247
 7512W        W79238  31.604  43.829   4.177
 7513W        W79239  29.509  44.954   4.510
 7514W        W79240  24.220  16.213  12.576
 7515W        W79241  37.632  10.273  10.004
 7516W        W79242   4.690  24.170  14.323
 7517W        W79243  23.907  16.073  12.977
 7518W        W79244   2.419  33.447  12.637
 7519W        W79245   4.787   8.146   4.819
 7520W        W79246  10.415   8.718   0.801
 7521W        W79247  17.800  28.873   3.948
 7522W        W79248   8.450   6.698   4.558
 7523W        W79249   0.892   9.113  12.722
 7524W        W79250   7.483  13.684   5.591
 7525W        W79251  40.024  11.360   2.418
 7526W        W79252  35.512  29.318  14.961
 7527W        W79253  11.845  25.889   3.639
 7528W        W79254  28.433  22.637   3.632
 7529W        W79255  28.053  29.690   3.521
 7530W        W79256   2.557  40.544   2.730
 7531W        W79257  17.203   7.293  10.308
 7532W        W79258  13.887  18.619   0.915
 7533W        W79259   6.889  36.793   3.741
 7534W        W79260  39.787   0.836  13.938
 7535W        W79261   6.959  34.563  13.861
 7536W        W79262   8.706  40.067   4.566
 7537W        W79263   9.619  12.389   0.859
 7538W        W79264  31.607   0.664   1.224
 7539W        W79265  13.297  37.522  13.048
 7540W        W79266   6.442  24.243  12.548
 7541W        W79267  12.599   0.224  13.693
 7542W        W79268  36.795  24.853  14.315
 7543W        W79269   8.190  20.100   3.314
 7544W        W79270   2.946  14.658  12.368
 7545W        W79271  29.422  40.970   1.874
 7546W        W79272  40.009   3.388  11.861
 7547W        W79273  37.152  25.015   3.474
 7548W        W79274  19.751  43.898   4.157
 7549W        W79275  19.758   5.824  14.772
 7550W        W79276  18.536  22.737   2.256
 7551W        W79277  22.792  36.128   3.256
 7552W        W79278  31.388  19.985   0.014
 7553W        W79279  12.660   0.671   4.638
 7554W        W79280  27.488  31.515  11.629
 7555W        W79281   9.130  11.877  12.604
 7556W        W79282  19.754   1.115  13.548
 7557W        W79283   4.260  38.049   4.114
 7558W        W79284   6.185  41.870   1.742
 7559W        W79285  25.968  38.922   3.035
 7560W        W79286  21.805  29.385   2.288
 7561W        W79287  15.255   5.660   4.218
 7562W        W79288   7.167  26.255   4.433
 7563W        W79289  37.821  14.121   1.472
 7564W        W79290  42.756   5.379   4.254
 7565W        W79291   9.271  20.079   1.960
 7566W        W79292   6.015   5.482  12.380
 7567W        W79293  32.214  32.941  13.691
 7568W        W79294  35.740  18.580  13.291
 7569W        W79295   0.555  23.279  14.980
 7570W        W79296  29.089  16.367  10.895
 7571W        W79297  24.782  11.779  11.138
 7572W        W79298  14.418  36.754   1.105
 7573W        W79299  20.462  18.577  13.649
 7574W        W79300  23.138   5.757   2.181
 7575W        W79301  36.906  29.272   3.190
 7576W        W79302  38.597   1.178   3.241
 7577W        W79303  22.527  39.946  12.443
 7578W        W79304   5.903  41.052   2.301
 7579W        W79305  15.384  34.038  14.768
 7580W        W79306   9.119   0.187   0.810
 7581W        W79307  33.479  27.265   2.698
 7582W        W79308   9.292  31.383  10.723
 7583W        W79309  30.997  18.530  13.839
 7584W        W79310  12.210  38.448   4.119
 7585W        W79311  41.934  37.799   4.115
 7586W        W79312  11.139  30.139   3.918
 7587W        W79313  20.097  36.471  11.574
 7588W        W79314  39.060  28.475  10.736
 7589W        W79315  21.529   3.487  13.857
 7590W        W79316   9.790  30.888   1.044
 7591W        W79317   3.676   4.652   1.964
 7592W        W79318  16.510  36.323  11.021
 7593W        W79319   8.146  33.360   0.102
 7594W        W79320  24.599   7.834   1.943
 7595W        W79321   2.323  19.292   5.088
 7596W        W79322  40.783  35.899   1.438
 7597W        W79323  16.258  39.044   3.127
 7598W        W79324   6.196  33.533   5.066
 7599W        W79325  42.458   8.097   4.803
 7600W        W79326  32.726   9.220   1.739
 7601W        W79327  35.845  42.564   4.930
 7602W        W79328  33.373  42.537  12.491
 7603W        W79329  27.688  13.740   0.889
 7604W        W79330  18.746   6.733   4.216
 7605W        W79331  22.705  43.903   2.845
 7606W        W79332   2.140  21.274   2.259
 7607W        W79333   6.324   2.790  11.228
 7608W        W79334  43.529  34.371   0.009
 7609W        W79335  33.703  31.790   3.516
 7610W        W79336   9.247  31.487   2.252
 7611W        W79337  40.948  32.235   4.832
 7612W        W79338  22.971  40.188  13.445
 7613W        W79339  14.846  39.749  11.142
 7614W        W79340  17.550   2.365  13.038
 7615W        W79341  16.734  32.937  14.353
 7616W        W79342  29.722  42.386   0.357
 7617W        W79343  44.167  43.848   3.640
 7618W        W79344  43.184  39.091   2.245
 7619W        W79345   2.513  16.002  11.587
 7620W        W79346   2.359  21.153  14.798
 7621W        W79347  23.267  14.196  14.930
 7622W        W79348   3.230  13.572  12.934
 7623W        W79349   8.798  42.365   0.813
 7624W        W79350  26.677  22.230  11.631
 7625W        W79351   2.724  36.969   3.342
 7626W        W79352  35.017  21.242   4.055
 7627W        W79353  11.186  29.029   0.497
 7628W        W79354   3.945  16.201  12.628
 7629W        W79355  22.518  35.961  10.975
 7630W        W79356  38.079  11.391   1.358
 7631W        W79357   3.032  33.316   2.180
 7632W        W79358  31.953  30.443   0.265
 7633W        W79359  29.107  19.731   3.803
 7634W        W79360  27.670  36.573  11.417
 7635W        W79361  27.502  27.089   0.764
 7636W        W79362   9.318  36.758  14.529
 7637W        W79363  23.810  24.038   2.220
 7638W        W79364  41.759  40.562   2.140
 7639W        W79365  18.056  24.556  12.413
 7640W        W79366  25.067  16.548  13.817
 7641W        W79367  11.094  35.519   2.665
 7642W        W79368  38.868  16.563   4.768
 7643W        W79369  39.374  16.744   0.423
 7644W        W79370  24.069  32.003  10.007
 7645W        W79371  42.207   3.506   0.309
 7646W        W79372   6.558  20.162  12.832
 7647W        W79373  33.178   1.913   1.838
 7648W        W79374   5.790  26.081   1.432
 7649W        W79375   3.358  41.986  12.088
 7650W        W79376   6.267  30.446  14.739
 7651W        W79377  39.517   3.233   4.425
 7652W        W79378   4.883   8.274   3.832
 7653W        W79379  30.144  20.870  12.912
 7654W        W79380  21.750  24.168   0.392
 7655W        W79381  42.242   8.294   1.906
 7656W        W79382  19.453   5.714  11.498
 7657W        W79383  41.944  15.614   1.509
 7658W        W79384  24.438  39.939   3.212
 7659W        W79385  12.129  24.127   0.734
 7660W        W79386   2.034  27.013   1.908
 7661W        W79387  42.958  30.138  13.038
 7662W        W79388  18.556  33.204  14.319
 7663W        W79389  17.368  35.114  14.449
 7664W        W79390   2.827  16.788  12.145
 7665W        W79391  18.849  21.629  11.762
 7666W        W79392  29.117   4.025   1.717
 7667W        W79393  35.361   4.206  12.369
 7668W        W79394  26.700  43.535  11.231
 7669W        W79395  13.136  36.428   2.236
 7670W        W79396  21.621  13.779   5.023
 7671W        W79397  10.100  17.149  14.881
 7672W        W79398   0.679  17.736  10.692
 7673W        W79399   7.988  19.560   0.885
 7674W        W79400  34.662   0.956   4.861
 7675W        W79401  20.117  21.985   1.664
 7676W        W79402  18.391  43.388   0.051
 7677W        W79403  34.444  26.646   4.181
 7678W        W79404  36.818  33.452  12.490
 7679W        W79405  40.221  35.881   3.554
 7680W        W79406  20.491  35.406  12.469
 7681W        W79407  20.222   2.718   4.080
 7682W        W79408  14.660  31.037  11.138
 7683W        W79409  23.759  16.077   1.304
 7684W        W79410  30.463  28.610   0.784
 7685W        W79411  16.291  24.124  13.029
 7686W        W79412  42.793  29.231  13.868
 7687W        W79413  26.276  34.822   2.815
 7688W        W79414   0.426  36.819   1.635
 7689W        W79415  25.183  27.207   2.997
 7690W        W79416  36.401   2.010  10.396
 7691W        W79417   6.504  16.011   4.533
 7692W        W79418   9.452  34.428  11.900
 7693W        W79419  15.218  18.053   4.171
 7694W        W79420  39.148  39.278   1.270
 7695W        W79421  10.358  17.380   0.962
 7696W        W79422  16.382  25.783  12.407
 7697W        W79423   8.804  15.849   3.148
 7698W        W79424  24.688  22.355   0.374
 7699W        W79425  12.531  11.766  14.792
 7700W        W79426   1.892  43.244  12.960
 7701W        W79427  11.003  39.790  13.488
 7702W        W79428  23.249  23.320   2.331
 7703W        W79429  19.785  44.722   2.328
 7704W        W79430   6.674  29.103  12.783
 7705W        W79431   0.219  18.737   3.498
 7706W        W79432  33.702   8.826   1.774
 7707W        W79433   7.368  22.726  12.609
 7708W        W79434   1.654   0.883   1.790
 7709W        W79435   5.830  20.114  12.023
 7710W        W79436  43.503  43.998  13.269
 7711W        W79437  28.092   1.708   3.628
 7712W        W79438  33.652  20.972   4.550
 7713W        W79439  21.317  27.233   3.706
 7714W        W79440  19.073   3.326   2.714
 7715W        W79441  26.680  40.972  13.569
 7716W        W79442  43.885  17.693   1.642
 7717W        W79443  43.514  33.487  14.957
 7718W        W79444  17.049  25.019  14.673
 7719W        W79445  37.816  19.031   4.593
 7720W        W79446   3.094  22.657   4.043
 7721W        W79447   6.531   1.918   3.355
 7722W        W79448  21.643  17.211  14.039
 7723W        W79449  34.063  10.980   1.238
 7724W        W79450  36.897  29.216  10.475
 7725W        W79451   1.295  38.332  14.161
 7726W        W79452  15.296   7.994  14.105
 7727W        W79453  30.807   1.351   0.127
 7728W        W79454  28.417   1.350   2.767
 7729W        W79455  22.739  23.025  13.452
 7730W        W79456  36.476  39.030  14.953
 7731W        W79457  11.400  18.936   4.299
 7732W        W79458   7.136  17.892  12.966
 7733W        W79459  32.857  16.897  13.371
 7734W        W79460   5.861  37.339   4.653
 7735W        W79461  27.715  13.109   1.673
 7736W        W79462  19.980  43.608  14.402
 7737W        W79463  33.351   7.213  14.552
 7738W        W79464  17.846  31.635   0.030
 7739W        W79465  26.050   0.307  14.014
 7740W        W79466  38.520  39.818   2.280
 7741W        W79467   8.363  36.784  11.395
 7742W        W79468   2.005  41.948   2.581
 7743W        W79469   6.469  19.739  14.700
 7744W        W79470  36.031  21.267   1.237
 7745W        W79471  29.117  18.139   3.387
 7746W        W79472   2.132  39.638   0.248
 7747W        W79473  17.762  44.630   1.835
 7748W        W79474   4.439  32.805   2.051
 7749W        W79475  33.125   1.856  11.611
 7750W        W79476   7.391  29.842   4.253
 7751W        W79477  27.963   0.543   1.158
 7752W        W79478  34.385  41.552  13.554
 7753W        W79479  26.547   0.148   3.642
 7754W        W79480  27.084  37.797  13.056
 7755W        W79481   2.957  33.027   3.678
 7756W        W79482  40.546  34.538   4.646
 7757W        W79483  10.415   4.899  14.667
 7758W        W79484   5.447  21.956  12.067
 7759W        W79485  10.959  30.883  11.064
 7760W        W79486  38.684  35.053  12.012
 7761W        W79487  43.111  15.403  14.757
 7762W        W79488  38.475  15.079  14.532
 7763W        W79489  27.574  44.501  11.853
 7764W        W79490  20.067  34.091   1.508
 7765W        W79491  31.505  36.864   0.362
 7766W        W79492  44.266   0.030   1.850
 7767W        W79493  44.443  41.510  13.780
 7768W        W79494  21.260  38.802  13.899
 7769W        W79495  18.071  13.538   0.026
 7770W        W79496  18.534   6.243  12.522
 7771W        W79497   2.617  11.961   0.244
 7772W        W79498  38.283  31.514   2.716
 7773W        W79499   0.217  40.781   4.633
 7774W        W79500  27.348  26.153  13.048
 7775W        W79501  40.288  35.332  14.473
 7776W        W79502  32.562  26.146  10.126
 7777W        W79503  13.222  40.811   0.694
 7778W        W79504   5.515  31.513  12.057
 7779W        W79505  17.013  24.654   2.689
 7780W        W79506  24.425  38.987   2.452
 7781W        W79507   5.311  43.864  14.333
 7782W        W79508  41.368  12.404  12.661
 7783W        W79509  34.271  29.150   1.123
 7784W        W79510  14.728  44.639  10.859
 7785W        W79511  21.846   3.616   1.212
 7786W        W79512  24.219   5.445  14.897
 7787W        W79513  40.843   4.870  11.421
 7788W        W79514   3.914   7.807   1.318
 7789W        W79515  34.839   8.893  13.276
 7790W        W79516  15.209  15.328   1.496
 7791W        W79517  24.249   3.764   4.833
 7792W        W79518  38.015  23.789  13.530
 7793W        W79519  13.917   1.094   2.707
 7794W        W79520  26.317  39.300  14.463
 7795W        W79521  21.655  30.405  11.606
 7796W        W79522  26.018  27.898  13.925
 7797W        W79523   3.894  14.413  11.931
 7798W        W79524  35.872  22.452  14.075
 7799W        W79525  27.521  22.540   1.362
 7800W        W79526   2.822  22.032   2.382
 7801W        W79527  42.846  10.349   1.407
 7802W        W79528  20.787  26.181  10.724
 7803W        W79529  29.031  27.971  11.944
 7804W        W79530  19.100   4.516  11.859
 7805W        W79531  10.766  28.354   2.634
 7806W        W79532  29.112  13.473   2.785
 7807W        W79533  33.401   4.095   2.886
 7808W        W79534  29.024   5.164   4.596
 7809W        W79535  36.918  16.639  14.287
 7810W        W79536  27.040  28.949  11.762
 7811W        W79537   8.638  44.314   1.604
 7812W        W79538  34.884  24.699  10.680
 7813W        W79539  10.971   8.420   1.622
 7814W        W79540  29.469  19.209   3.146
 7815W        W79541   0.859  37.371   4.688
 7816W        W79542  12.636  44.027   1.444
 7817W        W79543  15.860  44.367  13.982
 7818W        W79544   4.246   1.205   4.532
 7819W        W79545  44.986   5.850   1.082
 7820W        W79546  27.871   2.300  14.560
 7821W        W79547  26.453  29.231   0.494
 7822W        W79548  15.587   4.658  11.576
 7823W        W79549  31.720  15.401   4.148
 7824W        W79550  13.673  20.224  13.276
 7825W        W79551  13.233  42.309   4.524
 7826W        W79552  35.171   7.242  10.174
 7827W        W79553  24.030   4.853   0.748
 7828W        W79554  27.398  20.832  14.599
 7829W        W79555   3.449  40.036   2.180
 7830W        W79556  24.538  41.001   0.444
 7831W        W79557  33.459  39.638  12.586
 7832W        W79558   8.760  26.890   3.408
 7833W        W79559  44.461  13.381  12.446
 7834W        W79560   3.983   6.795  13.829
 7835W        W79561  14.910   7.833   2.100
 7836W        W79562   7.916  29.493  13.571
 7837W        W79563   3.727  39.608   3.065
 7838W        W79564  40.016  15.773  14.920
 7839W        W79565   6.679  35.098  13.907
 7840W        W79566   6.012  42.210   0.504
 7841W        W79567  42.935  35.850   0.733
 7842W        W79568  20.719  23.150  12.443
 7843W        W79569  12.601  16.697   3.618
 7844W        W79570   3.389  12.203  11.426
 7845W        W79571  10.912  18.022  12.996
 7846W        W79572  19.806  14.681   0.225
 7847W        W79573  23.819  18.053   1.164
 7848W        W79574   4.975  10.271   2.699
 7849W        W79575  39.347  17.565   3.731
 7850W        W79576  33.383  36.445   3.215
 7851W        W79577  20.368   5.841   2.742
 7852W        W79578  33.911  38.117  14.398
 7853W        W79579   2.406  32.072   4.608
 7854W        W79580  20.676  20.498  12.790
 7855W        W79581  37.720  21.268   4.085
 7856W        W79582  34.945  39.297  13.538
 7857W        W79583  30.348   0.959  13.833
 7858W        W79584  23.482  42.474   1.822
 7859W        W79585  40.068  30.542   2.819
 7860W        W79586  14.897  13.572   3.641
 7861W        W79587  37.884  37.512   0.546
 7862W        W79588  19.778   0.405  12.302
 7863W        W79589  26.501  40.449   1.854
 7864W        W79590  31.076   9.529   0.901
 7865W        W79591  22.076   6.436  14.403
 7866W        W79592   8.997  14.986  13.335
 7867W        W79593  16.153   7.906   2.605
 7868W        W79594  22.217  14.218   3.897
 7869W        W79595  22.028  41.764  13.890
 7870W        W79596  18.772  35.007  13.454
 7871W        W79597  37.786  27.028  11.414
 7872W        W79598  30.158   0.711   3.660
 7873W        W79599   7.474  29.237  13.368
 7874W        W79600  19.152  32.175   1.862
 7875W        W79601   8.823  42.543   3.152
 7876W        W79602  39.827   9.842  13.047
 7877W        W79603   8.362  29.718  14.401
 7878W        W79604  38.628  30.860   3.768
 7879W        W79605  19.950   3.742  12.963
 7880W        W79606   6.216  38.642  13.601
 7881W        W79607  34.898   0.199   0.275
 7882W        W79608  20.561  43.006   2.687
 7883W        W79609   9.619  44.837  10.701
 7884W        W79610   4.694  31.159   4.622
 7885W        W79611  10.676  33.552   3.675
 7886W        W79612   1.883  25.227   2.336
 7887W        W79613  36.152  41.779  12.366
 7888W        W79614  21.157   9.882  11.646
 7889W        W79615  27.164  16.018   3.241
 7890W        W79616  32.864   8.927   1.343
 7891W        W79617   0.242   6.952   0.238
 7892W        W79618  37.400   4.706   3.188
 7893W        W79619  41.803   0.609  13.409
 7894W        W79620  37.862  13.671   3.933
 7895W        W79621  18.420  29.461  14.494
 7896W        W79622  28.477  42.050  14.597
 7897W        W79623  32.015  12.712   0.235
 7898W        W79624  12.658  19.646   1.230
 7899W        W79625  16.022  28.889  12.964
 7900W        W79626  13.074  14.299   4.714
 7901W        W79627  41.092   4.328   2.109
 7902W        W79628  37.080  10.884  13.013
 7903W        W79629  33.232  30.481  13.014
 7904W        W79630   7.229  38.830  11.484
 7905W        W79631  31.655   8.261   1.399
 7906W        W79632  28.656  23.493   1.350
 7907W        W79633  12.353  38.057  13.569
 7908W        W79634   2.275  15.379  14.763
 7909W        W79635  15.085  35.462   0.818
 7910W        W79636   1.024  34.207   2.655
 7911W        W79637  35.543   4.260  13.483
 7912W        W79638  18.761  36.900   4.070
 7913W        W79639   6.409  36.333   4.147
 7914W        W79640  26.031  31.641   3.011
 7915W        W79641  15.306  15.722  13.906
 7916W        W79642   4.768  34.933   1.269
 7917W        W79643  15.149   4.325   4.272
 7918W        W79644   0.496  30.944   0.774
 7919W        W79645  25.062  34.841  13.036
 7920W        W79646  20.269  11.244   3.870
 7921W        W79647   6.817  27.889  12.045
 7922W        W79648  36.543  15.158   1.693
 7923W        W79649  31.874  25.070   2.932
 7924W        W79650   3.366  36.420  14.091
 7925W        W79651  36.614  25.018  11.671
 7926W        W79652  23.710  23.075  12.114
 7927W        W79653   0.571  20.492   1.747
 7928W        W79654  20.467  36.926  12.697
 7929W        W79655   8.843  21.123   1.194
 7930W        W79656  16.340  31.172  14.294
 7931W        W79657  44.895  20.694   0.522
 7932W        W79658  29.616  28.625  13.005
 7933W        W79659  21.831  42.845   0.836
 7934W        W79660  20.933   2.603  13.446
 7935W        W79661  23.329  35.545   3.767
 7936W        W79662  11.571  40.915   1.515
 7937W        W79663   1.781   8.956   0.857
 7938W        W79664  31.057   1.462  13.345
 7939W        W79665  15.145   5.302  11.746
 7940W        W79666  36.239  14.622  14.461
 7941W        W79667   5.333  32.241  14.207
 7942W        W79668  18.634  12.121  11.626
 7943W        W79669  32.899  19.483  12.004
 7944W        W79670  12.813   2.308  13.854
 7945W        W79671  17.169  33.919  13.564
 7946W        W79672   7.777   4.614   9.680
 7947W        W79673  22.416   4.809   4.197
 7948W        W79674  20.951  28.945   2.120
 7949W        W79675   4.151  38.565   0.464
 7950W        W79676  14.820  33.564  12.991
 7951W        W79677   2.519  33.364  14.207
 7952W        W79678  16.287  20.240  11.180
 7953W        W79679   0.812  22.590   0.316
 7954W        W79680   3.474   3.193   4.677
 7955W        W79681  29.408  11.847   1.378
 7956W        W79682  38.974  21.561  10.770
 7957W        W79683  39.195  22.673  14.735
 7958W        W79684   2.232   6.646  10.599
 7959W        W79685  43.680  17.617   1.109
 7960W        W79686   6.145  35.387   0.928
 7961W        W79687  28.179  17.016  12.622
 7962W        W79688  25.585  38.986  12.830
 7963W        W79689  39.389  22.800   0.186
 7964W        W79690  40.415  44.222   1.282
 7965W        W79691   2.966  33.216  12.494
 7966W        W79692   4.185  43.057   2.814
 7967W        W79693  39.396  33.414   2.838
 7968W        W79694  31.655  37.119   2.208
 7969W        W79695  33.495   4.448  10.494
 7970W        W79696  23.712   0.878  13.851
 7971W        W79697  42.711  30.708   1.496
 7972W        W79698  17.668  32.048  11.110
 7973W        W79699   9.222  14.680  11.176
 7974W        W79700  17.341  20.802   3.183
 7975W        W79701  26.266  26.058   3.163
 7976W        W79702  17.279  32.766   4.556
 7977W        W79703  44.583  37.996  13.917
 7978W        W79704  24.537   1.370   3.837
 7979W        W79705  15.053  15.346  11.125
 7980W        W79706  19.754  42.619  12.764
 7981W        W79707  13.739  12.107   0.904
 7982W        W79708   9.856  21.111  14.020
 7983W        W79709   7.300  39.249  10.592
 7984W        W79710  35.797  31.993   0.667
 7985W        W79711  34.610  25.240   3.936
 7986W        W79712  32.427  34.608   4.562
 7987W        W79713   8.451  26.743   4.316
 7988W        W79714  44.441  39.997  11.931
 7989W        W79715   7.394  11.448   1.831
 7990W        W79716  15.177  10.130  12.639
 7991W        W79717  13.153  11.721   4.772
 7992W        W79718  32.136  10.245  12.469
 7993W        W79719   5.878  12.033  10.621
 7994W        W79720   7.189  34.117  14.329
 7995W        W79721  36.397  39.100   4.120
 7996W        W79722  25.993  19.100  13.913
 7997W        W79723  17.079  20.130   4.378
 7998W        W79724  33.012  22.621   0.728
 7999W        W79725  16.396   5.242   2.416
 8000W        W79726  30.037  11.521  10.640
 8001W        W79727   3.272  37.099   2.359
 8002W        W79728  22.684   0.900   4.946
 8003W        W79729   5.065  31.637  12.448
 8004W        W79730   9.324   4.663  14.018
 8005W        W79731  31.466  18.567   3.854
 8006W        W79732  30.033  18.082   3.204
 8007W        W79733  26.441  20.885   5.118
 8008W        W79734  19.002  42.557   0.056
 8009W        W79735  12.003  11.946  11.905
 8010W        W79736  33.899   6.145   3.782
 8011W        W79737  27.221  21.163   3.906
 8012W        W79738   8.827   1.546   0.795
 8013W        W79739  20.228  19.128  10.722
 8014W        W79740  21.954   8.201   0.647
 8015W        W79741  38.830  20.506   3.787
 8016W        W79742  13.918  17.724   0.718
 8017W        W79743   4.194  36.363   0.761
 8018W        W79744  25.587  20.092  13.044
 8019W        W79745   9.366   3.037   4.126
 8020W        W79746   3.885  31.651   0.029
 8021W        W79747  13.173  12.752   4.082
 8022W        W79748   4.477  43.015  13.055
 8023W        W79749  17.243   8.698  12.315
 8024W        W79750   4.947  16.617  12.494
 8025W        W79751  38.641  14.235   4.573
 8026W        W79752  33.334  24.715   4.576
 8027W        W79753  16.573   0.302   2.234
 8028W        W79754   1.788   7.959  11.156
 8029W        W79755  15.776  17.892   0.855
 8030W        W79756  22.676   4.347  10.376
 8031W        W79757  24.760  18.483  13.405
 8032W        W79758  29.140  27.094   2.441
 8033W        W79759   5.208  10.729  10.877
 8034W        W79760  10.236   4.004   2.893
 8035W        W79761  22.222  20.405  13.308
 8036W        W79762  41.985  14.544  10.610
 8037W        W79763   3.192   4.402   2.937
 8038W        W79764  13.638  30.547  13.409
 8039W        W79765   5.754  11.318   0.861
 8040W        W79766  11.157   1.995  13.813
 8041W        W79767  40.351  35.524   3.083
 8042W        W79768  43.473  38.435   2.678
 8043W        W79769  12.139  42.404   3.693
 8044W        W79770  31.128  29.568   4.506
 8045W        W79771  27.195  13.717  12.989
 8046W        W79772  21.920   5.913  11.158
 8047W        W79773  10.383  35.408   3.141
 8048W        W79774  15.369  32.804  14.645
 8049W        W79775  18.248  18.193   3.224
 8050W        W79776  17.140  34.360  10.643
 8051W        W79777   4.911   1.762  12.048
 8052W        W79778  24.086  19.060   2.660
 8053W        W79779  31.841  43.984  14.255
 8054W        W79780  18.200  44.822   2.648
 8055W        W79781  28.232  41.045  13.919
 8056W        W79782  26.368   4.801  13.779
 8057W        W79783  32.942  21.784  14.812
 8058W        W79784  43.308  14.662  13.956
 8059W        W79785  44.482   7.138   0.826
 8060W        W79786  21.779  34.842   3.053
 8061W        W79787  13.003  41.977  13.798
 8062W        W79788  32.127  35.081   0.457
 8063W        W79789  32.663   6.348   0.372
 8064W        W79790  29.530  23.531   2.933
 8065W        W79791  12.287  44.515   4.381
 8066W        W79792  13.136  41.224   1.671
 8067W        W79793  32.538   9.489  10.595
 8068W        W79794  21.773  31.587   0.370
 8069W        W79795   3.735  24.177  14.299
 8070W        W79796  41.997  40.276   4.789
 8071W        W79797  13.832   8.858  10.712
 8072W        W79798   1.764  36.341  14.358
 8073W        W79799  11.787  26.795   0.076
 8074W        W79800  16.212  36.158  13.798
 8075W        W79801   6.550  13.055  12.994
 8076W        W79802   1.257  42.436  11.872
 8077W        W79803   3.692   9.218   0.420
 8078W        W79804  27.951  32.050  12.574
 8079W        W79805  38.606   2.704   0.536
 8080W        W79806  14.721  28.250  14.525
 8081W        W79807   4.941   2.216  12.338
 8082W        W79808  31.854  31.208   1.947
 8083W        W79809  11.768  22.950  13.167
 8084W        W79810  10.619  36.644   2.239
 8085W        W79811  14.403   5.184   0.209
 8086W        W79812  34.590   3.366  13.615
 8087W        W79813  22.432  43.410  11.083
 8088W        W79814   0.405  14.684   0.855
 8089W        W79815  30.928   3.859   1.915
 8090W        W79816  11.783  43.822  11.398
 8091W        W79817  32.388   4.883  13.437
 8092W        W79818  21.170  36.096  14.807
 8093W        W79819  36.469  10.601  11.175
 8094W        W79820  32.775  34.267  11.671
 8095W        W79821   5.677   9.619   2.202
 8096W        W79822  31.885   8.954   1.706
 8097W        W79823   8.833  40.115   1.033
 8098W        W79824  11.791  22.297  13.519
 8099W        W79825  43.751  29.443   0.017
 8100W        W79826  22.409  32.001  11.021
 8101W        W79827  35.328  28.359   0.882
 8102W        W79828  39.847  43.350   4.334
 8103W        W79829  12.124  11.055  14.110
 8104W        W79830  15.175  27.075   1.147
 8105W        W79831  38.122  43.753  11.994
 8106W        W79832  44.321  32.611   1.052
 8107W        W79833  19.157  22.538   4.417
 8108W        W79834  10.516  41.966  10.636
 8109W        W79835  17.433  26.565   3.512
 8110W        W79836  37.573  19.653   3.454
 8111W        W79837   2.716   5.706  14.698
 8112W        W79838  11.635  32.560   4.913
 8113W        W79839  22.455   3.682   3.603
 8114W        W79840  29.314   0.103  10.775
 8115W        W79841   2.714  27.716   0.879
 8116W        W79842   4.905  20.178   1.692
 8117W        W79843  24.645  22.740  14.982
 8118W        W79844  26.009  15.345  12.857
 8119W        W79845   9.413   2.194  13.006
 8120W        W79846  28.087  25.968   2.106
 8121W        W79847  12.428   2.928  12.961
 8122W        W79848  23.913  24.254   0.784
 8123W        W79849   5.334  40.949  14.970
 8124W        W79850   5.854  28.748   0.855
 8125W        W79851  20.213  20.616   2.356
 8126W        W79852  29.469   1.795  12.485
 8127W        W79853  28.258  11.271  12.035
 8128W        W79854  39.475   2.334   3.843
 8129W        W79855  21.775  11.817  10.465
 8130W        W79856  32.017  44.367   0.107
 8131W        W79857   3.178  30.491   4.023
 8132W        W79858   8.774  21.231   3.196
 8133W        W79859  27.604  11.616   2.623
 8134W        W79860  27.232   7.483  11.177
 8135W        W79861  22.922  16.932  11.114
 8136W        W79862  10.558  22.680  14.592
 8137W        W79863  30.529   3.904  13.742
 8138W        W79864  18.994  31.165  11.261
 8139W        W79865  36.259  11.752  14.872
 8140W        W79866  24.588  39.767  13.922
 8141W        W79867  15.383  17.640   3.339
 8142W        W79868   7.990  25.315   4.983
 8143W        W79869  13.365  29.109   0.813
 8144W        W79870  15.081   5.921   4.674
 8145W        W79871  42.523  18.215  12.289
 8146W        W79872   1.083  41.224  14.894
 8147W        W79873  39.909   2.457  14.397
 8148W        W79874  44.534  41.277   2.973
 8149W        W79875   2.601  32.465  14.347
 8150W        W79876  35.772   4.267  11.105
 8151W        W79877  32.191  39.794  14.811
 8152W        W79878  10.328  41.812  14.360
 8153W        W79879  43.304  27.577  11.794
 8154W        W79880  12.635  38.084  12.942
 8155W        W79881   2.270  34.039  14.804
 8156W        W79882   7.106  37.385  12.931
 8157W        W79883  13.209   6.152   0.379
 8158W        W79884  12.340   6.291  13.134
 8159W        W79885  16.181  18.572   4.768
 8160W        W79886   6.725  16.819   1.251
 8161W        W79887  39.768  23.689  13.934
 8162W        W79888  27.956   7.894   0.882
 8163W        W79889  32.573  33.476   3.230
 8164W        W79890  25.176  21.104  13.536
 8165W        W79891  19.170  19.171  14.050
 8166W        W79892  22.302  39.591   2.137
 8167W        W79893  39.295  37.119  14.414
 8168W        W79894   7.416  36.438  12.430
 8169W        W79895  44.772  40.995  10.610
 8170W        W79896   8.731  14.225  14.388
 8171W        W79897  27.005  40.274  12.692
 8172W        W79898  20.305  25.226  10.726
 8173W        W79899  14.829  21.783  14.962
 8174W        W79900  29.902  23.562   3.294
 8175W        W79901   8.891  22.730   4.366
 8176W        W79902  29.191   3.247  13.366
 8177W        W79903  21.048  21.673  13.454
 8178W        W79904   0.561  34.018   2.806
 8179W        W79905   5.352  44.280   4.478
 8180W        W79906  40.436   8.837  11.467
 8181W        W79907  36.436  23.458   2.406
 8182W        W79908   4.362   3.814   1.776
 8183W        W79909  32.853  32.190  12.136
 8184W        W79910  44.845  37.848  13.509
 8185W        W79911   1.278  31.973   1.953
 8186W        W79912  28.489  38.538   0.939
 8187W        W79913   1.894  37.517  13.762
 8188W        W79914  33.958   1.354  14.804
 8189W        W79915  38.565  13.790   1.739
 8190W        W79916  11.327  36.595  10.610
 8191W        W79917   1.412  32.360  10.666
 8192W        W79918  31.776  26.031  12.352
 8193W        W79919  20.148  44.907  14.294
 8194W        W79920  42.307  23.688  13.597
 8195W        W79921  40.989  24.588  13.530
 8196W        W79922   0.273  15.258   4.096
 8197W        W79923  18.645   3.199   0.352
 8198W        W79924  24.805   7.701  14.443
 8199W        W79925  14.733  22.182   1.312
 8200W        W79926  27.666   0.999  13.912
 8201W        W79927   7.880  44.567  13.052
 8202W        W79928   6.625  28.068  12.615
 8203W        W79929  18.269   3.345   0.983
 8204W        W79930  34.000  42.287   3.393
 8205W        W79931  21.087  22.176  12.512
 8206W        W79932   2.179  34.671   4.077
 8207W        W79933   3.871  40.127  12.165
 8208W        W79934  20.314  22.306  12.006
 8209W        W79935   6.149  37.594   4.998
 8210W        W79936  30.477   5.465   4.248
 8211W        W79937  17.451  38.022  11.082
 8212W        W79938  40.386  32.932   3.343
 8213W        W79939   8.370   1.878  12.061
 8214W        W79940  31.522  23.880  13.593
 8215W        W79941  42.316  41.391   1.513
 8216W        W79942   3.285  40.662  14.322
 8217W        W79943  21.787  27.657  13.877
 8218W        W79944  13.679  36.064  11.164
 8219W        W79945  29.433   9.128  11.992
 8220W        W79946   3.749  13.303   1.419
 8221W        W79947   9.543  33.316   4.969
 8222W        W79948   3.712  24.942   3.903
 8223W        W79949  41.436  11.644   2.065
 8224W        W79950  35.493  26.909  14.524
 8225W        W79951  23.263  29.476   2.331
 8226W        W79952  11.411   9.111   3.129
 8227W        W79953   6.863  31.066   4.494
 8228W        W79954  29.515  38.895  14.775
 8229W        W79955  37.592   1.999  11.200
 8230W        W79956  36.567  42.655   1.653
 8231W        W79957  34.889  11.716  13.626
 8232W        W79958  14.170  23.597   3.946
 8233W        W79959  43.512  28.237  11.155
 8234W        W79960  28.365  37.381  10.635
 8235W        W79961  35.054   8.790   0.053
 8236W        W79962  25.725  20.567   3.230
 8237W        W79963  10.363  33.073   4.718
 8238W        W79964  34.923  24.481  11.137
 8239W        W79965  10.143  34.625  10.565
 8240W        W79966  12.065  24.400  11.004
 8241W        W79967  26.200  12.178   4.755
 8242W        W79968  26.506  25.423  11.960
 8243W        W79969  14.195  21.048  13.739
 8244W        W79970  18.180  24.248  14.722
 8245W        W79971   7.886   5.290  10.156
 8246W        W79972  14.611   2.249  14.805
 8247W        W79973  38.369   9.807  13.774
 8248W        W79974  35.990   6.133   1.657
 8249W        W79975   0.232  39.552   2.286
 8250W        W79976  40.558  31.526  11.645
 8251W        W79977   4.671  34.086   3.970
 8252W        W79978   5.482  40.983   0.497
 8253W        W79979  39.211  14.696   0.426
 8254W        W79980  30.594  34.028   1.778
 8255W        W79981  30.078  16.848  14.800
 8256W        W79982  29.168  33.935  11.132
 8257W        W79983   7.362   6.812   1.447
 8258W        W79984   3.676  34.560  11.989
 8259W        W79985  33.357  23.698  11.129
 8260W        W79986  11.118  13.636  14.338
 8261W        W79987   2.241  40.625  11.537
 8262W        W79988   6.973  35.091  13.020
 8263W        W79989  26.701  38.617   2.356
 8264W        W79990  23.502  28.800  13.524
 8265W        W79991  43.224  29.094   0.784
 8266W        W79992   4.386   4.833  12.198
 8267W        W79993  18.577  41.863   1.053
 8268W        W79994   1.235  34.088  13.882
 8269W        W79995  20.086  11.391   0.440
 8270W        W79996  29.580  29.140  14.421
 8271W        W79997  35.358  28.922   2.193
 8272W        W79998  28.856  26.639   4.133
 8273W        W79999  25.125  28.529   3.387
 8274W        W80000  39.935  42.822   2.770
 8275W        W80001  32.449  21.213  14.465
 8276W        W80002  44.008  12.319   1.350
 8277W        W80003   4.418   8.391   4.022
 8278W        W80004   8.767  17.489  12.691
 8279W        W80005  20.092  16.719   3.263
 8280W        W80006  42.186  30.668  14.708
 8281W        W80007   3.483   2.947   0.660
 8282W        W80008   6.752  27.153   2.411
 8283W        W80009  11.691  11.708   4.965
 8284W        W80010   7.673  37.129  10.991
 8285W        W80011  30.040  19.307   1.738
 8286W        W80012  26.679   0.353   0.288
 8287W        W80013  31.050  13.642  11.906
 8288W        W80014  19.043  21.082   3.075
 8289W        W80015   8.893  29.048  10.279
 8290W        W80016  27.663   8.759   3.565
 8291W        W80017   8.029   0.890   4.660
 8292W        W80018  28.284  35.477  14.491
 8293W        W80019  33.858  14.290   3.786
 8294W        W80020   2.384  31.561   3.660
 8295W        W80021  38.666   1.132   4.239
 8296W        W80022   7.657  26.142  14.855
 8297W        W80023  33.551  34.059  11.721
 8298W        W80024   4.293  38.941   1.809
 8299W        W80025  23.632  11.775  11.826
 8300W        W80026  11.816  27.512  10.688
 8301W        W80027  24.891  40.297   2.738
 8302W        W80028   1.513  12.141   3.175
 8303W        W80029  25.153  43.458   0.282
 8304W        W80030  36.389  17.787  10.931
 8305W        W80031  21.420  38.941  11.896
 8306W        W80032  35.346  38.011  12.131
 8307W        W80033  20.216  14.866   2.214
 8308W        W80034   7.483  36.570   5.018
 8309W        W80035  12.227  35.480  12.502
 8310W        W80036  35.365  20.896   3.185
 8311W        W80037   6.239  25.001   4.527
 8312W        W80038  25.644   5.653  10.738
 8313W        W80039  21.975   4.704  10.866
 8314W        W80040  18.990   2.170   4.844
 8315W        W80041  10.265   0.199  13.025
 8316W        W80042   8.443  34.545   3.142
 8317W        W80043  19.980  10.674   0.001
 8318W        W80044   9.750  26.560  12.231
 8319W        W80045  32.521  38.955  14.809
 8320W        W80046  41.577  12.274   2.384
 8321W        W80047  15.060  40.586  11.065
 8322W        W80048  31.006  27.499   0.926
 8323W        W80049   5.243  19.871   1.425
 8324W        W80050  40.055  29.405  12.540
 8325W        W80051  16.116  17.233  11.413
 8326W        W80052   6.186  25.038  12.112
 8327W        W80053  43.962  14.754   0.764
 8328W        W80054  15.019  15.579  14.943
 8329W        W80055   6.420  38.067   3.365
 8330W        W80056  21.792   2.337   4.116
 8331W        W80057  36.797  37.487   0.400
 8332W        W80058   5.417  10.777  12.356
 8333W        W80059  34.039  26.083  10.602
 8334W        W80060  15.714  26.536   1.818
 8335W        W80061  23.649  31.678   1.014
 8336W        W80062  44.258  22.384  10.603
 8337W        W80063  38.295  24.666   3.325
 8338W        W80064  19.851  29.452   3.234
 8339W        W80065  39.307   8.766   4.072
 8340W        W80066  34.380  21.708   1.991
 8341W        W80067  36.250  37.335  14.231
 8342W        W80068  34.337  18.126  14.817
 8343W        W80069  38.858  38.052  14.513
 8344W        W80070  36.509  27.420  14.014
 8345W        W80071  31.050  23.092  12.233
 8346W        W80072  12.293  31.195   0.454
 8347W        W80073  12.575  39.441   4.514
 8348W        W80074   8.074  32.441  13.427
 8349W        W80075  28.780  36.306  11.822
 8350W        W80076  31.820  30.472   1.241
 8351W        W80077  32.350  24.207   2.723
 8352W        W80078  10.696  12.721  11.602
 8353W        W80079  41.292   4.032   1.741
 8354W        W80080  44.008  20.324   0.895
 8355W        W80081  33.606  24.973  12.646
 8356W        W80082  13.491   8.150   0.817
 8357W        W80083  28.599  18.003  11.898
 8358W        W80084  33.841  28.032  12.425
 8359W        W80085  26.663  40.746  14.477
 8360W        W80086  10.237   2.891  10.665
 8361W        W80087  31.041  38.550  12.143
 8362W        W80088   9.098  42.057   4.519
 8363W        W80089  17.141  29.906   1.539
 8364W        W80090  35.524   5.351   0.509
 8365W        W80091  13.603  34.924  13.083
 8366W        W80092  26.901  33.959  12.187
 8367W        W80093  37.923   5.838   2.913
 8368W        W80094   0.240   9.306   1.945
 8369W        W80095  44.433   8.481   2.359
 8370W        W80096  24.117  43.899  13.365
 8371W        W80097  13.202  10.921  14.772
 8372W        W80098   4.434  21.230  13.859
 8373W        W80099  37.953  26.961  14.293
 8374W        W80100  13.213  34.956  11.368
 8375W        W80101  11.457  22.855   1.787
 8376W        W80102  32.322  40.569  14.209
 8377W        W80103   0.975  14.797  10.743
 8378W        W80104  31.431  18.653   0.788
 8379W        W80105  41.865  18.707   0.367
 8380W        W80106  29.033   4.950  13.934
 8381W        W80107  13.844   9.935  12.483
 8382W        W80108  13.684  22.146  14.279
 8383W        W80109  21.965  39.812  14.907
 8384W        W80110  22.174  41.394   2.552
 8385W        W80111  41.864  13.468  14.397
 8386W        W80112  23.655  44.002  13.618
 8387W        W80113  40.044  22.128   1.056
 8388W        W80114   4.986   0.422  10.670
 8389W        W80115  26.922  34.872   0.722
 8390W        W80116  11.669  14.271   5.380
 8391W        W80117  16.856  16.750   1.198
 8392W        W80118   4.906  27.220   1.838
 8393W        W80119   1.718  42.318  14.027
 8394W        W80120  43.162  16.701   0.920
 8395W        W80121  35.460  32.081   0.289
 8396W        W80122  37.619  44.412   0.012
 8397W        W80123  21.705  41.358  12.237
 8398W        W80124  26.206  23.529  11.120
 8399W        W80125  42.551   7.636  11.459
 8400W        W80126  38.583  19.315   4.297
 8401W        W80127  39.835   5.419   4.124
 8402W        W80128   4.898  24.296  11.825
 8403W        W80129  16.294  14.677   1.796
 8404W        W80130  38.248  13.829   0.217
 8405W        W80131  14.936  43.539   0.718
 8406W        W80132   3.771  32.034   0.368
 8407W        W80133  16.755   4.117   4.917
 8408W        W80134  40.566  14.605   0.942
 8409W        W80135  32.697  31.265  14.277
 8410W        W80136  20.753  18.258   1.427
 8411W        W80137  38.130  13.295   1.362
 8412W        W80138  41.986  15.653   4.837
 8413W        W80139  40.910  43.982  14.941
 8414W        W80140   6.915  38.993   3.387
 8415W        W80141   3.726  12.271   3.050
 8416W        W80142  20.594   7.286   0.488
 8417W        W80143  36.939  10.346  13.129
 8418W        W80144  43.635  24.765  11.976
 8419W        W80145  20.208   3.971  11.129
 8420W        W80146  44.860   0.696  14.744
 8421W        W80147  19.537  44.257   1.858
 8422W        W80148   3.060   5.166  13.445
 8423W        W80149   5.687  34.506   1.918
 8424W        W80150  34.299  23.647  11.820
 8425W        W80151   4.943  12.697   3.776
 8426W        W80152  25.932  35.409   0.220
 8427W        W80153  39.421  32.358   0.318
 8428W        W80154  11.633  10.066   1.766
 8429W        W80155  31.140  24.940  11.859
 8430W        W80156  23.641   6.084   3.732
 8431W        W80157   8.806  42.575  13.994
 8432W        W80158  13.578  21.466   2.374
 8433W        W80159  39.817  36.408   3.175
 8434W        W80160  13.194  24.440   4.347
 8435W        W80161  11.158  39.510   1.188
 8436W        W80162   4.831  13.738  11.469
 8437W        W80163  30.857  22.259  12.278
 8438W        W80164  16.345   0.738   4.089
 8439W        W80165   5.840  17.912  12.921
 8440W        W80166   9.218  37.871  13.057
 8441W        W80167  16.505   0.799   2.317
 8442W        W80168   1.649  44.419  13.454
 8443W        W80169  33.238   1.655  11.129
 8444W        W80170  27.610  14.622   2.876
 8445W        W80171  17.349  41.568  11.582
 8446W        W80172  37.409   4.452  12.079
 8447W        W80173  16.290  25.848  10.658
 8448W        W80174  38.411   5.675   1.589
 8449W        W80175   6.706  40.337   4.048
 8450W        W80176  16.226  42.345  14.476
 8451W        W80177  12.892  25.307   3.741
 8452W        W80178   7.463  35.499   4.398
 8453W        W80179  31.606  10.224  11.445
 8454W        W80180  12.060  44.223  11.276
 8455W        W80181  18.701  35.347  10.704
 8456W        W80182  22.241   6.305   0.475
 8457W        W80183  30.403  13.225   2.615
 8458W        W80184  25.186  18.516   3.204
 8459W        W80185  32.347   8.433   3.829
 8460W        W80186  33.984  29.080   3.470
 8461W        W80187  27.110  25.557  13.442
 8462W        W80188  35.084  27.900  13.931
 8463W        W80189  23.241  16.793   1.726
 8464W        W80190  18.617  10.485  13.629
 8465W        W80191  41.157  12.095  13.065
 8466W        W80192  30.714  37.691  13.498
 8467W        W80193  25.667  30.978  13.364
 8468W        W80194  19.864   9.123  14.933
 8469W        W80195  26.958  19.148  10.593
 8470W        W80196  34.503  44.725  14.817
 8471W        W80197   8.506   1.935   3.367
 8472W        W80198   8.666  25.668   1.717
 8473W        W80199  40.039  41.307   2.659
 8474W        W80200   0.045  16.356  14.065
 8475W        W80201  23.707  14.985   5.117
 8476W        W80202  38.126  40.141   2.149
 8477W        W80203   8.223  37.394   2.231
 8478W        W80204  39.274   8.379   3.705
 8479W        W80205   4.040  15.583  13.861
 8480W        W80206  23.968  15.220  11.638
 8481W        W80207  36.215   4.706  12.066
 8482W        W80208   9.378   9.153  10.797
 8483W        W80209  29.521  36.910  12.200
 8484W        W80210  25.215  23.206   0.319
 8485W        W80211  41.454  14.637   4.637
 8486W        W80212  30.237  29.045  11.743
 8487W        W80213  26.256  18.370   0.346
 8488W        W80214   6.364   8.126  12.922
 8489W        W80215  17.043  35.514  13.774
 8490W        W80216  43.885   7.097  14.448
 8491W        W80217  15.207  32.099  11.023
 8492W        W80218  17.563  26.600   0.848
 8493W        W80219   5.311  14.513   1.820
 8494W        W80220  29.341  38.965   3.337
 8495W        W80221  35.148  17.628  14.583
 8496W        W80222  19.063  28.613   4.055
 8497W        W80223   2.496  36.447   4.689
 8498W        W80224  34.453   9.821  13.502
 8499W        W80225  28.529   4.452  10.726
 8500W        W80226   0.419  26.444  13.878
 8501W        W80227   0.709   9.614  11.267
 8502W        W80228   3.733   2.767   4.555
 8503W        W80229   7.909   8.294  10.765
 8504W        W80230  27.442  14.868  13.468
 8505W        W80231  28.506  15.118  14.287
 8506W        W80232  11.871  25.391   3.725
 8507W        W80233  14.667  29.530   1.900
 8508W        W80234   7.844   7.316   3.706
 8509W        W80235  41.960  10.305  12.003
 8510W        W80236  32.989  26.523  12.048
 8511W        W80237   1.336   2.961  12.221
 8512W        W80238  33.348  30.446   2.253
 8513W        W80239  25.205  39.772  12.780
 8514W        W80240  41.062  31.641  14.929
 8515W        W80241   0.794  31.956   2.573
 8516W        W80242  14.520  32.590   2.890
 8517W        W80243  30.082  40.066   4.626
 8518W        W80244  20.346   8.260   4.887
 8519W        W80245   3.776  20.523  14.382
 8520W        W80246   4.827  22.403   0.474
 8521W        W80247  19.991  23.519  13.842
 8522W        W80248   0.970   3.175   3.230
 8523W        W80249  44.690  19.057  11.204
 8524W        W80250   6.464   7.234   2.308
 8525W        W80251   9.761   3.933   0.732
 8526W        W80252   7.689  28.535   3.205
 8527W        W80253  15.197   3.267  14.542
 8528W        W80254  19.722   8.198   1.527
 8529W        W80255  41.775  43.494   1.849
 8530W        W80256  17.319  22.553   0.661
 8531W        W80257  44.883  40.933   4.173
 8532W        W80258  30.735  35.635   4.092
 8533W        W80259  39.425  25.193  12.374
 8534W        W80260  28.548   1.374  10.681
 8535W        W80261  39.698  12.553   2.352
 8536W        W80262  10.297  13.192   1.271
 8537W        W80263   5.958  34.135  12.024
 8538W        W80264   2.884  20.799   0.977
 8539W        W80265  36.394  15.746  14.438
 8540W        W80266  38.994  25.664  11.153
 8541W        W80267  38.940  11.725   1.647
 8542W        W80268  19.800   7.244  12.988
 8543W        W80269  13.779  41.499  11.876
 8544W        W80270   3.418  14.867   5.256
 8545W        W80271   3.700  35.141  10.382
 8546W        W80272   1.514  32.984   1.860
 8547W        W80273  31.280  30.121  10.536
 8548W        W80274  42.359  39.145   4.263
 8549W        W80275  43.169  12.607  10.243
 8550W        W80276  39.315  42.739  10.505
 8551W        W80277  25.903  22.515   5.151
 8552W        W80278  44.578  27.113  12.036
 8553W        W80279   5.256  11.163   0.927
 8554W        W80280   7.382  21.402  10.108
 8555W        W80281  36.991  38.469  12.494
 8556W        W80282   3.866  15.167   9.728
 8557W        W80283  13.318   4.006   0.296
 8558W        W80284   9.763  40.237  10.946
 8559W        W80285   9.687  33.619   5.373
 8560W        W80286  16.676  29.690   1.352
 8561W        W80287  30.789  39.202   3.228
 8562W        W80288   1.738   4.784  12.622
 8563W        W80289  10.675  39.570  14.916
 8564W        W80290  28.059  25.507  11.357
 8565W        W80291  35.786  35.524   4.242
 8566W        W80292  31.423  40.912  11.684
 8567W        W80293  16.420   8.494   1.379
 8568W        W80294  33.440  32.914   2.334
 8569W        W80295  30.704   2.804  11.954
 8570W        W80296  22.477  37.156  13.412
 8571W        W80297   3.367  43.169   2.800
 8572W        W80298   5.439   1.347  11.493
 8573W        W80299   4.199   8.335  13.000
 8574W        W80300  29.118  14.192  10.413
 8575W        W80301   9.274  40.388   1.206
 8576W        W80302   8.096  17.200  14.865
 8577W        W80303  24.511  32.771   3.247
 8578W        W80304  10.753  34.020   2.665
 8579W        W80305  11.639  30.611   2.597
 8580W        W80306  43.371  15.325  14.296
 8581W        W80307  42.759  42.947   5.075
 8582W        W80308  37.357  16.811   4.740
 8583W        W80309  17.313  28.222  13.836
 8584W        W80310  25.679   8.383  11.520
 8585W        W80311  40.820   5.201  14.006
 8586W        W80312   5.372  44.112  11.513
 8587W        W80313  24.541  31.713  10.665
 8588W        W80314   0.125   3.859   4.904
 8589W        W80315  34.076  37.902  13.570
 8590W        W80316  18.879  30.525  11.485
 8591W        W80317  13.756  24.271   1.283
 8592W        W80318  17.286  14.744  11.916
 8593W        W80319  41.095  42.260   0.840
 8594W        W80320   2.747  10.099  14.967
 8595W        W80321  19.455   7.251   4.326
 8596W        W80322  26.720  16.221   3.394
 8597W        W80323  14.274  39.233  14.276
 8598W        W80324  27.787   8.269   3.571
 8599W        W80325  19.248  22.865   2.636
 8600W        W80326  38.649  25.917   0.383
 8601W        W80327   7.866  22.266   1.943
 8602W        W80328  41.014   6.336  13.742
 8603W        W80329  15.064  41.642  12.969
 8604W        W80330  18.258  17.036   2.814
 8605W        W80331  32.511   8.490  13.515
 8606W        W80332  37.837  26.280  11.602
 8607W        W80333  24.154  34.448  11.681
 8608W        W80334  35.922  22.653  13.584
 8609W        W80335  15.574  37.237   9.833
 8610W        W80336   8.970  18.716   3.341
 8611W        W80337  16.478  36.470  14.525
 8612W        W80338  32.394  10.717   0.145
 8613W        W80339  12.498   5.725   3.295
 8614W        W80340   7.615  11.339  10.596
 8615W        W80341  37.503  20.854  10.567
 8616W        W80342   1.017  35.436   0.859
 8617W        W80343  39.276  40.998   1.746
 8618W        W80344  42.104  42.789   3.849
 8619W        W80345  29.647   3.918   3.428
 8620W        W80346  14.790  19.565  11.872
 8621W        W80347   1.825  40.532   0.787
 8622W        W80348  32.382  22.655  13.039
 8623W        W80349   9.645  18.771  11.144
 8624W        W80350  24.455   1.029   1.451
 8625W        W80351   7.196  32.049   4.553
 8626W        W80352  11.371   5.444  12.017
 8627W        W80353   4.867  16.159  11.481
 8628W        W80354  20.488  29.546  12.596
 8629W        W80355  13.020  43.222   1.890
 8630W        W80356  37.592  37.376   2.378
 8631W        W80357   1.546  43.747  10.750
 8632W        W80358  13.188   9.297  12.232
 8633W        W80359  12.692   8.326   0.101
 8634W        W80360   3.496  27.022   3.290
 8635W        W80361  21.516  32.616   3.187
 8636W        W80362  10.138  38.417   2.683
 8637W        W80363  16.863   9.142   1.792
 8638W        W80364  13.157  31.936   3.742
 8639W        W80365  10.022  32.376   4.343
 8640W        W80366  22.129  22.057   0.364
 8641W        W80367  17.626  33.340   2.274
 8642W        W80368  36.446  27.967   2.669
 8643W        W80369  10.954  36.777   1.277
 8644W        W80370  34.421  15.790   5.003
 8645W        W80371  20.539   1.741   2.394
 8646W        W80372  16.085  40.002  10.739
 8647W        W80373  32.664  23.180  10.208
 8648W        W80374  37.455  17.838  14.775
 8649W        W80375  36.496   1.219  12.514
 8650W        W80376  33.116  26.132   4.998
 8651W        W80377   3.972  27.163   2.418
 8652W        W80378  40.983   2.499  13.819
 8653W        W80379  41.673  20.316   0.190
 8654W        W80380  28.573  16.743  10.665
 8655W        W80381   6.184  26.239   1.890
 8656W        W80382  43.761   6.193   1.454
 8657W        W80383  36.095  42.219  11.051
 8658W        W80384   3.298  27.703   1.787
 8659W        W80385   6.505  24.769   0.989
 8660W        W80386  19.653   8.474  12.311
 8661W        W80387   1.836  10.208  14.107
 8662W        W80388  10.429   0.015  12.131
 8663W        W80389  31.987  34.545   2.859
 8664W        W80390  27.913  29.030  10.646
 8665W        W80391  36.315  30.015  14.927
 8666W        W80392  10.279  20.367  11.769
 8667W        W80393  12.688  26.445  12.902
 8668W        W80394   8.330  39.366  10.824
 8669W        W80395  22.209  12.299   9.584
 8670W        W80396  43.967  25.746  10.545
 8671W        W80397  36.927   5.875   0.434
 8672W        W80398  39.746  11.370  14.338
 8673W        W80399  10.406  37.004  13.694
 8674W        W80400  12.218  31.962  12.667
 8675W        W80401  12.206  16.333  12.083
 8676W        W80402  30.554   9.140  10.644
 8677W        W80403   9.398  36.479   0.352
 8678W        W80404  19.883  34.305   0.053
 8679W        W80405  38.300  28.079  14.103
 8680W        W80406  24.210   4.495   3.250
 8681W        W80407  10.542  15.562   3.431
 8682W        W80408   7.568  22.458   3.240
 8683W        W80409  43.044  35.452  13.918
 8684W        W80410  20.996  28.699  12.542
 8685W        W80411  18.570  39.366   2.759
 8686W        W80412   1.527  11.882  12.042
 8687W        W80413  20.694  30.190   0.817
 8688W        W80414  11.296  23.128   4.021
 8689W        W80415  13.740  15.461   1.758
 8690W        W80416  42.487  42.380  12.580
 8691W        W80417  41.818  36.059  13.973
 8692W        W80418  24.051  12.829  13.968
 8693W        W80419  18.360  28.087   1.941
 8694W        W80420  27.200   7.836  14.066
 8695W        W80421  13.811   5.730  10.837
 8696W        W80422  37.431  33.194   9.898
 8697W        W80423  35.337  31.029  11.607
 8698W        W80424  10.385   0.907   0.272
 8699W        W80425  15.998  31.840   3.722
 8700W        W80426  32.867  38.909  12.564
 8701W        W80427  23.937  13.378   5.125
 8702W        W80428  30.346   7.458  13.942
 8703W        W80429  24.205   0.881  14.747
 8704W        W80430  25.242  35.309   4.118
 8705W        W80431  44.797  40.966   0.803
 8706W        W80432  30.388  18.193  11.231
 8707W        W80433  11.637  38.260   2.690
 8708W        W80434   8.719   2.978  10.982
 8709W        W80435   5.117  37.919   2.732
 8710W        W80436  14.521  33.434   4.467
 8711W        W80437  16.570  12.248  14.008
 8712W        W80438   9.745  17.042  14.225
 8713W        W80439   9.120   1.256   3.854
 8714W        W80440  11.463   4.678  10.566
 8715W        W80441  43.795   1.334   1.741
 8716W        W80442  43.926  15.143   4.764
 8717W        W80443  23.040  10.071   2.061
 8718W        W80444   3.861  10.740   2.336
 8719W        W80445  33.675  40.940  10.690
 8720W        W80446  28.622  17.120  12.327
 8721W        W80447   8.328  10.667  14.964
 8722W        W80448  29.947  22.010  12.111
 8723W        W80449  31.901   2.634  14.434
 8724W        W80450   5.319  42.843  12.713
 8725W        W80451   4.055  40.945  13.891
 8726W        W80452  16.746  19.739  10.484
 8727W        W80453  24.018  33.320   4.504
 8728W        W80454  20.372  11.649  14.121
 8729W        W80455  41.473  13.284   0.316
 8730W        W80456   5.063   0.404   1.670
 8731W        W80457  21.329  15.590  13.177
 8732W        W80458   6.787   1.238   0.385
 8733W        W80459   1.834  42.205  13.028
 8734W        W80460  42.701   7.674  14.795
 8735W        W80461  23.065  42.044   1.267
 8736W        W80462   2.333  40.819   2.328
 8737W        W80463   1.340  36.522  10.591
 8738W        W80464  43.720  42.944   5.047
 8739W        W80465  13.960   5.891  13.410
 8740W        W80466  17.763  15.687  11.943
 8741W        W80467  26.753  30.838   3.846
 8742W        W80468   6.610  25.331   2.875
 8743W        W80469  29.180  25.182   0.272
 8744W        W80470  44.450  11.450  14.779
 8745W        W80471  35.139  43.415   5.014
 8746W        W80472   6.832  25.041  14.111
 8747W        W80473  42.822   7.334   2.282
 8748W        W80474  24.489  23.685  13.870
 8749W        W80475  24.619  36.009  11.041
 8750W        W80476  21.667  15.202   2.372
 8751W        W80477   6.427   9.678   1.695
 8752W        W80478  28.153   9.440   2.143
 8753W        W80479  36.912  10.775   4.107
 8754W        W80480   8.042  22.648   3.160
 8755W        W80481   9.621   7.876   2.003
 8756W        W80482  28.041  38.810   2.440
 8757W        W80483  13.310  40.398  10.652
 8758W        W80484  36.452  25.225  10.774
 8759W        W80485  31.158  41.805  10.584
 8760W        W80486  14.467   2.408   4.363
 8761W        W80487  22.046   9.567   2.881
 8762W        W80488   7.855  16.091   4.551
 8763W        W80489  34.889  25.084  11.923
 8764W        W80490  30.308  22.071   4.095
 8765W        W80491  42.516  20.686   2.161
 8766W        W80492  32.963  19.132   2.238
 8767W        W80493  19.763   7.208  12.445
 8768W        W80494  18.322  30.472   1.860
 8769W        W80495  28.641  12.220  12.041
 8770W        W80496   2.521   6.278   4.262
 8771W        W80497   1.341  32.640  12.568
 8772W        W80498  23.433  38.711  14.475
 8773W        W80499   0.960   6.700   2.397
 8774W        W80500  12.688   7.716   3.614
 8775W        W80501   5.939   4.073  11.953
 8776W        W80502  23.059  30.577  12.474
 8777W        W80503  28.376   3.380   5.151
 8778W        W80504  40.964   6.690   2.642
 8779W        W80505  39.441  40.781   4.727
 8780W        W80506  29.961  16.754   2.312
 8781W        W80507   4.499   2.464   4.454
 8782W        W80508  44.452  13.588  14.057
 8783W        W80509  10.880  43.425  14.726
 8784W        W80510  43.888  44.301  12.154
 8785W        W80511  17.209  42.405   1.443
 8786W        W80512  11.639  18.227   0.796
 8787W        W80513  24.931  11.687  14.890
 8788W        W80514  34.539  43.424  10.850
 8789W        W80515  13.565  31.313  11.174
 8790W        W80516  19.663  17.992   4.558
 8791W        W80517  26.373  24.755  14.487
 8792W        W80518  21.032   6.279   2.872
 8793W        W80519   6.176  23.153  10.684
 8794W        W80520  37.979   9.326  10.926
 8795W        W80521  34.412  17.999  13.419
 8796W        W80522  36.083  12.794  14.982
 8797W        W80523  27.665  30.875  13.530
 8798W        W80524   2.266  37.336  10.402
 8799W        W80525   5.183  24.160  10.665
 8800W        W80526  14.742   4.845  10.086
 8801W        W80527   1.914  35.370  14.024
 8802W        W80528  11.846   8.700  10.591
 8803W        W80529  28.048  30.021   2.130
 8804W        W80530   7.711  33.405   2.907
 8805W        W80531  42.778   0.535   3.791
 8806W        W80532  41.734  36.551  14.913
 8807W        W80533   7.716  15.069   0.766
 8808W        W80534  34.260  14.315  11.199
 8809W        W80535  18.065  17.733  10.713
 8810W        W80536  13.814   8.183  14.918
 8811W        W80537  13.841  33.662   0.787
 8812W        W80538   9.027  35.169   2.633
 8813W        W80539  32.910  17.561   3.160
 8814W        W80540  20.019  27.647  10.259
 8815W        W80541  13.974  23.685  10.644
 8816W        W80542   9.699   6.745  13.300
 8817W        W80543   1.114   4.087  13.035
 8818W        W80544  22.639  19.699   3.702
 8819W        W80545  31.293   4.072  13.401
 8820W        W80546  38.673  24.398  14.738
 8821W        W80547  17.015  26.953   2.527
 8822W        W80548  38.427  19.589   2.933
 8823W        W80549   5.134  41.819  13.976
 8824W        W80550   6.369   2.472  11.632
 8825W        W80551  36.337  17.825   3.748
 8826W        W80552   8.391  39.604   1.831
 8827W        W80553  44.583  13.547  12.930
 8828W        W80554  18.964  37.755  14.464
 8829W        W80555  37.443   9.144  12.791
 8830W        W80556   7.759  42.033  11.234
 8831W        W80557  29.399   8.442  13.404
 8832W        W80558  15.705  30.490  13.096
 8833W        W80559  25.572  18.786   3.418
 8834W        W80560  25.644  29.411   4.203
 8835W        W80561  22.399  14.654   4.088
 8836W        W80562   9.782  31.579  14.348
 8837W        W80563  13.164   2.399  13.035
 8838W        W80564  16.355  10.220   3.386
 8839W        W80565   5.892  12.744  13.073
 8840W        W80566   1.363  30.629   0.958
 8841W        W80567  23.799  14.276  12.974
 8842W        W80568   6.113   7.102  13.985
 8843W        W80569  38.296  22.706   1.368
 8844W        W80570  28.452  31.713  13.454
 8845W        W80571   3.165  33.524   4.641
 8846W        W80572  34.208   8.871   0.377
 8847W        W80573  44.328  28.673   2.413
 8848W        W80574  20.515   1.289   1.332
 8849W        W80575  11.213  31.858  14.902
 8850W        W80576  11.653   4.931   2.623
 8851W        W80577  17.982   2.438  12.066
 8852W        W80578   7.936  42.823  11.587
 8853W        W80579   4.408  16.684  10.873
 8854W        W80580  37.043   9.182  12.490
 8855W        W80581  44.312  36.496   3.638
 8856W        W80582  10.183   8.595  11.951
 8857W        W80583  25.487   8.686  14.761
 8858W        W80584  40.487   3.188   1.295
 8859W        W80585  28.902  37.772   3.761
 8860W        W80586  34.917  44.481   2.353
 8861W        W80587  24.422  17.565   0.740
 8862W        W80588  20.028   4.889   0.034
 8863W        W80589  41.016   0.025  14.790
 8864W        W80590  30.528  18.113   3.750
 8865W        W80591  28.931  23.243   2.197
 8866W        W80592  44.032  22.182  14.525
 8867W        W80593   5.043  12.193  13.105
 8868W        W80594   5.508  18.266   1.930
 8869W        W80595  43.591  23.525  12.080
 8870W        W80596  36.871  18.501  14.784
 8871W        W80597  38.997  17.413   4.131
 8872W        W80598   5.756   1.809   0.427
 8873W        W80599  12.529  22.554  14.338
 8874W        W80600  27.052  44.051  10.641
 8875W        W80601  41.462   4.425   3.250
 8876W        W80602  35.608  27.629   2.443
 8877W        W80603  28.130   2.517   4.029
 8878W        W80604  37.968  16.599   0.461
 8879W        W80605   6.928  13.444  12.871
 8880W        W80606  29.490  11.570   3.347
 8881W        W80607  11.609  41.805   1.134
 8882W        W80608  28.236  31.081  12.947
 8883W        W80609  18.831  16.971  12.964
 8884W        W80610  19.667  35.237   2.076
 8885W        W80611  19.595   2.423  13.758
 8886W        W80612  25.970   7.122  11.407
 8887W        W80613  15.344  21.285  12.408
 8888W        W80614  38.848   2.927   1.815
 8889W        W80615  31.880  34.902   0.007
 8890W        W80616  23.228   8.238   3.733
 8891W        W80617  36.831  22.810   1.745
 8892W        W80618  20.588  26.741  13.420
 8893W        W80619  21.566  13.354  11.578
 8894W        W80620  15.580   5.984   3.612
 8895W        W80621  13.671  20.752   0.097
 8896W        W80622  17.524  13.372  12.047
 8897W        W80623  13.543  30.258  11.072
 8898W        W80624  43.478  23.681  11.597
 8899W        W80625  27.096  15.521   0.897
 8900W        W80626  33.252   3.329   0.080
 8901W        W80627   0.693  16.860  10.954
 8902W        W80628   6.204   5.272   4.592
 8903W        W80629  16.139  23.759  13.927
 8904W        W80630  25.024  34.387   2.570
 8905W        W80631  21.145  34.784   4.357
 8906W        W80632  35.495   4.148  14.424
 8907W        W80633  39.536  16.632  12.894
 8908W        W80634   5.590   3.640   1.702
 8909W        W80635   3.456  41.430   2.952
 8910W        W80636  20.979  15.618   0.384
 8911W        W80637  30.078  39.795   2.753
 8912W        W80638  41.067  42.855   1.990
 8913W        W80639  15.731  29.974   4.570
 8914W        W80640  33.180  42.011   4.536
 8915W        W80641   9.158  30.667  10.408
 8916W        W80642  12.619   4.164   1.772
 8917W        W80643  43.347  37.793  14.457
 8918W        W80644  29.544  13.598   2.192
 8919W        W80645  44.216  20.063  14.447
 8920W        W80646  41.363  41.555   1.989
 8921W        W80647  18.518   9.825  12.275
 8922W        W80648  39.528  21.257   0.379
 8923W        W80649  25.487   8.122  13.909
 8924W        W80650  21.504  18.972   2.345
 8925W        W80651   9.073   7.429   4.260
 8926W        W80652  15.348  18.597  11.598
 8927W        W80653  37.146  22.008   4.124
 8928W        W80654  21.422  13.194   3.926
 8929W        W80655   1.633  32.112   4.163
 8930W        W80656   1.428  39.390   3.578
 8931W        W80657  15.174   6.607  12.178
 8932W        W80658  17.864   2.402   2.258
 8933W        W80659  17.125   7.609  11.100
 8934W        W80660  23.979  41.315   3.233
 8935W        W80661  43.829   1.712  11.926
 8936W        W80662  42.703  23.049  13.627
 8937W        W80663  19.760  30.363   3.838
 8938W        W80664   1.427  38.477   4.510
 8939W        W80665  24.473  44.906  12.470
 8940W        W80666  26.016  14.551  14.528
 8941W        W80667  27.268  43.773  11.059
 8942W        W80668  28.149  21.184  14.021
 8943W        W80669  38.692  35.417   0.192
 8944W        W80670   6.328  34.723   4.153
 8945W        W80671  43.947  23.027  13.448
 8946W        W80672  34.810   6.709  10.866
 8947W        W80673   7.823  24.078  14.421
 8948W        W80674  17.079   1.225  12.031
 8949W        W80675  20.156  37.340   3.157
 8950W        W80676  20.040  15.574   2.761
 8951W        W80677  19.475  42.370  14.973
 8952W        W80678  25.703  19.802  14.926
 8953W        W80679  18.187  11.063   2.897
 8954W        W80680  17.512  13.200   1.438
 8955W        W80681   8.168  27.276  11.911
 8956W        W80682  22.788   7.697   3.243
 8957W        W80683  28.358  40.005   0.665
 8958W        W80684  25.881  41.475  11.577
 8959W        W80685  36.085  24.007   4.366
 8960W        W80686  40.828  21.782   2.585
 8961W        W80687  34.815  43.188   0.407
 8962W        W80688  10.738   1.473   0.598
 8963W        W80689   0.733  38.228   4.048
 8964W        W80690   6.998  19.176   2.298
 8965W        W80691  10.239  22.104   0.345
 8966W        W80692  15.491   7.656  12.473
 8967W        W80693  39.412  30.510   4.138
 8968W        W80694  30.158  29.377  12.998
 8969W        W80695   1.996  28.069   4.664
 8970W        W80696   7.861   7.864   1.244
 8971W        W80697  24.124  38.153   3.213
 8972W        W80698   6.299  18.163   1.162
 8973W        W80699  28.930  18.738  12.786
 8974W        W80700  28.614  39.316   0.362
 8975W        W80701  35.645  41.011   1.420
 8976W        W80702  23.588  31.034   3.385
 8977W        W80703  28.415  12.609   1.394
 8978W        W80704  29.612  21.764   4.223
 8979W        W80705  36.977  30.503  11.189
 8980W        W80706  15.225  28.166  14.766
 8981W        W80707  37.938  16.102   3.571
 8982W        W80708   9.690  32.595  10.722
 8983W        W80709   8.903  35.584  10.964
 8984W        W80710   0.741  34.449   4.598
 8985W        W80711  27.076   9.342  10.348
 8986W        W80712  36.537  36.963  12.419
 8987W        W80713  15.867  30.973  11.994
 8988W        W80714  33.342   5.308  11.968
 8989W        W80715  26.273  32.776  14.976
 8990W        W80716   5.288  32.379  11.930
 8991W        W80717  11.846   8.224   1.532
 8992W        W80718  33.857  23.492   2.785
 8993W        W80719   6.350  44.196   0.886
 8994W        W80720  20.012   8.624   9.922
 8995W        W80721  18.740  30.104   1.915
 8996W        W80722  23.888  10.828   0.386
 8997W        W80723   6.139   7.244   0.262
 8998W        W80724  44.036  29.600   0.916
 8999W        W80725   6.954  28.203   1.271
 9000W        W80726   7.240   2.231  12.503
 9001W        W80727  29.507  18.193  12.804
 9002W        W80728  24.248  20.136  14.275
 9003W        W80729  36.723  32.357   2.224
 9004W        W80730  30.168  22.604  14.325
 9005W        W80731  24.295   9.372   1.508
 9006W        W80732  29.847  24.196  14.573
 9007W        W80733  26.063   9.159   0.343
 9008W        W80734  14.573  41.400   4.184
 9009W        W80735  11.306  17.643   2.775
 9010W        W80736  22.002  32.955   3.269
 9011W        W80737  18.995  25.914  13.139
 9012W        W80738   1.233  39.656   3.172
 9013W        W80739  39.863  27.004   3.746
 9014W        W80740  32.913  42.992   4.493
 9015W        W80741   3.793  13.855  11.856
 9016W        W80742  13.805  13.086  14.420
 9017W        W80743  15.819  32.068   4.997
 9018W        W80744  24.051   2.522   2.175
 9019W        W80745  42.408   0.530   1.791
 9020W        W80746  18.032  33.173   4.038
 9021W        W80747   3.141  32.240   1.881
 9022W        W80748  43.951  31.524  10.685
 9023W        W80749   8.039  11.159  10.362
 9024W        W80750  14.916  21.565  14.456
 9025W        W80751   4.408   3.023   1.116
 9026W        W80752  35.112   2.348   2.418
 9027W        W80753  18.224  29.564   0.001
 9028W        W80754  19.228  21.126   3.610
 9029W        W80755   6.354  25.654  14.284
 9030W        W80756  34.042  31.422  13.962
 9031W        W80757  35.550   7.347  14.854
 9032W        W80758  35.447  29.535  14.472
 9033W        W80759  40.873  40.496   2.485
 9034W        W80760   6.914  27.926   3.016
 9035W        W80761  25.133  28.367  14.789
 9036W        W80762   6.227  29.061  10.779
 9037W        W80763  44.507  35.508   0.156
 9038W        W80764  28.407  21.629  10.885
 9039W        W80765  19.768  13.758   0.373
 9040W        W80766  36.649  24.629   4.135
 9041W        W80767   0.372  36.525   2.902
 9042W        W80768  41.662  35.867   4.594
 9043W        W80769  18.305   3.109  13.822
 9044W        W80770  26.051  44.707   1.804
 9045W        W80771   9.664  14.581  10.520
 9046W        W80772  14.266  18.079  10.755
 9047W        W80773  17.952   3.274   3.352
 9048W        W80774   3.503  26.623  11.153
 9049W        W80775  37.478  20.731  14.288
 9050W        W80776  29.901  41.927  14.015
 9051W        W80777  12.630  40.335   1.793
 9052W        W80778   3.017  15.201   0.765
 9053W        W80779  14.339  31.649  13.535
 9054W        W80780   3.889  42.687  14.997
 9055W        W80781  11.224  27.337   4.578
 9056W        W80782   6.285   5.892  13.862
 9057W        W80783  24.580  30.105   4.618
 9058W        W80784  16.153   4.388   2.665
 9059W        W80785  41.293  39.046   0.365
 9060W        W80786  33.722  39.965  12.953
 9061W        W80787   9.726  12.198  11.932
 9062W        W80788  29.335   8.755   4.960
 9063W        W80789  19.193  22.039   3.280
 9064W        W80790  11.547  38.914  10.889
 9065W        W80791  29.834  33.467   3.747
 9066W        W80792  10.077  30.901  13.349
 9067W        W80793  24.125   0.946   1.899
 9068W        W80794  35.993  28.661   4.661
 9069W        W80795  21.187   8.374  11.568
 9070W        W80796  38.476  16.694   0.503
 9071W        W80797  41.273  24.154  11.125
 9072W        W80798   9.694  37.338  13.839
 9073W        W80799   2.190  30.481   2.517
 9074W        W80800  13.740   9.806  11.026
 9075W        W80801  21.055  39.527   3.701
 9076W        W80802   6.005  12.446   2.286
 9077W        W80803  37.519  44.681   5.062
 9078W        W80804  29.070  23.038  11.998
 9079W        W80805  34.033  36.820   3.865
 9080W        W80806  39.804  27.688  10.484
 9081W        W80807  41.119  32.117  11.556
 9082W        W80808  17.156  26.193   3.870
 9083W        W80809  16.718  42.381   4.614
 9084W        W80810  20.948   7.177   0.846
 9085W        W80811   0.883   3.678  10.760
 9086W        W80812  21.871   1.019   4.511
 9087W        W80813  24.780  12.211   0.125
 9088W        W80814  35.045  37.799  13.307
 9089W        W80815  33.408  42.932  11.130
 9090W        W80816  10.063  23.197   4.552
 9091W        W80817   2.490   8.107  11.606
 9092W        W80818   5.757  19.877   3.125
 9093W        W80819  34.171  24.150  13.502
 9094W        W80820  19.555  20.681   3.114
 9095W        W80821  29.007   4.039  12.982
 9096W        W80822  36.093  25.636  13.348
 9097W        W80823  12.660  30.187   2.196
 9098W        W80824  31.844  12.775  14.252
 9099W        W80825  36.688  24.444  12.378
 9100W        W80826  35.752  11.764   2.239
 9101W        W80827   8.853   4.816  13.863
 9102W        W80828  22.159   2.250  12.521
 9103W        W80829   6.224  30.003   0.048
 9104W        W80830   5.079  21.990   0.875
 9105W        W80831  22.272  40.855   1.584
 9106W        W80832  10.650  26.979  11.393
 9107W        W80833  11.859  13.823   2.721
 9108W        W80834   4.676  43.419   3.649
 9109W        W80835  36.581   4.822  13.947
 9110W        W80836  19.245  22.511   1.293
 9111W        W80837  25.218  21.175   1.497
 9112W        W80838  44.916  22.695  11.570
 9113W        W80839   0.997   1.421   0.835
 9114W        W80840  23.291  19.010   3.578
 9115W        W80841  18.154  21.326  10.581
 9116W        W80842  30.429  20.758   1.301
 9117W        W80843  11.411  38.570  14.985
 9118W        W80844  18.516   6.519   4.640
 9119W        W80845  22.001  23.148   1.739
 9120W        W80846  22.697  13.040   0.359
 9121W        W80847  28.015   6.373   3.189
 9122W        W80848  18.203  44.358  13.750
 9123W        W80849   9.402  22.662   1.535
 9124W        W80850  29.604  27.966   3.224
 9125W        W80851  31.832  36.965   0.772
 9126W        W80852  11.478  24.621   1.716
 9127W        W80853   6.919  19.087   1.366
 9128W        W80854   4.863  24.754   1.763
 9129W        W80855  20.535  44.905   2.782
 9130W        W80856  19.839  39.376   1.122
 9131W        W80857   3.717  20.325   4.082
 9132W        W80858   1.710  33.439   5.008
 9133W        W80859  25.186  25.628   3.207
 9134W        W80860  34.002  11.626  12.317
 9135W        W80861  33.490  32.569   2.744
 9136W        W80862  30.846  33.999   1.314
 9137W        W80863   2.350  30.920   0.649
 9138W        W80864  20.845  15.366   1.288
 9139W        W80865  11.659   7.950  13.072
 9140W        W80866  38.806  39.280  11.591
 9141W        W80867   3.283  29.366   4.661
 9142W        W80868  44.633  37.400   0.805
 9143W        W80869  31.685  18.808  14.432
 9144W        W80870  13.578  38.638   0.401
 9145W        W80871  13.272  22.142   3.675
 9146W        W80872   0.745   7.645  12.003
 9147W        W80873  27.636  42.021   2.843
 9148W        W80874  20.112  28.124   2.391
 9149W        W80875  44.944  28.668  13.425
 9150W        W80876  38.831  29.189  10.715
 9151W        W80877  24.223  29.278   4.409
 9152W        W80878   9.301   5.921   3.617
 9153W        W80879  34.725  19.635   3.274
 9154W        W80880  10.817   9.684  14.616
 9155W        W80881   2.675  25.119  11.118
 9156W        W80882  28.038   0.057   1.299
 9157W        W80883   6.331  12.288  14.615
 9158W        W80884   8.902  40.123   5.030
 9159W        W80885  17.504  12.516   0.912
 9160W        W80886  18.633   7.577  14.070
 9161W        W80887  29.979  44.736  13.302
 9162W        W80888  30.506   0.160   0.958
 9163W        W80889  22.992  20.574  11.401
 9164W        W80890   4.513   4.488  13.844
 9165W        W80891   7.981  15.236   4.241
 9166W        W80892  40.559  10.236   3.412
 9167W        W80893   0.678   4.485   3.764
 9168W        W80894  43.950  32.859  11.193
 9169W        W80895  11.694  11.658   4.420
 9170W        W80896  17.834  32.826  11.637
 9171W        W80897  18.036   6.291  13.440
 9172W        W80898  10.852   1.460  12.916
 9173W        W80899  42.521   1.374  14.035
 9174W        W80900  12.586   7.298  12.128
 9175W        W80901  24.745   4.316  13.757
 9176W        W80902  21.645  37.349   3.569
 9177W        W80903  20.380  38.741  12.088
 9178W        W80904  42.962   1.258  13.286
 9179W        W80905  12.589   9.827   1.019
 9180W        W80906   2.001  17.652   0.806
 9181W        W80907   9.637   4.764   3.311
 9182W        W80908  42.004  32.929   0.350
 9183W        W80909  21.292  17.802  10.697
 9184W        W80910  41.467   3.309   3.233
 9185W        W80911  38.048  39.006  12.991
 9186W        W80912  24.248   7.742  12.118
 9187W        W80913  20.171  35.096   3.673
 9188W        W80914   8.146  35.834  14.965
 9189W        W80915  33.998  37.120  14.423
 9190W        W80916  22.520   9.645  12.396
 9191W        W80917  43.684  17.089   3.678
 9192W        W80918  22.238  12.531  11.594
 9193W        W80919  14.827  25.021  13.521
 9194W        W80920  28.067  44.451  11.115
 9195W        W80921  34.624  22.059  13.073
 9196W        W80922  22.827  12.812  10.685
 9197W        W80923  41.463  32.567   4.114
 9198W        W80924  36.634  19.212   1.793
 9199W        W80925  35.348  35.923   4.446
 9200W        W80926   7.803   1.382   2.246
 9201W        W80927  22.044  17.218   9.983
 9202W        W80928  35.245  29.720   1.331
 9203W        W80929  30.590  39.346  14.723
 9204W        W80930  30.880  19.397  12.530
 9205W        W80931  16.941   8.657   0.276
 9206W        W80932  11.203   6.170   3.133
 9207W        W80933  43.159  14.773  10.954
 9208W        W80934  35.455  15.260  10.762
 9209W        W80935   7.849   8.161  13.031
 9210W        W80936  28.884  36.515  11.098
 9211W        W80937  21.666  23.135   3.523
 9212W        W80938  26.233  27.076   3.599
 9213W        W80939  32.422   2.763   0.749
 9214W        W80940  14.847  28.575   0.871
 9215W        W80941   2.251  32.564  11.131
 9216W        W80942  38.476   7.172  10.856
 9217W        W80943  29.328  29.849  11.963
 9218W        W80944  18.275  44.030   1.551
 9219W        W80945  29.955  17.764  14.324
 9220W        W80946   1.844  23.505   1.344
 9221W        W80947  44.538  41.012  13.941
 9222W        W80948  13.408   4.746   3.509
 9223W        W80949   0.019   6.898   2.535
 9224W        W80950  44.509  32.866   4.037
 9225W        W80951  43.386  20.065  14.239
 9226W        W80952  44.745  37.896  13.021
 9227W        W80953  31.214  15.738  11.703
 9228W        W80954  40.999   2.830   2.209
 9229W        W80955  18.612  15.224  13.414
 9230W        W80956   2.554  14.104   5.085
 9231W        W80957  32.420  21.845  14.796
 9232W        W80958  32.171  34.061   0.264
 9233W        W80959  33.107   2.819  11.562
 9234W        W80960   0.693  19.622  12.087
 9235W        W80961  32.576   7.940   2.580
 9236W        W80962  42.312  23.445   2.442
 9237W        W80963   8.751  36.878   4.713
 9238W        W80964  40.711  26.129  12.410
 9239W        W80965  18.259  17.842  11.955
 9240W        W80966  20.664  39.305   0.789
 9241W        W80967  43.911  35.968  11.190
 9242W        W80968  15.297   5.697  12.064
 9243W        W80969  33.335  10.677   1.227
 9244W        W80970  11.561  38.030   2.204
 9245W        W80971  43.101   8.654  12.866
 9246W        W80972  42.806  17.202   4.698
 9247W        W80973  33.634  13.639   0.765
 9248W        W80974  29.739  25.475   0.308
 9249W        W80975   1.406  37.352   0.299
 9250W        W80976  35.344  11.141  10.746
 9251W        W80977  42.476  33.646   0.305
 9252W        W80978  10.680  39.376  13.315
 9253W        W80979   6.397  30.456   1.671
 9254W        W80980  32.684  19.332  13.773
 9255W        W80981   2.905  35.622  10.723
 9256W        W80982  24.531  42.980   1.269
 9257W        W80983  28.250  41.464  13.145
 9258W        W80984  32.086  41.687  11.890
 9259W        W80985  15.346  35.884   2.604
 9260W        W80986  18.795  17.618   2.261
 9261W        W80987  21.512   6.117   1.603
 9262W        W80988  28.487  12.395   1.925
 9263W        W80989   1.733  13.203   2.686
 9264W        W80990  11.187   3.874   2.699
 9265W        W80991  33.531  23.842   4.194
 9266W        W80992  14.917  12.208   3.740
 9267W        W80993  44.933  31.445  11.665
 9268W        W80994  37.067  11.826  13.556
 9269W        W80995  41.302  33.102  14.527
 9270W        W80996  28.005  19.439   3.113
 9271W        W80997  39.320  35.879  13.563
 9272W        W80998  10.079   8.081   3.412
 9273W        W80999  27.509  29.102  11.531
 9274W        W81000  39.547  32.229   1.069
 9275W        W81001   2.973  36.123  13.307
 9276W        W81002   6.190  10.862  14.519
 9277W        W81003  40.592   8.475   3.897
 9278W        W81004  22.444  29.390  12.835
 9279W        W81005  17.248  11.848  11.482
 9280W        W81006   4.973  31.554  14.718
 9281W        W81007  22.737  34.840  12.461
 9282W        W81008  15.457   9.605  14.862
 9283W        W81009  10.761   1.958  11.665
 9284W        W81010   7.930   1.406   1.372
 9285W        W81011  11.224  41.762   2.498
 9286W        W81012   6.482  19.676  12.598
 9287W        W81013  19.863  40.720   2.320
 9288W        W81014  27.837   3.328  12.029
 9289W        W81015   1.880  11.327  14.071
 9290W        W81016   7.119   9.109  11.666
 9291W        W81017  17.456   6.704   0.806
 9292W        W81018  34.681  36.880  12.462
 9293W        W81019  24.628  40.413   3.211
 9294W        W81020  14.852  17.331   2.653
 9295W        W81021  11.378  27.921  14.507
 9296W        W81022  33.415  27.928  14.185
 9297W        W81023  16.202  14.186  14.497
 9298W        W81024  40.262  11.249  14.235
 9299W        W81025  11.400  24.678  12.357
 9300W        W81026  12.549  16.846  11.271
 9301W        W81027   7.219  41.453  12.497
 9302W        W81028  19.666   4.291   3.982
 9303W        W81029  33.507  34.874   0.392
 9304W        W81030   4.240  21.849   0.957
 9305W        W81031  19.061  43.930   4.591
 9306W        W81032  27.378  37.137   1.404
 9307W        W81033  21.487  39.103  14.320
 9308W        W81034  21.466  41.417   1.675
 9309W        W81035   5.019  25.046  12.463
 9310W        W81036   9.687  37.466  10.261
 9311W        W81037  36.885  17.032  14.651
 9312W        W81038  42.725   4.786   0.692
 9313W        W81039   1.709  43.381   3.213
 9314W        W81040  21.640  14.344   0.430
 9315W        W81041  40.997   3.570  14.754
 9316W        W81042  30.238  29.032  14.333
 9317W        W81043  27.982  28.390   4.762
 9318W        W81044  31.595  24.703  11.973
 9319W        W81045  14.092  22.744   0.874
 9320W        W81046  18.876  12.603  10.478
 9321W        W81047  34.411  14.354  12.352
 9322W        W81048  39.509  20.638   1.821
 9323W        W81049  19.035  33.246  10.917
 9324W        W81050  31.590  23.356  12.300
 9325W        W81051   7.925   5.483  12.875
 9326W        W81052   2.812   6.965  14.739
 9327W        W81053  38.476   2.821  12.566
 9328W        W81054  42.034  10.352   0.886
 9329W        W81055  20.782  34.017   3.642
 9330W        W81056  32.655  26.470   3.693
 9331W        W81057  37.397  19.600   2.453
 9332W        W81058  11.308  33.902   2.738
 9333W        W81059  29.435  27.032  10.926
 9334W        W81060   3.749  23.025   3.090
 9335W        W81061  20.169   8.119  12.947
 9336W        W81062  17.866   3.367  13.874
 9337W        W81063   7.797  36.746   1.780
 9338W        W81064  26.309  38.783  12.164
 9339W        W81065  11.285  19.968   3.425
 9340W        W81066  43.085  37.447  10.658
 9341W        W81067  37.814  42.851   2.684
 9342W        W81068  22.230  10.670  11.857
 9343W        W81069  25.451  14.652  12.912
 9344W        W81070  18.145   7.245   3.128
 9345W        W81071  12.682   5.418  14.408
 9346W        W81072  11.732  39.342  13.522
 9347W        W81073  39.960   8.400  13.899
 9348W        W81074  11.702   5.035   0.287
 9349W        W81075  44.472  39.822  12.921
 9350W        W81076  20.157  41.039   4.200
 9351W        W81077  17.772   8.334   3.271
 9352W        W81078  41.908  21.243  10.685
 9353W        W81079  13.094  39.444   4.527
 9354W        W81080   4.976  30.070   3.386
 9355W        W81081  19.120   9.292  12.121
 9356W        W81082  32.162  24.087   2.133
 9357W        W81083  25.506   2.935   3.208
 9358W        W81084  29.877  22.182  11.497
 9359W        W81085  43.307  12.507  11.620
 9360W        W81086  12.873  22.802  13.625
 9361W        W81087   7.351  34.475  11.409
 9362W        W81088  19.559   4.968  12.809
 9363W        W81089  20.741  28.572   3.796
 9364W        W81090  11.433  17.084   3.296
 9365W        W81091  22.721   6.287   3.571
 9366W        W81092  16.300  33.377   3.797
 9367W        W81093  33.346   4.224  14.895
 9368W        W81094  21.928   0.347  11.118
 9369W        W81095  39.407   0.476   0.292
 9370W        W81096   0.800   5.875   3.751
 9371W        W81097  44.252  23.652   2.293
 9372W        W81098  16.348  28.086  11.962
 9373W        W81099  44.302  27.982   1.913
 9374W        W81100  19.144   4.152   2.430
 9375W        W81101  15.720  15.724  14.524
 9376W        W81102  40.718  16.350  13.291
 9377W        W81103   3.712   5.968  11.138
 9378W        W81104  21.497  15.608   4.260
 9379W        W81105   8.317  39.415  14.811
 9380W        W81106  13.204  43.734   3.232
 9381W        W81107  43.743  10.340   3.175
 9382W        W81108  41.444  26.406  12.646
 9383W        W81109  18.026  16.699  11.174
 9384W        W81110  11.610  16.761   4.838
 9385W        W81111  42.800  19.532   4.217
 9386W        W81112   8.595  33.582  11.898
 9387W        W81113  11.991  14.691   3.191
 9388W        W81114  12.836  32.560   0.054
 9389W        W81115   8.904  14.602   1.936
 9390W        W81116  39.881   1.476   0.534
 9391W        W81117  27.090  30.333   2.691
 9392W        W81118  27.583  15.573   0.241
 9393W        W81119  39.303  20.163   1.946
 9394W        W81120  37.133   8.357  13.609
 9395W        W81121   5.376   9.448  12.005
 9396W        W81122  25.719  38.433   2.196
 9397W        W81123   6.391   8.897  11.210
 9398W        W81124  23.287  13.355   3.452
 9399W        W81125  26.703   3.811   5.189
 9400W        W81126   2.316  27.788   2.368
 9401W        W81127  29.386   6.405  12.495
 9402W        W81128  27.030   4.200  12.494
 9403W        W81129  18.486  43.334   2.979
 9404W        W81130  24.744  13.630  14.435
 9405W        W81131  14.432  31.628   2.410
 9406W        W81132  40.021  22.265  13.711
 9407W        W81133   9.907   9.162  10.704
 9408W        W81134  19.763  17.653   1.789
 9409W        W81135  19.543  43.520  13.070
 9410W        W81136  12.289  10.165   4.100
 9411W        W81137   0.092  23.719  12.181
 9412W        W81138  26.160  36.486   2.635
 9413W        W81139   2.829  32.873   2.339
 9414W        W81140  11.083  42.602  14.408
 9415W        W81141  12.433  23.238  11.616
 9416W        W81142   8.325  42.458   4.462
 9417W        W81143  16.708  41.474   4.378
 9418W        W81144  27.706  42.972  10.542
 9419W        W81145  42.818  43.791  10.807
 9420W        W81146   8.647  32.557   4.632
 9421W        W81147  32.138  27.892   1.450
 9422W        W81148  34.552  31.424  13.798
 9423W        W81149  13.752  10.980   2.136
 9424W        W81150  42.832   8.319   4.118
 9425W        W81151  30.241  33.842   0.161
 9426W        W81152  40.908   8.130  14.106
 9427W        W81153  11.880  17.128   4.141
 9428W        W81154  19.798   4.339   3.491
 9429W        W81155  17.071  32.025  10.341
 9430W        W81156   8.856  43.644  12.832
 9431W        W81157   3.296  28.911   3.186
 9432W        W81158  20.483  26.548   3.018
 9433W        W81159  31.892  40.391  14.459
 9434W        W81160   0.708  12.710  11.987
 9435W        W81161  10.907  20.074   3.757
 9436W        W81162   8.741   5.756   1.250
 9437W        W81163  18.771  41.127  10.747
 9438W        W81164  35.816  27.855  14.955
 9439W        W81165  29.417  41.443   2.608
 9440W        W81166  30.558  36.250   4.191
 9441W        W81167   1.381   8.912  12.647
 9442W        W81168  18.278   5.158  13.434
 9443W        W81169   8.780  19.349  13.399
 9444W        W81170  39.420  26.552   4.406
 9445W        W81171  13.732  36.549  10.999
 9446W        W81172  21.621  12.242  10.715
 9447W        W81173  31.346  44.912  14.077
 9448W        W81174  44.308  34.135   1.264
 9449W        W81175  34.457   8.258   1.406
 9450W        W81176  40.613  30.231  13.841
 9451W        W81177  13.746  15.862   2.154
 9452W        W81178   8.215   9.961   1.655
 9453W        W81179  11.911  35.985  12.365
 9454W        W81180  13.605  22.192  10.992
 9455W        W81181  18.012  42.097   4.396
 9456W        W81182  42.610  29.183  10.750
 9457W        W81183  11.853  19.484  12.440
 9458W        W81184  28.835  33.832   2.385
 9459W        W81185  27.795  32.871  10.644
 9460W        W81186  36.860  20.564   3.358
 9461W        W81187  13.359  19.694   2.682
 9462W        W81188  30.812  34.076   4.165
 9463W        W81189  18.302   8.353  14.508
 9464W        W81190  39.112  31.877  14.841
 9465W        W81191  11.810  40.851  11.931
 9466W        W81192  11.865  42.403   1.351
 9467W        W81193  35.734  39.868  11.408
 9468W        W81194  10.841  31.110  10.622
 9469W        W81195  17.817   2.403   0.382
 9470W        W81196  29.481  17.308   4.077
 9471W        W81197  28.021  18.850   4.570
 9472W        W81198  26.661  12.565   3.662
 9473W        W81199  39.855  16.226   0.071
 9474W        W81200   4.663  17.680  14.989
 9475W        W81201  16.073  36.073  13.050
 9476W        W81202  10.301   8.773   4.066
 9477W        W81203   8.680  27.623  11.088
 9478W        W81204  31.353  10.877   1.296
 9479W        W81205   7.822  26.412  14.370
 9480W        W81206   1.646   8.199   0.421
 9481W        W81207  44.829  36.885   2.853
 9482W        W81208  14.687   2.925  12.559
 9483W        W81209  15.757  10.617  13.413
 9484W        W81210  29.955  23.062   4.209
 9485W        W81211  35.619  43.397  14.869
 9486W        W81212  40.306  16.046   0.328
 9487W        W81213   6.714  38.569   4.139
 9488W        W81214   8.953   6.283  14.272
 9489W        W81215  41.886  21.807   0.421
 9490W        W81216   5.550  27.719  11.876
 9491W        W81217  21.226  37.599  13.564
 9492W        W81218  40.052  15.885   3.686
 9493W        W81219  32.279  17.047   2.138
 9494W        W81220  24.732  29.209  12.030
 9495W        W81221  43.110   6.404   4.964
 9496W        W81222  37.728  28.691   1.662
 9497W        W81223   0.685  28.522  10.840
 9498W        W81224  27.060  23.727   4.314
 9499W        W81225  13.076   8.845  12.466
 9500W        W81226  40.393  29.262  11.358
 9501W        W81227  36.876  43.608  12.569
 9502W        W81228  40.744   9.604   0.308
 9503W        W81229  23.234  40.394  10.931
 9504W        W81230  19.325  43.334  12.547
 9505W        W81231  42.301  23.800  12.570
 9506W        W81232   5.321   7.667  14.628
 9507W        W81233  22.521  35.171   4.583
 9508W        W81234  37.384  34.905   4.304
 9509W        W81235   7.720  12.979  11.545
 9510W        W81236   3.421  30.078  11.998
 9511W        W81237   4.189   0.117   3.773
 9512W        W81238  37.047   7.627  12.458
 9513W        W81239  39.272  36.768   1.234
 9514W        W81240  17.119  30.192  12.892
 9515W        W81241  35.529  33.856   3.697
 9516W        W81242  38.352  18.046  13.909
 9517W        W81243  34.670  34.977  13.904
 9518W        W81244  12.227   1.417   0.785
 9519W        W81245  24.874   4.039   0.943
 9520W        W81246  37.641   2.421  11.469
 9521W        W81247   9.897  29.563   0.937
 9522W        W81248  12.860  28.965  11.965
 9523W        W81249  26.636  10.158   5.045
 9524W        W81250  18.406   0.538  12.234
 9525W        W81251  20.514  26.571  10.517
 9526W        W81252  37.793  19.546   1.775
 9527W        W81253  33.917   7.427   1.477
 9528W        W81254  31.189  20.987  14.966
 9529W        W81255  42.603   8.678  13.025
 9530W        W81256  41.267  29.569   3.836
 9531W        W81257  37.866  28.698   3.862
 9532W        W81258  21.561  18.865  11.491
 9533W        W81259   1.551  28.923  14.448
 9534W        W81260   3.962  39.555  13.987
 9535W        W81261  12.810  40.266   2.295
 9536W        W81262  12.929  35.082  13.718
 9537W        W81263   6.300   8.210   1.031
 9538W        W81264  21.763   7.801   1.709
 9539W        W81265  20.223   5.916  12.056
 9540W        W81266  29.371   5.418  13.561
 9541W        W81267   0.488  32.944   2.784
 9542W        W81268  23.697  40.218  12.979
 9543W        W81269  36.502  27.448  10.758
 9544W        W81270  14.021   8.318  14.444
 9545W        W81271  15.864   0.692  12.041
 9546W        W81272  17.480  17.824   0.366
 9547W        W81273  42.290  40.091  10.725
 9548W        W81274  11.173   3.787  14.929
 9549W        W81275  23.315   8.045   1.862
 9550W        W81276  10.174  36.474  13.325
 9551W        W81277  32.575  23.073   2.155
 9552W        W81278  37.766  19.689   0.234
 9553W        W81279   8.724  24.525  11.042
 9554W        W81280  37.821  37.038  11.437
 9555W        W81281  27.012  43.001   4.570
 9556W        W81282  17.075  33.983  14.081
 9557W        W81283  16.898   9.368   3.174
 9558W        W81284   1.783  40.576  14.849
 9559W        W81285  15.356   2.236  14.433
 9560W        W81286  38.134  41.063  10.653
 9561W        W81287   1.271  38.077   3.245
 9562W        W81288  13.045   8.432  12.161
 9563W        W81289  42.377  26.048   4.551
 9564W        W81290  17.855  30.111  12.435
 9565W        W81291  27.280  34.849   2.409
 9566W        W81292  28.503   4.830  10.349
 9567W        W81293  37.536   7.148  11.160
 9568W        W81294  32.775   9.958  10.539
 9569W        W81295  35.907   2.443  10.748
 9570W        W81296  28.981   9.135   1.673
 9571W        W81297  43.433  25.128   1.884
 9572W        W81298  25.036  16.180  13.455
 9573W        W81299   4.865   2.666   1.847
 9574W        W81300  28.534   1.006  13.783
 9575W        W81301  29.037  42.742   1.900
 9576W        W81302   5.157   4.254  14.828
 9577W        W81303  19.919  37.701  12.066
 9578W        W81304   9.752  18.515   0.608
 9579W        W81305  43.020  37.519  14.150
 9580W        W81306   2.481   9.512  14.812
 9581W        W81307   8.882  39.830   1.853
 9582W        W81308  33.402  15.351   0.948
 9583W        W81309  37.425  40.950  14.926
 9584W        W81310  18.024  16.181   4.517
 9585W        W81311  21.604  20.219   3.635
 9586W        W81312   6.890  29.126  11.399
 9587W        W81313  38.558   8.925  10.222
 9588W        W81314   5.328   9.349   3.931
 9589W        W81315  23.866  29.323  11.260
 9590W        W81316  26.045  44.842   1.309
 9591W        W81317  34.501  41.138   1.797
 9592W        W81318  35.345  36.012   3.293
 9593W        W81319  26.426  13.778  11.849
 9594W        W81320  21.950  23.450   3.900
 9595W        W81321  27.957  24.909  14.997
 9596W        W81322  34.004  32.651   4.964
 9597W        W81323  21.682  44.878  11.964
 9598W        W81324  16.291   3.923   4.462
 9599W        W81325  35.033  44.298   4.152
 9600W        W81326   2.682  11.625   4.208
 9601W        W81327  40.408  22.783   3.233
 9602W        W81328  37.365  41.708   4.685
 9603W        W81329  28.023  21.993  13.435
 9604W        W81330  40.670  29.526   0.422
 9605W        W81331  40.933   7.315  12.971
 9606W        W81332   9.723  28.027  14.831
 9607W        W81333  19.157  23.183   1.665
 9608W        W81334  21.631  34.014  12.918
 9609W        W81335  38.040  34.607  12.694
 9610W        W81336   8.690  28.041  12.063
 9611W        W81337  18.364  16.775   1.227
 9612W        W81338   4.804  31.347   4.144
 9613W        W81339  20.080   0.833   3.212
 9614W        W81340  11.593  34.987  12.753
 9615W        W81341  36.853  22.560  11.674
 9616W        W81342  36.251   7.772  11.231
 9617W        W81343  19.770  13.728  11.426
 9618W        W81344  26.619  40.069   2.273
 9619W        W81345   6.691   6.385   1.936
 9620W        W81346  16.923  34.618   4.292
 9621W        W81347   8.092  42.613   2.696
 9622W        W81348  29.457  38.021   4.828
 9623W        W81349  29.130  37.749  12.959
 9624W        W81350   7.129  11.177   1.443
 9625W        W81351  16.285   2.041   2.296
 9626W        W81352  35.926   5.339   3.658
 9627W        W81353   0.521  36.003  11.992
 9628W        W81354  40.636  28.645  10.775
 9629W        W81355   2.351  25.222   3.146
 9630W        W81356  10.787  14.857   2.634
 9631W        W81357  15.597  37.939   2.390
 9632W        W81358  35.743  34.518   4.684
 9633W        W81359   5.379   2.855   1.072
 9634W        W81360  17.814  17.658  12.147
 9635W        W81361  16.238  35.317   4.105
 9636W        W81362  23.910  16.721  14.429
 9637W        W81363   4.723  19.145  13.001
 9638W        W81364   0.952   4.702   2.216
 9639W        W81365  23.261  42.961   1.742
 9640W        W81366  42.914  35.855  14.306
 9641W        W81367   1.957   4.276  10.445
 9642W        W81368  10.220  29.122   4.211
 9643W        W81369  39.682   0.138   1.871
 9644W        W81370   2.651  43.861  14.306
 9645W        W81371  21.047  40.730   4.134
 9646W        W81372  17.171  29.608  12.200
 9647W        W81373  22.728  24.496   1.305
 9648W        W81374  41.389  17.725  14.118
 9649W        W81375  41.444  33.113   4.767
 9650W        W81376  12.345  13.265   4.435
 9651W        W81377   1.772  10.052  14.595
 9652W        W81378  18.831  34.971   0.595
 9653W        W81379  22.807   2.972   2.263
 9654W        W81380  33.379  38.794  12.029
 9655W        W81381  39.520  14.630   4.873
 9656W        W81382  34.578  16.542   2.347
 9657W        W81383  44.197  21.718   0.826
 9658W        W81384  43.046  18.682  13.450
 9659W        W81385  18.627  21.720   1.499
 9660W        W81386  18.317  38.434  14.041
 9661W        W81387  41.669  12.218  13.032
 9662W        W81388  18.353  30.587  10.643
 9663W        W81389  15.841   3.342  13.785
 9664W        W81390   9.303  20.653   0.069
 9665W        W81391   8.817  27.987  12.959
 9666W        W81392  25.973   4.535  14.382
 9667W        W81393  24.463  29.055   3.073
 9668W        W81394  11.404   1.487  11.213
 9669W        W81395   0.609  18.321  11.458
 9670W        W81396  23.232  21.697  12.938
 9671W        W81397  12.101  34.572  13.459
 9672W        W81398  37.416  11.869  11.443
 9673W        W81399   6.884  34.629  10.677
 9674W        W81400  18.971   5.807   4.674
 9675W        W81401  12.957  20.741   3.237
 9676W        W81402  34.554   8.932  12.388
 9677W        W81403   6.328  10.171  12.906
 9678W        W81404  18.748  19.472  14.025
 9679W        W81405   0.536  42.748   1.992
 9680W        W81406   1.170  26.575   1.992
 9681W        W81407  21.734  25.041  12.802
 9682W        W81408  14.854  36.653   3.973
 9683W        W81409  41.773   5.743  11.494
 9684W        W81410  29.172  35.943   4.603
 9685W        W81411  26.317  41.936   0.126
 9686W        W81412  42.950  16.989  13.875
 9687W        W81413  23.258  41.886   3.090
 9688W        W81414  31.100  21.145  12.603
 9689W        W81415   9.886  29.271  12.758
 9690W        W81416  13.233  17.151  11.240
 9691W        W81417  43.434  14.065  14.858
 9692W        W81418  26.470  16.790  13.920
 9693W        W81419   9.169  17.273  13.617
 9694W        W81420  19.560  30.100  11.903
 9695W        W81421  43.546  40.624  13.974
 9696W        W81422  15.714   7.660  13.319
 9697W        W81423  31.080   4.904   0.320
 9698W        W81424   6.145  28.553  12.359
 9699W        W81425   2.206  21.480   0.749
 9700W        W81426  12.369  22.025  11.545
 9701W        W81427  37.139  40.375  13.420
 9702W        W81428  19.186  20.684  13.298
 9703W        W81429  35.804  32.399  11.122
 9704W        W81430   4.307  36.699   2.292
 9705W        W81431  31.155  12.913  10.907
 9706W        W81432  12.172  43.665  13.590
 9707W        W81433   0.694  36.558  13.067
 9708W        W81434   5.163  12.113  11.212
 9709W        W81435  36.534  34.593  13.955
 9710W        W81436   8.568  31.576   4.364
 9711W        W81437  31.567  15.435  10.113
 9712W        W81438  18.065  10.018  12.368
 9713W        W81439  16.517   0.258  11.561
 9714W        W81440  22.133  13.382   2.224
 9715W        W81441  10.267   8.448  14.010
 9716W        W81442  26.218  40.468  14.543
 9717W        W81443  15.581   2.221   0.757
 9718W        W81444  12.284  33.368  14.066
 9719W        W81445  19.690   8.943   2.218
 9720W        W81446  11.729  38.956   2.418
 9721W        W81447  39.369  22.267   0.472
 9722W        W81448   4.898  20.390   3.335
 9723W        W81449   8.382  14.084   4.304
 9724W        W81450  26.009  29.437   0.392
 9725W        W81451   1.009  14.644   0.408
 9726W        W81452  13.390   6.949  11.991
 9727W        W81453   9.135   8.966  13.494
 9728W        W81454  35.565   0.486   2.988
 9729W        W81455   8.655  28.589  12.031
 9730W        W81456  28.718  43.367   4.463
 9731W        W81457  24.122  43.464   3.453
 9732W        W81458  44.308  36.541  13.694
 9733W        W81459   6.397  31.184   2.369
 9734W        W81460   1.829   9.564   4.806
 9735W        W81461  13.296  40.756   0.184
 9736W        W81462  25.496  21.902  14.546
 9737W        W81463  39.483  23.694  11.220
 9738W        W81464  14.080  28.929  10.722
 9739W        W81465  10.473  28.679   4.264
 9740W        W81466  28.404  13.870  14.846
 9741W        W81467  18.482  19.416   2.027
 9742W        W81468  33.036  41.365  11.498
 9743W        W81469  36.558  40.791  11.609
 9744W        W81470   0.795   6.754  12.215
 9745W        W81471  27.109   0.820  12.662
 9746W        W81472  40.551  23.109  10.414
 9747W        W81473  29.079   8.354   4.721
 9748W        W81474  18.383   9.122  13.455
 9749W        W81475  26.627  20.882   0.107
 9750W        W81476   4.316  23.470  11.982
 9751W        W81477  36.659   7.859   2.812
 9752W        W81478  35.253  23.627  12.800
 9753W        W81479   3.083   8.845   5.014
 9754W        W81480  23.634  25.320  10.094
 9755W        W81481   5.909  12.269  13.336
 9756W        W81482   3.356  43.857   4.808
 9757W        W81483  34.987  31.441  13.229
 9758W        W81484  14.690  17.258  11.301
 9759W        W81485  37.456  10.976  10.483
 9760W        W81486  36.033   5.963  13.531
 9761W        W81487  38.354   3.130   0.390
 9762W        W81488  39.790  36.191  10.747
 9763W        W81489  34.599  38.008   4.178
 9764W        W81490  31.011   7.742   3.594
 9765W        W81491  22.937  42.848  12.090
 9766W        W81492   9.501  40.116  13.397
 9767W        W81493  26.403  21.539  14.204
 9768W        W81494  43.939  42.274  12.681
 9769W        W81495  24.514  16.356   2.409
 9770W        W81496  29.656   9.867  11.587
 9771W        W81497  18.861  21.166  11.051
 9772W        W81498   1.352   7.771   2.705
 9773W        W81499   5.123   5.425  13.935
 9774W        W81500   3.163   3.254  12.767
 9775W        W81501   0.703  43.876   0.746
 9776W        W81502  43.814  10.315  11.702
 9777W        W81503  29.736  25.530   3.267
 9778W        W81504  40.353   0.917  10.770
 9779W        W81505  26.057  37.454   2.135
 9780W        W81506  29.401  27.538  13.069
 9781W        W81507  41.161  30.981  14.379
 9782W        W81508  30.049  17.565   3.243
 9783W        W81509  23.305   3.658  14.504
 9784W        W81510  24.059  40.817  11.974
 9785W        W81511  14.805  29.036  13.557
 9786W        W81512  20.120   8.224   4.398
 9787W        W81513  39.213  25.271   5.003
 9788W        W81514   0.764  40.868  10.748
 9789W        W81515  29.595   0.588  14.801
 9790W        W81516  15.250  31.275  11.401
 9791W        W81517  13.645   0.463  13.059
 9792W        W81518  40.891  39.597  12.553
 9793W        W81519  17.132  42.049  12.545
 9794W        W81520   8.792  22.707   1.832
 9795W        W81521  27.462  27.591   0.018
 9796W        W81522  29.734   2.964  14.400
 9797W        W81523  10.632  23.117   2.802
 9798W        W81524  15.115  22.925   1.224
 9799W        W81525  21.524  22.726  11.586
 9800W        W81526   3.357  39.785  14.726
 9801W        W81527  16.576  25.302   0.363
 9802W        W81528  11.663   6.856   3.611
 9803W        W81529  35.971  36.717  12.969
 9804W        W81530  35.753  12.621   0.335
 9805W        W81531  17.335  33.358   2.986
 9806W        W81532  29.028  12.345  10.771
 9807W        W81533  11.285  35.636  14.390
 9808W        W81534  29.832  38.115  11.223
 9809W        W81535   5.539  34.684  10.217
 9810W        W81536   3.059  27.733  14.983
 9811W        W81537  10.305   6.896   3.977
 9812W        W81538  31.844   2.858  13.133
 9813W        W81539  31.139  34.426   1.183
 9814W        W81540  27.385  38.804  11.376
 9815W        W81541   1.205  25.813   3.168
 9816W        W81542  33.950  30.879  12.511
 9817W        W81543   6.162   6.670  11.041
 9818W        W81544   6.907  37.493  11.488
 9819W        W81545  29.800   0.016   1.195
 9820W        W81546   1.315  39.891   3.681
 9821W        W81547  43.020   3.374   0.968
 9822W        W81548  18.812  36.897   3.220
 9823W        W81549  36.493  36.989   1.212
 9824W        W81550  15.571  16.439  12.689
 9825W        W81551  33.091  36.030  10.898
 9826W        W81552  25.900  34.631   1.505
 9827W        W81553  36.370  12.921  13.135
 9828W        W81554  38.402  40.546   2.768
 9829W        W81555  27.662   8.360  12.205
 9830W        W81556  37.862  38.422   0.310
 9831W        W81557  22.667  25.417   4.401
 9832W        W81558  18.136  35.029   4.707
 9833W        W81559  33.483   9.331   3.015
 9834W        W81560  15.286  25.986  11.203
 9835W        W81561  28.827  39.083   1.755
 9836W        W81562  26.423  20.284   0.959
 9837W        W81563   1.027   2.204  13.894
 9838W        W81564   3.740  21.525  13.331
 9839W        W81565  19.058  30.134  10.661
 9840W        W81566  33.390  23.771  14.737
 9841W        W81567  14.035  41.370   4.194
 9842W        W81568  25.081   4.508  14.995
 9843W        W81569  40.497  37.434   4.557
 9844W        W81570   2.783  17.677   0.351
 9845W        W81571  35.001   4.213   3.605
 9846W        W81572  35.873  40.715  13.832
 9847W        W81573   1.815   8.919   4.028
 9848W        W81574  31.525  14.095  11.185
 9849W        W81575  21.929  42.825  14.977
 9850W        W81576  26.083  27.736  10.377
 9851W        W81577  37.895   1.360   2.448
 9852W        W81578  40.843  34.091   1.475
 9853W        W81579   1.197  25.603   0.057
 9854W        W81580   1.994   7.161   3.091
 9855W        W81581  36.800  12.627  13.058
 9856W        W81582   9.712   8.299   1.675
 9857W        W81583   1.922  44.270  13.896
 9858W        W81584  11.149  30.463   2.728
 9859W        W81585  12.525   7.874   3.159
 9860W        W81586  38.423  40.384   1.771
 9861W        W81587   4.736  29.518  12.050
 9862W        W81588  25.673  33.167  13.948
 9863W        W81589  24.007  11.878   0.498
 9864W        W81590  39.089  14.793  11.041
 9865W        W81591   3.808  39.962  12.666
 9866W        W81592  23.018  29.653   1.908
 9867W        W81593   8.276  17.302  13.936
 9868W        W81594  12.902  34.089   3.003
 9869W        W81595  19.667   8.221  13.226
 9870W        W81596   4.665  23.538  14.840
 9871W        W81597  41.648   8.753   2.526
 9872W        W81598  39.409  16.070   2.422
 9873W        W81599   4.362  23.326  12.487
 9874W        W81600  16.588  42.403  11.936
 9875W        W81601  31.285  30.627  14.909
 9876W        W81602  43.109  12.796  13.054
 9877W        W81603  31.928   8.874  13.493
 9878W        W81604  28.109  15.617  12.931
 9879W        W81605  28.603  10.733   2.302
 9880W        W81606   4.210  30.542  14.344
 9881W        W81607  26.950  40.876   3.201
 9882W        W81608   2.614  19.471  12.048
 9883W        W81609  15.075  10.705  14.380
 9884W        W81610  21.981   8.376   2.287
 9885W        W81611   5.733  39.135  12.615
 9886W        W81612  44.786  32.176  14.814
 9887W        W81613  43.739  10.809  11.983
 9888W        W81614  14.278   7.581  11.034
 9889W        W81615  27.194   7.670   2.623
 9890W        W81616  41.071   1.914  11.148
 9891W        W81617  38.417  12.171  12.019
 9892W        W81618   7.353  18.013  12.071
 9893W        W81619   9.819  23.642   4.658
 9894W        W81620  34.537   6.669   1.811
 9895W        W81621  22.556  26.803  13.397
 9896W        W81622  36.298  12.326  10.637
 9897W        W81623  22.496  36.907   3.666
 9898W        W81624  22.498   7.218  12.580
 9899W        W81625  39.517  14.824  14.007
 9900W        W81626  25.625  34.826  13.500
 9901W        W81627  36.337  23.150  13.847
 9902W        W81628   8.041  43.623   2.990
 9903W        W81629  31.086  14.437  14.390
 9904W        W81630  28.537   5.864  12.359
 9905W        W81631  26.351  24.287   4.124
 9906W        W81632   7.914  26.175  13.923
 9907W        W81633  26.596  42.897   4.870
 9908W        W81634  40.767  26.242   0.772
 9909W        W81635  22.265  11.684  10.711
 9910W        W81636   6.823  11.584   0.218
 9911W        W81637   2.852  12.891   2.223
 9912W        W81638  20.693  21.780   0.327
 9913W        W81639   9.153  20.879   3.707
 9914W        W81640  32.066  39.481   2.352
 9915W        W81641  21.272  27.265   2.812
 9916W        W81642  31.022  12.155   2.147
 9917W        W81643  23.411   3.953   3.667
 9918W        W81644  11.796  13.883   4.513
 9919W        W81645  24.154   6.124   1.745
 9920W        W81646  28.169  22.252  11.492
 9921W        W81647  20.533   5.150  12.466
 9922W        W81648  39.386  26.173   4.070
 9923W        W81649   6.124  17.221  10.670
 9924W        W81650  20.818  44.941  10.174
 9925W        W81651  36.155  13.047   1.809
 9926W        W81652   1.451  42.699  13.123
 9927W        W81653   9.265  14.447  13.260
 9928W        W81654  20.321  19.232  11.207
 9929W        W81655  25.484  23.041  13.132
 9930W        W81656  38.583  35.856  10.416
 9931W        W81657  43.915  18.507  14.742
 9932W        W81658   2.327  22.883   3.861
 9933W        W81659  16.034  40.817  14.939
 9934W        W81660  44.952   8.684  12.612
 9935W        W81661  31.912  43.416   4.267
 9936W        W81662  27.201   0.451   5.490
 9937W        W81663  10.612  23.580  13.537
 9938W        W81664  31.786  32.951   0.471
 9939W        W81665   7.053  32.548   3.754
 9940W        W81666  17.091  40.371   0.715
 9941W        W81667  20.933   4.736   4.916
 9942W        W81668   0.884  35.849  11.542
 9943W        W81669  44.908  11.846  11.771
 9944W        W81670  41.846  31.897  12.064
 9945W        W81671   8.284  41.956  11.228
 9946W        W81672  24.476  27.520  12.806
 9947W        W81673   8.711  12.353  13.385
 9948W        W81674  21.482  31.629  12.068
 9949W        W81675  24.852  28.947   2.684
 9950W        W81676  40.805  25.010   3.645
 9951W        W81677  27.653  14.052  13.156
 9952W        W81678  29.426  42.465   1.129
 9953W        W81679  25.234  43.994   1.180
 9954W        W81680  10.607  22.489   2.316
 9955W        W81681  31.166  28.887   0.916
 9956W        W81682  11.857  17.253   3.592
 9957W        W81683  33.038  31.452  13.428
 9958W        W81684  11.574  29.501  14.674
 9959W        W81685  34.786   5.804   0.340
 9960W        W81686  22.010   7.665   3.332
 9961W        W81687  25.741  40.318  14.639
 9962W        W81688   2.762  41.101   2.341
 9963W        W81689  35.956  25.543   4.551
 9964W        W81690   2.513  34.300   4.296
 9965W        W81691  14.760  32.843   1.838
 9966W        W81692   3.349  42.013   4.574
 9967W        W81693  35.294   7.029   2.191
 9968W        W81694  19.811  38.768   3.810
 9969W        W81695  19.005  31.714  12.040
 9970W        W81696  21.743  36.379  13.510
 9971W        W81697  23.499   9.175   1.888
 9972W        W81698  19.959  11.800   2.744
 9973W        W81699  24.957  28.573  11.115
 9974W        W81700  35.956  21.262   4.002
 9975W        W81701  12.174  21.137  13.386
 9976W        W81702   5.649   2.746  14.960
 9977W        W81703  22.104  30.519   4.038
 9978W        W81704  35.095  32.558  12.490
 9979W        W81705  30.269  10.292  11.140
 9980W        W81706  23.136  41.414  13.579
 9981W        W81707  11.212   3.402   3.202
 9982W        W81708  16.508  35.311   3.283
 9983W        W81709  18.713  35.880  11.633
 9984W        W81710  27.048  11.056  14.971
 9985W        W81711  10.391  33.497   4.400
 9986W        W81712  19.004  16.530   4.293
 9987W        W81713   1.655  23.108  10.657
 9988W        W81714  43.537  22.563  14.528
 9989W        W81715  20.128  34.460  12.200
 9990W        W81716  12.722   9.211   4.621
 9991W        W81717  16.767  17.054  13.251
 9992W        W81718  23.664   7.648   4.185
 9993W        W81719  35.324  14.238   3.854
 9994W        W81720   8.314  23.173   1.388
 9995W        W81721  31.413  32.544  10.616
 9996W        W81722   3.434  28.064  14.944
 9997W        W81723  35.239  20.093   3.644
 9998W        W81724   1.979  32.382   3.082
 9999W        W81725   9.817   1.454  10.744
10000W        W81726  18.716   7.273   3.309
10001W        W81727  13.258  35.282   3.352
10002W        W81728  10.261  25.795   5.475
10003W        W81729  11.530  22.863   0.893
10004W        W81730  32.105  13.726  13.048
10005W        W81731   4.738  15.577   1.386
10006W        W81732  12.375  19.670   2.891
10007W        W81733   4.331  21.140   0.935
10008W        W81734  34.673  36.473   4.772
10009W        W81735  15.788  22.525  11.955
10010W        W81736  11.709   2.690  14.047
10011W        W81737   3.881  35.282  10.852
10012W        W81738   8.917  43.138   2.829
10013W        W81739  20.127  31.322  13.363
10014W        W81740  43.012  11.759  13.194
10015W        W81741   5.051   1.262  12.439
10016W        W81742   0.263   9.159  14.930
10017W        W81743  21.607  11.319  12.862
10018W        W81744  44.601   0.868   4.884
10019W        W81745  14.835  31.803  12.242
10020W        W81746  15.634  16.639  12.188
10021W        W81747  14.798  44.848   0.501
10022W        W81748  24.751   0.607   4.574
10023W        W81749   7.842  11.833  12.351
10024W        W81750  32.141   2.503  13.446
10025W        W81751  27.338  10.300  10.716
10026W        W81752   3.904  23.849  14.678
10027W        W81753  18.301   4.469   1.545
10028W        W81754  39.759  23.670   2.346
10029W        W81755  31.450   0.937  10.717
10030W        W81756   1.357  24.149   1.661
10031W        W81757  19.582  39.960   4.969
10032W        W81758  31.001  27.550  13.575
10033W        W81759  20.010  10.388   1.399
10034W        W81760  42.961  18.013   1.225
10035W        W81761  39.403  34.999   2.345
10036W        W81762   5.879  21.287  14.897
10037W        W81763  23.068  35.003  11.922
10038W        W81764   2.564  16.406  12.393
10039W        W81765  32.760  16.048   1.296
10040W        W81766  35.554  42.095  14.789
10041W        W81767   4.720  29.617   2.259
10042W        W81768  27.756  42.063   1.465
10043W        W81769  11.722  33.158   0.990
10044W        W81770  37.121  24.045  10.601
10045W        W81771   6.186  18.277  14.346
10046W        W81772  44.289  22.933   1.745
10047W        W81773   9.883   9.211   1.205
10048W        W81774  22.967  23.533  14.003
10049W        W81775  19.646   9.863   0.799
10050W        W81776   8.311  21.167   4.136
10051W        W81777  11.529  21.946  13.839
10052W        W81778  19.499   8.651   1.366
10053W        W81779   1.789   3.539   4.630
10054W        W81780  24.903  32.324   4.232
10055W        W81781  37.892  21.702   1.474
10056W        W81782  20.010   1.315   0.787
10057W        W81783  36.500   8.893   2.842
10058W        W81784  32.910   1.736  10.737
10059W        W81785  21.710  39.409  13.290
10060W        W81786  12.846  21.130  11.520
10061W        W81787  41.082  26.478   3.994
10062W        W81788  23.041  36.036  12.450
10063W        W81789  26.699  30.875  10.717
10064W        W81790   2.990  39.064  10.638
10065W        W81791  18.921  34.049   3.512
10066W        W81792  31.944   2.016   0.748
10067W        W81793  38.324  38.327  13.859
10068W        W81794  32.656  12.907  13.333
10069W        W81795   9.201  12.144  13.070
10070W        W81796  13.013  41.398   4.236
10071W        W81797   6.135   5.929   4.718
10072W        W81798  10.832   1.690  13.547
10073W        W81799   6.455  14.174  13.970
10074W        W81800  25.440  30.105  12.900
10075W        W81801   1.114  19.959   2.718
10076W        W81802  10.501  36.129  10.455
10077W        W81803  11.362  44.848   3.663
10078W        W81804   6.868   5.180  14.305
10079W        W81805  44.918  30.489  13.946
10080W        W81806   2.256   9.263   4.684
10081W        W81807  19.214  40.568  14.865
10082W        W81808  35.647  27.434   0.924
10083W        W81809   0.096  15.833   0.355
10084W        W81810  32.765  42.218  13.936
10085W        W81811  19.304  26.812   2.808
10086W        W81812   7.718  13.253  10.411
10087W        W81813  24.590  10.878   2.958
10088W        W81814   9.893   1.755  13.632
10089W        W81815  20.829  42.506   4.382
10090W        W81816  12.795  28.595  10.725
10091W        W81817   1.970  21.569   3.068
10092W        W81818  32.848  24.300  14.421
10093W        W81819   1.656  44.442   0.191
10094W        W81820  35.104  29.545   4.126
10095W        W81821   8.354  16.054   3.260
10096W        W81822   0.029   5.798  13.938
10097W        W81823   3.328  18.331  11.621
10098W        W81824   2.508  15.299   0.858
10099W        W81825  11.691   9.469   2.880
10100W        W81826   1.329  24.301   4.547
10101W        W81827   9.077  19.016  13.809
10102W        W81828  30.360  12.169  12.741
10103W        W81829   2.233  31.652  11.973
10104W        W81830  10.974  24.997   4.813
10105W        W81831  29.095  41.027   2.753
10106W        W81832  25.169  13.357  11.141
10107W        W81833  27.606  37.594   1.380
10108W        W81834  11.384   6.320  12.688
10109W        W81835  22.041  20.411   0.743
10110W        W81836  26.167  25.051  14.918
10111W        W81837  37.626  42.225  14.811
10112W        W81838  37.097  23.543   0.286
10113W        W81839   6.232  18.879   4.270
10114W        W81840  24.226  10.723   3.303
10115W        W81841  32.721  16.238   4.081
10116W        W81842  11.058  18.794  12.582
10117W        W81843  21.231  19.196   4.763
10118W        W81844  44.359  16.259  11.843
10119W        W81845   7.330  17.810   2.674
10120W        W81846  18.848  33.422  13.895
10121W        W81847  42.430  11.199  11.076
10122W        W81848  29.337  14.059  14.036
10123W        W81849  17.822  26.992  14.071
10124W        W81850  31.583   4.870   9.937
10125W        W81851  30.200  20.107  12.489
10126W        W81852  11.866  38.355  13.537
10127W        W81853  39.532  35.967   0.864
10128W        W81854  35.868  37.485  12.313
10129W        W81855  17.027  19.262  13.965
10130W        W81856   8.404  44.059   0.375
10131W        W81857  17.025  35.129  13.059
10132W        W81858   4.407  19.607  11.918
10133W        W81859  16.886  13.874   2.812
10134W        W81860  16.788   1.775   2.338
10135W        W81861  23.091  14.100  10.662
10136W        W81862  33.887  41.821   3.132
10137W        W81863  25.395  32.686   0.362
10138W        W81864  11.492  11.612   2.703
10139W        W81865  39.507   2.753  14.512
10140W        W81866  17.156  31.658   2.524
10141W        W81867  31.494  38.528  14.822
10142W        W81868  17.034   4.807  13.030
10143W        W81869   7.301   7.953  11.516
10144W        W81870  11.244  22.551  11.454
10145W        W81871  12.179  18.458   1.829
10146W        W81872   1.578  42.806  10.732
10147W        W81873  43.306  10.739  12.935
10148W        W81874   3.534  25.227  12.532
10149W        W81875  22.680  38.357   2.694
10150W        W81876  34.910  14.594   2.292
10151W        W81877  30.863   3.168   3.395
10152W        W81878  35.864  36.084  12.007
10153W        W81879   4.321  40.949   3.120
10154W        W81880  11.756  26.120  14.959
10155W        W81881  36.161  37.178  11.221
10156W        W81882  14.391  44.812   4.512
10157W        W81883  22.617  15.645  14.827
10158W        W81884  35.346  22.251   3.638
10159W        W81885  43.826  22.065  13.518
10160W        W81886  11.680  44.369   0.504
10161W        W81887  38.307  15.413   4.895
10162W        W81888   4.200  35.431   0.870
10163W        W81889  32.866  10.802   0.377
10164W        W81890   0.355  40.352   0.282
10165W        W81891  22.915  37.148  12.437
10166W        W81892  29.951  11.248   1.802
10167W        W81893  32.962   7.859  12.955
10168W        W81894  43.519  13.325  12.132
10169W        W81895  19.982  30.999  12.534
10170W        W81896  37.433  36.470   3.325
10171W        W81897  29.556  16.306  11.207
10172W        W81898  18.173  27.975   0.502
10173W        W81899  40.225  15.956   4.792
10174W        W81900  37.357   4.347   1.356
10175W        W81901   0.243  11.942   1.937
10176W        W81902  26.879  21.042  13.438
10177W        W81903   3.006  35.983  14.714
10178W        W81904  18.796  20.256  12.077
10179W        W81905  28.675  38.629   3.686
10180W        W81906  25.838   3.174   4.090
10181W        W81907   9.423  11.134   3.108
10182W        W81908   0.989  35.901   3.129
10183W        W81909   0.423  33.472   2.843
10184W        W81910  20.047  38.840  12.485
10185W        W81911  19.117  37.111   2.249
10186W        W81912  11.899   0.919  11.904
10187W        W81913  23.720  44.826   3.174
10188W        W81914   8.095  37.444   0.861
10189W        W81915  32.454  32.866  12.828
10190W        W81916   4.484   7.760   4.925
10191W        W81917  34.497  17.815   2.326
10192W        W81918  25.922  37.816   2.953
10193W        W81919  14.580   3.822   3.809
10194W        W81920  17.135  22.436   9.941
10195W        W81921  23.751  27.609   9.774
10196W        W81922  24.984   1.246   0.723
10197W        W81923   6.714   5.388  10.841
10198W        W81924   9.302  32.985   2.330
10199W        W81925   0.739  17.600  11.675
10200W        W81926  26.928  33.632   3.139
10201W        W81927  28.118  15.919   0.396
10202W        W81928  21.067  11.141   0.142
10203W        W81929  34.031  44.748  12.051
10204W        W81930  35.301  16.719   1.857
10205W        W81931  38.812   3.232   0.211
10206W        W81932  18.243   2.220  12.523
10207W        W81933   2.935   9.514   0.054
10208W        W81934  34.982   3.870   2.297
10209W        W81935  17.812  21.343   1.224
10210W        W81936  34.414  33.034   0.455
10211W        W81937  37.629  39.966   0.374
10212W        W81938  27.459  20.400  11.667
10213W        W81939   9.430  10.862  12.093
10214W        W81940  28.043  16.077   3.102
10215W        W81941  12.152   5.382  11.455
10216W        W81942  22.017  35.832   2.800
10217W        W81943  24.130  15.247  11.160
10218W        W81944  34.311  33.021  12.130
10219W        W81945  41.364  22.577  12.534
10220W        W81946  43.738  36.312   4.440
10221W        W81947  43.910   3.955  13.900
10222W        W81948  24.584   0.866   2.585
10223W        W81949  17.092  39.946  10.578
10224W        W81950  15.380  32.707  11.549
10225W        W81951  36.879  15.858   3.251
10226W        W81952  24.122   6.265   0.270
10227W        W81953  10.202  43.041  13.824
10228W        W81954  18.697  44.260  11.350
10229W        W81955  18.184  40.825  11.941
10230W        W81956  13.348   4.283   1.504
10231W        W81957   0.056  31.426  12.559
10232W        W81958  26.537   2.400  14.088
10233W        W81959  24.992   1.064   4.671
10234W        W81960  13.910  12.340  12.930
10235W        W81961  18.529  13.396  14.835
10236W        W81962  40.803  10.781  11.594
10237W        W81963   7.941  44.548  13.895
10238W        W81964  25.717  42.806  11.594
10239W        W81965  24.091  19.925   4.599
10240W        W81966  14.921  31.504   3.297
10241W        W81967   3.898   2.769   0.390
10242W        W81968  30.131  44.265  13.537
10243W        W81969   9.820  27.456  10.647
10244W        W81970   7.953  19.325   1.372
10245W        W81971  41.357  20.631  10.636
10246W        W81972  18.539  16.812   0.719
10247W        W81973  16.286   2.258  14.457
10248W        W81974   5.383  14.900  14.582
10249W        W81975  41.120  20.740   0.966
10250W        W81976  14.227  34.605  11.932
10251W        W81977   4.356  36.009   0.376
10252W        W81978  38.018   8.259  14.276
10253W        W81979  11.179  34.012  10.220
10254W        W81980  23.924  16.582  10.953
10255W        W81981  18.817  13.118  12.457
10256W        W81982  39.027   1.358   4.529
10257W        W81983  27.204  18.304   3.759
10258W        W81984  39.514   4.813  11.532
10259W        W81985  24.197  19.979  11.080
10260W        W81986  10.300  31.560  14.410
10261W        W81987  30.926  30.967  13.980
10262W        W81988  44.984  10.692   3.756
10263W        W81989   7.821   6.625  14.296
10264W        W81990   0.681  43.063  11.163
10265W        W81991  43.303  11.667   1.455
10266W        W81992  29.142  12.127  12.928
10267W        W81993  14.722  19.273  11.033
10268W        W81994  33.767   3.908   4.841
10269W        W81995  25.851  11.220   3.011
10270W        W81996  19.330  21.883  11.985
10271W        W81997  28.294  20.722  14.280
10272W        W81998  13.168  21.467   1.980
10273W        W81999  33.461   1.815  13.423
10274W        W82000   0.172  41.085  12.868
10275W        W82001  24.284  44.581  10.618
10276W        W82002  13.091  18.096  11.176
10277W        W82003  41.507   1.426  13.034
10278W        W82004  27.190   3.697  14.397
10279W        W82005  10.343  32.439  10.370
10280W        W82006  22.913  41.095  12.148
10281W        W82007   3.992  38.404  14.967
10282W        W82008  20.665  20.653   3.352
10283W        W82009   6.151  37.012   1.325
10284W        W82010  13.163   6.723  11.591
10285W        W82011  42.767  22.644  12.880
10286W        W82012  32.432  30.497   0.480
10287W        W82013   5.975   8.927   1.242
10288W        W82014  25.657   3.663   4.119
10289W        W82015  14.172  14.772  13.489
10290W        W82016   8.591  42.325  14.407
10291W        W82017  38.302  28.965  11.909
10292W        W82018  17.601  41.505  12.026
10293W        W82019  18.200   2.427   3.271
10294W        W82020  12.249  24.718   2.355
10295W        W82021  22.613  40.027  10.442
10296W        W82022  19.270  21.345  11.922
10297W        W82023  32.841  34.600  14.821
10298W        W82024  11.651  24.560  10.749
10299W        W82025  27.197  20.387  14.390
10300W        W82026  14.343   1.048  14.915
10301W        W82027   6.149  18.606   2.610
10302W        W82028   0.930  33.556   0.535
10303W        W82029  21.074  40.059   3.720
10304W        W82030  32.646  30.191  14.860
10305W        W82031  40.179  44.119   4.158
10306W        W82032  15.255   0.835   4.922
10307W        W82033  21.171   2.485   2.528
10308W        W82034   0.693  39.823  10.576
10309W        W82035  18.748   9.584   3.412
10310W        W82036  15.938   7.796   4.720
10311W        W82037  39.288   9.128  12.056
10312W        W82038  29.939  18.455  12.921
10313W        W82039  44.506  23.805   3.391
10314W        W82040  13.266   3.282   3.350
10315W        W82041  31.492  12.053  11.168
10316W        W82042  27.670   1.998   3.770
10317W        W82043  34.274   4.924  10.635
10318W        W82044   1.422  22.003  11.187
10319W        W82045   7.641  11.321  14.098
10320W        W82046   3.357   8.538   4.677
10321W        W82047  16.259  14.141   2.443
10322W        W82048  30.967  41.046  12.622
10323W        W82049  29.350  22.208   4.206
10324W        W82050  21.003   3.861   1.265
10325W        W82051  13.178   5.401  14.210
10326W        W82052  10.230  42.864   2.203
10327W        W82053  33.836  27.740   3.720
10328W        W82054  37.992  24.746  11.517
10329W        W82055  17.229  14.559   4.851
10330W        W82056  23.296  14.193   1.803
10331W        W82057  21.073  44.270   3.173
10332W        W82058  24.926  44.213  11.077
10333W        W82059  42.002  40.913   2.411
10334W        W82060  28.085  24.514  14.472
10335W        W82061   9.662  16.126   2.907
10336W        W82062  18.228   2.809   1.247
10337W        W82063  11.727   6.680  12.526
10338W        W82064  33.121  40.486   4.398
10339W        W82065  34.041  41.632  11.376
10340W        W82066  43.805  14.649  11.636
10341W        W82067  17.823  35.552   1.803
10342W        W82068  15.715  16.580   0.353
10343W        W82069  12.465  33.716  14.431
10344W        W82070   1.847  13.640  13.469
10345W        W82071   1.113  32.268   0.365
10346W        W82072  38.541  40.432  14.842
10347W        W82073  24.934  17.543   3.180
10348W        W82074  14.717  31.597   0.431
10349W        W82075  32.281  41.975   9.775
10350W        W82076  33.220  14.455   3.278
10351W        W82077  25.118  42.319   1.418
10352W        W82078  32.718  13.934   1.903
10353W        W82079  23.433  33.488   0.246
10354W        W82080  36.153  14.840   1.845
10355W        W82081  25.573  43.408  14.258
10356W        W82082  17.805  14.086  13.497
10357W        W82083  22.019  36.593   4.690
10358W        W82084  27.930  18.746   0.794
10359W        W82085   8.845  30.970   3.815
10360W        W82086  18.956  42.925   9.957
10361W        W82087   5.332   2.900   0.552
10362W        W82088  40.719  35.485  14.712
10363W        W82089  24.135  25.247  12.576
10364W        W82090  14.550  21.329   4.535
10365W        W82091   2.714   1.485  11.922
10366W        W82092  17.134  41.774   4.416
10367W        W82093  28.579  27.763  14.210
10368W        W82094  44.994  39.371   2.731
10369W        W82095   7.183  31.567   3.782
10370W        W82096   4.884   9.635   0.390
10371W        W82097  33.929  37.392   3.161
10372W        W82098  19.312  11.352  11.519
10373W        W82099   8.895  42.161  12.933
10374W        W82100  16.838  37.812   4.682
10375W        W82101   5.177  13.049  11.073
10376W        W82102  14.614   4.735  11.127
10377W        W82103   8.383  10.744   2.269
10378W        W82104   5.199   6.648   5.002
10379W        W82105  14.748  34.406   1.839
10380W        W82106  34.767  36.590  14.903
10381W        W82107  27.667   9.623   0.472
10382W        W82108  21.320  11.778   3.327
10383W        W82109  35.027  42.282  12.854
10384W        W82110  23.573  12.266  14.039
10385W        W82111  23.917  20.417   4.683
10386W        W82112   8.217  21.819  14.874
10387W        W82113   5.741  23.689  12.068
10388W        W82114  34.165  20.814  13.446
10389W        W82115   9.763  34.639   4.175
10390W        W82116  26.881  43.323  13.072
10391W        W82117   3.775   5.522  10.264
10392W        W82118  31.556  24.081   0.973
10393W        W82119  28.531  24.554   1.912
10394W        W82120  30.991  27.435   2.512
10395W        W82121  30.163  41.857   3.942
10396W        W82122  21.445  13.717   3.717
10397W        W82123  16.964  29.341  10.618
10398W        W82124   7.710  11.341   2.253
10399W        W82125  19.521  39.301  11.786
10400W        W82126  29.914   9.983  13.802
10401W        W82127  10.885  26.013  12.109
10402W        W82128  43.266   4.867   3.721
10403W        W82129  23.507  35.782  10.413
10404W        W82130  11.472  26.158  10.717
10405W        W82131  39.768  13.276  12.874
10406W        W82132  13.913  33.189  14.477
10407W        W82133  24.934  21.726   2.809
10408W        W82134  27.260  42.105  14.164
10409W        W82135  27.105  32.319   2.077
10410W        W82136  11.118  10.439   4.163
10411W        W82137  29.193  44.782  11.705
10412W        W82138  20.960  22.775  11.587
10413W        W82139  19.304  37.879  13.542
10414W        W82140  25.552  30.115   3.730
10415W        W82141   2.801  32.016  13.065
10416W        W82142  21.013  28.909   0.706
10417W        W82143  17.168  18.758   2.315
10418W        W82144  26.130  30.733   2.847
10419W        W82145  29.430  21.194   2.189
10420W        W82146  32.613  28.684   4.275
10421W        W82147   3.733   5.622   2.753
10422W        W82148  36.089  13.327  13.476
10423W        W82149  31.291  28.148  11.107
10424W        W82150  26.434  26.970   4.153
10425W        W82151  21.299  36.464   4.684
10426W        W82152   1.853  10.898  14.996
10427W        W82153   3.826  34.560   2.764
10428W        W82154  35.662  30.882  13.330
10429W        W82155  18.595  24.925  10.301
10430W        W82156  33.328  33.002  10.610
10431W        W82157   0.995  29.587   0.362
10432W        W82158  14.518  33.186   0.333
10433W        W82159   3.685  17.283  11.985
10434W        W82160  28.807  29.538   0.527
10435W        W82161   9.280  39.971  11.524
10436W        W82162  34.872   3.132  14.966
10437W        W82163  33.286   9.347  11.731
10438W        W82164  44.185  13.241   3.501
10439W        W82165  42.959  28.651  13.258
10440W        W82166  12.555   6.225  11.405
10441W        W82167  14.400  11.093  14.482
10442W        W82168  41.978   7.694   2.311
10443W        W82169  18.741   8.557  11.678
10444W        W82170  33.970  40.427  13.940
10445W        W82171   7.197  11.302   2.289
10446W        W82172  24.009   2.911   0.861
10447W        W82173  29.716   8.181   1.737
10448W        W82174   9.741  44.466   0.729
10449W        W82175  25.608  11.879  14.458
10450W        W82176  12.313   7.246  14.014
10451W        W82177  37.053  14.826  12.361
10452W        W82178  20.642  40.005  10.667
10453W        W82179  21.268  32.387   2.256
10454W        W82180  32.508   3.438  14.597
10455W        W82181  34.486  36.894   1.940
10456W        W82182  27.519  42.268  14.989
10457W        W82183  18.251  15.348  10.723
10458W        W82184   3.505   6.905  13.001
10459W        W82185   8.753  32.969  13.197
10460W        W82186   1.194  41.025   0.824
10461W        W82187  36.674  20.150  12.022
10462W        W82188   2.732   1.678   2.403
10463W        W82189  15.409  14.506   2.245
10464W        W82190  37.004  13.801  13.276
10465W        W82191  44.605  26.284  10.972
10466W        W82192  36.642  11.077  12.049
10467W        W82193   3.364  19.313  11.331
10468W        W82194  14.809   1.625   2.723
10469W        W82195  44.597  15.194  13.155
10470W        W82196  12.415   8.162  11.614
10471W        W82197  32.328   2.362   4.585
10472W        W82198  30.749  40.835  10.897
10473W        W82199   8.153   5.274  14.582
10474W        W82200  21.711  31.092   4.455
10475W        W82201   2.493  27.153   1.666
10476W        W82202   9.105  28.588   0.330
10477W        W82203  12.329   7.645  12.573
10478W        W82204  26.086  20.560   3.754
10479W        W82205   5.358  32.563   4.073
10480W        W82206  40.454  43.009  11.521
10481W        W82207   2.239  15.512  14.255
10482W        W82208  38.091  11.704   2.720
10483W        W82209  33.638  12.804  13.423
10484W        W82210  33.614  26.772   2.735
10485W        W82211  31.967  39.025  13.700
10486W        W82212  27.548  17.385   3.316
10487W        W82213  26.929  22.017  12.487
10488W        W82214  24.018  23.733   4.376
10489W        W82215  33.403  19.948  10.094
10490W        W82216  38.576  17.067  12.934
10491W        W82217  20.143  20.623  14.401
10492W        W82218  43.983  28.830   4.033
10493W        W82219  22.229  20.609  14.448
10494W        W82220  34.397  40.568  11.950
10495W        W82221  10.360  43.811  11.240
10496W        W82222  38.617  31.899   2.741
10497W        W82223  44.425   6.104   3.706
10498W        W82224  37.301  39.591  14.955
10499W        W82225  30.478  13.114   3.123
10500W        W82226   3.042  33.049   4.427
10501W        W82227  22.998  31.508   4.329
10502W        W82228  34.868  36.373  12.602
10503W        W82229  19.762   8.325  11.517
10504W        W82230  34.859  41.414  13.799
10505W        W82231   5.909  27.242  13.977
10506W        W82232  29.759  30.361  11.566
10507W        W82233  35.360  19.653   0.521
10508W        W82234  25.148  44.684  14.374
10509W        W82235  29.702  33.704  14.449
10510W        W82236  38.819  15.377   3.174
10511W        W82237  40.084  18.977  12.449
10512W        W82238  33.688  37.933  12.176
10513W        W82239  43.258  22.584  10.401
10514W        W82240  22.652  30.921   1.532
10515W        W82241  34.078   6.332  12.057
10516W        W82242   6.987   3.470   4.044
10517W        W82243   0.841   0.523  12.251
10518W        W82244  27.163  37.996   4.126
10519W        W82245  13.138  32.068  14.433
10520W        W82246  20.144  37.321   2.227
10521W        W82247  21.566  23.646   1.480
10522W        W82248   3.915   2.239   0.178
10523W        W82249  31.575   9.735  14.195
10524W        W82250   0.486  40.787  12.479
10525W        W82251  18.821  43.395  12.418
10526W        W82252  32.808  21.297   0.468
10527W        W82253   8.872  16.710   1.844
10528W        W82254  29.986  23.090  14.371
10529W        W82255  39.948  20.568   4.080
10530W        W82256  21.294   1.391   3.499
10531W        W82257  31.621  30.555  11.695
10532W        W82258   6.321  21.511   0.258
10533W        W82259  15.154  10.759  12.512
10534W        W82260   8.654  28.558  14.274
10535W        W82261   6.243  11.671  10.749
10536W        W82262  21.457  29.036   2.153
10537W        W82263   1.758   9.752   4.335
10538W        W82264   7.759  27.536  12.135
10539W        W82265  32.626   0.012   9.994
10540W        W82266   3.317  30.865  14.437
10541W        W82267  11.174  41.511   3.522
10542W        W82268  32.071  25.975  14.452
10543W        W82269  32.519  16.049  13.941
10544W        W82270   9.586  36.057  10.001
10545W        W82271  39.790  30.930  13.987
10546W        W82272  44.840  40.373  12.831
10547W        W82273   7.596   9.889   1.327
10548W        W82274  26.149  33.482  14.460
10549W        W82275  39.865  13.610   3.221
10550W        W82276  37.748   5.760  11.690
10551W        W82277   4.803   8.226   4.328
10552W        W82278   5.319  16.561  11.157
10553W        W82279  17.574  39.776  10.629
10554W        W82280   2.331  31.038  11.502
10555W        W82281  39.897  19.522   0.752
10556W        W82282  19.068  38.449   4.819
10557W        W82283  29.589   0.099  13.917
10558W        W82284  19.510   3.885   0.323
10559W        W82285  39.886  13.176  11.124
10560W        W82286  19.091   5.484   2.300
10561W        W82287  41.835   5.710   0.761
10562W        W82288  37.470  12.383   0.871
10563W        W82289  26.554   5.340   3.568
10564W        W82290  41.112  23.560   2.785
10565W        W82291  39.021  14.734   4.976
10566W        W82292  30.184  39.648  12.066
10567W        W82293  10.488  35.540  13.767
10568W        W82294   0.497  30.434   1.915
10569W        W82295  17.647  38.768   2.805
10570W        W82296   3.019  25.970   3.395
10571W        W82297  11.658  31.578  14.928
10572W        W82298   8.842  44.944   3.686
10573W        W82299  19.982   1.750  13.058
10574W        W82300  12.674  24.102   0.791
10575W        W82301  10.726  27.874  10.930
10576W        W82302  23.560  20.608   4.349
10577W        W82303  21.310  31.639   1.303
10578W        W82304  33.332  38.219   1.010
10579W        W82305  30.209  18.573  11.737
10580W        W82306  28.955  26.179   1.169
10581W        W82307  34.761  31.849  12.023
10582W        W82308  32.419  21.148   0.949
10583W        W82309  33.415  38.670   4.564
10584W        W82310  35.923  25.516   3.604
10585W        W82311  42.316  29.589  10.984
10586W        W82312  42.538   5.298  14.854
10587W        W82313  41.398   7.680   1.707
10588W        W82314  15.306  24.511   4.754
10589W        W82315  21.277   1.018   0.552
10590W        W82316  12.561  35.430  13.445
10591W        W82317  25.233  11.175  14.112
10592W        W82318  27.572  13.070   2.274
10593W        W82319  22.026  24.624   4.735
10594W        W82320  33.100   8.597  12.452
10595W        W82321  38.471   9.869   1.614
10596W        W82322  24.940   0.930  12.980
10597W        W82323   6.906  39.705   2.859
10598W        W82324  36.855  30.974  12.625
10599W        W82325  37.008  25.954   0.753
10600W        W82326   9.921  27.803   5.050
10601W        W82327  32.665  30.373  10.386
10602W        W82328   8.670  18.251   2.746
10603W        W82329  11.664  40.424   0.449
10604W        W82330  31.426  27.010  11.648
10605W        W82331  10.820  32.615  10.657
10606W        W82332  31.473  23.639   2.292
10607W        W82333  37.844  28.177   2.261
10608W        W82334  12.847  26.619   1.641
10609W        W82335  35.525   1.540   3.295
10610W        W82336  26.669  39.515  14.781
10611W        W82337   1.850  21.303  14.348
10612W        W82338  39.050  10.677  10.018
10613W        W82339  29.669  34.543  13.512
10614W        W82340  11.367   3.374  11.134
10615W        W82341  11.931   1.766  11.572
10616W        W82342  33.767  27.706  12.017
10617W        W82343   1.189   3.361   2.782
10618W        W82344   8.418  39.392  13.252
10619W        W82345  15.013   8.539   3.728
10620W        W82346   4.259   4.307   1.433
10621W        W82347  43.813  35.123   0.308
10622W        W82348  31.084  21.001   2.701
10623W        W82349  34.588  28.226  12.886
10624W        W82350   6.475  12.766   1.429
10625W        W82351  12.048  19.071  11.529
10626W        W82352  31.100  42.796  13.784
10627W        W82353   9.655  17.071   0.169
10628W        W82354   6.870  18.551  14.438
10629W        W82355  36.587  35.613  13.869
10630W        W82356  21.654  14.850   0.338
10631W        W82357   7.627  24.224   4.662
10632W        W82358  41.484  25.413  12.132
10633W        W82359  19.559  31.877   4.821
10634W        W82360  37.564  13.280   0.427
10635W        W82361  18.237  41.825  12.472
10636W        W82362  19.286  42.069   1.758
10637W        W82363   1.499  37.501  12.453
10638W        W82364  26.032  39.410  13.043
10639W        W82365  13.134  38.253   4.026
10640W        W82366   8.760  33.450  12.386
10641W        W82367  18.132  32.573  10.690
10642W        W82368   9.244  18.300   0.610
10643W        W82369   0.163  27.157  11.042
10644W        W82370  23.633   7.302   1.019
10645W        W82371  17.644  12.103   3.618
10646W        W82372  34.438   8.974   3.238
10647W        W82373  44.388   9.988  10.524
10648W        W82374  27.943  12.220   2.645
10649W        W82375  37.586  17.618  13.007
10650W        W82376  16.025  32.828  10.581
10651W        W82377  21.511  36.940   2.623
10652W        W82378  28.564   4.126   1.267
10653W        W82379  38.312  33.925   0.529
10654W        W82380  39.537  20.159   4.413
10655W        W82381  44.276  33.933  14.864
10656W        W82382  31.682  40.344  13.396
10657W        W82383  39.899  25.255   4.523
10658W        W82384   5.734  13.140  12.445
10659W        W82385  43.415  15.699   1.589
10660W        W82386  35.069  16.107   2.732
10661W        W82387  18.728   5.818  13.612
10662W        W82388  30.130  14.885  11.114
10663W        W82389   8.207  16.660   1.169
10664W        W82390   2.437  22.543   1.225
10665W        W82391  17.609   7.204  11.566
10666W        W82392  25.104  40.839   1.910
10667W        W82393  13.824  25.097  14.023
10668W        W82394  38.806  42.932  12.994
10669W        W82395   9.231   5.375   0.655
10670W        W82396  11.987  39.626  14.836
10671W        W82397  40.992   3.201  12.083
10672W        W82398  13.734  31.914  14.981
10673W        W82399   4.696  44.372  14.834
10674W        W82400   4.579  44.994   3.086
10675W        W82401  16.065  19.189  12.632
10676W        W82402   7.202   9.344  14.475
10677W        W82403  32.605  35.693   0.009
10678W        W82404  22.974  21.758  10.676
10679W        W82405  16.259  42.120   4.532
10680W        W82406  20.465  38.884  13.575
10681W        W82407  23.850  30.498   4.110
10682W        W82408  35.858  35.488   0.248
10683W        W82409  41.017   4.027  12.476
10684W        W82410  29.665  13.658   2.720
10685W        W82411  15.106  32.436  14.398
10686W        W82412  15.140  32.282   0.462
10687W        W82413   0.300   5.177  14.760
10688W        W82414  16.711  35.252  12.482
10689W        W82415  13.326  40.065   2.224
10690W        W82416  27.166  11.812  14.592
10691W        W82417   8.376   1.249  10.675
10692W        W82418  26.965  10.764  12.365
10693W        W82419  10.689  11.562   0.875
10694W        W82420  26.382  25.840   0.324
10695W        W82421  21.430  11.573   2.155
10696W        W82422  32.648   5.020   1.296
10697W        W82423  42.827  24.268   3.187
10698W        W82424  19.629  11.435  12.496
10699W        W82425  35.002  44.905  14.828
10700W        W82426  24.503  15.178  14.801
10701W        W82427  34.985  12.784  13.824
10702W        W82428  19.649   9.087  13.401
10703W        W82429  19.611  44.761  11.095
10704W        W82430  39.577  37.783  13.898
10705W        W82431   1.428  27.870  11.127
10706W        W82432  41.380   2.819   3.371
10707W        W82433   3.292   7.789  13.406
10708W        W82434  27.934   7.050   2.807
10709W        W82435   7.767  30.678   2.862
10710W        W82436  26.503   6.168   3.251
10711W        W82437  42.963  22.416  11.372
10712W        W82438  33.326  12.099   5.073
10713W        W82439  36.025  39.886  10.413
10714W        W82440   0.436  30.055   4.681
10715W        W82441  19.454  43.844  11.196
10716W        W82442  39.438   4.921  13.930
10717W        W82443  14.243  37.794  14.118
10718W        W82444  38.341  31.979   0.978
10719W        W82445  35.045  27.438  14.929
10720W        W82446  29.105  24.788   4.839
10721W        W82447  21.748  29.124   3.151
10722W        W82448  14.704  23.214  12.904
10723W        W82449   6.183  39.060  14.970
10724W        W82450  32.981  36.040  12.407
10725W        W82451  11.598  40.402   1.838
10726W        W82452  31.902  10.629  14.409
10727W        W82453  24.150   7.146  12.733
10728W        W82454   4.007  14.297   1.257
10729W        W82455  29.980  42.502   2.251
10730W        W82456  14.238  34.956   2.841
10731W        W82457  38.058  27.425  14.517
10732W        W82458   1.718   4.762   3.916
10733W        W82459  44.438  13.168  11.958
10734W        W82460  18.646   5.352  12.816
10735W        W82461   2.728  26.029   1.918
10736W        W82462  33.420  40.917  12.067
10737W        W82463  21.661  26.468  13.890
10738W        W82464   7.553   4.847  10.690
10739W        W82465  10.769   8.603   5.407
10740W        W82466  16.556   8.756  11.285
10741W        W82467   9.425  14.005   5.081
10742W        W82468  31.981  27.022  12.935
10743W        W82469   5.126  11.816  13.457
10744W        W82470   3.764  18.053  11.520
10745W        W82471   5.310  27.657   4.118
10746W        W82472   3.438  20.764   3.948
10747W        W82473  18.616   9.751  12.974
10748W        W82474  44.401  23.589  13.888
10749W        W82475  30.590  32.663  13.013
10750W        W82476   0.435  25.351   4.689
10751W        W82477  27.168   8.378   4.733
10752W        W82478   7.870  11.865   4.740
10753W        W82479  13.667  41.717  14.328
10754W        W82480  33.095  13.393  11.174
10755W        W82481  22.322  39.903  11.431
10756W        W82482  27.982  37.612  12.886
10757W        W82483  43.717   9.428   4.684
10758W        W82484   1.660   6.321   2.766
10759W        W82485  11.600   5.342  12.460
10760W        W82486  22.963  10.892   2.295
10761W        W82487   5.447  23.037   4.489
10762W        W82488  37.440  38.638   4.079
10763W        W82489  32.917  29.549  11.880
10764W        W82490  18.528  40.725   0.243
10765W        W82491  21.129  34.383   3.540
10766W        W82492  24.030  34.945   1.401
10767W        W82493  42.040  42.970  13.304
10768W        W82494  44.041  17.450  12.566
10769W        W82495   9.327  38.381   4.403
10770W        W82496  41.362  21.573  13.507
10771W        W82497   4.259  30.431   1.887
10772W        W82498  13.822  27.893  13.359
10773W        W82499  44.265   0.069  10.154
10774W        W82500  36.909  38.056   1.752
10775W        W82501   0.529  36.150   1.063
10776W        W82502  10.821  41.060   3.782
10777W        W82503  20.853  13.348  14.904
10778W        W82504  24.622   5.114   1.418
10779W        W82505  38.852  13.692  12.204
10780W        W82506  40.292  41.506   3.281
10781W        W82507   6.041  40.532  12.474
10782W        W82508  35.374  31.261  14.890
10783W        W82509  28.592  34.181   2.098
10784W        W82510  40.799  13.317   3.666
10785W        W82511  31.902  40.538   3.656
10786W        W82512  28.481   4.657   2.734
10787W        W82513   1.395   2.190   1.804
10788W        W82514  28.719  17.216  14.947
10789W        W82515  37.943  34.821   3.679
10790W        W82516  15.326  33.174  11.795
10791W        W82517  11.432  43.590  11.113
10792W        W82518  22.721   1.958   3.748
10793W        W82519  39.460   5.077  12.392
10794W        W82520  43.008   5.942  13.848
10795W        W82521  21.707  31.638  12.582
10796W        W82522  18.160   1.248  11.549
10797W        W82523  18.812   9.134   4.110
10798W        W82524  30.366  37.947   2.676
10799W        W82525  12.934  42.380   1.312
10800W        W82526  16.991  29.619  11.186
10801W        W82527  25.256  42.568  12.551
10802W        W82528  20.555  38.268  10.697
10803W        W82529  35.383  38.911  10.710
10804W        W82530  20.157  40.591  14.855
10805W        W82531  32.926  10.650   0.879
10806W        W82532  18.362  16.274  12.898
10807W        W82533   7.787  33.386   1.960
10808W        W82534  30.247  23.311  11.163
10809W        W82535  31.025  36.145   0.693
10810W        W82536   4.365  34.832  13.425
10811W        W82537  12.925  18.632  11.043
10812W        W82538  20.549   6.046  12.465
10813W        W82539  21.957  30.628   4.531
10814W        W82540  33.105  12.643   0.820
10815W        W82541  15.669  35.526  13.838
10816W        W82542  13.573   2.912   4.833
10817W        W82543  35.037  31.847   0.494
10818W        W82544  36.775   4.796  10.641
10819W        W82545  26.384   5.948   1.075
10820W        W82546  39.260  41.440  11.070
10821W        W82547  26.656  30.097  13.633
10822W        W82548  43.998  41.810   4.126
10823W        W82549  34.195  26.109   4.718
10824W        W82550  38.335  30.421  12.526
10825W        W82551  20.559   6.503   4.203
10826W        W82552  20.719  41.596  12.287
10827W        W82553   7.821   6.137   4.824
10828W        W82554  18.835  26.190   1.548
10829W        W82555  41.084   7.484   4.349
10830W        W82556  28.955   8.670  12.944
10831W        W82557  19.647  38.980  14.403
10832W        W82558  23.529  41.755   1.263
10833W        W82559  22.729  41.391  14.058
10834W        W82560  38.888  31.126   0.525
10835W        W82561   2.835   5.710   2.690
10836W        W82562  38.939  42.921  12.491
10837W        W82563  12.750  36.538   1.898
10838W        W82564  13.673  26.526  11.188
10839W        W82565  39.958  29.132  14.319
10840W        W82566  17.751  32.711  13.409
10841W        W82567  40.048  34.637  12.971
10842W        W82568  43.316  21.046   2.392
10843W        W82569   8.305  19.999   0.924
10844W        W82570  15.069   4.282   0.403
10845W        W82571   2.264  26.499   1.151
10846W        W82572  41.311  22.430  13.048
10847W        W82573  14.737   9.369   1.336
10848W        W82574   0.972  20.510  10.652
10849W        W82575  14.735  41.589  13.387
10850W        W82576  36.881  12.678  14.589
10851W        W82577  44.252  21.044   4.923
10852W        W82578  44.327  25.266  13.090
10853W        W82579  17.036  11.810  14.396
10854W        W82580  35.803   1.443   0.241
10855W        W82581  10.904  21.138   0.786
10856W        W82582  39.794  22.446   0.733
10857W        W82583  42.043  33.423   0.482
10858W        W82584   5.573  30.606  14.791
10859W        W82585   0.409  34.479  13.903
10860W        W82586  43.047  35.024  12.547
10861W        W82587  39.451   1.822   3.685
10862W        W82588  12.161  26.180   4.664
10863W        W82589  11.348  22.053  14.750
10864W        W82590  30.878  10.937   3.729
10865W        W82591  20.263  31.546  11.448
10866W        W82592  36.585  43.387  10.987
10867W        W82593  25.690   2.232   2.614
10868W        W82594  19.746  44.292  13.952
10869W        W82595   5.272  29.170   1.142
10870W        W82596   8.145  44.247   4.118
10871W        W82597  21.726  18.738  13.252
10872W        W82598  18.554   5.457   1.421
10873W        W82599  42.021  26.874  14.877
10874W        W82600  34.151  27.527  10.728
10875W        W82601  26.057  21.972  12.885
10876W        W82602  32.332  39.120  11.108
10877W        W82603   7.812  34.099  12.078
10878W        W82604   9.573  10.717   0.479
10879W        W82605  40.047  15.618   0.837
10880W        W82606  22.201  14.623  11.479
10881W        W82607  17.676  12.407  12.276
10882W        W82608   8.438  16.626   2.651
10883W        W82609  22.095  37.481  11.042
10884W        W82610   5.463   7.044  13.817
10885W        W82611  35.133  31.744  11.171
10886W        W82612  35.422  40.745   1.838
10887W        W82613  25.547   2.055  14.023
10888W        W82614  25.009  19.115   3.927
10889W        W82615  29.109  14.716   3.507
10890W        W82616   5.237  28.228   0.010
10891W        W82617  24.237  32.940  12.249
10892W        W82618   3.003  28.466   2.304
10893W        W82619  36.293  23.175   0.414
10894W        W82620  12.634   7.989   0.506
10895W        W82621  16.225  39.400   2.304
10896W        W82622  42.315  23.034   0.290
10897W        W82623  19.487  41.156  12.778
10898W        W82624  28.582  41.398  12.304
10899W        W82625  39.550   1.784  13.491
10900W        W82626  40.909  31.853  12.914
10901W        W82627  21.230  31.324   4.450
10902W        W82628  11.221  18.141   4.753
10903W        W82629  40.179  32.516  12.381
10904W        W82630  31.882  32.737   4.164
10905W        W82631  18.661   0.510   4.621
10906W        W82632  17.315  31.562   3.837
10907W        W82633  18.890  18.010  10.839
10908W        W82634   2.341  44.800  13.970
10909W        W82635  15.315  26.689   2.832
10910W        W82636  23.654   3.947   2.984
10911W        W82637  16.589   9.292   2.769
10912W        W82638  22.922  25.481  14.272
10913W        W82639  36.975  28.169  14.454
10914W        W82640  41.178  38.192  10.999
10915W        W82641   6.742  25.425   3.675
10916W        W82642  20.188  32.320   1.712
10917W        W82643  37.552  37.224  10.946
10918W        W82644  22.134  19.974   1.731
10919W        W82645  40.971  27.591   1.495
10920W        W82646  28.078  14.304  13.310
10921W        W82647  29.715  33.191  14.448
10922W        W82648   4.855   2.081   4.471
10923W        W82649  15.462  29.979  14.496
10924W        W82650  39.063   4.844   1.205
10925W        W82651  36.220  44.858  11.688
10926W        W82652  32.307  12.923  12.069
10927W        W82653  21.339  40.802   2.409
10928W        W82654   6.291  25.189  11.634
10929W        W82655   4.962  41.481   3.732
10930W        W82656  20.235  12.532   2.087
10931W        W82657  16.216  41.779   4.913
10932W        W82658  11.069  16.152   3.295
10933W        W82659   8.427  27.460  12.445
10934W        W82660  39.560  43.546   1.192
10935W        W82661  15.895  31.532  10.766
10936W        W82662  40.330  42.821   3.624
10937W        W82663  40.880  20.134  14.875
10938W        W82664  35.609  18.082   1.902
10939W        W82665  38.636  31.139   1.454
10940W        W82666  27.722  44.781   3.276
10941W        W82667  16.401  36.520   2.238
10942W        W82668  13.332  38.377   1.293
10943W        W82669  20.755  43.927  14.775
10944W        W82670  39.822  17.538  10.727
10945W        W82671   8.313  36.485  13.185
10946W        W82672  27.558  17.078  14.614
10947W        W82673  29.014  32.406   2.716
10948W        W82674  12.857  17.664   1.648
10949W        W82675  43.962  31.634   3.062
10950W        W82676  31.358  35.490   3.147
10951W        W82677  23.185   2.631  14.270
10952W        W82678   0.388   6.953   1.747
10953W        W82679  42.967  17.151   0.763
10954W        W82680  21.489  42.234   0.072
10955W        W82681  16.247  40.293   1.241
10956W        W82682  14.192  34.899  14.061
10957W        W82683   9.440  10.653  12.956
10958W        W82684   7.809  38.501   1.505
10959W        W82685  13.986   1.844  11.531
10960W        W82686   9.601  13.162   4.261
10961W        W82687  19.697   8.839   0.918
10962W        W82688  38.958  30.071  14.684
10963W        W82689  43.770  33.923  14.918
10964W        W82690   6.862   3.405   4.933
10965W        W82691  32.857   9.862   3.193
10966W        W82692  21.100  25.956   0.009
10967W        W82693  12.496  34.448  11.188
10968W        W82694  24.513  12.636  12.638
10969W        W82695  40.926  37.102  12.421
10970W        W82696  36.625   5.167   0.029
10971W        W82697  11.180  13.852  13.511
10972W        W82698  43.801   7.701  11.904
10973W        W82699   8.942   1.394  12.958
10974W        W82700  18.001  44.856  14.418
10975W        W82701  43.381   3.740   1.083
10976W        W82702  20.064  11.499  12.777
10977W        W82703  40.342   6.182   5.016
10978W        W82704   9.213  33.836  13.032
10979W        W82705   3.640   6.673  13.458
10980W        W82706  43.347  42.787   4.717
10981W        W82707  20.353  14.932   1.346
10982W        W82708  27.076  10.791   0.397
10983W        W82709  23.646  15.258   4.121
10984W        W82710  36.120  15.658  12.007
10985W        W82711  41.908  33.981  12.960
10986W        W82712  27.381  31.512  12.323
10987W        W82713  39.549  15.203   3.843
10988W        W82714  34.979  28.422  13.765
10989W        W82715  22.065  13.563  11.498
10990W        W82716   9.618  22.963  13.072
10991W        W82717   9.390   4.787   2.488
10992W        W82718  21.600  37.581   2.171
10993W        W82719   3.043  11.778   1.848
10994W        W82720   8.287  20.113  10.852
10995W        W82721  44.091  41.748  14.947
10996W        W82722  18.168  32.335   3.106
10997W        W82723  40.085  11.729  14.478
10998W        W82724   2.393  44.913   0.431
10999W        W82725   7.239  37.004   2.783
11000W        W82726  25.172  17.758   2.746
11001W        W82727  17.221  18.659   3.731
11002W        W82728  35.953  16.063  13.324
11003W        W82729   8.184  26.222   3.143
11004W        W82730  33.422  29.861  13.468
11005W        W82731   8.217   1.227  12.573
11006W        W82732  44.958  28.428  12.878
11007W        W82733  31.498  41.460   4.509
11008W        W82734  19.061  32.716   2.711
11009W        W82735  27.733  43.075   1.723
11010W        W82736  13.846  21.035   3.151
11011W        W82737  16.136   8.336  14.139
11012W        W82738  20.522   8.484  11.170
11013W        W82739  44.376   5.275   3.079
11014W        W82740  16.104  12.491   1.886
11015W        W82741  21.258  40.290   2.411
11016W        W82742  11.823  35.586  12.064
11017W        W82743   1.247   5.600   0.669
11018W        W82744  35.317  18.526   4.164
11019W        W82745  42.423  17.812   2.851
11020W        W82746   1.178  40.008  12.881
11021W        W82747  38.062  16.861   2.579
11022W        W82748  37.832  34.833   1.196
11023W        W82749   6.436  30.619   3.687
11024W        W82750   1.801  29.195   0.763
11025W        W82751   8.301  30.998  13.696
11026W        W82752   9.149  25.313   1.278
11027W        W82753  44.860  24.296   2.819
11028W        W82754  17.816  20.792  13.114
11029W        W82755   0.994   5.860   1.974
11030W        W82756  19.612  15.606  12.394
11031W        W82757   3.932   1.126  11.690
11032W        W82758  13.228  23.045   2.615
11033W        W82759  23.333   4.428   2.183
11034W        W82760  20.123  27.022  10.413
11035W        W82761  18.270  37.777   3.200
11036W        W82762  32.826  20.340   1.424
11037W        W82763  40.958  30.065   2.865
11038W        W82764  28.768  14.609   4.495
11039W        W82765  13.519  37.020   1.031
11040W        W82766  39.041  36.507  11.127
11041W        W82767  27.541  37.482  11.465
11042W        W82768  43.421  20.917   0.762
11043W        W82769  22.642  31.350   3.581
11044W        W82770  26.591   0.847   5.390
11045W        W82771  40.337  40.469  13.007
11046W        W82772   5.388  32.951   3.323
11047W        W82773  11.980  35.419   4.686
11048W        W82774  34.400  22.483  13.308
11049W        W82775   8.745  36.931   3.812
11050W        W82776  33.924  29.529   2.760
11051W        W82777  31.888  32.080  11.168
11052W        W82778  29.595  40.370   0.251
11053W        W82779  13.739  29.571   2.416
11054W        W82780  13.962  36.139   4.118
11055W        W82781   9.970  28.032   1.374
11056W        W82782  16.663  26.882   3.800
11057W        W82783  27.027  39.609   1.927
11058W        W82784  22.034  42.053  13.433
11059W        W82785  44.300  37.033  14.450
11060W        W82786  43.516  38.280  14.320
11061W        W82787  41.150  17.797   2.219
11062W        W82788   7.066  35.293  10.103
11063W        W82789  44.893  44.524   4.139
11064W        W82790  29.672  36.505   1.277
11065W        W82791  15.424  13.351   3.355
11066W        W82792  40.120  27.056  12.002
11067W        W82793  21.743  36.260  12.455
11068W        W82794  17.245  26.435  10.704
11069W        W82795  43.821   0.223   4.495
11070W        W82796  12.243  15.808  12.079
11071W        W82797  21.959  28.835   5.794
11072W        W82798  11.662  34.470  10.526
11073W        W82799  20.011  18.091  14.921
11074W        W82800  32.331   5.276   2.648
11075W        W82801  20.710  24.826   4.696
11076W        W82802  41.599   2.506  12.085
11077W        W82803  17.074  20.567   1.791
11078W        W82804   9.976   9.582  14.285
11079W        W82805  31.615  18.077  11.797
11080W        W82806   5.033  41.618   4.989
11081W        W82807  27.468  15.582   4.535
11082W        W82808   6.793  19.682   2.876
11083W        W82809  10.794  22.062   2.570
11084W        W82810  14.934   5.117   2.036
11085W        W82811  15.174  22.495  13.900
11086W        W82812  10.729  34.540  12.729
11087W        W82813   9.151  18.508  13.912
11088W        W82814  11.059  18.181  13.898
11089W        W82815  19.038  10.833  14.899
11090W        W82816  37.608  41.587   1.714
11091W        W82817  23.648  27.116  13.022
11092W        W82818  38.931  15.335  14.367
11093W        W82819  43.566  15.102  13.872
11094W        W82820  26.233   8.627  12.069
11095W        W82821  19.066  35.485   3.707
11096W        W82822  35.598   2.484   2.351
11097W        W82823  25.873   6.964   0.048
11098W        W82824  11.603  41.385   3.273
11099W        W82825  17.634   5.523   4.649
11100W        W82826  26.245  36.420  11.648
11101W        W82827  14.883  35.889  12.080
11102W        W82828  41.585  37.802   0.243
11103W        W82829  31.957  10.345  10.503
11104W        W82830  43.800  17.659  13.883
11105W        W82831  37.630  39.573  11.026
11106W        W82832  29.132   0.447   3.277
11107W        W82833  28.635  11.729   2.097
11108W        W82834  13.769   6.397   2.550
11109W        W82835  24.302   9.021   0.249
11110W        W82836  15.590  24.649  14.858
11111W        W82837   8.797  33.466   1.038
11112W        W82838   1.160  44.090   3.801
11113W        W82839   3.370  21.983  11.622
11114W        W82840  10.259  27.582   1.830
11115W        W82841   3.434  20.963   1.343
11116W        W82842   0.662  31.900  11.634
11117W        W82843  33.315  14.041  13.626
11118W        W82844  18.518  27.315  13.407
11119W        W82845  15.716  43.859   1.756
11120W        W82846  12.581  39.067   3.665
11121W        W82847  17.459  40.396  10.959
11122W        W82848  10.226  27.073   3.664
11123W        W82849   7.798  12.172   0.407
11124W        W82850  14.789   6.771   1.197
11125W        W82851  30.160   8.604   3.091
11126W        W82852  15.247  12.354   4.123
11127W        W82853   9.115  44.912   1.853
11128W        W82854  24.994  30.632  12.197
11129W        W82855  17.779  10.952  12.632
11130W        W82856  17.538  22.776   2.871
11131W        W82857  15.236  42.100   1.430
11132W        W82858   7.020  21.904  10.946
11133W        W82859  18.787  13.136   0.884
11134W        W82860  29.683  29.932   4.331
11135W        W82861  20.166  24.294  11.147
11136W        W82862   8.575  12.304   0.820
11137W        W82863  10.665  18.232   4.603
11138W        W82864  37.407  16.149   1.241
11139W        W82865  22.813   3.452  14.429
11140W        W82866  29.826  34.120   1.353
11141W        W82867  29.068   4.241   2.231
11142W        W82868  26.934  31.603  12.099
11143W        W82869   8.387   0.678  11.587
11144W        W82870  44.781   6.344  13.783
11145W        W82871  29.425  40.318  11.486
11146W        W82872  27.106  36.250   2.218
11147W        W82873  10.767  21.135   3.189
11148W        W82874  26.891  27.652  14.136
11149W        W82875   2.740  36.068  12.473
11150W        W82876  17.804  21.151  10.898
11151W        W82877  14.366  43.259  12.062
11152W        W82878  20.067  14.350   5.255
11153W        W82879  11.124   6.210   0.340
11154W        W82880  25.067  32.163   3.755
11155W        W82881  26.662  27.708   5.072
11156W        W82882  19.688  37.570  12.515
11157W        W82883  26.497  31.321   3.856
11158W        W82884  25.589  23.281  13.571
11159W        W82885  26.532  18.288   4.878
11160W        W82886  20.570  19.127   1.286
11161W        W82887   4.213  31.201  12.432
11162W        W82888  37.507  13.893  14.746
11163W        W82889  31.455  14.745   0.985
11164W        W82890  22.335  17.733   3.498
11165W        W82891  31.343  19.034  12.817
11166W        W82892  17.300  17.744  13.140
11167W        W82893  37.563  37.604   4.227
11168W        W82894  28.513  18.236   4.043
11169W        W82895  37.452   3.331  14.551
11170W        W82896  25.707  40.894   0.805
11171W        W82897   1.239  25.215   5.048
11172W        W82898   8.264  12.353  13.139
11173W        W82899  36.061  12.049   1.903
11174W        W82900  17.474   1.380  12.800
11175W        W82901  26.241  21.238   2.760
11176W        W82902  14.117  14.376  12.078
11177W        W82903  16.569  24.517   2.484
11178W        W82904  24.743  17.363  11.098
11179W        W82905  33.476  21.519   0.948
11180W        W82906   8.085  15.320  14.868
11181W        W82907   8.159  33.145   1.153
11182W        W82908   3.320  31.446  11.635
11183W        W82909  26.897  43.061  14.406
11184W        W82910  32.131  11.055  10.678
11185W        W82911  28.586  42.872   2.164
11186W        W82912   2.634   1.403  14.351
11187W        W82913  23.665   6.348   0.001
11188W        W82914  21.639  23.068   4.108
11189W        W82915  25.444  44.709  13.935
11190W        W82916  13.416  44.514  11.636
11191W        W82917  30.847  38.215  13.370
11192W        W82918  30.660  27.887  13.793
11193W        W82919  11.689  32.391  11.435
11194W        W82920  12.429  33.112  12.110
11195W        W82921  36.309  15.524  10.378
11196W        W82922  42.476  35.182  14.759
11197W        W82923  18.993   3.763   4.521
11198W        W82924  25.622   4.468   1.226
11199W        W82925   7.664  29.924   0.045
11200W        W82926  37.031  41.052   1.238
11201W        W82927  13.893  38.013   0.936
11202W        W82928  11.796  10.258  12.537
11203W        W82929  32.958   9.920  14.808
11204W        W82930  25.203  30.424   0.490
11205W        W82931  43.234  12.002  11.595
11206W        W82932  29.187  18.645   3.202
11207W        W82933   6.826  10.873   3.309
11208W        W82934  25.730  41.556  12.561
11209W        W82935   0.812  40.347  10.654
11210W        W82936  10.826   1.472   3.115
11211W        W82937   5.489  30.667   2.719
11212W        W82938   4.497   9.846  12.173
11213W        W82939   7.251  20.746  12.361
11214W        W82940   4.515  31.448   2.282
11215W        W82941   4.242   0.421  11.830
11216W        W82942  38.380  29.106  11.059
11217W        W82943  33.954  26.560  14.570
11218W        W82944  30.086  33.040   3.971
11219W        W82945   2.282   1.199  13.165
11220W        W82946  41.572  18.534  12.534
11221W        W82947  13.175  24.234  14.468
11222W        W82948  43.931  31.619   2.545
11223W        W82949   5.796  16.742  11.083
11224W        W82950   8.640  11.630  10.631
11225W        W82951  21.801  31.184   3.965
11226W        W82952   6.507   5.833   2.356
11227W        W82953  33.731  24.074   0.266
11228W        W82954   9.242  36.873   4.098
11229W        W82955  16.713  27.599   4.618
11230W        W82956  44.240   3.234  13.532
11231W        W82957  36.045   8.755   1.145
11232W        W82958  32.979   1.340  13.645
11233W        W82959  29.027  39.779  12.009
11234W        W82960  41.185  44.846   3.713
11235W        W82961  21.792   6.229  11.558
11236W        W82962  25.545  41.748  14.938
11237W        W82963  19.700  27.989   4.871
11238W        W82964  34.082  34.333  11.855
11239W        W82965  12.443  32.885  13.029
11240W        W82966  30.051  41.792   3.425
11241W        W82967   8.620  16.855  13.270
11242W        W82968  36.706  28.942   1.612
11243W        W82969  31.557  26.645  14.992
11244W        W82970  27.473  42.946  14.400
11245W        W82971  44.769  34.436   2.251
11246W        W82972  20.178  40.074  14.848
11247W        W82973  39.266  19.147  12.880
11248W        W82974   4.921  34.556  14.920
11249W        W82975  21.763  35.639  11.995
11250W        W82976  41.948  11.608   4.602
11251W        W82977  12.603   1.074  13.563
11252W        W82978  31.172  25.828   5.457
11253W        W82979  29.557  29.085   2.457
11254W        W82980  17.262  14.084  12.925
11255W        W82981  27.735   4.859  13.555
11256W        W82982  15.752  33.376   3.203
11257W        W82983   0.427  15.647   3.175
11258W        W82984  22.316  25.016  11.964
11259W        W82985  23.657  24.948   3.726
11260W        W82986   9.776  40.207  12.502
11261W        W82987  27.091  33.088  12.579
11262W        W82988  38.101  11.417   0.329
11263W        W82989   3.841  12.086  14.899
11264W        W82990  27.715   1.698   4.192
11265W        W82991  10.896  31.353   4.090
11266W        W82992  27.035  35.074  14.867
11267W        W82993  32.959  20.602   4.120
11268W        W82994  37.535  32.462   1.974
11269W        W82995   4.912  25.277  14.354
11270W        W82996   8.890  15.404   2.910
11271W        W82997  17.131  40.547  11.660
11272W        W82998  32.674  27.290   4.111
11273W        W82999  29.737  19.652   1.499
11274W        W83000  16.630   4.306   4.449
11275W        W83001   6.587  17.683   1.190
11276W        W83002   2.722  21.335   0.872
11277W        W83003  39.298   8.098  11.712
11278W        W83004   2.011  40.894  14.038
11279W        W83005  32.464   7.861   3.117
11280W        W83006  28.454   1.506   0.577
11281W        W83007  32.943  10.738   3.360
11282W        W83008  10.575  19.997   2.748
11283W        W83009  30.530   5.658  14.924
11284W        W83010  20.466  28.829  10.146
11285W        W83011  30.960  42.072  10.162
11286W        W83012  33.206   1.374   0.520
11287W        W83013  42.641  23.350   0.029
11288W        W83014  38.897   0.006  14.520
11289W        W83015  21.505  44.992  12.634
11290W        W83016  20.187  30.585  10.977
11291W        W83017  40.439  23.228  14.321
11292W        W83018  27.893  26.571  11.002
11293W        W83019   7.248   7.525  13.319
11294W        W83020  12.865   4.695  12.478
11295W        W83021  14.132  28.744   3.438
11296W        W83022  40.475  26.558   0.486
11297W        W83023   6.501   7.610  13.872
11298W        W83024  43.829  24.567   3.138
11299W        W83025  15.582   5.673  12.504
11300W        W83026  28.652   3.952   2.388
11301W        W83027   7.683  40.395  13.951
11302W        W83028  31.023  29.260  11.095
11303W        W83029   8.445  12.794  13.494
11304W        W83030  44.204  28.886  14.885
11305W        W83031   2.657   7.205  13.863
11306W        W83032  24.690  38.892  10.567
11307W        W83033  10.086  26.161  11.380
11308W        W83034  24.926  28.985   3.235
11309W        W83035  24.065  14.206  13.417
11310W        W83036   0.174  39.451  14.967
11311W        W83037   9.543  32.643  14.455
11312W        W83038  17.815   8.689   3.661
11313W        W83039  21.121  18.707   4.619
11314W        W83040  33.581  37.452  14.463
11315W        W83041   6.245  19.600  10.826
11316W        W83042   2.528   3.696  14.397
11317W        W83043  22.723  37.182  12.925
11318W        W83044   6.768   4.907  14.803
11319W        W83045  16.719  32.928  13.392
11320W        W83046  38.745  14.768   1.738
11321W        W83047  16.660   7.390  13.325
11322W        W83048  29.839  40.453  11.229
11323W        W83049  33.866  35.298  11.978
11324W        W83050   4.675  14.769  14.813
11325W        W83051  24.906  42.994   0.316
11326W        W83052  19.814  36.465   1.957
11327W        W83053   7.432  10.785  12.424
11328W        W83054   5.756  42.580  12.860
11329W        W83055  37.267  24.106   0.469
11330W        W83056  20.290   9.192   0.762
11331W        W83057  30.105   9.629  13.051
11332W        W83058  30.571  43.392   0.624
11333W        W83059  18.625  19.511   3.694
11334W        W83060  20.070  36.925   1.806
11335W        W83061   4.289   9.849   3.553
11336W        W83062  40.883  20.238  13.403
11337W        W83063  37.383   2.421  11.938
11338W        W83064   2.560  31.240  11.914
11339W        W83065  31.496  23.069   5.027
11340W        W83066  43.676  15.775  11.138
11341W        W83067  25.637  35.536  13.713
11342W        W83068  19.462   2.180  12.069
11343W        W83069  42.997   7.194  12.197
11344W        W83070  42.877  20.703   1.787
11345W        W83071  18.045  43.446  12.834
11346W        W83072  30.446  25.068  12.515
11347W        W83073  38.645  28.998  11.503
11348W        W83074  28.471  14.098  14.384
11349W        W83075   0.750  41.807  12.392
11350W        W83076  31.506  33.781   2.652
11351W        W83077  18.522   4.425  14.302
11352W        W83078  35.095  37.549   1.275
11353W        W83079  24.332  13.641   4.358
11354W        W83080  27.167  17.692  13.039
11355W        W83081  19.839  21.588   1.363
11356W        W83082  14.176  27.458   4.378
11357W        W83083  29.125  24.247   4.684
11358W        W83084  10.625  13.179  11.381
11359W        W83085  20.994  43.547  14.445
11360W        W83086  29.529  16.533  14.047
11361W        W83087  16.283   8.233   4.198
11362W        W83088  14.302   9.354   1.900
11363W        W83089   8.379   7.327  12.816
11364W        W83090  17.134  25.751  14.928
11365W        W83091  23.801   4.735  13.680
11366W        W83092  31.217  18.281   2.994
11367W        W83093  35.330  14.690   1.840
11368W        W83094  24.160   1.955  13.851
11369W        W83095  17.068   7.101  14.884
11370W        W83096  36.064  23.064  12.899
11371W        W83097  35.594  20.986   1.238
11372W        W83098  41.743  12.815  12.478
11373W        W83099  22.718  21.623  12.899
11374W        W83100  38.013  37.296  10.673
11375W        W83101  17.559   4.921   2.860
11376W        W83102  18.213  19.605   0.299
11377W        W83103  27.641  21.950  13.979
11378W        W83104   7.865  30.893   1.468
11379W        W83105  27.202   7.030   4.221
11380W        W83106   6.098   4.802  14.235
11381W        W83107   8.867  24.905   3.832
11382W        W83108  27.030  16.884   3.761
11383W        W83109  15.155  29.118   3.456
11384W        W83110  25.280  33.484   0.917
11385W        W83111  31.153  42.829   5.104
11386W        W83112   5.911   0.491  11.456
11387W        W83113  36.722   4.361   3.610
11388W        W83114  14.191  30.623   2.262
11389W        W83115   3.027  16.202  12.349
11390W        W83116  40.412  20.961  13.308
11391W        W83117  17.557  44.369   0.069
11392W        W83118  15.932  21.785  13.738
11393W        W83119  42.049  44.434  11.255
11394W        W83120  38.778  39.973   1.766
11395W        W83121   8.443  44.919  13.895
11396W        W83122  25.180  16.999  14.436
11397W        W83123  36.010  11.961  13.459
11398W        W83124  14.750   3.433   1.220
11399W        W83125  17.050  34.229  14.549
11400W        W83126   0.235  15.288  11.948
11401W        W83127  11.363  31.562  10.437
11402W        W83128  18.322  26.186   1.448
11403W        W83129  40.784  37.434  14.957
11404W        W83130  34.445  35.096   4.220
11405W        W83131   7.671   9.668  14.327
11406W        W83132  32.987  34.654   2.878
11407W        W83133   6.295  28.702   1.395
11408W        W83134  10.684  34.405  13.218
11409W        W83135  44.532  14.013   1.939
11410W        W83136  25.421   5.101   0.776
11411W        W83137   8.715  42.335   4.113
11412W        W83138  27.404  12.429  12.619
11413W        W83139  20.121  11.016  12.918
11414W        W83140  20.262   7.051  12.495
11415W        W83141  18.326   2.388  11.098
11416W        W83142   5.335  26.040   1.165
11417W        W83143  33.527  31.541  14.912
11418W        W83144  15.857  41.025  14.494
11419W        W83145  20.286  21.501  12.943
11420W        W83146  30.510   6.677  11.726
11421W        W83147   7.717  19.185   2.702
11422W        W83148  25.973  41.438   2.453
11423W        W83149  23.069  14.965  12.015
11424W        W83150  10.911  40.288  13.297
11425W        W83151  26.441  20.560   1.395
11426W        W83152  43.485  22.819  13.422
11427W        W83153   7.979  19.918  14.276
11428W        W83154  32.809  25.174  11.571
11429W        W83155  38.903  41.971   0.482
11430W        W83156   7.264  35.109   3.406
11431W        W83157  14.622  28.999   3.332
11432W        W83158  12.182  28.690   0.750
11433W        W83159  18.764  44.740  12.359
11434W        W83160  44.777   6.248  11.607
11435W        W83161  31.445  23.043  10.925
11436W        W83162   0.879  28.711  12.340
11437W        W83163  37.786  33.048  14.195
11438W        W83164  44.360  34.905   2.861
11439W        W83165  11.961  31.027  12.910
11440W        W83166   6.730  43.806   0.010
11441W        W83167  31.138  22.899   5.365
11442W        W83168  42.515  13.147  12.909
11443W        W83169  26.844  30.166  11.984
11444W        W83170  30.955  23.026   0.670
11445W        W83171  12.240  12.342  11.011
11446W        W83172  30.417  34.233  14.049
11447W        W83173  11.612  24.288   1.280
11448W        W83174  29.953  22.410  14.762
11449W        W83175  43.063  34.268  10.251
11450W        W83176   8.722  41.206  13.301
11451W        W83177   1.003  19.682  14.891
11452W        W83178   6.804  40.981   3.318
11453W        W83179  35.021   5.713  11.117
11454W        W83180  23.972  29.131  11.727
11455W        W83181  14.242   7.088  10.944
11456W        W83182  20.677  38.776  10.680
11457W        W83183  31.557  30.609   4.630
11458W        W83184  19.055   6.842  12.029
11459W        W83185  26.499  31.773  11.054
11460W        W83186  40.987   6.258   1.806
11461W        W83187  25.177  35.673  13.453
11462W        W83188   5.311   1.465   0.069
11463W        W83189  27.080  34.683   1.973
11464W        W83190   1.944  22.456   1.475
11465W        W83191  14.153  32.645  13.181
11466W        W83192  36.276  44.707   2.222
11467W        W83193   3.318  14.903  12.656
11468W        W83194  19.001  31.312  12.826
11469W        W83195  39.115  36.125  14.521
11470W        W83196   7.466  12.872  13.381
11471W        W83197  21.507   9.409   1.301
11472W        W83198  11.607  17.618   3.223
11473W        W83199  20.758  16.382  13.583
11474W        W83200  36.631  44.378  11.182
11475W        W83201  16.352  16.638  14.518
11476W        W83202  32.840  19.119  14.863
11477W        W83203  40.828  20.240   1.736
11478W        W83204  16.645  20.064   3.333
11479W        W83205  36.084  16.485  10.932
11480W        W83206  28.477  26.128  10.602
11481W        W83207  23.937   1.190   1.474
11482W        W83208  17.646  32.934  14.409
11483W        W83209   6.880   7.300  11.959
11484W        W83210   6.085   1.707   0.954
11485W        W83211  28.717  36.016   1.471
11486W        W83212  11.172   5.689  11.522
11487W        W83213  43.861  41.035  10.393
11488W        W83214   0.547  44.814   1.940
11489W        W83215  15.288  14.746   2.749
11490W        W83216  19.065  14.439  13.850
11491W        W83217   1.765  36.396  12.052
11492W        W83218  22.267   6.273  10.652
11493W        W83219  40.554  17.629  12.935
11494W        W83220  28.027  33.587  12.720
11495W        W83221  22.896  32.556  14.426
11496W        W83222   7.629  15.377   0.157
11497W        W83223  20.189  11.488   4.708
11498W        W83224  17.288  36.414  11.489
11499W        W83225  25.787   7.785  14.185
11500W        W83226  13.077  33.124  12.492
11501W        W83227  27.348  32.687   3.365
11502W        W83228  21.942   5.440  12.465
11503W        W83229  39.571  18.250  13.851
11504W        W83230  18.236  39.321  13.513
11505W        W83231  16.029  34.425   3.204
11506W        W83232   8.539  26.184   2.747
11507W        W83233  34.879  16.801   0.720
11508W        W83234  37.079  14.232  10.732
11509W        W83235   4.662  16.892  14.317
11510W        W83236  39.861  33.608   2.295
11511W        W83237  40.469  15.751  13.038
11512W        W83238  14.492  32.964   3.252
11513W        W83239   6.304  22.949  12.023
11514W        W83240  12.534  14.626   0.888
11515W        W83241  10.281  32.006   0.035
11516W        W83242  37.454  23.273  12.932
11517W        W83243  12.270  40.066   2.158
11518W        W83244  15.825  26.157   0.801
11519W        W83245  39.820  11.108  13.444
11520W        W83246  18.216  38.511  12.498
11521W        W83247  11.277  42.485  14.933
11522W        W83248  29.691  32.389  13.379
11523W        W83249   5.288  12.202  14.449
11524W        W83250  27.645  30.533  13.932
11525W        W83251  26.623  38.138   0.932
11526W        W83252  25.668  27.486  10.580
11527W        W83253  15.176  23.022  13.794
11528W        W83254  17.855  16.099   3.637
11529W        W83255  18.849  42.065   0.222
11530W        W83256  27.858  38.605   4.084
11531W        W83257  20.706  13.831   3.038
11532W        W83258   6.724  26.886  12.062
11533W        W83259  28.181   7.357  14.428
11534W        W83260  41.453  21.105  10.901
11535W        W83261   1.828  38.819   1.816
11536W        W83262  42.393  32.869   3.768
11537W        W83263  39.929  34.130   1.352
11538W        W83264  43.097  29.502  13.550
11539W        W83265  36.671  11.140   2.560
11540W        W83266  11.344   8.828  11.960
11541W        W83267   3.321  11.693  11.331
11542W        W83268   5.752   2.775   1.900
11543W        W83269   7.438  13.301  12.869
11544W        W83270  10.777  17.724   1.340
11545W        W83271  25.770  13.222   3.129
11546W        W83272  24.987  41.313   2.017
11547W        W83273  16.587  13.722  11.604
11548W        W83274  38.484  32.972   1.791
11549W        W83275  23.952  19.760   0.672
11550W        W83276   3.181   2.819   3.774
11551W        W83277  42.955  33.443   2.322
11552W        W83278  32.009  24.432  14.518
11553W        W83279  41.380  25.632   0.682
11554W        W83280   7.971   6.533  12.867
11555W        W83281  31.435  43.768  13.981
11556W        W83282  26.668  14.190   0.177
11557W        W83283  42.957   1.296   1.601
11558W        W83284  43.280  31.315   0.407
11559W        W83285  30.699  17.718  11.069
11560W        W83286  10.112   8.630  14.474
11561W        W83287   4.681  37.369  14.306
11562W        W83288  31.456  23.617   1.764
11563W        W83289   3.828  26.673   4.174
11564W        W83290   0.168  40.737   1.816
11565W        W83291  34.269  40.192   3.744
11566W        W83292  37.814  29.044   3.318
11567W        W83293  13.390  29.109  13.073
11568W        W83294  20.567  13.750  13.447
11569W        W83295   6.651  41.545  10.813
11570W        W83296   8.896  10.212  12.366
11571W        W83297  31.188  25.218   3.316
11572W        W83298  37.071  14.631  11.450
11573W        W83299  36.181  20.132  11.947
11574W        W83300  31.148  35.782  13.489
11575W        W83301  15.393  20.534   2.196
11576W        W83302  40.515  24.653  12.640
11577W        W83303   2.254   7.772  14.492
11578W        W83304  42.726  25.144   2.648
11579W        W83305  11.798  10.967  13.372
11580W        W83306  14.444  12.306   3.904
11581W        W83307  25.570  29.563  10.691
11582W        W83308  28.543  41.810  11.039
11583W        W83309  17.052  24.624  11.494
11584W        W83310  16.503  23.196   2.805
11585W        W83311  14.571  16.075   1.782
11586W        W83312   0.518  11.015   2.287
11587W        W83313  22.787  44.412  11.520
11588W        W83314  34.424   0.911  10.752
11589W        W83315  16.055  28.017   2.387
11590W        W83316  34.144   5.165   1.259
11591W        W83317  17.561  44.871   2.308
11592W        W83318  22.498  43.796  10.715
11593W        W83319  22.124  28.706   4.212
11594W        W83320  32.123  31.714   1.582
11595W        W83321   0.655   0.615  10.511
11596W        W83322  16.237  42.469   1.433
11597W        W83323  24.084  20.069  13.804
11598W        W83324   0.786  34.484  12.110
11599W        W83325  11.417  21.050   0.764
11600W        W83326  25.625  42.531   0.284
11601W        W83327  38.022  25.889   2.167
11602W        W83328   7.497  41.831   4.531
11603W        W83329  27.233   4.143   1.116
11604W        W83330  38.460   1.602  11.228
11605W        W83331  28.101  12.377  14.350
11606W        W83332   1.233  43.081   2.840
11607W        W83333  19.597  20.772  13.630
11608W        W83334  25.075  15.560   1.831
11609W        W83335  35.886   7.821   2.431
11610W        W83336   5.939  39.994   2.364
11611W        W83337  39.440   0.910  10.773
11612W        W83338   5.389  33.788   0.939
11613W        W83339  42.118  34.922  12.647
11614W        W83340  35.067  38.393  14.807
11615W        W83341  44.612  40.451  11.394
11616W        W83342   3.288   5.780   2.934
11617W        W83343  24.080  40.357   3.209
11618W        W83344   5.748  33.366  12.466
11619W        W83345  20.729  19.036   4.540
11620W        W83346  10.870  11.659  13.470
11621W        W83347   8.869  31.342   3.402
11622W        W83348  24.974  31.798   4.280
11623W        W83349  31.170  22.849   1.283
11624W        W83350  28.002  11.381   0.434
11625W        W83351  21.297  28.183   2.682
11626W        W83352  22.401   9.196   2.765
11627W        W83353  25.551  31.751  14.314
11628W        W83354  44.858  37.672  12.064
11629W        W83355   9.826  44.030   0.486
11630W        W83356  39.294   5.791   1.717
11631W        W83357  29.940  28.957  10.788
11632W        W83358  11.598  13.503   3.573
11633W        W83359  23.408  41.024  12.696
11634W        W83360   8.341   8.133   1.197
11635W        W83361  22.054  18.069  13.087
11636W        W83362   4.887  40.278   1.240
11637W        W83363  23.526  41.801  11.678
11638W        W83364  22.745  41.032  11.540
11639W        W83365  18.092  17.714   3.987
11640W        W83366  41.590  23.138  10.383
11641W        W83367  36.483   8.096   3.785
11642W        W83368   4.827   4.052  13.889
11643W        W83369  41.489  40.980  12.108
11644W        W83370  23.453  17.777   0.534
11645W        W83371  33.452  25.577  12.025
11646W        W83372  38.535   8.414   1.787
11647W        W83373  39.239  31.122   3.133
11648W        W83374  39.825  22.954   0.461
11649W        W83375  21.686  23.790  14.985
11650W        W83376  22.621  31.888   3.685
11651W        W83377   1.402  39.149  13.409
11652W        W83378  33.681  37.482   3.610
11653W        W83379  25.622  27.421  13.340
11654W        W83380  31.101  42.362   5.411
11655W        W83381  26.696  11.602  11.212
11656W        W83382  15.631  44.128  14.962
11657W        W83383   8.785  44.787  11.294
11658W        W83384   3.197  17.258  14.511
11659W        W83385   2.225  40.869  13.553
11660W        W83386   6.173  37.645   3.213
11661W        W83387  38.795  32.394  14.477
11662W        W83388  31.573  12.494   4.756
11663W        W83389  27.851  23.835  13.946
11664W        W83390  20.256  40.988  12.394
11665W        W83391  21.078  35.373   3.626
11666W        W83392  13.277   1.362   2.816
11667W        W83393  34.441  19.090  14.756
11668W        W83394  37.598  19.246   0.031
11669W        W83395  42.968  40.891   2.227
11670W        W83396  36.350  35.232  12.144
11671W        W83397  44.997  13.155   2.398
11672W        W83398  29.630  18.488   4.995
11673W        W83399   8.024  20.528   0.884
11674W        W83400  26.475  41.033  10.695
11675W        W83401   4.331  24.470  13.978
11676W        W83402  15.574  36.186  12.902
11677W        W83403  17.148  11.070   2.450
11678W        W83404  31.201   6.993  12.204
11679W        W83405  10.357  21.076  12.985
11680W        W83406  42.802  20.545   4.916
11681W        W83407  26.509  41.365  11.939
11682W        W83408   7.675   9.044   0.411
11683W        W83409  23.751  31.583  14.587
11684W        W83410  21.588  26.935   4.436
11685W        W83411  44.975  15.236   1.894
11686W        W83412  19.784   4.456  12.920
11687W        W83413   6.877  31.190   3.976
11688W        W83414   8.695  41.699  13.127
11689W        W83415  23.696  17.700   1.918
11690W        W83416  19.273  18.178   2.820
11691W        W83417  33.872  24.604   0.314
11692W        W83418  12.310  29.171   4.630
11693W        W83419  20.067  32.968   3.709
11694W        W83420  12.827  10.434  13.882
11695W        W83421  37.095   8.168   2.883
11696W        W83422  33.979  28.517   0.168
11697W        W83423  12.000   7.038   2.289
11698W        W83424  42.446   5.733   3.330
11699W        W83425   1.415   7.451   2.271
11700W        W83426  32.029  37.317  13.814
11701W        W83427   0.398   1.303  11.948
11702W        W83428   8.319  44.536  11.380
11703W        W83429  44.950  16.718   1.491
11704W        W83430  27.283  38.887  10.531
11705W        W83431  34.532   1.272   3.198
11706W        W83432   0.288  15.667   0.828
11707W        W83433   2.283   4.491  14.777
11708W        W83434  13.076  44.832  10.738
11709W        W83435  37.086  30.569   4.592
11710W        W83436  30.916  23.963  12.069
11711W        W83437  11.087  42.513   2.651
11712W        W83438   1.205  13.787   5.036
11713W        W83439  16.466  34.465  13.558
11714W        W83440  20.785  34.601   1.438
11715W        W83441   1.919  34.733   2.197
11716W        W83442  15.999  44.034  11.167
11717W        W83443  23.778  27.219  10.744
11718W        W83444  14.678   3.417   4.157
11719W        W83445  10.694   2.894   4.398
11720W        W83446  31.383  14.775   3.327
11721W        W83447  32.422  29.195   2.368
11722W        W83448  22.599  33.815  13.060
11723W        W83449  22.115  22.340  11.522
11724W        W83450   5.592  16.671   3.019
11725W        W83451  22.572  17.815   1.371
11726W        W83452  41.998  22.754  14.999
11727W        W83453  17.216  33.605  12.580
11728W        W83454  28.182  28.024  13.957
11729W        W83455  13.596  30.497   2.082
11730W        W83456   8.484  25.625   9.955
11731W        W83457  24.407  34.616   1.260
11732W        W83458   0.656  41.344   4.123
11733W        W83459  21.212  35.567  13.351
11734W        W83460   4.637  27.137  13.579
11735W        W83461  30.675  29.981   2.918
11736W        W83462  40.017  12.376  10.854
11737W        W83463  28.879  27.026   1.470
11738W        W83464  33.565  30.711   4.779
11739W        W83465   6.696  42.762  14.976
11740W        W83466   8.907  31.920  14.130
11741W        W83467  18.253  31.299  14.915
11742W        W83468   7.610   0.366   3.248
11743W        W83469   5.085  29.324   3.665
11744W        W83470  21.140  20.033   3.747
11745W        W83471  30.664  28.564  14.768
11746W        W83472  34.833  34.943   2.240
11747W        W83473  20.530  41.041  11.123
11748W        W83474  16.549  35.829   3.281
11749W        W83475  12.610   8.498   0.594
11750W        W83476  33.434  36.497   0.634
11751W        W83477  33.089  13.933   3.284
11752W        W83478  26.844  13.333  13.414
11753W        W83479  30.379  28.908   1.654
11754W        W83480  23.473  34.568  11.180
11755W        W83481  24.998  42.967  13.984
11756W        W83482  29.576   2.558   0.662
11757W        W83483  24.481  35.135  12.134
11758W        W83484   1.656  25.156   0.744
11759W        W83485  22.182  25.849  13.567
11760W        W83486  11.338  44.936   1.227
11761W        W83487  37.875  12.894   3.216
11762W        W83488  36.072   3.417  10.599
11763W        W83489  42.477  12.374  13.461
11764W        W83490  44.747   0.413  10.837
11765W        W83491  32.471  18.219   1.796
11766W        W83492  19.774  29.123  12.457
11767W        W83493  24.218  13.613  14.376
11768W        W83494   8.851  25.210   4.235
11769W        W83495   3.337  35.421  11.200
11770W        W83496  11.998  13.284   0.855
11771W        W83497  44.850  24.092   0.485
11772W        W83498   5.279  31.881   3.287
11773W        W83499  19.672  11.690  10.752
11774W        W83500   0.384   1.692   4.100
11775W        W83501  28.174  21.959   0.765
11776W        W83502  41.584   0.915  12.137
11777W        W83503  18.101  31.054  11.479
11778W        W83504  38.489  12.182  11.050
11779W        W83505   2.012  20.085   4.843
11780W        W83506  24.637  14.685  14.529
11781W        W83507   1.263  13.048  14.415
11782W        W83508  20.847  43.381   3.595
11783W        W83509  21.027  25.688   3.651
11784W        W83510  24.092   3.566   2.428
11785W        W83511  12.304  24.927   2.927
11786W        W83512  17.112  18.587   4.622
11787W        W83513   6.444  19.227   1.519
11788W        W83514  42.857   5.872   4.065
11789W        W83515  28.936  42.087  12.513
11790W        W83516  34.285  38.457   4.197
11791W        W83517   0.646  41.512  14.118
11792W        W83518   5.121  41.461  11.936
11793W        W83519  17.168   8.887  14.828
11794W        W83520  11.119  25.635   2.278
11795W        W83521  38.244  28.980   4.115
11796W        W83522   9.878  29.760  11.870
11797W        W83523  37.237  15.112   3.330
11798W        W83524  19.704  32.282  14.828
11799W        W83525  18.588  38.011  12.381
11800W        W83526  40.557  22.246   4.453
11801W        W83527   3.770   6.119  11.964
11802W        W83528  36.075  41.289   1.260
11803W        W83529  43.871  17.260   0.767
11804W        W83530  25.053  16.965  10.939
11805W        W83531  40.580  22.787  14.502
11806W        W83532  41.433  22.026  12.296
11807W        W83533  10.536   5.257   1.198
11808W        W83534   4.909  19.566   5.015
11809W        W83535  30.924  13.233   2.724
11810W        W83536  35.401  37.434  13.447
11811W        W83537  19.486  27.782   3.546
11812W        W83538  35.871  41.308   4.300
11813W        W83539  32.548  31.397  11.590
11814W        W83540   5.484  19.692  14.001
11815W        W83541   9.819  21.591   2.735
11816W        W83542   2.576  40.259  12.027
11817W        W83543  23.587  36.085   0.639
11818W        W83544   5.672   4.711   5.032
11819W        W83545   8.169  23.970   2.792
11820W        W83546  28.114  41.835  13.507
11821W        W83547   3.289  23.094   0.028
11822W        W83548  13.760  30.853  12.009
11823W        W83549  38.820  16.677   3.750
11824W        W83550  15.164   3.008  14.981
11825W        W83551  23.966   2.966  10.608
11826W        W83552  35.888  37.554  12.821
11827W        W83553  11.580  32.564   3.105
11828W        W83554  22.050  25.319   1.738
11829W        W83555  42.327  27.072  11.601
11830W        W83556  34.016  16.976   4.504
11831W        W83557  21.152  31.873   3.615
11832W        W83558  17.557   7.501  13.849
11833W        W83559   6.182  22.466   0.185
11834W        W83560  33.806  42.178   3.890
11835W        W83561   4.720  15.649   4.098
11836W        W83562  33.737  18.126  12.735
11837W        W83563  21.260  22.663   2.772
11838W        W83564  37.776  41.068  11.941
11839W        W83565  26.606   1.298  11.124
11840W        W83566   1.980  29.062  11.556
11841W        W83567  21.690  14.343   3.791
11842W        W83568  10.211  10.613   3.692
11843W        W83569  37.585  18.789   3.122
11844W        W83570  40.243  41.174   0.919
11845W        W83571   1.355  39.448   1.510
11846W        W83572  36.470  18.555  13.871
11847W        W83573  20.701  31.357  14.266
11848W        W83574  23.863  37.879  12.519
11849W        W83575  37.287  17.294   4.986
11850W        W83576  12.827  31.128   2.399
11851W        W83577  32.379  30.215  10.776
11852W        W83578  11.087  23.859  13.815
11853W        W83579  18.521  44.983   3.842
11854W        W83580  19.266  12.275   3.254
11855W        W83581  25.502  26.112  10.908
11856W        W83582  14.792  28.620   2.774
11857W        W83583  11.202  32.556  11.439
11858W        W83584   4.312  38.819   0.893
11859W        W83585  10.879   1.938   3.312
11860W        W83586  23.426   9.741  10.548
11861W        W83587  15.643  43.805  10.392
11862W        W83588  38.657   1.997  13.778
11863W        W83589  20.070  12.861   1.136
11864W        W83590  29.950   8.160   2.756
11865W        W83591  32.186   0.542   4.102
11866W        W83592  31.528  29.194   0.141
11867W        W83593  30.100  22.748  10.502
11868W        W83594  13.692  44.994  12.856
11869W        W83595  31.339  43.266   3.392
11870W        W83596  44.085  18.483   2.644
11871W        W83597  11.548  12.149   4.694
11872W        W83598  29.697  38.431   4.518
11873W        W83599  41.095  35.428   1.193
11874W        W83600  11.056  30.498   4.692
11875W        W83601  15.206  41.299  13.349
11876W        W83602   4.231  23.851   2.392
11877W        W83603  37.439  23.711  14.366
11878W        W83604  36.885  16.297  10.572
11879W        W83605  26.411  36.616   0.791
11880W        W83606   7.676  13.809  12.011
11881W        W83607   2.890  25.666   4.671
11882W        W83608  22.769  23.145   0.212
11883W        W83609  35.839  19.265   3.784
11884W        W83610   2.859  43.699   4.835
11885W        W83611  31.518  17.155  10.678
11886W        W83612  24.624  32.101  12.899
11887W        W83613   9.145   3.866   0.725
11888W        W83614  28.124  13.204  10.674
11889W        W83615  16.510  16.033   0.469
11890W        W83616  26.885  26.612  11.041
11891W        W83617  38.213  22.054   2.361
11892W        W83618   6.751   5.803  11.665
11893W        W83619  20.054  30.621   0.299
11894W        W83620  29.240   2.843   1.849
11895W        W83621  17.530  37.518   3.359
11896W        W83622  17.231  41.252   2.200
11897W        W83623   0.313  13.358   4.098
11898W        W83624   9.161  29.456  11.626
11899W        W83625   6.323  34.460  10.617
11900W        W83626  12.899  12.666   0.930
11901W        W83627  33.140  42.826   4.054
11902W        W83628  21.986  42.762   2.652
11903W        W83629   6.879  32.635  14.987
11904W        W83630  17.066  25.551   0.443
11905W        W83631  30.600  24.903   4.259
11906W        W83632  16.545  17.464  13.516
11907W        W83633   2.732  23.957   0.973
11908W        W83634   3.328  26.840  13.869
11909W        W83635  21.736   9.388  14.030
11910W        W83636   1.441   5.610   2.088
11911W        W83637  43.769   7.918   4.657
11912W        W83638   8.354   4.309   0.750
11913W        W83639   4.290   2.171   2.431
11914W        W83640  25.420  10.767  11.587
11915W        W83641  17.269   0.508   0.278
11916W        W83642  19.994  30.388  12.935
11917W        W83643  24.940  44.333  11.903
11918W        W83644   7.248  23.825  11.549
11919W        W83645  19.692  27.774   1.160
11920W        W83646  34.951   8.523   4.474
11921W        W83647   5.504  12.685  10.579
11922W        W83648  22.543  16.622  10.994
11923W        W83649  24.233   2.691  13.035
11924W        W83650  29.480  17.578   0.525
11925W        W83651  33.167  16.578   2.080
11926W        W83652  25.122  19.887  10.403
11927W        W83653  39.984  28.685  13.080
11928W        W83654   5.827  23.951   0.830
11929W        W83655  27.065   6.518   2.820
11930W        W83656  39.694   4.169   2.250
11931W        W83657  43.750  43.403  13.568
11932W        W83658  12.972  15.826  12.771
11933W        W83659  43.389   3.733  10.641
11934W        W83660   1.991  18.719   4.653
11935W        W83661  20.119  23.706   3.628
11936W        W83662  40.834  15.169  10.731
11937W        W83663  19.212   9.581   0.867
11938W        W83664  22.260  15.423   2.863
11939W        W83665  37.528  32.497  10.593
11940W        W83666   2.787  14.620  11.509
11941W        W83667  26.459  24.472  11.884
11942W        W83668   4.843  23.928  13.471
11943W        W83669   2.440  18.119  12.723
11944W        W83670  17.064  30.905  11.429
11945W        W83671   1.468   2.869  12.706
11946W        W83672  18.314  26.739   0.550
11947W        W83673  34.575   2.636   3.291
11948W        W83674  32.511  35.068   2.432
11949W        W83675  15.723   9.326  13.092
11950W        W83676  20.296  43.036  12.567
11951W        W83677  38.661   4.437  12.019
11952W        W83678  39.940  40.008  11.427
11953W        W83679   5.834   5.703   3.626
11954W        W83680   0.302  31.237  14.247
11955W        W83681  29.176   7.626   2.732
11956W        W83682   5.603   0.044  12.570
11957W        W83683  35.525  17.994  13.308
11958W        W83684  26.197  39.379   4.354
11959W        W83685  41.734   4.711   4.587
11960W        W83686  29.280  15.737   0.970
11961W        W83687  12.602   8.792   4.948
11962W        W83688  29.999  17.787  14.823
11963W        W83689  30.411  10.383  14.391
11964W        W83690   6.444  26.549   1.035
11965W        W83691  30.725   7.723   2.713
11966W        W83692  22.717  26.469  14.381
11967W        W83693  33.982  14.283  12.964
11968W        W83694  13.448  10.385   2.705
11969W        W83695   3.293  24.394   4.129
11970W        W83696  30.139  35.818  12.120
11971W        W83697  44.881  35.586   2.268
11972W        W83698  21.535  43.095   4.234
11973W        W83699  39.253  27.125  12.340
11974W        W83700  35.021  32.308  13.407
11975W        W83701  27.149  34.881  12.004
11976W        W83702  30.213   6.384   4.588
11977W        W83703   4.816  29.393  11.215
11978W        W83704  17.856  31.912   1.183
11979W        W83705  28.739  20.600  14.632
11980W        W83706  26.398  26.499  11.080
11981W        W83707  30.819   3.444  14.767
11982W        W83708  26.379  26.182  12.177
11983W        W83709  27.591   5.785   4.348
11984W        W83710  12.786  31.596   1.686
11985W        W83711  35.423  20.736  11.166
11986W        W83712  18.855  16.452  12.947
11987W        W83713  14.705   1.406   3.895
11988W        W83714   1.952   4.894   4.788
11989W        W83715  41.908  37.032   3.726
11990W        W83716  38.886  21.020   2.859
11991W        W83717   4.022  36.984   4.803
11992W        W83718   8.763  23.649  14.290
11993W        W83719  41.332  23.034  11.331
11994W        W83720  25.533  37.326  11.994
11995W        W83721  36.997  13.250  10.722
11996W        W83722  27.190  39.365  11.490
11997W        W83723   5.880  38.681  10.840
11998W        W83724   2.335  14.106  10.704
11999W        W83725  43.596   2.620   3.158
12000W        W83726  23.068  27.724  13.086
12001W        W83727  29.169  24.162   2.335
12002W        W83728  42.235   3.499  13.119
12003W        W83729  44.185  34.046   0.750
12004W        W83730  18.510   3.226  14.454
12005W        W83731  32.174  12.889   1.167
12006W        W83732   2.969  38.307   2.942
12007W        W83733   2.557  41.250  13.409
12008W        W83734  19.620   3.383   0.534
12009W        W83735  18.002   1.677   2.633
12010W        W83736  30.924   1.354   1.741
12011W        W83737  21.593  12.852  14.283
12012W        W83738  31.339  24.426   1.640
12013W        W83739  13.514  34.014   2.258
12014W        W83740  43.454  20.665   3.660
12015W        W83741  41.914  31.738  10.726
12016W        W83742   5.083   7.837   3.655
12017W        W83743  34.081  43.906   2.227
12018W        W83744  42.215   7.576  10.698
12019W        W83745  16.256  10.652   0.992
12020W        W83746  20.258   0.924   2.738
12021W        W83747  18.744  12.029   4.494
12022W        W83748  25.436  16.331   2.161
12023W        W83749  25.970  34.719   3.862
12024W        W83750  22.554  44.838  13.443
12025W        W83751  40.080   0.963   1.823
12026W        W83752   8.617  12.043  12.444
12027W        W83753  29.407  18.971   1.214
12028W        W83754  34.348   7.664   0.826
12029W        W83755  19.155  23.929   4.325
12030W        W83756  38.041  29.625  10.748
12031W        W83757   9.166  32.376   0.857
12032W        W83758  29.665   6.894   1.465
12033W        W83759   1.237  39.592   0.373
12034W        W83760  20.290   6.300  12.904
12035W        W83761  30.152   0.280   3.249
12036W        W83762  40.789   1.930  13.003
12037W        W83763  29.697   8.922  13.398
12038W        W83764  16.206   7.274  14.010
12039W        W83765  21.659   8.656   0.687
12040W        W83766  22.234  43.858   2.614
12041W        W83767  43.385   1.003   1.703
12042W        W83768  25.396  22.667   4.552
12043W        W83769  10.975  42.580   0.350
12044W        W83770  15.858  23.224   0.893
12045W        W83771  31.201   5.660   3.849
12046W        W83772  30.982  18.435  10.630
12047W        W83773   1.678  33.152  11.882
12048W        W83774  18.095  39.850  10.642
12049W        W83775   8.694  34.436  12.569
12050W        W83776  37.423  32.902   0.156
12051W        W83777   7.183  12.356   3.856
12052W        W83778  11.659   5.834   1.379
12053W        W83779   3.969  43.048  12.939
12054W        W83780  31.659  14.652   1.466
12055W        W83781  14.270  23.472  13.052
12056W        W83782  32.912  13.879  14.469
12057W        W83783  25.965  15.562  10.053
12058W        W83784  33.570   1.471   0.122
12059W        W83785  26.726  42.488   2.922
12060W        W83786  14.211  29.509   0.441
12061W        W83787  27.638   2.255   3.328
12062W        W83788  22.999  23.523   0.481
12063W        W83789   7.629  36.379  12.935
12064W        W83790  39.373   5.426   4.886
12065W        W83791   2.768   0.801   2.524
12066W        W83792  22.374  12.596  10.848
12067W        W83793  43.234  33.943   3.738
12068W        W83794  42.889  31.050  13.748
12069W        W83795  27.460   8.609   1.308
12070W        W83796  31.676  10.678  12.199
12071W        W83797  20.121  44.769   4.567
12072W        W83798  24.136  19.111   3.559
12073W        W83799  33.823  11.405   0.345
12074W        W83800   0.545  11.283  12.914
12075W        W83801  16.776  39.396  13.520
12076W        W83802  33.572  10.667  11.595
12077W        W83803  20.782   0.349   0.295
12078W        W83804  16.816  14.715   1.800
12079W        W83805  42.206  23.728   0.935
12080W        W83806  22.118  18.552  12.892
12081W        W83807  26.299   5.744  11.387
12082W        W83808  27.686  28.776   0.987
12083W        W83809   8.299  36.527   3.401
12084W        W83810  42.342  44.497   5.008
12085W        W83811  21.791  21.569  10.956
12086W        W83812   7.266  23.817   3.215
12087W        W83813  25.565  37.134   3.797
12088W        W83814   0.623  44.797   0.170
12089W        W83815  14.646  20.759   2.782
12090W        W83816  28.479  26.253   3.839
12091W        W83817  37.971  39.781  10.712
12092W        W83818  40.778   0.990  13.763
12093W        W83819  28.110   3.402   0.461
12094W        W83820  31.583  21.132   2.819
12095W        W83821  35.546  21.971   2.330
12096W        W83822  34.128   0.512  14.816
12097W        W83823  11.385  13.338   1.946
12098W        W83824  33.600  42.052  10.818
12099W        W83825  38.052  40.277   1.430
12100W        W83826  26.091  13.964   3.213
12101W        W83827  31.673  13.074   1.327
12102W        W83828  24.783  29.965   1.675
12103W        W83829  15.233  42.486  14.364
12104W        W83830  15.948  39.763  10.318
12105W        W83831   7.145  27.714  11.169
12106W        W83832  40.842  18.992  12.908
12107W        W83833  19.179  24.259  12.145
12108W        W83834  28.657  32.418   2.339
12109W        W83835  18.233  22.871  14.442
12110W        W83836  16.078  30.645   0.975
12111W        W83837   4.723  27.139  12.344
12112W        W83838  24.548  23.187   3.275
12113W        W83839  32.396  22.095   4.519
12114W        W83840  20.081   2.204   0.468
12115W        W83841  29.530  19.683  13.616
12116W        W83842  17.707  23.834  12.011
12117W        W83843  22.581  31.959   2.345
12118W        W83844   5.570  17.646   1.288
12119W        W83845  18.425  16.229  14.964
12120W        W83846  30.993   6.737  10.459
12121W        W83847   8.646  38.369  13.771
12122W        W83848  26.639  44.730   3.340
12123W        W83849  33.401   1.503  11.840
12124W        W83850  42.511  35.540   0.662
12125W        W83851   8.223   4.352   2.328
12126W        W83852  27.220  11.455  11.276
12127W        W83853   5.074  44.969  11.644
12128W        W83854  44.245  44.910   2.796
12129W        W83855  30.981  30.378   1.224
12130W        W83856  35.066  40.461  10.753
12131W        W83857   4.752  43.052   4.556
12132W        W83858  18.729   1.939   3.643
12133W        W83859  25.589  22.169   4.352
12134W        W83860  41.369  24.454  11.637
12135W        W83861  38.406  26.074  13.446
12136W        W83862  28.373  38.435   1.475
12137W        W83863  16.523  36.836  11.721
12138W        W83864   1.689  17.071  14.540
12139W        W83865  29.511  30.175  12.405
12140W        W83866  19.425   9.063   0.213
12141W        W83867  44.922  14.743   1.711
12142W        W83868   7.258  35.684   4.838
12143W        W83869  27.144  43.274  13.536
12144W        W83870  14.092  14.741   0.653
12145W        W83871   9.406  35.536   1.483
12146W        W83872   1.914  37.382  12.762
12147W        W83873  16.082  41.982   1.540
12148W        W83874  28.223   7.519   1.126
12149W        W83875   1.912  24.969  11.674
12150W        W83876  20.354  25.603   0.880
12151W        W83877  44.164  27.982  11.626
12152W        W83878  22.362   0.177  10.838
12153W        W83879   8.656  16.607   4.286
12154W        W83880  16.114  22.304  14.922
12155W        W83881  22.730  23.084  10.579
12156W        W83882  10.699  16.766   1.827
12157W        W83883  42.106  42.363  14.429
12158W        W83884   4.418  26.600  13.610
12159W        W83885  31.664  22.123  11.272
12160W        W83886  31.503   1.888  10.763
12161W        W83887  25.618  29.179  14.191
12162W        W83888  12.319  36.881   2.165
12163W        W83889  22.956  37.642  12.587
12164W        W83890  38.977  16.283  12.195
12165W        W83891  44.332  30.371   3.697
12166W        W83892  21.025  33.536  14.580
12167W        W83893  24.409   6.643   2.255
12168W        W83894  22.158   5.097  12.797
12169W        W83895  11.171  35.395  12.740
12170W        W83896  43.987  17.734  11.171
12171W        W83897  15.281  14.743   3.252
12172W        W83898  43.864  18.363   2.206
12173W        W83899  31.219  20.030  14.293
12174W        W83900   5.865  33.578   0.908
12175W        W83901  43.745  25.157   3.628
12176W        W83902   8.175   1.694   3.724
12177W        W83903  32.662  23.103  14.278
12178W        W83904  25.408   9.651   0.733
12179W        W83905  22.026  29.419   4.524
12180W        W83906  25.698   5.360  14.328
12181W        W83907   6.591  12.591  11.085
12182W        W83908  23.263  10.790   3.369
12183W        W83909  19.275  40.575  11.232
12184W        W83910  15.705  20.967  10.485
12185W        W83911  26.972  23.262  11.101
12186W        W83912   6.659  30.932  12.840
12187W        W83913  36.213  31.018  11.932
12188W        W83914  12.574  24.617  13.866
12189W        W83915  36.375  41.578   2.758
12190W        W83916   4.549  21.053   1.398
12191W        W83917  20.586   3.689  10.731
12192W        W83918  42.220  22.557   0.449
12193W        W83919  35.466  15.280   2.833
12194W        W83920  37.361   6.358   3.938
12195W        W83921  39.230   7.228  12.183
12196W        W83922   8.597  38.485  10.649
12197W        W83923  33.831  10.969  13.842
12198W        W83924   1.042  14.620   1.989
12199W        W83925  28.902   9.115  11.999
12200W        W83926  32.004  34.929  10.938
12201W        W83927  41.345  34.198   4.676
12202W        W83928  23.105   7.889  13.448
12203W        W83929  19.222  19.672  14.257
12204W        W83930  39.769  41.735  11.936
12205W        W83931  39.515  27.862  11.729
12206W        W83932  20.840  42.245  12.071
12207W        W83933  12.785  37.170   0.653
12208W        W83934  19.736  22.192  13.436
12209W        W83935   1.980   3.192  13.891
12210W        W83936  44.882   2.715  14.958
12211W        W83937  30.919  26.267   4.211
12212W        W83938  28.482  36.796   4.575
12213W        W83939  23.668  23.064  14.985
12214W        W83940  24.700  13.208  14.849
12215W        W83941  32.900  10.271  13.295
12216W        W83942  42.481  36.553  11.653
12217W        W83943   3.754   9.780   2.308
12218W        W83944  20.558  11.091  13.894
12219W        W83945  17.249  38.645   2.512
12220W        W83946  37.379  17.257   2.196
12221W        W83947  10.134  27.229   2.190
12222W        W83948  22.935  42.675  10.730
12223W        W83949  18.696  17.034  11.096
12224W        W83950   5.619  32.656   2.945
12225W        W83951  23.782   1.743  11.198
12226W        W83952  40.852  38.451   0.448
12227W        W83953  25.192  15.644   4.177
12228W        W83954  13.141   9.564   2.697
12229W        W83955   2.750   3.533   4.663
12230W        W83956  29.928   7.358  14.256
12231W        W83957   8.893  41.736   2.269
12232W        W83958  43.517  30.237  14.871
12233W        W83959  44.075  28.507  13.447
12234W        W83960  17.578  36.160   1.326
12235W        W83961  35.352  41.880  14.359
12236W        W83962  12.255   1.242   2.308
12237W        W83963  41.059  33.816   4.136
12238W        W83964  15.533   5.918  11.644
12239W        W83965  28.319   5.972   2.610
12240W        W83966   9.800  35.926   1.629
12241W        W83967  40.536   3.541   4.055
12242W        W83968  20.749  24.264   0.460
12243W        W83969  44.564   3.336   3.733
12244W        W83970  24.611  32.569  12.085
12245W        W83971   0.663  30.595   4.771
12246W        W83972   3.212  26.079   4.614
12247W        W83973  20.861  13.939   4.316
12248W        W83974  39.013  35.043   1.980
12249W        W83975   9.437  37.406   1.834
12250W        W83976  17.300  30.891   1.222
12251W        W83977  41.055   5.185   3.621
12252W        W83978  28.502  27.041   4.013
12253W        W83979  26.186  42.721   4.592
12254W        W83980   7.197  33.377   3.865
12255W        W83981   0.686  22.802  14.877
12256W        W83982   4.798  15.872  12.902
12257W        W83983   6.814  18.794   4.510
12258W        W83984  13.691   1.298  10.661
12259W        W83985  35.939  44.712   3.721
12260W        W83986  37.072   7.866  11.159
12261W        W83987  26.185  38.809  14.505
12262W        W83988  39.607   6.731  13.474
12263W        W83989  14.075  27.005  14.728
12264W        W83990  41.315  39.145   1.682
12265W        W83991  33.426  19.198   3.607
12266W        W83992  20.795  35.217  13.339
12267W        W83993  14.087  43.444  13.466
12268W        W83994  17.528  31.058  10.858
12269W        W83995  18.733  33.708   3.114
12270W        W83996  33.665  35.405   1.783
12271W        W83997  15.831  21.578   1.485
12272W        W83998  42.845  13.200  13.294
12273W        W83999  32.129  33.218  11.714
12274W        W84000  17.720   2.805   4.603
12275W        W84001  40.808  16.380   4.590
12276W        W84002  24.713  17.790  13.920
12277W        W84003  13.785  39.482   0.200
12278W        W84004   8.596   2.945  11.468
12279W        W84005  32.584  15.771  11.038
12280W        W84006  22.454  23.471  13.926
12281W        W84007  41.175  29.925   4.860
12282W        W84008  23.799   4.793   4.149
12283W        W84009  22.511  29.477  14.231
12284W        W84010  13.473  17.801  14.776
12285W        W84011   9.432  42.423  13.147
12286W        W84012  35.301  28.006   2.246
12287W        W84013   0.784   5.729  12.103
12288W        W84014  27.999  14.010   4.141
12289W        W84015   3.806   7.310   5.035
12290W        W84016  21.659  42.401   4.713
12291W        W84017  37.386  24.404   0.014
12292W        W84018  29.008  12.631   4.213
12293W        W84019  24.046  11.562  12.072
12294W        W84020  28.938  21.976  10.598
12295W        W84021   7.905   3.264   1.676
12296W        W84022   7.282  25.759   0.628
12297W        W84023  33.625  23.289   3.281
12298W        W84024  19.926   6.327  10.327
12299W        W84025   4.102   3.560  12.896
12300W        W84026  11.199  10.388   1.707
12301W        W84027   2.161   8.387   4.256
12302W        W84028  25.972  38.955  13.321
12303W        W84029  27.588  43.918  11.449
12304W        W84030  16.688  27.183  11.107
12305W        W84031   1.344   1.729   2.046
12306W        W84032  43.355  18.140   0.920
12307W        W84033  17.027  21.449   0.238
12308W        W84034  41.818  42.434  13.999
12309W        W84035  18.836  20.394  13.032
12310W        W84036  28.176  41.050  10.280
12311W        W84037   3.628  36.371   0.678
12312W        W84038  11.184  16.584   4.500
12313W        W84039  27.493  33.527   1.863
12314W        W84040  29.310  33.421  14.229
12315W        W84041  44.714  17.212   0.619
12316W        W84042  24.975  27.615   3.259
12317W        W84043  43.265  31.581   0.891
12318W        W84044  34.322  19.785  12.116
12319W        W84045  17.963  28.448  12.971
12320W        W84046  23.135  15.320   1.857
12321W        W84047  31.511  44.846   1.837
12322W        W84048  27.944  44.937  11.031
12323W        W84049  37.824  18.729  13.428
12324W        W84050  32.667  21.165   4.858
12325W        W84051   1.823   3.390  14.913
12326W        W84052  21.204   6.029   4.232
12327W        W84053   7.818  29.024   3.322
12328W        W84054   5.936  24.656   4.788
12329W        W84055  27.620  24.508   1.192
12330W        W84056   3.398  13.700   0.401
12331W        W84057  38.540   9.471   1.277
12332W        W84058  38.544  17.625  11.093
12333W        W84059  10.938   9.154  10.685
12334W        W84060  19.217  11.288   0.099
12335W        W84061   4.912  14.057   1.236
12336W        W84062  19.152  17.075   4.335
12337W        W84063  35.493  37.245   1.312
12338W        W84064  22.558  42.539   2.099
12339W        W84065  17.256  28.981   2.380
12340W        W84066  44.332  27.023   3.428
12341W        W84067  14.706  20.265   1.694
12342W        W84068   5.411  41.570   1.368
12343W        W84069  20.811   1.903  11.233
12344W        W84070  25.666  37.122  14.477
12345W        W84071   3.173  17.309  10.762
12346W        W84072  30.645   3.051   4.905
12347W        W84073  23.493  14.818   3.234
12348W        W84074  31.910  23.024  13.497
12349W        W84075  30.978  27.887  12.325
12350W        W84076  42.646   8.768   2.237
12351W        W84077  29.546  14.779   3.250
12352W        W84078  29.880  27.182  10.668
12353W        W84079  40.244  34.416  14.024
12354W        W84080   0.383  16.190  14.865
12355W        W84081  41.248  14.852  10.826
12356W        W84082  23.421  26.144   3.103
12357W        W84083  14.392  38.497  11.992
12358W        W84084  27.716   0.450   4.578
12359W        W84085  32.325   6.280  13.095
12360W        W84086  12.584   9.196  13.401
12361W        W84087   7.529  19.371  10.794
12362W        W84088  23.430  44.754   3.591
12363W        W84089  12.052   9.736   1.912
12364W        W84090  22.288  11.672   3.615
12365W        W84091   7.275  13.886   9.993
12366W        W84092  26.536   4.466   3.055
12367W        W84093  34.552   3.944   1.305
12368W        W84094  44.261   1.359   2.635
12369W        W84095   0.931  24.530  11.644
12370W        W84096  40.232  44.308  12.326
12371W        W84097  38.918   1.781  11.068
12372W        W84098  13.305   8.408  14.026
12373W        W84099  40.982  41.883   3.194
12374W        W84100  20.999  36.710   3.419
12375W        W84101  13.117  26.489   2.692
12376W        W84102  29.027  30.537   4.182
12377W        W84103  14.609  32.583  14.433
12378W        W84104   4.141   5.981   2.735
12379W        W84105   9.720  25.161  12.857
12380W        W84106  17.303   4.834   2.401
12381W        W84107  36.739  14.627  10.700
12382W        W84108   5.647  21.983  14.448
12383W        W84109   6.681  38.912   4.701
12384W        W84110   7.810  22.768   3.603
12385W        W84111  16.660  32.379   2.234
12386W        W84112   8.842  27.511   1.553
12387W        W84113  14.219  23.205  10.729
12388W        W84114  40.409   7.201   2.462
12389W        W84115   3.640   4.295   0.393
12390W        W84116  36.290  35.347   4.637
12391W        W84117  20.774  27.004  13.843
12392W        W84118  42.196  11.513  13.069
12393W        W84119  28.194  28.059  10.524
12394W        W84120   9.113  22.321   5.107
12395W        W84121  43.448  23.977  14.293
12396W        W84122  24.046  34.952  11.230
12397W        W84123  33.194  35.592  11.202
12398W        W84124   0.820  26.200  14.097
12399W        W84125  19.989  32.718  14.234
12400W        W84126  38.847  27.214   0.873
12401W        W84127   8.341  26.574  12.908
12402W        W84128  25.682  31.137  10.625
12403W        W84129  38.420  40.810   4.734
12404W        W84130   3.660  16.255  12.167
12405W        W84131  17.571  37.509  14.950
12406W        W84132   4.860  29.517   0.386
12407W        W84133  41.807   2.799   4.627
12408W        W84134  27.491  39.380   1.797
12409W        W84135  20.850  43.793  12.994
12410W        W84136  41.870  23.578   1.917
12411W        W84137  15.712  27.095  11.218
12412W        W84138  11.178  17.487   0.327
12413W        W84139  14.118  14.844   4.474
12414W        W84140  11.637  11.670  12.955
12415W        W84141   5.908   0.419   1.443
12416W        W84142  21.749  32.447  14.536
12417W        W84143   1.016  18.465  13.969
12418W        W84144  22.433   9.206   1.812
12419W        W84145  30.854   7.810  12.891
12420W        W84146  19.308  14.533   4.283
12421W        W84147  40.918  19.881   4.284
12422W        W84148   2.491   5.830   0.156
12423W        W84149  43.090  27.035  13.356
12424W        W84150  15.326  37.807  14.254
12425W        W84151   1.259  22.236  11.627
12426W        W84152  19.952  25.271   0.286
12427W        W84153  42.863  40.815  12.744
12428W        W84154  17.164   9.400  14.906
12429W        W84155  28.549   3.414   4.296
12430W        W84156  35.953  35.839  14.411
12431W        W84157  19.076  20.176   4.670
12432W        W84158  19.138  43.496   0.373
12433W        W84159   3.061  20.300   1.792
12434W        W84160   3.608  21.101  11.119
12435W        W84161  29.977  27.910  14.406
12436W        W84162  11.690   8.448   0.446
12437W        W84163   4.372  44.868  10.506
12438W        W84164  20.059  25.979  11.976
12439W        W84165  27.578  23.131   3.574
12440W        W84166   7.493  36.782  10.619
12441W        W84167  13.905  44.858  14.298
12442W        W84168  14.274  17.548   3.188
12443W        W84169  15.763  28.565  12.152
12444W        W84170  32.439   0.449   1.418
12445W        W84171  34.957   4.240   2.679
12446W        W84172  43.004   6.810  11.446
12447W        W84173  12.151  29.597  12.380
12448W        W84174  32.062  30.139  12.053
12449W        W84175  34.821  35.992  11.359
12450W        W84176  21.728  20.783  14.476
12451W        W84177  29.503   6.399   1.392
12452W        W84178  26.558   8.288   4.556
12453W        W84179  44.689   2.088   3.440
12454W        W84180  22.640  42.394   2.598
12455W        W84181  29.192  10.652  13.926
12456W        W84182   5.060  34.982  12.878
12457W        W84183  25.493  27.153  11.844
12458W        W84184  35.014  22.150  10.572
12459W        W84185  36.862  16.203   4.315
12460W        W84186   6.133  36.298  10.698
12461W        W84187  19.809   5.349   3.661
12462W        W84188   8.227   4.495  12.027
12463W        W84189   4.350  30.967   2.399
12464W        W84190  41.759  12.712   2.628
12465W        W84191   3.668   0.834   2.688
12466W        W84192   0.985  23.725   1.021
12467W        W84193  15.077  20.837  14.939
12468W        W84194  34.055  21.033  10.769
12469W        W84195   1.455  19.041  14.224
12470W        W84196  37.855  39.418  11.467
12471W        W84197  42.924  21.008   0.037
12472W        W84198  12.837  37.049  14.032
12473W        W84199  15.158  42.566  11.968
12474W        W84200  13.719  27.593   4.586
12475W        W84201  17.335  35.911   4.157
12476W        W84202  43.408  36.994   2.412
12477W        W84203  38.547  32.963   1.286
12478W        W84204  42.941  13.334  11.544
12479W        W84205  35.323  24.993  11.130
12480W        W84206  29.595  14.917  11.108
12481W        W84207  24.430  20.995  11.959
12482W        W84208   4.001  36.639   3.215
12483W        W84209   1.693  33.184   0.027
12484W        W84210   7.930  29.102  14.343
12485W        W84211  21.688  33.259  13.468
12486W        W84212  27.071   3.400  13.324
12487W        W84213  26.651  17.949  10.473
12488W        W84214  15.364  19.080  12.448
12489W        W84215  26.983   2.885   4.387
12490W        W84216  10.752  42.120   3.783
12491W        W84217  37.862  35.941  12.985
12492W        W84218  23.645  20.069   0.284
12493W        W84219  43.578  43.729   2.954
12494W        W84220  36.110  25.431  12.864
12495W        W84221  31.003  27.479   1.443
12496W        W84222   3.644  41.995   3.662
12497W        W84223  18.535   9.869  10.438
12498W        W84224  13.392  28.969   3.706
12499W        W84225  41.039  25.429   3.861
12500W        W84226  26.474  41.519   2.914
12501W        W84227  26.122  37.320  11.630
12502W        W84228  33.470  13.234   1.415
12503W        W84229  27.478  43.382  10.319
12504W        W84230  26.703  42.529  12.877
12505W        W84231  31.101  22.501   4.628
12506W        W84232  36.113   6.857   3.667
12507W        W84233  41.639  31.467  12.263
12508W        W84234  23.652  26.624   1.683
12509W        W84235  19.534   2.173   4.104
12510W        W84236   6.337  12.342  11.953
12511W        W84237  28.503  19.331  11.386
12512W        W84238  21.355  13.245  10.273
12513W        W84239   0.822   4.868  14.072
12514W        W84240  20.113  22.471  11.027
12515W        W84241  16.315   1.251  13.458
12516W        W84242  23.977  27.229  12.605
12517W        W84243  18.973  44.701   3.792
12518W        W84244  10.802   2.320   4.775
12519W        W84245  19.578  38.035  12.290
12520W        W84246   2.308  35.138  12.561
12521W        W84247  18.694  44.437  13.959
12522W        W84248  29.926  40.754   3.082
12523W        W84249  35.580   2.861   0.754
12524W        W84250  40.517   2.799  13.491
12525W        W84251  29.129  38.023  11.625
12526W        W84252  35.120   3.830  10.688
12527W        W84253  41.564  32.467  13.031
12528W        W84254   2.273  36.124   4.332
12529W        W84255  23.343  17.154  11.832
12530W        W84256  20.021  15.136  11.634
12531W        W84257   0.490  29.047  11.380
12532W        W84258   8.711  42.115   1.666
12533W        W84259  25.801  39.484  14.448
12534W        W84260  24.021  27.473  12.132
12535W        W84261  18.074  25.993  11.189
12536W        W84262  41.732   3.998  14.048
12537W        W84263   3.451  34.545   2.354
12538W        W84264   4.947  12.634   3.248
12539W        W84265  19.698  43.430  12.145
12540W        W84266  31.638  34.093   4.533
12541W        W84267   0.689  16.543  13.477
12542W        W84268  40.938  40.958  13.691
12543W        W84269  41.897  10.059   3.102
12544W        W84270  37.480  14.266   0.635
12545W        W84271  37.835  10.372  12.696
12546W        W84272  43.214  13.724  12.917
12547W        W84273  37.175  17.825   1.627
12548W        W84274   9.268  37.358  13.085
12549W        W84275   2.719  11.423  10.687
12550W        W84276  36.009  44.403   4.641
12551W        W84277  22.077  42.069   3.589
12552W        W84278   9.282   5.873  14.379
12553W        W84279   8.754   5.856  14.479
12554W        W84280  17.802  43.518  12.400
12555W        W84281   2.856  30.155   3.142
12556W        W84282  28.550  12.826   4.240
12557W        W84283  17.757  29.479   1.595
12558W        W84284  15.658  43.156  12.106
12559W        W84285  23.228  17.347  14.325
12560W        W84286  11.856  25.294   5.069
12561W        W84287  40.416   8.179  12.775
12562W        W84288  39.475  19.668   4.640
12563W        W84289  22.742  27.020  11.627
12564W        W84290  15.233   8.103  11.106
12565W        W84291   7.846  35.448   0.264
12566W        W84292   5.987   9.250  14.919
12567W        W84293  34.311   3.599   2.831
12568W        W84294  29.004  21.717  11.529
12569W        W84295  38.167  15.659  12.937
12570W        W84296  16.297  20.775  13.845
12571W        W84297  42.858  29.093   2.079
12572W        W84298  20.964   0.159   4.111
12573W        W84299  19.756  18.712   3.053
12574W        W84300   8.414  34.696   9.838
12575W        W84301  13.591  42.304   3.962
12576W        W84302  43.358   4.332  11.288
12577W        W84303  41.119  19.391   2.316
12578W        W84304  14.670  31.619   2.866
12579W        W84305  26.099  14.293   2.800
12580W        W84306  20.016  13.163   2.861
12581W        W84307   1.586  13.959   0.432
12582W        W84308  39.297  36.456   0.804
12583W        W84309  28.998  23.344   3.699
12584W        W84310  10.809  28.001   2.247
12585W        W84311  31.666  17.233  14.570
12586W        W84312  28.690  42.786  13.894
12587W        W84313  14.567  17.052  13.778
12588W        W84314  42.908  19.450  13.893
12589W        W84315  42.901  44.729  14.884
12590W        W84316  44.796   9.107   3.711
12591W        W84317  11.190  23.643   4.008
12592W        W84318   5.700   3.327   4.213
12593W        W84319  36.504   6.365  11.670
12594W        W84320   0.803  30.045   0.856
12595W        W84321   8.350  24.196  14.786
12596W        W84322  39.586  22.950  14.481
12597W        W84323  24.956  35.981  10.674
12598W        W84324  12.641   8.193   1.029
12599W        W84325  34.613  41.414   2.228
12600W        W84326  24.277   6.692   4.834
12601W        W84327   3.428  32.004  14.086
12602W        W84328  21.516  25.005   1.244
12603W        W84329   8.325   2.183   4.564
12604W        W84330  17.092  30.052  11.976
12605W        W84331   1.950  22.335  14.398
12606W        W84332  24.915   9.152   3.651
12607W        W84333  12.525  43.185  12.492
12608W        W84334   8.220  19.770   1.389
12609W        W84335  34.128   1.791   0.035
12610W        W84336  19.536  10.962  13.887
12611W        W84337  21.212  24.608   2.843
12612W        W84338  22.653  33.453   4.711
12613W        W84339   7.513  43.667  13.470
12614W        W84340  43.389   4.942   2.301
12615W        W84341  42.819  35.204  12.114
12616W        W84342  39.554  28.898  11.610
12617W        W84343  27.948  27.971   0.825
12618W        W84344  11.391  24.293  12.996
12619W        W84345  24.030  24.524  10.720
12620W        W84346   7.590   3.340   1.222
12621W        W84347  35.319  36.901  11.646
12622W        W84348  31.502  24.244  11.066
12623W        W84349  15.024  34.898   2.544
12624W        W84350  26.682  15.919   2.971
12625W        W84351   4.367  28.535   4.106
12626W        W84352  20.725  29.014  12.865
12627W        W84353  24.705  31.847   2.516
12628W        W84354  15.354  29.819  12.543
12629W        W84355  30.910  14.656   0.952
12630W        W84356  38.792  26.004   3.391
12631W        W84357   8.240  17.609  13.464
12632W        W84358  12.660  41.555  10.576
12633W        W84359   2.722  21.808  14.287
12634W        W84360  34.501  36.429   2.258
12635W        W84361  19.325  38.248   2.786
12636W        W84362  13.273  10.621  11.891
12637W        W84363  42.730   4.825  11.205
12638W        W84364  40.378  11.108  11.631
12639W        W84365  18.493  12.286   4.033
12640W        W84366  42.925   8.276  10.423
12641W        W84367  32.351  26.002   1.144
12642W        W84368  31.878  40.808   3.191
12643W        W84369  24.941  25.059  13.559
12644W        W84370   4.755  26.307  13.908
12645W        W84371  40.892  31.665   1.376
12646W        W84372  23.988  39.363   4.395
12647W        W84373  33.845   0.271  10.828
12648W        W84374  37.817  13.444   2.226
12649W        W84375  15.079  36.539   0.858
12650W        W84376  21.822  21.490  12.352
12651W        W84377  27.273  44.490   1.519
12652W        W84378  26.076   7.316   0.861
12653W        W84379  17.550  13.580  10.701
12654W        W84380  30.205  28.535   0.060
12655W        W84381  24.028  23.988  12.030
12656W        W84382  19.596  33.086   0.471
12657W        W84383  29.173   4.312  13.958
12658W        W84384  27.907  12.106   3.820
12659W        W84385   5.153  31.828  10.351
12660W        W84386   4.794   0.495   4.591
12661W        W84387  27.756  36.798  13.167
12662W        W84388  39.425  39.072   0.321
12663W        W84389  19.025  13.150   4.108
12664W        W84390  43.624  24.206   1.850
12665W        W84391  28.841  36.415   0.702
12666W        W84392  10.096   5.029  10.787
12667W        W84393   5.254   0.715   4.452
12668W        W84394  18.695  33.898  14.883
12669W        W84395  31.646  24.997   3.406
12670W        W84396  41.264  13.802   4.249
12671W        W84397   4.560  23.549  11.512
12672W        W84398   8.309  42.289   3.461
12673W        W84399  29.954  31.672  10.648
12674W        W84400   8.574   3.310   2.831
12675W        W84401   3.789  42.588   1.633
12676W        W84402  15.233  23.931   0.823
12677W        W84403  19.818  10.335   5.082
12678W        W84404  34.379  32.533   0.278
12679W        W84405  39.910  13.230   3.662
12680W        W84406  26.656   0.500   0.811
12681W        W84407  25.224  18.339  12.546
12682W        W84408  10.486  11.161  12.324
12683W        W84409   8.309  15.628   4.177
12684W        W84410   1.867  40.818   0.349
12685W        W84411  44.516  26.234   1.189
12686W        W84412   2.444  43.980   3.618
12687W        W84413  44.445  29.196   2.447
12688W        W84414  10.432  39.778  10.478
12689W        W84415   7.364  42.987  12.401
12690W        W84416   8.870  14.203   0.795
12691W        W84417  20.517  31.173   3.711
12692W        W84418  37.283  38.948  13.301
12693W        W84419  17.318   8.842  11.554
12694W        W84420  12.621   1.868   4.387
12695W        W84421   6.994  16.442   1.500
12696W        W84422  28.045  34.340  10.586
12697W        W84423  16.184  10.234   5.096
12698W        W84424   6.010  35.071  14.264
12699W        W84425  35.552  37.789   4.562
12700W        W84426  16.076  22.220   1.263
12701W        W84427  27.800  27.937  12.136
12702W        W84428  22.121  41.854  12.410
12703W        W84429  30.773  19.335   3.440
12704W        W84430  10.721  13.844   3.783
12705W        W84431   7.264  21.612  12.850
12706W        W84432  32.490  11.386  11.046
12707W        W84433   6.184  33.391  14.067
12708W        W84434  22.664  26.162  11.380
12709W        W84435  16.808  43.008   0.332
12710W        W84436  23.064  10.855   1.471
12711W        W84437  44.073  16.052   4.275
12712W        W84438  35.879  29.742  12.084
12713W        W84439  22.220  25.298  14.840
12714W        W84440  27.037  20.086  11.607
12715W        W84441  27.924   1.195   1.953
12716W        W84442  43.166  26.033  11.988
12717W        W84443  43.007  19.701   3.232
12718W        W84444  21.289   5.214   2.007
12719W        W84445  39.381  37.281   3.257
12720W        W84446  32.011  39.737   3.370
12721W        W84447   1.326   3.983  13.966
12722W        W84448  21.290  23.667  13.663
12723W        W84449  22.453  11.440  13.912
12724W        W84450  42.104  16.347   2.125
12725W        W84451  38.544   1.203   0.863
12726W        W84452  24.973  23.977  13.990
12727W        W84453  16.523   2.174   0.858
12728W        W84454   4.903  37.505  11.052
12729W        W84455  37.185  39.966   4.742
12730W        W84456   5.911  44.937  13.000
12731W        W84457  17.049  21.112   3.767
12732W        W84458  22.694  28.891   4.201
12733W        W84459  24.289  44.341  12.543
12734W        W84460  23.837  35.267  11.687
12735W        W84461  31.452  10.796  14.745
12736W        W84462  39.094  32.928  14.805
12737W        W84463   7.421  19.810  11.057
12738W        W84464  13.633  21.730   4.629
12739W        W84465  41.341  14.045  11.454
12740W        W84466  39.319  15.710  11.101
12741W        W84467  32.067  33.526  14.428
12742W        W84468   3.697  13.201  14.414
12743W        W84469   6.193   7.144   1.346
12744W        W84470  36.069  30.601  10.720
12745W        W84471  11.400  32.051  11.694
12746W        W84472   4.046  32.942  10.717
12747W        W84473  44.820  28.460  11.399
12748W        W84474   5.809  44.674   3.638
12749W        W84475   5.216  22.666  14.745
12750W        W84476  34.790   6.283   2.264
12751W        W84477   1.412  23.889   2.199
12752W        W84478  11.755  14.749  12.021
12753W        W84479  27.941  42.073  12.454
12754W        W84480  23.697  32.815   0.214
12755W        W84481  23.266  21.089  13.439
12756W        W84482  16.070  38.568  12.902
12757W        W84483   9.215  22.091  12.164
12758W        W84484  35.455  11.311  13.917
12759W        W84485  17.749  40.253   2.824
12760W        W84486  27.530  30.162  11.583
12761W        W84487  31.980  32.611  11.107
12762W        W84488  21.698   5.487   0.384
12763W        W84489  42.287  19.756   3.965
12764W        W84490  16.426   8.725   4.145
12765W        W84491  21.165   6.793   5.109
12766W        W84492   6.784  37.727  13.712
12767W        W84493   5.097  34.522   3.119
12768W        W84494   7.669  24.713   2.379
12769W        W84495  36.796  20.250  13.356
12770W        W84496  38.827  40.027   0.900
12771W        W84497  10.720  28.755   0.483
12772W        W84498   8.737   9.439   4.264
12773W        W84499   4.451  43.901   4.798
12774W        W84500  11.176  14.117  12.291
12775W        W84501  40.844   1.358   2.294
12776W        W84502  43.253   8.482  12.022
12777W        W84503   0.871   4.820  12.611
12778W        W84504  44.865  32.604   0.901
12779W        W84505  23.537   2.007  10.830
12780W        W84506  34.853   3.281  13.067
12781W        W84507   0.923  34.102   3.185
12782W        W84508  27.387  40.083  13.564
12783W        W84509  35.637   7.806   3.709
12784W        W84510  42.416   5.963  13.020
12785W        W84511  24.399   1.192   2.250
12786W        W84512  43.327  13.058  14.871
12787W        W84513  34.161  10.583   0.905
12788W        W84514  23.706  13.762  12.904
12789W        W84515   7.850  26.692  13.232
12790W        W84516  37.877  40.530   1.860
12791W        W84517  31.195  20.046  13.424
12792W        W84518  17.028   6.526   1.095
12793W        W84519  37.831  44.423   1.495
12794W        W84520  28.235  43.355  11.842
12795W        W84521   8.752  24.189   1.936
12796W        W84522  15.320  37.984  12.001
12797W        W84523  42.044  39.520  14.759
12798W        W84524   7.859  32.912  10.634
12799W        W84525  13.599  15.180   2.764
12800W        W84526  11.759  28.125   4.474
12801W        W84527   4.533  27.754  10.524
12802W        W84528   6.128  24.198  14.290
12803W        W84529  39.420  15.335  14.134
12804W        W84530  27.360  42.530   3.096
12805W        W84531   9.387  18.546  12.071
12806W        W84532  35.507  34.658   1.209
12807W        W84533  32.480  29.557  13.737
12808W        W84534  31.032  13.869   3.769
12809W        W84535  16.354  38.647   1.662
12810W        W84536  43.937  44.867  14.573
12811W        W84537   3.728  18.638  14.336
12812W        W84538  41.870  15.757  14.094
12813W        W84539   7.889  15.053   3.404
12814W        W84540  20.313  33.076   4.790
12815W        W84541  27.553  23.766   4.458
12816W        W84542  22.223  27.175  10.689
12817W        W84543   3.211   7.768   0.808
12818W        W84544  38.269  29.746  13.934
12819W        W84545  33.955  21.623  13.048
12820W        W84546  27.046  38.556   0.676
12821W        W84547  37.533  43.615   0.044
12822W        W84548  36.357  27.575   1.319
12823W        W84549   4.614  26.162  14.405
12824W        W84550  11.143   4.798   3.933
12825W        W84551  37.842  37.941   0.827
12826W        W84552   7.784  44.333  14.355
12827W        W84553  10.376  12.241  13.079
12828W        W84554  37.034  42.833  12.136
12829W        W84555  34.137  44.066   0.430
12830W        W84556  43.907   2.777  14.252
12831W        W84557  35.341  31.935   1.768
12832W        W84558  40.469  38.235  12.468
12833W        W84559  39.283  27.985  12.170
12834W        W84560  41.289   5.743   1.686
12835W        W84561  14.811   5.499   0.354
12836W        W84562  10.577  31.195   3.178
12837W        W84563  22.025  25.897  14.553
12838W        W84564  43.093  35.495   4.138
12839W        W84565  37.399  42.657  14.966
12840W        W84566   1.521  44.269  10.682
12841W        W84567  34.330  36.296  12.552
12842W        W84568  13.196  27.200  14.474
12843W        W84569  25.596  22.061  12.678
12844W        W84570   4.919   6.207  13.069
12845W        W84571  29.973  43.581   5.770
12846W        W84572  34.577  24.236  13.836
12847W        W84573   8.903  14.742  14.447
12848W        W84574  16.616  19.827   1.949
12849W        W84575   2.943  42.522   0.832
12850W        W84576  20.042  14.622  11.681
12851W        W84577  15.872  31.878   1.229
12852W        W84578  28.574  22.441   4.395
12853W        W84579  22.511  26.893  12.062
12854W        W84580   5.229  17.283  12.883
12855W        W84581  18.011   6.557  11.166
12856W        W84582  18.251  27.500   1.724
12857W        W84583  19.829   8.127  13.722
12858W        W84584  18.474  32.529  11.059
12859W        W84585  24.235   6.124   4.927
12860W        W84586   8.275  36.393  10.263
12861W        W84587  10.396  42.265  12.762
12862W        W84588  44.804  43.292  14.257
12863W        W84589  27.914  34.965  13.805
12864W        W84590  12.320   4.598  13.459
12865W        W84591  10.283  11.064   4.600
12866W        W84592  33.066   1.451  13.132
12867W        W84593  31.693  43.363   0.410
12868W        W84594  29.555  35.383  13.815
12869W        W84595  43.737  42.027  12.296
12870W        W84596  34.374  21.137  10.015
12871W        W84597   7.645  22.569  13.473
12872W        W84598  20.779  18.226  13.432
12873W        W84599  32.870   0.287  10.416
12874W        W84600   2.136   4.491   3.560
12875W        W84601  14.855  36.485   0.269
12876W        W84602  32.463  29.575   4.536
12877W        W84603  17.235  31.366   3.369
12878W        W84604  12.130  20.680   4.691
12879W        W84605  39.386  28.058   0.718
12880W        W84606  32.967  41.773  10.185
12881W        W84607  15.219  25.473  11.170
12882W        W84608   2.478   7.755   3.769
12883W        W84609   2.064  13.923  13.105
12884W        W84610  22.310  24.914  11.110
12885W        W84611   0.296   9.819  11.063
12886W        W84612  44.854  13.735  12.518
12887W        W84613   0.720  32.164  12.969
12888W        W84614  23.700  25.453  11.606
12889W        W84615  35.409  44.775  13.829
12890W        W84616  18.095  27.065   4.672
12891W        W84617  19.823  11.834   0.407
12892W        W84618   0.326   2.314   4.055
12893W        W84619  40.222  35.822  10.892
12894W        W84620  23.298  33.636   4.811
12895W        W84621  39.472  40.597   2.559
12896W        W84622  36.972  14.333  14.422
12897W        W84623  35.063  42.290  11.112
12898W        W84624  17.090  14.327   0.258
12899W        W84625  34.863  33.212   4.624
12900W        W84626  27.922   8.325   0.324
12901W        W84627  14.084  44.355  14.366
12902W        W84628   1.010  31.592  14.347
12903W        W84629  19.724  13.860   4.743
12904W        W84630  29.420  28.971  10.750
12905W        W84631  22.648  10.931  13.244
12906W        W84632  15.643  26.251   0.332
12907W        W84633  23.883  20.182  14.840
12908W        W84634   0.023  14.336   4.079
12909W        W84635  32.112  26.590   4.693
12910W        W84636  23.197  12.981   3.829
12911W        W84637  14.694  12.783  13.087
12912W        W84638  20.833  15.438  12.137
12913W        W84639  21.096  29.377   1.844
12914W        W84640  35.857  20.786   3.126
12915W        W84641  23.646  39.839  13.836
12916W        W84642  39.211   5.236   3.379
12917W        W84643  27.251  41.281  12.524
12918W        W84644  10.300  14.691   2.334
12919W        W84645  23.130  34.770  12.905
12920W        W84646  21.719   7.261   2.702
12921W        W84647  10.030  30.997   4.042
12922W        W84648  44.950  12.272  12.057
12923W        W84649  42.072  37.626  12.898
12924W        W84650  42.373  33.984   4.699
12925W        W84651   0.323  38.952   3.478
12926W        W84652  11.019  41.115   4.494
12927W        W84653  34.163   7.610   4.699
12928W        W84654  28.635  42.895   1.154
12929W        W84655  13.477  25.505  10.818
12930W        W84656  15.827  15.128   3.265
12931W        W84657  14.714  30.134   4.619
12932W        W84658  43.819   3.855   1.506
12933W        W84659   3.472  42.755  11.604
12934W        W84660  17.332  27.279  14.800
12935W        W84661  22.442   3.530  12.123
12936W        W84662  43.973  42.294   4.420
12937W        W84663   6.971  11.115  11.061
12938W        W84664  19.721   1.903   2.768
12939W        W84665   7.159  42.379  10.940
12940W        W84666   4.015  16.638   2.815
12941W        W84667   2.500   4.009  14.841
12942W        W84668  22.725  40.882  10.503
12943W        W84669  13.613  42.489   0.523
12944W        W84670  40.982  14.856   4.573
12945W        W84671  30.908   8.077   2.351
12946W        W84672  17.467  35.997  11.175
12947W        W84673  36.514  12.161   2.149
12948W        W84674  37.703  14.093   3.701
12949W        W84675  32.450  26.904   3.883
12950W        W84676  27.796   7.234  13.516
12951W        W84677  14.709  35.188   2.844
12952W        W84678  19.232  34.567   3.315
12953W        W84679  15.256  41.579  10.961
12954W        W84680  28.708  43.798  13.064
12955W        W84681  36.040  20.953   3.576
12956W        W84682  24.698  41.242  14.967
12957W        W84683  26.781  24.776   3.523
12958W        W84684   0.534   3.372  10.545
12959W        W84685  41.181   6.430   1.340
12960W        W84686   7.764  38.511   3.221
12961W        W84687  43.254  38.564   2.230
12962W        W84688  23.500  39.127   3.663
12963W        W84689  36.765  44.374   2.847
12964W        W84690  36.857  31.504  12.669
12965W        W84691  41.998   4.429   0.029
12966W        W84692   6.389   6.906  14.401
12967W        W84693  41.749  25.135   2.145
12968W        W84694  38.007  27.786   3.801
12969W        W84695  23.836  11.342   0.549
12970W        W84696   1.319  43.316  14.633
12971W        W84697  21.517  16.721   4.675
12972W        W84698   6.876  15.786   0.270
12973W        W84699  40.010  35.028   0.905
12974W        W84700  34.555  26.709  12.928
12975W        W84701  13.132  41.942   4.883
12976W        W84702   7.829  24.187   4.173
12977W        W84703   7.241  20.777   4.682
12978W        W84704  10.603   6.570  13.944
12979W        W84705  42.547  24.914   2.190
12980W        W84706   1.331  28.606   1.289
12981W        W84707  12.900  24.629  10.713
12982W        W84708  29.127  17.643  13.231
12983W        W84709   8.667   4.335   2.032
12984W        W84710  41.957   0.161  14.324
12985W        W84711   8.359  23.040  12.558
12986W        W84712  25.220  44.263  14.108
12987W        W84713  25.079   5.433   3.212
12988W        W84714   7.592  26.470   4.619
12989W        W84715  18.075  14.088  11.254
12990W        W84716  41.929  25.425  14.953
12991W        W84717  29.423  41.488  11.997
12992W        W84718   0.842  43.067  13.304
12993W        W84719  30.022  23.245  10.700
12994W        W84720  17.219  13.577  12.927
12995W        W84721   4.106  20.184   2.788
12996W        W84722  32.934  44.885   2.692
12997W        W84723   5.913  20.852   3.344
12998W        W84724  27.117   8.229  14.880
12999W        W84725  22.126  43.305  14.996
13000W        W84726  37.963   1.275  11.959
13001W        W84727   3.508  28.463   3.323
13002W        W84728  34.869  19.606  13.049
13003W        W84729  30.784  36.611   5.109
13004W        W84730  12.592  32.010  14.516
13005W        W84731   0.153  14.712  12.332
13006W        W84732  25.024   7.696  12.669
13007W        W84733  35.364  38.966  14.079
13008W        W84734  28.084  26.092  12.586
13009W        W84735   9.161   4.567   0.308
13010W        W84736   8.753  30.680   3.416
13011W        W84737  28.426  39.044  14.938
13012W        W84738  13.134  33.644   0.405
13013W        W84739  30.496  26.243  11.183
13014W        W84740  41.484  41.526  12.067
13015W        W84741  38.420  20.779  12.833
13016W        W84742  15.928  11.565   1.565
13017W        W84743  38.621   2.358   2.813
13018W        W84744  20.504  24.658  14.711
13019W        W84745   0.802   7.656   4.809
13020W        W84746  10.098  19.329  13.124
13021W        W84747  30.871  37.465   3.158
13022W        W84748  39.350   0.907   0.554
13023W        W84749  44.519  42.744   3.056
13024W        W84750   1.261  22.761  10.717
13025W        W84751   9.302  33.379   1.106
13026W        W84752   2.778  23.080   4.632
13027W        W84753  16.308  19.690   3.190
13028W        W84754  22.949   8.194   3.308
13029W        W84755  34.911  40.723  11.166
13030W        W84756  28.569  37.256   3.187
13031W        W84757  11.505  42.510   0.397
13032W        W84758  23.798   9.813   0.847
13033W        W84759   8.141  38.486  10.400
13034W        W84760   9.770   4.899   2.811
13035W        W84761   8.849   4.766   1.207
13036W        W84762  40.392  12.925  13.492
13037W        W84763   8.215   7.764   2.656
13038W        W84764  24.469   1.323  13.693
13039W        W84765   9.674  26.155  11.037
13040W        W84766  34.031   1.373   0.340
13041W        W84767  34.408  31.719  14.778
13042W        W84768   4.399  27.386   0.302
13043W        W84769  33.212   5.213  13.381
13044W        W84770  30.272  34.666  11.758
13045W        W84771  29.352  10.469   2.713
13046W        W84772  10.078  23.940   3.776
13047W        W84773  25.277  16.679  12.008
13048W        W84774  37.575   4.286   3.434
13049W        W84775  28.671  14.894  14.752
13050W        W84776   5.346  38.362   3.735
13051W        W84777  37.079   0.760  12.030
13052W        W84778  22.130   4.992   4.598
13053W        W84779  10.138  32.872  12.611
13054W        W84780   7.621  22.677   0.729
13055W        W84781   6.979   9.330   0.926
13056W        W84782   7.842  25.908  14.427
13057W        W84783   0.964  41.938  11.936
13058W        W84784  34.749  41.015  14.135
13059W        W84785  23.693  14.250   3.649
13060W        W84786  31.113   3.037  13.262
13061W        W84787  23.951  14.101   3.229
13062W        W84788  43.525  24.124   2.401
13063W        W84789  38.575  35.514  13.518
13064W        W84790  31.138  31.770  12.844
13065W        W84791  42.872  18.759   3.280
13066W        W84792   3.851   2.790  13.341
13067W        W84793  39.268  10.934  14.313
13068W        W84794  11.109  29.910   1.472
13069W        W84795   8.849  17.794  11.728
13070W        W84796  34.106  21.877  13.524
13071W        W84797  23.773  10.231   0.180
13072W        W84798  18.966  33.086  12.601
13073W        W84799  11.827  30.325  14.540
13074W        W84800   8.800  18.101   4.189
13075W        W84801  24.090  18.963  14.004
13076W        W84802   4.301  24.510  14.950
13077W        W84803  37.418  24.500  10.620
13078W        W84804   6.994  28.586   4.187
13079W        W84805   4.177  31.424   0.404
13080W        W84806  42.043  44.337   2.130
13081W        W84807  40.428  10.706  10.849
13082W        W84808  26.049   8.144   0.377
13083W        W84809  39.739  33.026   4.252
13084W        W84810  26.051  10.032   4.779
13085W        W84811  24.239  29.505   0.664
13086W        W84812  42.775   7.301  13.142
13087W        W84813  38.407  27.229  13.887
13088W        W84814  35.055  40.019   3.396
13089W        W84815  33.984  37.399  13.513
13090W        W84816  15.390  40.735  11.968
13091W        W84817  18.583  19.032  12.980
13092W        W84818   6.371  21.695  12.586
13093W        W84819  25.841  17.761  13.039
13094W        W84820  13.414  28.499   0.329
13095W        W84821  38.150   8.638  14.988
13096W        W84822  35.315   9.369  13.007
13097W        W84823   4.491  12.945  12.719
13098W        W84824  24.667   5.634   1.397
13099W        W84825  14.152  33.387  14.904
13100W        W84826   3.365  21.401  12.881
13101W        W84827   7.124   6.442  13.257
13102W        W84828   5.430  31.560  14.966
13103W        W84829   0.419   9.329  12.383
13104W        W84830  21.680   0.437   3.377
13105W        W84831  44.015  13.724   3.375
13106W        W84832  41.054  18.855   2.442
13107W        W84833   1.735   0.641   1.231
13108W        W84834  14.700  26.022  14.474
13109W        W84835  35.879  35.545  11.130
13110W        W84836  35.670   5.811  12.359
13111W        W84837  20.297  10.536  13.025
13112W        W84838   3.551   9.271  10.739
13113W        W84839  22.456  10.155  14.773
13114W        W84840   1.254  36.554   4.624
13115W        W84841  33.650  10.557   4.042
13116W        W84842  40.990  38.398   2.266
13117W        W84843   4.609  42.910  11.084
13118W        W84844  20.113   6.831   4.928
13119W        W84845   1.257  11.764  13.901
13120W        W84846   9.864  44.477   1.808
13121W        W84847  12.269  38.442   0.290
13122W        W84848  41.300  36.090  14.907
13123W        W84849  13.237  24.856  12.393
13124W        W84850  28.170  38.139  13.928
13125W        W84851   3.787  19.673   3.041
13126W        W84852  10.269  27.936  12.448
13127W        W84853  23.639  34.852  13.684
13128W        W84854  17.546   1.317   4.854
13129W        W84855  43.684  19.600  11.618
13130W        W84856   0.269  40.879  13.320
13131W        W84857   8.187  29.255  13.103
13132W        W84858   0.838  36.662   0.355
13133W        W84859  25.819  38.082   3.796
13134W        W84860   3.910  30.720   2.252
13135W        W84861  38.996   0.323  13.804
13136W        W84862  29.562   5.261  11.215
13137W        W84863  18.485  36.413  14.352
13138W        W84864  17.381   8.866   2.593
13139W        W84865  24.172  17.730   4.580
13140W        W84866  11.096  36.993   4.238
13141W        W84867   1.915  22.702  11.729
13142W        W84868  44.336   6.150  10.705
13143W        W84869  41.758  30.177  14.283
13144W        W84870  39.180  34.465   4.409
13145W        W84871  32.421  29.875  11.140
13146W        W84872  35.814  10.309   1.231
13147W        W84873  19.658  42.927   2.215
13148W        W84874  32.862  12.593   0.368
13149W        W84875  23.947  44.429  12.121
13150W        W84876   5.328  37.806  12.397
13151W        W84877  44.172   7.505   4.880
13152W        W84878  44.487  38.258   5.006
13153W        W84879   7.157   4.441   5.073
13154W        W84880  11.896  30.144  14.004
13155W        W84881  39.778   1.200  12.845
13156W        W84882  15.227   2.971   4.594
13157W        W84883  28.729  32.412   0.742
13158W        W84884  41.488  15.849  11.458
13159W        W84885  13.286  37.263   4.282
13160W        W84886  17.472  21.657  12.096
13161W        W84887  39.787  21.265   1.850
13162W        W84888  36.483  14.670   3.965
13163W        W84889  42.517  28.420   0.377
13164W        W84890   8.166  17.180   3.670
13165W        W84891  39.749  15.051  14.434
13166W        W84892  27.574   0.879  12.990
13167W        W84893   4.279  10.857   1.978
13168W        W84894  35.633  33.371  14.824
13169W        W84895  12.581  27.479   1.663
13170W        W84896  11.783  42.551   2.309
13171W        W84897  33.850  25.291   4.212
13172W        W84898  42.666  33.820   4.301
13173W        W84899  36.477  36.427   2.749
13174W        W84900  29.030   6.103  11.835
13175W        W84901  25.635  23.538   2.925
13176W        W84902  35.979  20.974  12.500
13177W        W84903  11.815  31.304  10.546
13178W        W84904  12.437   9.349   3.110
13179W        W84905  33.390  36.477   2.180
13180W        W84906  40.749  24.487   3.746
13181W        W84907  37.941   1.332   4.760
13182W        W84908  25.110  17.915   0.016
13183W        W84909   5.322  31.647  11.591
13184W        W84910  25.700  21.262   1.342
13185W        W84911  13.061   8.436   0.856
13186W        W84912  35.969   9.830   3.743
13187W        W84913  22.111  25.787   1.392
13188W        W84914  18.726  25.415   4.102
13189W        W84915   3.203  18.687   1.691
13190W        W84916  35.810  23.286  11.940
13191W        W84917  28.212  38.977   4.206
13192W        W84918  12.824  22.601  11.299
13193W        W84919   9.607  12.646   0.407
13194W        W84920  41.970  18.774  14.327
13195W        W84921  24.927  15.784   0.898
13196W        W84922  34.648   2.188   4.296
13197W        W84923  23.534  42.275   1.309
13198W        W84924  32.003  20.883   1.198
13199W        W84925  17.079  28.792  11.276
13200W        W84926  33.004  31.214  10.715
13201W        W84927  32.891  32.097   1.365
13202W        W84928   6.866  42.101   1.261
13203W        W84929  33.369   6.404   4.127
13204W        W84930  12.801   5.706  13.957
13205W        W84931  25.438  33.882   1.705
13206W        W84932  32.995  36.305  14.303
13207W        W84933   1.302  34.482  12.615
13208W        W84934  43.368  15.835   0.583
13209W        W84935   3.885  27.932   4.627
13210W        W84936  24.368  25.583  13.361
13211W        W84937  34.952  39.679  14.394
13212W        W84938  34.182  27.550  14.282
13213W        W84939  39.316  17.696   2.215
13214W        W84940  42.291  11.594  11.414
13215W        W84941  42.180  43.491  11.878
13216W        W84942   3.620  44.036  12.135
13217W        W84943   2.491  22.621   0.246
13218W        W84944  38.849  34.618   2.724
13219W        W84945   1.380   8.457   1.996
13220W        W84946  20.235  22.032   0.180
13221W        W84947  24.993  38.336  10.722
13222W        W84948  15.996   5.704   0.796
13223W        W84949  14.558  11.251   0.429
13224W        W84950  26.658   0.239   1.272
13225W        W84951  30.841  16.664   3.204
13226W        W84952   8.375  17.085  11.696
13227W        W84953  36.030  16.710   4.295
13228W        W84954  37.126  41.543  11.513
13229W        W84955  25.455   3.741  14.575
13230W        W84956  15.677  22.981  12.144
13231W        W84957  22.775  28.203   1.707
13232W        W84958  42.532  30.023   3.275
13233W        W84959   9.296  39.641  13.455
13234W        W84960  15.353  44.001   2.196
13235W        W84961  19.525  15.525   2.725
13236W        W84962   0.432  20.304  13.443
13237W        W84963  23.903  11.874  14.130
13238W        W84964  13.291  26.971   2.825
13239W        W84965  21.800  44.506   0.367
13240W        W84966  28.840  32.071  10.688
13241W        W84967   4.659  34.566  11.999
13242W        W84968  28.448   0.692  13.380
13243W        W84969  14.582  23.414   4.194
13244W        W84970  41.875  36.257  10.548
13245W        W84971  10.793  44.387   2.800
13246W        W84972   3.135   0.715  12.132
13247W        W84973  16.272   0.964   1.436
13248W        W84974  14.657  27.633  11.412
13249W        W84975   5.395   3.561   2.729
13250W        W84976   2.760  17.582  10.561
13251W        W84977   5.923  24.791   3.768
13252W        W84978  32.506   3.661  11.620
13253W        W84979  36.099  23.620  12.242
13254W        W84980  31.576  10.285  10.857
13255W        W84981  15.264  36.008  14.810
13256W        W84982  42.573  25.003   0.376
13257W        W84983  31.120   4.974  13.307
13258W        W84984  18.635  28.141  13.126
13259W        W84985  39.624  37.809  11.994
13260W        W84986  15.226  40.954  10.167
13261W        W84987  24.604  19.822   3.742
13262W        W84988  24.114  42.976  11.451
13263W        W84989  37.915  28.699   0.006
13264W        W84990  37.557  36.377  11.029
13265W        W84991  19.009  19.647   2.765
13266W        W84992  19.119  22.534  14.047
13267W        W84993  23.556  19.788  12.529
13268W        W84994  36.589  35.631  13.249
13269W        W84995  21.736  10.279   0.437
13270W        W84996  20.710  27.348   1.239
13271W        W84997   0.337  26.141  14.942
13272W        W84998  22.595  25.211   1.895
13273W        W84999  30.448  38.568  13.380
13274W        W85000   6.589  37.604   0.682
13275W        W85001  19.470  38.897  13.263
13276W        W85002  26.005  28.141  10.709
13277W        W85003  12.005  13.424   1.404
13278W        W85004  17.377  37.440  12.499
13279W        W85005   8.875  20.832   0.779
13280W        W85006  33.306  15.122   2.722
13281W        W85007  28.649   4.318   1.742
13282W        W85008  44.953  44.747   0.715
13283W        W85009  11.970   0.379   1.662
13284W        W85010   9.777  29.581   2.005
13285W        W85011  28.542  29.775  13.881
13286W        W85012   2.136  24.087   3.382
13287W        W85013  35.054  38.441   1.253
13288W        W85014  26.244  33.118  11.647
13289W        W85015   0.261  14.317  11.969
13290W        W85016  12.134  12.772   2.567
13291W        W85017  10.275  21.661   4.809
13292W        W85018   9.780  11.195   0.484
13293W        W85019  29.122  27.400   1.117
13294W        W85020  37.603  19.655  12.299
13295W        W85021  12.913  14.250   0.282
13296W        W85022  22.197  36.560   0.911
13297W        W85023  11.257  29.733   0.888
13298W        W85024  41.507  33.263  12.141
13299W        W85025  39.487  19.983   2.405
13300W        W85026  41.071  30.669  12.522
13301W        W85027  24.119  30.458  13.913
13302W        W85028  14.816  41.756   3.819
13303W        W85029  40.429  12.109  11.726
13304W        W85030  11.405  34.454   1.413
13305W        W85031  27.600   0.830  11.119
13306W        W85032  25.754  39.108   4.298
13307W        W85033  10.797  11.310   1.410
13308W        W85034  20.337  12.568   5.074
13309W        W85035  25.592  39.602   0.699
13310W        W85036  11.233   3.333   4.170
13311W        W85037  13.202  42.797   1.093
13312W        W85038  26.763  32.510   2.415
13313W        W85039  43.025  22.988  10.643
13314W        W85040   0.481   1.473  10.432
13315W        W85041  22.569  30.574   3.318
13316W        W85042  44.002  29.101   4.469
13317W        W85043  29.696  20.225   0.500
13318W        W85044  11.344  13.133  13.030
13319W        W85045  11.658   3.671   4.970
13320W        W85046  14.717   4.346   1.646
13321W        W85047   2.725  14.538  13.325
13322W        W85048   8.437  11.717  11.982
13323W        W85049  16.710  26.516  14.147
13324W        W85050  24.427  44.199   4.997
13325W        W85051  34.841  11.589   1.332
13326W        W85052  12.155  19.724  12.826
13327W        W85053  33.622  11.298  13.503
13328W        W85054   8.270  21.228   3.233
13329W        W85055  28.638  42.916   0.649
13330W        W85056  26.014  15.007  13.806
13331W        W85057  22.447  13.812  14.749
13332W        W85058  43.810  33.610  10.989
13333W        W85059   3.304   6.660   3.308
13334W        W85060   3.869  23.018  13.468
13335W        W85061  35.837  37.672  11.380
13336W        W85062  15.332  23.642  14.509
13337W        W85063  12.255  43.021  14.288
13338W        W85064  26.598  13.032  10.930
13339W        W85065   6.510  16.165  12.936
13340W        W85066   2.238  10.564   3.820
13341W        W85067  30.631   6.986  13.070
13342W        W85068  30.136  38.508   3.368
13343W        W85069  18.838  30.584   2.063
13344W        W85070  41.267   9.254   0.943
13345W        W85071  44.519  21.949   0.433
13346W        W85072  21.443  13.808   4.538
13347W        W85073   7.008  44.122   0.322
13348W        W85074   6.428  42.056   4.487
13349W        W85075   8.402  26.277   4.520
13350W        W85076  12.532   7.357  14.467
13351W        W85077  43.753  11.265   0.886
13352W        W85078  12.922   4.349  12.943
13353W        W85079  41.312  17.564  11.846
13354W        W85080  14.270   9.429   4.564
13355W        W85081  30.478  18.628   3.808
13356W        W85082  33.863   8.759   3.921
13357W        W85083  36.000  13.770   5.022
13358W        W85084   1.815  21.721  12.483
13359W        W85085   1.426  24.739  12.765
13360W        W85086  43.794  22.126   1.845
13361W        W85087  13.162  28.124   2.112
13362W        W85088  12.914   3.194   0.800
13363W        W85089   3.834  24.072   2.114
13364W        W85090  18.332   3.298   1.939
13365W        W85091  20.234   9.699  11.897
13366W        W85092  42.983  21.027  11.955
13367W        W85093  29.534  24.115   1.515
13368W        W85094  23.508   9.819  13.364
13369W        W85095  17.572  26.792   2.239
13370W        W85096  12.048   5.472   1.348
13371W        W85097   7.168  33.911  11.295
13372W        W85098  42.181  13.167  14.697
13373W        W85099  43.712  11.193   3.774
13374W        W85100  35.605   9.633  14.505
13375W        W85101  20.732  44.222   2.209
13376W        W85102   1.066  37.358   2.656
13377W        W85103  22.308  10.506   1.865
13378W        W85104  27.852  28.127   2.784
13379W        W85105  19.627  44.518   4.818
13380W        W85106  11.373  31.476  11.858
13381W        W85107  14.259  35.910  13.981
13382W        W85108  21.380   9.437   4.220
13383W        W85109  20.772  34.253  10.978
13384W        W85110  36.398  15.269   0.664
13385W        W85111  11.667  26.602   2.020
13386W        W85112  44.768  21.709   1.762
13387W        W85113  10.133   6.345  13.582
13388W        W85114  18.139  29.971  11.648
13389W        W85115  24.155  20.722   4.300
13390W        W85116  33.944  36.410   3.227
13391W        W85117  14.877  38.762   4.554
13392W        W85118  11.557   1.996   0.857
13393W        W85119  10.371  22.117   0.839
13394W        W85120  13.413  18.904   2.388
13395W        W85121  35.416  28.977  10.567
13396W        W85122  31.056  25.445  11.967
13397W        W85123  26.544  37.505  13.765
13398W        W85124  38.090  15.871   1.003
13399W        W85125  34.129  42.491  11.150
13400W        W85126  40.340  23.190  13.467
13401W        W85127  12.709  26.718  12.447
13402W        W85128  11.168   6.011  14.569
13403W        W85129  39.080  29.590   2.332
13404W        W85130  42.457   3.043   0.443
13405W        W85131  11.227   6.315  11.692
13406W        W85132  18.119  20.159  11.525
13407W        W85133  34.521   9.936  11.092
13408W        W85134  40.200  40.720  10.433
13409W        W85135  31.484  13.708  14.586
13410W        W85136  23.093  12.378  11.984
13411W        W85137  19.686  11.850   1.794
13412W        W85138  34.956  27.547   3.617
13413W        W85139   3.791  18.982   0.836
13414W        W85140  36.879  26.662   2.917
13415W        W85141  39.000  33.592   4.657
13416W        W85142  39.936  43.751   2.436
13417W        W85143  14.258  19.003  11.154
13418W        W85144  39.833  25.265  14.386
13419W        W85145  40.791   9.821  11.674
13420W        W85146  36.806  30.588   1.449
13421W        W85147  24.126  24.734  12.630
13422W        W85148  13.834  24.821   0.445
13423W        W85149  41.497   6.222   1.785
13424W        W85150   5.944  18.630  11.105
13425W        W85151  17.111  16.236   4.270
13426W        W85152  20.768   6.416   3.325
13427W        W85153  38.394  40.696  13.927
13428W        W85154  33.910   7.722   0.475
13429W        W85155  31.175  16.263  14.329
13430W        W85156  27.532  24.332  11.698
13431W        W85157  14.540  14.756   0.923
13432W        W85158  31.589  30.930   2.298
13433W        W85159  31.379   8.384  12.253
13434W        W85160  28.491  30.217   4.733
13435W        W85161   2.681  44.158   4.033
13436W        W85162  30.093  22.284   1.287
13437W        W85163  39.468  40.407  13.566
13438W        W85164  23.407  15.412  10.656
13439W        W85165  26.963   3.549   1.240
13440W        W85166  38.648  23.958  11.844
13441W        W85167   5.769  16.704  10.063
13442W        W85168   9.303   6.730   4.562
13443W        W85169  37.966  22.570  12.680
13444W        W85170  34.259  42.877   3.356
13445W        W85171  31.165  20.238   2.229
13446W        W85172   8.678   3.159  12.321
13447W        W85173   0.909  36.082   2.560
13448W        W85174   2.325  33.618   1.200
13449W        W85175   3.896  33.808  13.054
13450W        W85176   6.152  31.683  11.332
13451W        W85177  29.686   3.383  13.235
13452W        W85178   1.875  22.085  14.850
13453W        W85179  35.523  28.423   2.031
13454W        W85180  24.515  22.293   1.312
13455W        W85181  11.134  15.290   4.599
13456W        W85182   6.547   0.797  10.335
13457W        W85183  40.918   5.282  13.203
13458W        W85184  13.576  17.014   3.688
13459W        W85185   6.811  28.656   1.467
13460W        W85186  34.632  39.512   2.714
13461W        W85187   8.593  23.580   5.094
13462W        W85188  43.920  23.064  14.518
13463W        W85189   2.367  22.632  14.273
13464W        W85190  24.613  21.708   4.071
13465W        W85191  19.174  23.706   1.543
13466W        W85192  42.750  21.216  11.534
13467W        W85193  19.560  32.605  13.897
13468W        W85194  42.948  36.449   1.918
13469W        W85195   6.402  19.426   2.661
13470W        W85196  34.517   7.584  14.005
13471W        W85197  17.072  24.483   0.807
13472W        W85198  36.508  14.289   0.727
13473W        W85199  13.446   9.340  13.253
13474W        W85200  11.789   7.440   0.412
13475W        W85201  20.606  24.989  13.811
13476W        W85202  12.255  39.373   0.234
13477W        W85203  11.008  29.581  13.445
13478W        W85204  38.581  34.348   4.486
13479W        W85205  39.333  24.604   0.940
13480W        W85206  11.601  20.293  14.333
13481W        W85207  30.711  36.515  14.031
13482W        W85208  44.146  43.225  13.825
13483W        W85209   0.720  15.370   1.407
13484W        W85210  40.932  20.792  14.532
13485W        W85211  23.782  39.597  14.308
13486W        W85212  13.443  37.907  10.651
13487W        W85213  17.872  30.889  11.914
13488W        W85214  14.221  35.635   3.535
13489W        W85215  24.141  30.166   3.820
13490W        W85216  25.942  29.203   3.635
13491W        W85217  25.890   0.210  11.438
13492W        W85218  13.603  30.546  12.421
13493W        W85219  37.884  27.153  13.805
13494W        W85220  31.965   0.795  10.746
13495W        W85221  10.608   4.949  10.732
13496W        W85222  34.451  30.905  11.965
13497W        W85223  19.965  21.976   2.813
13498W        W85224  21.218  36.400   3.804
13499W        W85225   1.194  31.638  11.056
13500W        W85226  27.178  26.759   2.634
13501W        W85227   3.307  16.612  13.371
13502W        W85228  39.643  32.548   1.944
13503W        W85229   0.329  39.624   3.122
13504W        W85230  21.774  13.091   0.214
13505W        W85231   2.981  38.047  11.957
13506W        W85232  10.544  15.212  14.791
13507W        W85233  44.933  24.534   0.728
13508W        W85234  30.267  40.811  10.701
13509W        W85235  43.377  41.427  12.824
13510W        W85236  41.996  12.727  11.148
13511W        W85237  39.378  12.361  14.357
13512W        W85238  26.449  16.267   3.831
13513W        W85239  37.619  33.966   1.394
13514W        W85240  15.803  27.941  12.606
13515W        W85241   7.837  35.540  12.626
13516W        W85242  10.991  33.680  14.608
13517W        W85243  44.488   6.724   3.726
13518W        W85244  34.648   4.015  11.582
13519W        W85245  42.949   9.849  13.297
13520W        W85246  15.533   5.654   4.643
13521W        W85247  44.739  13.503   4.111
13522W        W85248  28.633   0.338   3.221
13523W        W85249  19.401  18.355   1.845
13524W        W85250  13.222   9.792  11.025
13525W        W85251  31.968  10.804   2.798
13526W        W85252  10.845  42.317  10.862
13527W        W85253  41.441   0.696  12.578
13528W        W85254   3.450  43.848   1.416
13529W        W85255  18.236   1.249  13.922
13530W        W85256  34.367   7.330   1.227
13531W        W85257   0.763  44.015  11.158
13532W        W85258  42.339  38.407  10.847
13533W        W85259  21.337  29.306  13.403
13534W        W85260  43.337  26.607  13.217
13535W        W85261  10.644   6.244   1.268
13536W        W85262  24.556  35.795   3.115
13537W        W85263  10.752  39.442  10.743
13538W        W85264   6.557  18.885  14.711
13539W        W85265   3.465  41.900  14.038
13540W        W85266  26.277   8.609   3.743
13541W        W85267  31.001   3.903  14.649
13542W        W85268  39.758  17.178   3.064
13543W        W85269  38.035  21.145   0.719
13544W        W85270  39.873  16.746   0.738
13545W        W85271  31.466   1.084   3.594
13546W        W85272  12.588  26.955  12.895
13547W        W85273  34.580  41.489  11.996
13548W        W85274  34.798  20.147   4.658
13549W        W85275  18.998   6.380   3.408
13550W        W85276  15.024  23.174   4.337
13551W        W85277   3.408  14.173   4.614
13552W        W85278  14.775  11.259   4.664
13553W        W85279   4.110  42.829  14.526
13554W        W85280   5.482  26.158  14.667
13555W        W85281  13.765  25.334  13.037
13556W        W85282   1.032  41.067   2.220
13557W        W85283  24.279   9.909   3.613
13558W        W85284  34.715   4.202   3.154
13559W        W85285  39.434   1.397  10.574
13560W        W85286  39.556  30.201  13.785
13561W        W85287  41.848   0.765   3.771
13562W        W85288   7.436   4.669   4.438
13563W        W85289  12.422   3.749  10.623
13564W        W85290  12.354  38.325   3.178
13565W        W85291  41.189  13.988  13.746
13566W        W85292   8.174  10.730  10.597
13567W        W85293  21.817   5.360   1.925
13568W        W85294  18.806   2.765  11.706
13569W        W85295  15.152  44.372  14.817
13570W        W85296  40.047  41.404   0.198
13571W        W85297  43.123  26.064   2.934
13572W        W85298   3.962  44.923   1.657
13573W        W85299  21.663  13.855  11.537
13574W        W85300  44.600  30.763   0.386
13575W        W85301  44.874  14.632   0.307
13576W        W85302  35.000  32.390  14.750
13577W        W85303  38.894  42.582   1.864
13578W        W85304   6.402  20.714  11.103
13579W        W85305  36.565  22.071  14.896
13580W        W85306  36.505  21.684  11.145
13581W        W85307  12.845  10.681   2.987
13582W        W85308  16.585  20.677  11.469
13583W        W85309  10.399   4.144   2.065
13584W        W85310  37.088  41.600  14.228
13585W        W85311  16.188  39.438  12.096
13586W        W85312  15.816  14.218   0.856
13587W        W85313   3.272  43.570  11.216
13588W        W85314  40.512  43.906  11.009
13589W        W85315  28.520  29.942  12.410
13590W        W85316  22.140  35.513  13.479
13591W        W85317  27.195  10.427   2.256
13592W        W85318  31.361  30.395  11.228
13593W        W85319  39.471  17.228  13.055
13594W        W85320  16.202   4.821  10.877
13595W        W85321  22.714  43.126  12.529
13596W        W85322  39.802   7.932   3.305
13597W        W85323  37.331   2.904   2.730
13598W        W85324  30.825  36.503   3.177
13599W        W85325   6.209   4.257   1.917
13600W        W85326  17.249  41.751   0.754
13601W        W85327  24.415  31.130   0.916
13602W        W85328  17.036  24.889  11.928
13603W        W85329  24.751  34.461  10.734
13604W        W85330  18.307  27.730   4.584
13605W        W85331  41.775   9.662  11.194
13606W        W85332  15.243   0.757   2.423
13607W        W85333   6.665  32.954  11.667
13608W        W85334  17.184  35.144  11.255
13609W        W85335   2.511  24.282   1.570
13610W        W85336  21.128  36.378  10.761
13611W        W85337  24.181   9.967   0.503
13612W        W85338  37.014  37.781   4.070
13613W        W85339  28.544  22.959   2.783
13614W        W85340  43.493  13.355   4.674
13615W        W85341  43.445  30.456   3.746
13616W        W85342  23.617   4.244  10.398
13617W        W85343   5.871   7.900  13.262
13618W        W85344  41.085   5.609  14.181
13619W        W85345   1.647   6.580   2.302
13620W        W85346  17.121  37.647   3.666
13621W        W85347  13.600  14.913   2.317
13622W        W85348  33.458  31.506  11.188
13623W        W85349   0.319   3.775   4.375
13624W        W85350   9.529  22.491  10.582
13625W        W85351  30.994   8.187   0.762
13626W        W85352  14.620  10.795   0.025
13627W        W85353  12.641  34.474  13.469
13628W        W85354   3.271   4.696  12.151
13629W        W85355   6.983  26.005   1.829
13630W        W85356  32.808  19.791   3.719
13631W        W85357   2.978  11.940  13.428
13632W        W85358  22.570  34.883  14.460
13633W        W85359  29.275   3.248   1.229
13634W        W85360  23.989  18.043  12.833
13635W        W85361  44.830  27.488   0.987
13636W        W85362  28.955  30.446   0.929
13637W        W85363  32.107  37.562  11.087
13638W        W85364  32.522   0.899   0.393
13639W        W85365  18.627  37.815   1.887
13640W        W85366   7.278   2.631   0.959
13641W        W85367  22.797  31.035  12.037
13642W        W85368  34.627  21.667   3.871
13643W        W85369  15.161  27.229   0.661
13644W        W85370  44.056   6.821   2.157
13645W        W85371  30.556  30.170  13.625
13646W        W85372  28.054  28.937   1.320
13647W        W85373  44.738   7.152   0.358
13648W        W85374  31.126  14.951  14.564
13649W        W85375  36.111   6.453   4.896
13650W        W85376  16.795  31.812  10.731
13651W        W85377  17.180  39.368  11.761
13652W        W85378  26.040  30.519   3.325
13653W        W85379   6.712  16.603   4.150
13654W        W85380  21.094  16.815  14.342
13655W        W85381   3.031   1.249  11.616
13656W        W85382  36.639   1.014  12.060
13657W        W85383   0.761  44.516  13.513
13658W        W85384  14.590  12.810  10.898
13659W        W85385  23.621  23.478   1.315
13660W        W85386  35.553  39.092   4.254
13661W        W85387  29.392  35.853   2.137
13662W        W85388  22.738  11.636   3.865
13663W        W85389   4.918  16.665  11.587
13664W        W85390  20.795  11.239  12.434
13665W        W85391  16.756  17.119   2.853
13666W        W85392   0.288  39.920   1.649
13667W        W85393   5.751  19.453   1.280
13668W        W85394  42.767  34.378  12.521
13669W        W85395  39.989  18.000   3.220
13670W        W85396  22.113  26.200   1.752
13671W        W85397  19.526  23.580  12.469
13672W        W85398   7.204  12.750   0.795
13673W        W85399  41.483  40.902  13.000
13674W        W85400  34.943  12.962   0.179
13675W        W85401  16.660  34.857  13.281
13676W        W85402  10.816  35.391  14.479
13677W        W85403  38.859  10.593  14.391
13678W        W85404   4.953  20.264  14.291
13679W        W85405  41.072  25.968  12.737
13680W        W85406  34.854  20.238  12.392
13681W        W85407  21.024   3.752  11.591
13682W        W85408   4.482   5.552   3.798
13683W        W85409  43.165  42.066   5.101
13684W        W85410  22.616   5.737  13.826
13685W        W85411  22.702  27.596   1.323
13686W        W85412  38.137  31.152  11.426
13687W        W85413   5.910   3.979  14.807
13688W        W85414  43.453  35.340  12.489
13689W        W85415  38.740  27.596   2.573
13690W        W85416   7.233  43.820   2.984
13691W        W85417   0.474  21.920  12.744
13692W        W85418  20.664  44.369   2.749
13693W        W85419   7.998   4.109   5.185
13694W        W85420   2.416  17.796  10.894
13695W        W85421  44.435   3.970  13.863
13696W        W85422   3.665   5.913   1.556
13697W        W85423  24.144  24.210  11.570
13698W        W85424  34.607  35.632  14.273
13699W        W85425  17.686  25.228   0.518
13700W        W85426   5.398   2.941  12.930
13701W        W85427  40.288  38.511   3.465
13702W        W85428  11.240  13.855  11.567
13703W        W85429  36.474  39.319   3.382
13704W        W85430  37.061  18.667   0.371
13705W        W85431  12.575  21.571  11.534
13706W        W85432  42.757  12.528   3.056
13707W        W85433  33.419  26.276  12.959
13708W        W85434   7.950  18.636  14.298
13709W        W85435  12.811  18.733  12.411
13710W        W85436   6.221   1.983  11.666
13711W        W85437  38.394  18.348   3.388
13712W        W85438   5.467   3.231   2.015
13713W        W85439  19.799  12.159  10.445
13714W        W85440   7.979  20.954   1.869
13715W        W85441   7.878  24.294  13.002
13716W        W85442  38.195  14.225   3.738
13717W        W85443  25.502  11.081  12.172
13718W        W85444   5.693  38.655  13.838
13719W        W85445  38.484  34.490   0.475
13720W        W85446   1.369  30.894  12.055
13721W        W85447  27.079  18.158   1.773
13722W        W85448  33.367  32.068   2.073
13723W        W85449  26.144  15.547   0.898
13724W        W85450  39.784   0.299   4.650
13725W        W85451   9.160  31.795  12.989
13726W        W85452   6.973  33.289   2.510
13727W        W85453   1.417   1.743   4.267
13728W        W85454  34.927  14.048   2.269
13729W        W85455   6.281   0.296  12.869
13730W        W85456  37.394  18.827   0.831
13731W        W85457   6.229  31.564   3.876
13732W        W85458  43.281   6.175   4.102
13733W        W85459  10.665  13.968  12.402
13734W        W85460  18.154  18.833   1.343
13735W        W85461  41.397  28.741   4.031
13736W        W85462  32.924  34.896  14.415
13737W        W85463  17.286   9.955  13.292
13738W        W85464  44.319   7.106  10.594
13739W        W85465  30.328  27.463   4.221
13740W        W85466  10.770  42.029   2.381
13741W        W85467   4.137  11.318  14.083
13742W        W85468  43.008  30.120  14.899
13743W        W85469  15.215  16.770   5.043
13744W        W85470  40.976  43.902  10.677
13745W        W85471  17.779  38.376  12.881
13746W        W85472   8.136   8.391   4.140
13747W        W85473  36.181  21.162   4.478
13748W        W85474  43.407  34.548   2.811
13749W        W85475  14.595  32.409  11.613
13750W        W85476   9.573   8.175   3.385
13751W        W85477  20.881  14.982   4.174
13752W        W85478   8.726  40.527   0.522
13753W        W85479  17.554   7.924   4.536
13754W        W85480  19.913   4.461  11.131
13755W        W85481  29.049  25.697   0.960
13756W        W85482  18.845   0.506  13.421
13757W        W85483  29.741  38.029   4.213
13758W        W85484  11.035  15.634   3.242
13759W        W85485  33.902  11.660   3.253
13760W        W85486  14.942   9.360   4.156
13761W        W85487  27.127  22.180  13.902
13762W        W85488  22.965  42.478   1.028
13763W        W85489  17.806  16.730  14.572
13764W        W85490  22.161  17.036  13.195
13765W        W85491   5.137  38.644   4.121
13766W        W85492  34.559  43.556  11.360
13767W        W85493  44.713  11.348  11.649
13768W        W85494   5.880   5.919  12.644
13769W        W85495  27.972  34.630  11.025
13770W        W85496  15.823  40.474  13.319
13771W        W85497  34.931   4.784  11.219
13772W        W85498  29.464   9.950   2.712
13773W        W85499  16.357   0.795  11.975
13774W        W85500   5.950  22.182   2.614
13775W        W85501   9.672  24.251  13.176
13776W        W85502  37.449   2.410   4.715
13777W        W85503  29.588   0.209   0.752
13778W        W85504  44.091   6.696   2.674
13779W        W85505  34.402  43.100   2.918
13780W        W85506  17.721   1.484  14.948
13781W        W85507  12.631  20.122   2.848
13782W        W85508  35.988   2.390   2.773
13783W        W85509   0.253  17.795   1.282
13784W        W85510  39.886  35.866  12.890
13785W        W85511  26.927   1.178  11.930
13786W        W85512  21.763   9.837  12.072
13787W        W85513   3.382  33.171  13.318
13788W        W85514  32.038  32.197   4.267
13789W        W85515  14.057  43.705  12.099
13790W        W85516  23.023  19.404  14.706
13791W        W85517  33.609  28.948   2.318
13792W        W85518   6.659  44.431   2.910
13793W        W85519   7.220  17.162   4.039
13794W        W85520  12.365  28.384   2.181
13795W        W85521  34.212  18.253  12.559
13796W        W85522  12.320  17.215   0.907
13797W        W85523  16.464  41.577   2.006
13798W        W85524  10.864  21.059  13.065
13799W        W85525  25.246  36.810   1.326
13800W        W85526  24.742  32.497   0.976
13801W        W85527  40.539  20.050   4.632
13802W        W85528  14.842  29.972   3.487
13803W        W85529  34.390  32.348  13.872
13804W        W85530  18.767   9.027  13.817
13805W        W85531  18.722  11.033   2.717
13806W        W85532  38.933  19.199   0.460
13807W        W85533  20.517  23.973  10.852
13808W        W85534   2.730  37.157   1.290
13809W        W85535  32.439  23.547  14.483
13810W        W85536  11.187   4.236   1.908
13811W        W85537  16.132  15.359  12.006
13812W        W85538  35.762  10.420   0.353
13813W        W85539   8.231  11.287  11.241
13814W        W85540  43.408  34.141   1.322
13815W        W85541  15.682  12.136  12.549
13816W        W85542   4.206   1.726   2.734
13817W        W85543  23.716  32.109   2.654
13818W        W85544  36.380  16.195  13.031
13819W        W85545  31.606  22.751   2.887
13820W        W85546  10.775  12.674  13.593
13821W        W85547  41.992  28.085   4.468
13822W        W85548  14.782  16.555  12.065
13823W        W85549  27.179   9.241  10.844
13824W        W85550  22.260  36.299   2.267
13825W        W85551  17.662   9.048   2.156
13826W        W85552  10.288  16.921  11.061
13827W        W85553   3.391  43.671   0.476
13828W        W85554  22.720  17.475   4.155
13829W        W85555   8.892  32.635   1.376
13830W        W85556  19.750  30.484  14.291
13831W        W85557  31.801  13.686   1.350
13832W        W85558   6.081   3.914   0.786
13833W        W85559  10.120   8.110  14.409
13834W        W85560  31.020  39.150  11.575
13835W        W85561  31.414   4.524   0.495
13836W        W85562  18.795  23.751  10.664
13837W        W85563  31.588  14.333  13.837
13838W        W85564   8.762  33.152  14.412
13839W        W85565  34.902   6.374  13.285
13840W        W85566  37.076  22.402  11.182
13841W        W85567  39.536   3.312  12.836
13842W        W85568  29.434   6.647   2.647
13843W        W85569  20.941  31.028  13.780
13844W        W85570   2.347  27.604   3.800
13845W        W85571  33.894  11.513   2.113
13846W        W85572  12.400  37.576   4.346
13847W        W85573  39.091   5.430  11.475
13848W        W85574  27.438  17.105   0.377
13849W        W85575  25.580  25.241  13.840
13850W        W85576  35.535  36.491   3.217
13851W        W85577   5.820  23.188  11.062
13852W        W85578  31.483  41.000  10.302
13853W        W85579  41.687  38.832   1.825
13854W        W85580  17.234  18.127  11.945
13855W        W85581  34.856  15.099  10.782
13856W        W85582   6.724   4.880   3.837
13857W        W85583  16.751  14.250  11.623
13858W        W85584  21.581  14.048  12.843
13859W        W85585  20.664  37.788   1.775
13860W        W85586   5.138  31.971   4.565
13861W        W85587   0.938  31.263   0.413
13862W        W85588  43.242   5.921  14.758
13863W        W85589   6.449  24.743  13.320
13864W        W85590   4.397  33.737  14.851
13865W        W85591  31.570   5.779  12.864
13866W        W85592  31.126  13.229  11.589
13867W        W85593  14.523  39.266  14.775
13868W        W85594   1.826   0.968   2.280
13869W        W85595  10.912  12.327  10.863
13870W        W85596  14.665  38.462  13.498
13871W        W85597  37.509  13.599   1.409
13872W        W85598   6.686  19.776  11.583
13873W        W85599  22.328  12.528   4.991
13874W        W85600  30.628  19.840  12.231
13875W        W85601  20.155  34.434   4.765
13876W        W85602   5.642  28.082  10.231
13877W        W85603  30.565  17.618  12.109
13878W        W85604   3.226  21.165  14.515
13879W        W85605  15.750  44.951  11.169
13880W        W85606  34.626  38.362  14.488
13881W        W85607  33.530  33.920  11.205
13882W        W85608  18.524  43.222   4.843
13883W        W85609  29.562  31.476   2.285
13884W        W85610  27.656  36.356   1.434
13885W        W85611  13.597  30.117   3.264
13886W        W85612  24.220  43.077  14.914
13887W        W85613  10.658  21.800  11.679
13888W        W85614  32.299   6.660   0.001
13889W        W85615   6.013  18.992   1.381
13890W        W85616   8.916  23.134   9.884
13891W        W85617  32.372  23.661   1.316
13892W        W85618  37.400  10.831   0.599
13893W        W85619  42.652   1.781  13.568
13894W        W85620   8.107  40.242   2.802
13895W        W85621  15.722  20.234  12.082
13896W        W85622  44.033  12.518  12.974
13897W        W85623  13.243  13.058   3.658
13898W        W85624  10.606  36.426   4.816
13899W        W85625  39.576  28.964   2.853
13900W        W85626  39.026  19.788  10.244
13901W        W85627   2.882  14.163   1.816
13902W        W85628  17.761  14.981  12.861
13903W        W85629  37.084  22.595   2.778
13904W        W85630  12.207  38.891   0.015
13905W        W85631  29.199   1.405   2.265
13906W        W85632  11.670  39.355  14.038
13907W        W85633   7.946  40.286   0.983
13908W        W85634  28.511  29.257  13.924
13909W        W85635  31.824   0.465   0.753
13910W        W85636  27.228   3.212   3.559
13911W        W85637  16.679  42.653   2.587
13912W        W85638  16.631  36.591   2.970
13913W        W85639   2.423  42.693   5.084
13914W        W85640  35.836  10.086   2.869
13915W        W85641  19.696   5.294   4.162
13916W        W85642   8.385   6.091   2.754
13917W        W85643  32.816  20.001  13.917
13918W        W85644  44.001  14.413   1.171
13919W        W85645   7.112  14.073   0.047
13920W        W85646   6.467  33.066  11.200
13921W        W85647  11.288   2.705   0.425
13922W        W85648  25.903  44.101  12.490
13923W        W85649  22.692   4.091   1.307
13924W        W85650  11.094  11.761  14.282
13925W        W85651  31.500  25.732  11.994
13926W        W85652  21.756  11.566  11.457
13927W        W85653   9.903  19.598  12.032
13928W        W85654  40.234   3.593  10.373
13929W        W85655  27.653   7.285  11.398
13930W        W85656  14.850  37.397   3.137
13931W        W85657  27.301  11.946  12.493
13932W        W85658  22.952  31.328  12.889
13933W        W85659  23.061   8.143   0.015
13934W        W85660   6.540  38.671  13.995
13935W        W85661  25.195  42.064   4.615
13936W        W85662  16.334  22.621   1.480
13937W        W85663  23.130  11.336   1.295
13938W        W85664  23.381  20.629   0.263
13939W        W85665   8.089  40.003  10.558
13940W        W85666  43.787  22.584  11.913
13941W        W85667  40.512   7.663  11.446
13942W        W85668  31.916  11.754   3.086
13943W        W85669  10.644  20.094  12.070
13944W        W85670   0.719  13.109   0.798
13945W        W85671  33.895   4.869   4.969
13946W        W85672  25.419  19.143  11.468
13947W        W85673  36.227   4.190  12.413
13948W        W85674  35.006   0.435  13.276
13949W        W85675  17.186   0.712  13.440
13950W        W85676   0.731  27.744   0.406
13951W        W85677  11.315  19.511  11.417
13952W        W85678  44.923   8.943   4.911
13953W        W85679  11.350  42.919   2.866
13954W        W85680   6.389  37.167  10.652
13955W        W85681  37.000  31.687   2.160
13956W        W85682  23.079  29.371   4.514
13957W        W85683  13.368  41.961   1.681
13958W        W85684  13.172  33.849  14.003
13959W        W85685  28.402  37.557  11.120
13960W        W85686  14.617   7.378   4.311
13961W        W85687  19.220  12.772  12.522
13962W        W85688   0.530  18.569   1.702
13963W        W85689  19.317  16.300   0.857
13964W        W85690  18.230   2.230  14.435
13965W        W85691  31.469  11.119  11.965
13966W        W85692  16.605  44.564  12.622
13967W        W85693  29.529   7.833  13.883
13968W        W85694  26.178  30.191  12.363
13969W        W85695  39.202  36.828  11.526
13970W        W85696  36.867   7.605  14.222
13971W        W85697  36.479  32.703  14.736
13972W        W85698  18.778  15.815   3.088
13973W        W85699  22.705  33.704   3.133
13974W        W85700  30.221  30.786   0.313
13975W        W85701  41.483  25.711   3.854
13976W        W85702  12.221  32.891   3.622
13977W        W85703  22.674  38.428   2.170
13978W        W85704  34.529  32.224   2.330
13979W        W85705  37.258  41.401   4.235
13980W        W85706  31.838  32.411  14.475
13981W        W85707   0.340  23.464   4.289
13982W        W85708  34.348  17.061   4.107
13983W        W85709  43.320  10.245   3.734
13984W        W85710   0.707  26.141  12.096
13985W        W85711  17.842  28.097   3.756
13986W        W85712  19.912  40.692   0.456
13987W        W85713  37.083  37.404   2.358
13988W        W85714  33.276  34.424  12.821
13989W        W85715   0.016  38.378  13.424
13990W        W85716  17.264  38.364  12.123
13991W        W85717  15.172  44.891  14.999
13992W        W85718  15.819  42.498   2.748
13993W        W85719  21.161  24.065  12.055
13994W        W85720  11.170   8.542  12.339
13995W        W85721  16.266   7.726   4.095
13996W        W85722  19.107  37.285   1.400
13997W        W85723  30.068  25.781   3.561
13998W        W85724   8.343  25.118  14.824
13999W        W85725   7.269   8.820   2.503
14000W        W85726  28.663  23.701  12.818
14001W        W85727  19.875  31.681   0.359
14002W        W85728  10.473  14.319   0.817
14003W        W85729   2.848   1.099   1.639
14004W        W85730  40.646   8.827   3.522
14005W        W85731  29.974  12.828   3.872
14006W        W85732  36.929  39.382  11.200
14007W        W85733   3.726  10.089  13.865
14008W        W85734  29.504  44.428   2.783
14009W        W85735  19.478  36.090  13.756
14010W        W85736  30.091   4.334  10.510
14011W        W85737  19.637  10.245   4.579
14012W        W85738  18.031  15.621   0.713
14013W        W85739  40.829  30.964   2.951
14014W        W85740  35.606  35.566   3.205
14015W        W85741  42.411  18.166  14.955
14016W        W85742  32.971  44.531   4.475
14017W        W85743  43.087   8.392   0.796
14018W        W85744   7.673  42.373  11.611
14019W        W85745  30.440  21.225  14.407
14020W        W85746  42.383   3.637  12.541
14021W        W85747  39.153   4.684  12.506
14022W        W85748  43.434  25.103  13.230
14023W        W85749   5.410  15.282   0.542
14024W        W85750  17.099   1.120  12.564
14025W        W85751   9.164  44.284  12.407
14026W        W85752  26.886  16.429  11.613
14027W        W85753  24.990  37.897  14.849
14028W        W85754   8.849  38.523  11.125
14029W        W85755  20.240  25.686   0.362
14030W        W85756  33.561  39.045   3.775
14031W        W85757  17.574   0.633  10.658
14032W        W85758  28.416  34.046   4.166
14033W        W85759   1.502   0.196   1.379
14034W        W85760  44.417   4.097   0.243
14035W        W85761  10.986  28.674   4.252
14036W        W85762  14.355   9.764  10.380
14037W        W85763  14.486  42.645   3.860
14038W        W85764  40.248  17.906  12.544
14039W        W85765  32.233  42.067  10.642
14040W        W85766  15.027  38.839   2.579
14041W        W85767  42.286   7.954   4.340
14042W        W85768  23.587   4.205   0.231
14043W        W85769  37.509  40.259   2.185
14044W        W85770  33.509  40.404  12.000
14045W        W85771   7.419  17.609   0.946
14046W        W85772  11.630  36.602   2.363
14047W        W85773  40.058   9.722   1.405
14048W        W85774  28.714  42.052   1.191
14049W        W85775  17.827  11.617   0.002
14050W        W85776  40.803  28.693   0.843
14051W        W85777  30.033  34.382   0.942
14052W        W85778  27.123   8.669  11.544
14053W        W85779   4.072  29.685  14.831
14054W        W85780  19.663  41.348   2.860
14055W        W85781  13.198  32.407   2.950
14056W        W85782   0.451  12.994  12.523
14057W        W85783  28.339  16.110   4.655
14058W        W85784  14.583   1.947  12.584
14059W        W85785  15.207  31.349   3.755
14060W        W85786  41.562  14.041  14.149
14061W        W85787  39.506   5.407  13.714
14062W        W85788   8.120  32.046  10.519
14063W        W85789  12.841  24.990  14.338
14064W        W85790  37.360  38.369   3.615
14065W        W85791  28.724   5.383  13.066
14066W        W85792  20.416   1.807  10.640
14067W        W85793   6.820   6.616  12.397
14068W        W85794  33.613  23.201   1.468
14069W        W85795  30.085   3.292  11.264
14070W        W85796  28.619  25.235   3.624
14071W        W85797  25.626  29.529  13.809
14072W        W85798  11.834  13.126   3.244
14073W        W85799  23.972  19.047  11.759
14074W        W85800  31.607  44.372  14.764
14075W        W85801  24.602  37.586   0.305
14076W        W85802   3.209   7.498   2.137
14077W        W85803  42.932  28.466   5.004
14078W        W85804   7.314  14.168  13.561
14079W        W85805  11.106  37.416  11.233
14080W        W85806  35.876  21.106   2.680
14081W        W85807   4.546   5.754   1.796
14082W        W85808  27.620  25.811  12.560
14083W        W85809  39.025  31.634   3.791
14084W        W85810  33.851  44.408   4.610
14085W        W85811  16.815  38.483  14.991
14086W        W85812  12.751  21.087   0.364
14087W        W85813  23.066  17.625   1.343
14088W        W85814   5.252  16.253   3.091
14089W        W85815   6.265  24.096   1.579
14090W        W85816  43.886  34.198   0.354
14091W        W85817   0.855  15.652   4.743
14092W        W85818  26.648  23.611  10.897
14093W        W85819   0.479  21.542  11.581
14094W        W85820   9.587  38.839   1.894
14095W        W85821  28.974  24.500  14.623
14096W        W85822  20.120   1.475   3.186
14097W        W85823  16.359  44.701   3.058
14098W        W85824  41.544   9.281   1.374
14099W        W85825  38.485  19.709  14.812
14100W        W85826   5.399  12.217  13.596
14101W        W85827   4.786  35.342   4.555
14102W        W85828   8.643   4.894  12.010
14103W        W85829  13.449  13.216   1.312
14104W        W85830  32.912  21.305   4.272
14105W        W85831  20.753   3.989   1.746
14106W        W85832  27.439  38.830   0.883
14107W        W85833  37.072  38.293   4.054
14108W        W85834  15.702  34.765   1.930
14109W        W85835  11.606   4.450  14.402
14110W        W85836   4.134  30.980   3.840
14111W        W85837  17.289  34.690  11.579
14112W        W85838  27.744  39.596   1.200
14113W        W85839  21.512  19.333   1.384
14114W        W85840   3.856  27.796  14.882
14115W        W85841  16.046  18.287   3.121
14116W        W85842  40.517  38.271  13.488
14117W        W85843  16.325  29.260   0.685
14118W        W85844  10.088   2.534  11.843
14119W        W85845  27.766  20.890   3.359
14120W        W85846  20.578  44.032  10.557
14121W        W85847  21.760  14.698  10.660
14122W        W85848  14.633   6.245  13.213
14123W        W85849  26.237  22.904   1.770
14124W        W85850  41.875  43.417  10.535
14125W        W85851  22.288   7.725  14.815
14126W        W85852  12.380  19.935   2.419
14127W        W85853  16.642  24.214  13.414
14128W        W85854  24.662   9.781   2.195
14129W        W85855   0.436  11.562   1.655
14130W        W85856  23.540   6.100  12.045
14131W        W85857  37.094  40.931   2.772
14132W        W85858  22.248  35.904  12.860
14133W        W85859   8.358  41.119   2.591
14134W        W85860  20.439  28.114  11.656
14135W        W85861  40.071  42.370  14.999
14136W        W85862   4.678  16.625  14.780
14137W        W85863  43.533  40.382   2.679
14138W        W85864   9.820  11.882  14.030
14139W        W85865  41.351   9.167  13.869
14140W        W85866  43.363  29.747  14.875
14141W        W85867  12.400  21.720  11.003
14142W        W85868  18.990   9.715  13.946
14143W        W85869  25.092  36.489   0.948
14144W        W85870  41.423   4.205  10.482
14145W        W85871  11.586  14.348  13.913
14146W        W85872  31.853  38.077   0.350
14147W        W85873   1.823  16.061  13.717
14148W        W85874  15.267  25.301   2.060
14149W        W85875  30.361  16.669   1.295
14150W        W85876  27.699  43.098  14.845
14151W        W85877  37.957  22.774   0.977
14152W        W85878  33.433  26.535  14.499
14153W        W85879   4.978  30.496   0.471
14154W        W85880  26.611  41.023  14.920
14155W        W85881  42.949   4.078  14.860
14156W        W85882  44.215  30.093  13.039
14157W        W85883  37.897  41.537   0.922
14158W        W85884   8.277  26.721   3.324
14159W        W85885   4.265  21.338  13.298
14160W        W85886   8.721  36.327   9.607
14161W        W85887  30.782   3.750  12.044
14162W        W85888  33.532  34.190   4.067
14163W        W85889  25.226  22.611  14.701
14164W        W85890   2.447  21.015  12.555
14165W        W85891  28.526  26.724  13.363
14166W        W85892  38.810  24.974   4.578
14167W        W85893  37.965  14.155  12.368
14168W        W85894  35.792  26.663  14.910
14169W        W85895  32.635   6.238  14.862
14170W        W85896  21.527   8.179  13.061
14171W        W85897   0.292   1.324   2.846
14172W        W85898  20.262  20.192   0.857
14173W        W85899  26.972  22.155  11.220
14174W        W85900  36.378   4.415   0.552
14175W        W85901  37.484   3.330   2.986
14176W        W85902  40.996  34.182   3.764
14177W        W85903  25.536  43.039  10.272
14178W        W85904  15.239   0.275   2.668
14179W        W85905  43.914  10.767   0.810
14180W        W85906  18.560  39.354  11.460
14181W        W85907  44.329  37.433  11.192
14182W        W85908  30.641  39.044  10.968
14183W        W85909  30.052  36.471  11.507
14184W        W85910  27.649  28.633   4.395
14185W        W85911   8.112  11.731  14.791
14186W        W85912  35.058  37.875   4.774
14187W        W85913  11.751  42.776   5.068
14188W        W85914   3.294  18.880  14.572
14189W        W85915  19.045  34.019  14.429
14190W        W85916  33.021   4.520   0.773
14191W        W85917   1.502  27.109  12.780
14192W        W85918  38.993  14.253  12.997
14193W        W85919  16.710   9.960   1.242
14194W        W85920  35.351  30.376   1.856
14195W        W85921  41.763  29.078   4.589
14196W        W85922   6.283  11.791  14.459
14197W        W85923  32.373  12.395   0.451
14198W        W85924  17.511  36.831   1.722
14199W        W85925  33.133   5.250  14.346
14200W        W85926  28.085  22.473   3.254
14201W        W85927  20.061  38.812   0.289
14202W        W85928  18.929  24.537   0.754
14203W        W85929  22.356  13.646   0.545
14204W        W85930  44.953  21.717   0.231
14205W        W85931  19.757  41.031   1.870
14206W        W85932  24.988  30.446  13.108
14207W        W85933   3.680   1.492   1.844
14208W        W85934  35.953  41.345  12.122
14209W        W85935   5.357  15.814  13.379
14210W        W85936  25.174  24.012   3.728
14211W        W85937   3.356  14.719  10.913
14212W        W85938  42.965  10.751  10.535
14213W        W85939  15.576  35.880   1.350
14214W        W85940   8.838  17.280   1.258
14215W        W85941  25.577  44.377   4.233
14216W        W85942  11.640  16.256  10.669
14217W        W85943  10.763  12.168   1.404
14218W        W85944   2.191  12.142   0.486
14219W        W85945  37.253  42.973   3.583
14220W        W85946  28.660  43.240  13.559
14221W        W85947   9.673  32.326   0.731
14222W        W85948  13.798   6.033  12.913
14223W        W85949   8.669  11.883   4.273
14224W        W85950  25.534  19.230  13.359
14225W        W85951  22.713  15.304   2.175
14226W        W85952  22.233  41.254   0.341
14227W        W85953  24.021   2.218  12.941
14228W        W85954  14.138  29.223   3.232
14229W        W85955  34.088  16.804  13.208
14230W        W85956  27.695   5.867   1.268
14231W        W85957  29.695  27.977  12.134
14232W        W85958  29.832  44.950  14.349
14233W        W85959  28.566  17.581  11.082
14234W        W85960  25.133  15.665  13.481
14235W        W85961  11.901  37.042   3.886
14236W        W85962  36.018  18.462   3.140
14237W        W85963  18.322  35.012  12.051
14238W        W85964  13.827  44.937   3.636
14239W        W85965  44.838   3.858  11.441
14240W        W85966  33.806  42.490  14.020
14241W        W85967  29.161  10.394  11.626
14242W        W85968  23.987  20.271   0.811
14243W        W85969  40.727  44.430   1.632
14244W        W85970  13.725  17.038  14.651
14245W        W85971  28.078   1.817   4.571
14246W        W85972  17.245   6.641   1.553
14247W        W85973  17.068  12.713  10.330
14248W        W85974   5.532  14.341   3.083
14249W        W85975  20.521  16.158  13.999
14250W        W85976  39.310   6.625  11.665
14251W        W85977  36.367  22.604   1.683
14252W        W85978  24.732  34.790  14.369
14253W        W85979  13.706  41.911   0.365
14254W        W85980   0.764  38.830   2.686
14255W        W85981  16.172   3.511   4.733
14256W        W85982  22.663   7.625   4.596
14257W        W85983  40.450  10.433   2.389
14258W        W85984  43.986  34.411  13.897
14259W        W85985  25.091  43.469   4.140
14260W        W85986  30.070  34.543  14.819
14261W        W85987  42.435  27.848   4.727
14262W        W85988  27.182   1.548   5.620
14263W        W85989  37.580  18.076   1.836
14264W        W85990  44.883  32.397   3.245
14265W        W85991  28.168  12.331  13.237
14266W        W85992   4.951   4.560   4.542
14267W        W85993  23.444  24.942   3.262
14268W        W85994   6.939  10.027  11.877
14269W        W85995  41.423   1.037   0.330
14270W        W85996  33.592  44.871  14.920
14271W        W85997  41.345  39.168  14.435
14272W        W85998   9.141   3.284  11.674
14273W        W85999  37.459  30.444   0.313
14274W        W86000  32.647  35.603  13.528
14275W        W86001  43.646  27.908  11.522
14276W        W86002  11.020  42.049   2.885
14277W        W86003  25.775  19.879   1.071
14278W        W86004   5.340  11.521  14.973
14279W        W86005  18.257  40.561   2.936
14280W        W86006  36.471  33.134   1.962
14281W        W86007  23.364  27.979   9.746
14282W        W86008   9.310  24.656   0.045
14283W        W86009  21.698  10.067   3.436
14284W        W86010  30.272  37.417  13.333
14285W        W86011   3.567   9.627  11.131
14286W        W86012  36.508  25.080  12.650
14287W        W86013   7.204   1.157  14.188
14288W        W86014  26.889  21.532   4.089
14289W        W86015   5.497  38.480  11.626
14290W        W86016  18.646   9.786  10.961
14291W        W86017   9.164  20.092  11.156
14292W        W86018   8.804  12.017   1.569
14293W        W86019  30.981  30.344  12.643
14294W        W86020  35.545  16.172  11.511
14295W        W86021  30.051  23.230   3.709
14296W        W86022   2.004   2.769   1.184
14297W        W86023  26.678  14.611   2.452
14298W        W86024  18.141  14.700   2.301
14299W        W86025  44.431  10.655   0.898
14300W        W86026  24.633  41.934   2.659
14301W        W86027  31.208  10.734  13.489
14302W        W86028  19.252  35.372  13.773
14303W        W86029  14.375   8.419  11.194
14304W        W86030   7.757  30.351  14.772
14305W        W86031   4.599  30.547   0.131
14306W        W86032  16.166  43.399  13.738
14307W        W86033  35.004  37.486   0.765
14308W        W86034  22.602  23.169   3.570
14309W        W86035  25.214  20.729  14.951
14310W        W86036  11.812  15.866   4.653
14311W        W86037  38.962  17.183   3.676
14312W        W86038  36.863  25.642  14.791
14313W        W86039   2.459  21.645   2.899
14314W        W86040  33.239  31.877   3.694
14315W        W86041  33.156  40.464  12.487
14316W        W86042  17.972  22.094   3.719
14317W        W86043  40.030  27.802   2.359
14318W        W86044   8.167  40.269  14.138
14319W        W86045  15.215  32.045  10.502
14320W        W86046  37.448  28.832  12.925
14321W        W86047  22.728  41.008  14.850
14322W        W86048   3.756  26.452  14.806
14323W        W86049  16.747  20.135  14.918
14324W        W86050   0.866  22.723  12.492
14325W        W86051  34.142  42.856  12.372
14326W        W86052   7.906  17.264  11.688
14327W        W86053  18.615  20.476   4.121
14328W        W86054  41.501  33.040  10.713
14329W        W86055  38.191  23.056   4.505
14330W        W86056  20.029   8.211  14.881
14331W        W86057  41.371  34.454  11.166
14332W        W86058  28.653  23.748   1.814
14333W        W86059  27.072  30.410   3.208
14334W        W86060   7.838   3.238  11.198
14335W        W86061  27.509  33.714  12.840
14336W        W86062  26.024  13.111  13.725
14337W        W86063  42.423   1.717   3.367
14338W        W86064   8.110   7.885   3.615
14339W        W86065  26.967   5.810  13.860
14340W        W86066  14.580  42.848  12.856
14341W        W86067  30.711  30.496   3.003
14342W        W86068  20.599  22.088  11.612
14343W        W86069   8.390  39.140  12.031
14344W        W86070  22.139  25.141  13.905
14345W        W86071  13.894  12.200  12.070
14346W        W86072   4.753   3.956  14.706
14347W        W86073  26.449  34.405   4.752
14348W        W86074   3.241   7.311   1.635
14349W        W86075   9.617  19.597  13.001
14350W        W86076  38.955   4.971   0.340
14351W        W86077  20.117  39.338   0.270
14352W        W86078  19.527  13.257   4.159
14353W        W86079  43.195  40.856   1.757
14354W        W86080  40.878  33.968   3.264
14355W        W86081  13.828  40.804  11.114
14356W        W86082   5.805  19.789   1.738
14357W        W86083  25.545  25.788  12.114
14358W        W86084   6.385  26.398  13.491
14359W        W86085  25.235  12.576  13.373
14360W        W86086  12.788  14.237   1.743
14361W        W86087  34.535   9.796   1.172
14362W        W86088  19.087  44.752   0.731
14363W        W86089  18.075   1.902  12.072
14364W        W86090  26.371   1.303   9.675
14365W        W86091  22.038   6.019   4.964
14366W        W86092  30.139   0.345   1.425
14367W        W86093   5.185  23.465  13.895
14368W        W86094  12.999  43.393  12.635
14369W        W86095  21.560  16.911   2.760
14370W        W86096  42.233  26.397   1.360
14371W        W86097  40.831  23.045   4.668
14372W        W86098   1.596  42.138   4.990
14373W        W86099  18.370   1.992  14.882
14374W        W86100   1.811  17.695  12.690
14375W        W86101  20.363  21.660   1.289
14376W        W86102  16.370  29.336  13.908
14377W        W86103  36.995  11.661  11.654
14378W        W86104  14.212  27.895  12.985
14379W        W86105  22.982  36.448   0.453
14380W        W86106  40.018  32.387   0.875
14381W        W86107  31.450   8.875  12.098
14382W        W86108  20.282   5.332  14.300
14383W        W86109  41.855  13.610  10.842
14384W        W86110  36.080  14.362  14.877
14385W        W86111  20.026   0.824  14.331
14386W        W86112  27.872  23.327   3.191
14387W        W86113   5.608   6.313  14.475
14388W        W86114  32.368  18.564  12.114
14389W        W86115   4.853   5.729  14.946
14390W        W86116  31.965  15.093   1.493
14391W        W86117  27.269  43.615  12.123
14392W        W86118  14.136  27.089   3.391
14393W        W86119  19.445   6.316   3.633
14394W        W86120  21.157   2.379   0.978
14395W        W86121  40.875   6.303   0.882
14396W        W86122  39.847   8.122  11.090
14397W        W86123  34.646  35.553  14.835
14398W        W86124  42.439  29.651   4.107
14399W        W86125  26.644  26.591   3.474
14400W        W86126  16.276   8.932  10.563
14401W        W86127  33.565  43.519   3.833
14402W        W86128   0.495  26.780  11.033
14403W        W86129  41.807  26.076  13.893
14404W        W86130  27.156   2.390  12.929
14405W        W86131  37.560  10.321   3.388
14406W        W86132  18.973  22.082  14.802
14407W        W86133  34.405   4.372  11.901
14408W        W86134   8.428   4.411  13.123
14409W        W86135  33.516   4.717  14.935
14410W        W86136  23.768  14.121  11.945
14411W        W86137  41.649  44.750  11.068
14412W        W86138  15.716  27.678  14.012
14413W        W86139  18.202   2.554  13.030
14414W        W86140  17.373   2.263   1.185
14415W        W86141  31.460  37.120  10.623
14416W        W86142  39.439  12.544  12.484
14417W        W86143  24.696   0.699  14.770
14418W        W86144  13.210  35.320  14.071
14419W        W86145  20.054   7.887  12.143
14420W        W86146   6.418  38.465   4.544
14421W        W86147  25.864  32.690  13.835
14422W        W86148   3.186   1.740  12.014
14423W        W86149  42.321  32.406   0.927
14424W        W86150  20.744  39.484  13.323
14425W        W86151  24.411  34.146  13.010
14426W        W86152  18.397  31.103   3.947
14427W        W86153  23.004   4.670  11.889
14428W        W86154  17.619  20.037  11.572
14429W        W86155  18.264  29.725  11.183
14430W        W86156  25.641  23.256   3.826
14431W        W86157  13.535  15.664   0.865
14432W        W86158  20.665  42.904   3.744
14433W        W86159  28.582   9.683   1.073
14434W        W86160   5.836  16.853   1.847
14435W        W86161  39.995  26.982  13.361
14436W        W86162  35.909  18.444  12.087
14437W        W86163  22.521  44.594   2.281
14438W        W86164  35.584  40.766   3.481
14439W        W86165  19.239  44.330  11.146
14440W        W86166  13.337  26.773  13.554
14441W        W86167  24.176   6.272   4.130
14442W        W86168  42.423   8.471   4.383
14443W        W86169  15.665  19.176   0.339
14444W        W86170   7.858  27.043   3.394
14445W        W86171   8.338  28.098   4.106
14446W        W86172  32.534  20.266   0.723
14447W        W86173  22.169   9.959   3.221
14448W        W86174  29.222   2.240  13.354
14449W        W86175  26.002  17.864   1.388
14450W        W86176  36.252   5.391  11.525
14451W        W86177  28.471  38.527  13.719
14452W        W86178  44.494  27.024  13.300
14453W        W86179  18.171  17.478   3.071
14454W        W86180  42.676  16.641   1.126
14455W        W86181  20.755  15.967  12.156
14456W        W86182   4.809  35.344  11.384
14457W        W86183  26.069  29.546  13.072
14458W        W86184  43.675   3.051   2.070
14459W        W86185   2.470  43.381   1.408
14460W        W86186  35.127  12.845   1.538
14461W        W86187  44.741   3.086  13.530
14462W        W86188  14.867  33.541   2.237
14463W        W86189   4.164  30.676   4.236
14464W        W86190  19.339   0.699  13.572
14465W        W86191  16.070   6.616  13.555
14466W        W86192  43.279   9.479  13.085
14467W        W86193  18.719   0.474   2.633
14468W        W86194   8.090   9.293  11.680
14469W        W86195  34.874  14.515  12.491
14470W        W86196  20.214  14.888  14.906
14471W        W86197  26.057  13.629   3.643
14472W        W86198   8.394   7.744  12.478
14473W        W86199  16.361  37.941   4.591
14474W        W86200  18.035   5.363   1.296
14475W        W86201  43.831  22.116   2.813
14476W        W86202   0.578  35.217   5.015
14477W        W86203  13.328  20.648   1.411
14478W        W86204   7.856  40.961  11.945
14479W        W86205   1.372   1.504   3.043
14480W        W86206  18.120  17.705   0.624
14481W        W86207  28.084  39.339   3.821
14482W        W86208  35.532  32.205  10.711
14483W        W86209  38.619  18.305  10.552
14484W        W86210  40.594  22.718   1.728
14485W        W86211   7.437  26.554   3.629
14486W        W86212  24.234  39.466   0.264
14487W        W86213  23.790  22.180  12.565
14488W        W86214  14.008  43.919   2.268
14489W        W86215  23.991  36.367  12.454
14490W        W86216   0.415  14.157   0.988
14491W        W86217  17.668  43.739   3.665
14492W        W86218  35.958  23.230   1.285
14493W        W86219  21.789  24.306   5.701
14494W        W86220  34.846   6.918   3.315
14495W        W86221  17.041  23.936   1.901
14496W        W86222  40.909   2.744   0.130
14497W        W86223   3.847  13.119  12.433
14498W        W86224  29.373  29.120   4.581
14499W        W86225  44.966   0.209   2.460
14500W        W86226   1.582  22.160   0.274
14501W        W86227  43.807  38.049   2.579
14502W        W86228  14.775  18.786   4.656
14503W        W86229   8.918   5.384   4.160
14504W        W86230  10.029  21.290  11.592
14505W        W86231   7.298  13.712  13.136
14506W        W86232  21.578  24.854   3.554
14507W        W86233  37.833   5.980   0.941
14508W        W86234  29.949  10.691  11.202
14509W        W86235  36.344  14.130   1.202
14510W        W86236  15.253  15.377  11.885
14511W        W86237  26.683  35.376  14.527
14512W        W86238  32.574  21.530  12.540
14513W        W86239  38.865   3.895  11.591
14514W        W86240  13.099   6.198  11.540
14515W        W86241   1.245   1.626   4.740
14516W        W86242  17.975  10.057   3.824
14517W        W86243  37.856  19.698   2.252
14518W        W86244  37.344  31.882   1.006
14519W        W86245  22.010  26.293   5.187
14520W        W86246  17.075  25.627   2.643
14521W        W86247  18.791  39.830  11.606
14522W        W86248  25.921  12.369   2.766
14523W        W86249  37.976  20.151   0.354
14524W        W86250  21.611   9.071   3.237
14525W        W86251   5.437  28.461   0.800
14526W        W86252  29.112  44.494   4.179
14527W        W86253  34.475  24.586   3.194
14528W        W86254  17.085  11.943   4.220
14529W        W86255  23.263  25.348   4.648
14530W        W86256   6.320  18.134   3.769
14531W        W86257   0.796  33.507   1.970
14532W        W86258   7.396   8.790  13.809
14533W        W86259  35.212  15.216   1.941
14534W        W86260  19.856  16.426  11.869
14535W        W86261  42.359  17.261   1.437
14536W        W86262  34.391  35.765  12.680
14537W        W86263  30.559  30.448   0.465
14538W        W86264  27.191  34.949   2.883
14539W        W86265  36.267  10.427   0.461
14540W        W86266  28.848  28.932  12.003
14541W        W86267  10.378  25.196  13.902
14542W        W86268  20.036   0.010   3.976
14543W        W86269   1.457  17.102  14.077
14544W        W86270  43.520   9.078   2.330
14545W        W86271  42.607  42.689   3.840
14546W        W86272  14.260  39.951  10.151
14547W        W86273  14.212  41.241  11.693
14548W        W86274  36.771  32.053  14.229
14549W        W86275   9.170  25.683  10.734
14550W        W86276  21.649   9.572   4.745
14551W        W86277  13.835   7.168   2.010
14552W        W86278  26.095   5.747   4.761
14553W        W86279  20.437  12.122   3.698
14554W        W86280  13.702  31.451   4.657
14555W        W86281  39.264   3.428  13.832
14556W        W86282  18.338  38.611   3.756
14557W        W86283  21.282  35.479  12.847
14558W        W86284  18.899   5.823  14.606
14559W        W86285  32.377  18.713   4.820
14560W        W86286  44.323  39.475  14.565
14561W        W86287  21.946  42.104   0.406
14562W        W86288  44.824  31.118   2.753
14563W        W86289  21.309  10.274   0.072
14564W        W86290  23.026  13.929   4.755
14565W        W86291  26.070  13.828   1.849
14566W        W86292  19.179   4.736  13.981
14567W        W86293  29.430  30.728  10.287
14568W        W86294  37.553  42.910   1.855
14569W        W86295  10.784  33.868   2.115
14570W        W86296  35.456  33.050   2.371
14571W        W86297  40.506  26.162   2.888
14572W        W86298  33.193  37.839   0.685
14573W        W86299  29.124  17.850  11.939
14574W        W86300  33.911   5.359  13.857
14575W        W86301   2.962  10.630  11.122
14576W        W86302  31.272  42.080   9.763
14577W        W86303  41.784  15.894  13.064
14578W        W86304  44.425  13.023   5.025
14579W        W86305  17.719  40.120   9.718
14580W        W86306  38.436  16.368  14.638
14581W        W86307  42.569  18.746  14.246
14582W        W86308  23.046  26.586  13.929
14583W        W86309  19.171   2.921   1.410
14584W        W86310  27.888   6.825  11.557
14585W        W86311  16.766  30.672   4.152
14586W        W86312  19.218   8.754   2.391
14587W        W86313   5.963  11.764  12.946
14588W        W86314   3.849  33.426  14.174
14589W        W86315  37.977  40.805   1.374
14590W        W86316  19.665  34.153  13.007
14591W        W86317   6.770   2.680  11.928
14592W        W86318  24.785  16.806  12.195
14593W        W86319   3.827  39.442  12.643
14594W        W86320  14.857  18.181  12.955
14595W        W86321  19.248  11.761  13.427
14596W        W86322   3.213  17.810  10.708
14597W        W86323  30.495  17.629   0.007
14598W        W86324  43.949  43.683  10.941
14599W        W86325  27.015  43.869  14.298
14600W        W86326  20.755  27.825   5.000
14601W        W86327   3.406   3.859   0.208
14602W        W86328  12.731  44.337  14.178
14603W        W86329  41.904   2.753  14.395
14604W        W86330  13.376  30.514   0.539
14605W        W86331  22.241  39.638   4.059
14606W        W86332  28.036  36.399  13.403
14607W        W86333  24.187  21.531   2.146
14608W        W86334  42.438   9.891  12.530
14609W        W86335  34.137  43.935   9.675
14610W        W86336  28.611  21.083   2.865
14611W        W86337  41.488  27.723   3.843
14612W        W86338  28.418   6.761  12.482
14613W        W86339   7.870   3.275   3.076
14614W        W86340  25.866  36.903  11.928
14615W        W86341  43.927   4.863  10.209
14616W        W86342  25.856  15.273  14.497
14617W        W86343  14.670   9.311   0.444
14618W        W86344  38.032  14.554   1.264
14619W        W86345  43.052   4.675  10.396
14620W        W86346  42.557   0.765   2.242
14621W        W86347   3.499  37.500   4.608
14622W        W86348  19.562  21.835  13.065
14623W        W86349  32.162   8.792  12.505
14624W        W86350  40.223  17.229   1.898
14625W        W86351  28.382  40.583   1.542
14626W        W86352  29.410  18.755  14.040
14627W        W86353   0.444   8.277  10.340
14628W        W86354  35.066  12.520  11.522
14629W        W86355  14.725  36.847  10.571
14630W        W86356  18.297  18.692   3.097
14631W        W86357   5.198   9.090   1.107
14632W        W86358  26.628   2.142  14.567
14633W        W86359  39.342  44.897   4.033
14634W        W86360  11.367   1.205   4.608
14635W        W86361  30.704  40.106  11.577
14636W        W86362   0.898  30.523   1.219
14637W        W86363  18.859  27.750   2.773
14638W        W86364  41.957  41.172  10.072
14639W        W86365   5.153  10.087  13.482
14640W        W86366  33.314  32.833  12.266
14641W        W86367  22.238  36.027  11.395
14642W        W86368  28.287  13.843   2.616
14643W        W86369  32.199  36.208  10.699
14644W        W86370   9.418   8.968   0.696
14645W        W86371  12.771   0.380  11.568
14646W        W86372  32.920   4.091   4.490
14647W        W86373  18.490  11.368  12.078
14648W        W86374  32.117  29.370  14.946
14649W        W86375   4.274   1.892  12.466
14650W        W86376  38.889  10.857   3.641
14651W        W86377  30.390  22.827  13.006
14652W        W86378  23.642  21.239   2.880
14653W        W86379   4.226   1.812   3.673
14654W        W86380  37.885  14.719   4.237
14655W        W86381   0.494   3.064   4.553
14656W        W86382   0.135  12.250  12.955
14657W        W86383  13.399  35.498   1.247
14658W        W86384  43.004  24.055  14.526
14659W        W86385  39.959  29.922   2.792
14660W        W86386  10.843   5.074   4.311
14661W        W86387  14.633   1.225  12.929
14662W        W86388  16.643  22.902   0.467
14663W        W86389  22.227  10.442  12.653
14664W        W86390  33.496  39.507   3.557
14665W        W86391   0.527  27.167  14.838
14666W        W86392  13.716  23.692   4.188
14667W        W86393  17.455  40.026  10.194
14668W        W86394   5.319  28.899   2.125
14669W        W86395  43.933  22.748  11.469
14670W        W86396  22.144  24.858  14.547
14671W        W86397  12.284  28.362   1.171
14672W        W86398   8.919  36.498   5.047
14673W        W86399   2.792  35.353  11.182
14674W        W86400   9.376  25.858   5.207
14675W        W86401  38.898  41.048  12.833
14676W        W86402   0.412  32.512   1.921
14677W        W86403  34.787  20.639   2.390
14678W        W86404  27.356   7.687  11.638
14679W        W86405  17.160  23.638   0.546
14680W        W86406   3.313   3.621  14.326
14681W        W86407  41.533  36.449   2.165
14682W        W86408  43.950  25.505   0.021
14683W        W86409  13.607  44.845  13.446
14684W        W86410  32.606   7.648   3.579
14685W        W86411  35.277  17.883   2.783
14686W        W86412  34.386  44.111   2.654
14687W        W86413  41.665  20.725   2.380
14688W        W86414  44.467  19.203  12.367
14689W        W86415  21.339  39.859   4.127
14690W        W86416   5.126  43.380  14.103
14691W        W86417  41.342  41.312  14.986
14692W        W86418   2.806  17.667  11.615
14693W        W86419  15.017  18.554   1.218
14694W        W86420   8.708  29.209   0.009
14695W        W86421  42.703  33.837   0.934
14696W        W86422  10.248  18.432  11.256
14697W        W86423   1.497   5.220   3.160
14698W        W86424  33.196  34.444   1.200
14699W        W86425  43.219  44.377  13.458
14700W        W86426  26.788  36.046   3.724
14701W        W86427  35.040  18.024  13.078
14702W        W86428  41.460  13.096  11.589
14703W        W86429  40.275  31.385   4.126
14704W        W86430  32.123  24.026  11.824
14705W        W86431  32.334  42.354  14.710
14706W        W86432  34.016   9.216  12.685
14707W        W86433   3.041   5.164  12.185
14708W        W86434   2.258   0.298  10.217
14709W        W86435  19.810  38.496  13.084
14710W        W86436   7.315  44.528  11.684
14711W        W86437  42.798  32.635  12.084
14712W        W86438  42.605   6.266   4.923
14713W        W86439  42.748  11.267  12.407
14714W        W86440  43.601  35.340  10.723
14715W        W86441  29.956  37.179   2.848
14716W        W86442  13.637  40.857  14.738
14717W        W86443  28.929  15.253  12.564
14718W        W86444  11.379  30.536  14.409
14719W        W86445  23.416   5.679  13.413
14720W        W86446  12.180  32.169   0.364
14721W        W86447  15.551  44.723  12.116
14722W        W86448   1.283   2.073  14.967
14723W        W86449   2.402  32.110   1.211
14724W        W86450  12.880  36.186   0.963
14725W        W86451  25.110  38.862   1.843
14726W        W86452  31.529  14.993  12.162
14727W        W86453   7.951  19.390  10.451
14728W        W86454   1.030   9.639   0.376
14729W        W86455   7.657  21.729   2.818
14730W        W86456  41.583  42.545  14.460
14731W        W86457  38.920  15.489   1.269
14732W        W86458  16.124  22.949   2.302
14733W        W86459  19.540  16.406  11.382
14734W        W86460  33.808  41.938  13.086
14735W        W86461  23.228  15.026   3.618
14736W        W86462  34.347  26.895   0.361
14737W        W86463   5.470   9.260  14.750
14738W        W86464  15.296  39.952   3.636
14739W        W86465  27.800  26.161   3.262
14740W        W86466  11.745  33.554  13.110
14741W        W86467  19.007  44.667  14.319
14742W        W86468  44.258  31.175   4.062
14743W        W86469  20.546   3.008  12.765
14744W        W86470   9.732   9.755  13.548
14745W        W86471   0.838  16.352   0.203
14746W        W86472  44.472  11.619  13.861
14747W        W86473   5.894  28.217   0.655
14748W        W86474  20.024   4.925  14.532
14749W        W86475  25.910   9.429   0.766
14750W        W86476  31.472  12.986   4.931
14751W        W86477  11.397  43.977  12.191
14752W        W86478   6.154  31.622   4.387
14753W        W86479  11.051  44.469   4.494
14754W        W86480  42.822  26.435   5.091
14755W        W86481  29.396  27.086  12.389
14756W        W86482  10.689  22.200  14.167
14757W        W86483   1.097  34.976  14.329
14758W        W86484  13.641  32.645   2.756
14759W        W86485   1.078  14.476  12.482
14760W        W86486  20.211   6.246  14.772
14761W        W86487   0.834  44.469   3.682
14762W        W86488  44.716  15.699  11.996
14763W        W86489   8.118  19.033   4.082
14764W        W86490   6.708  21.694   3.714
14765W        W86491  18.462  44.250   3.283
14766W        W86492  14.107  39.672   4.994
14767W        W86493  20.552  13.024  12.030
14768W        W86494   9.940  39.266   1.880
14769W        W86495  22.232  11.459   0.002
14770W        W86496  14.829   7.726   3.120
14771W        W86497  17.524  37.938   1.909
14772W        W86498   5.390  16.498   4.007
14773W        W86499  41.442  30.604  11.562
14774W        W86500  29.194  41.388   1.687
14775W        W86501  10.835  27.361   0.889
14776W        W86502   0.230  32.163   4.959
14777W        W86503  22.502   0.676  12.848
14778W        W86504  27.991  44.495   2.805
14779W        W86505  37.709  13.754  11.132
14780W        W86506  11.697  33.406  11.555
14781W        W86507  16.144   4.360  14.036
14782W        W86508  34.635  44.901  12.509
14783W        W86509   9.871  38.907   5.133
14784W        W86510  12.620  16.533  14.456
14785W        W86511  30.948  31.209   3.709
14786W        W86512  19.516  29.422   4.572
14787W        W86513  33.932   5.061  14.913
14788W        W86514  38.578  29.504   2.359
14789W        W86515  32.562   1.358  13.133
14790W        W86516   2.020  39.906   3.662
14791W        W86517  44.614  33.433   3.185
14792W        W86518  40.129   1.905   0.345
14793W        W86519  20.416  35.522   1.505
14794W        W86520  28.084  22.718   2.784
14795W        W86521  32.209  30.698  10.893
14796W        W86522   1.292  38.180  12.984
14797W        W86523  23.009  38.448  14.257
14798W        W86524   8.022  19.069   2.260
14799W        W86525  41.874  44.593   1.182
14800W        W86526  38.003  43.709  14.391
14801W        W86527  12.179  11.789   0.189
14802W        W86528  27.599  31.605   4.703
14803W        W86529  13.259  25.159  11.965
14804W        W86530  15.224  44.243   2.908
14805W        W86531   1.458  40.785  12.217
14806W        W86532  26.862  35.285   0.404
14807W        W86533  35.597  32.083   4.604
14808W        W86534  41.350  31.858  11.165
14809W        W86535  27.436  20.737  11.295
14810W        W86536  10.860  42.994  13.236
14811W        W86537  27.569  31.925   2.412
14812W        W86538  28.477  27.067  14.738
14813W        W86539  27.759   0.785   2.253
14814W        W86540   5.173  12.472  10.255
14815W        W86541  41.793   0.874  11.663
14816W        W86542  29.078  24.617  12.173
14817W        W86543   6.932  10.691  12.387
14818W        W86544  13.971  21.407   2.739
14819W        W86545  36.455  44.523   0.095
14820W        W86546   2.269  12.115  10.464
14821W        W86547  24.125  29.452   3.138
14822W        W86548  13.688   5.858   0.292
14823W        W86549  19.210  29.801   3.625
14824W        W86550  31.383  31.239   2.701
14825W        W86551  16.234  30.939  14.767
14826W        W86552  38.016   6.738   3.298
14827W        W86553   4.391   7.821   2.555
14828W        W86554  40.859  19.098   4.743
14829W        W86555  22.114   8.632  13.975
14830W        W86556  17.213  19.525   2.768
14831W        W86557  16.363  33.068   4.652
14832W        W86558  40.259  32.620  11.869
14833W        W86559  38.070  25.984   3.192
14834W        W86560  20.535  25.295   1.993
14835W        W86561  31.864  21.556  13.979
14836W        W86562  21.380  22.669  10.646
14837W        W86563  30.180  24.593  13.339
14838W        W86564   7.648   7.119  10.043
14839W        W86565  16.770  37.527   2.324
14840W        W86566  41.555  27.186   1.887
14841W        W86567   1.134   6.992  13.086
14842W        W86568   2.297   8.837  12.109
14843W        W86569  23.459  11.177  14.007
14844W        W86570   0.451  42.395  10.729
14845W        W86571  32.729  15.291  14.300
14846W        W86572  19.438  22.626   2.198
14847W        W86573  17.529  31.481  13.970
14848W        W86574  34.816  22.433   2.403
14849W        W86575  15.103  39.965   4.117
14850W        W86576  36.561  19.595  11.126
14851W        W86577  11.328  40.240  10.732
14852W        W86578  28.932  26.858   0.416
14853W        W86579  32.952   5.923  14.561
14854W        W86580  13.345  22.568   0.007
14855W        W86581  44.741  26.465   3.313
14856W        W86582  37.035  25.984  13.478
14857W        W86583  32.152  26.399   2.700
14858W        W86584  19.685  30.280   2.945
14859W        W86585  25.725   0.281   0.301
14860W        W86586  43.383  43.226   3.814
14861W        W86587  26.579   5.647  14.453
14862W        W86588   2.400  18.078  14.886
14863W        W86589  19.589   7.883   4.572
14864W        W86590  12.782  12.832   1.814
14865W        W86591   3.299   8.738  14.472
14866W        W86592  26.257  15.807   0.437
14867W        W86593  44.714   6.488  12.849
14868W        W86594  44.844   9.660   2.718
14869W        W86595  11.963  11.124  14.692
14870W        W86596  22.441  32.494  11.406
14871W        W86597  22.966  13.799  14.766
14872W        W86598  10.629  38.067  11.545
14873W        W86599  39.290  32.478  11.712
14874W        W86600  37.488  12.797  14.422
14875W        W86601  38.491  30.621  12.054
14876W        W86602  18.736   2.704  10.795
14877W        W86603  19.749   1.964   3.693
14878W        W86604  15.686  17.778   1.818
14879W        W86605  41.248   3.563   0.482
14880W        W86606  31.653  28.660  13.369
14881W        W86607  31.259   2.819   3.294
14882W        W86608  28.640  10.078   3.713
14883W        W86609   1.801  39.853  10.779
14884W        W86610   7.906  30.321  10.036
14885W        W86611   4.979  22.699   1.748
14886W        W86612  14.583  27.081  13.844
14887W        W86613  12.139  21.024  12.487
14888W        W86614  14.615  38.979  13.500
14889W        W86615  37.433  31.214   2.795
14890W        W86616  17.550  15.230   2.753
14891W        W86617  19.572  42.538  14.115
14892W        W86618   3.959  39.132   2.848
14893W        W86619  43.767  40.036   1.745
14894W        W86620  29.401  10.075  13.070
14895W        W86621  44.343  37.072  10.699
14896W        W86622  26.463  27.509  12.557
14897W        W86623  28.206  13.158  12.953
14898W        W86624  20.185  16.589  14.061
14899W        W86625  30.786  43.024  10.508
14900W        W86626  43.006  13.571  14.696
14901W        W86627  30.601  20.930   1.788
14902W        W86628  24.013   1.840  14.339
14903W        W86629  26.493  13.359  14.811
14904W        W86630  15.021  29.409  12.651
14905W        W86631  31.749  15.554  14.351
14906W        W86632  23.037  13.242  11.213
14907W        W86633  26.724  41.331   1.528
14908W        W86634  25.242  26.410  14.436
14909W        W86635  19.196  27.690   1.817
14910W        W86636  19.637  36.714  12.049
14911W        W86637  18.752   7.381  13.069
14912W        W86638   6.819  23.556  11.637
14913W        W86639   9.293   3.583   4.221
14914W        W86640  40.114  22.039   4.649
14915W        W86641  24.532  40.354  12.408
14916W        W86642  34.648  23.718  14.619
14917W        W86643   0.138  17.279   3.628
14918W        W86644  29.951  15.632  11.578
14919W        W86645  36.977  44.926  10.532
14920W        W86646  24.228  33.683  12.042
14921W        W86647   1.945  30.212  13.952
14922W        W86648   6.305  42.372   2.424
14923W        W86649  18.565  28.681   0.486
14924W        W86650  29.478  36.672  14.512
14925W        W86651   1.877   7.876   2.667
14926W        W86652  14.187  40.604   5.006
14927W        W86653   5.364  21.378  12.945
14928W        W86654  17.147  28.297  11.399
14929W        W86655  41.613  28.472   5.011
14930W        W86656  13.909  16.538   0.896
14931W        W86657  14.104   3.671   1.972
14932W        W86658  30.503   4.433  14.041
14933W        W86659  28.694  19.209   0.743
14934W        W86660   8.585  15.331   1.710
14935W        W86661   6.952  30.745   3.732
14936W        W86662  42.316  22.201   2.636
14937W        W86663  14.131  37.983  12.808
14938W        W86664  19.762  18.068  14.458
14939W        W86665   8.280   6.161  11.635
14940W        W86666  36.249  29.807   1.295
14941W        W86667  22.525  24.263   1.722
14942W        W86668  42.366   6.941   3.759
14943W        W86669  44.445   8.695   0.884
14944W        W86670  14.760  23.034   2.339
14945W        W86671  41.991  25.546  11.896
14946W        W86672  14.243  22.956   1.360
14947W        W86673  42.098  24.250  12.366
14948W        W86674  11.711   0.831   1.771
14949W        W86675  42.286  28.107  13.117
14950W        W86676  17.734  29.706  10.473
14951W        W86677   8.132  20.773   2.766
14952W        W86678  44.768  10.795   1.265
14953W        W86679  22.496  13.210  13.417
14954W        W86680  31.607  32.462   2.214
14955W        W86681  29.969  32.544   3.580
14956W        W86682  39.297  10.718   3.320
14957W        W86683  30.428   1.974   2.860
14958W        W86684   4.346  19.835  11.448
14959W        W86685   4.647  28.005  14.312
14960W        W86686  17.750   1.872   0.413
14961W        W86687  34.687  22.410   1.506
14962W        W86688   8.047  12.137  11.173
14963W        W86689  42.344   0.145  14.888
14964W        W86690   6.408   4.474  10.508
14965W        W86691  14.129  26.054  14.335
14966W        W86692  44.036  19.224  10.498
14967W        W86693  31.545  11.617   3.721
14968W        W86694  29.408   0.872   3.218
14969W        W86695   2.529   4.434   0.666
14970W        W86696  38.590  26.120  13.964
14971W        W86697  34.787  20.555  14.566
14972W        W86698  30.084   3.913  14.652
14973W        W86699  17.075   1.018   3.340
14974W        W86700  33.926  25.015   2.840
14975W        W86701  42.957  31.003  12.478
14976W        W86702   9.629  29.961   2.654
14977W        W86703  35.889  44.438   1.364
14978W        W86704  12.794  30.334   0.906
14979W        W86705  13.217  35.354  12.456
14980W        W86706  34.426  30.679   0.024
14981W        W86707  38.984  33.742  14.358
14982W        W86708  20.676  25.735  14.446
14983W        W86709  31.248  10.279   0.406
14984W        W86710  31.600  28.880  12.920
14985W        W86711  38.580  14.834  11.037
14986W        W86712  38.485  24.230   1.481
14987W        W86713  32.807  13.112   0.931
14988W        W86714  36.263  24.043   3.634
14989W        W86715   2.955  23.086  11.105
14990W        W86716  20.711  30.072   1.845
14991W        W86717  42.131  35.288   4.180
14992W        W86718  16.820  37.309   0.534
14993W        W86719  27.613  25.536   4.083
14994W        W86720   3.872  34.163  12.679
14995W        W86721  27.070  43.194   1.710
14996W        W86722  21.144  44.931   0.760
14997W        W86723   3.553  35.378  11.689
14998W        W86724   6.343  35.852   0.316
14999W        W86725  31.392  42.295  12.531
15000W        W86726  33.555  19.525   0.906
15001W        W86727  33.634  35.319  11.088
15002W        W86728  27.464   3.774   2.942
15003W        W86729  26.143   7.264   1.788
15004W        W86730   6.707  32.486  10.561
15005W        W86731  33.495   2.478   0.062
15006W        W86732  14.285   6.427  12.117
15007W        W86733   1.585  28.490  12.960
15008W        W86734   3.704  41.437   2.476
15009W        W86735  42.869  13.709  13.297
15010W        W86736  18.824  14.665   0.245
15011W        W86737  22.722   0.300   0.035
15012W        W86738  30.929  13.057  13.756
15013W        W86739  30.026   0.774  14.177
15014W        W86740  34.350  27.606   0.498
15015W        W86741  38.132   4.760  12.471
15016W        W86742   4.255  13.404  12.566
15017W        W86743  35.323  39.761   0.756
15018W        W86744  30.572   5.160  14.782
15019W        W86745  28.299   2.385  13.587
15020W        W86746  28.095  10.704   0.780
15021W        W86747  38.262  19.723   0.277
15022W        W86748   5.762  16.883   0.510
15023W        W86749  27.140  21.738   0.268
15024W        W86750  19.297  13.277  12.500
15025W        W86751  36.300  41.520   4.091
15026W        W86752   3.181  27.460  14.315
15027W        W86753  38.699  38.835  11.786
15028W        W86754  44.779   0.925  10.724
15029W        W86755  10.978  27.479   2.705
15030W        W86756  23.242  34.579  11.657
15031W        W86757  17.866  44.176   3.815
15032W        W86758  31.591  32.073   0.757
15033W        W86759  31.462  44.592  11.487
15034W        W86760   2.835  11.452  13.424
15035W        W86761  31.872  42.069   1.892
15036W        W86762  24.001  34.566  14.911
15037W        W86763  17.266  24.618   0.264
15038W        W86764  37.397  12.889   0.940
15039W        W86765  14.092  29.672  11.159
15040W        W86766  14.901  19.250   2.887
15041W        W86767   8.272  11.814  13.071
15042W        W86768  32.608  38.627  14.375
15043W        W86769  42.020   6.106   1.224
15044W        W86770  38.132   8.536  13.464
15045W        W86771  29.179  10.224  11.137
15046W        W86772  38.822  25.182  11.121
15047W        W86773  39.826  17.678   2.860
15048W        W86774  40.218  35.103   1.383
15049W        W86775  31.734  18.623   1.192
15050W        W86776  33.114  22.104  12.998
15051W        W86777   2.991  40.252   2.606
15052W        W86778  28.525  22.471  11.157
15053W        W86779   9.638  42.434  10.637
15054W        W86780  34.757  25.961   3.146
15055W        W86781  31.143   8.570  14.797
15056W        W86782  29.378   1.210  12.410
15057W        W86783  10.146  43.735   0.816
15058W        W86784  27.999  15.379   0.481
15059W        W86785   1.454   6.662  14.916
15060W        W86786  44.352  41.236  11.380
15061W        W86787  30.446  23.109   4.041
15062W        W86788   2.902   0.660   4.348
15063W        W86789  44.074   1.946  13.872
15064W        W86790  16.719  34.576  14.781
15065W        W86791  18.160  21.336  14.799
15066W        W86792  30.582   8.186   1.962
15067W        W86793  44.013   0.616   4.183
15068W        W86794  28.493   1.848   2.622
15069W        W86795   9.755   6.370  13.996
15070W        W86796  23.122  43.076  14.402
15071W        W86797   4.379  18.777   0.326
15072W        W86798  21.550  38.529  10.598
15073W        W86799  26.950  36.812   1.353
15074W        W86800  18.048  11.542   4.165
15075W        W86801  10.436   7.432   3.764
15076W        W86802  28.060  32.432   2.784
15077W        W86803   2.323   2.174  12.911
15078W        W86804  17.751  28.512   1.106
15079W        W86805   3.193   0.055   0.813
15080W        W86806  20.923  15.805   5.112
15081W        W86807   4.852  28.301  11.946
15082W        W86808   7.196  31.139  12.340
15083W        W86809  41.143  29.952  10.720
15084W        W86810   7.292  44.832  12.107
15085W        W86811  44.247  41.852  10.554
15086W        W86812   1.396  43.853  14.603
15087W        W86813   4.277  25.944  11.929
15088W        W86814  13.383   9.093   1.860
15089W        W86815  40.748  31.376  12.104
15090W        W86816  15.862   6.266   0.155
15091W        W86817  42.843  27.512  13.421
15092W        W86818   6.940  15.396  12.980
15093W        W86819  37.819   9.866  12.945
15094W        W86820  29.617  15.736  14.398
15095W        W86821  40.575  44.822   4.565
15096W        W86822  11.767  19.270  14.156
15097W        W86823  32.359   0.924   1.675
15098W        W86824  37.454  35.033  10.689
15099W        W86825  11.718  26.919  11.111
15100W        W86826  25.235  39.859   1.964
15101W        W86827  13.569  26.478  13.217
15102W        W86828  14.770   0.618  11.133
15103W        W86829   9.793  19.273  11.166
15104W        W86830  38.027  35.787  10.623
15105W        W86831  34.406  24.713  10.440
15106W        W86832  20.018  35.170   1.433
15107W        W86833  44.847  31.645   1.574
15108W        W86834  20.300  24.151   1.290
15109W        W86835  11.244   0.310   4.106
15110W        W86836  24.984  40.012  11.145
15111W        W86837   2.423   4.810   1.485
15112W        W86838  29.455  38.585   2.590
15113W        W86839  40.034  42.757   0.329
15114W        W86840   3.347  13.310  14.995
15115W        W86841  41.207   7.776  12.883
15116W        W86842   5.431  37.156  11.648
15117W        W86843   1.774  35.204  11.054
15118W        W86844   2.444  16.015  10.718
15119W        W86845  16.179  16.501  11.106
15120W        W86846   5.237  24.029   4.464
15121W        W86847  32.001  29.757   1.820
15122W        W86848  19.799  41.053   0.859
15123W        W86849   7.840  29.659  11.096
15124W        W86850  30.253  44.545  11.928
15125W        W86851  24.646  17.741  14.853
15126W        W86852  13.018  33.912   2.321
15127W        W86853  29.310  11.906  10.738
15128W        W86854   2.930   3.727  12.051
15129W        W86855  15.820   4.404   1.826
15130W        W86856  17.352   3.856  10.907
15131W        W86857  25.937  32.406  12.957
15132W        W86858  27.455  20.814   0.112
15133W        W86859  30.128  36.000   3.188
15134W        W86860  18.297   8.873  11.620
15135W        W86861  27.738  10.828   4.886
15136W        W86862  22.091  41.519  11.110
15137W        W86863   4.176  38.909   3.580
15138W        W86864  20.382  11.831   0.334
15139W        W86865  43.417   8.911  11.439
15140W        W86866   9.956  10.392   4.992
15141W        W86867  29.161   0.240  14.488
15142W        W86868  40.998  39.718  13.051
15143W        W86869  29.830  17.494   1.866
15144W        W86870  30.438  18.606   0.709
15145W        W86871  43.874  16.074  12.429
15146W        W86872  38.925  22.276   0.755
15147W        W86873   5.118  44.034   3.081
15148W        W86874  27.019   4.424  11.040
15149W        W86875  30.908  28.577  13.844
15150W        W86876  19.450  16.764  11.924
15151W        W86877  21.256  28.914   3.945
15152W        W86878  39.478  40.068  12.671
15153W        W86879  31.049  43.358   2.426
15154W        W86880  11.990   0.190  11.218
15155W        W86881   3.854  19.951  11.622
15156W        W86882  27.648  21.449   1.421
15157W        W86883  19.270  27.572  11.797
15158W        W86884  27.147  19.808  14.431
15159W        W86885  27.590   6.133   0.293
15160W        W86886  16.734  42.503   1.159
15161W        W86887   6.882  43.934  14.240
15162W        W86888   0.199  40.836   3.686
15163W        W86889  44.814  36.809  14.334
15164W        W86890  26.131  23.400   1.739
15165W        W86891  11.473  26.634   3.659
15166W        W86892  42.866   4.892   5.035
15167W        W86893  23.003   6.130  11.117
15168W        W86894  10.162   8.625   4.528
15169W        W86895  41.627  43.944   4.499
15170W        W86896   2.840  15.126  12.560
15171W        W86897  39.958  27.250  10.771
15172W        W86898  34.063  16.678  13.724
15173W        W86899  25.536  33.102  14.893
15174W        W86900  15.786  22.622   1.401
15175W        W86901   2.279  20.858  13.023
15176W        W86902  39.061  12.031  10.977
15177W        W86903  19.328  16.247  12.910
15178W        W86904   5.728  14.617   2.679
15179W        W86905  26.335  24.694   4.801
15180W        W86906   2.265  17.657  12.964
15181W        W86907  39.926   3.423   0.506
15182W        W86908   8.930  42.372  14.792
15183W        W86909  24.733   0.080   4.565
15184W        W86910   2.322   1.101  12.584
15185W        W86911  18.676  27.356   3.071
15186W        W86912  17.665  44.073   4.763
15187W        W86913   6.161   2.003  10.570
15188W        W86914  12.820  37.562   0.993
15189W        W86915  36.771  41.322   4.095
15190W        W86916  22.970  28.100  10.521
15191W        W86917  14.679  22.574   3.244
15192W        W86918  11.332  44.378   1.935
15193W        W86919   0.262   6.004  13.522
15194W        W86920  44.830  19.794   2.032
15195W        W86921   1.784  10.464  11.568
15196W        W86922  36.006  10.366   3.286
15197W        W86923  27.732  34.740   4.077
15198W        W86924  11.505  36.645  14.877
15199W        W86925  32.194   8.753  11.208
15200W        W86926  40.398  24.121  12.542
15201W        W86927   2.657  30.168  12.545
15202W        W86928  39.129  30.936   9.812
15203W        W86929  38.183  13.954  13.519
15204W        W86930  44.446  17.009   4.150
15205W        W86931  31.077  14.652   4.249
15206W        W86932  17.077  24.963   1.786
15207W        W86933   3.454  44.201   0.626
15208W        W86934   5.081   4.505   2.650
15209W        W86935  17.106   2.837   3.489
15210W        W86936  22.000  28.145   3.158
15211W        W86937  14.821  26.635   2.994
15212W        W86938  28.029  14.201  14.684
15213W        W86939  39.547  12.046   2.753
15214W        W86940   0.539  24.664  14.896
15215W        W86941  14.046  15.197  10.544
15216W        W86942  40.347  44.526   2.768
15217W        W86943  22.811   7.046  14.420
15218W        W86944  39.575  12.833   2.798
15219W        W86945  27.537  11.566   0.282
15220W        W86946  28.740  10.195   0.388
15221W        W86947  37.974  23.058   0.210
15222W        W86948  41.556  44.128  10.410
15223W        W86949  34.556  12.539  11.612
15224W        W86950  14.306   7.544   1.424
15225W        W86951  16.256  38.158   3.713
15226W        W86952   0.500  35.045   2.768
15227W        W86953  21.511  37.100   9.986
15228W        W86954   6.125  26.016   2.356
15229W        W86955  28.443  22.334   0.493
15230W        W86956  43.021   1.333  12.755
15231W        W86957   3.614  13.696   0.874
15232W        W86958  15.144  30.094   3.082
15233W        W86959   5.443   2.341  11.054
15234W        W86960  32.433   1.647   2.871
15235W        W86961  32.912   7.334  11.035
15236W        W86962   8.672  17.626   3.411
15237W        W86963   6.699  20.581   2.158
15238W        W86964  24.418  16.264  13.051
15239W        W86965  10.157  10.544   4.536
15240W        W86966   3.855  36.137   3.236
15241W        W86967  28.768  15.997  11.060
15242W        W86968  18.514  17.746  13.456
15243W        W86969  31.850  11.172   3.663
15244W        W86970  29.690  21.759  14.010
15245W        W86971  34.413  20.240  14.782
15246W        W86972  12.255  12.533  13.508
15247W        W86973   9.240  20.315  10.698
15248W        W86974  12.193  16.140   1.421
15249W        W86975  26.350  38.873   4.491
15250W        W86976  12.129  38.792   3.712
15251W        W86977   7.265  18.295   4.548
15252W        W86978  37.586  38.139  10.665
15253W        W86979  44.292  18.972   1.433
15254W        W86980  33.501  27.626  10.273
15255W        W86981  13.551  11.920  14.949
15256W        W86982   5.861  35.021   1.206
15257W        W86983  13.031  37.244  10.837
15258W        W86984  37.507  40.418   0.662
15259W        W86985  30.470   0.273  11.409
15260W        W86986  35.477  21.018  10.695
15261W        W86987  29.973  26.907   4.137
15262W        W86988   0.897  18.909  14.214
15263W        W86989  33.366   0.389   2.722
15264W        W86990  38.371   3.956   0.620
15265W        W86991  37.646   0.779  14.855
15266W        W86992   0.408  40.888   4.159
15267W        W86993  44.318  39.117  10.698
15268W        W86994  29.602   4.984   3.390
15269W        W86995  24.128  42.268   1.257
15270W        W86996  24.542  30.122  13.285
15271W        W86997  37.031  43.596   4.437
15272W        W86998  11.897  28.232   0.872
15273W        W86999  44.897   1.345  12.563
15274W        W87000  15.303  39.523  14.850
15275W        W87001   8.516  17.115   5.002
15276W        W87002  11.881  42.428  11.547
15277W        W87003  43.988  23.198   2.273
15278W        W87004  33.484  10.289   1.921
15279W        W87005   6.365  12.748   0.266
15280W        W87006  10.891  34.815  11.512
15281W        W87007  27.177  41.878  14.953
15282W        W87008  43.934  35.138  14.404
15283W        W87009   2.138  34.489  13.103
15284W        W87010  42.505   7.246   0.988
15285W        W87011  18.192   5.325   2.798
15286W        W87012   4.858  15.398   4.524
15287W        W87013  13.108  31.345   4.540
15288W        W87014  41.925  27.456   3.714
15289W        W87015  21.627  32.067   1.081
15290W        W87016   1.234  44.415  12.592
15291W        W87017  11.384   5.822   1.815
15292W        W87018   5.018  21.245  11.439
15293W        W87019   9.166  33.093   1.494
15294W        W87020  41.006  40.302  12.497
15295W        W87021   1.002   6.943  14.970
15296W        W87022  40.424   2.159  12.406
15297W        W87023   4.377  10.710   0.511
15298W        W87024  42.528  15.101  13.839
15299W        W87025  19.508  27.084  11.534
15300W        W87026  18.829  43.090   0.433
15301W        W87027  39.333   6.350   3.748
15302W        W87028  31.662   5.828  14.245
15303W        W87029  10.775  34.663   4.706
15304W        W87030  44.488  15.034   1.877
15305W        W87031  44.205  25.130  14.771
15306W        W87032  34.029   9.735  12.846
15307W        W87033  32.516  20.395   3.287
15308W        W87034  22.153   4.468   3.259
15309W        W87035  38.383   8.544   4.670
15310W        W87036  20.488  26.553   0.425
15311W        W87037  15.819  37.180  13.053
15312W        W87038  42.993  21.680   2.312
15313W        W87039   7.764   3.778   1.435
15314W        W87040  30.468  17.803   4.164
15315W        W87041  31.856  20.362  11.602
15316W        W87042  29.924  13.622  13.485
15317W        W87043  27.412   3.246  14.314
15318W        W87044  44.251  35.018   1.487
15319W        W87045   8.683   7.677   1.944
15320W        W87046  26.264  21.003   3.573
15321W        W87047  31.478  15.113  11.013
15322W        W87048  36.772  37.404  14.265
15323W        W87049  24.028  20.029  11.952
15324W        W87050   8.930  34.292   1.127
15325W        W87051  25.474  36.113   3.074
15326W        W87052  14.151  15.130  11.481
15327W        W87053  26.472  26.142   3.650
15328W        W87054  19.421   9.105  14.629
15329W        W87055  41.638  25.534   4.720
15330W        W87056  19.215  39.672   3.490
15331W        W87057   1.971   0.938   0.881
15332W        W87058  29.359  40.434   1.261
15333W        W87059  43.290  32.218  10.991
15334W        W87060  15.352  11.382  13.307
15335W        W87061   0.129  19.565   2.761
15336W        W87062  29.930   7.222  13.756
15337W        W87063  29.183  14.591  11.134
15338W        W87064  31.187   7.575  11.068
15339W        W87065  20.269  13.858   1.203
15340W        W87066  23.550  15.307  14.364
15341W        W87067  31.424  41.683  14.459
15342W        W87068  43.789   5.845   3.084
15343W        W87069  44.492   4.655   0.168
15344W        W87070  32.701  13.906   0.326
15345W        W87071  13.826   9.382   1.215
15346W        W87072  31.117  33.956   1.776
15347W        W87073  31.494  11.467   4.597
15348W        W87074   4.459  44.697   3.805
15349W        W87075   7.735  20.938  12.601
15350W        W87076  42.930  38.300   1.958
15351W        W87077   0.923  23.623   0.520
15352W        W87078  43.697  31.477  11.146
15353W        W87079  30.999   3.763   0.160
15354W        W87080  21.497   9.705  11.168
15355W        W87081  35.385  32.374   2.665
15356W        W87082   0.525  22.025  12.225
15357W        W87083  40.404  36.916   4.641
15358W        W87084   3.359   6.840  14.449
15359W        W87085   0.014  42.010   1.480
15360W        W87086  19.794  29.732   0.046
15361W        W87087  42.036  42.572  12.366
15362W        W87088  32.989   6.695   2.407
15363W        W87089   5.905  15.292   3.179
15364W        W87090   7.397   2.863   1.400
15365W        W87091  21.779   8.975  13.124
15366W        W87092  18.171  12.193   2.154
15367W        W87093  43.981   5.962   2.142
15368W        W87094  17.628  24.039   0.859
15369W        W87095  10.655  30.160   4.611
15370W        W87096   2.469  14.144   4.587
15371W        W87097  43.552  10.094   4.189
15372W        W87098  16.745  32.388   1.207
15373W        W87099  28.342   2.780  12.425
15374W        W87100  42.829  36.006   1.699
15375W        W87101  24.621  39.693   1.932
15376W        W87102  27.688   8.594  12.725
15377W        W87103  25.420  17.984  12.110
15378W        W87104  26.492   2.429  12.477
15379W        W87105  34.760  13.212  14.761
15380W        W87106   6.335  10.263   2.907
15381W        W87107  26.987  38.800  13.984
15382W        W87108  35.074  35.471   2.311
15383W        W87109   6.985  41.901  12.563
15384W        W87110  32.183   3.301   0.007
15385W        W87111   1.170  21.366  11.691
15386W        W87112  36.498  23.089   4.271
15387W        W87113  40.032  30.220  11.189
15388W        W87114  23.941   7.559  12.490
15389W        W87115  18.140  27.072   2.961
15390W        W87116  30.005  37.549   3.711
15391W        W87117  31.961  24.984  12.835
15392W        W87118  16.795  24.138  12.906
15393W        W87119  24.829   8.253  12.617
15394W        W87120  39.545  11.053  14.727
15395W        W87121  21.424  13.597  13.030
15396W        W87122  40.155  16.017   3.197
15397W        W87123   8.399  17.723  10.964
15398W        W87124  29.371  25.208   1.238
15399W        W87125  27.731  29.074  14.409
15400W        W87126  15.839   7.820  14.781
15401W        W87127   7.653  23.473   1.261
15402W        W87128  18.219  41.746  13.913
15403W        W87129  33.359  41.230  14.362
15404W        W87130  28.415  41.407   2.712
15405W        W87131   9.162  12.887   4.268
15406W        W87132  16.082  35.058   4.576
15407W        W87133  25.516  14.412  14.425
15408W        W87134  35.050  43.463  11.687
15409W        W87135  43.464  16.276  14.045
15410W        W87136   4.471  13.654   1.874
15411W        W87137  25.513  26.195  11.808
15412W        W87138  21.379   2.727  12.589
15413W        W87139  15.836  35.495   4.670
15414W        W87140  20.132  40.182   3.786
15415W        W87141  31.097  33.795  10.301
15416W        W87142  44.801  34.296  10.741
15417W        W87143  32.970  31.108  13.018
15418W        W87144  36.622   0.247  12.568
15419W        W87145  41.418  19.646   0.375
15420W        W87146   9.091   3.840   0.213
15421W        W87147  26.673  18.080  14.468
15422W        W87148  27.230  14.288   1.391
15423W        W87149  33.295  17.619  12.997
15424W        W87150  12.918   4.379  14.113
15425W        W87151  21.770  22.298   4.548
15426W        W87152   5.855  19.533  14.393
15427W        W87153  41.275  40.764  12.535
15428W        W87154   9.327  32.498   3.796
15429W        W87155  39.869  12.763  12.861
15430W        W87156  11.661  30.732  12.580
15431W        W87157  10.284   8.344  14.859
15432W        W87158  21.740  13.526   4.117
15433W        W87159  28.101  42.244   1.800
15434W        W87160  22.721  33.100  12.654
15435W        W87161  11.092  17.345  14.130
15436W        W87162   9.952  26.047  11.843
15437W        W87163  20.528  12.120  14.900
15438W        W87164  22.994  39.330  11.492
15439W        W87165  36.377  38.727   2.237
15440W        W87166  24.192  35.521  11.986
15441W        W87167  15.072  34.010  12.289
15442W        W87168   7.195  35.025  13.916
15443W        W87169   6.321  13.675   0.658
15444W        W87170   7.152  41.522  10.939
15445W        W87171  18.559  23.298  10.669
15446W        W87172   6.759  34.442   3.383
15447W        W87173   3.724  20.985  14.584
15448W        W87174   2.982  16.784  11.619
15449W        W87175   7.459  19.326  12.552
15450W        W87176  11.094  27.334   4.079
15451W        W87177  40.443  31.870   3.688
15452W        W87178  11.804  17.388  14.012
15453W        W87179  33.639  28.147   3.036
15454W        W87180  33.861  28.894  12.514
15455W        W87181  11.144   4.227  14.351
15456W        W87182  36.843  24.604  11.920
15457W        W87183  40.756  24.976   2.720
15458W        W87184  42.350  42.645  10.652
15459W        W87185  33.998  21.904  10.702
15460W        W87186  28.639  41.821   2.942
15461W        W87187  10.360  42.608   9.935
15462W        W87188   9.364  33.109   5.415
15463W        W87189  35.642  34.622  11.968
15464W        W87190   9.843   4.935   1.702
15465W        W87191  23.843  31.780  11.988
15466W        W87192  10.656  26.690  12.410
15467W        W87193  39.295  15.222   0.422
15468W        W87194  23.577  10.690  14.946
15469W        W87195  25.530  18.483  12.162
15470W        W87196  19.872  27.986   1.932
15471W        W87197  16.333   0.846   0.948
15472W        W87198  34.862  18.087  14.832
15473W        W87199  18.086   6.030   1.727
15474W        W87200  26.235  11.889  11.357
15475W        W87201  16.139   2.515   3.794
15476W        W87202  34.007  38.825   3.638
15477W        W87203  39.325  24.228   4.568
15478W        W87204  29.622  32.523   2.374
15479W        W87205  17.683  22.627   1.809
15480W        W87206   1.917   5.785  13.580
15481W        W87207   5.727  35.463   2.199
15482W        W87208  17.171  31.660   4.688
15483W        W87209  37.154   7.897  13.892
15484W        W87210  42.000   0.852   1.488
15485W        W87211   7.323  17.162  10.322
15486W        W87212  20.157   0.856  11.818
15487W        W87213  21.104  19.791  14.814
15488W        W87214   5.468  29.491  11.590
15489W        W87215  29.091  31.849  11.069
15490W        W87216  12.341  19.189  15.000
15491W        W87217   0.912  18.382  12.101
15492W        W87218  18.551   4.904  14.535
15493W        W87219   5.364  19.665   4.667
15494W        W87220   5.850  11.219   2.713
15495W        W87221  15.564  42.964   1.139
15496W        W87222  30.940  11.751  13.295
15497W        W87223  26.219  32.075   0.870
15498W        W87224  21.783  23.596  10.467
15499W        W87225  34.898  30.989  12.960
15500W        W87226  17.457  12.746   4.557
15501W        W87227  11.500  25.483   2.883
15502W        W87228  23.457  23.637  10.719
15503W        W87229   4.990   9.104  11.898
15504W        W87230  33.724  34.183  12.193
15505W        W87231  41.503  24.054   0.780
15506W        W87232  28.852   8.960   2.231
15507W        W87233  17.082  17.610   0.594
15508W        W87234  21.771  16.056  11.422
15509W        W87235  24.526  27.326  14.302
15510W        W87236  20.367  37.357   1.755
15511W        W87237  37.643  21.202   2.273
15512W        W87238  26.234  42.824  11.604
15513W        W87239  39.240   8.987   2.952
15514W        W87240  15.130   5.457  13.649
15515W        W87241  41.770  21.616  11.013
15516W        W87242  29.630  39.724  14.147
15517W        W87243  32.427  39.674  14.285
15518W        W87244  41.509  31.166   4.744
15519W        W87245   9.278  23.042  14.831
15520W        W87246  34.599  19.534   1.825
15521W        W87247  41.957  30.084   3.747
15522W        W87248   6.555  35.871  10.734
15523W        W87249   2.337  37.300  13.528
15524W        W87250  24.540   7.131   2.238
15525W        W87251  26.519  33.673   1.431
15526W        W87252  42.407  41.795   3.566
15527W        W87253  12.147  30.677   2.740
15528W        W87254  15.996  40.715   9.816
15529W        W87255  24.301   7.777  14.374
15530W        W87256  28.070  29.566   4.027
15531W        W87257  23.405  14.587  14.601
15532W        W87258   5.533  40.309   0.821
15533W        W87259  25.015  38.588  13.519
15534W        W87260  28.688  29.679  11.996
15535W        W87261  28.690  19.792   4.113
15536W        W87262   9.951  11.238  10.960
15537W        W87263  44.015   3.750   1.977
15538W        W87264  13.986  29.503  12.511
15539W        W87265  14.468  13.183   1.405
15540W        W87266  39.114  31.085  10.566
15541W        W87267  11.147  28.083  13.614
15542W        W87268   1.442  12.044   2.247
15543W        W87269  39.674  20.810  11.113
15544W        W87270  18.768  34.948   0.078
15545W        W87271  27.051  25.088   1.550
15546W        W87272  44.269   8.963   0.417
15547W        W87273   5.632  36.877  13.538
15548W        W87274  28.004  16.138  14.877
15549W        W87275   0.105  10.582  12.081
15550W        W87276   1.531  20.225   0.779
15551W        W87277  31.054  40.038   4.560
15552W        W87278  37.283  37.261  14.292
15553W        W87279   9.706  41.193  14.305
15554W        W87280   6.388  42.351  12.162
15555W        W87281  10.667  13.705  13.416
15556W        W87282  35.072  22.690   4.510
15557W        W87283   3.192  18.305  10.619
15558W        W87284  24.574   9.640   0.756
15559W        W87285  30.996  14.137   1.827
15560W        W87286  10.069  38.084   2.307
15561W        W87287  44.900   9.884  12.556
15562W        W87288  42.460  24.292   4.346
15563W        W87289  20.552   7.976   3.116
15564W        W87290  21.564  25.357  11.074
15565W        W87291  38.845  34.931   0.054
15566W        W87292  42.358   6.795   1.971
15567W        W87293  32.142   3.754  13.592
15568W        W87294   6.370  15.668  14.486
15569W        W87295  17.469  23.026   0.819
15570W        W87296   4.650  22.615   3.161
15571W        W87297  27.455  38.420  14.362
15572W        W87298  20.708   2.416   0.237
15573W        W87299  36.549  24.010   4.085
15574W        W87300   3.696  23.707  11.198
15575W        W87301  29.012  14.480  13.989
15576W        W87302  17.638  11.642   1.866
15577W        W87303  19.708   7.908   2.371
15578W        W87304   1.179  21.176  12.950
15579W        W87305  10.033  21.623   0.275
15580W        W87306  33.809  38.285  11.101
15581W        W87307  10.639   1.866   4.522
15582W        W87308  38.003   1.002  10.677
15583W        W87309  12.939  35.709   3.079
15584W        W87310  44.937   4.818  14.876
15585W        W87311  19.622  42.894  12.060
15586W        W87312  14.351  11.279  13.525
15587W        W87313  37.331  16.074  11.964
15588W        W87314   8.239   4.197   1.799
15589W        W87315  36.752  10.293   0.560
15590W        W87316  30.893  30.429  10.336
15591W        W87317  10.329   3.708  14.502
15592W        W87318  33.587  34.560  11.879
15593W        W87319   8.109  11.811  14.278
15594W        W87320  39.272  26.078   3.592
15595W        W87321  19.189  38.945  11.964
15596W        W87322   6.864  38.203  10.995
15597W        W87323   9.647   3.269  12.458
15598W        W87324  30.550  22.264  14.839
15599W        W87325  21.120  27.515   1.842
15600W        W87326  37.700  34.074  10.988
15601W        W87327  26.686  27.548   2.622
15602W        W87328   0.113  41.777  13.278
15603W        W87329  17.891  42.611  12.583
15604W        W87330  12.397  28.992  12.179
15605W        W87331  25.424   2.607   4.844
15606W        W87332  20.985  23.511   3.584
15607W        W87333   8.651  22.676   3.915
15608W        W87334  37.240   4.405  11.086
15609W        W87335   5.200  43.310   4.639
15610W        W87336  21.403   1.106   2.182
15611W        W87337  32.162  22.482  11.228
15612W        W87338  34.472  17.611   1.827
15613W        W87339   0.300  14.028  14.032
15614W        W87340   1.227  22.068   3.314
15615W        W87341  42.988  22.136   0.413
15616W        W87342  31.323  14.048  12.074
15617W        W87343  24.290  23.913  12.918
15618W        W87344  14.199  24.160   2.481
15619W        W87345  18.010  39.822  13.787
15620W        W87346  37.287  39.930  11.938
15621W        W87347  34.127  29.501  13.772
15622W        W87348  26.625  16.310   0.842
15623W        W87349  37.094  44.776   1.770
15624W        W87350  39.872   9.770  11.577
15625W        W87351  21.173  42.908  12.577
15626W        W87352  13.685  36.836   2.747
15627W        W87353  40.656  35.516   2.647
15628W        W87354  17.601  40.754  11.546
15629W        W87355   9.634  42.411   1.090
15630W        W87356  27.501   3.963  13.511
15631W        W87357  39.039  18.851  11.506
15632W        W87358  27.864  33.454  11.048
15633W        W87359  27.598   1.294   1.477
15634W        W87360  41.189  17.828   4.186
15635W        W87361   6.489  27.812  13.410
15636W        W87362   9.804  42.204  14.057
15637W        W87363  44.669  39.537  14.958
15638W        W87364  15.672  22.061  12.091
15639W        W87365  35.064  29.621  10.504
15640W        W87366  26.106  30.655  14.297
15641W        W87367  37.814  11.702   2.289
15642W        W87368   3.432  43.878   3.797
15643W        W87369   3.774  14.191  14.018
15644W        W87370  20.056  11.893  14.935
15645W        W87371  39.535  17.075   3.726
15646W        W87372   4.316   0.927   0.602
15647W        W87373  41.110  13.435  13.014
15648W        W87374  21.770  40.398   0.351
15649W        W87375   2.216  15.927  14.575
15650W        W87376  24.016  39.951   0.055
15651W        W87377   3.474   0.459   3.202
15652W        W87378  28.404  28.956  10.684
15653W        W87379  13.704  26.719  13.926
15654W        W87380  44.293  12.579   0.997
15655W        W87381  12.171   9.713  13.029
15656W        W87382   8.291  25.220   4.569
15657W        W87383  29.630  44.314   0.374
15658W        W87384  36.483  21.687   0.242
15659W        W87385  42.353  38.794   1.397
15660W        W87386   4.811  26.138   0.302
15661W        W87387  40.381  15.700   9.914
15662W        W87388  35.774  17.629  11.545
15663W        W87389   5.196  42.263   4.593
15664W        W87390  37.782   1.908  14.285
15665W        W87391  17.374  34.142   0.451
15666W        W87392  14.399  29.200   4.823
15667W        W87393  13.364   9.894   4.155
15668W        W87394  39.761  40.734  14.816
15669W        W87395   4.234   6.918   0.280
15670W        W87396  21.761  22.465   0.863
15671W        W87397  37.136  36.359  13.456
15672W        W87398  19.262  13.650  11.601
15673W        W87399  26.109  44.550   3.536
15674W        W87400  39.535  34.438   1.449
15675W        W87401  30.487   8.187   2.781
15676W        W87402  17.214  25.526   4.123
15677W        W87403  35.068   4.506  14.249
15678W        W87404  38.944   7.337  10.694
15679W        W87405  24.274  11.843  11.104
15680W        W87406  13.400  11.444   1.236
15681W        W87407  26.677  34.165  13.938
15682W        W87408   3.714  31.845  13.314
15683W        W87409  28.217  18.187  12.175
15684W        W87410   5.187  33.689   2.835
15685W        W87411   8.579   6.371  14.644
15686W        W87412  36.858  15.870   2.134
15687W        W87413  35.376  11.990   2.995
15688W        W87414  26.018  21.842  14.407
15689W        W87415  27.751   6.755  13.760
15690W        W87416  39.952  28.606   3.306
15691W        W87417  21.610  11.839  12.872
15692W        W87418  39.075  21.782  14.339
15693W        W87419  35.091  34.666  13.966
15694W        W87420  22.679   6.575  11.277
15695W        W87421   4.665  20.163   2.760
15696W        W87422  29.665  25.730  12.009
15697W        W87423  42.406   8.896   0.367
15698W        W87424  28.659  40.990   4.692
15699W        W87425  41.849  30.629  11.874
15700W        W87426   7.839  34.261   2.688
15701W        W87427  27.650   2.430  12.121
15702W        W87428  14.239  24.090   5.203
15703W        W87429   9.819  40.935   4.892
15704W        W87430  42.064  19.419   2.178
15705W        W87431  43.202  18.830   0.253
15706W        W87432  19.793   1.822  11.724
15707W        W87433  31.523   0.197   1.436
15708W        W87434  29.398  18.316  11.942
15709W        W87435  31.972  23.725  11.438
15710W        W87436  29.012   5.169   3.294
15711W        W87437  22.839  41.868  12.040
15712W        W87438  12.137   2.438   3.826
15713W        W87439   9.290  18.690  11.578
15714W        W87440   2.204  42.075   1.712
15715W        W87441  36.152  19.987   0.334
15716W        W87442  33.828   6.761  13.865
15717W        W87443   9.941   6.348  13.064
15718W        W87444  40.353   8.343   2.910
15719W        W87445   6.324  13.552   3.187
15720W        W87446  36.217  37.673   1.258
15721W        W87447  14.755  27.532   0.831
15722W        W87448  35.589  34.370  11.517
15723W        W87449  32.721  39.723  13.858
15724W        W87450  39.325  18.759  11.953
15725W        W87451   0.657  16.962  14.475
15726W        W87452  17.344  28.105   3.671
15727W        W87453  34.608   3.425   4.581
15728W        W87454  20.272  43.566  14.813
15729W        W87455  24.697   6.858   4.604
15730W        W87456   1.805  26.635  14.240
15731W        W87457  13.748  42.851   5.176
15732W        W87458  32.106  33.698  11.844
15733W        W87459   1.841   8.470  11.073
15734W        W87460  26.737  27.889   3.628
15735W        W87461   7.440   6.691   4.570
15736W        W87462  29.370   0.213  12.583
15737W        W87463  13.686  21.167  14.372
15738W        W87464  23.519  44.238   0.780
15739W        W87465  36.484   9.634   0.006
15740W        W87466  13.175  39.028   2.785
15741W        W87467  15.476  23.897   1.275
15742W        W87468  28.858  27.517  13.016
15743W        W87469  18.365   9.177   3.344
15744W        W87470  11.576  40.754  14.557
15745W        W87471  43.064  12.364   0.216
15746W        W87472  42.899  11.225   4.217
15747W        W87473  12.718  24.011   2.878
15748W        W87474   3.438  32.675  11.976
15749W        W87475  14.053  24.664   2.223
15750W        W87476   9.149  44.458  14.441
15751W        W87477  15.538  41.655  11.978
15752W        W87478  38.354   9.002  11.092
15753W        W87479  43.972  19.375   2.414
15754W        W87480  12.430   3.648   1.744
15755W        W87481  19.123  19.706  13.743
15756W        W87482  37.418  21.317   2.734
15757W        W87483  17.335  41.519  10.696
15758W        W87484   3.740   3.287   1.603
15759W        W87485  36.941  44.666   4.595
15760W        W87486  34.675  24.104  13.348
15761W        W87487  17.322  10.363   0.216
15762W        W87488  12.661   6.621  13.952
15763W        W87489  15.134  40.387   3.350
15764W        W87490  32.135  42.214  11.909
15765W        W87491  44.183   0.866  11.534
15766W        W87492  24.809  15.156  14.373
15767W        W87493  15.584  41.477  14.807
15768W        W87494  11.270  14.250   3.151
15769W        W87495  21.755   1.972  13.424
15770W        W87496  41.232  28.328  14.385
15771W        W87497  25.476  22.584   1.941
15772W        W87498  31.587  33.874  11.066
15773W        W87499  26.430  12.306   2.796
15774W        W87500  20.680  24.527   1.224
15775W        W87501  21.580  17.327  12.403
15776W        W87502  29.109  28.181  12.419
15777W        W87503  23.186   0.180  11.489
15778W        W87504  10.063   7.079  11.933
15779W        W87505  38.345  37.090  14.929
15780W        W87506  18.518   8.789  12.082
15781W        W87507  14.188  25.998   0.364
15782W        W87508  21.069  23.974  14.900
15783W        W87509  28.526  25.566  12.026
15784W        W87510  13.273  36.349   0.659
15785W        W87511  25.957  24.943  12.036
15786W        W87512   4.390   3.375   5.332
15787W        W87513  20.095  19.568  13.030
15788W        W87514  33.042  22.743  11.011
15789W        W87515   1.163   7.206  10.825
15790W        W87516  10.076  32.400  12.364
15791W        W87517  41.358  18.697   0.673
15792W        W87518  32.826  29.990  14.417
15793W        W87519  33.643   1.753  11.463
15794W        W87520  11.407  12.801   0.812
15795W        W87521  21.221  23.622   0.224
15796W        W87522  20.458  23.743  14.044
15797W        W87523  12.399  13.819   1.819
15798W        W87524  43.349  37.164  13.774
15799W        W87525  22.524  35.957   3.656
15800W        W87526  44.373  34.283   0.221
15801W        W87527  18.314   3.894   2.748
15802W        W87528   7.061   5.110  12.803
15803W        W87529  23.932  13.142   0.336
15804W        W87530  20.455  20.210   4.176
15805W        W87531   1.781   0.447  13.383
15806W        W87532  41.947  12.979  14.287
15807W        W87533  28.315  11.818  10.717
15808W        W87534  41.046  13.781   3.789
15809W        W87535  21.391  12.099  13.726
15810W        W87536   6.348  29.600  10.227
15811W        W87537  20.559   2.784  10.494
15812W        W87538   8.206  37.278   2.814
15813W        W87539  22.373  15.787  13.852
15814W        W87540  44.442   4.966  11.617
15815W        W87541   1.237  37.547   4.100
15816W        W87542  16.619  37.830  11.646
15817W        W87543   0.447   3.562  14.826
15818W        W87544  13.854  23.914   0.036
15819W        W87545  12.563  28.680  13.937
15820W        W87546  12.823  18.555  13.811
15821W        W87547   1.176  35.239   4.850
15822W        W87548  30.658  24.379   4.216
15823W        W87549   0.084  40.458   4.148
15824W        W87550  41.017  40.025   1.297
15825W        W87551  32.506  18.751   4.301
15826W        W87552  25.784   0.540  11.053
15827W        W87553  28.543  12.046  13.418
15828W        W87554   2.924  32.648   0.123
15829W        W87555  28.555  26.311  11.500
15830W        W87556   2.478  43.196   2.966
15831W        W87557  26.474   4.387   3.565
15832W        W87558  19.576  44.018   0.742
15833W        W87559  26.472  17.019  14.511
15834W        W87560  34.499   7.359  14.869
15835W        W87561  39.701   7.952  13.008
15836W        W87562  23.956   7.658   1.780
15837W        W87563  17.184  19.830  12.505
15838W        W87564   4.859   6.905  14.279
15839W        W87565  27.334   4.390   3.713
15840W        W87566  13.330  21.965  11.392
15841W        W87567   6.385  44.354  13.795
15842W        W87568  39.775  27.108  12.371
15843W        W87569  43.568  30.572  11.596
15844W        W87570   3.448   4.753   4.692
15845W        W87571  25.985  22.195  14.021
15846W        W87572  26.822  41.775  13.969
15847W        W87573  33.621  41.469   5.040
15848W        W87574  15.413  12.856  14.822
15849W        W87575  35.345  28.496   3.883
15850W        W87576  28.868  28.292  11.195
15851W        W87577  37.114  15.569  10.695
15852W        W87578  10.676  38.486   4.135
15853W        W87579  17.219   4.877  12.541
15854W        W87580   1.858  25.028   1.856
15855W        W87581  23.258  30.084  10.662
15856W        W87582  18.340  28.191  12.694
15857W        W87583  39.459  14.557   2.419
15858W        W87584  43.795  34.895   1.241
15859W        W87585  26.191  44.333  10.914
15860W        W87586  44.305  11.038  11.988
15861W        W87587  34.943  32.527  10.693
15862W        W87588  41.460  43.799  11.358
15863W        W87589  21.995  25.041   3.777
15864W        W87590   5.924   3.760  10.071
15865W        W87591  12.651  19.237  11.183
15866W        W87592  12.625   1.216   1.863
15867W        W87593  43.346   7.200   3.838
15868W        W87594   2.729  10.047  13.128
15869W        W87595  13.625  38.945   2.018
15870W        W87596  19.070  34.162   2.517
15871W        W87597  39.596  23.156   3.246
15872W        W87598  13.606  43.430  12.610
15873W        W87599  23.129  22.002  11.183
15874W        W87600  30.043   1.056  11.465
15875W        W87601   2.887   8.110  12.891
15876W        W87602  27.514  30.814   3.309
15877W        W87603  43.356  41.460  14.727
15878W        W87604  20.121  13.018  14.108
15879W        W87605   7.870  17.688  11.404
15880W        W87606  37.269  26.401  10.372
15881W        W87607   2.459  23.903   3.731
15882W        W87608  23.270  40.449   3.762
15883W        W87609   2.261  35.853   0.194
15884W        W87610   6.710  17.135  12.632
15885W        W87611  25.133  28.534  12.430
15886W        W87612  28.723  32.921   0.929
15887W        W87613  39.658  20.825  12.820
15888W        W87614  17.584  13.652   1.225
15889W        W87615  39.613  18.000   3.604
15890W        W87616  41.722   6.556   4.923
15891W        W87617  30.341  38.384   1.144
15892W        W87618  19.798   3.443   3.764
15893W        W87619  32.589   1.402  12.159
15894W        W87620  34.124  32.432   2.126
15895W        W87621   8.831  43.023  10.631
15896W        W87622  31.996  26.900  10.464
15897W        W87623   5.291  15.989  10.159
15898W        W87624  23.139  29.351   0.457
15899W        W87625  16.067   3.522  14.234
15900W        W87626  11.847  44.467   2.821
15901W        W87627  15.985  13.029   0.519
15902W        W87628  35.147  43.305  14.604
15903W        W87629   5.369  41.002  10.700
15904W        W87630  32.184  13.214   4.999
15905W        W87631  39.555   9.417   0.268
15906W        W87632  20.071  16.970  12.519
15907W        W87633  24.848   1.410  13.300
15908W        W87634  28.604  28.594   2.835
15909W        W87635   2.340  19.408  13.231
15910W        W87636  17.451  41.805   3.582
15911W        W87637  28.274  29.116   1.781
15912W        W87638  42.799  19.708   0.218
15913W        W87639  13.892  29.056   4.713
15914W        W87640  39.306   5.874   2.582
15915W        W87641   4.625  35.437   1.267
15916W        W87642   7.902   8.050   0.383
15917W        W87643  28.483  40.544   3.386
15918W        W87644  21.630  22.681   3.760
15919W        W87645  32.931  38.787   3.879
15920W        W87646  29.496  37.530   3.535
15921W        W87647  34.557  10.312  13.388
15922W        W87648  15.797  18.732  14.842
15923W        W87649  44.307  41.735   3.152
15924W        W87650   8.469  39.276   4.374
15925W        W87651  21.115   8.819  12.530
15926W        W87652  34.075  16.365   1.679
15927W        W87653   9.398  43.735   1.722
15928W        W87654  43.872  41.354   4.379
15929W        W87655  44.487  14.582   4.113
15930W        W87656  26.009   4.756   1.422
15931W        W87657  42.780  28.599   1.955
15932W        W87658   1.182  30.632  14.465
15933W        W87659   7.910  24.340   1.410
15934W        W87660  11.805  12.425   2.302
15935W        W87661   9.591  43.427  11.623
15936W        W87662  35.337  41.444   0.320
15937W        W87663  25.924  29.174  10.470
15938W        W87664  13.848  16.708   3.285
15939W        W87665  22.011  15.851  10.952
15940W        W87666  38.910  34.916   4.353
15941W        W87667  24.533  21.571   2.546
15942W        W87668   9.920  39.479  12.922
15943W        W87669  33.664  20.709  10.633
15944W        W87670  44.332   1.399  11.597
15945W        W87671   5.158  19.191  11.097
15946W        W87672  25.575   0.958  14.433
15947W        W87673   6.066  20.079  12.893
15948W        W87674   0.289  13.351  12.172
15949W        W87675  17.140  26.555   3.089
15950W        W87676   7.735  15.574  13.456
15951W        W87677  36.137  30.410   3.969
15952W        W87678  41.038  41.515  10.775
15953W        W87679  44.948  43.823   4.803
15954W        W87680  34.458  41.763  10.661
15955W        W87681  38.428  14.398  13.596
15956W        W87682   0.582   9.152  10.831
15957W        W87683  16.392  11.570   2.834
15958W        W87684  12.371  24.708   4.862
15959W        W87685  44.750   7.700   0.353
15960W        W87686  15.193  39.529  12.443
15961W        W87687  10.749   6.848  14.380
15962W        W87688  25.118  10.182   1.410
15963W        W87689  22.100  39.434   0.227
15964W        W87690  22.940  40.518  14.817
15965W        W87691  26.516  38.397   0.413
15966W        W87692  32.753  36.512  12.497
15967W        W87693  13.299  15.675  10.612
15968W        W87694  19.895  28.687  14.339
15969W        W87695   4.999  34.036   3.584
15970W        W87696  13.435  35.407  12.935
15971W        W87697  28.516  15.176  12.887
15972W        W87698  33.678  38.016  13.271
15973W        W87699   9.783  24.482  14.134
15974W        W87700  24.448   6.782  12.517
15975W        W87701  26.389  33.629  11.031
15976W        W87702  19.725  19.285   2.976
15977W        W87703   6.802  39.367  14.368
15978W        W87704  33.451  41.002   0.499
15979W        W87705   8.738  17.530   0.342
15980W        W87706  19.971   5.628   1.752
15981W        W87707  30.119   9.943   4.551
15982W        W87708  42.125  12.634   0.442
15983W        W87709  29.638  24.489  11.186
15984W        W87710   2.232  13.390   3.389
15985W        W87711   0.520  44.873  12.973
15986W        W87712  43.480  10.689  11.555
15987W        W87713   2.312  18.282  10.710
15988W        W87714  44.185  15.654   2.260
15989W        W87715  15.138  37.828   2.677
15990W        W87716  40.429  20.648  12.469
15991W        W87717   1.028  36.341  12.710
15992W        W87718  32.971   7.746  10.738
15993W        W87719  26.910   8.373  10.745
15994W        W87720  29.458  10.578   0.287
15995W        W87721  44.013  29.302   0.438
15996W        W87722  31.917  30.000  12.539
15997W        W87723  35.491   2.262  12.485
15998W        W87724   7.451  21.009  11.088
15999W        W87725  11.333  39.099   1.466
16000W        W87726   9.919  22.368   0.908
16001W        W87727   3.269  28.580   4.614
16002W        W87728  14.594  26.957  14.836
16003W        W87729   4.982  19.204   1.971
16004W        W87730  12.170  17.788   0.187
16005W        W87731  30.048  11.131   1.294
16006W        W87732   4.377   7.135  14.408
16007W        W87733   4.721  28.172   4.580
16008W        W87734   6.867  41.740   2.803
16009W        W87735  27.654  13.726  12.158
16010W        W87736  34.230   5.791  13.954
16011W        W87737  19.050  14.524   0.933
16012W        W87738  34.182  29.092  12.868
16013W        W87739   8.310  12.761   0.675
16014W        W87740  11.698   1.859  12.936
16015W        W87741  23.605  35.045   2.698
16016W        W87742  33.061   4.710   1.242
16017W        W87743  33.275  25.196   4.845
16018W        W87744  19.319  21.515   1.204
16019W        W87745   9.154   4.389   1.834
16020W        W87746   3.226  14.815  14.868
16021W        W87747  29.547  12.050   4.582
16022W        W87748  34.630  33.032  14.405
16023W        W87749  44.372  39.130  13.557
16024W        W87750  21.077  23.563  13.208
16025W        W87751  42.173   8.621  13.712
16026W        W87752   6.249  10.633   4.794
16027W        W87753   5.736  23.108   3.042
16028W        W87754   7.710  31.526  14.391
16029W        W87755  38.333  40.886   3.764
16030W        W87756   0.543   7.801  11.508
16031W        W87757   8.723  26.573  14.775
16032W        W87758  35.237  22.641  11.593
16033W        W87759  40.914  33.928   4.621
16034W        W87760   7.329  25.426  10.762
16035W        W87761  30.873  21.339  14.010
16036W        W87762  19.139  29.172   3.348
16037W        W87763   4.572  11.815   3.257
16038W        W87764  15.324   4.229  11.433
16039W        W87765  19.806  10.314  11.968
16040W        W87766  31.084  16.930   4.915
16041W        W87767   7.649  33.032  11.235
16042W        W87768   0.688   7.418  10.748
16043W        W87769  13.351   3.692  10.772
16044W        W87770  30.155  40.006  11.153
16045W        W87771   6.197  32.014   1.173
16046W        W87772  14.295   5.157   2.350
16047W        W87773  14.966   5.816   2.807
16048W        W87774  23.190  15.352  12.370
16049W        W87775  38.519  41.618   2.183
16050W        W87776  18.839  31.437   3.029
16051W        W87777  33.880  40.743  11.934
16052W        W87778  30.645  43.847   1.273
16053W        W87779  29.964   2.985  14.900
16054W        W87780   8.110  44.784  14.790
16055W        W87781  33.859  12.261  14.276
16056W        W87782   2.504  42.278   3.343
16057W        W87783  15.423  20.278  11.577
16058W        W87784  38.610  15.217   1.559
16059W        W87785  40.972  41.476  13.548
16060W        W87786  28.255   1.697  10.976
16061W        W87787  16.571  42.950   3.791
16062W        W87788  11.269   1.479  13.789
16063W        W87789  19.541  15.322   4.411
16064W        W87790   2.652  33.038  12.864
16065W        W87791  12.362  10.281  14.726
16066W        W87792  19.772  22.184   0.004
16067W        W87793  41.185  14.257   1.349
16068W        W87794   7.164  40.239  12.054
16069W        W87795  34.397  13.350  10.708
16070W        W87796  41.730  15.317   0.339
16071W        W87797  24.807   2.972   2.557
16072W        W87798  14.737  37.453   4.607
16073W        W87799  43.513  13.270   2.703
16074W        W87800  14.044  15.630   0.738
16075W        W87801  13.139  44.394   0.496
16076W        W87802  11.129  16.512   1.592
16077W        W87803  29.282  14.068  13.029
16078W        W87804  11.731   3.521   3.317
16079W        W87805  39.973  31.644   3.452
16080W        W87806  11.748   7.112  13.424
16081W        W87807  15.071   3.496  10.663
16082W        W87808  25.145  38.008   2.548
16083W        W87809  22.623  16.137  13.498
16084W        W87810  39.564  23.466  14.453
16085W        W87811  31.700   5.145   1.199
16086W        W87812  29.362  14.343  12.589
16087W        W87813  22.486  16.662   3.163
16088W        W87814  23.703  26.629  12.030
16089W        W87815  21.524  34.458  14.787
16090W        W87816  14.515  18.931   2.754
16091W        W87817  17.563  39.728  11.474
16092W        W87818  26.108  39.881  13.799
16093W        W87819  24.782  15.583  11.681
16094W        W87820   5.088   3.338   2.349
16095W        W87821  21.950  16.676   2.424
16096W        W87822  37.844   1.369   1.287
16097W        W87823  11.371  16.669  13.907
16098W        W87824  38.384   7.299   3.835
16099W        W87825  40.448  39.588  12.818
16100W        W87826   8.302  36.721   4.442
16101W        W87827  38.394  42.458   1.686
16102W        W87828   0.235  27.901   1.491
16103W        W87829  38.892  36.496  13.741
16104W        W87830   1.442  31.438   0.313
16105W        W87831  20.309  27.874  10.652
16106W        W87832  20.544  29.485  11.251
16107W        W87833  14.834  38.325   5.812
16108W        W87834   1.633  34.332   4.491
16109W        W87835  10.893  17.290   4.371
16110W        W87836   9.685  16.632   2.846
16111W        W87837  38.628   6.143   1.330
16112W        W87838   4.378  17.077  13.894
16113W        W87839  15.969   6.460   1.846
16114W        W87840  40.548  36.796  12.248
16115W        W87841  25.443   1.553   3.702
16116W        W87842   5.273  42.314   0.823
16117W        W87843  32.020  26.019  11.358
16118W        W87844  25.291   0.955  10.276
16119W        W87845  41.512  19.324   4.132
16120W        W87846  15.387  14.611   0.007
16121W        W87847   8.806   6.960  10.878
16122W        W87848  22.629  13.169  14.829
16123W        W87849  33.381  44.209   4.582
16124W        W87850  30.850  41.896   4.059
16125W        W87851  33.403  37.723   1.192
16126W        W87852  28.851   2.971   4.238
16127W        W87853  19.946  42.887   4.362
16128W        W87854  34.175  15.777  10.541
16129W        W87855  11.537   0.867   0.826
16130W        W87856  41.526  14.542   1.854
16131W        W87857  11.296  10.119   1.261
16132W        W87858  22.597  17.113   0.783
16133W        W87859  41.806  16.310   1.691
16134W        W87860  43.026  35.147   1.638
16135W        W87861  41.099  32.931   0.498
16136W        W87862  32.016   9.852   3.870
16137W        W87863   7.173  44.884   1.175
16138W        W87864  23.109  26.105   2.136
16139W        W87865  40.047  11.101  14.685
16140W        W87866  34.816  40.681  14.517
16141W        W87867  36.522  25.111   1.876
16142W        W87868   6.218  23.560  14.772
16143W        W87869  41.459  17.276  10.967
16144W        W87870   2.337  28.535   3.974
16145W        W87871  17.151  31.700  14.532
16146W        W87872   4.349  18.177   2.833
16147W        W87873  32.104  32.569  12.481
16148W        W87874   2.940  26.438   2.277
16149W        W87875   7.483   6.387   2.509
16150W        W87876  43.889  19.913  13.579
16151W        W87877  32.413  25.602  13.416
16152W        W87878  39.556  16.755   3.297
16153W        W87879  38.779  22.096  11.808
16154W        W87880  26.372  18.258  11.254
16155W        W87881  21.973  25.948  11.127
16156W        W87882  29.931  44.341  11.572
16157W        W87883   7.277  15.058   4.929
16158W        W87884  41.569   1.561   2.869
16159W        W87885   4.272  27.839   3.422
16160W        W87886   3.191  25.683  13.328
16161W        W87887  41.970  17.874   2.161
16162W        W87888  21.484  44.285   1.743
16163W        W87889  22.473  38.034   0.735
16164W        W87890   6.278  23.782  13.404
16165W        W87891   5.719  23.046   1.323
16166W        W87892  43.270  24.603   0.760
16167W        W87893  12.594  14.589  13.887
16168W        W87894  38.091  16.077   4.060
16169W        W87895  44.352   9.279   3.026
16170W        W87896   3.621  27.855  13.903
16171W        W87897  15.815  24.640   3.359
16172W        W87898  27.157  16.763  10.753
16173W        W87899  39.751  21.256  14.024
16174W        W87900   9.688   9.785   4.641
16175W        W87901  17.137   2.680  12.951
16176W        W87902  27.310  28.099   2.880
16177W        W87903   1.809  37.970  13.498
16178W        W87904  14.870  17.605   4.128
16179W        W87905  41.837   0.218   0.321
16180W        W87906  36.475  14.163  14.615
16181W        W87907  43.474  34.523  11.511
16182W        W87908  16.322  23.949  14.369
16183W        W87909  26.584  35.580   3.827
16184W        W87910  24.665  12.980   3.746
16185W        W87911  13.566   5.473  14.966
16186W        W87912  44.313   7.705   1.766
16187W        W87913   6.752  39.305   1.491
16188W        W87914   6.479  15.190  12.764
16189W        W87915  41.238  40.666   2.846
16190W        W87916  40.455  34.861  13.773
16191W        W87917  14.070  43.209   3.228
16192W        W87918  35.145  12.731   3.603
16193W        W87919  17.063  23.521  13.552
16194W        W87920  16.336   9.724  11.584
16195W        W87921  33.231  31.851  12.020
16196W        W87922  23.054  32.175   2.320
16197W        W87923   3.949   9.092   1.797
16198W        W87924   5.742   8.104   0.337
16199W        W87925  41.982  43.255  11.018
16200W        W87926   3.888  38.429  12.452
16201W        W87927  10.712  33.863   0.453
16202W        W87928  21.144  40.504   1.014
16203W        W87929  20.939  20.251  14.194
16204W        W87930   1.936  36.518  13.346
16205W        W87931  29.068  15.046  10.903
16206W        W87932  44.282  24.191   3.687
16207W        W87933  37.922  38.424  11.420
16208W        W87934  26.511  27.687  10.665
16209W        W87935  17.517   6.564  13.040
16210W        W87936  13.756  28.718  12.929
16211W        W87937  39.749  44.178  14.569
16212W        W87938   6.177  38.525   4.102
16213W        W87939  13.664  31.482   1.190
16214W        W87940  17.271  25.631  11.459
16215W        W87941  12.978   9.600  13.305
16216W        W87942   0.470  23.610  11.853
16217W        W87943  27.894   0.266   3.548
16218W        W87944  29.077  34.096   1.967
16219W        W87945  26.799  31.469   4.753
16220W        W87946  28.751  14.630   2.133
16221W        W87947  14.315  44.242   2.784
16222W        W87948  44.446   4.952  14.745
16223W        W87949  11.694  19.085  14.635
16224W        W87950  18.456  24.209  11.601
16225W        W87951   0.402  36.517  11.943
16226W        W87952  37.963  33.353  14.590
16227W        W87953  23.261  15.066   0.265
16228W        W87954  20.127  22.659   3.490
16229W        W87955  34.189   3.445  11.175
16230W        W87956  10.156  22.427  14.804
16231W        W87957  12.173   9.911  14.328
16232W        W87958  41.485   6.963  10.764
16233W        W87959   9.050  11.169   3.864
16234W        W87960  11.041  26.921   0.718
16235W        W87961  27.321   4.916   1.717
16236W        W87962  19.585  12.233   2.199
16237W        W87963  25.234   6.608   3.873
16238W        W87964  12.446  13.378   1.123
16239W        W87965  41.511   3.017  12.020
16240W        W87966  26.949  42.348   3.350
16241W        W87967   7.887  27.624   1.867
16242W        W87968  42.582  19.073  10.951
16243W        W87969   5.848   9.768   4.802
16244W        W87970  37.328  33.274  14.200
16245W        W87971   6.317  22.495  12.966
16246W        W87972   5.625  15.394   1.601
16247W        W87973  20.737  39.387   2.253
16248W        W87974  42.729  34.386  14.297
16249W        W87975  28.967  31.886   1.614
16250W        W87976  29.103  29.041  14.206
16251W        W87977  10.370  39.042  12.077
16252W        W87978  35.541  40.317   2.161
16253W        W87979  44.603  10.640  11.997
16254W        W87980   6.099  21.039  14.476
16255W        W87981  40.986  42.042   4.594
16256W        W87982  37.082   1.229  11.834
16257W        W87983  12.660  11.156   3.172
16258W        W87984  27.117  37.135   3.322
16259W        W87985  25.680   9.982  14.308
16260W        W87986  17.029  32.071   4.995
16261W        W87987   6.153  28.912  14.183
16262W        W87988  39.070  37.036  12.014
16263W        W87989  26.435  41.556  10.728
16264W        W87990  12.718  42.852  11.754
16265W        W87991  44.751  30.104   2.511
16266W        W87992  39.713  32.758  13.860
16267W        W87993  39.083  44.331   0.769
16268W        W87994  44.927  20.330   0.153
16269W        W87995  13.165  21.076  13.806
16270W        W87996   8.485  25.558   0.443
16271W        W87997  35.795   9.342  10.684
16272W        W87998   4.977  17.304  14.304
16273W        W87999  42.421  28.901  12.574
16274W        W88000  42.519  11.778   2.223
16275W        W88001  18.191  34.063   4.260
16276W        W88002   4.506  17.663   3.666
16277W        W88003  43.667   5.725  11.092
16278W        W88004  38.014   5.487  10.899
16279W        W88005  25.331  23.326  11.116
16280W        W88006  20.551  20.562  13.333
16281W        W88007  31.940  26.049   1.756
16282W        W88008  18.147  30.812   4.464
16283W        W88009  42.932  14.891  12.114
16284W        W88010  12.055  19.761  10.654
16285W        W88011  21.869  23.524   4.400
16286W        W88012   2.655  38.917  11.896
16287W        W88013  10.446  27.495  13.583
16288W        W88014  39.310  38.435   2.989
16289W        W88015  19.598  29.247   2.832
16290W        W88016  32.471  18.777  11.249
16291W        W88017   5.733  15.658   4.270
16292W        W88018  40.088  21.749  13.618
16293W        W88019  24.657  24.125   1.955
16294W        W88020  10.551  43.735  12.728
16295W        W88021  11.846   4.915   0.776
16296W        W88022   8.918  37.389   1.876
16297W        W88023   7.849  39.837   0.763
16298W        W88024  34.279  41.028   3.246
16299W        W88025  39.599  31.534   1.709
16300W        W88026  27.433   5.108  11.154
16301W        W88027  25.579  24.747  13.092
16302W        W88028  31.884   7.881   4.576
16303W        W88029  17.804  24.847   1.458
16304W        W88030   5.675  11.103  11.587
16305W        W88031   7.368  32.646   1.229
16306W        W88032  14.574   2.939   4.826
16307W        W88033  22.476  26.482   4.082
16308W        W88034  12.169   4.065  12.355
16309W        W88035  22.284  29.419  10.993
16310W        W88036  25.971  14.096   4.707
16311W        W88037  27.086  13.170  11.666
16312W        W88038  30.624  39.688   3.752
16313W        W88039  18.048  25.449  12.431
16314W        W88040  22.674  34.100  11.161
16315W        W88041   0.153  11.910   4.225
16316W        W88042   9.265  29.664   1.254
16317W        W88043  24.686   6.853   2.672
16318W        W88044  38.879  29.131  12.491
16319W        W88045  31.829  43.984   3.723
16320W        W88046  37.437  18.285   3.203
16321W        W88047   6.717   0.827   2.328
16322W        W88048   1.475  39.502   4.430
16323W        W88049  33.551  37.694   0.336
16324W        W88050  22.763  28.382  10.139
16325W        W88051  37.845  16.697  11.448
16326W        W88052  19.981  44.955  11.389
16327W        W88053  34.694  20.576  10.704
16328W        W88054  34.971  20.138  10.560
16329W        W88055  44.302  17.602   2.779
16330W        W88056  16.092   2.467   3.253
16331W        W88057   7.936   2.698  13.406
16332W        W88058  37.099  41.660  12.343
16333W        W88059  31.416  15.984  12.191
16334W        W88060  17.237   8.996   5.012
16335W        W88061  12.814  43.334   4.267
16336W        W88062   9.771  35.480  11.193
16337W        W88063  23.765  44.543  10.548
16338W        W88064   5.731   2.285  10.634
16339W        W88065   8.607   9.932   3.419
16340W        W88066  39.336  23.162   3.724
16341W        W88067  26.661   2.738   2.415
16342W        W88068  28.779  16.664  12.132
16343W        W88069  14.901  12.672  12.607
16344W        W88070  19.027   1.857   4.122
16345W        W88071  22.519  21.470  11.551
16346W        W88072  25.096   6.603  13.498
16347W        W88073  16.737  21.466   4.856
16348W        W88074   7.402  27.220   0.246
16349W        W88075  39.304  27.727  10.386
16350W        W88076   8.621  23.174   5.478
16351W        W88077  20.990   8.069   0.250
16352W        W88078  39.541  41.393   1.501
16353W        W88079  23.995  35.050  13.990
16354W        W88080  23.101   1.643   4.095
16355W        W88081  10.118   7.760   2.166
16356W        W88082  10.659   3.389   3.189
16357W        W88083  17.368   4.311   0.321
16358W        W88084  40.342  20.153  14.716
16359W        W88085  20.780  41.579  12.789
16360W        W88086  42.713  29.031   0.755
16361W        W88087   0.082  34.085   1.916
16362W        W88088   6.023  24.871   0.819
16363W        W88089  22.542   2.208   0.193
16364W        W88090  20.161  17.712   4.067
16365W        W88091  44.665   4.156  13.420
16366W        W88092  17.692  35.957  11.646
16367W        W88093  25.144   7.406  14.213
16368W        W88094   0.359   6.168   1.378
16369W        W88095  39.596  19.223   4.151
16370W        W88096   8.827  37.461   3.843
16371W        W88097  20.047   3.699  11.558
16372W        W88098  23.638  42.396   5.011
16373W        W88099  25.138  29.468   0.971
16374W        W88100   1.063  41.424  10.694
16375W        W88101  17.681  44.873  10.673
16376W        W88102   1.824  34.819  11.413
16377W        W88103  24.550  40.720   4.119
16378W        W88104  38.480  42.414   2.759
16379W        W88105   9.756  11.153  13.450
16380W        W88106  16.545  13.675   0.922
16381W        W88107  37.769  10.152   1.754
16382W        W88108  44.953   4.922  10.450
16383W        W88109  32.169  21.114   3.703
16384W        W88110   0.508  19.200  13.378
16385W        W88111  42.954  11.107  12.908
16386W        W88112  20.204  21.635  14.304
16387W        W88113  26.952   1.726   2.720
16388W        W88114  30.996  36.645  12.949
16389W        W88115  21.798   2.807   1.765
16390W        W88116  15.776  25.194  13.077
16391W        W88117   6.040  29.413   0.713
16392W        W88118  31.943  36.158   3.661
16393W        W88119  14.363  29.847   2.656
16394W        W88120  23.564  21.032   3.383
16395W        W88121  23.579  12.327   1.965
16396W        W88122   5.261  28.883   3.314
16397W        W88123  18.840   1.230  10.427
16398W        W88124   9.721   6.919  12.283
16399W        W88125   4.761  30.136   4.567
16400W        W88126  23.677  18.564   4.243
16401W        W88127  30.541  25.561  10.171
16402W        W88128   8.840  38.971   2.907
16403W        W88129  44.187  26.717   4.579
16404W        W88130  19.406  39.456  10.485
16405W        W88131  19.137  13.437  13.834
16406W        W88132   6.196  17.132   3.760
16407W        W88133  14.600  44.378  12.098
16408W        W88134  20.222   7.351  11.244
16409W        W88135  37.759  43.219   0.307
16410W        W88136  26.236  17.812  14.352
16411W        W88137  25.119  26.484   4.107
16412W        W88138   8.036  29.544   0.035
16413W        W88139  27.836  13.723   1.718
16414W        W88140   7.876  26.518   2.709
16415W        W88141  20.597  15.861   4.189
16416W        W88142  18.179   2.589  11.572
16417W        W88143  21.627  16.162  10.910
16418W        W88144  34.114   3.210   4.536
16419W        W88145  26.500  42.395   4.861
16420W        W88146  30.564   0.821  13.390
16421W        W88147  16.667   3.186   0.953
16422W        W88148   4.267  14.243  14.395
16423W        W88149  12.383  34.652   4.195
16424W        W88150  40.558  32.610  13.361
16425W        W88151   4.191  40.410   0.232
16426W        W88152  11.884  12.712  11.027
16427W        W88153  44.937   7.411   0.768
16428W        W88154  13.838  33.450  10.440
16429W        W88155  21.126  26.730   4.600
16430W        W88156  10.204  20.560   1.229
16431W        W88157   7.401  33.493  14.620
16432W        W88158   4.709  35.499   0.766
16433W        W88159  42.180  39.974   4.405
16434W        W88160   7.096  31.745   3.239
16435W        W88161  40.528  21.251   0.452
16436W        W88162  44.756  19.990   2.800
16437W        W88163  25.343  39.036  12.280
16438W        W88164  42.360  11.614   0.466
16439W        W88165  11.421  36.463   1.893
16440W        W88166   7.895  41.364   2.585
16441W        W88167   2.409  29.367  13.951
16442W        W88168   4.755  32.509  14.970
16443W        W88169  17.130  37.924  14.625
16444W        W88170  20.244  24.809   1.236
16445W        W88171  13.078   1.219   0.254
16446W        W88172  41.473  30.120  11.365
16447W        W88173  37.501   1.389   3.811
16448W        W88174   6.486  27.669   1.778
16449W        W88175  14.722  15.057  10.709
16450W        W88176  10.234  23.966   2.292
16451W        W88177  38.294  34.393  13.604
16452W        W88178  20.660  10.545  10.474
16453W        W88179   0.936  26.259   1.414
16454W        W88180  40.214  34.041  13.398
16455W        W88181  30.080  42.052  11.146
16456W        W88182  24.022  12.185  10.048
16457W        W88183  37.065  44.336  12.879
16458W        W88184  36.111  11.781   4.607
16459W        W88185  40.966  17.274   4.955
16460W        W88186   1.224  27.381  11.042
16461W        W88187   4.836  44.897   3.498
16462W        W88188  23.387  22.172  13.914
16463W        W88189  35.848  37.544   2.745
16464W        W88190   5.657  17.468   4.991
16465W        W88191  33.902  22.625  13.205
16466W        W88192  32.089   5.398   3.845
16467W        W88193   5.712   9.099   4.182
16468W        W88194   8.869  14.137   3.117
16469W        W88195  18.256   5.872   1.271
16470W        W88196   2.503  43.443   2.010
16471W        W88197  44.097  37.502  11.629
16472W        W88198  40.013  29.579   4.250
16473W        W88199  12.234  36.988   3.061
16474W        W88200   6.203   4.984  10.510
16475W        W88201  31.340  23.253  14.305
16476W        W88202  44.864  12.554   1.013
16477W        W88203  10.091  31.461  13.916
16478W        W88204  44.302  29.159  13.912
16479W        W88205  30.470  12.672  12.880
16480W        W88206  40.926   8.170  12.608
16481W        W88207  40.589  37.422   2.404
16482W        W88208  32.702   9.824  13.440
16483W        W88209   2.771  36.039   0.187
16484W        W88210   3.701  30.668   0.939
16485W        W88211  14.402   4.459  14.312
16486W        W88212  10.335   8.333  11.558
16487W        W88213   9.333  16.025   3.304
16488W        W88214   2.401   8.590   0.683
16489W        W88215  12.346  41.484  14.562
16490W        W88216  13.835   1.777  10.521
16491W        W88217  14.321  18.703  13.554
16492W        W88218   5.257  38.316  12.483
16493W        W88219  22.724  13.536   0.182
16494W        W88220   7.181  42.941  14.888
16495W        W88221   4.471  35.426  13.491
16496W        W88222  42.504  41.876  11.156
16497W        W88223  39.360   9.763  11.435
16498W        W88224   0.434   2.816  11.676
16499W        W88225  17.276  25.351  12.051
16500W        W88226  11.222  19.159  12.904
16501W        W88227  23.181  29.229  14.429
16502W        W88228  39.052   0.675  14.688
16503W        W88229  11.362   1.494  14.685
16504W        W88230  41.217  40.271   0.762
16505W        W88231  43.299  26.029  10.668
16506W        W88232  39.482  40.348   4.380
16507W        W88233   6.880   6.213   2.405
16508W        W88234   9.177  11.257   2.646
16509W        W88235   8.009  11.746   2.402
16510W        W88236   9.844   1.980   4.684
16511W        W88237  18.015   8.161   4.539
16512W        W88238   4.316  14.132  10.169
16513W        W88239  33.249   9.088   1.863
16514W        W88240  18.484  38.864  10.692
16515W        W88241  11.364  19.733  11.891
16516W        W88242  44.983  33.361  11.607
16517W        W88243  21.135  10.288   4.638
16518W        W88244  25.799   2.336   0.816
16519W        W88245  14.162  24.035   1.483
16520W        W88246  43.966   8.656  14.988
16521W        W88247   0.404  23.022  11.256
16522W        W88248   6.735  42.017  11.017
16523W        W88249  10.498  25.368  11.569
16524W        W88250   0.751  10.578  12.436
16525W        W88251   1.429   0.025  13.900
16526W        W88252  44.421  27.405  14.263
16527W        W88253  18.610   4.127  10.898
16528W        W88254   1.519  42.331  10.418
16529W        W88255  27.161  12.681  14.306
16530W        W88256  23.307  31.070  13.411
16531W        W88257  20.514   6.145  13.330
16532W        W88258  14.110  26.503   2.893
16533W        W88259  18.433  40.650   5.170
16534W        W88260  44.215   6.100   3.245
16535W        W88261  28.185  43.223   5.029
16536W        W88262  38.404  38.649   2.684
16537W        W88263  19.476  10.096   0.367
16538W        W88264  23.180   1.624  13.341
16539W        W88265  39.542  21.516  14.414
16540W        W88266  41.021  28.538   0.367
16541W        W88267   6.942  25.504   2.215
16542W        W88268   2.596   0.812  12.914
16543W        W88269  33.955  10.204  12.162
16544W        W88270  14.406  26.242  13.490
16545W        W88271   0.535  40.264  11.423
16546W        W88272  31.175  31.828   0.923
16547W        W88273  15.429  27.076   4.188
16548W        W88274  29.355  37.759  13.445
16549W        W88275  24.084  33.615   2.004
16550W        W88276  23.392  32.560  11.033
16551W        W88277  24.508  31.016  11.215
16552W        W88278  13.124  17.580  10.902
16553W        W88279   9.601  17.661   4.134
16554W        W88280   8.191  41.889  12.163
16555W        W88281   2.861  19.812   3.265
16556W        W88282  28.434  23.255   2.340
16557W        W88283  25.033  19.058  13.872
16558W        W88284   2.972  16.206  10.910
16559W        W88285  35.506  13.477  12.959
16560W        W88286  23.170  28.278   4.725
16561W        W88287  20.054   3.929   2.305
16562W        W88288  11.879  40.827   1.912
16563W        W88289   7.418   4.389  12.306
16564W        W88290  40.176  22.785  10.603
16565W        W88291  40.100  20.665  12.038
16566W        W88292  39.002  30.338   1.833
16567W        W88293   6.606  16.273   1.826
16568W        W88294  38.046  10.676  11.568
16569W        W88295  24.745  21.183  13.841
16570W        W88296   1.747   1.097  14.173
16571W        W88297  14.422  21.392  12.940
16572W        W88298   2.121   2.953  13.446
16573W        W88299   3.281  33.942   2.335
16574W        W88300  42.563  23.459   3.344
16575W        W88301  25.037   4.249   3.788
16576W        W88302  42.829  27.109  12.494
16577W        W88303   1.999  42.925   4.525
16578W        W88304  10.645  28.428  14.881
16579W        W88305  41.998   7.370   0.924
16580W        W88306  13.259  30.456   0.020
16581W        W88307  27.016  24.064   4.690
16582W        W88308   9.922  13.623  11.957
16583W        W88309  32.952  27.959  11.904
16584W        W88310  34.658  13.710  13.097
16585W        W88311  41.810  11.210   0.449
16586W        W88312  19.200   8.778  13.633
16587W        W88313  40.038   4.179  14.943
16588W        W88314  21.103  33.390  14.069
16589W        W88315  14.136  20.019  13.559
16590W        W88316  33.175  22.292   2.282
16591W        W88317  37.314  44.537  10.723
16592W        W88318  40.184  31.149   3.327
16593W        W88319  39.546   9.239  13.825
16594W        W88320  39.585  41.089  14.294
16595W        W88321   0.530   6.864   4.066
16596W        W88322  25.489  28.447  11.036
16597W        W88323   2.694  23.000  12.490
16598W        W88324   0.907  21.033  10.677
16599W        W88325  43.094  10.662   3.550
16600W        W88326  20.283  31.934   3.253
16601W        W88327  27.428  43.999   0.835
16602W        W88328  16.564   2.205  14.030
16603W        W88329  34.101  32.142   3.738
16604W        W88330  44.681  21.219   3.106
16605W        W88331   8.824   2.708  13.817
16606W        W88332  19.219   8.813   3.351
16607W        W88333  37.827  30.393   3.041
16608W        W88334  35.184  29.031  13.362
16609W        W88335  36.134  28.721  14.480
16610W        W88336  40.743  20.319  14.400
16611W        W88337  10.443  20.138  12.663
16612W        W88338  12.872  30.485  12.081
16613W        W88339   7.356  11.388  13.630
16614W        W88340  13.735   0.343   0.782
16615W        W88341  39.497  32.904   2.891
16616W        W88342  22.547  34.669  13.956
16617W        W88343  32.276  26.116   4.571
16618W        W88344  17.150  43.767  13.051
16619W        W88345  44.128  19.415   1.225
16620W        W88346   1.017  40.451   4.144
16621W        W88347  26.950   4.284   2.815
16622W        W88348   0.341  20.703  14.424
16623W        W88349  37.848  18.063  13.041
16624W        W88350   3.140   6.620  13.284
16625W        W88351  22.940  29.812   0.769
16626W        W88352  40.287  30.413   4.087
16627W        W88353  37.834  36.156   4.975
16628W        W88354  21.498   1.910   4.218
16629W        W88355  33.974  10.314  11.671
16630W        W88356  11.356   7.790  10.630
16631W        W88357   1.612  23.576  10.858
16632W        W88358  31.985  14.677  10.910
16633W        W88359   8.779   2.383   1.178
16634W        W88360  35.093  28.224  10.301
16635W        W88361  30.011  26.763   0.915
16636W        W88362  32.952  12.691  14.085
16637W        W88363  12.311  34.478  12.109
16638W        W88364   5.305  17.058  11.127
16639W        W88365  15.161   3.037  13.292
16640W        W88366   7.736  39.449  12.499
16641W        W88367  21.708  42.574   2.202
16642W        W88368  10.651  29.612   2.157
16643W        W88369   0.735  43.306   2.851
16644W        W88370  26.538  21.968  13.378
16645W        W88371  39.986  33.899  10.691
16646W        W88372   5.725  13.305  10.226
16647W        W88373  37.740   8.836  13.636
16648W        W88374   7.698  16.050   2.773
16649W        W88375  16.135  26.236   2.775
16650W        W88376  17.508  20.292   2.003
16651W        W88377  38.405  36.430  12.039
16652W        W88378  18.624  17.662   3.851
16653W        W88379  24.053  11.529   4.997
16654W        W88380  31.297   3.492  14.543
16655W        W88381  28.303  18.756  13.485
16656W        W88382  15.634  37.909  11.572
16657W        W88383  24.716  29.128   4.604
16658W        W88384  35.724   2.857  10.478
16659W        W88385  26.665  26.047   4.140
16660W        W88386  22.995   3.785  12.488
16661W        W88387  23.471  31.877   3.582
16662W        W88388   0.426  22.707   3.347
16663W        W88389  24.939  25.492  14.785
16664W        W88390  40.392  12.904   3.650
16665W        W88391   3.405   7.997  12.438
16666W        W88392   2.590  38.614  13.285
16667W        W88393  19.573  28.709   1.299
16668W        W88394  11.928  11.802   2.920
16669W        W88395  40.439  32.540   2.620
16670W        W88396  26.248  30.710   3.795
16671W        W88397   5.202  36.173  11.156
16672W        W88398  41.627  16.700  12.868
16673W        W88399  11.723  24.886  10.252
16674W        W88400   9.406  33.444   9.819
16675W        W88401  38.031  30.106   0.219
16676W        W88402  42.083  17.987   0.749
16677W        W88403  19.773   8.295  10.682
16678W        W88404   4.403  10.341  12.026
16679W        W88405  44.328  16.305  11.319
16680W        W88406  16.211  17.081  13.393
16681W        W88407  44.384  28.973  10.615
16682W        W88408  42.454  37.447   1.704
16683W        W88409  42.868  20.581  12.361
16684W        W88410  18.669   5.217   0.970
16685W        W88411  28.826   4.235   4.613
16686W        W88412  42.597   8.787  10.830
16687W        W88413  21.786  31.685   2.796
16688W        W88414  43.872  14.015   3.778
16689W        W88415  32.993  24.192  13.577
16690W        W88416  39.567  20.986   3.746
16691W        W88417  33.657  43.982   3.636
16692W        W88418  42.050  21.068   3.683
16693W        W88419  42.185  14.427   1.305
16694W        W88420  38.964  14.642   2.633
16695W        W88421  19.531  20.640  11.698
16696W        W88422  16.769  33.348  12.471
16697W        W88423  25.039  11.195  12.903
16698W        W88424   9.540  32.566   4.310
16699W        W88425  43.430  22.517   2.154
16700W        W88426  42.814  32.506   0.903
16701W        W88427  28.038  39.303  14.313
16702W        W88428  19.683  29.855   3.831
16703W        W88429  21.856  38.034  12.135
16704W        W88430  32.414   7.429   1.645
16705W        W88431   5.701  19.265  12.853
16706W        W88432  21.514  43.755   0.938
16707W        W88433  22.672  12.096  14.609
16708W        W88434  29.530  22.655   0.698
16709W        W88435  27.856  27.217   1.983
16710W        W88436  11.395  13.627  11.137
16711W        W88437  17.044  17.366  14.341
16712W        W88438  16.455   8.873  11.802
16713W        W88439  30.226  26.657  11.416
16714W        W88440  32.949  32.561   4.195
16715W        W88441  38.146  16.823  13.364
16716W        W88442  33.521  14.703  10.683
16717W        W88443  14.586  33.406  13.432
16718W        W88444   2.998  21.720   1.166
16719W        W88445  25.778  17.845   4.440
16720W        W88446  12.747  24.650  12.490
16721W        W88447  42.525  14.080   2.356
16722W        W88448   0.415  37.945   3.099
16723W        W88449  17.081  28.836   0.355
16724W        W88450  22.527  34.433   5.052
16725W        W88451   1.671  31.052   4.206
16726W        W88452  32.593  35.805   3.396
16727W        W88453   8.179   2.918   0.788
16728W        W88454  19.765  26.419  13.061
16729W        W88455  15.043  41.194   3.239
16730W        W88456  14.782   1.972   1.150
16731W        W88457  12.901  17.309  10.480
16732W        W88458  15.826  26.692   2.748
16733W        W88459  17.053  36.838   2.741
16734W        W88460   2.215  35.528  11.929
16735W        W88461  33.131  34.049  13.149
16736W        W88462  16.212  15.609   0.414
16737W        W88463  15.134  15.412   3.735
16738W        W88464  42.931  39.167  11.978
16739W        W88465  18.489  36.137  11.254
16740W        W88466  29.476  25.618   5.518
16741W        W88467  13.251  20.009   1.764
16742W        W88468  44.727  18.675   4.130
16743W        W88469  26.409   6.801   1.750
16744W        W88470  22.649  14.789  13.945
16745W        W88471  28.552  25.857  12.448
16746W        W88472  22.716  23.259  14.377
16747W        W88473  15.661  11.350   3.710
16748W        W88474   6.396  14.629  13.049
16749W        W88475  44.181  40.595   1.302
16750W        W88476  38.097  29.137  14.782
16751W        W88477  41.572  26.502   0.792
16752W        W88478  31.561   9.320  11.215
16753W        W88479  37.996  20.999  14.766
16754W        W88480  39.036   2.464   0.651
16755W        W88481  29.465   8.069   3.508
16756W        W88482  11.520  11.218  11.370
16757W        W88483  14.165   8.156  13.582
16758W        W88484  15.721  15.777   1.650
16759W        W88485  29.332  28.180   3.836
16760W        W88486  27.533  36.817   1.784
16761W        W88487  33.957  17.708   0.506
16762W        W88488  24.700  28.271  14.481
16763W        W88489   7.322  12.652  11.589
16764W        W88490  20.573  13.883  12.085
16765W        W88491   7.840  26.466   2.095
16766W        W88492  25.051  39.929  14.257
16767W        W88493  33.883  35.007  12.892
16768W        W88494  24.683   4.695  11.164
16769W        W88495   9.372  10.788   2.700
16770W        W88496  30.076  33.958   1.784
16771W        W88497   1.452   0.653  11.670
16772W        W88498  44.013  20.760   2.866
16773W        W88499  40.670  17.369   2.763
16774W        W88500  15.498  26.637  11.073
16775W        W88501  17.098  22.628   3.122
16776W        W88502  23.549  29.896  11.453
16777W        W88503  21.160   2.283  12.408
16778W        W88504  29.699   7.902  12.575
16779W        W88505  12.880  32.856  12.054
16780W        W88506  33.944  26.046   1.859
16781W        W88507   1.109  30.144   4.092
16782W        W88508   8.323  18.792   4.493
16783W        W88509  30.531  44.471  12.368
16784W        W88510   9.712   5.090  12.490
16785W        W88511  35.513  35.337   2.562
16786W        W88512  24.811   7.985  13.058
16787W        W88513  31.876  41.299   5.626
16788W        W88514  10.869  29.122  10.704
16789W        W88515  31.183   0.064   4.372
16790W        W88516   3.701  26.512   3.252
16791W        W88517  14.630  27.707   4.289
16792W        W88518  30.050  40.629   4.771
16793W        W88519  28.531  23.782   0.415
16794W        W88520  12.794   5.965   4.132
16795W        W88521  17.240   9.427   4.469
16796W        W88522  43.522   2.476  14.510
16797W        W88523  23.619  17.467   2.412
16798W        W88524  43.759  24.402  14.357
16799W        W88525   9.572  25.732   1.637
16800W        W88526  14.687   4.463  12.807
16801W        W88527  25.033  30.847   3.305
16802W        W88528   6.401   6.651  14.953
16803W        W88529   8.738   9.863  14.920
16804W        W88530  16.774  30.149   3.277
16805W        W88531  43.299  10.376  12.559
16806W        W88532  34.175   8.125  10.535
16807W        W88533  39.072   6.813   3.753
16808W        W88534  42.359  33.260   1.750
16809W        W88535  14.666  41.023  11.610
16810W        W88536  13.260  35.905  14.876
16811W        W88537  28.079  13.693   3.705
16812W        W88538  16.627   7.373  14.298
16813W        W88539  36.185  39.330   2.960
16814W        W88540   9.211  43.180   2.396
16815W        W88541  30.564  24.564  14.531
16816W        W88542  23.863   2.306  12.099
16817W        W88543  29.621   3.917  10.757
16818W        W88544  44.872  42.346  14.554
16819W        W88545  31.357   0.841   1.669
16820W        W88546  36.477  26.914   2.706
16821W        W88547  11.905  36.652   1.844
16822W        W88548  38.795  14.517  11.369
16823W        W88549  23.708  39.094  14.215
16824W        W88550  15.470   5.925   1.058
16825W        W88551  13.532  11.444   2.104
16826W        W88552   8.626  16.056   4.977
16827W        W88553  19.333   6.286  14.001
16828W        W88554   0.443   7.178  11.147
16829W        W88555  20.999  35.441  12.414
16830W        W88556  39.371  31.538  12.126
16831W        W88557  24.689  20.533  11.848
16832W        W88558  20.515  26.681  11.562
16833W        W88559  22.055   5.134  11.652
16834W        W88560   0.077   8.248  11.990
16835W        W88561  39.552  42.567  14.379
16836W        W88562  10.819   7.833  10.558
16837W        W88563  27.526  36.893  13.620
16838W        W88564  17.268  37.554   0.486
16839W        W88565  33.030  44.908  11.266
16840W        W88566  35.966  33.884   0.281
16841W        W88567   3.379  26.184  10.424
16842W        W88568  10.269  29.841  14.494
16843W        W88569  24.886   5.364  12.700
16844W        W88570  22.279  31.896   2.769
16845W        W88571   8.424  37.250   1.323
16846W        W88572  36.789  35.075  11.025
16847W        W88573  42.544   2.221   0.944
16848W        W88574  37.380  23.983  12.419
16849W        W88575  30.675   0.423  13.082
16850W        W88576   8.717  38.820   1.893
16851W        W88577  23.069  22.596  11.037
16852W        W88578  25.521  27.577   4.650
16853W        W88579  37.874   5.363   2.680
16854W        W88580   2.751  27.937   0.365
16855W        W88581   0.481  25.432   1.323
16856W        W88582  23.760  23.146  13.905
16857W        W88583  13.082  21.029   2.649
16858W        W88584  32.513  11.498  11.975
16859W        W88585   2.861   9.788   4.165
16860W        W88586  13.313  38.786  10.574
16861W        W88587  31.060  33.474  13.356
16862W        W88588   7.008   8.740   3.870
16863W        W88589  35.771  32.822   4.795
16864W        W88590  25.960   1.651  14.798
16865W        W88591  10.438   4.630  12.513
16866W        W88592   5.504  10.000  13.871
16867W        W88593  16.199   0.727  10.270
16868W        W88594  23.932  28.820  11.310
16869W        W88595  26.578   0.475  13.732
16870W        W88596   8.229  14.378   2.445
16871W        W88597  23.248   8.377  11.103
16872W        W88598  39.802  26.242  14.596
16873W        W88599  27.928  44.339  14.042
16874W        W88600  33.685  39.936   5.138
16875W        W88601  41.338  43.360  14.980
16876W        W88602  23.084  41.411   1.814
16877W        W88603  26.566  19.406   0.725
16878W        W88604  39.779  17.833   1.231
16879W        W88605   8.003  23.070   2.822
16880W        W88606  24.638  36.541   3.971
16881W        W88607  28.555  38.419  13.233
16882W        W88608   4.213  38.251  13.755
16883W        W88609  34.209   6.394   1.500
16884W        W88610  37.381   5.199   2.655
16885W        W88611  36.395  19.125   0.131
16886W        W88612  36.147   0.949   2.326
16887W        W88613  10.096  38.743   1.830
16888W        W88614  20.308  35.937  14.216
16889W        W88615   1.681  44.883   3.902
16890W        W88616  26.240  42.866  14.854
16891W        W88617  23.989  16.580   2.183
16892W        W88618  31.519   6.982   3.633
16893W        W88619  30.702  23.715  14.697
16894W        W88620  22.501  14.534   3.236
16895W        W88621  32.818   2.311  13.002
16896W        W88622  13.241  39.074  13.268
16897W        W88623   3.489  33.592   3.310
16898W        W88624  43.268  31.917   2.305
16899W        W88625  26.121  32.055   4.698
16900W        W88626   0.024  13.946   2.617
16901W        W88627  25.678  40.263  12.118
16902W        W88628  29.124  27.909  12.836
16903W        W88629  15.307  16.326   3.269
16904W        W88630  44.965  10.390   1.012
16905W        W88631  34.946  30.211  12.004
16906W        W88632  18.659  23.455  11.977
16907W        W88633  33.405  19.612  11.966
16908W        W88634  14.575  23.287  14.962
16909W        W88635  34.658   4.053  10.698
16910W        W88636   7.750  10.184   1.710
16911W        W88637  36.916  14.210  11.204
16912W        W88638   5.579   8.325  13.363
16913W        W88639  36.060  19.853   4.576
16914W        W88640   2.670   0.306   4.694
16915W        W88641  19.989   8.654  13.982
16916W        W88642  24.964  32.741   2.981
16917W        W88643  29.124   0.744   2.756
16918W        W88644   2.686  22.815  11.618
16919W        W88645  29.803  21.601   0.795
16920W        W88646  21.470  29.099  14.767
16921W        W88647  35.508  13.414   2.366
16922W        W88648  17.055  26.557   1.299
16923W        W88649  30.509   9.670  14.253
16924W        W88650  37.461  15.650   4.976
16925W        W88651  22.132  23.068   4.316
16926W        W88652  30.658  16.393   0.978
16927W        W88653  43.344  13.121   3.663
16928W        W88654  31.508  12.565  11.081
16929W        W88655  38.964  25.604  12.027
16930W        W88656  42.090  16.199   0.259
16931W        W88657  29.266  18.489   1.255
16932W        W88658   9.584  34.991  11.126
16933W        W88659  36.831   2.142  10.702
16934W        W88660   7.391  15.837   3.200
16935W        W88661  44.233  24.942   4.513
16936W        W88662  17.696  38.862  13.975
16937W        W88663  11.867   5.426   0.873
16938W        W88664  40.113  17.180  11.650
16939W        W88665   6.993  41.913  10.595
16940W        W88666  38.924   7.396   4.515
16941W        W88667  13.332   1.025   3.747
16942W        W88668  43.437  25.682  14.884
16943W        W88669  16.109   1.266   4.228
16944W        W88670  19.445  34.123   3.459
16945W        W88671  32.118  36.616  12.053
16946W        W88672  28.767   4.302  14.906
16947W        W88673  28.949   2.208   0.500
16948W        W88674   1.562  38.958   1.378
16949W        W88675  28.477  30.936   3.225
16950W        W88676   6.017  23.953   3.021
16951W        W88677  38.738  27.050  12.356
16952W        W88678  11.111  31.524   1.017
16953W        W88679  40.865  28.007   1.828
16954W        W88680  35.372  44.749   2.316
16955W        W88681  17.717  22.879  12.094
16956W        W88682  25.962  21.432  12.857
16957W        W88683  37.144  29.764   4.090
16958W        W88684  10.140  41.025   0.914
16959W        W88685  25.679  12.202   0.588
16960W        W88686   8.124  40.011   0.035
16961W        W88687  22.124   9.969  12.438
16962W        W88688  14.819   1.931  10.721
16963W        W88689  31.682  42.486   4.603
16964W        W88690  17.768   3.947  11.219
16965W        W88691  15.616  38.627   4.886
16966W        W88692  29.035  13.171  14.702
16967W        W88693  11.224  42.214   2.243
16968W        W88694   1.870  16.579  14.732
16969W        W88695   9.623  12.340  14.980
16970W        W88696  34.361  30.213  11.435
16971W        W88697  35.342  13.874   2.908
16972W        W88698  27.428  24.268   0.770
16973W        W88699  29.500  22.639  13.102
16974W        W88700   8.881   8.353  10.643
16975W        W88701   7.625  20.682   2.752
16976W        W88702  22.324  35.691   3.214
16977W        W88703  37.555  35.155   3.861
16978W        W88704  15.727  19.727   4.241
16979W        W88705  11.171  37.083  14.885
16980W        W88706   8.092   5.118   3.736
16981W        W88707   1.003   9.258   1.349
16982W        W88708  34.084   2.776   3.161
16983W        W88709   8.633  10.031  11.215
16984W        W88710  18.763   9.998   4.509
16985W        W88711  11.232   8.920   4.258
16986W        W88712  20.032  11.289   3.421
16987W        W88713  34.854   4.662  14.693
16988W        W88714  41.483   8.305  14.776
16989W        W88715   4.504  34.242  14.968
16990W        W88716   4.417  39.285  13.892
16991W        W88717  36.408  38.984  10.615
16992W        W88718  30.683  31.699   2.814
16993W        W88719   0.896  20.930   1.792
16994W        W88720  39.862  26.668   1.702
16995W        W88721  13.499  18.250   1.251
16996W        W88722  42.510  16.655   2.084
16997W        W88723  36.428  26.695  13.466
16998W        W88724  40.033  22.428  13.210
16999W        W88725   1.507  42.850  11.590
17000W        W88726  20.184  22.887  14.599
17001W        W88727   5.629  18.278   0.561
17002W        W88728  14.389  18.005  11.257
17003W        W88729   2.723  23.321  11.528
17004W        W88730  23.749   0.187   3.673
17005W        W88731  13.940  27.837  14.679
17006W        W88732  16.515  35.772  11.015
17007W        W88733  39.034  10.666  11.104
17008W        W88734  39.768  24.930  14.924
17009W        W88735  42.960   9.776   2.264
17010W        W88736  26.603  36.837   1.774
17011W        W88737  40.307  15.074  10.701
17012W        W88738  11.740  42.893   4.164
17013W        W88739   1.224  18.768   3.832
17014W        W88740  22.006  16.156  13.801
17015W        W88741  17.920  38.521   1.222
17016W        W88742  42.884   6.830   3.198
17017W        W88743  16.061  43.898   1.363
17018W        W88744  10.565   4.093   4.903
17019W        W88745  21.219  26.726   3.701
17020W        W88746  28.955  26.527  14.346
17021W        W88747  28.024   7.327   2.316
17022W        W88748  35.846  27.676   1.423
17023W        W88749  21.526  33.423  14.412
17024W        W88750  13.626  12.626  11.142
17025W        W88751  24.766   6.419   3.004
17026W        W88752   7.965  23.758   3.888
17027W        W88753  15.080  15.941   3.581
17028W        W88754  31.928   0.930  12.762
17029W        W88755  40.381  22.050  11.643
17030W        W88756  15.670   6.711   2.214
17031W        W88757   6.331  15.328  12.275
17032W        W88758   7.325   9.790   4.041
17033W        W88759  10.635  29.466  14.416
17034W        W88760  17.286  35.433   1.176
17035W        W88761  22.564  44.714   5.045
17036W        W88762  43.481   4.392   0.234
17037W        W88763  34.494  32.010   3.226
17038W        W88764  44.565  37.392  12.944
17039W        W88765   0.796   4.749   4.568
17040W        W88766  36.126  44.355  11.640
17041W        W88767  44.983  12.914  10.766
17042W        W88768  25.799   2.769   1.934
17043W        W88769   3.880  41.380   5.194
17044W        W88770  43.295  41.441  13.782
17045W        W88771  17.065  16.303  14.910
17046W        W88772   3.400  28.776  11.067
17047W        W88773   2.216  12.821   4.181
17048W        W88774  22.529  28.527   2.361
17049W        W88775  40.926  17.479   4.463
17050W        W88776   7.248  12.078  14.416
17051W        W88777   2.333  11.879  14.817
17052W        W88778  35.237  17.686  11.540
17053W        W88779  18.137  11.414   0.497
17054W        W88780  14.517  18.407   1.233
17055W        W88781  21.435  40.869   1.252
17056W        W88782  34.915  19.309   1.461
17057W        W88783  20.968  41.030   0.329
17058W        W88784  20.263  18.161  13.426
17059W        W88785  17.105  19.154   3.750
17060W        W88786   5.816  21.648  11.861
17061W        W88787  42.907   6.445  11.789
17062W        W88788   6.478  11.158  11.068
17063W        W88789  26.001   3.863   1.357
17064W        W88790  24.601  19.133   3.319
17065W        W88791  25.633  17.525   1.398
17066W        W88792  16.664   6.731  14.855
17067W        W88793  42.083  28.620  11.135
17068W        W88794  25.588  37.345  12.498
17069W        W88795   6.822   2.859  10.605
17070W        W88796  15.612  34.469   2.915
17071W        W88797  33.501   9.791   1.781
17072W        W88798  41.091  19.035  14.952
17073W        W88799  44.067  37.345  14.039
17074W        W88800  31.463  36.648   2.276
17075W        W88801  15.127  39.806  14.446
17076W        W88802  35.523  32.522  11.532
17077W        W88803  24.173  29.709  12.545
17078W        W88804   8.808  28.811  14.694
17079W        W88805  20.078  14.604  10.761
17080W        W88806   1.284  33.150   4.782
17081W        W88807  44.766  22.470  10.623
17082W        W88808  24.615  16.624  11.723
17083W        W88809   3.871  44.348   1.576
17084W        W88810  36.313  10.871   3.219
17085W        W88811  38.276  24.504  13.963
17086W        W88812  34.268  20.290  12.934
17087W        W88813   0.932  10.883   2.729
17088W        W88814  37.999   7.955   1.174
17089W        W88815  16.263   9.286  12.271
17090W        W88816  39.790  27.124  14.493
17091W        W88817  37.892  11.810   4.048
17092W        W88818  17.789  17.353   4.748
17093W        W88819   2.769  23.114   0.015
17094W        W88820  26.879  36.767   2.204
17095W        W88821   6.810  13.010  14.678
17096W        W88822  39.603  10.012   1.398
17097W        W88823  18.986   0.123   9.701
17098W        W88824  26.179  23.947  12.961
17099W        W88825   0.470  25.688  12.024
17100W        W88826  11.741  19.020   4.694
17101W        W88827  18.209  29.456  11.620
17102W        W88828  12.688  34.193  11.590
17103W        W88829   4.874  12.407   1.874
17104W        W88830   9.663  24.560   3.748
17105W        W88831  23.419   9.743   1.273
17106W        W88832  44.472  37.910   0.005
17107W        W88833  16.405   5.121  10.517
17108W        W88834  31.650  38.960   3.764
17109W        W88835  40.574  29.494  13.409
17110W        W88836  31.802  13.348   4.600
17111W        W88837   1.573   8.221   2.940
17112W        W88838   9.836  39.535   4.400
17113W        W88839  21.794  37.879   1.790
17114W        W88840  19.989  11.802   1.372
17115W        W88841  42.963  23.576   0.426
17116W        W88842  16.339  29.113  11.699
17117W        W88843  42.032  21.100  13.063
17118W        W88844  28.529  35.332  14.944
17119W        W88845  38.327   3.957  10.837
17120W        W88846  44.061  28.091   4.198
17121W        W88847  37.713  29.506   4.599
17122W        W88848  25.674  27.109   4.453
17123W        W88849  24.517  18.080   1.938
17124W        W88850  18.905   0.418   1.773
17125W        W88851  33.331  26.382  10.709
17126W        W88852  13.079  21.087   4.514
17127W        W88853  42.630  37.446  13.808
17128W        W88854   5.811  17.765  11.186
17129W        W88855  35.661  32.570   1.269
17130W        W88856  26.598  37.661  12.868
17131W        W88857  30.074  31.597   0.552
17132W        W88858  41.073  33.853   2.801
17133W        W88859   3.419  22.764  12.079
17134W        W88860  38.467  29.899   0.415
17135W        W88861  42.446  28.086   0.861
17136W        W88862   0.141  17.564   3.150
17137W        W88863   8.208  44.952   3.852
17138W        W88864  14.866   8.312  14.165
17139W        W88865  14.036   8.704  12.975
17140W        W88866  31.929  28.439  11.553
17141W        W88867  18.556  43.409  12.851
17142W        W88868   8.829  32.590  13.899
17143W        W88869  21.290   7.696   2.041
17144W        W88870  27.415  28.969   3.209
17145W        W88871  41.957  18.704  13.403
17146W        W88872  34.875  44.443   1.363
17147W        W88873  21.623   2.431   2.762
17148W        W88874   5.669  15.992   0.876
17149W        W88875  11.515  22.656   2.251
17150W        W88876  37.123  39.788   4.245
17151W        W88877  31.929   2.435   0.402
17152W        W88878  29.967  17.155  12.053
17153W        W88879  37.266  41.223   3.208
17154W        W88880  42.291  30.019   0.415
17155W        W88881  14.408   8.193   4.507
17156W        W88882  10.154  35.929   2.863
17157W        W88883   4.898  18.205   4.741
17158W        W88884  22.485  15.736  11.057
17159W        W88885  32.643  33.753   4.520
17160W        W88886  39.428  15.342   4.328
17161W        W88887  39.567   6.834   3.627
17162W        W88888  13.653  16.540  14.815
17163W        W88889  34.429  43.088  12.772
17164W        W88890   9.121  13.591  11.649
17165W        W88891  37.468   7.274   3.843
17166W        W88892  18.096   3.615  11.482
17167W        W88893  39.405   1.415   2.418
17168W        W88894  43.188  39.336   0.302
17169W        W88895  31.707  13.569   3.688
17170W        W88896  24.811  38.133  12.183
17171W        W88897  27.472  19.969  13.041
17172W        W88898  32.077  27.062   2.202
17173W        W88899  33.918  35.696   1.396
17174W        W88900  10.193  19.415   1.949
17175W        W88901  29.107  14.154  11.772
17176W        W88902  27.692  18.556  13.669
17177W        W88903  37.446  44.599  11.484
17178W        W88904  21.331  33.164   2.186
17179W        W88905  11.353  40.243  13.589
17180W        W88906   5.353  43.782  13.291
17181W        W88907   5.683  33.601  12.022
17182W        W88908  37.167  19.266   0.987
17183W        W88909  29.162  10.810   4.830
17184W        W88910  16.799   3.684   0.909
17185W        W88911  13.281   7.268  10.647
17186W        W88912   9.255  21.108   4.180
17187W        W88913  29.570   0.858   4.574
17188W        W88914  24.978  16.372   4.662
17189W        W88915  20.047  38.249   0.356
17190W        W88916  30.085  30.002   3.686
17191W        W88917  37.993  32.772  12.485
17192W        W88918  28.783  40.845   0.961
17193W        W88919  10.767  25.458  11.097
17194W        W88920  23.658  16.216   2.937
17195W        W88921  28.107  24.291   1.227
17196W        W88922  13.864  40.123   4.917
17197W        W88923   9.058  44.499   3.881
17198W        W88924  35.178   5.022  14.480
17199W        W88925   1.569  30.163   4.381
17200W        W88926  14.305  28.523  14.704
17201W        W88927   7.443  27.949  13.428
17202W        W88928  38.457  15.274   0.533
17203W        W88929  18.537  27.097   1.582
17204W        W88930  18.346  37.404   0.879
17205W        W88931  14.108  42.310   4.157
17206W        W88932  17.813   1.885   2.194
17207W        W88933  34.332  11.233  12.999
17208W        W88934  10.165  36.670  12.843
17209W        W88935  11.877  24.583   0.879
17210W        W88936  35.959  38.849  14.822
17211W        W88937  30.014  44.775  13.838
17212W        W88938  29.518  16.589   2.116
17213W        W88939  17.976  20.740  11.173
17214W        W88940   2.378   8.857   2.102
17215W        W88941  27.219  31.154  13.493
17216W        W88942  44.994  28.346   2.328
17217W        W88943  32.603  19.618  12.923
17218W        W88944   5.551   5.919   1.245
17219W        W88945  36.060  31.703   2.372
17220W        W88946  25.970   6.031  14.831
17221W        W88947  26.729  24.261   3.250
17222W        W88948  44.365  14.774  12.954
17223W        W88949  42.507  18.166   1.006
17224W        W88950  14.843  20.684   0.372
17225W        W88951  40.023  33.101   2.218
17226W        W88952  22.251  18.822  14.550
17227W        W88953  15.247  21.106   0.984
17228W        W88954  26.962  37.300  13.031
17229W        W88955  43.553   4.920  13.483
17230W        W88956   5.970  43.083  12.070
17231W        W88957  14.518  20.058  14.419
17232W        W88958  39.001  21.287  14.458
17233W        W88959   2.215  39.827   4.143
17234W        W88960   3.202  14.407   2.275
17235W        W88961   3.918  19.603  14.757
17236W        W88962  31.106   8.073  11.008
17237W        W88963  37.557  34.510  12.876
17238W        W88964   1.377  21.700   1.303
17239W        W88965  21.347  19.696  11.613
17240W        W88966  20.218  43.820   2.081
17241W        W88967  36.337  13.830   3.801
17242W        W88968  12.629  13.775   0.373
17243W        W88969  16.479  44.811  11.271
17244W        W88970  16.957  41.790   3.018
17245W        W88971  27.530  25.001   1.358
17246W        W88972  24.943  12.119  13.364
17247W        W88973   6.373  31.608  13.304
17248W        W88974  18.561  38.852  11.206
17249W        W88975   4.884  16.253   5.168
17250W        W88976  13.176   3.971  12.026
17251W        W88977  20.498   5.654  11.572
17252W        W88978   9.258  17.799   0.539
17253W        W88979  18.142   2.502   4.727
17254W        W88980  32.445  26.937   4.419
17255W        W88981   2.299  19.309  10.554
17256W        W88982  24.484  12.059   1.499
17257W        W88983   6.296  18.784  14.280
17258W        W88984  11.657   8.407   3.873
17259W        W88985  42.619  11.357  10.615
17260W        W88986  24.388   2.775   2.920
17261W        W88987   3.476  18.026   0.826
17262W        W88988  13.863  16.667  13.809
17263W        W88989   6.171   9.897  14.944
17264W        W88990  41.310   1.925  12.940
17265W        W88991  24.241   7.167   4.633
17266W        W88992   3.867  41.363  10.753
17267W        W88993  38.528  18.367  12.315
17268W        W88994  38.621  43.428   0.766
17269W        W88995  41.243  24.540  12.138
17270W        W88996  37.543  43.920  12.037
17271W        W88997  33.092  33.932  11.448
17272W        W88998  38.217  16.184  11.698
17273W        W88999  23.166  40.881   3.122
17274W        W89000  14.205  33.563   1.644
17275W        W89001  19.138  27.611   3.180
17276W        W89002  27.840  17.611   4.795
17277W        W89003  33.463  37.982   4.566
17278W        W89004   9.330  27.380   3.723
17279W        W89005  13.118  32.564  12.436
17280W        W89006  12.429  29.592   1.232
17281W        W89007   4.277  39.922  14.959
17282W        W89008  40.550  18.649  11.500
17283W        W89009   0.242  41.236  12.396
17284W        W89010  12.793  37.328   3.586
17285W        W89011  25.481  39.254  13.964
17286W        W89012  42.252  32.990   3.252
17287W        W89013  41.646  29.013   3.215
17288W        W89014   6.778  12.805   5.109
17289W        W89015   6.454  32.976   1.141
17290W        W89016  38.946  28.335   4.045
17291W        W89017  19.887   1.709  14.830
17292W        W89018  16.648  43.685  10.791
17293W        W89019  16.996  34.800  10.414
17294W        W89020  41.746  29.719  14.561
17295W        W89021  28.678   2.231  13.258
17296W        W89022   3.152  26.346  14.027
17297W        W89023  31.630  37.532  14.577
17298W        W89024  31.414   6.208  12.578
17299W        W89025   6.126  20.651   0.914
17300W        W89026   1.338  14.013   2.635
17301W        W89027   9.868  41.667  14.178
17302W        W89028   6.740  12.561  14.940
17303W        W89029  34.907   3.119   2.184
17304W        W89030  14.055  11.177  13.981
17305W        W89031   9.451   7.105  10.301
17306W        W89032  18.535  42.269   4.421
17307W        W89033  17.898  17.679  11.186
17308W        W89034  22.449   0.601   0.978
17309W        W89035  29.408   1.049  14.952
17310W        W89036  19.059  24.499   3.656
17311W        W89037  37.385  38.910   1.403
17312W        W89038  21.624  12.764   3.727
17313W        W89039  21.933  43.490   0.455
17314W        W89040  34.561   9.337   0.404
17315W        W89041  36.799   8.226   2.470
17316W        W89042  42.338   2.075   1.865
17317W        W89043   7.793  16.893   1.422
17318W        W89044   9.363  41.923  12.922
17319W        W89045  29.988  14.610   2.991
17320W        W89046  43.396  28.931   3.228
17321W        W89047   5.642  39.299   4.055
17322W        W89048  39.706   6.290   3.118
17323W        W89049   0.463   7.416  13.334
17324W        W89050  41.137  39.400   3.761
17325W        W89051   4.569  15.249  10.337
17326W        W89052  21.288  39.532   0.834
17327W        W89053   4.298  32.158  12.123
17328W        W89054  26.650  36.624  12.530
17329W        W89055  25.169  11.667  13.574
17330W        W89056  44.379  35.712  13.222
17331W        W89057   4.789  26.254  13.386
17332W        W89058  16.519   3.900   1.267
17333W        W89059  22.550   6.637   3.891
17334W        W89060  41.087  17.276  13.425
17335W        W89061  13.305  30.653  11.856
17336W        W89062  43.186  35.861  10.633
17337W        W89063  36.998  15.204  14.101
17338W        W89064  23.316  26.959   2.716
17339W        W89065  15.959  19.031  14.441
17340W        W89066   3.452   7.930  11.621
17341W        W89067  30.597  38.789   2.166
17342W        W89068  25.571  28.154  14.009
17343W        W89069  32.248  21.478   3.335
17344W        W89070  31.119  28.532   0.028
17345W        W89071  13.851  21.697   1.449
17346W        W89072  13.865  30.535   3.097
17347W        W89073  14.496  37.212   0.811
17348W        W89074  26.509   7.629   1.858
17349W        W89075  44.998   5.745   3.224
17350W        W89076  25.557   0.202  13.886
17351W        W89077  27.254  14.938  11.716
17352W        W89078  30.385  24.742  12.900
17353W        W89079  35.594  31.614   1.394
17354W        W89080  27.209  31.403   1.271
17355W        W89081  39.610  20.119   3.393
17356W        W89082  32.784  30.597  13.281
17357W        W89083  21.191  36.469  13.031
17358W        W89084  15.191  27.542  12.586
17359W        W89085   4.749  33.054   0.005
17360W        W89086  17.039  23.067  13.779
17361W        W89087   1.351  34.909   3.878
17362W        W89088   1.360  18.739   0.445
17363W        W89089  10.005  35.375  13.621
17364W        W89090  28.462  36.071  10.894
17365W        W89091  11.347  39.818  14.398
17366W        W89092  40.395   2.489   3.281
17367W        W89093   3.281  16.782   2.342
17368W        W89094  41.022  14.862   0.901
17369W        W89095  44.363  34.808  11.181
17370W        W89096  24.076   7.630   4.514
17371W        W89097  33.318  28.914   0.855
17372W        W89098  18.252  37.699   2.256
17373W        W89099   4.230  19.126   4.678
17374W        W89100   1.990  15.089   3.631
17375W        W89101  21.286  27.441   0.118
17376W        W89102  33.428  19.662   2.785
17377W        W89103   0.990  25.681  12.062
17378W        W89104  18.712   4.950  12.486
17379W        W89105  40.344  11.694   4.550
17380W        W89106  14.814   2.164  11.183
17381W        W89107   3.082   9.193   3.523
17382W        W89108  28.106  16.376   1.374
17383W        W89109  35.198   9.809   3.619
17384W        W89110  40.519   9.201   1.431
17385W        W89111  27.224  29.548  12.464
17386W        W89112  23.408  39.998   4.008
17387W        W89113  20.768  27.261  14.283
17388W        W89114  26.207   5.328  11.694
17389W        W89115   6.358   2.373   1.769
17390W        W89116  19.801   6.765  13.339
17391W        W89117  23.124  18.619  10.762
17392W        W89118  21.597  18.575   1.901
17393W        W89119  29.457   4.055   4.128
17394W        W89120  42.694  41.766   2.308
17395W        W89121  36.104  44.723  13.358
17396W        W89122  12.148   6.139   4.846
17397W        W89123  43.560  35.005   1.742
17398W        W89124  13.101   2.855   4.603
17399W        W89125   5.342  19.466  14.443
17400W        W89126   0.337  30.925   3.570
17401W        W89127  22.781  32.642  12.421
17402W        W89128  32.364   9.233   2.370
17403W        W89129   7.307  35.180   4.775
17404W        W89130   7.763  40.376  12.145
17405W        W89131  30.469  17.075  12.169
17406W        W89132   7.999  16.302  12.367
17407W        W89133  25.001  13.054   4.312
17408W        W89134  25.160   1.861  14.543
17409W        W89135  18.138  35.563   0.740
17410W        W89136  11.278  40.870   4.120
17411W        W89137  22.125  15.618   1.407
17412W        W89138  27.518   4.963  14.026
17413W        W89139  42.795  15.571  13.829
17414W        W89140   5.520  37.705   3.308
17415W        W89141  10.847  34.368   0.424
17416W        W89142  43.930   1.379  12.805
17417W        W89143  18.801  33.805  11.481
17418W        W89144   0.307   6.394  10.790
17419W        W89145   4.868  27.914   4.149
17420W        W89146   5.687  19.359   3.134
17421W        W89147   2.746  17.089  13.601
17422W        W89148  17.628  26.317   3.090
17423W        W89149  26.965  42.834   1.348
17424W        W89150   1.725   6.249  13.467
17425W        W89151  27.854  29.277   0.960
17426W        W89152  34.383  42.721   2.447
17427W        W89153  15.139  26.256  14.693
17428W        W89154  29.011   1.896   4.527
17429W        W89155  31.693   5.016   3.788
17430W        W89156  13.904  29.092  12.037
17431W        W89157  42.072  30.577  14.204
17432W        W89158  36.893  12.755   0.648
17433W        W89159  39.757  41.895  14.234
17434W        W89160  38.115  43.391  11.163
17435W        W89161  27.535  15.279   1.235
17436W        W89162   4.814  22.249  11.549
17437W        W89163  15.777  16.094   3.364
17438W        W89164  32.658  33.411  14.384
17439W        W89165  40.333  13.800   3.186
17440W        W89166  34.887   0.280  12.790
17441W        W89167  17.797  13.318   3.316
17442W        W89168  24.249  32.955  10.604
17443W        W89169   6.248   3.217   2.430
17444W        W89170  36.405   2.355  12.948
17445W        W89171  11.892  35.941   4.586
17446W        W89172   7.309   1.301   4.778
17447W        W89173  15.318  36.989   5.612
17448W        W89174   3.723  29.560   3.384
17449W        W89175   6.705  44.929   0.930
17450W        W89176  28.414  44.462   4.841
17451W        W89177  16.639   7.396   3.238
17452W        W89178   5.489  41.270   4.980
17453W        W89179  35.876  23.541   4.521
17454W        W89180  32.757  10.061  14.347
17455W        W89181  37.994  35.130  14.002
17456W        W89182   5.664  13.726  13.348
17457W        W89183  28.292  43.224   1.895
17458W        W89184  22.417  36.335   1.345
17459W        W89185  31.663  41.912   1.241
17460W        W89186  38.120  28.995  13.272
17461W        W89187  38.385  30.695   1.257
17462W        W89188  16.566  10.298  10.667
17463W        W89189  27.612  41.135   2.638
17464W        W89190  22.991  42.287   1.983
17465W        W89191  11.552  32.397   3.995
17466W        W89192  24.039   1.850   4.050
17467W        W89193  28.205  14.725  13.049
17468W        W89194   4.577  15.423  12.902
17469W        W89195  22.104   0.727  10.795
17470W        W89196  42.228  33.499  14.448
17471W        W89197  42.577  44.812  12.494
17472W        W89198  23.481   0.262   0.976
17473W        W89199  16.724  13.745   4.282
17474W        W89200  30.023  14.103   4.944
17475W        W89201  33.100  17.711  10.682
17476W        W89202  19.958  32.415   0.619
17477W        W89203  39.700  39.794   1.919
17478W        W89204  27.090  12.159  12.075
17479W        W89205  23.153  11.142   1.893
17480W        W89206  12.185  44.456  13.962
17481W        W89207  32.202  28.128  12.904
17482W        W89208  17.093  24.203   4.508
17483W        W89209  38.603  38.770  13.824
17484W        W89210  15.701  39.506  12.325
17485W        W89211  26.900  12.552  14.876
17486W        W89212   9.697  22.506  14.298
17487W        W89213  28.449  26.042   4.744
17488W        W89214  13.274   3.472  11.939
17489W        W89215  34.539  36.356  11.637
17490W        W89216   2.972  13.244  13.821
17491W        W89217  38.100  13.286  12.057
17492W        W89218  34.646  23.289  14.344
17493W        W89219  26.372  27.305   4.909
17494W        W89220  10.692  39.934   2.319
17495W        W89221  14.682  11.869  12.938
17496W        W89222  12.201  20.039  11.573
17497W        W89223  36.585  32.103  12.345
17498W        W89224  17.316  44.292  11.978
17499W        W89225  44.456  35.587   3.673
17500W        W89226  31.865  27.840   1.011
17501W        W89227  13.707   0.242   0.264
17502W        W89228  36.292  43.382   0.524
17503W        W89229  13.660  21.038   1.485
17504W        W89230  29.728  10.866   2.729
17505W        W89231   1.856   5.407   2.809
17506W        W89232  41.502  30.148   4.520
17507W        W89233  14.227  22.581  10.933
17508W        W89234  33.888   4.829   3.727
17509W        W89235  28.082  16.604   2.211
17510W        W89236   7.729  16.406   4.166
17511W        W89237  35.068   0.229   1.820
17512W        W89238  35.369   1.903   4.169
17513W        W89239  13.753  20.461   2.344
17514W        W89240  23.922  22.025  14.949
17515W        W89241  35.024  35.033   4.627
17516W        W89242  15.227   7.032   1.313
17517W        W89243   8.233  25.429  10.398
17518W        W89244   4.455  35.446   1.760
17519W        W89245  12.277   9.790   1.436
17520W        W89246   2.722  26.115  12.708
17521W        W89247  21.588   8.588  13.398
17522W        W89248  31.370  42.380   4.980
17523W        W89249  25.065  17.524   2.278
17524W        W89250   8.607  23.750  12.471
17525W        W89251  12.917   6.912   1.499
17526W        W89252  30.289  15.092  14.363
17527W        W89253  37.040  34.693  13.898
17528W        W89254  38.489  11.232  11.480
17529W        W89255  35.601   8.495  10.818
17530W        W89256  41.360  42.885   1.205
17531W        W89257   7.062   4.983  11.631
17532W        W89258  25.690  21.218  12.208
17533W        W89259   4.407  15.217  14.006
17534W        W89260  41.505   0.387  12.130
17535W        W89261  44.016   1.838   3.598
17536W        W89262  20.228  28.662   3.711
17537W        W89263   6.908  22.157  14.984
17538W        W89264  22.800  12.514  11.120
17539W        W89265  14.805   8.205   3.311
17540W        W89266   9.153  30.174  13.568
17541W        W89267  10.855  37.373  10.792
17542W        W89268  21.236  19.036  11.131
17543W        W89269  25.065  37.938   1.331
17544W        W89270  24.701  25.102   2.831
17545W        W89271  13.394  39.851   4.760
17546W        W89272  24.244  39.986  11.571
17547W        W89273   7.372   4.799   9.375
17548W        W89274  40.011  10.360   5.086
17549W        W89275  26.693  32.016  14.919
17550W        W89276  20.252  21.758  12.491
17551W        W89277  35.757  44.776  14.199
17552W        W89278   3.445  39.283  14.429
17553W        W89279  37.015  22.199   3.296
17554W        W89280   1.306  21.186   0.154
17555W        W89281  14.204  22.468  12.896
17556W        W89282  10.204  14.529  13.733
17557W        W89283   7.665  17.975   4.167
17558W        W89284  22.158  27.518   1.380
17559W        W89285  38.342  35.211  14.878
17560W        W89286  20.441   1.226   0.381
17561W        W89287  18.473  21.677  13.565
17562W        W89288   0.964  19.229   4.627
17563W        W89289  20.150   8.384  13.407
17564W        W89290   6.740  19.084  11.082
17565W        W89291   1.247  10.445   0.714
17566W        W89292  37.727  23.186   4.941
17567W        W89293  40.529  35.537   0.331
17568W        W89294  28.761  39.901  11.533
17569W        W89295   4.847  42.388  14.052
17570W        W89296  44.430  42.254   3.270
17571W        W89297  37.629   5.932   3.733
17572W        W89298   2.204   5.124  14.504
17573W        W89299   3.330   7.167  11.196
17574W        W89300  39.169   6.198   1.283
17575W        W89301  25.189  39.714  11.490
17576W        W89302   8.314  11.335   0.451
17577W        W89303   7.691  27.116  14.851
17578W        W89304   3.969   4.201  13.084
17579W        W89305  13.850  26.740  10.724
17580W        W89306  14.055  37.851   4.710
17581W        W89307  14.770  18.121   9.723
17582W        W89308  40.600   0.379   1.940
17583W        W89309   8.695  36.411   3.770
17584W        W89310  40.736   5.894  13.902
17585W        W89311  11.607  42.490   1.819
17586W        W89312  33.599  15.093  11.018
17587W        W89313  11.526  21.686   0.405
17588W        W89314  28.421   4.150   2.928
17589W        W89315   9.763  38.302  13.511
17590W        W89316  10.592  11.876   2.821
17591W        W89317   5.745  17.583   3.147
17592W        W89318  12.813  25.833   3.702
17593W        W89319  41.589  30.645  14.026
17594W        W89320  12.275   5.849  12.366
17595W        W89321  36.933   5.051   3.797
17596W        W89322   1.745  39.108   3.230
17597W        W89323  26.093  29.425  13.988
17598W        W89324   2.707   1.353  10.826
17599W        W89325   4.171  35.014   0.186
17600W        W89326   3.338   4.353   3.935
17601W        W89327  43.836  31.162  13.284
17602W        W89328  35.556  41.580  14.872
17603W        W89329  37.962  25.431  14.439
17604W        W89330  40.427  36.289  10.802
17605W        W89331  31.731  24.171   3.876
17606W        W89332  21.990  25.139  12.338
17607W        W89333  15.105   6.468  13.415
17608W        W89334  17.973  29.201  14.510
17609W        W89335  34.620  19.979   0.875
17610W        W89336   2.474  41.045   4.172
17611W        W89337   5.902  26.102  14.953
17612W        W89338  27.678   2.515   3.761
17613W        W89339  17.328  34.836  12.115
17614W        W89340   1.519  16.643   1.714
17615W        W89341  32.523  39.432   4.696
17616W        W89342   3.145  17.655   4.112
17617W        W89343  21.051  11.799  12.827
17618W        W89344   7.135  15.758   0.816
17619W        W89345  20.130  37.050   4.556
17620W        W89346  32.105  22.950   2.836
17621W        W89347  28.939  36.349  13.349
17622W        W89348  24.847  25.062  11.574
17623W        W89349  33.910  43.563   5.466
17624W        W89350  15.154   7.183  11.430
17625W        W89351   8.301   8.700   4.525
17626W        W89352  30.156  12.783   4.803
17627W        W89353  29.005  28.944   1.102
17628W        W89354  39.866   3.465  13.996
17629W        W89355  44.303  21.668  12.166
17630W        W89356  19.177   6.365  14.531
17631W        W89357  25.877   7.145  10.907
17632W        W89358  34.031  21.652   0.058
17633W        W89359  37.184  36.075   1.960
17634W        W89360   3.728   0.860  13.533
17635W        W89361  41.718  37.616  13.797
17636W        W89362   5.154  22.598   4.482
17637W        W89363  27.219  36.089   4.828
17638W        W89364  44.501   8.943  12.481
17639W        W89365  42.320  12.908   4.630
17640W        W89366  17.131  27.535   0.220
17641W        W89367  29.819   3.345  12.727
17642W        W89368  31.919  27.573   3.769
17643W        W89369  27.635  33.100  11.933
17644W        W89370  12.129   3.363   0.347
17645W        W89371  11.178  33.626  13.273
17646W        W89372  11.810   9.136   1.523
17647W        W89373  27.287  27.932  11.991
17648W        W89374  18.127   1.917   1.339
17649W        W89375   5.683  29.183  11.966
17650W        W89376  33.287  44.229   3.390
17651W        W89377  22.090  40.345   0.780
17652W        W89378  38.875  35.813  11.667
17653W        W89379  26.130   4.902  10.996
17654W        W89380  41.989  23.502  14.343
17655W        W89381   1.343  42.997   1.506
17656W        W89382   6.404  31.815   1.653
17657W        W89383  35.388   5.410   3.966
17658W        W89384   8.917  25.662  13.060
17659W        W89385   8.537  10.283   4.650
17660W        W89386  16.083  28.651   3.944
17661W        W89387   5.358  34.012   3.208
17662W        W89388  34.134  13.273   2.453
17663W        W89389  18.690  21.802   3.370
17664W        W89390  40.402  44.736  12.561
17665W        W89391  19.677  13.283  11.150
17666W        W89392  44.079   1.373  11.147
17667W        W89393   9.892  36.938   2.896
17668W        W89394  29.764  44.508   1.259
17669W        W89395  27.453  43.473   1.469
17670W        W89396   2.817  41.430  13.817
17671W        W89397  10.272  11.240   1.206
17672W        W89398   3.689  37.862  10.754
17673W        W89399  10.614  13.772  10.774
17674W        W89400  30.478  41.895  10.096
17675W        W89401  38.760  13.403  12.942
17676W        W89402  13.774  37.499   0.834
17677W        W89403   9.271  30.980   3.534
17678W        W89404   1.195   6.838  11.671
17679W        W89405  29.633  37.528  12.055
17680W        W89406   9.211   8.170   1.848
17681W        W89407  43.153  11.780   4.160
17682W        W89408  29.061  40.789  13.005
17683W        W89409  17.893  35.226  11.217
17684W        W89410  38.079   4.361  10.632
17685W        W89411  39.480  31.032  10.917
17686W        W89412  36.181  11.113   2.755
17687W        W89413  14.999  38.374   0.307
17688W        W89414  28.531   4.673  13.963
17689W        W89415  17.744   1.821   4.834
17690W        W89416  43.314  14.398   4.650
17691W        W89417  21.581  43.578  12.312
17692W        W89418  12.018  28.269  12.117
17693W        W89419  43.729  29.544  12.515
17694W        W89420  44.013  32.688  11.690
17695W        W89421  37.839  41.373   0.417
17696W        W89422   2.953   2.732  14.353
17697W        W89423  11.971   0.495   2.717
17698W        W89424   9.827   1.459   3.249
17699W        W89425  34.072   7.667  14.958
17700W        W89426  34.685  40.871  11.649
17701W        W89427  15.394  38.739  13.585
17702W        W89428  35.942  14.585  12.940
17703W        W89429  22.399   1.802  11.575
17704W        W89430  20.510   6.823   2.228
17705W        W89431   3.872  44.004   3.593
17706W        W89432   3.452  16.737   4.614
17707W        W89433  16.851  29.905  12.566
17708W        W89434  31.968  35.622  12.923
17709W        W89435  17.767  44.061  13.668
17710W        W89436  22.603  44.777   1.806
17711W        W89437   4.047   0.957  13.098
17712W        W89438  29.533  21.199   0.307
17713W        W89439  28.123  30.150   0.295
17714W        W89440  32.310  13.139  13.898
17715W        W89441   8.738   1.318   0.326
17716W        W89442  25.155  11.880   2.585
17717W        W89443   1.901  42.602   2.383
17718W        W89444  24.688  11.402   1.747
17719W        W89445  22.643   4.412  14.486
17720W        W89446  31.010   9.718   2.303
17721W        W89447  31.852  22.227   0.411
17722W        W89448  14.766  26.196   2.119
17723W        W89449   3.430  41.930  11.173
17724W        W89450  38.774   0.937   4.768
17725W        W89451  31.990  20.688   1.719
17726W        W89452  10.388  17.592   3.647
17727W        W89453   7.263  20.300  14.757
17728W        W89454  38.898  20.070  11.643
17729W        W89455  41.349  16.434  14.774
17730W        W89456   6.972  33.013   1.185
17731W        W89457   3.893   2.758  14.875
17732W        W89458  18.064  12.773  11.063
17733W        W89459  25.489   8.301  13.376
17734W        W89460  43.138   6.212  10.308
17735W        W89461  37.088  35.974   3.741
17736W        W89462  29.260  32.942  14.498
17737W        W89463   3.709  32.329  13.489
17738W        W89464  34.636  17.092  14.847
17739W        W89465   8.315  44.714   3.417
17740W        W89466  41.324  15.311  10.517
17741W        W89467   3.294  17.531  14.953
17742W        W89468  38.985  13.327  11.004
17743W        W89469  35.977  33.986   3.901
17744W        W89470   8.812   7.690   3.879
17745W        W89471  10.365   9.279   3.936
17746W        W89472  24.596  33.849   3.260
17747W        W89473  12.658  22.214   4.703
17748W        W89474   5.732  38.118  12.383
17749W        W89475  30.942   8.855   1.573
17750W        W89476  14.234  17.539  12.929
17751W        W89477  29.148  14.285   3.780
17752W        W89478  44.945  27.847   3.683
17753W        W89479  14.187  22.527  11.470
17754W        W89480  44.004  29.129  13.468
17755W        W89481  35.133  34.592  11.762
17756W        W89482  15.438  13.528  14.856
17757W        W89483  44.541  30.155  13.898
17758W        W89484   1.913   2.324   0.264
17759W        W89485  23.258  32.830  11.494
17760W        W89486   1.130   7.307   2.772
17761W        W89487  39.720  36.019   3.501
17762W        W89488  35.812  22.598   2.255
17763W        W89489  36.865  27.363  11.726
17764W        W89490  31.974   0.826   2.686
17765W        W89491  20.005  20.681   5.102
17766W        W89492   5.502  11.286  11.152
17767W        W89493  10.685  21.672   4.495
17768W        W89494  22.637   8.231  12.476
17769W        W89495  10.159  10.421  13.804
17770W        W89496   5.795  27.688  10.964
17771W        W89497  25.812  35.386  14.185
17772W        W89498  39.588  31.251   1.146
17773W        W89499   7.878  38.586  10.836
17774W        W89500  26.638  43.462   1.811
17775W        W89501  24.491  36.430  13.237
17776W        W89502  44.092  11.090  13.344
17777W        W89503  12.767  36.685   2.825
17778W        W89504  34.805  32.245  11.173
17779W        W89505  34.809  12.652   3.228
17780W        W89506   4.197   6.160  14.439
17781W        W89507  18.142   6.408  14.503
17782W        W89508  32.859  17.692   2.643
17783W        W89509  42.602  27.510  11.758
17784W        W89510  40.908  29.198   0.912
17785W        W89511  21.501  11.927  12.275
17786W        W89512  44.397   0.978  12.073
17787W        W89513  34.653   0.576   2.664
17788W        W89514   3.688  17.262   3.877
17789W        W89515  29.504  25.861  12.858
17790W        W89516  37.392   9.672   4.736
17791W        W89517   3.166  24.186   0.809
17792W        W89518  21.619  44.809  13.598
17793W        W89519   3.179   1.451  14.344
17794W        W89520  41.225   6.896  14.707
17795W        W89521  28.380  29.946   3.893
17796W        W89522  19.656  33.725   5.044
17797W        W89523  14.816  17.192   0.928
17798W        W89524  41.676  12.729   0.208
17799W        W89525  16.580  27.621  14.595
17800W        W89526  21.688  43.570   2.328
17801W        W89527  26.967  21.869   4.480
17802W        W89528  21.040  26.564   2.890
17803W        W89529   1.326  16.734  12.834
17804W        W89530  35.338  32.537   3.162
17805W        W89531  36.165  27.138  14.268
17806W        W89532  11.388  10.294  11.379
17807W        W89533  31.941  38.504   0.047
17808W        W89534   7.457  43.491   0.451
17809W        W89535  44.293  24.768  11.141
17810W        W89536   7.345   7.500   3.752
17811W        W89537  15.293  15.207   0.898
17812W        W89538  19.371   6.444   3.065
17813W        W89539  39.017  44.358  13.307
17814W        W89540   3.623  12.222   0.365
17815W        W89541  31.641   1.398  13.875
17816W        W89542  34.355  34.076   3.202
17817W        W89543  15.108  17.973  13.836
17818W        W89544   7.776  10.576  11.092
17819W        W89545  12.792  31.115   1.884
17820W        W89546  32.088  28.674  12.863
17821W        W89547  33.488  11.059   4.044
17822W        W89548  15.646  17.620   1.329
17823W        W89549  41.921  42.465  13.312
17824W        W89550  39.017  32.803   0.831
17825W        W89551   9.228  28.190  14.993
17826W        W89552  36.555  34.211   4.282
17827W        W89553   6.957   0.246  13.921
17828W        W89554   6.304   3.014   0.656
17829W        W89555   0.230  17.801   2.222
17830W        W89556  19.236  42.773  10.382
17831W        W89557  38.431  44.671   2.482
17832W        W89558  35.633  22.198  14.470
17833W        W89559  35.061  10.706  12.952
17834W        W89560  40.759  14.338  14.359
17835W        W89561  44.851  25.034   3.670
17836W        W89562   0.742  15.560  11.153
17837W        W89563  40.201  14.165  10.298
17838W        W89564  20.826  36.252   2.236
17839W        W89565  25.093  43.885  12.915
17840W        W89566  11.372  41.146  14.065
17841W        W89567   3.218   1.432  12.892
17842W        W89568  16.016   9.710  13.998
17843W        W89569  22.532  19.839  12.554
17844W        W89570  39.114  18.182  10.642
17845W        W89571  33.324  13.590  14.281
17846W        W89572   4.408  16.157   0.354
17847W        W89573  11.296   7.282   2.855
17848W        W89574  28.631  34.356  12.578
17849W        W89575  31.637  42.210  13.229
17850W        W89576  31.543  39.785   3.586
17851W        W89577   5.692  17.399  11.995
17852W        W89578  36.567  31.341   3.223
17853W        W89579  40.368  11.237   1.222
17854W        W89580  30.952  16.164   0.316
17855W        W89581   8.868   5.902   2.808
17856W        W89582   0.392   3.680   2.832
17857W        W89583  19.279  13.900   2.493
17858W        W89584  39.431   7.702  12.045
17859W        W89585  18.153  41.788  11.413
17860W        W89586  17.293  31.084  14.355
17861W        W89587  35.071   2.862   4.730
17862W        W89588   3.343  37.808  11.689
17863W        W89589   6.854   2.959   1.387
17864W        W89590  30.310  25.022  10.854
17865W        W89591  15.235  31.011  13.690
17866W        W89592  41.575  21.062  13.365
17867W        W89593  24.027  32.233  11.560
17868W        W89594  38.290   0.365   1.762
17869W        W89595   8.222  28.262  12.085
17870W        W89596   8.448  43.041   1.270
17871W        W89597  25.785  17.137   3.303
17872W        W89598  35.148  23.150  13.531
17873W        W89599   7.908  17.120   3.215
17874W        W89600   0.116  13.074  11.312
17875W        W89601  28.512  27.145   3.027
17876W        W89602   8.227  44.079  14.405
17877W        W89603  12.911  27.217   3.838
17878W        W89604   1.865  33.862   4.570
17879W        W89605  33.446  22.507   4.569
17880W        W89606  33.466  17.173  14.247
17881W        W89607  20.583   6.319  12.018
17882W        W89608  21.684  24.745   2.641
17883W        W89609  30.655  44.307  13.581
17884W        W89610  35.511  43.379  13.306
17885W        W89611  43.392   2.898  13.579
17886W        W89612  42.506  36.854  13.464
17887W        W89613   1.685   9.756  11.054
17888W        W89614  43.494  10.766  14.421
17889W        W89615   1.166  36.930   2.381
17890W        W89616  44.000  33.203  11.656
17891W        W89617   8.914  28.778  12.454
17892W        W89618  41.096   4.455  12.200
17893W        W89619  19.103  30.062  13.167
17894W        W89620  13.539   4.361  11.953
17895W        W89621   5.784   0.409   0.424
17896W        W89622   6.901  38.771   1.755
17897W        W89623  32.714  35.436  11.081
17898W        W89624  33.658   9.216   4.032
17899W        W89625  15.665  31.615  14.001
17900W        W89626   2.139  40.416  13.298
17901W        W89627  24.679  29.680   4.907
17902W        W89628   3.209  17.317   3.699
17903W        W89629  10.251  24.158  11.932
17904W        W89630  38.954  18.317  11.511
17905W        W89631  23.329  13.169   2.484
17906W        W89632  22.519   2.427   0.752
17907W        W89633  26.118  34.116   1.493
17908W        W89634  36.135  41.573   0.825
17909W        W89635  10.559  19.230   3.938
17910W        W89636  17.401  44.285   3.600
17911W        W89637  30.485  36.313  11.241
17912W        W89638  10.753  16.344  13.371
17913W        W89639  19.176  15.449   0.904
17914W        W89640  18.360  25.498  13.796
17915W        W89641  39.797   1.371   1.040
17916W        W89642  26.203  41.101   2.759
17917W        W89643   2.838  42.253   0.376
17918W        W89644  14.733  27.144  11.537
17919W        W89645  42.805  35.407  11.115
17920W        W89646  11.688  38.901  14.261
17921W        W89647  17.136  32.059   1.714
17922W        W89648  31.042  36.160   4.060
17923W        W89649  18.301   4.995   3.207
17924W        W89650  35.735  29.581   0.408
17925W        W89651  33.426  13.416   3.687
17926W        W89652  43.965  18.157  13.843
17927W        W89653  37.870  37.334   4.607
17928W        W89654   9.709  25.260   4.853
17929W        W89655   5.690  25.104  10.697
17930W        W89656  19.901  34.800   0.234
17931W        W89657  33.939  38.529   0.369
17932W        W89658  23.106   7.257   2.189
17933W        W89659  41.583  44.434   1.937
17934W        W89660  20.205  31.922   2.742
17935W        W89661  32.049  22.225  14.836
17936W        W89662   3.862   3.659  13.897
17937W        W89663  37.372  18.487  12.099
17938W        W89664  16.535  18.509  14.041
17939W        W89665  34.586  20.315   4.239
17940W        W89666  33.390  14.046  14.489
17941W        W89667  16.618  25.315  13.501
17942W        W89668   2.810  26.168  13.197
17943W        W89669   7.215  19.718   0.379
17944W        W89670  11.957  24.455   0.363
17945W        W89671  16.150   0.349  14.273
17946W        W89672  29.659  41.037   2.332
17947W        W89673  34.708  24.290   0.332
17948W        W89674  10.668  35.595   3.606
17949W        W89675  40.695  16.085   4.156
17950W        W89676   1.259  35.885   0.550
17951W        W89677  44.776  11.378   1.852
17952W        W89678  27.404   7.380  14.882
17953W        W89679  39.734  37.102   2.416
17954W        W89680  18.018  38.293  14.439
17955W        W89681  10.772  15.372   2.393
17956W        W89682  24.194  35.109   4.209
17957W        W89683  25.199  31.923   1.871
17958W        W89684  15.836   2.512   0.360
17959W        W89685   3.599   3.467  12.935
17960W        W89686  32.521  13.082  12.508
17961W        W89687   2.873  18.318   3.607
17962W        W89688   8.792  17.660   2.886
17963W        W89689  34.524  30.642   3.259
17964W        W89690  24.306   4.804   4.041
17965W        W89691  21.032   3.294   2.447
17966W        W89692  34.331  44.987   3.711
17967W        W89693  13.407   8.712   1.483
17968W        W89694  38.449   0.709   4.404
17969W        W89695  36.034  18.864   3.493
17970W        W89696   3.968  41.300   3.871
17971W        W89697   9.864  12.848   0.823
17972W        W89698  22.060   5.388   4.225
17973W        W89699  26.077   7.753   3.396
17974W        W89700   3.860  18.056   3.004
17975W        W89701   0.385  11.063  11.595
17976W        W89702  32.095   7.061   0.853
17977W        W89703   6.992  28.878  11.884
17978W        W89704  29.021   2.537   3.386
17979W        W89705  10.537   1.242  14.266
17980W        W89706  30.552   9.696   3.716
17981W        W89707  25.439  38.847   2.275
17982W        W89708  15.485  13.407  14.295
17983W        W89709   3.997  18.096   0.866
17984W        W89710  28.062  25.088  13.540
17985W        W89711  25.773  20.281   4.339
17986W        W89712  24.068  35.201  12.955
17987W        W89713  28.504  37.395   0.131
17988W        W89714  11.674   3.952   3.661
17989W        W89715  39.791  29.039  12.192
17990W        W89716  26.201  22.691  13.717
17991W        W89717   3.515  41.834   0.319
17992W        W89718  22.477  27.219   1.861
17993W        W89719  43.512  31.912   3.818
17994W        W89720  30.165   8.892  11.755
17995W        W89721  43.808  21.590  13.732
17996W        W89722  15.591  15.904   0.921
17997W        W89723  29.919   7.887   4.599
17998W        W89724  12.412  15.325  12.068
17999W        W89725   0.394   4.658   1.031
18000W        W89726  13.396  40.613  14.291
18001W        W89727  21.302  20.583   1.843
18002W        W89728  16.536  38.316  10.719
18003W        W89729  12.851  30.151  12.505
18004W        W89730  25.232  35.564   2.229
18005W        W89731  39.031  28.664   0.457
18006W        W89732  36.951  39.499   0.336
18007W        W89733  16.729  10.873   0.744
18008W        W89734   1.949  17.986   2.135
18009W        W89735  16.699  17.358   2.405
18010W        W89736  37.129  39.953   0.501
18011W        W89737  40.942  15.373   4.630
18012W        W89738  34.126  29.933  14.947
18013W        W89739  31.005  17.729  14.736
18014W        W89740  31.996  28.603  13.862
18015W        W89741  13.239  29.947   1.311
18016W        W89742  36.814  11.259   1.653
18017W        W89743  18.019  43.604   3.020
18018W        W89744   5.993   4.964   2.141
18019W        W89745   1.361  27.750   3.548
18020W        W89746  26.718  19.005  11.027
18021W        W89747   7.901   4.187  12.321
18022W        W89748  15.081   7.622  11.098
18023W        W89749  25.370  19.773   9.917
18024W        W89750  18.545  42.763   4.580
18025W        W89751  25.954  36.070  13.587
18026W        W89752  35.577  12.659  12.662
18027W        W89753  10.803   3.667  13.936
18028W        W89754   0.516  10.295  12.989
18029W        W89755   7.180   5.150   0.800
18030W        W89756  13.363  37.065  12.393
18031W        W89757  44.420  10.442  10.273
18032W        W89758  33.581  14.065   3.412
18033W        W89759  35.513  37.020   1.936
18034W        W89760  22.218  37.570   4.686
18035W        W89761  13.226  18.069   5.249
18036W        W89762   5.438  17.180  14.114
18037W        W89763  10.850  12.173  14.520
18038W        W89764  24.522  26.995  10.291
18039W        W89765  41.325  17.690   0.461
18040W        W89766  29.975   0.282  11.601
18041W        W89767  21.811   9.853  14.237
18042W        W89768  44.423  42.430  14.319
18043W        W89769  12.712  42.363   4.395
18044W        W89770   6.914  18.686   0.973
18045W        W89771  25.155  10.318  11.521
18046W        W89772  43.045  27.184   4.194
18047W        W89773  10.225  15.184  13.656
18048W        W89774  11.563  24.176  12.524
18049W        W89775   2.704  15.809  11.135
18050W        W89776  19.149   0.197   2.643
18051W        W89777  42.000  17.640  12.507
18052W        W89778  18.657  12.400  11.182
18053W        W89779  42.346  10.403  13.425
18054W        W89780  11.380   3.651  12.400
18055W        W89781  14.241  34.501   1.727
18056W        W89782   0.336  23.488   0.382
18057W        W89783  36.855  22.269   3.785
18058W        W89784   0.500   7.726  14.130
18059W        W89785  42.994  32.466  13.552
18060W        W89786   0.634  27.935   1.182
18061W        W89787  43.659  11.419  11.592
18062W        W89788  43.454   0.326  14.010
18063W        W89789   9.210  20.925  11.281
18064W        W89790  22.726  13.069   3.650
18065W        W89791  28.034  22.641   1.050
18066W        W89792  39.455  14.069   2.217
18067W        W89793   0.970   7.956  14.849
18068W        W89794  42.993  16.052  13.912
18069W        W89795  19.064   6.167  13.503
18070W        W89796  27.430  14.473   4.456
18071W        W89797  37.099  43.349  12.992
18072W        W89798  11.276  24.981   2.939
18073W        W89799  38.030  32.070  13.501
18074W        W89800  13.275  36.858  13.835
18075W        W89801  43.480  16.109  10.709
18076W        W89802   8.825   9.277   4.740
18077W        W89803  37.304   9.317   1.775
18078W        W89804  16.196   7.383   2.754
18079W        W89805  29.114  15.037   3.925
18080W        W89806  43.276  26.201   4.337
18081W        W89807  24.369   6.936  14.874
18082W        W89808  42.206  33.858   0.805
18083W        W89809   7.158  11.583  10.683
18084W        W89810  16.599  43.577   4.186
18085W        W89811  16.177  23.649   4.650
18086W        W89812  21.631  42.342   3.755
18087W        W89813  24.771  29.633   2.409
18088W        W89814   3.716  43.641   0.024
18089W        W89815  23.709   1.722   3.606
18090W        W89816  39.017   2.768   0.224
18091W        W89817  30.207  40.584  12.032
18092W        W89818  27.361   4.832   4.000
18093W        W89819  19.270   4.124  11.546
18094W        W89820  29.882   4.963   1.406
18095W        W89821  19.639  35.608  11.034
18096W        W89822  21.913  30.070   4.243
18097W        W89823  35.851  44.231  13.336
18098W        W89824   6.364  43.500   1.345
18099W        W89825   3.995  10.258   2.438
18100W        W89826  33.361  18.524   2.636
18101W        W89827  13.553  19.849   4.380
18102W        W89828  44.546  29.678   4.148
18103W        W89829   6.928  36.941  11.528
18104W        W89830  33.752   2.701   3.704
18105W        W89831  22.247  37.598   1.820
18106W        W89832  14.608  40.356  13.955
18107W        W89833  21.737  13.807  13.367
18108W        W89834  22.072  42.952   3.131
18109W        W89835  38.086  39.075   2.857
18110W        W89836   8.921  35.534  13.799
18111W        W89837  22.196  43.797  11.723
18112W        W89838  40.579   5.745   2.247
18113W        W89839  31.070   7.557  14.837
18114W        W89840  35.052  17.174  12.319
18115W        W89841  12.867   7.975  13.670
18116W        W89842  12.827  11.687   0.769
18117W        W89843  24.621   3.833  14.910
18118W        W89844   2.347   3.298  10.589
18119W        W89845  34.634  15.637   1.236
18120W        W89846  27.239  11.138  10.866
18121W        W89847  19.018  21.292  14.054
18122W        W89848  27.141   2.773   1.753
18123W        W89849  33.557  40.912  13.040
18124W        W89850  41.566  44.241   2.438
18125W        W89851  26.028   3.010   0.302
18126W        W89852   6.581  40.784   3.771
18127W        W89853  36.112  35.651   3.292
18128W        W89854  38.018  27.676  11.525
18129W        W89855   6.880  26.456   3.656
18130W        W89856   3.571  19.120   1.308
18131W        W89857  28.079  35.142  11.040
18132W        W89858  36.835   8.679   4.092
18133W        W89859  17.846  36.010   4.211
18134W        W89860  29.458  20.666   2.280
18135W        W89861   5.998  15.300  10.146
18136W        W89862  34.475  41.075  13.699
18137W        W89863  33.080  30.570   3.986
18138W        W89864  12.129  41.049  12.808
18139W        W89865  18.786  30.644  13.411
18140W        W89866  44.839   4.506  12.968
18141W        W89867  26.443  25.142   2.340
18142W        W89868  12.150   3.933  12.864
18143W        W89869  23.268  24.548  11.411
18144W        W89870  26.632  44.797  12.058
18145W        W89871  36.050  35.366  11.595
18146W        W89872  25.778  40.319   2.269
18147W        W89873  14.190  33.865  14.016
18148W        W89874  32.997   4.568   4.714
18149W        W89875   7.757   1.704   1.794
18150W        W89876   3.164   7.228  13.908
18151W        W89877  10.817  38.129   2.850
18152W        W89878  24.481  30.070  11.240
18153W        W89879  18.547  17.653   4.355
18154W        W89880  14.163  40.597  13.831
18155W        W89881  14.776  41.088  14.335
18156W        W89882  27.211  35.449  14.483
18157W        W89883  31.013  15.817   2.864
18158W        W89884  24.730  26.530   0.862
18159W        W89885  19.818  23.997  12.658
18160W        W89886  27.203  19.099  14.150
18161W        W89887  34.448  13.034   4.175
18162W        W89888  43.538  38.929   2.909
18163W        W89889   3.867  31.210   2.410
18164W        W89890  37.746  31.044   3.612
18165W        W89891  21.156  17.047   1.285
18166W        W89892   8.143  27.012   1.707
18167W        W89893  37.138  19.286   1.864
18168W        W89894  24.181   2.482  13.934
18169W        W89895  16.668  33.898  14.382
18170W        W89896   2.420   6.760   4.784
18171W        W89897   3.725  21.208  11.993
18172W        W89898  23.706  16.901  10.602
18173W        W89899  11.737  11.087   1.627
18174W        W89900  37.850  38.939   4.086
18175W        W89901  38.932  13.069   0.469
18176W        W89902  34.427  36.925   4.616
18177W        W89903  22.137  23.667   4.815
18178W        W89904  42.348  31.970  12.783
18179W        W89905   4.360   5.811   2.283
18180W        W89906  10.913   5.703   2.908
18181W        W89907  19.327  17.569  12.478
18182W        W89908   5.997  12.656   2.760
18183W        W89909  19.779  40.695  11.103
18184W        W89910   5.654   4.674  13.975
18185W        W89911  31.622  42.974   1.792
18186W        W89912  20.319  32.010   0.449
18187W        W89913  29.923  21.250  10.504
18188W        W89914  40.662  29.290   3.131
18189W        W89915  14.064  27.102  13.908
18190W        W89916  25.017  18.313   1.512
18191W        W89917  36.486  41.904   3.375
18192W        W89918  29.405   2.781  11.572
18193W        W89919   5.130  22.703   4.980
18194W        W89920  23.175  23.958  12.170
18195W        W89921   6.437  27.103   2.868
18196W        W89922  16.052   1.194  12.086
18197W        W89923  20.283  33.027  13.955
18198W        W89924  39.863  35.604  11.583
18199W        W89925   9.918  24.269   3.416
18200W        W89926  42.487  26.500   0.503
18201W        W89927  26.949   4.412   0.160
18202W        W89928  44.217  42.248   3.742
18203W        W89929  15.637  35.284   1.827
18204W        W89930  17.040  36.057  10.243
18205W        W89931   5.834   5.223   4.118
18206W        W89932  31.057  19.649   0.243
18207W        W89933  27.065  44.753  14.213
18208W        W89934  42.943  41.104  13.552
18209W        W89935  33.062  30.157   3.622
18210W        W89936   6.249  39.034  10.728
18211W        W89937  16.093  10.855  10.995
18212W        W89938  27.007   1.800  13.611
18213W        W89939  41.844  23.184   2.413
18214W        W89940   2.408  42.768  12.385
18215W        W89941  20.135   2.337  14.941
18216W        W89942  22.699   7.238  13.066
18217W        W89943  18.781  20.255   3.274
18218W        W89944  30.205  34.970  10.801
18219W        W89945   7.334  44.907   3.239
18220W        W89946  25.853  43.216   3.798
18221W        W89947  14.710   9.827   3.704
18222W        W89948  42.614  41.827   3.112
18223W        W89949   5.654  11.316  12.960
18224W        W89950  31.002  29.461   2.307
18225W        W89951  40.041  38.607   0.945
18226W        W89952  16.229  15.294  12.989
18227W        W89953  28.095  14.125  10.512
18228W        W89954  14.148   8.951  12.537
18229W        W89955  29.061  17.421   0.264
18230W        W89956  29.627  11.067  14.594
18231W        W89957  10.919  20.159  12.880
18232W        W89958   9.113  22.517  13.643
18233W        W89959   6.247  23.520  12.063
18234W        W89960  28.642  44.790   0.900
18235W        W89961  35.091  10.265   2.491
18236W        W89962  17.507  14.311  13.921
18237W        W89963  40.729  37.850  13.760
18238W        W89964  35.933  28.176   1.799
18239W        W89965  39.539   9.668  12.485
18240W        W89966  20.140  16.468   2.777
18241W        W89967  43.841   8.280  13.461
18242W        W89968  11.173  33.028   4.258
18243W        W89969  19.194  38.727  14.435
18244W        W89970   5.845  37.898  14.131
18245W        W89971  14.658  40.851  11.135
18246W        W89972  29.863   5.499  13.475
18247W        W89973  43.950  31.593   0.065
18248W        W89974  13.738  44.828  11.859
18249W        W89975   3.413  42.796  10.756
18250W        W89976  41.169  39.411   3.000
18251W        W89977  22.254  22.234  13.355
18252W        W89978  43.180  15.752  12.014
18253W        W89979   6.271  21.552   0.782
18254W        W89980  30.659  23.068  12.618
18255W        W89981  17.712   3.826  14.025
18256W        W89982  33.649  39.390  14.123
18257W        W89983  14.811  37.617  10.221
18258W        W89984  35.304  12.228  14.160
18259W        W89985  28.381  30.590  13.109
18260W        W89986   8.239  22.502  11.386
18261W        W89987   9.847  26.126   2.403
18262W        W89988  33.869  44.497   1.407
18263W        W89989  20.752  11.371   1.226
18264W        W89990  39.762   2.254  10.762
18265W        W89991  20.758  27.120   0.757
18266W        W89992  28.995  42.867  13.486
18267W        W89993   7.204  27.101  12.093
18268W        W89994  11.348  25.093   1.507
18269W        W89995   5.900  23.954   2.140
18270W        W89996   6.890   0.619   4.210
18271W        W89997  23.712  22.010  13.496
18272W        W89998  20.356  12.887  12.492
18273W        W89999  41.346  40.424   3.330
18274W        W90000  10.677  11.186   3.766
18275W        W90001  35.265  15.034  13.136
18276W        W90002  22.724   5.760   4.344
18277W        W90003   2.191  42.304   2.903
18278W        W90004   3.455   3.376   0.371
18279W        W90005  21.299  15.063   1.256
18280W        W90006  38.009  32.849   0.806
18281W        W90007  42.837  31.561   1.681
18282W        W90008  37.389   8.698   1.168
18283W        W90009  34.278  26.928   3.716
18284W        W90010   5.738  44.735  10.848
18285W        W90011  29.055   2.425  11.995
18286W        W90012   8.219  19.796  12.817
18287W        W90013  21.716  14.261   4.566
18288W        W90014  30.433  12.939   3.613
18289W        W90015   9.193  13.560   2.414
18290W        W90016   6.689  34.977  10.320
18291W        W90017  20.236  29.490  11.848
18292W        W90018  21.977  35.573  13.956
18293W        W90019  30.349   7.263  12.266
18294W        W90020   8.093  38.106  11.105
18295W        W90021   5.840  13.163  13.515
18296W        W90022  26.903  26.447  14.763
18297W        W90023  32.694   4.708   2.843
18298W        W90024   4.352  40.336   4.881
18299W        W90025  29.088  41.759  13.967
18300W        W90026  35.389  40.107   5.105
18301W        W90027  25.071  29.438  13.197
18302W        W90028  38.953   3.014  10.377
18303W        W90029   2.275  44.882  12.562
18304W        W90030  13.190  36.853   0.667
18305W        W90031  28.962  32.401   0.280
18306W        W90032  34.569  44.811   3.243
18307W        W90033  25.901  30.057  11.511
18308W        W90034   2.960   3.188  14.114
18309W        W90035   8.243  23.058   0.318
18310W        W90036  19.783  27.558   4.550
18311W        W90037   0.232  24.121   0.873
18312W        W90038   0.772  40.916  13.451
18313W        W90039  10.606  23.480  10.666
18314W        W90040  20.627  34.533   3.728
18315W        W90041  13.670  29.915  12.468
18316W        W90042   2.107  30.616  12.910
18317W        W90043   0.957  26.020   0.961
18318W        W90044  37.763  22.251  13.029
18319W        W90045  25.924  21.642  11.606
18320W        W90046  28.028  19.328  14.764
18321W        W90047  15.427  21.482  14.390
18322W        W90048  14.282  34.564  10.567
18323W        W90049  14.892   5.915  11.057
18324W        W90050  25.352  23.503   4.245
18325W        W90051  20.549  26.061   4.996
18326W        W90052   3.214  28.924   1.384
18327W        W90053  23.110  42.586   4.917
18328W        W90054  10.167  18.762   4.665
18329W        W90055  18.075  15.874   1.584
18330W        W90056  12.591   7.245   3.846
18331W        W90057   4.194  16.914   3.240
18332W        W90058  37.548  20.886   5.004
18333W        W90059  31.557  44.961  12.914
18334W        W90060  21.624  11.393  13.378
18335W        W90061  12.953   9.388   1.784
18336W        W90062   8.680   4.359  11.825
18337W        W90063  26.464  38.381  14.523
18338W        W90064  22.718  37.189  14.312
18339W        W90065  36.181  33.906  14.435
18340W        W90066  13.752  11.817  11.530
18341W        W90067  22.810   2.303   2.678
18342W        W90068  35.919  38.123   1.236
18343W        W90069  12.631   8.291  10.758
18344W        W90070  17.761  36.085  14.448
18345W        W90071  16.509  11.003   1.986
18346W        W90072  20.725  22.174   3.189
18347W        W90073  24.800   0.213  14.905
18348W        W90074   3.035  43.752   3.192
18349W        W90075   4.376  37.971  13.133
18350W        W90076  36.502   2.796  12.449
18351W        W90077  12.766  35.763   1.236
18352W        W90078  39.993  18.515   3.246
18353W        W90079  25.778  20.181  14.565
18354W        W90080  42.661  42.797  10.257
18355W        W90081   2.325  14.203   3.692
18356W        W90082  39.561  38.827   2.751
18357W        W90083  28.612  17.138  12.883
18358W        W90084  27.776  28.715  12.461
18359W        W90085  17.966  32.546  11.186
18360W        W90086  20.199  25.372  13.598
18361W        W90087  14.330   5.417   3.847
18362W        W90088  22.170  27.155  13.596
18363W        W90089  31.149  28.672   1.842
18364W        W90090  41.548   0.769   0.793
18365W        W90091  11.100  35.023  11.066
18366W        W90092  12.165   4.236  11.870
18367W        W90093   0.187   8.232  11.489
18368W        W90094   4.202  34.080   0.361
18369W        W90095   5.210  34.557  14.492
18370W        W90096   5.427  14.696   5.287
18371W        W90097  11.887  15.800  11.483
18372W        W90098   8.607  28.669   0.138
18373W        W90099  19.087  42.130  14.756
18374W        W90100  36.433  26.520  11.666
18375W        W90101  10.183  21.351  12.090
18376W        W90102   1.768  40.789  13.148
18377W        W90103  27.192  40.441  11.253
18378W        W90104  38.480  12.526  11.664
18379W        W90105  12.661  25.159   1.217
18380W        W90106  20.209   2.229  12.982
18381W        W90107  14.133  39.320   4.576
18382W        W90108  42.078  40.508  12.453
18383W        W90109  12.054  24.481   2.792
18384W        W90110  29.478  17.636   0.001
18385W        W90111  38.355  17.585  11.588
18386W        W90112   8.413  15.627   1.262
18387W        W90113   8.871  18.349  13.478
18388W        W90114  15.331  10.719  11.799
18389W        W90115  24.123  28.858  10.355
18390W        W90116  19.576   2.791  10.794
18391W        W90117  36.518   0.694   3.265
18392W        W90118  21.987  34.631  11.097
18393W        W90119  25.589  20.044   2.798
18394W        W90120   6.310   6.131  14.918
18395W        W90121  23.367   9.216   1.087
18396W        W90122  38.748  22.906   4.540
18397W        W90123  10.410  17.913  13.061
18398W        W90124  21.301   6.336  13.877
18399W        W90125  34.475  38.067   3.659
18400W        W90126  10.300  35.350   2.294
18401W        W90127   3.217  10.925   4.575
18402W        W90128  12.753  21.326   2.387
18403W        W90129  43.922  36.877  13.825
18404W        W90130  42.884  44.189   3.256
18405W        W90131  20.083   1.541   2.172
18406W        W90132  31.411   6.857   0.191
18407W        W90133  14.788   0.011   2.709
18408W        W90134  20.165   5.445  11.214
18409W        W90135  40.301  18.639  11.025
18410W        W90136  44.464   4.633   4.190
18411W        W90137  38.779  28.845   4.168
18412W        W90138   4.013  10.885  12.473
18413W        W90139  20.017  24.477   4.154
18414W        W90140  26.730  38.877   0.374
18415W        W90141   4.551  16.148   4.269
18416W        W90142  15.789  26.114  12.936
18417W        W90143   8.428  15.322  10.334
18418W        W90144  32.873  20.094  13.054
18419W        W90145  44.138  27.473   3.609
18420W        W90146  18.576  38.865   4.976
18421W        W90147   9.839   5.908  12.416
18422W        W90148  15.989  14.687   4.532
18423W        W90149   5.829  12.312  13.886
18424W        W90150  25.417   8.225  11.947
18425W        W90151   8.970   4.271  13.964
18426W        W90152  15.335   4.208   1.562
18427W        W90153   4.167   2.623   3.609
18428W        W90154  27.207  24.187  14.340
18429W        W90155  19.802   6.105   2.315
18430W        W90156  22.602   1.546   4.044
18431W        W90157  13.005  20.608   4.686
18432W        W90158   0.088  44.180  10.622
18433W        W90159   8.315  15.557  11.512
18434W        W90160  22.968  16.533  11.958
18435W        W90161  43.002  10.088   0.918
18436W        W90162   7.694  29.660  13.132
18437W        W90163  43.224   5.354  12.780
18438W        W90164  44.913  39.343  10.347
18439W        W90165  22.967  25.769  14.729
18440W        W90166  31.540  10.356   2.002
18441W        W90167  17.235   6.664  10.946
18442W        W90168   9.224  18.732   4.628
18443W        W90169  31.806  36.780   4.938
18444W        W90170  28.202  11.662  12.766
18445W        W90171  43.848   3.915   0.969
18446W        W90172   5.930   8.884  13.003
18447W        W90173  44.923  26.210  10.534
18448W        W90174  13.441   0.975   2.521
18449W        W90175   0.142  19.288   4.130
18450W        W90176  23.308   8.056   1.341
18451W        W90177  17.007  42.916  10.684
18452W        W90178  31.484  36.983  14.024
18453W        W90179  19.575  23.065   1.957
18454W        W90180  40.841  32.988   3.083
18455W        W90181  24.776  16.065   5.022
18456W        W90182  25.359  41.346   9.668
18457W        W90183   3.260  16.784  10.759
18458W        W90184  19.935  42.945  11.246
18459W        W90185  39.504  38.939  10.748
18460W        W90186  41.754   6.885   0.417
18461W        W90187  31.445  10.653  11.196
18462W        W90188   6.653  20.142   4.325
18463W        W90189  37.413   0.792  13.502
18464W        W90190  14.169  40.043  14.720
18465W        W90191  34.473  39.050   3.510
18466W        W90192  24.442  40.787  11.158
18467W        W90193  44.318  21.098   5.453
18468W        W90194  16.972   2.851   4.440
18469W        W90195   4.765   3.787   0.202
18470W        W90196  36.285  39.975   0.015
18471W        W90197   9.222  31.481  12.533
18472W        W90198  23.463  28.201  10.638
18473W        W90199  31.995  20.580   3.151
18474W        W90200  44.260   1.467  12.115
18475W        W90201  34.061  17.440   4.750
18476W        W90202  10.790   2.802  12.468
18477W        W90203  17.631  26.462  14.900
18478W        W90204  37.859  14.188   0.258
18479W        W90205  20.563  41.765  13.480
18480W        W90206  40.454   4.251   2.703
18481W        W90207  19.679  25.926  12.976
18482W        W90208  34.113  10.343   4.823
18483W        W90209  43.422  25.489  14.089
18484W        W90210  27.890  33.568   2.186
18485W        W90211   0.066  25.038  14.459
18486W        W90212  13.137  38.313  10.731
18487W        W90213  22.598   8.263   1.828
18488W        W90214  23.453  25.002  11.555
18489W        W90215  30.416  40.701  14.436
18490W        W90216  31.664   6.987   4.124
18491W        W90217  16.305  36.893  11.219
18492W        W90218  41.161   8.715  10.858
18493W        W90219  31.626  38.003  14.857
18494W        W90220  37.479  13.925   4.187
18495W        W90221  28.944  10.674  11.230
18496W        W90222  11.716  34.370  14.476
18497W        W90223  23.694  14.909  14.951
18498W        W90224  23.733   8.650  11.105
18499W        W90225  32.929   8.817  13.603
18500W        W90226  43.943  26.466   4.199
18501W        W90227   3.402   4.754   0.394
18502W        W90228  28.466  11.117   2.748
18503W        W90229  10.689  10.221   3.079
18504W        W90230  12.103   9.150  10.784
18505W        W90231   8.469  36.460   2.863
18506W        W90232   4.812  22.511  13.893
18507W        W90233  33.459  36.930   2.985
18508W        W90234  11.584  32.944  13.501
18509W        W90235  31.934   1.577  13.495
18510W        W90236   5.147   0.703   3.617
18511W        W90237   7.636  18.063  13.073
18512W        W90238  34.447   7.730   3.376
18513W        W90239  32.376  30.646   2.854
18514W        W90240  41.984  39.833  14.332
18515W        W90241  14.664  15.155   1.617
18516W        W90242  33.878   1.273   2.827
18517W        W90243  36.597  43.490   3.908
18518W        W90244  43.322  41.819  12.493
18519W        W90245  13.636  39.032  10.891
18520W        W90246  24.792   0.790  11.101
18521W        W90247  14.201  29.322   1.769
18522W        W90248  41.261  43.665   4.222
18523W        W90249  10.340  25.735   4.402
18524W        W90250  19.051  19.675  14.809
18525W        W90251  13.063  34.225   3.518
18526W        W90252   2.357  10.767   4.287
18527W        W90253  17.920  34.585   3.955
18528W        W90254  39.889  43.332  10.697
18529W        W90255  22.972  31.926   3.262
18530W        W90256  15.270  32.344  12.418
18531W        W90257  13.650  37.221   1.830
18532W        W90258   6.705  42.360  10.642
18533W        W90259  40.922  24.031  12.423
18534W        W90260   8.935  42.794   4.170
18535W        W90261  11.167  38.672  10.644
18536W        W90262  17.839  38.881   1.622
18537W        W90263  26.002  21.090  14.930
18538W        W90264  15.153  38.618  14.832
18539W        W90265  28.752  11.150  11.187
18540W        W90266  22.000  36.934   2.827
18541W        W90267   0.819  20.022  10.616
18542W        W90268  38.359   7.529  12.167
18543W        W90269  21.321   6.438   4.729
18544W        W90270  43.385  24.341  12.543
18545W        W90271   8.344  34.376  10.837
18546W        W90272  40.298   4.491   1.681
18547W        W90273  29.007   2.436   3.882
18548W        W90274  39.834  15.834   0.421
18549W        W90275  16.366   5.312  14.979
18550W        W90276  34.918  28.874  12.492
18551W        W90277   7.633  21.146  12.121
18552W        W90278  43.487   6.111  10.702
18553W        W90279  40.003  17.174   3.979
18554W        W90280   6.925   1.173  11.626
18555W        W90281  25.684  29.404   2.698
18556W        W90282  30.168  26.269   0.441
18557W        W90283   6.289   5.612  14.791
18558W        W90284  17.859  37.919   0.106
18559W        W90285  30.932  11.081  14.937
18560W        W90286  30.550  26.224  12.145
18561W        W90287  25.111  28.377   4.807
18562W        W90288  17.116  15.274  11.495
18563W        W90289  28.602  21.054  13.803
18564W        W90290  23.649   5.212  13.460
18565W        W90291  29.348   3.127  12.867
18566W        W90292   4.223   4.665   2.817
18567W        W90293  37.504  39.088   0.867
18568W        W90294  23.214  43.921  12.829
18569W        W90295  21.629  24.747   0.044
18570W        W90296   8.634  36.952   2.642
18571W        W90297  44.283  42.067   2.753
18572W        W90298  12.343  18.746   1.201
18573W        W90299  15.006   8.871   3.309
18574W        W90300  11.340  28.752  14.143
18575W        W90301  22.778   2.860  14.913
18576W        W90302  43.510  34.795  12.529
18577W        W90303  38.316  41.310   0.701
18578W        W90304  20.127  16.702  12.985
18579W        W90305   9.759  11.944   2.925
18580W        W90306  14.261  23.760  13.470
18581W        W90307  12.525  32.322   1.534
18582W        W90308  13.397  11.877  11.146
18583W        W90309  25.316  38.010   1.779
18584W        W90310  29.556  17.391  14.295
18585W        W90311   2.238  27.873  14.104
18586W        W90312  22.898  26.945   1.738
18587W        W90313  32.491  17.181  12.669
18588W        W90314  13.018  23.108  12.860
18589W        W90315  41.063  40.828   0.396
18590W        W90316  35.832  37.870   3.249
18591W        W90317  31.587  26.619   4.701
18592W        W90318  33.154  24.590   2.673
18593W        W90319  33.029  30.656   3.466
18594W        W90320  40.435  39.726   4.446
18595W        W90321  38.245  37.007   2.852
18596W        W90322  24.765  17.082   4.096
18597W        W90323  39.160  42.093   1.788
18598W        W90324  19.990  10.707   2.279
18599W        W90325  14.865  44.351  12.551
18600W        W90326  12.218  14.543  12.518
18601W        W90327  39.745  10.605  13.506
18602W        W90328  12.433  12.693  11.720
18603W        W90329  38.088   3.363   1.841
18604W        W90330  22.034  10.828   1.352
18605W        W90331  36.319  14.221   3.156
18606W        W90332  15.330  35.541   2.210
18607W        W90333  23.827  33.402   1.339
18608W        W90334  10.407   0.924   4.854
18609W        W90335  24.134   0.544  11.515
18610W        W90336  24.043  31.162   1.263
18611W        W90337  10.758  41.371  14.326
18612W        W90338  22.842  17.061  11.924
18613W        W90339  10.014  19.090  13.594
18614W        W90340  36.019  10.709   1.494
18615W        W90341  10.633  38.253   3.676
18616W        W90342  27.715   9.884  13.307
18617W        W90343  22.495  24.850   3.104
18618W        W90344  30.705  43.279  14.432
18619W        W90345  32.621  39.790  11.637
18620W        W90346  25.680  18.786  13.100
18621W        W90347  25.322  17.708   4.080
18622W        W90348  24.165  14.202   2.753
18623W        W90349  31.502  16.967   0.622
18624W        W90350   4.308  26.449  11.930
18625W        W90351  32.501  30.958  13.896
18626W        W90352  21.914   6.258   2.300
18627W        W90353  42.524  13.221  10.787
18628W        W90354  37.921   6.478   0.860
18629W        W90355  23.246  34.572   1.940
18630W        W90356   2.709  15.781  13.039
18631W        W90357   5.457  20.047   3.921
18632W        W90358   6.246  42.529  14.854
18633W        W90359   5.517  21.276  10.219
18634W        W90360  11.126  35.062   4.127
18635W        W90361  31.597  26.124   2.176
18636W        W90362   5.263  30.934   0.515
18637W        W90363  21.203  16.546  13.900
18638W        W90364  38.984  43.207   3.779
18639W        W90365   8.100   5.042   5.079
18640W        W90366  34.886  11.610   0.304
18641W        W90367   5.420  16.367   2.609
18642W        W90368  14.736  38.393  10.692
18643W        W90369   2.542   8.167  12.495
18644W        W90370  22.100   6.217  12.083
18645W        W90371   4.622  19.048  11.937
18646W        W90372   2.774  30.701  14.008
18647W        W90373  18.724  44.682  14.926
18648W        W90374  25.159   3.199  11.940
18649W        W90375  23.112   2.469   0.060
18650W        W90376  31.558  29.996   2.687
18651W        W90377  15.354  26.186   4.157
18652W        W90378   3.219  25.149   3.803
18653W        W90379  20.006   2.699   3.234
18654W        W90380  38.401   4.879  12.917
18655W        W90381  25.926  20.526  12.032
18656W        W90382  24.071  32.481   0.383
18657W        W90383  18.479  23.952   3.342
18658W        W90384  42.054  43.867  13.805
18659W        W90385   4.922  17.122  12.502
18660W        W90386   5.302  16.615   2.189
18661W        W90387  42.419   7.539  14.283
18662W        W90388  31.569  36.375  11.932
18663W        W90389  17.575  34.841  11.116
18664W        W90390  21.683  17.282  13.346
18665W        W90391   0.870   1.202   2.350
18666W        W90392  24.599  13.797   3.266
18667W        W90393  16.874  17.797  11.759
18668W        W90394  40.003  26.465   2.149
18669W        W90395   1.766   4.670   3.243
18670W        W90396  44.507  11.138   5.119
18671W        W90397   7.085   0.314  12.171
18672W        W90398   7.425  27.248  14.453
18673W        W90399   6.857   4.193   5.424
18674W        W90400  33.366  15.240   1.488
18675W        W90401  19.952  39.041  12.006
18676W        W90402  23.475  12.544   3.704
18677W        W90403  11.709   6.158   3.872
18678W        W90404  26.579  13.558   4.570
18679W        W90405  29.681  19.725   3.156
18680W        W90406  33.806  33.958   2.799
18681W        W90407  43.400  17.018   3.218
18682W        W90408  34.699  29.118  14.780
18683W        W90409  37.330  15.648   4.073
18684W        W90410  14.215   3.223   3.313
18685W        W90411  10.561   4.321   3.185
18686W        W90412  29.263  29.904  13.195
18687W        W90413  40.780   5.792   1.746
18688W        W90414  40.386  29.404   2.328
18689W        W90415  29.128  22.663  13.530
18690W        W90416  38.305  21.659  14.745
18691W        W90417  31.488  28.210  10.640
18692W        W90418   0.388  12.517   1.134
18693W        W90419  37.904  36.418   4.090
18694W        W90420   8.094  40.996   3.040
18695W        W90421  34.552  18.900  10.686
18696W        W90422  33.081  11.682   1.752
18697W        W90423   5.700   3.171   0.299
18698W        W90424  30.526   3.829   2.312
18699W        W90425   7.220  21.463   2.736
18700W        W90426  12.290  30.627  11.159
18701W        W90427   9.159   9.424  12.979
18702W        W90428  20.229  41.479  12.174
18703W        W90429  14.661  40.577  13.480
18704W        W90430   5.721   8.323   1.774
18705W        W90431  12.645  21.365   4.421
18706W        W90432  31.516  21.255   9.951
18707W        W90433  39.409  42.976   2.525
18708W        W90434   4.667  22.676   0.044
18709W        W90435  40.459  14.153  10.790
18710W        W90436   6.869  12.374   3.294
18711W        W90437  25.169   8.143   4.933
18712W        W90438  27.033   2.488   2.211
18713W        W90439  41.886  29.497  11.285
18714W        W90440  12.737  16.114   0.121
18715W        W90441  23.154  18.780  12.203
18716W        W90442  24.202   9.189  14.263
18717W        W90443  11.576  24.561  13.473
18718W        W90444  31.897  36.382   3.161
18719W        W90445  42.364  41.015  11.888
18720W        W90446  18.652  39.440   4.175
18721W        W90447  17.210  31.143   4.764
18722W        W90448  22.771  35.125  14.058
18723W        W90449   4.289  33.661  14.325
18724W        W90450   9.810  33.929   4.935
18725W        W90451  34.721  24.179   5.167
18726W        W90452  33.552  37.838  10.209
18727W        W90453  31.404  44.053   0.875
18728W        W90454   5.866  30.943   4.346
18729W        W90455  25.084   2.830   3.520
18730W        W90456  14.125   6.683  12.560
18731W        W90457  14.290  32.500  10.662
18732W        W90458  23.587  17.379  11.439
18733W        W90459  12.306  23.348   4.117
18734W        W90460  11.513  32.437  10.475
18735W        W90461  38.322  27.140  14.867
18736W        W90462   4.959  25.871   4.954
18737W        W90463  12.850  27.500   1.218
18738W        W90464  24.696  31.657  13.921
18739W        W90465  21.146  42.658  12.138
18740W        W90466  27.565  40.345   1.957
18741W        W90467  30.597  33.525   1.285
18742W        W90468   4.896  20.131   0.654
18743W        W90469  19.291  29.132  12.694
18744W        W90470  26.053  28.198   1.720
18745W        W90471  31.608  26.570  10.283
18746W        W90472  18.273   8.617  12.508
18747W        W90473  24.205  33.134   2.785
18748W        W90474   7.386  30.430  13.933
18749W        W90475  42.299  21.333   0.805
18750W        W90476   0.430  25.621   3.830
18751W        W90477  37.390  24.009  11.475
18752W        W90478   8.251  14.728   3.613
18753W        W90479  24.752   0.323  12.571
18754W        W90480  43.551  33.900  12.663
18755W        W90481  22.750  32.116   2.808
18756W        W90482   5.129  17.305   2.849
18757W        W90483  38.504  21.613   2.285
18758W        W90484  28.063  41.317  12.174
18759W        W90485  10.642  40.992   1.241
18760W        W90486  40.961  41.470   0.344
18761W        W90487  41.861  44.964  14.796
18762W        W90488  30.600  40.580  11.709
18763W        W90489  44.249  38.056   1.367
18764W        W90490  37.687  11.028   1.397
18765W        W90491  19.724  33.314   3.854
18766W        W90492  39.319  30.013  14.272
18767W        W90493  24.769  38.979   3.270
18768W        W90494  40.832  22.171  13.146
18769W        W90495  26.397  27.212  12.101
18770W        W90496  43.332  18.603  12.978
18771W        W90497   2.208  11.615  10.595
18772W        W90498   1.462  31.927  13.811
18773W        W90499  34.521  10.184  10.614
18774W        W90500   5.886  24.241  13.829
18775W        W90501  37.762  11.854  12.684
18776W        W90502  33.991  17.862  11.037
18777W        W90503  12.399  42.972   3.106
18778W        W90504  14.534  24.030   3.280
18779W        W90505  37.343  43.824  11.310
18780W        W90506  20.487  17.497   3.371
18781W        W90507  28.183  27.951  10.022
18782W        W90508  15.803  17.557   0.448
18783W        W90509  28.912  24.965  13.904
18784W        W90510  15.298  26.251  12.018
18785W        W90511  14.643  44.969   4.059
18786W        W90512  32.350   6.338   1.230
18787W        W90513  22.280  13.126   1.181
18788W        W90514  43.187   5.012  11.441
18789W        W90515  19.038  19.671   4.692
18790W        W90516  15.612  28.153  13.062
18791W        W90517  35.656  25.771   1.371
18792W        W90518  41.873  23.738   2.403
18793W        W90519  32.164  37.440   2.877
18794W        W90520  25.798   5.139  12.461
18795W        W90521  13.362   9.763   2.189
18796W        W90522  33.913   5.684  10.234
18797W        W90523  26.787  30.057  11.117
18798W        W90524  35.517   1.513  13.004
18799W        W90525  22.278  19.206   0.452
18800W        W90526  23.618  35.796  14.786
18801W        W90527  10.711  10.732  11.446
18802W        W90528   4.488  19.523  14.112
18803W        W90529  42.400  30.100   1.918
18804W        W90530  34.098   1.738  14.027
18805W        W90531  36.149   6.190   0.296
18806W        W90532  26.695   9.842  11.120
18807W        W90533   7.855  13.703   4.626
18808W        W90534  43.034  26.056   1.156
18809W        W90535  43.618  38.063   3.893
18810W        W90536   6.412  36.522   3.667
18811W        W90537  25.338  27.177  13.748
18812W        W90538   7.742  24.082  13.469
18813W        W90539  44.013   2.160  13.405
18814W        W90540  11.756  40.359  11.659
18815W        W90541  26.754   5.765   5.247
18816W        W90542  31.578  24.401  13.341
18817W        W90543  15.305  33.783  14.299
18818W        W90544  34.594  19.714  12.564
18819W        W90545  13.926  38.376   0.087
18820W        W90546   0.015  31.659  13.071
18821W        W90547   7.890  41.054  13.421
18822W        W90548  30.572   7.363   1.415
18823W        W90549  29.974   5.646   4.316
18824W        W90550   8.388  14.392  11.063
18825W        W90551  21.161  26.189  11.475
18826W        W90552  31.905  23.593   1.503
18827W        W90553  26.460  39.321   3.798
18828W        W90554   2.644  33.103   1.809
18829W        W90555  22.590  20.286   4.682
18830W        W90556  41.538  36.137   0.858
18831W        W90557  26.782  14.850  10.818
18832W        W90558  21.580  35.471   0.230
18833W        W90559  42.299  10.238   3.420
18834W        W90560  18.152  16.450   0.415
18835W        W90561   4.498  36.020   3.764
18836W        W90562  44.697  27.405   3.609
18837W        W90563  34.657  32.762  11.855
18838W        W90564   3.615  44.980  14.593
18839W        W90565  42.474   1.985   0.472
18840W        W90566   2.257  29.649  13.466
18841W        W90567  35.472  22.167  11.573
18842W        W90568   9.486   2.350  12.509
18843W        W90569  35.140  27.687   2.652
18844W        W90570  26.010  24.942  12.904
18845W        W90571   9.843   1.272  12.043
18846W        W90572  11.864  38.884  12.714
18847W        W90573  41.949  22.739  11.456
18848W        W90574  32.167  31.444   1.134
18849W        W90575  20.254   7.098   1.439
18850W        W90576   4.172  23.455  14.915
18851W        W90577   4.379  24.936  11.934
18852W        W90578  21.978   8.722   3.384
18853W        W90579  14.304  32.664   0.328
18854W        W90580  42.444  32.209  10.778
18855W        W90581   0.824  10.287   0.433
18856W        W90582  25.994  31.615  12.229
18857W        W90583   6.706   5.394  11.352
18858W        W90584  16.221   1.716   4.482
18859W        W90585   8.311  14.104   1.504
18860W        W90586  37.829   8.436   1.178
18861W        W90587  17.741  21.861   1.164
18862W        W90588  42.545  28.239  11.983
18863W        W90589  15.104  11.875  11.222
18864W        W90590  10.685  17.164  14.976
18865W        W90591  38.596  21.056  13.458
18866W        W90592  36.620  25.272   1.011
18867W        W90593  21.917  21.999  11.201
18868W        W90594  24.817  30.993   2.867
18869W        W90595  15.308  42.853   2.783
18870W        W90596  14.409  39.871   1.384
18871W        W90597   5.345  20.982  11.092
18872W        W90598   9.682   0.032  14.357
18873W        W90599  44.238  40.099   1.949
18874W        W90600  33.464  20.322  12.316
18875W        W90601   5.931  40.261   3.638
18876W        W90602  14.324  26.732  13.576
18877W        W90603  22.662  31.390  14.728
18878W        W90604  20.703  35.028   3.888
18879W        W90605   6.350   8.501  11.582
18880W        W90606  37.755   4.755  13.299
18881W        W90607  30.277   2.426  11.452
18882W        W90608  31.100  28.993  12.953
18883W        W90609  11.021   2.531  12.088
18884W        W90610  29.568  13.045   3.629
18885W        W90611  30.732  15.077   2.896
18886W        W90612  42.688   7.437   1.424
18887W        W90613   7.269   9.048   2.988
18888W        W90614  22.722  20.908  12.598
18889W        W90615   5.350   5.043   4.163
18890W        W90616  28.855  34.060   1.500
18891W        W90617  30.591  28.512   2.802
18892W        W90618  14.056  18.186   2.131
18893W        W90619  25.935   6.003   2.876
18894W        W90620  12.290  22.100  14.297
18895W        W90621  25.544  17.251   2.725
18896W        W90622  14.251  18.487  11.215
18897W        W90623  23.239  42.538  12.921
18898W        W90624  17.559  35.903  14.943
18899W        W90625   7.950  13.526   2.379
18900W        W90626  35.004  10.193  14.908
18901W        W90627  14.682  29.255   0.566
18902W        W90628   5.738   4.720   4.221
18903W        W90629  35.601  20.473   1.293
18904W        W90630  42.375  27.638  11.273
18905W        W90631  33.678  16.195   2.243
18906W        W90632  16.091   6.879  10.722
18907W        W90633  19.185   7.039   0.172
18908W        W90634  38.582  13.467   0.440
18909W        W90635  19.231   5.820  12.338
18910W        W90636   5.772  12.713   4.172
18911W        W90637  40.533  35.984  10.034
18912W        W90638  41.044  37.774   0.286
18913W        W90639  35.548  30.478   3.246
18914W        W90640  33.061   5.254  11.125
18915W        W90641  35.502  35.106   0.306
18916W        W90642   7.861   2.239  14.816
18917W        W90643  32.106  23.549  10.679
18918W        W90644   2.561  10.771  12.082
18919W        W90645  40.362  31.954  11.460
18920W        W90646  21.160  11.210  12.017
18921W        W90647  36.682  27.548   0.861
18922W        W90648  20.124  44.980  12.833
18923W        W90649  38.165   0.935  14.777
18924W        W90650  36.405   1.800   1.406
18925W        W90651  42.437  12.636  11.704
18926W        W90652  36.187   5.794   3.705
18927W        W90653  24.041  38.174  13.453
18928W        W90654  29.608  44.276  10.624
18929W        W90655  32.101  25.749   0.731
18930W        W90656   6.940  40.839  14.698
18931W        W90657  20.277  27.036   2.991
18932W        W90658  11.804  42.317   4.239
18933W        W90659   8.147  34.111   3.255
18934W        W90660  15.801  17.583   3.670
18935W        W90661  15.523  39.020  14.850
18936W        W90662  20.218  38.785   1.668
18937W        W90663  43.980  23.042  10.681
18938W        W90664  40.617  36.296   4.606
18939W        W90665  16.038   2.801   1.313
18940W        W90666  28.933  17.211  11.442
18941W        W90667   5.962   3.247  11.689
18942W        W90668  41.759   3.857   4.332
18943W        W90669  29.298  14.116  11.301
18944W        W90670   3.432   0.746   3.742
18945W        W90671   6.154  26.339  13.951
18946W        W90672  41.102   1.020   1.640
18947W        W90673  15.801  12.792  10.569
18948W        W90674   6.266   0.196   0.781
18949W        W90675  13.051  18.764   2.725
18950W        W90676  17.975  40.427  11.684
18951W        W90677   5.187  19.785   0.337
18952W        W90678  41.129   0.260  12.443
18953W        W90679  32.498  30.865  10.472
18954W        W90680   8.948  30.401   3.793
18955W        W90681   2.096  21.179  13.873
18956W        W90682  35.827  42.749  14.382
18957W        W90683  38.871  43.967  12.561
18958W        W90684  31.835  26.514   5.132
18959W        W90685  23.062  24.925   1.125
18960W        W90686  44.610   5.891   4.136
18961W        W90687   8.664  17.324  13.528
18962W        W90688  12.154   7.478   2.500
18963W        W90689  31.695   3.374  14.865
18964W        W90690  39.806  15.999   4.467
18965W        W90691  27.531  19.696   2.832
18966W        W90692  27.041  40.391  14.571
18967W        W90693  22.342  11.694   4.705
18968W        W90694  32.051  20.928   2.756
18969W        W90695   3.201  12.261   4.235
18970W        W90696  10.435   7.741  12.378
18971W        W90697   7.075  17.244   1.028
18972W        W90698   2.177  22.596  12.444
18973W        W90699   6.228  22.610  11.616
18974W        W90700  43.258  35.576  12.935
18975W        W90701  37.934  27.934   0.847
18976W        W90702  31.706  20.041  13.350
18977W        W90703   6.295  33.637   3.298
18978W        W90704  28.990  43.697   2.823
18979W        W90705  30.012  24.058   2.310
18980W        W90706  44.519  35.441  10.575
18981W        W90707  30.416  23.488   0.934
18982W        W90708   2.678  39.914  14.385
18983W        W90709  25.506   9.367   4.852
18984W        W90710  26.532  24.012   0.106
18985W        W90711  22.699  16.174   2.432
18986W        W90712  21.511  12.046   2.387
18987W        W90713  17.159  40.423   4.567
18988W        W90714  26.258  33.292  13.063
18989W        W90715  10.749  29.893   0.876
18990W        W90716   2.636   8.965   1.468
18991W        W90717  37.805  37.382  12.267
18992W        W90718   9.087  13.821   0.472
18993W        W90719  42.018  43.918  10.606
18994W        W90720  21.749  29.106   4.164
18995W        W90721  12.685   0.730   2.636
18996W        W90722   4.382  15.050   3.349
18997W        W90723  42.306  17.724   1.200
18998W        W90724  33.614  27.940  10.682
18999W        W90725   5.824  34.046   0.680
19000W        W90726   4.978  17.598   2.433
19001W        W90727  20.091  28.428   4.187
19002W        W90728  24.110  33.369  11.342
19003W        W90729   8.739  40.243  12.890
19004W        W90730   8.278  41.030  12.996
19005W        W90731  42.283  11.550  14.506
19006W        W90732  40.849  11.741  10.685
19007W        W90733  12.272   5.439  14.724
19008W        W90734   6.214  42.402  14.330
19009W        W90735   1.245  33.410   0.137
19010W        W90736  34.430  39.402   4.778
19011W        W90737  24.600  19.789   2.842
19012W        W90738  32.631  33.840   0.174
19013W        W90739   6.782  26.430   5.117
19014W        W90740   8.903   8.269   2.845
19015W        W90741   4.968  32.841  10.208
19016W        W90742  35.318   1.430  12.164
19017W        W90743  21.217  16.094   1.261
19018W        W90744  35.296  10.099   2.944
19019W        W90745   4.125  19.180  11.876
19020W        W90746  11.532  41.166   2.776
19021W        W90747  37.861   3.755  12.971
19022W        W90748  16.595  23.717  13.253
19023W        W90749  23.292   5.999  12.486
19024W        W90750  42.442   1.937  14.528
19025W        W90751  30.045  27.739   3.876
19026W        W90752  13.660  11.315  11.395
19027W        W90753   7.434  18.459   2.120
19028W        W90754  10.393   0.542  12.044
19029W        W90755   2.147   1.338  11.467
19030W        W90756  25.543  40.570  12.488
19031W        W90757  10.948  36.243  12.940
19032W        W90758   1.850  18.086  10.505
19033W        W90759   6.646   9.356   2.248
19034W        W90760  39.073  39.053   5.038
19035W        W90761  28.063  39.450  14.831
19036W        W90762   6.486   8.675   3.831
19037W        W90763  23.340  41.869   0.008
19038W        W90764  38.416  44.635   1.957
19039W        W90765  36.124  38.467  10.543
19040W        W90766  41.749   3.735   0.411
19041W        W90767  12.799  10.699  12.543
19042W        W90768  24.724  39.467   0.540
19043W        W90769  31.604  40.103  10.779
19044W        W90770  25.666  18.694  13.590
19045W        W90771  21.110  25.379   5.362
19046W        W90772  38.415  11.481  14.869
19047W        W90773  43.989  15.238   3.794
19048W        W90774  20.004   6.265  13.359
19049W        W90775   7.606  38.317  13.787
19050W        W90776  18.120   9.374  14.899
19051W        W90777  31.119   2.801  14.218
19052W        W90778  34.975  43.047   0.892
19053W        W90779  21.210  31.992  13.138
19054W        W90780  18.234  18.587  11.417
19055W        W90781  34.888  21.511   2.393
19056W        W90782  28.366  26.580   4.222
19057W        W90783   9.209  19.648   4.255
19058W        W90784  15.302  37.066  12.960
19059W        W90785  24.145  30.191   4.924
19060W        W90786  40.842  28.454  13.550
19061W        W90787   2.881  19.314   3.385
19062W        W90788  13.107  16.807   1.839
19063W        W90789  43.397  41.380   3.555
19064W        W90790  41.822   5.304  14.190
19065W        W90791  38.813  32.017   2.168
19066W        W90792  38.965  32.018  13.911
19067W        W90793  27.902  10.212   2.773
19068W        W90794  21.100  13.775   2.241
19069W        W90795   1.303  31.636  13.376
19070W        W90796  28.500  33.410   5.032
19071W        W90797  11.969  25.989  10.689
19072W        W90798  43.252  12.519   4.653
19073W        W90799  34.486   8.037   2.965
19074W        W90800   0.367  37.300  10.687
19075W        W90801  36.045  16.216   4.485
19076W        W90802  12.811   8.559  14.184
19077W        W90803  30.520  28.503   1.316
19078W        W90804  29.984   1.222  11.998
19079W        W90805   3.044  31.646  14.048
19080W        W90806  23.244  11.413   2.883
19081W        W90807  30.738  44.348   5.194
19082W        W90808  38.992  20.280  14.480
19083W        W90809   2.490  34.780  10.799
19084W        W90810  34.335  21.618   4.331
19085W        W90811  19.229  11.514   2.344
19086W        W90812  34.610  25.137   1.053
19087W        W90813   4.891  41.638  13.363
19088W        W90814  41.963   9.595   1.306
19089W        W90815  24.955  38.977  11.885
19090W        W90816  21.333   5.055  13.666
19091W        W90817  43.259  29.224  14.898
19092W        W90818  23.927  26.961   0.774
19093W        W90819  16.048  16.117  12.518
19094W        W90820  39.853  27.141  11.529
19095W        W90821  20.357  23.021  12.101
19096W        W90822   6.548   5.303   3.618
19097W        W90823  41.603   1.187  11.018
19098W        W90824  36.868   0.856  14.298
19099W        W90825  16.572   1.956  11.058
19100W        W90826  23.692   3.203  11.910
19101W        W90827  38.971   3.672   0.419
19102W        W90828  25.513  23.662  11.954
19103W        W90829  32.555  42.827   2.720
19104W        W90830  25.190   6.942  14.400
19105W        W90831  41.028  22.207  12.665
19106W        W90832   5.875   1.319   0.352
19107W        W90833  10.125  17.601  11.644
19108W        W90834  38.569  26.731   4.966
19109W        W90835   7.637  32.087  11.001
19110W        W90836   7.021  30.392   4.140
19111W        W90837  35.477  20.014   4.110
19112W        W90838   1.506  12.556  11.724
19113W        W90839  43.088   7.954   4.961
19114W        W90840  43.477  29.846  13.832
19115W        W90841  41.700  30.640  14.551
19116W        W90842  21.658  44.569   2.175
19117W        W90843  26.106  39.792   2.929
19118W        W90844  38.852  34.135  10.694
19119W        W90845  19.849   3.490   1.972
19120W        W90846  36.211  24.383   4.017
19121W        W90847  14.719  34.143   2.789
19122W        W90848  18.918   3.538   3.173
19123W        W90849  20.063  44.686   2.769
19124W        W90850  21.485  44.478  10.642
19125W        W90851  13.365  22.828   0.484
19126W        W90852  39.376  34.328  11.467
19127W        W90853  27.202  20.101   2.709
19128W        W90854  43.388   2.555   0.427
19129W        W90855  23.419   9.443   3.732
19130W        W90856  44.319  25.606  14.544
19131W        W90857  16.755  22.233   2.431
19132W        W90858  30.410   8.643  14.516
19133W        W90859  16.269  27.793  11.552
19134W        W90860  11.656  17.141  10.970
19135W        W90861   8.655  35.489  11.416
19136W        W90862   4.297   0.607   3.877
19137W        W90863  44.471  24.577  11.618
19138W        W90864  39.464   5.938  11.177
19139W        W90865  15.291  14.819   1.838
19140W        W90866   9.165   2.112   0.451
19141W        W90867  12.032  19.521   3.263
19142W        W90868  32.084   6.409  14.365
19143W        W90869  16.724  20.691  13.568
19144W        W90870  27.414  41.367  13.306
19145W        W90871   3.182  35.205   3.174
19146W        W90872  24.722  21.152   1.653
19147W        W90873  22.174  38.390   2.890
19148W        W90874  13.093  10.732  10.851
19149W        W90875  24.205  39.282  14.377
19150W        W90876  23.398  27.871  10.256
19151W        W90877  36.810  26.411  12.531
19152W        W90878  18.423  26.501   4.803
19153W        W90879  24.184  36.388   2.790
19154W        W90880  28.991  24.000  14.414
19155W        W90881  18.331  31.691   0.267
19156W        W90882  42.856   7.366  13.637
19157W        W90883  35.635  37.025  11.257
19158W        W90884  12.501  31.272  12.086
19159W        W90885  36.446  40.476  13.834
19160W        W90886   6.857  36.675   2.775
19161W        W90887   5.388  10.905   4.276
19162W        W90888   3.155  33.674  12.051
19163W        W90889  12.864  11.948  11.512
19164W        W90890  18.721  37.822   0.392
19165W        W90891  25.530  39.458  14.899
19166W        W90892  33.105  41.999  10.675
19167W        W90893  42.839  43.187   0.793
19168W        W90894  37.890  37.855   1.763
19169W        W90895  15.364   3.860   4.382
19170W        W90896  31.881  14.695  14.839
19171W        W90897  20.836  17.106  12.006
19172W        W90898  42.008   5.421   2.616
19173W        W90899  38.811  21.529   2.708
19174W        W90900  11.438  11.767  10.331
19175W        W90901  23.443  10.258   3.786
19176W        W90902   7.743  36.890  12.426
19177W        W90903  34.846  13.511   2.035
19178W        W90904  43.987  38.377   1.763
19179W        W90905  43.042  22.195   3.754
19180W        W90906  44.691   9.156   1.711
19181W        W90907  19.102  39.979   2.291
19182W        W90908   6.398   2.709  12.988
19183W        W90909  20.892   1.683  14.766
19184W        W90910  28.377  14.734   1.791
19185W        W90911  33.582  11.730  11.589
19186W        W90912  41.461  18.951  14.150
19187W        W90913  18.079  31.067  12.380
19188W        W90914  35.779   3.280  10.182
19189W        W90915  20.306  34.900  12.418
19190W        W90916  10.248  30.474   1.243
19191W        W90917  27.582  10.139   3.641
19192W        W90918  18.855  25.186   3.650
19193W        W90919  40.620  40.048  11.140
19194W        W90920   3.272  12.467   3.272
19195W        W90921  11.645  35.563   3.744
19196W        W90922   0.273  35.282  10.350
19197W        W90923  23.704  11.656   2.580
19198W        W90924  19.478  10.705   4.787
19199W        W90925   6.835  20.732  14.017
19200W        W90926  39.500  14.839  12.113
19201W        W90927  29.896  31.178   0.336
19202W        W90928  41.961   5.321  10.665
19203W        W90929  35.451  20.009  13.494
19204W        W90930  30.417  21.367  12.080
19205W        W90931   9.150   5.096  14.314
19206W        W90932  41.756   4.701   3.620
19207W        W90933  26.605  35.934   2.273
19208W        W90934  36.986  19.012  13.857
19209W        W90935   1.036  24.997   3.408
19210W        W90936  30.427   0.762  10.585
19211W        W90937  10.628  24.263   1.613
19212W        W90938  32.589  16.730  12.400
19213W        W90939   1.867   6.128   3.210
19214W        W90940  44.023  20.741  13.811
19215W        W90941   7.925  39.594  13.387
19216W        W90942  43.478   1.199  14.084
19217W        W90943  11.846   5.766  12.672
19218W        W90944  12.845  10.824  12.058
19219W        W90945  39.543   9.780  10.405
19220W        W90946  15.839  32.473   3.268
19221W        W90947   3.739   1.686   3.735
19222W        W90948  15.677  39.037  12.600
19223W        W90949   4.928  29.361   5.100
19224W        W90950  20.244   0.437  12.573
19225W        W90951  37.065  13.430   3.238
19226W        W90952  23.975  22.713  13.680
19227W        W90953   3.432   6.560   2.243
19228W        W90954  23.622  28.069   3.686
19229W        W90955  42.122  33.648   5.041
19230W        W90956  39.562  15.817  13.971
19231W        W90957  18.711  23.095   2.816
19232W        W90958   4.769  29.194  14.304
19233W        W90959  17.580  14.232  11.226
19234W        W90960  33.339  32.000  12.953
19235W        W90961  11.096  29.760   2.362
19236W        W90962  23.137  20.724  12.325
19237W        W90963  19.715  43.393  11.186
19238W        W90964  41.509  29.765  13.418
19239W        W90965  43.403  11.411   1.867
19240W        W90966  30.663  19.727  14.908
19241W        W90967  25.910  10.958   1.816
19242W        W90968  17.344  16.588   4.713
19243W        W90969  18.266   5.667   0.419
19244W        W90970  10.091   5.238  14.454
19245W        W90971  38.992  43.833   0.500
19246W        W90972  19.047  27.401   0.018
19247W        W90973   1.253  13.968   3.171
19248W        W90974  39.748  20.183  12.013
19249W        W90975  21.020  18.125   0.036
19250W        W90976  37.062  20.039  11.714
19251W        W90977  41.849  18.896   3.069
19252W        W90978   3.894  33.457   2.105
19253W        W90979  23.208  12.553   4.148
19254W        W90980  27.888  12.777  12.048
19255W        W90981  14.989   5.336   1.021
19256W        W90982   9.328  17.141   1.172
19257W        W90983  23.070  44.921   2.666
19258W        W90984  21.980  13.182  14.298
19259W        W90985  14.592  29.571  11.055
19260W        W90986  10.708  19.017  13.016
19261W        W90987  16.608  37.869  12.535
19262W        W90988  30.808  21.200  10.703
19263W        W90989  13.883  20.090   4.718
19264W        W90990  10.400  11.832  13.382
19265W        W90991  43.755  33.423  12.051
19266W        W90992  40.204  27.629   1.905
19267W        W90993  22.520  24.532  12.033
19268W        W90994  32.152  44.546  11.048
19269W        W90995   6.131  39.367   3.159
19270W        W90996  12.619  34.899  12.005
19271W        W90997  33.530  35.869  13.082
19272W        W90998   9.172  38.867   4.597
19273W        W90999  30.961  28.381  10.754
19274W        W91000  12.632  24.263  14.868
19275W        W91001  22.281  28.477   0.998
19276W        W91002  31.400  26.804   5.133
19277W        W91003  11.591  25.002   1.057
19278W        W91004  31.544  29.671  10.539
19279W        W91005  36.462  39.975   3.549
19280W        W91006   0.776  15.770   0.965
19281W        W91007  41.460   4.899   1.936
19282W        W91008  23.911  39.977   1.424
19283W        W91009   8.804   0.400  10.482
19284W        W91010  20.000  31.968   0.891
19285W        W91011   0.912  23.267  12.481
19286W        W91012  29.392   2.887   3.270
19287W        W91013  11.578  41.270  11.256
19288W        W91014  32.130   9.873  12.032
19289W        W91015  38.819  20.805   0.904
19290W        W91016  30.031  41.381   0.203
19291W        W91017  13.923  19.475   0.831
19292W        W91018  32.587  21.294  12.057
19293W        W91019  27.081  32.477   3.800
19294W        W91020  42.791  23.474  13.891
19295W        W91021  10.802   0.201  13.878
19296W        W91022  14.803  20.369  14.926
19297W        W91023   7.306   1.971   1.738
19298W        W91024   7.476  29.984   3.779
19299W        W91025  34.449   1.017  13.057
19300W        W91026  11.305   0.489  14.086
19301W        W91027  28.827  26.041  13.871
19302W        W91028  44.677  11.725   4.151
19303W        W91029  39.520  24.635   0.284
19304W        W91030  15.762   4.306   4.994
19305W        W91031   3.206  33.015   0.785
19306W        W91032  43.018  36.378  14.366
19307W        W91033  27.194  41.514   1.361
19308W        W91034  33.965  17.539  13.998
19309W        W91035  22.201   0.620   4.636
19310W        W91036  19.318  17.205   0.642
19311W        W91037  37.795  32.814   2.286
19312W        W91038  39.731   0.832   4.565
19313W        W91039   1.601  31.143  12.449
19314W        W91040  39.499  39.225  10.321
19315W        W91041  37.550  22.858   2.815
19316W        W91042  20.804   3.726   3.150
19317W        W91043  24.931  15.753  10.852
19318W        W91044  34.192  28.876  11.029
19319W        W91045  22.802   7.744  13.038
19320W        W91046  20.170  23.971  13.653
19321W        W91047  43.887  20.130  10.801
19322W        W91048  15.295  24.995  12.434
19323W        W91049   7.459  10.225  10.715
19324W        W91050   6.132  23.481   2.309
19325W        W91051  22.689  29.083  12.091
19326W        W91052   0.070  34.776   3.538
19327W        W91053  39.454  37.506   4.590
19328W        W91054  39.528  39.510  14.414
19329W        W91055  35.542   1.094  14.558
19330W        W91056  22.734   3.326  11.307
19331W        W91057  21.822   4.333  14.091
19332W        W91058   1.926  37.500  13.252
19333W        W91059   6.240  32.035   3.608
19334W        W91060  21.268   3.271  12.325
19335W        W91061  18.584  14.574   0.721
19336W        W91062  15.708  32.368   2.733
19337W        W91063   1.564  19.018  13.345
19338W        W91064  18.979   5.981  13.046
19339W        W91065   0.436  31.204  11.060
19340W        W91066  12.730  10.881   0.875
19341W        W91067  21.657  30.289   0.074
19342W        W91068   1.497  32.567   3.195
19343W        W91069   7.598  25.222  12.978
19344W        W91070  43.929  21.568  11.783
19345W        W91071  43.231  21.396   3.312
19346W        W91072  28.489   7.768  11.204
19347W        W91073  38.030  30.442  12.974
19348W        W91074   0.837  30.147   0.349
19349W        W91075  32.751  23.671  13.473
19350W        W91076  21.153  37.463   3.787
19351W        W91077  24.712   4.589   2.257
19352W        W91078  36.843  31.948   0.965
19353W        W91079   1.780  14.579   4.684
19354W        W91080  32.445  27.211  12.789
19355W        W91081  23.437  34.145   2.677
19356W        W91082  43.847  12.100  12.742
19357W        W91083   3.711  25.237   0.571
19358W        W91084  15.788  21.144  11.624
19359W        W91085  20.685  17.600  12.613
19360W        W91086  20.614   6.718  12.952
19361W        W91087  32.455  44.870  13.500
19362W        W91088  22.185  41.458   4.011
19363W        W91089  30.219  38.907  10.727
19364W        W91090  18.814   7.144  14.291
19365W        W91091  11.700  39.588   3.446
19366W        W91092   3.112  13.524   0.813
19367W        W91093  18.562  24.728  11.555
19368W        W91094  34.507   6.440  14.960
19369W        W91095  12.361  17.547   1.625
19370W        W91096  16.386  36.367   5.294
19371W        W91097  29.478  11.418   1.892
19372W        W91098  32.887  17.566   4.171
19373W        W91099  43.995  38.779  14.778
19374W        W91100  35.652  44.909   4.099
19375W        W91101  19.215  41.848  10.534
19376W        W91102   7.719   9.182  14.498
19377W        W91103  21.509  23.487  12.917
19378W        W91104  11.642  38.459  10.651
19379W        W91105  22.680  38.517   0.339
19380W        W91106  42.108  17.196   4.071
19381W        W91107  29.323  17.550  11.559
19382W        W91108  27.294  26.518   4.985
19383W        W91109  21.687  12.350   9.790
19384W        W91110   6.921  25.018  14.622
19385W        W91111  15.412  36.118   3.369
19386W        W91112   5.640   6.965   5.079
19387W        W91113   7.388   1.469  11.577
19388W        W91114  11.669   1.310  11.627
19389W        W91115  28.114  42.743   1.948
19390W        W91116  26.191  34.555  11.727
19391W        W91117  31.523   6.160   2.223
19392W        W91118  40.248  31.906   4.152
19393W        W91119   6.171  44.643  10.572
19394W        W91120  24.709  25.925  13.664
19395W        W91121  35.648  29.246  13.707
19396W        W91122  41.892  44.102  12.547
19397W        W91123  37.951   5.278  12.427
19398W        W91124  23.997  33.514   2.511
19399W        W91125  24.802  34.767  11.972
19400W        W91126  27.891  31.448  11.316
19401W        W91127  17.315  39.459  13.111
19402W        W91128  22.232  23.477  11.273
19403W        W91129  22.303  16.439   2.732
19404W        W91130  30.490   0.688   0.907
19405W        W91131  30.103  21.591   4.186
19406W        W91132  21.220  10.133   3.249
19407W        W91133  35.455  15.646  11.618
19408W        W91134   1.793  15.623  14.500
19409W        W91135  12.846  38.560  12.925
19410W        W91136  12.019   7.904   3.282
19411W        W91137  26.424  40.215   2.768
19412W        W91138   8.634  25.660  14.896
19413W        W91139  17.073   3.022  12.564
19414W        W91140  17.126  23.982   0.943
19415W        W91141  22.477  17.048   2.702
19416W        W91142  25.650   8.247   3.236
19417W        W91143   4.902  26.197   3.568
19418W        W91144  27.626  38.635  13.377
19419W        W91145  35.019  27.983   3.103
19420W        W91146  28.285   1.294  14.192
19421W        W91147   0.084  23.968  14.291
19422W        W91148  26.532  29.455  11.702
19423W        W91149  12.777  23.967   2.357
19424W        W91150  30.818  35.102   4.190
19425W        W91151  23.634  16.251   4.342
19426W        W91152  20.694   8.366   3.962
19427W        W91153  22.094  24.445  11.122
19428W        W91154  17.518  10.877  11.225
19429W        W91155  19.925   0.346   3.229
19430W        W91156  43.724  32.884  12.512
19431W        W91157   1.412  26.737   4.620
19432W        W91158  40.676  41.953   0.685
19433W        W91159   4.811  15.548  11.444
19434W        W91160  37.940  10.745  10.555
19435W        W91161  33.854   0.794  13.874
19436W        W91162  22.016  21.203  13.798
19437W        W91163  17.187   2.278  13.395
19438W        W91164  32.887  26.577   2.273
19439W        W91165  43.652  30.932   1.291
19440W        W91166  40.730  19.283  14.668
19441W        W91167  11.576  16.452   2.360
19442W        W91168  14.458  12.057  12.118
19443W        W91169  14.457   0.180  12.114
19444W        W91170   0.876  18.761  11.707
19445W        W91171   6.402  16.772  10.612
19446W        W91172  20.722  15.862   1.325
19447W        W91173   7.395   9.797   3.512
19448W        W91174  18.586  18.108  14.788
19449W        W91175  10.903  10.373   3.511
19450W        W91176  10.393   5.904   0.844
19451W        W91177  17.529  33.173  13.443
19452W        W91178  19.546  30.485   4.305
19453W        W91179  27.861  39.114  12.460
19454W        W91180  18.084  23.747  14.595
19455W        W91181  33.162  26.242  12.491
19456W        W91182   5.814  19.888   4.500
19457W        W91183  27.082   1.258   3.866
19458W        W91184  37.028  19.487   4.655
19459W        W91185  24.165  17.304  13.374
19460W        W91186  23.193  36.104  14.248
19461W        W91187   8.353  44.256  13.892
19462W        W91188   4.395  17.015   4.343
19463W        W91189  42.903  10.887   1.345
19464W        W91190  27.607  29.423   3.741
19465W        W91191  20.189   4.619   3.270
19466W        W91192  13.456  30.431   5.021
19467W        W91193  13.029   8.596  12.902
19468W        W91194  38.108  19.068  11.598
19469W        W91195  35.733  35.583  11.980
19470W        W91196  25.803   9.194   4.056
19471W        W91197   3.331  38.378  11.150
19472W        W91198  40.033   3.184   1.534
19473W        W91199  37.774  24.226  11.192
19474W        W91200  15.098  31.961  13.277
19475W        W91201   6.134  14.203  14.990
19476W        W91202  27.923  22.767   1.559
19477W        W91203  16.599  34.904  14.276
19478W        W91204  41.645  43.699   0.223
19479W        W91205  22.542  23.619   0.250
19480W        W91206  28.350  33.713   1.997
19481W        W91207  36.335   2.989  13.436
19482W        W91208   3.992   6.406  11.095
19483W        W91209  15.005  12.830  13.507
19484W        W91210  34.655  27.621  14.078
19485W        W91211  24.823  15.311   2.747
19486W        W91212  28.936  43.428   0.517
19487W        W91213   8.855   1.692   3.078
19488W        W91214  17.146  42.446  13.832
19489W        W91215   9.811  11.798   2.395
19490W        W91216  31.328   0.924   4.039
19491W        W91217  42.124   4.121   0.432
19492W        W91218  17.787  13.139  10.825
19493W        W91219  16.113  14.864   1.348
19494W        W91220  23.137  13.164   0.983
19495W        W91221   4.478  20.515  12.030
19496W        W91222  40.595  30.331   1.911
19497W        W91223   1.367  17.152  11.167
19498W        W91224  13.333  12.386   0.673
19499W        W91225  31.356   9.111  12.578
19500W        W91226  22.868  27.086   3.748
19501W        W91227  29.895  23.422   4.589
19502W        W91228  11.268   6.812  12.370
19503W        W91229   0.028  38.888   0.471
19504W        W91230  11.171  25.437   4.683
19505W        W91231  34.505  32.643  11.362
19506W        W91232  33.440  26.672  11.178
19507W        W91233  20.566  36.883   1.626
19508W        W91234  23.039   5.576   0.180
19509W        W91235  35.945  40.543   3.172
19510W        W91236  43.778  20.427  13.478
19511W        W91237  10.450   8.252  10.719
19512W        W91238  17.139  21.655   2.674
19513W        W91239  37.881  29.853  14.249
19514W        W91240  43.462  24.651  10.940
19515W        W91241  18.904  18.525   1.836
19516W        W91242  20.397   0.973   0.880
19517W        W91243  23.328   9.229  14.338
19518W        W91244   8.272   9.981   0.802
19519W        W91245  30.463  32.380  10.351
19520W        W91246  41.263   8.924  13.418
19521W        W91247  12.793  25.027   4.158
19522W        W91248  40.575  40.799   0.251
19523W        W91249  35.340  17.542  13.611
19524W        W91250  34.887  28.057   3.738
19525W        W91251  32.568  14.601   0.993
19526W        W91252  17.500   6.189  13.402
19527W        W91253  25.157  33.173   3.211
19528W        W91254  17.167   3.786   1.303
19529W        W91255  33.519  38.825   2.169
19530W        W91256  41.431  24.774  13.364
19531W        W91257   6.196  25.573   2.639
19532W        W91258  43.284   1.136   3.379
19533W        W91259  17.140  36.504   3.155
19534W        W91260  28.105  35.319  12.405
19535W        W91261  43.109  40.588  13.648
19536W        W91262  24.995  12.859  10.674
19537W        W91263  30.221  25.513  13.833
19538W        W91264  35.062  21.195  13.868
19539W        W91265  20.476  36.118   4.583
19540W        W91266   9.527  26.702   1.320
19541W        W91267  40.545  19.144  11.696
19542W        W91268  29.636  18.466  12.386
19543W        W91269  29.133  11.568  13.976
19544W        W91270   1.738  38.302   3.123
19545W        W91271   1.278  25.963   4.125
19546W        W91272  35.588  13.008   3.229
19547W        W91273  11.314  31.115  12.725
19548W        W91274  14.293  35.684   4.044
19549W        W91275  18.068   2.655  13.866
19550W        W91276  31.923  20.542  11.116
19551W        W91277   6.413  39.927   2.554
19552W        W91278  36.239   8.724  14.047
19553W        W91279   0.331  19.850   3.134
19554W        W91280  37.934  41.097  12.921
19555W        W91281  24.972  38.404   3.462
19556W        W91282  19.044  16.270  11.490
19557W        W91283  21.164  41.297   3.297
19558W        W91284  27.180  37.547   2.806
19559W        W91285  38.458   6.753   0.225
19560W        W91286  35.988   3.744   3.784
19561W        W91287  31.887  32.944   2.166
19562W        W91288  27.689  22.794   4.626
19563W        W91289  24.550  25.554  10.840
19564W        W91290  31.939  41.629   2.208
19565W        W91291  33.456  27.775   2.656
19566W        W91292  39.777  26.174   0.920
19567W        W91293   1.461  37.297  14.789
19568W        W91294  27.501  44.814   2.194
19569W        W91295  15.247  17.029   2.104
19570W        W91296   8.247   8.369   1.670
19571W        W91297  41.773  39.775   4.644
19572W        W91298  36.505   6.354  11.165
19573W        W91299   7.081  35.575  13.092
19574W        W91300   8.135   2.011  13.980
19575W        W91301   1.899  18.334   1.750
19576W        W91302  15.709  43.501  13.967
19577W        W91303  34.939   7.886   2.230
19578W        W91304   5.976  44.590   3.147
19579W        W91305   0.893  28.985   0.834
19580W        W91306  43.255  43.906   0.379
19581W        W91307   4.850  27.654   2.844
19582W        W91308  30.847  42.865   4.689
19583W        W91309  10.874   7.859  12.859
19584W        W91310  33.554  44.679   2.064
19585W        W91311   5.262  16.039  12.014
19586W        W91312  37.933  22.978  11.156
19587W        W91313  11.939  10.201   2.154
19588W        W91314  32.187  33.538   4.664
19589W        W91315   9.690  32.169   3.614
19590W        W91316  42.969   8.891  14.931
19591W        W91317  40.214   7.281  11.066
19592W        W91318  35.615  10.664  11.622
19593W        W91319  23.934  20.431   3.148
19594W        W91320   0.939  24.190  14.013
19595W        W91321  31.938   1.562  14.962
19596W        W91322   7.882   6.648   2.269
19597W        W91323  39.357  12.167   0.230
19598W        W91324  12.756   7.868   1.425
19599W        W91325   3.185  40.029   4.862
19600W        W91326  41.094  31.010  12.129
19601W        W91327  17.349  35.387  13.384
19602W        W91328  26.406   4.320   4.569
19603W        W91329  37.557  27.232  14.558
19604W        W91330  19.515  22.206  13.900
19605W        W91331  13.023  19.776   3.080
19606W        W91332  32.184   5.792   2.758
19607W        W91333  11.127  25.210   3.826
19608W        W91334  10.170  18.172   0.801
19609W        W91335  29.262  19.677  14.940
19610W        W91336   9.112   0.247  11.275
19611W        W91337  30.863  32.644   1.539
19612W        W91338  30.548   3.475  11.628
19613W        W91339   8.159   2.500   1.420
19614W        W91340   5.263  23.312   4.880
19615W        W91341  25.443  11.085   4.556
19616W        W91342  11.908   2.812  10.717
19617W        W91343   1.876   8.197  14.040
19618W        W91344  36.926  19.148  12.403
19619W        W91345  10.325   1.198  12.900
19620W        W91346  42.512  35.684   1.146
19621W        W91347  41.311   2.370   3.101
19622W        W91348  19.492  43.513   3.918
19623W        W91349   3.277   9.994   4.744
19624W        W91350  30.471  25.987   1.416
19625W        W91351   5.748   9.144   0.373
19626W        W91352  13.757  28.569  11.924
19627W        W91353   2.008   4.003  12.989
19628W        W91354  34.191   3.772  11.585
19629W        W91355   8.627  26.141  11.044
19630W        W91356  12.169  28.464   4.495
19631W        W91357  24.350  29.199  12.543
19632W        W91358  22.572  25.625   0.049
19633W        W91359  20.228   9.295   2.962
19634W        W91360  30.801  43.914  11.557
19635W        W91361  42.124  12.472  13.070
19636W        W91362  39.410  32.880   3.422
19637W        W91363  30.654  30.396  14.097
19638W        W91364  38.536  43.913   4.775
19639W        W91365  25.176  15.146  13.414
19640W        W91366  34.810  41.257  13.312
19641W        W91367  21.629  42.848   1.766
19642W        W91368  33.026  11.970   2.182
19643W        W91369   8.331   4.573   5.102
19644W        W91370  28.150   8.672   3.668
19645W        W91371  32.914  35.092  12.021
19646W        W91372   0.649   2.884  11.181
19647W        W91373  28.786   8.276   0.642
19648W        W91374  11.365  27.187  11.517
19649W        W91375   4.459  35.046  11.968
19650W        W91376  13.350  20.201   3.174
19651W        W91377  39.727  11.883  13.067
19652W        W91378  10.292  15.721  14.770
19653W        W91379  18.843  18.219  13.483
19654W        W91380  15.210  42.762   0.673
19655W        W91381  39.790  35.513   1.386
19656W        W91382  38.593  31.264  11.219
19657W        W91383  43.185   6.664   0.843
19658W        W91384   1.875  11.397  12.982
19659W        W91385  32.425   4.183   2.839
19660W        W91386   6.607  19.253  13.762
19661W        W91387   3.969  17.994  12.560
19662W        W91388  30.897  17.571  12.829
19663W        W91389   5.893   4.758   1.243
19664W        W91390   4.275  12.533  11.826
19665W        W91391  22.164  21.631   4.577
19666W        W91392  14.348  13.627  13.814
19667W        W91393  40.790   7.039  11.740
19668W        W91394  12.151  39.896  12.014
19669W        W91395  16.495  11.298  12.388
19670W        W91396  19.274  16.005  11.118
19671W        W91397   6.991  15.162   4.253
19672W        W91398   7.808  21.460   3.239
19673W        W91399  27.743  25.460   3.596
19674W        W91400  32.519   4.356   4.670
19675W        W91401   5.386  17.779  12.709
19676W        W91402  32.159   5.143  11.131
19677W        W91403  15.034  40.416   4.784
19678W        W91404   0.495  17.608   4.467
19679W        W91405  25.101  20.792  10.070
19680W        W91406   7.245   5.934  12.285
19681W        W91407   4.050   0.324   4.228
19682W        W91408  12.119  29.674  11.105
19683W        W91409  34.902   2.207  12.408
19684W        W91410  28.075  34.867  10.575
19685W        W91411  42.455  43.029  10.996
19686W        W91412   7.918  16.800   0.489
19687W        W91413  16.803  40.780   1.716
19688W        W91414  26.257  44.433  12.019
19689W        W91415   1.407  31.643  12.401
19690W        W91416   9.170  39.394  10.636
19691W        W91417   5.215   2.946  12.229
19692W        W91418   5.847  13.778   2.271
19693W        W91419  33.634  23.162  11.170
19694W        W91420   5.746  31.334   0.920
19695W        W91421  18.686   0.123   3.052
19696W        W91422  43.191   0.694  10.598
19697W        W91423   0.811  33.834  13.747
19698W        W91424  43.607  40.513  11.527
19699W        W91425  10.792   9.360   4.650
19700W        W91426  23.648  33.350   2.181
19701W        W91427  32.846  32.142  12.897
19702W        W91428  44.828  18.060   0.597
19703W        W91429  32.401  23.160   0.300
19704W        W91430  34.064   3.614  14.794
19705W        W91431  32.412  27.392   3.677
19706W        W91432  39.661  12.245  11.712
19707W        W91433   1.332  13.693  12.574
19708W        W91434  18.057  22.527   2.334
19709W        W91435  40.992  36.164  12.481
19710W        W91436  41.107  12.357   3.284
19711W        W91437  11.180   2.534   1.319
19712W        W91438  42.282  21.139   2.209
19713W        W91439  23.727  43.212  14.852
19714W        W91440  34.381  12.191   4.411
19715W        W91441  29.222  23.278  12.484
19716W        W91442  22.808  12.851  12.371
19717W        W91443  16.112   9.239  12.770
19718W        W91444  36.058  31.668   0.993
19719W        W91445  33.510  24.673   3.609
19720W        W91446   3.481  35.139  13.457
19721W        W91447  17.657   6.459   3.608
19722W        W91448  17.232  18.124   0.766
19723W        W91449  16.661  10.731  14.856
19724W        W91450  37.387  18.989  13.139
19725W        W91451  19.102  38.465  11.827
19726W        W91452  42.851  17.984   0.191
19727W        W91453  34.441  28.681  12.551
19728W        W91454  31.413   8.075  11.847
19729W        W91455  27.846  19.104   3.706
19730W        W91456  21.113   9.915  12.548
19731W        W91457  15.210  10.099  13.155
19732W        W91458  18.158  44.416  11.574
19733W        W91459   3.294  12.164  14.354
19734W        W91460  37.961  43.706   0.337
19735W        W91461  44.497  13.104   2.521
19736W        W91462  18.244   0.558  10.741
19737W        W91463  23.086  35.982   0.766
19738W        W91464  40.397  34.118   4.150
19739W        W91465   5.624   8.861   0.865
19740W        W91466  38.442  25.259   2.841
19741W        W91467  34.998  26.634  12.614
19742W        W91468   2.256   1.646  12.889
19743W        W91469  32.070  15.511  10.296
19744W        W91470   7.946  21.281  12.967
19745W        W91471  21.506  19.522  14.622
19746W        W91472  27.005  26.461   1.118
19747W        W91473  16.665  13.201   1.790
19748W        W91474  33.388  24.133   0.798
19749W        W91475  15.726  39.505   4.162
19750W        W91476  14.711  23.265   2.802
19751W        W91477  14.423  39.836   3.270
19752W        W91478  39.105   1.580  13.351
19753W        W91479   0.556  26.408   5.042
19754W        W91480  29.885  34.937  11.527
19755W        W91481  17.107   3.137  13.528
19756W        W91482   3.415   9.607  10.369
19757W        W91483   0.413  44.485   2.780
19758W        W91484   2.807   8.508   2.130
19759W        W91485  31.609  17.336  12.611
19760W        W91486  16.549  16.387   2.371
19761W        W91487  10.307   9.371   3.419
19762W        W91488  31.646   8.311   3.354
19763W        W91489   9.184   1.766  11.634
19764W        W91490  24.114  42.987   3.303
19765W        W91491  21.473   4.023  13.879
19766W        W91492  32.091  15.133  10.718
19767W        W91493  43.947   8.281   2.302
19768W        W91494  36.784  39.582  12.994
19769W        W91495   7.417  42.301   4.342
19770W        W91496   7.758  23.577   0.728
19771W        W91497  12.140   7.456   1.994
19772W        W91498  14.782   8.510  14.900
19773W        W91499  34.623  11.548   2.803
19774W        W91500  33.519  34.119  13.518
19775W        W91501  41.231   4.914  14.939
19776W        W91502   8.225  35.305  14.908
19777W        W91503  21.678  10.651   0.088
19778W        W91504  10.679  34.905   1.429
19779W        W91505  18.031   8.462   0.857
19780W        W91506   0.615  41.332  11.646
19781W        W91507  40.932  42.777   0.792
19782W        W91508  10.184  19.187   2.893
19783W        W91509  44.258  16.161   3.779
19784W        W91510   0.066  26.511  10.971
19785W        W91511  30.988  34.783  14.625
19786W        W91512   1.280   9.391  12.460
19787W        W91513   3.397  29.272  10.886
19788W        W91514   6.972   5.440   0.382
19789W        W91515  27.219  17.070   4.569
19790W        W91516  30.560  12.294  11.658
19791W        W91517   0.306  11.021   0.054
19792W        W91518   0.339  37.987  13.498
19793W        W91519  27.074  35.585  13.248
19794W        W91520  17.626  31.009   0.817
19795W        W91521   0.004   9.487   4.204
19796W        W91522  22.438  10.517  13.829
19797W        W91523  24.980   8.482  13.090
19798W        W91524  39.800  34.034  11.619
19799W        W91525  41.254  31.711   2.257
19800W        W91526  13.228   0.750   0.035
19801W        W91527  40.318  31.373   2.250
19802W        W91528  30.714  11.300  11.437
19803W        W91529  41.605  21.075  14.395
19804W        W91530  23.063  16.856   0.834
19805W        W91531  39.450  39.583   0.389
19806W        W91532  12.750  34.058   3.915
19807W        W91533   8.232  18.733   0.179
19808W        W91534  28.062  42.951   0.397
19809W        W91535  28.376  11.625  14.442
19810W        W91536   2.481  23.585  14.338
19811W        W91537  39.415   7.606   3.379
19812W        W91538  41.088  44.772   4.617
19813W        W91539  31.884  44.786  13.277
19814W        W91540  39.514   3.238   0.792
19815W        W91541  32.766   9.206  12.010
19816W        W91542  24.625  42.017   1.270
19817W        W91543   4.664  37.018   4.186
19818W        W91544  41.032   4.323  14.275
19819W        W91545   3.818  37.446  13.478
19820W        W91546  44.810   6.750  11.680
19821W        W91547  27.269  31.163  11.934
19822W        W91548  30.903  44.647  13.288
19823W        W91549  22.194  10.659  10.509
19824W        W91550  18.145  34.936   1.847
19825W        W91551  16.736   1.200  13.876
19826W        W91552  38.835  38.864  12.755
19827W        W91553  43.004  16.195   0.756
19828W        W91554  12.184  40.340   0.408
19829W        W91555  33.731  32.943   1.904
19830W        W91556  37.435  23.221  12.049
19831W        W91557  19.274  44.502   0.324
19832W        W91558   9.269  19.605   0.054
19833W        W91559  12.478  38.951  12.049
19834W        W91560  38.791   3.637   4.434
19835W        W91561  31.891  30.208  13.006
19836W        W91562  24.185  34.365   2.862
19837W        W91563  13.236  16.226   3.663
19838W        W91564  21.514  10.462   3.028
19839W        W91565  22.581   6.024  11.976
19840W        W91566  41.741  12.800   1.502
19841W        W91567  21.925  17.216   1.670
19842W        W91568  12.907  15.582  11.946
19843W        W91569  14.179  29.488   0.979
19844W        W91570  21.564   1.535  10.955
19845W        W91571   2.731   8.734  10.645
19846W        W91572  38.544   5.464  14.775
19847W        W91573  38.271   6.234  14.114
19848W        W91574  18.981   6.687   4.804
19849W        W91575  25.232  18.644   1.844
19850W        W91576  12.798  19.297   3.240
19851W        W91577   6.788   2.830   0.842
19852W        W91578  17.745   7.549  11.958
19853W        W91579  29.257  35.585  13.437
19854W        W91580  25.550  34.606  12.969
19855W        W91581  26.096  10.833  10.411
19856W        W91582  44.215  28.120   0.919
19857W        W91583  31.192  33.540  11.979
19858W        W91584  20.700  25.126  14.853
19859W        W91585  41.070  42.845  10.861
19860W        W91586   8.982  41.877   4.063
19861W        W91587  36.421  22.219  12.925
19862W        W91588  40.951  14.968  13.060
19863W        W91589  33.078  24.556   0.800
19864W        W91590  23.130  22.737   3.207
19865W        W91591  31.901  12.561   2.078
19866W        W91592  18.643   0.562  11.072
19867W        W91593  31.952   8.914  11.639
19868W        W91594  37.715  14.783  13.980
19869W        W91595  17.204   6.765   0.326
19870W        W91596   9.853  28.134   0.333
19871W        W91597  22.801  14.594  13.480
19872W        W91598  18.139  39.999   3.237
19873W        W91599  17.204   4.698   1.414
19874W        W91600   2.283   1.251   0.478
19875W        W91601  22.192  36.971  10.654
19876W        W91602  13.702  29.990   4.671
19877W        W91603   2.241  31.577  13.473
19878W        W91604   9.295  24.207  12.377
19879W        W91605   2.923   5.990   4.080
19880W        W91606  44.018  15.855  13.366
19881W        W91607  28.451   0.860   0.293
19882W        W91608   6.296  36.825  13.819
19883W        W91609   3.200  28.182  13.994
19884W        W91610   1.190  40.241   2.363
19885W        W91611   5.215  13.509  13.480
19886W        W91612  44.358  30.512  12.040
19887W        W91613  33.919  39.631  11.101
19888W        W91614  40.320  21.081  11.860
19889W        W91615  43.735  23.526  14.829
19890W        W91616  41.487  15.354   3.362
19891W        W91617  20.610  39.563   0.344
19892W        W91618  34.597   0.778  14.875
19893W        W91619  26.920  42.418  13.342
19894W        W91620   5.697  40.877  12.604
19895W        W91621  44.738  39.779  11.129
19896W        W91622  42.386   6.228   4.341
19897W        W91623  20.643  26.581  14.927
19898W        W91624  22.134  30.901  12.437
19899W        W91625  34.044  23.606  12.292
19900W        W91626  11.525  12.260  10.204
19901W        W91627  19.510  17.084  12.377
19902W        W91628  22.705   4.430   0.453
19903W        W91629  33.651  24.477  13.944
19904W        W91630  14.295  22.989  13.851
19905W        W91631  16.256  38.429   0.739
19906W        W91632  27.961  15.118   0.945
19907W        W91633  34.390  35.852  11.660
19908W        W91634   8.231  22.616   2.690
19909W        W91635  42.048  43.837  12.951
19910W        W91636   1.866   1.829  13.634
19911W        W91637  31.679  27.538  11.203
19912W        W91638   2.726   6.182  11.199
19913W        W91639  13.297  22.571   4.524
19914W        W91640  38.763  25.607   1.766
19915W        W91641  31.745  30.523  12.416
19916W        W91642  28.114  36.359  10.644
19917W        W91643   3.450  11.808  10.552
19918W        W91644  15.065  11.772   1.311
19919W        W91645  25.602  32.086   2.207
19920W        W91646  26.175  28.662   2.648
19921W        W91647   9.392  40.235  14.305
19922W        W91648  43.413  28.518  13.497
19923W        W91649  25.448  23.705   3.393
19924W        W91650  37.992  12.490  10.980
19925W        W91651   3.955   9.295   2.278
19926W        W91652  38.235   9.581  12.806
19927W        W91653  10.622  23.988  10.483
19928W        W91654  19.294  24.118   1.848
19929W        W91655  37.923  26.276  13.399
19930W        W91656   5.454  36.607  11.091
19931W        W91657  33.374  31.003   3.296
19932W        W91658  23.582  38.764   2.808
19933W        W91659  27.184   1.903  14.576
19934W        W91660  24.314  18.914  14.466
19935W        W91661  15.928   0.773  14.068
19936W        W91662  27.217  35.011   1.607
19937W        W91663  15.732  33.949  11.158
19938W        W91664   8.830  23.011  13.845
19939W        W91665  27.628  13.575   2.182
19940W        W91666  32.241   9.142   1.353
19941W        W91667  35.500  26.688   2.721
19942W        W91668  17.800  28.690  11.679
19943W        W91669  34.523  44.526   1.739
19944W        W91670  31.661   5.984   2.718
19945W        W91671  34.461  18.415  10.850
19946W        W91672  39.251  41.286  13.891
19947W        W91673  34.365   6.867  12.415
19948W        W91674   8.230  41.566   0.873
19949W        W91675  15.748   4.455  12.971
19950W        W91676   4.539  26.641   4.558
19951W        W91677  13.288  30.203  12.214
19952W        W91678  44.725   1.248   0.394
19953W        W91679   7.698  19.091   0.932
19954W        W91680  29.817  27.446  14.149
19955W        W91681  26.920  25.118  12.026
19956W        W91682   5.370  24.419   2.750
19957W        W91683  17.336  20.031  12.012
19958W        W91684  23.027  17.885   0.857
19959W        W91685  13.655  34.954  13.614
19960W        W91686  15.753  11.636  11.186
19961W        W91687  17.399  44.832   0.780
19962W        W91688  23.482  26.142  10.571
19963W        W91689  11.723  19.510   4.561
19964W        W91690  31.370  17.835   0.754
19965W        W91691  33.402  34.543  12.347
19966W        W91692  21.606   2.350   1.256
19967W        W91693  27.054  27.739   1.703
19968W        W91694  10.103  14.358  10.710
19969W        W91695   8.516  28.038  13.400
19970W        W91696  27.064  37.950  10.884
19971W        W91697   1.930  29.349  11.984
19972W        W91698  15.058   3.784   2.361
19973W        W91699  33.498  33.644  13.306
19974W        W91700  12.609   9.277  10.694
19975W        W91701  35.089  41.496  10.648
19976W        W91702   3.211   4.242   1.191
19977W        W91703   2.540  11.744   1.717
19978W        W91704  36.512  37.625   4.144
19979W        W91705  38.481  39.287  13.939
19980W        W91706  13.236  37.304   5.003
19981W        W91707  42.493  16.180  13.834
19982W        W91708  42.804  12.022  11.893
19983W        W91709  23.661  19.320   3.787
19984W        W91710  11.734  17.764  11.194
19985W        W91711  16.896  10.673   2.877
19986W        W91712  39.334   0.321   4.369
19987W        W91713  21.959  31.490  12.181
19988W        W91714  14.858   7.798   2.601
19989W        W91715  40.745  43.452  12.553
19990W        W91716  36.419  23.989  14.355
19991W        W91717  11.239  11.342   1.825
19992W        W91718  42.362  34.483   3.753
19993W        W91719  39.356  19.529   2.622
19994W        W91720  31.109  44.945  11.602
19995W        W91721  35.781   0.730   3.597
19996W        W91722  43.204  24.465  11.961
19997W        W91723  34.658   1.208  11.112
19998W        W91724   2.460  13.321  11.211
19999W        W91725   7.385  44.041  14.973
20000W        W91726   4.859  36.408  14.305
20001W        W91727   7.579   1.984   4.409
20002W        W91728  34.915  17.198  14.361
20003W        W91729   7.786  25.890   1.251
20004W        W91730  10.689   4.172  12.492
20005W        W91731  12.177   6.133  10.002
20006W        W91732  36.155  21.652  10.702
20007W        W91733   6.854  13.225  13.798
20008W        W91734  13.804  13.994   2.060
20009W        W91735  14.163  10.055  11.207
20010W        W91736  18.166  22.836  12.386
20011W        W91737  32.043  38.522   0.533
20012W        W91738  11.737   3.028   3.237
20013W        W91739  29.756  38.849  11.466
20014W        W91740  34.478  28.018   1.897
20015W        W91741  21.464  29.712  13.060
20016W        W91742  42.441  43.520  13.751
20017W        W91743  33.125  20.090  14.374
20018W        W91744  37.941  10.243   2.351
20019W        W91745  37.560  23.543  13.369
20020W        W91746  10.459  28.138   1.468
20021W        W91747   7.664   6.897   1.867
20022W        W91748  28.222   3.241   1.354
20023W        W91749   1.417  32.208  13.365
20024W        W91750   8.712  13.239  13.509
20025W        W91751  26.174   0.326  12.492
20026W        W91752  29.032  10.016   1.809
20027W        W91753   5.835  29.885  14.279
20028W        W91754  43.755  31.357   1.586
20029W        W91755  38.507  18.585  13.339
20030W        W91756   1.545  32.957   4.313
20031W        W91757  30.584  42.871   4.246
20032W        W91758  20.843  12.141   1.489
20033W        W91759  16.123  42.705  10.217
20034W        W91760  37.956  44.197  12.883
20035W        W91761   9.776  15.098   3.354
20036W        W91762  38.125  32.096   1.435
20037W        W91763   2.902  13.358   0.337
20038W        W91764  10.260  11.893   1.781
20039W        W91765   0.514   8.617  11.532
20040W        W91766   9.157  36.939   1.757
20041W        W91767   8.775  16.479   0.418
20042W        W91768  22.059  33.542   4.113
20043W        W91769  35.555  31.996  14.387
20044W        W91770  21.868   3.285  11.481
20045W        W91771   6.920   3.703  11.953
20046W        W91772   1.312   5.814   3.692
20047W        W91773  11.700   3.991  12.616
20048W        W91774  29.003  27.439  10.619
20049W        W91775   5.333  13.392   3.060
20050W        W91776   8.038   6.106   0.426
20051W        W91777  12.701   0.393   3.374
20052W        W91778  14.069   3.172   5.081
20053W        W91779  20.759  13.079  12.770
20054W        W91780  12.196   2.857   3.015
20055W        W91781  28.667  41.467  12.807
20056W        W91782  20.157  29.917   4.057
20057W        W91783   6.000  34.594   1.521
20058W        W91784  30.869  37.641  11.094
20059W        W91785  44.635   2.925   0.801
20060W        W91786  43.275   0.236   4.951
20061W        W91787   9.051  13.262   0.825
20062W        W91788  16.046   0.531   2.326
20063W        W91789  30.422   9.716   1.278
20064W        W91790  36.086  39.173   3.679
20065W        W91791  24.282   0.213   1.399
20066W        W91792   8.049  32.907  12.359
20067W        W91793  34.781  23.116   3.569
20068W        W91794  36.332  33.030  13.237
20069W        W91795  33.726  26.710   1.847
20070W        W91796   4.844  14.022   2.749
20071W        W91797  43.938  37.908   4.255
20072W        W91798  24.105  41.507   1.769
20073W        W91799   8.726  10.239   0.727
20074W        W91800  39.151  21.719  13.464
20075W        W91801  22.413   1.069   4.462
20076W        W91802  33.451  17.704   3.344
20077W        W91803  12.690  41.905  14.546
20078W        W91804  11.515  24.700   0.281
20079W        W91805  26.706   8.911   3.677
20080W        W91806  37.628  44.133  11.582
20081W        W91807  16.213  12.741   1.150
20082W        W91808   8.781   7.922   4.334
20083W        W91809  18.340  19.920   3.413
20084W        W91810   1.924  39.529   4.739
20085W        W91811  34.509  43.580   1.289
20086W        W91812  13.567  23.263   1.356
20087W        W91813  36.709   1.415  13.538
20088W        W91814  17.812   3.520  12.040
20089W        W91815   7.337  23.775  12.516
20090W        W91816  13.722  40.277  14.024
20091W        W91817  20.173  41.444   0.716
20092W        W91818  27.694   4.474  10.404
20093W        W91819  33.636   0.389  14.950
20094W        W91820  22.617  15.744  14.318
20095W        W91821  43.200   7.433   1.376
20096W        W91822  17.281   5.596   1.302
20097W        W91823  36.477  10.713   4.555
20098W        W91824  26.056  20.919  12.920
20099W        W91825  27.421  12.550  12.089
20100W        W91826   3.232  13.889   2.194
20101W        W91827   3.387   9.578   2.630
20102W        W91828  24.963  14.759  13.105
20103W        W91829  40.450  29.279  11.921
20104W        W91830   5.102  42.883   1.859
20105W        W91831  31.057  38.552   2.637
20106W        W91832  34.651  34.641  11.159
20107W        W91833   4.732   2.401   3.176
20108W        W91834  11.991   0.800   4.069
20109W        W91835   1.206   0.968  11.326
20110W        W91836  29.273  43.389  14.396
20111W        W91837   3.348  33.404  10.762
20112W        W91838  35.820  40.349  14.344
20113W        W91839   5.482   1.941   3.187
20114W        W91840  43.025  42.396   3.744
20115W        W91841  44.369  13.808  12.132
20116W        W91842  11.042  25.478   5.172
20117W        W91843  29.450   2.209   3.959
20118W        W91844  29.753  44.006   1.309
20119W        W91845  40.543  12.040  11.220
20120W        W91846  21.578   7.254  12.469
20121W        W91847  42.033  18.213  13.724
20122W        W91848  35.397   9.700  11.576
20123W        W91849   5.003   7.674   4.950
20124W        W91850  28.903  43.722  13.634
20125W        W91851  25.328  33.647  12.741
20126W        W91852  34.407  26.597   2.435
20127W        W91853   6.816   9.749  14.713
20128W        W91854   7.803  20.483   1.742
20129W        W91855  23.943   6.379   4.591
20130W        W91856   6.796   4.943  11.172
20131W        W91857  25.211  27.722   2.816
20132W        W91858  26.290  40.133   0.492
20133W        W91859   0.587  19.520   3.989
20134W        W91860  33.867  18.945   3.751
20135W        W91861  17.726   4.560  11.169
20136W        W91862  26.953   9.338   3.551
20137W        W91863  16.221  22.368   3.632
20138W        W91864  40.474   0.872  12.064
20139W        W91865  20.311  36.996  10.667
20140W        W91866  18.696  41.781  11.466
20141W        W91867  30.885  30.908   4.144
20142W        W91868  10.784  32.172  14.889
20143W        W91869  20.475   0.866  14.580
20144W        W91870  29.675  44.764  10.930
20145W        W91871  36.415  43.132  11.698
20146W        W91872  21.405  28.106   0.785
20147W        W91873  41.173  10.386   1.806
20148W        W91874  21.153  12.251  11.916
20149W        W91875  33.758  15.156   3.623
20150W        W91876  24.646  23.747   0.728
20151W        W91877  15.072   9.308  10.707
20152W        W91878  11.126  19.668  12.859
20153W        W91879  33.350  13.728   1.240
20154W        W91880  26.525  42.845   0.295
20155W        W91881  26.747  10.134  13.570
20156W        W91882  35.500  29.037   4.647
20157W        W91883  10.599  21.034  13.523
20158W        W91884  37.526   5.094  10.361
20159W        W91885  38.694  33.025  14.478
20160W        W91886  18.560  33.413  11.181
20161W        W91887  39.780  21.792  14.014
20162W        W91888  27.108  34.857  11.053
20163W        W91889  36.060   1.970   1.014
20164W        W91890  32.927  30.915   0.829
20165W        W91891  23.725  19.302   1.894
20166W        W91892  41.467  23.218  10.877
20167W        W91893  11.529   6.902  13.863
20168W        W91894  22.093  21.771  11.631
20169W        W91895  32.906  18.529  14.054
20170W        W91896  12.975  31.472  12.029
20171W        W91897  11.832  35.520  11.539
20172W        W91898  15.378  24.090  12.231
20173W        W91899  24.683  14.063  12.446
20174W        W91900   9.806   7.033   3.800
20175W        W91901  20.013   5.530   0.709
20176W        W91902  20.024  14.732   1.711
20177W        W91903  18.371  35.102   0.828
20178W        W91904  21.110  27.088  10.132
20179W        W91905  34.247   9.747   0.287
20180W        W91906   9.003  31.344  11.155
20181W        W91907  20.122  27.136   2.477
20182W        W91908  32.573  17.894  14.370
20183W        W91909  34.441  29.484   1.895
20184W        W91910  15.617   1.762  13.978
20185W        W91911  28.952  32.477   3.226
20186W        W91912   5.262  38.739   2.102
20187W        W91913   5.337  37.454  10.777
20188W        W91914  14.342  35.402  11.560
20189W        W91915   9.093  16.283   4.234
20190W        W91916  32.983  39.405   2.659
20191W        W91917   7.867  36.973   0.866
20192W        W91918  24.654  15.557   4.906
20193W        W91919  26.188  11.881  12.846
20194W        W91920  14.307   4.864  10.415
20195W        W91921   1.266  40.899   3.760
20196W        W91922   4.186  23.146   3.617
20197W        W91923   3.445  24.109  13.494
20198W        W91924  18.206  19.358  14.770
20199W        W91925  11.064  14.548  14.840
20200W        W91926   6.701  10.652   0.707
20201W        W91927   2.751  10.701   1.917
20202W        W91928   8.260  21.807  11.962
20203W        W91929   9.985  11.315  12.416
20204W        W91930  31.546  37.331  13.584
20205W        W91931  34.274  31.856  13.777
20206W        W91932   0.014  13.581   3.649
20207W        W91933  40.556  26.069   0.299
20208W        W91934  19.264  15.192   4.822
20209W        W91935   5.034  35.920  14.559
20210W        W91936   2.939  32.308   5.303
20211W        W91937  20.118  12.522  14.282
20212W        W91938   7.194   8.557   3.116
20213W        W91939  18.981   6.422   1.377
20214W        W91940  20.026  36.094  13.023
20215W        W91941  43.294  24.018   3.381
20216W        W91942  10.630  39.994   0.927
20217W        W91943  27.104  38.039   0.775
20218W        W91944   3.505  35.285   4.142
20219W        W91945  31.907   7.425  11.365
20220W        W91946  13.096  39.092   3.653
20221W        W91947   1.546  34.351  11.486
20222W        W91948   0.460  31.833  13.254
20223W        W91949  22.754   0.724  13.305
20224W        W91950   0.620   6.316   5.053
20225W        W91951  34.562  21.067  10.521
20226W        W91952  37.280  28.365   1.643
20227W        W91953  35.822  14.123   3.114
20228W        W91954  33.092   2.158  12.059
20229W        W91955   2.427  29.483   3.152
20230W        W91956  13.097  42.499   4.059
20231W        W91957  37.927  13.731   1.129
20232W        W91958   7.251  19.344  13.041
20233W        W91959  12.140  32.586   4.801
20234W        W91960  25.958  31.377   2.173
20235W        W91961  41.869  39.232  14.324
20236W        W91962   0.472   7.270   4.445
20237W        W91963   3.370   0.213  12.819
20238W        W91964  22.154  42.333   2.378
20239W        W91965  29.102  29.228  11.175
20240W        W91966  19.101  26.518  10.391
20241W        W91967  42.657  13.866  10.741
20242W        W91968  22.641  40.495   1.140
20243W        W91969  34.411  27.666   1.016
20244W        W91970  11.908   2.986   4.902
20245W        W91971   8.073   6.757   3.138
20246W        W91972  43.407  22.413   3.413
20247W        W91973  12.280   2.283  13.062
20248W        W91974   9.095   0.301  13.456
20249W        W91975  33.909  27.487   4.568
20250W        W91976  33.898   7.931   4.100
20251W        W91977  22.452   2.177   1.244
20252W        W91978  25.103  21.244  14.887
20253W        W91979  38.342  22.575   2.311
20254W        W91980  34.484  25.268   1.532
20255W        W91981   7.418  28.799  13.036
20256W        W91982  17.022  31.542  13.897
20257W        W91983  27.980  16.195   0.838
20258W        W91984  39.836   0.529   2.666
20259W        W91985  12.320  18.876   3.680
20260W        W91986  17.080  11.938  10.585
20261W        W91987  19.662   8.874  12.701
20262W        W91988   7.135  26.669  13.966
20263W        W91989  36.887  20.336   0.799
20264W        W91990  16.647  44.292   2.190
20265W        W91991  33.623  22.011  12.951
20266W        W91992   2.091   9.903   1.110
20267W        W91993  10.243   3.132   3.310
20268W        W91994  17.307  33.659  11.484
20269W        W91995  14.843  31.070  12.682
20270W        W91996  18.745   9.671   0.692
20271W        W91997  17.562   0.867  12.619
20272W        W91998   8.078  44.154  11.083
20273W        W91999  36.918  32.253   3.130
20274W        W92000  41.090  23.534  12.460
20275W        W92001  17.701   9.185  10.684
20276W        W92002   6.788  22.925   0.491
20277W        W92003  36.509  16.189  10.934
20278W        W92004  29.650  41.641   0.785
20279W        W92005  26.454  32.469   4.704
20280W        W92006   2.485  41.740   0.664
20281W        W92007  25.911  10.314   0.809
20282W        W92008   1.984  35.568  14.852
20283W        W92009  26.353  17.322  11.476
20284W        W92010  29.473   1.277   1.841
20285W        W92011  39.622  29.678   3.114
20286W        W92012   0.954  23.757  13.238
20287W        W92013   1.067  44.644   4.533
20288W        W92014  15.717  21.570  11.947
20289W        W92015  44.984  42.145  12.005
20290W        W92016   3.213  23.682  13.751
20291W        W92017  22.555  16.321   1.947
20292W        W92018  16.671  30.632  12.977
20293W        W92019  11.806  23.949  12.968
20294W        W92020  24.292  41.907   0.843
20295W        W92021  42.848   0.881   3.426
20296W        W92022  17.014  12.845  14.356
20297W        W92023  20.772  33.890   2.312
20298W        W92024   8.814  10.856  11.677
20299W        W92025   6.901   3.824  10.253
20300W        W92026  30.682  27.606  10.794
20301W        W92027  19.705  13.719   2.229
20302W        W92028  39.020  31.021   2.281
20303W        W92029  17.036  25.677   3.664
20304W        W92030  35.995  24.798   0.522
20305W        W92031  44.929  20.690  12.569
20306W        W92032  22.975  40.417   3.357
20307W        W92033   9.805  11.042   1.932
20308W        W92034  22.093   6.770   3.138
20309W        W92035  18.295  14.865   1.689
20310W        W92036  14.054  15.528  12.327
20311W        W92037  41.400   5.914  13.870
20312W        W92038  43.531  41.947   4.309
20313W        W92039  32.571   2.408   2.266
20314W        W92040  36.933  30.631  11.695
20315W        W92041  13.463  32.042   5.080
20316W        W92042  42.147   6.888  12.025
20317W        W92043  17.268   7.010   1.183
20318W        W92044  34.187  30.389  12.580
20319W        W92045  28.055  17.425   1.274
20320W        W92046  22.616  44.803  14.838
20321W        W92047  30.345   7.637   4.385
20322W        W92048  34.630  21.183   4.474
20323W        W92049  16.743   9.451   4.337
20324W        W92050  37.877  38.601   2.786
20325W        W92051   9.417   0.976  12.003
20326W        W92052  26.147  10.148  12.567
20327W        W92053  35.467  15.152   4.260
20328W        W92054   4.362  38.161   1.382
20329W        W92055  18.196  16.705  14.924
20330W        W92056  27.667   1.282   2.382
20331W        W92057  30.762  14.699   5.274
20332W        W92058  33.664  14.124   1.467
20333W        W92059   5.665   8.717   2.605
20334W        W92060   1.349  29.279  13.078
20335W        W92061  39.929  32.803   2.619
20336W        W92062  16.595  35.386  14.012
20337W        W92063   5.904  32.942  14.007
20338W        W92064  22.251   1.956   2.807
20339W        W92065  17.990  31.969   4.490
20340W        W92066  16.706  36.317   3.411
20341W        W92067   2.787   9.577   3.291
20342W        W92068  42.512  43.016  12.914
20343W        W92069  15.714  31.007   0.664
20344W        W92070  11.094  39.831   4.133
20345W        W92071  31.000  27.024   2.202
20346W        W92072  27.710  33.344   4.359
20347W        W92073  32.637  11.762  13.931
20348W        W92074  37.303  26.524   4.218
20349W        W92075   1.293  44.758  12.079
20350W        W92076  22.116   4.245  11.646
20351W        W92077   5.319  36.897   0.954
20352W        W92078   7.493  28.671  11.159
20353W        W92079  10.505  29.788  14.036
20354W        W92080  22.445   7.830  10.552
20355W        W92081  17.534  18.864   0.316
20356W        W92082   2.283  10.095   3.628
20357W        W92083  44.938   5.017  13.033
20358W        W92084  21.093  43.510   1.242
20359W        W92085   0.544  22.698   3.868
20360W        W92086  22.688  12.796  11.557
20361W        W92087  33.844  16.292  14.315
20362W        W92088  29.016  40.246  11.799
20363W        W92089  26.166  20.114  14.894
20364W        W92090   0.793  22.480  10.755
20365W        W92091  22.025  17.641   3.084
20366W        W92092  37.168   5.756  12.504
20367W        W92093  41.831  38.562   2.768
20368W        W92094   4.896   8.113   0.397
20369W        W92095  20.593  42.084   0.220
20370W        W92096  38.024  13.637  11.613
20371W        W92097  10.663  10.051   4.410
20372W        W92098  31.355  10.101   9.849
20373W        W92099   4.751  42.335   1.435
20374W        W92100  36.534   4.312  10.638
20375W        W92101   1.294  21.003  11.341
20376W        W92102   3.371  28.562  14.825
20377W        W92103  21.571  41.410  14.812
20378W        W92104  35.042   2.259   1.906
20379W        W92105  19.183  34.547   4.836
20380W        W92106  24.141  33.495   5.006
20381W        W92107  26.522  31.270  14.383
20382W        W92108   4.141  38.655   1.386
20383W        W92109  16.327  36.660  13.801
20384W        W92110  17.982  34.893  10.781
20385W        W92111  43.020  36.924   3.229
20386W        W92112  30.375   2.354   2.221
20387W        W92113  34.491  10.064   4.169
20388W        W92114   3.794  32.850   4.331
20389W        W92115   5.479  39.663   5.025
20390W        W92116  24.633  31.902   2.005
20391W        W92117  11.556  23.655  10.598
20392W        W92118  12.602   9.945   0.099
20393W        W92119   3.699  43.086  14.280
20394W        W92120  13.310  37.695  14.447
20395W        W92121  33.622  27.662  14.981
20396W        W92122   8.598  35.855   3.265
20397W        W92123  13.611   3.738   3.790
20398W        W92124  27.030  33.919   4.065
20399W        W92125  25.337  36.497   4.715
20400W        W92126  15.306  40.927   3.711
20401W        W92127  44.497  20.106   0.834
20402W        W92128  43.527  10.258  11.281
20403W        W92129  24.010  37.213   3.264
20404W        W92130  33.359   7.279   1.094
20405W        W92131  39.310   3.213  10.665
20406W        W92132  37.246  24.596  14.174
20407W        W92133  12.404  18.762  11.104
20408W        W92134   6.661  26.444   1.844
20409W        W92135  28.164  35.058  12.843
20410W        W92136   6.880  36.375   1.780
20411W        W92137  31.934   1.581   2.156
20412W        W92138  34.251  32.871   1.884
20413W        W92139  31.988   7.304   1.313
20414W        W92140  40.272  42.959  14.930
20415W        W92141  28.282  25.494  14.515
20416W        W92142  42.332  36.584  12.997
20417W        W92143  21.648  42.601   4.184
20418W        W92144  22.704   1.320   3.558
20419W        W92145  16.129  32.676   2.849
20420W        W92146  19.186   2.876  12.049
20421W        W92147  36.566  32.603   0.253
20422W        W92148  42.090  44.231   4.573
20423W        W92149  23.205  33.187   3.862
20424W        W92150   1.691  16.072   0.242
20425W        W92151  21.585  18.760   2.832
20426W        W92152  22.432  30.186   4.251
20427W        W92153  31.860   5.463  13.838
20428W        W92154  28.968  29.705  11.581
20429W        W92155   7.771  37.511   0.432
20430W        W92156   7.219   4.803  14.457
20431W        W92157  20.682  24.711   0.713
20432W        W92158   4.870  21.092   0.945
20433W        W92159   5.903   6.727  14.366
20434W        W92160  16.138  26.671  12.390
20435W        W92161  17.796   2.774   3.327
20436W        W92162   4.598   1.278   0.918
20437W        W92163  11.541  39.140  11.332
20438W        W92164  42.178  29.620   1.962
20439W        W92165  29.552   5.646  13.089
20440W        W92166   6.897   1.871  12.697
20441W        W92167   2.345  12.294   4.116
20442W        W92168  16.033   2.932  12.950
20443W        W92169   3.794  20.633  11.232
20444W        W92170  17.284  25.182   1.354
20445W        W92171  10.545  37.561  11.669
20446W        W92172  11.693   8.974   0.296
20447W        W92173  11.043  39.472   0.257
20448W        W92174  31.412  34.043  14.041
20449W        W92175  34.445  32.445   2.803
20450W        W92176  39.118  24.686   4.240
20451W        W92177  34.962  25.439   2.269
20452W        W92178   3.072  41.825   1.281
20453W        W92179  10.240  33.061   1.258
20454W        W92180  30.128  29.908  12.982
20455W        W92181  22.054  35.455  11.597
20456W        W92182  38.069  24.958  14.247
20457W        W92183  13.330  21.450  14.124
20458W        W92184  10.343  19.589   9.918
20459W        W92185  34.050   6.719   3.732
20460W        W92186  26.794   0.883   0.424
20461W        W92187  12.851  32.679   1.938
20462W        W92188   7.390   5.328   3.272
20463W        W92189   1.484  35.555   1.774
20464W        W92190   9.162  21.574  13.517
20465W        W92191  13.486  39.332  13.890
20466W        W92192  22.832  18.281   3.643
20467W        W92193  15.638  19.754  13.544
20468W        W92194  15.439  36.974   5.060
20469W        W92195  14.270  37.676   0.835
20470W        W92196   7.976  25.471   0.480
20471W        W92197  26.652  19.975   2.688
20472W        W92198  12.239  20.805   2.741
20473W        W92199   2.769  24.097  13.918
20474W        W92200  23.473  15.816  14.266
20475W        W92201  27.974  38.141   1.657
20476W        W92202  11.641   7.802   1.348
20477W        W92203  23.536  40.054   0.750
20478W        W92204   5.212  15.379  10.599
20479W        W92205  43.540  37.410  14.173
20480W        W92206   3.676  30.960  11.578
20481W        W92207   3.511   1.422  11.528
20482W        W92208  34.493  21.113  11.539
20483W        W92209  31.858  27.073  14.910
20484W        W92210   9.731  12.115  13.036
20485W        W92211  30.550  32.183  14.367
20486W        W92212  14.783  13.415   1.872
20487W        W92213   6.569   3.573   2.716
20488W        W92214  30.134  44.763  12.807
20489W        W92215   6.718  40.789  12.788
20490W        W92216  10.090   1.900  11.023
20491W        W92217  42.462  16.264   2.496
20492W        W92218   3.566  23.171  13.049
20493W        W92219  29.468  38.545  12.069
20494W        W92220  29.127  27.399  11.136
20495W        W92221  26.176   1.270   1.648
20496W        W92222  37.982  26.733   3.829
20497W        W92223   7.658  37.073  11.939
20498W        W92224  29.057  10.849  14.429
20499W        W92225  26.005   0.950   9.794
20500W        W92226  29.611  28.485  11.582
20501W        W92227   4.906  39.784   1.422
20502W        W92228  17.761  11.631  11.698
20503W        W92229  24.721  11.405  11.568
20504W        W92230   2.211   1.305   4.524
20505W        W92231  27.635   0.549   0.365
20506W        W92232  36.826  23.545   4.618
20507W        W92233  28.040  30.024  14.454
20508W        W92234   2.305  14.378  14.903
20509W        W92235   9.752  43.873   2.508
20510W        W92236  31.216  31.042   4.550
20511W        W92237  15.303   7.362  13.422
20512W        W92238  31.667  41.969  12.044
20513W        W92239  12.183   1.517  14.749
20514W        W92240  25.546  33.612   3.163
20515W        W92241   8.921  18.029   0.230
20516W        W92242  32.549  25.124  12.047
20517W        W92243  42.432  12.694  10.763
20518W        W92244   0.825  10.102   2.000
20519W        W92245  33.015  38.153  14.023
20520W        W92246  27.709  33.573   3.301
20521W        W92247   9.394   3.711   4.894
20522W        W92248  42.407   1.500   2.906
20523W        W92249  33.605  27.424  10.747
20524W        W92250  32.580  34.671  12.755
20525W        W92251  20.304  31.358  13.857
20526W        W92252  29.692  28.400   4.113
20527W        W92253  25.200  41.580  12.416
20528W        W92254   9.820  22.771   4.144
20529W        W92255  10.803  18.633  11.257
20530W        W92256  17.966   9.054   0.336
20531W        W92257  14.697  42.509  14.446
20532W        W92258  35.461  42.684   2.174
20533W        W92259  42.820  11.314   3.674
20534W        W92260  21.698  38.212   4.095
20535W        W92261  22.084  18.156   1.238
20536W        W92262  39.965   7.738  12.138
20537W        W92263   8.393  40.922  11.983
20538W        W92264  32.124   4.149  13.191
20539W        W92265   5.796   6.128   0.844
20540W        W92266  18.029  16.671  14.104
20541W        W92267  43.103   8.735   4.809
20542W        W92268  44.815  35.236   3.580
20543W        W92269  15.408  32.082   1.360
20544W        W92270  26.664   9.729   0.214
20545W        W92271  17.299  38.362  12.662
20546W        W92272   6.835  20.475  13.566
20547W        W92273  14.886  44.392   0.286
20548W        W92274  24.301  18.054   0.535
20549W        W92275  32.805  21.979   3.825
20550W        W92276  12.312  23.730  14.248
20551W        W92277  36.839  41.327   0.228
20552W        W92278  33.123  13.040  11.560
20553W        W92279  38.291  39.049  13.479
20554W        W92280  41.942  20.663  14.484
20555W        W92281  23.596  43.801  10.598
20556W        W92282  37.211  25.586   5.109
20557W        W92283  22.127  24.564   2.897
20558W        W92284   5.072   8.169  13.569
20559W        W92285  30.162  25.951   9.767
20560W        W92286   0.048  10.075  12.082
20561W        W92287  27.065  10.356  14.303
20562W        W92288   4.769  25.706   4.442
20563W        W92289  36.905  16.070  14.822
20564W        W92290  17.449  43.482   0.325
20565W        W92291  28.497  27.613   3.858
20566W        W92292  14.397  14.310  11.656
20567W        W92293  42.462   5.227  10.469
20568W        W92294   0.195   7.451   0.311
20569W        W92295  41.592  27.556  14.677
20570W        W92296   5.421  18.302  12.589
20571W        W92297  22.655  16.287   0.473
20572W        W92298  23.677  43.280  11.505
20573W        W92299  33.416  15.878   0.871
20574W        W92300  24.940  14.182   4.731
20575W        W92301  17.169  39.446   0.306
20576W        W92302  41.201  23.486   1.022
20577W        W92303  13.872  34.394   4.161
20578W        W92304   9.708  24.934  13.318
20579W        W92305  35.167  11.256  12.096
20580W        W92306  43.024  34.455  11.221
20581W        W92307  25.506   4.772  10.716
20582W        W92308  33.138  42.711   0.887
20583W        W92309  32.225  21.289   1.412
20584W        W92310   8.388  14.565  11.934
20585W        W92311   8.194  10.366   5.132
20586W        W92312  28.094  43.739  11.509
20587W        W92313   9.641  40.966   2.172
20588W        W92314  37.519  24.639   0.446
20589W        W92315  20.964  33.653  13.216
20590W        W92316   2.625  38.522  14.560
20591W        W92317   8.884   6.460   4.357
20592W        W92318  32.682  34.392  14.368
20593W        W92319   9.169   1.590   0.394
20594W        W92320  25.543  37.353   4.588
20595W        W92321  11.945   7.288  11.466
20596W        W92322  31.504  36.914   4.284
20597W        W92323  33.037   3.287   4.806
20598W        W92324   6.176  43.912  13.593
20599W        W92325  41.194  22.734  10.852
20600W        W92326  12.781   1.976   1.346
20601W        W92327  38.801  12.328   3.740
20602W        W92328  18.776  40.810   1.822
20603W        W92329   0.903  27.281   1.298
20604W        W92330  14.121   7.199  13.932
20605W        W92331  33.975  35.004   1.838
20606W        W92332  29.461  19.528  12.436
20607W        W92333  25.762   0.262   0.804
20608W        W92334   5.885  31.489   3.042
20609W        W92335   3.375  27.257   2.728
20610W        W92336   6.946  18.620   3.627
20611W        W92337   5.061  18.125   3.256
20612W        W92338  38.029  32.610   3.120
20613W        W92339   8.973  17.279   3.195
20614W        W92340  28.877  34.291   3.451
20615W        W92341  33.679   8.368  11.621
20616W        W92342  42.279  37.440  14.800
20617W        W92343  28.635  10.601   3.671
20618W        W92344  23.993   5.178   3.844
20619W        W92345   3.697  26.128  11.145
20620W        W92346   2.173  29.027   3.882
20621W        W92347   9.380  42.520  11.626
20622W        W92348  18.987  23.435  13.642
20623W        W92349   8.411   5.736   0.385
20624W        W92350  20.012  18.281  12.762
20625W        W92351   8.205  19.222  12.146
20626W        W92352  37.855   8.891  11.160
20627W        W92353  13.814   0.507  10.683
20628W        W92354   8.817  33.254  10.725
20629W        W92355  39.376  19.815  11.933
20630W        W92356   5.687  44.591  12.362
20631W        W92357  29.619  14.259  10.295
20632W        W92358   1.814  38.975   2.698
20633W        W92359  16.900  39.878  12.364
20634W        W92360  35.346  21.857  13.342
20635W        W92361  28.688  30.728  14.127
20636W        W92362   3.601  13.128   4.189
20637W        W92363  19.815  27.036   1.722
20638W        W92364  32.634  25.463  13.866
20639W        W92365  32.390  41.053  14.553
20640W        W92366  21.263  30.923   2.117
20641W        W92367  37.555   7.168  11.666
20642W        W92368  12.393   2.162  14.485
20643W        W92369  20.614   4.963   1.684
20644W        W92370  31.135  39.994  13.767
20645W        W92371  38.847  43.291   2.338
20646W        W92372   3.519  40.914   1.200
20647W        W92373   0.217  35.820   0.735
20648W        W92374   6.831  28.436   0.351
20649W        W92375  12.758  27.924   1.830
20650W        W92376  29.802  26.371   2.194
20651W        W92377  42.391  28.957   0.365
20652W        W92378  42.830  36.098   1.194
20653W        W92379   5.345   5.865   0.719
20654W        W92380  27.108  21.511  12.555
20655W        W92381  33.371   0.784   4.165
20656W        W92382  12.130  27.476  14.272
20657W        W92383  11.743  37.953   4.407
20658W        W92384  37.484  31.166  14.501
20659W        W92385  26.540  33.026  10.264
20660W        W92386  35.499  15.142  11.731
20661W        W92387  11.689  29.470   0.695
20662W        W92388  40.933  19.745  14.517
20663W        W92389  25.133  25.892  10.616
20664W        W92390  28.462  36.132   4.204
20665W        W92391  32.007  29.533   0.422
20666W        W92392  24.948   4.296  14.256
20667W        W92393  19.212  16.698  12.605
20668W        W92394  25.985  40.585   0.464
20669W        W92395   5.250  27.408   3.124
20670W        W92396  10.818  33.710   4.620
20671W        W92397  16.430  44.739   0.983
20672W        W92398  19.009  19.060  11.508
20673W        W92399  34.554   9.491   2.925
20674W        W92400   0.497   9.251   4.138
20675W        W92401  29.919  12.750  14.330
20676W        W92402  14.831  39.505  10.676
20677W        W92403   8.877   1.589  10.962
20678W        W92404  12.409  31.494  14.423
20679W        W92405   0.310  17.811  11.514
20680W        W92406  21.930  18.487   3.630
20681W        W92407  16.639  41.029   2.555
20682W        W92408  42.879  25.427  13.393
20683W        W92409   3.094  38.461  13.468
20684W        W92410  27.691  39.222  11.407
20685W        W92411  31.004  29.623  14.659
20686W        W92412  27.306  16.858  12.053
20687W        W92413  12.771  19.746  11.165
20688W        W92414  10.817  19.772   4.682
20689W        W92415  30.024  10.733  14.484
20690W        W92416  18.990  21.178  12.552
20691W        W92417  44.603  43.390   1.279
20692W        W92418  40.246  40.714  12.146
20693W        W92419  22.451  41.031   3.331
20694W        W92420   2.195  12.435   4.582
20695W        W92421  11.844   9.686  10.605
20696W        W92422  36.588  22.538   2.742
20697W        W92423  30.953  12.839   1.477
20698W        W92424  17.802  40.520   0.919
20699W        W92425   8.496  21.488   2.023
20700W        W92426  18.133   7.221   4.624
20701W        W92427  32.207  40.877  13.810
20702W        W92428  43.381  38.902  14.076
20703W        W92429   3.319  42.230   1.039
20704W        W92430  22.490   5.477  12.506
20705W        W92431   4.461   8.319  11.482
20706W        W92432  31.535   4.821  13.904
20707W        W92433  12.004   1.703  12.501
20708W        W92434  14.939  11.262  12.511
20709W        W92435  33.461  28.701  13.914
20710W        W92436   9.182   2.629   1.378
20711W        W92437  33.372  22.766   1.667
20712W        W92438  16.869  35.967   0.786
20713W        W92439  14.631   2.906   2.434
20714W        W92440  17.873  35.092  14.378
20715W        W92441   9.665  13.161  13.915
20716W        W92442  16.090  20.860   3.734
20717W        W92443   9.255  37.401   4.117
20718W        W92444  41.966  23.454   2.825
20719W        W92445  29.982  41.820   1.992
20720W        W92446  15.718  18.705   4.539
20721W        W92447   0.297  11.102   1.839
20722W        W92448  10.913  25.529   0.748
20723W        W92449   8.328  42.781   0.277
20724W        W92450  19.913  35.102   3.240
20725W        W92451  15.768   7.414  12.834
20726W        W92452  14.423  26.597   0.922
20727W        W92453  13.857   9.016  13.341
20728W        W92454  14.259  12.441  11.369
20729W        W92455   0.105  35.178   2.472
20730W        W92456  20.234  39.096  10.722
20731W        W92457  34.536  26.428   0.244
20732W        W92458  37.130  38.559   0.521
20733W        W92459  37.941  20.694   4.690
20734W        W92460  16.177  38.640  14.269
20735W        W92461  33.727  41.430   4.146
20736W        W92462  40.801  22.149  13.989
20737W        W92463   8.881  18.184  12.061
20738W        W92464  44.040  23.456   2.745
20739W        W92465  39.470  13.286   3.181
20740W        W92466   7.906  27.954   0.372
20741W        W92467  38.840   8.315   4.749
20742W        W92468   2.272  37.928  13.772
20743W        W92469  22.507  18.720   0.018
20744W        W92470  44.550  23.560   3.812
20745W        W92471   4.051   6.700   4.573
20746W        W92472  26.506  19.230  11.500
20747W        W92473  32.340   8.884  11.980
20748W        W92474  35.974  16.615   2.806
20749W        W92475  19.613  12.656  14.986
20750W        W92476   4.804  14.980  13.728
20751W        W92477  34.636   0.476  11.662
20752W        W92478  24.439  25.447  14.854
20753W        W92479   9.884  18.703  14.389
20754W        W92480  24.746   9.918   1.696
20755W        W92481   9.892  24.745  11.978
20756W        W92482   9.633  10.653  10.679
20757W        W92483   9.062  31.621   1.400
20758W        W92484  37.931  13.141  11.571
20759W        W92485  30.468  16.243  13.599
20760W        W92486  28.086  11.232  12.521
20761W        W92487   7.677  42.810  14.546
20762W        W92488  30.018  34.282  14.382
20763W        W92489  39.333   7.821   0.505
20764W        W92490   1.821  14.254   1.947
20765W        W92491  43.701  35.920  14.949
20766W        W92492  14.646  33.622   2.689
20767W        W92493  25.025   8.948   4.141
20768W        W92494  28.889  24.732  11.697
20769W        W92495  32.912  11.650   4.315
20770W        W92496   1.293  35.932  11.084
20771W        W92497   4.490  15.748  10.552
20772W        W92498   2.161   8.252   0.378
20773W        W92499  31.410   9.032   2.843
20774W        W92500  43.089   8.649  10.737
20775W        W92501  16.919  20.933   0.059
20776W        W92502   9.593  23.496   1.250
20777W        W92503  22.124  22.818   0.751
20778W        W92504   3.459   2.919  13.674
20779W        W92505  26.481  17.784  13.865
20780W        W92506  38.366  32.980   4.613
20781W        W92507   9.031  38.498  12.430
20782W        W92508  35.665  41.020  12.426
20783W        W92509   9.695  19.542   4.079
20784W        W92510  12.729  23.418  11.093
20785W        W92511   3.844  24.339  10.891
20786W        W92512  42.414  44.102  11.066
20787W        W92513  20.001  15.439   4.269
20788W        W92514  14.874  43.414  13.020
20789W        W92515  17.197  10.138   0.692
20790W        W92516   1.477  17.736   0.826
20791W        W92517  22.909  27.554   3.185
20792W        W92518   6.017  29.639  13.805
20793W        W92519  24.163  14.714   2.867
20794W        W92520  13.276   2.218  14.559
20795W        W92521  35.462  34.992   4.360
20796W        W92522  16.896  44.578  12.167
20797W        W92523  38.422   7.456  14.188
20798W        W92524  27.454  18.729  12.172
20799W        W92525  34.903  17.669   1.546
20800W        W92526  33.098   7.522   3.648
20801W        W92527  36.075  39.339  12.457
20802W        W92528   8.861  12.850   2.528
20803W        W92529  18.282   7.542   0.192
20804W        W92530  38.599  14.755  14.898
20805W        W92531  42.623  33.571   4.982
20806W        W92532  10.369   2.376  10.906
20807W        W92533  36.689  31.098   4.823
20808W        W92534  34.745  44.972  11.510
20809W        W92535   5.348  15.886   2.766
20810W        W92536  42.555  34.378  12.006
20811W        W92537  32.489   5.247  10.566
20812W        W92538  18.763  19.566   0.244
20813W        W92539   5.804  29.569   3.119
20814W        W92540  38.996  41.855  11.192
20815W        W92541  43.582  10.728   3.593
20816W        W92542  12.219   1.774   3.166
20817W        W92543   1.463  17.576   4.918
20818W        W92544  38.425  20.744   4.483
20819W        W92545   7.776  41.040  14.339
20820W        W92546  40.451  13.791  14.847
20821W        W92547  34.513  22.743   1.857
20822W        W92548   9.019   2.107   3.331
20823W        W92549  19.801  27.885  13.949
20824W        W92550  34.568  25.897  12.523
20825W        W92551  21.002  36.228   3.228
20826W        W92552  11.813  33.403   4.518
20827W        W92553   8.255  39.447  13.747
20828W        W92554  39.549  36.665   1.670
20829W        W92555  24.784  32.941  10.681
20830W        W92556  44.861   9.840  10.773
20831W        W92557   3.138  13.532   3.524
20832W        W92558  31.305  33.290   2.823
20833W        W92559  31.820  42.449   2.995
20834W        W92560  28.135  17.334  11.125
20835W        W92561   6.652  13.588   4.149
20836W        W92562  32.424  12.331  11.412
20837W        W92563  27.248   8.393  11.135
20838W        W92564  34.041  44.140  13.310
20839W        W92565  17.416  26.544  12.499
20840W        W92566   3.678  22.498   3.218
20841W        W92567  42.891  41.344  14.931
20842W        W92568  22.474  17.058  13.617
20843W        W92569  37.286  44.901   2.386
20844W        W92570  12.342  20.531   4.165
20845W        W92571  42.316  12.621  14.425
20846W        W92572  32.059  11.123  14.340
20847W        W92573  44.353  16.101  10.420
20848W        W92574  10.470  24.481   0.474
20849W        W92575  44.120  38.003   3.789
20850W        W92576  10.615  43.500  13.254
20851W        W92577  33.490  42.302   2.178
20852W        W92578  11.313  27.691  11.328
20853W        W92579   8.386  27.673   3.797
20854W        W92580  32.464   8.687   4.775
20855W        W92581  29.346  44.259  14.426
20856W        W92582  12.087  37.380  12.463
20857W        W92583  34.524   3.852  14.829
20858W        W92584  36.568   4.628   0.068
20859W        W92585   3.266  23.982   2.262
20860W        W92586   5.952  20.078   3.826
20861W        W92587  25.492  22.111   1.169
20862W        W92588  44.493  21.459  10.270
20863W        W92589  15.189   6.513   2.315
20864W        W92590  34.092  34.521   0.950
20865W        W92591   7.646  41.832  13.985
20866W        W92592  24.164   8.229  14.592
20867W        W92593  15.765   3.456   1.474
20868W        W92594  11.601  40.026  11.117
20869W        W92595  16.655  15.737  12.504
20870W        W92596   2.488   8.835  12.940
20871W        W92597   7.788  19.109   4.494
20872W        W92598  13.790  12.447  10.690
20873W        W92599   6.155   4.723   1.699
20874W        W92600   2.887  17.096  10.372
20875W        W92601  16.535   6.697   0.951
20876W        W92602  20.606  38.567  11.578
20877W        W92603  15.185  34.443   4.339
20878W        W92604  35.379   0.289   2.271
20879W        W92605  19.126   5.510  12.915
20880W        W92606  29.368  34.657  10.695
20881W        W92607   4.183  20.573   3.574
20882W        W92608   0.926  39.860  12.455
20883W        W92609  13.610  40.539   2.005
20884W        W92610  30.988   6.424  14.428
20885W        W92611  31.484  23.649  13.147
20886W        W92612   3.727  41.733  14.861
20887W        W92613  12.572  22.198  11.117
20888W        W92614   7.448  26.702   0.245
20889W        W92615   9.312  17.238  10.147
20890W        W92616  24.203  13.079  11.087
20891W        W92617  40.931  37.532  13.135
20892W        W92618   3.509  16.155  13.190
20893W        W92619  25.577  29.537   0.146
20894W        W92620  22.647  15.087  13.446
20895W        W92621   2.280  20.360  12.564
20896W        W92622  29.892  15.685  13.931
20897W        W92623  20.714   1.969   1.951
20898W        W92624  28.016  42.317  11.612
20899W        W92625   8.209  14.813   2.710
20900W        W92626   8.141  38.854   4.554
20901W        W92627  18.688  12.900   1.348
20902W        W92628  10.171  23.182  10.648
20903W        W92629  15.133  26.651   4.172
20904W        W92630  38.051  24.186  12.719
20905W        W92631  16.541  26.613   1.408
20906W        W92632  28.909  32.594  14.783
20907W        W92633  39.926  11.386   0.390
20908W        W92634  17.966  39.103  10.175
20909W        W92635  19.703  39.349  13.428
20910W        W92636   1.040  20.809   4.788
20911W        W92637  24.047  11.862  13.631
20912W        W92638   0.239  29.417   0.888
20913W        W92639  29.138  41.863   2.960
20914W        W92640  22.321  12.694  10.339
20915W        W92641  27.557   1.559  12.366
20916W        W92642  33.848  39.532   3.159
20917W        W92643  24.052  36.809   1.092
20918W        W92644   8.130  13.326  11.455
20919W        W92645  43.076  15.225  11.672
20920W        W92646  26.564  13.638   0.270
20921W        W92647  44.379  31.684   0.344
20922W        W92648  41.341   7.801  10.580
20923W        W92649  31.733  44.364   1.784
20924W        W92650  25.711  19.430  11.143
20925W        W92651  41.846  23.149   1.158
20926W        W92652  11.596  13.677   0.257
20927W        W92653   7.676  15.508  10.219
20928W        W92654  14.611   7.836   4.062
20929W        W92655  28.476  32.894   2.206
20930W        W92656  22.184  22.605  14.876
20931W        W92657  27.474  33.720   0.055
20932W        W92658  29.517  15.245   0.848
20933W        W92659   8.572  21.722  11.050
20934W        W92660  31.744  34.235  10.211
20935W        W92661  28.725  22.002   0.787
20936W        W92662  42.483   6.714   0.212
20937W        W92663   0.429  10.647   4.534
20938W        W92664  41.805  21.942  10.621
20939W        W92665  43.276  23.586  12.506
20940W        W92666  18.754  22.985   3.350
20941W        W92667   7.839  36.158   5.043
20942W        W92668   0.685  20.101  14.859
20943W        W92669  30.510  26.838   1.787
20944W        W92670   2.176  13.897   1.129
20945W        W92671   2.691  18.521  11.981
20946W        W92672   6.996  35.411   9.550
20947W        W92673  29.042  11.273  10.765
20948W        W92674   7.911  34.725   9.708
20949W        W92675  27.722  38.848  11.774
20950W        W92676  28.521  31.242  12.115
20951W        W92677  14.928  39.911   3.245
20952W        W92678  32.914  12.232  13.862
20953W        W92679  31.552  43.588  14.466
20954W        W92680  44.320  37.764   3.161
20955W        W92681  20.609  11.614   0.766
20956W        W92682  38.249  28.637   2.897
20957W        W92683  23.541  18.796   1.012
20958W        W92684  28.655  42.989  11.458
20959W        W92685   8.526  32.719   1.756
20960W        W92686  25.633   7.294   1.911
20961W        W92687   5.377  22.780   2.810
20962W        W92688  18.284  13.156   0.816
20963W        W92689  43.119  34.095   4.260
20964W        W92690  44.340  23.991  12.597
20965W        W92691  13.386  17.702   0.771
20966W        W92692  10.803   4.445  13.415
20967W        W92693  26.462  13.202  12.429
20968W        W92694  24.496   8.517   3.240
20969W        W92695   8.012  19.298   0.403
20970W        W92696  19.282  29.661   4.157
20971W        W92697  28.984   6.381   2.270
20972W        W92698  34.112  43.926   4.185
20973W        W92699   8.913   6.684   3.876
20974W        W92700  19.505  33.069   1.427
20975W        W92701  39.277   5.805  13.453
20976W        W92702   3.763  31.063  14.204
20977W        W92703  15.335   3.848   3.071
20978W        W92704   4.411   7.353   3.782
20979W        W92705  18.317  40.304   1.411
20980W        W92706  13.268  38.567  13.456
20981W        W92707  21.263   8.616   5.046
20982W        W92708   6.252  36.811  14.360
20983W        W92709  25.971  23.534   0.819
20984W        W92710  19.327   0.413  10.710
20985W        W92711  17.829  20.661   3.278
20986W        W92712   4.752  40.586  13.535
20987W        W92713  27.947  14.032  10.989
20988W        W92714  10.910   3.684  11.606
20989W        W92715  23.684  25.461   1.365
20990W        W92716  21.670  35.902  14.847
20991W        W92717  35.447  41.017   4.352
20992W        W92718  39.289  36.936  10.547
20993W        W92719  35.316  33.550  12.471
20994W        W92720  35.637  26.169  10.739
20995W        W92721  38.059  18.026   4.283
20996W        W92722  30.813  29.169  13.616
20997W        W92723   2.546  36.125   1.569
20998W        W92724  35.871  26.622  10.649
20999W        W92725   9.368  11.872   1.693
21000W        W92726  31.209  12.536  14.946
21001W        W92727  33.426  42.845  12.920
21002W        W92728  17.070  19.578   1.309
21003W        W92729  26.689  10.349   2.368
21004W        W92730  14.036  32.387  13.621
21005W        W92731   3.750  40.434  10.851
21006W        W92732  29.098  28.640   3.778
21007W        W92733  18.800  43.816   1.235
21008W        W92734  41.530  44.275   0.784
21009W        W92735   3.699  35.761   4.113
21010W        W92736  14.388  16.559  11.639
21011W        W92737  27.605  13.976   4.513
21012W        W92738  28.876   8.771  11.561
21013W        W92739  20.214  30.152   3.091
21014W        W92740  29.829  39.282  12.185
21015W        W92741  15.205  10.889   2.300
21016W        W92742  35.133  42.792   1.777
21017W        W92743  34.324  42.852  13.215
21018W        W92744  44.379  21.844  14.374
21019W        W92745   2.025  27.449  11.515
21020W        W92746  32.678  21.286   3.117
21021W        W92747  16.304  35.228   2.785
21022W        W92748  26.663  12.641  11.297
21023W        W92749  11.404  38.412  13.274
21024W        W92750  33.551   3.492   3.295
21025W        W92751   2.341  25.228  10.731
21026W        W92752  37.312  43.767  14.068
21027W        W92753  18.206  32.698   4.075
21028W        W92754  39.492  23.182  14.008
21029W        W92755  10.431  17.213  13.486
21030W        W92756   5.481   6.640  10.073
21031W        W92757   9.295  12.603  11.485
21032W        W92758  24.262  41.008  13.509
21033W        W92759  21.558  10.140  12.436
21034W        W92760  30.150  39.402  10.776
21035W        W92761   2.272  12.209  11.382
21036W        W92762  21.717  19.633  11.966
21037W        W92763  20.704  11.070   3.602
21038W        W92764   6.158  26.551  13.046
21039W        W92765  38.601  21.679  12.042
21040W        W92766  33.435  38.550  11.582
21041W        W92767   4.745  35.481  14.422
21042W        W92768  36.879  43.270   4.852
21043W        W92769  43.576  34.681   3.321
21044W        W92770  39.337  24.714  14.773
21045W        W92771  12.548  12.392   2.425
21046W        W92772   0.383  27.282  12.537
21047W        W92773  37.817  38.937  14.522
21048W        W92774  34.622  44.396  13.973
21049W        W92775  21.725  10.273  10.469
21050W        W92776  31.581  27.129   4.750
21051W        W92777  28.984  38.429   2.720
21052W        W92778  26.389  26.698  12.160
21053W        W92779  13.819   5.841   4.204
21054W        W92780   0.364  23.981   4.185
21055W        W92781   9.844  27.524  11.584
21056W        W92782   2.964  40.319  14.545
21057W        W92783  37.868  20.738  13.930
21058W        W92784  31.763  13.384   2.359
21059W        W92785  11.243  38.565  11.939
21060W        W92786  30.734   6.792  12.191
21061W        W92787  16.717  27.416   1.884
21062W        W92788  28.217  24.872   3.174
21063W        W92789  41.871  17.989   1.221
21064W        W92790   6.213  37.790   0.367
21065W        W92791  41.535  42.021  11.942
21066W        W92792  13.359  11.516  12.382
21067W        W92793  10.805   6.626  12.565
21068W        W92794  41.981  21.607  14.927
21069W        W92795  12.711  40.917   4.912
21070W        W92796  19.155  18.230   4.580
21071W        W92797  30.525  10.124  12.995
21072W        W92798  15.275  18.706   4.812
21073W        W92799   9.900  12.658  12.113
21074W        W92800   0.809  30.970  11.611
21075W        W92801  32.989  43.954   3.081
21076W        W92802  30.140   3.208   0.338
21077W        W92803  41.785  19.101   1.798
21078W        W92804  31.590  33.628   4.197
21079W        W92805  13.138   8.631   1.936
21080W        W92806  21.845  22.035  13.987
21081W        W92807  38.942  27.279  14.448
21082W        W92808  42.530  38.612  14.298
21083W        W92809   4.050   7.179   1.997
21084W        W92810   4.312  19.734   0.067
21085W        W92811  43.087  33.450  13.900
21086W        W92812   6.919  26.676  12.548
21087W        W92813  24.667  22.875   0.486
21088W        W92814  24.237  14.229  12.173
21089W        W92815  13.822   8.400   3.226
21090W        W92816  44.226  12.693   4.656
21091W        W92817  42.518  42.760   0.947
21092W        W92818  17.144  22.277  10.542
21093W        W92819   8.399   7.345   1.678
21094W        W92820   1.449  41.053   3.110
21095W        W92821   8.313  23.957   4.190
21096W        W92822   0.522  10.238  12.031
21097W        W92823  30.086  26.424  10.943
21098W        W92824  11.875  25.073  13.820
21099W        W92825  19.847  23.214   0.457
21100W        W92826  36.602  18.052  12.454
21101W        W92827  25.720  31.758   1.791
21102W        W92828  30.531   1.818   2.376
21103W        W92829   1.504  21.503   2.711
21104W        W92830  27.473   6.432   3.217
21105W        W92831   7.924  27.436  14.465
21106W        W92832  19.130  44.091  14.457
21107W        W92833  16.627  14.914   1.333
21108W        W92834  14.138   5.688  13.910
21109W        W92835   6.501   5.333   0.504
21110W        W92836   1.496  10.454  12.124
21111W        W92837  18.518   6.276   4.160
21112W        W92838   0.530  17.633   0.850
21113W        W92839  25.181  40.529  11.176
21114W        W92840  39.064  10.867  14.797
21115W        W92841  36.475  34.318  12.146
21116W        W92842  10.956  29.025  11.496
21117W        W92843  18.365  35.033   3.303
21118W        W92844  40.794   6.891  14.992
21119W        W92845  14.237  34.008   1.895
21120W        W92846  14.849  25.943  14.962
21121W        W92847  32.430  37.599   2.414
21122W        W92848  12.711  38.977  14.893
21123W        W92849  39.443  38.079   0.215
21124W        W92850   8.792  25.129  12.466
21125W        W92851  26.442  22.055  11.199
21126W        W92852  25.271  27.064  14.638
21127W        W92853  31.290   1.867   3.243
21128W        W92854  19.440   3.043   3.785
21129W        W92855   1.278  34.748  11.657
21130W        W92856  18.772   8.365   3.668
21131W        W92857  15.088  41.734   0.465
21132W        W92858  12.421  11.044   1.284
21133W        W92859   2.450   5.263   4.076
21134W        W92860  25.088  21.132  10.904
21135W        W92861   4.780  31.959   3.230
21136W        W92862  36.024  38.448  12.018
21137W        W92863   4.392  30.987  12.972
21138W        W92864  10.847  39.435   2.189
21139W        W92865  24.956  41.534   2.471
21140W        W92866   8.203  24.720   2.482
21141W        W92867  18.678  29.881  12.356
21142W        W92868  45.000   3.283   0.715
21143W        W92869  22.977  31.670   2.172
21144W        W92870  20.700  12.698   2.289
21145W        W92871  22.052  33.155   1.856
21146W        W92872  36.400  39.966  13.023
21147W        W92873  44.077  43.449   1.315
21148W        W92874  44.331   6.695  12.099
21149W        W92875  10.632  40.786   4.671
21150W        W92876  21.038  32.593  11.821
21151W        W92877  31.329  34.936   4.150
21152W        W92878   2.093  23.528   2.844
21153W        W92879  16.259  10.873   1.550
21154W        W92880  41.269   8.632  13.849
21155W        W92881  22.022  18.503  14.892
21156W        W92882  13.663  19.233   3.220
21157W        W92883  13.755  17.706  13.013
21158W        W92884  18.729  25.510   4.619
21159W        W92885   8.411  37.924  14.963
21160W        W92886  23.702  44.823  14.307
21161W        W92887  28.161   5.597  14.810
21162W        W92888   2.506  28.068   4.135
21163W        W92889  35.521  44.296   4.807
21164W        W92890   6.692  37.582   3.151
21165W        W92891  31.268  40.726   3.983
21166W        W92892  44.905   6.208  12.471
21167W        W92893  17.709  17.468   2.815
21168W        W92894  40.082  17.150  14.438
21169W        W92895  39.299   8.186   1.366
21170W        W92896  22.985  18.898  14.834
21171W        W92897  25.944  32.016  12.633
21172W        W92898  20.316  40.340   4.578
21173W        W92899  23.685  11.137   2.722
21174W        W92900  39.388  40.752  12.077
21175W        W92901  32.494  32.080   1.693
21176W        W92902  23.801   1.926   1.011
21177W        W92903   2.522  20.686  10.791
21178W        W92904   3.755  14.265  10.186
21179W        W92905  39.962  13.661  14.580
21180W        W92906  22.148  18.598  10.738
21181W        W92907  40.033  42.537   4.144
21182W        W92908  19.448   9.203   4.574
21183W        W92909   6.360   9.654  12.927
21184W        W92910   0.093  36.055   3.198
21185W        W92911  25.946  39.332  11.129
21186W        W92912  44.063  28.401  14.335
21187W        W92913  35.045  24.170  10.650
21188W        W92914  38.946  20.714   3.302
21189W        W92915  18.228  10.819  11.656
21190W        W92916   1.956   2.353  11.083
21191W        W92917  21.076  30.387  12.163
21192W        W92918   3.885  18.191   5.030
21193W        W92919  32.978   4.200   2.206
21194W        W92920  34.464  11.585  13.881
21195W        W92921  14.920   7.714  14.291
21196W        W92922  25.477  44.537   0.952
21197W        W92923  44.318  39.338   4.326
21198W        W92924   5.343  28.722  12.121
21199W        W92925  31.302   5.936  13.304
21200W        W92926  28.037  16.493  12.602
21201W        W92927  41.731   0.487   1.204
21202W        W92928  41.274  20.731   3.132
21203W        W92929  34.682  35.278   0.872
21204W        W92930  41.320  41.280  13.889
21205W        W92931  29.511  17.081  12.275
21206W        W92932  30.365  35.691   0.318
21207W        W92933  14.769  13.785  13.311
21208W        W92934   7.838  38.422  14.443
21209W        W92935   3.852  33.799   1.711
21210W        W92936  15.875   3.072   1.774
21211W        W92937  27.271  17.670   1.851
21212W        W92938   0.834   7.414  12.936
21213W        W92939  19.481  30.445   3.405
21214W        W92940  17.551  25.532  14.563
21215W        W92941  41.368  18.617   3.121
21216W        W92942   7.619  42.012  14.718
21217W        W92943  10.591  42.811   1.706
21218W        W92944   9.772  18.230  11.078
21219W        W92945  38.114   1.346   1.962
21220W        W92946  14.615   5.851   3.749
21221W        W92947  21.171  26.701   1.203
21222W        W92948   6.246  24.286  13.417
21223W        W92949  28.455  33.881   4.842
21224W        W92950  13.781  36.339  11.608
21225W        W92951  18.155  30.928   2.145
21226W        W92952  15.833  28.658   1.864
21227W        W92953  16.402   9.614   1.005
21228W        W92954  13.817  16.364   2.035
21229W        W92955  22.916  43.569  11.021
21230W        W92956  39.599   5.775   4.519
21231W        W92957  35.582  35.882   0.065
21232W        W92958  27.690  33.030   1.117
21233W        W92959  28.174  28.935  11.521
21234W        W92960   2.349  26.250   0.713
21235W        W92961  20.208  27.383  12.183
21236W        W92962  41.955   4.432  11.213
21237W        W92963  33.579  26.957  11.611
21238W        W92964  29.865  40.494  13.918
21239W        W92965  39.416  24.524   3.440
21240W        W92966  15.701  36.842   3.528
21241W        W92967  28.746   1.707  11.090
21242W        W92968  13.176  16.024   1.439
21243W        W92969  29.636  10.583   2.280
21244W        W92970   0.971   3.780  14.795
21245W        W92971  30.133  22.884  14.825
21246W        W92972  17.635  24.560  10.687
21247W        W92973  34.505  34.572  12.044
21248W        W92974  16.675  26.031   3.772
21249W        W92975  13.362  44.407   1.851
21250W        W92976  44.267  29.385  11.648
21251W        W92977   6.313  17.846   0.746
21252W        W92978  27.925  17.655   3.567
21253W        W92979  42.545   1.046   1.803
21254W        W92980  20.998  36.506   4.261
21255W        W92981  17.729   2.016   1.681
21256W        W92982  24.198   0.734   2.911
21257W        W92983  44.740  12.223   4.217
21258W        W92984  21.806  38.638   9.982
21259W        W92985   0.267   8.730  13.600
21260W        W92986   7.821  17.832   0.345
21261W        W92987   4.318   1.054  12.643
21262W        W92988  28.619  28.220  14.439
21263W        W92989   8.895  31.941   0.975
21264W        W92990  19.482  31.217   2.802
21265W        W92991  32.058  42.896   2.904
21266W        W92992   3.240  35.949  10.992
21267W        W92993  36.830   5.936  11.596
21268W        W92994  15.690   8.275   0.998
21269W        W92995  14.237   9.665  10.879
21270W        W92996  35.741  12.748  12.013
21271W        W92997  21.517  26.571  10.670
21272W        W92998   7.780  22.335  13.022
21273W        W92999  42.813  16.657   0.097
21274W        W93000   7.726  41.458   1.644
21275W        W93001   5.363   6.610  10.600
21276W        W93002   0.252  26.711   4.546
21277W        W93003   0.938  34.494  14.080
21278W        W93004   2.682   3.602   2.821
21279W        W93005  20.526  28.683   3.288
21280W        W93006  41.027  27.305   3.319
21281W        W93007  24.113  17.449   5.016
21282W        W93008   1.949  14.557  12.385
21283W        W93009   6.236   7.758   1.745
21284W        W93010  34.377  29.833   2.805
21285W        W93011  28.501  14.333  13.912
21286W        W93012  41.634  20.274   3.295
21287W        W93013  23.776  44.719   4.538
21288W        W93014  24.375  26.472   4.502
21289W        W93015   4.017  22.066   4.647
21290W        W93016   1.870  38.994   0.444
21291W        W93017   5.241   6.458  12.067
21292W        W93018  23.718  16.623   0.820
21293W        W93019   9.743  12.323   2.432
21294W        W93020  28.693  25.141   3.100
21295W        W93021  10.214  44.536  13.824
21296W        W93022  32.352  14.716  12.069
21297W        W93023  42.442   7.753   3.189
21298W        W93024   7.417   2.055  14.497
21299W        W93025  27.125  15.713   2.078
21300W        W93026  14.538  25.017   4.530
21301W        W93027  19.060  37.415  13.817
21302W        W93028  34.503  12.237  14.819
21303W        W93029  16.066  21.762   1.897
21304W        W93030  38.471  30.396   0.278
21305W        W93031  10.056  17.927  13.985
21306W        W93032  18.216  19.142   2.863
21307W        W93033  11.776  44.482  10.927
21308W        W93034  33.924   5.804  11.983
21309W        W93035  39.448  21.038  14.567
21310W        W93036   7.332   5.981   4.035
21311W        W93037  32.888  17.397   3.654
21312W        W93038  42.815  10.275  14.114
21313W        W93039  26.105  20.758  11.114
21314W        W93040  28.579  22.004  11.689
21315W        W93041  34.077   0.010  14.884
21316W        W93042  31.610  31.066  11.573
21317W        W93043   9.693  19.832   0.280
21318W        W93044  25.912  14.547   0.822
21319W        W93045   3.900  40.928  14.375
21320W        W93046  23.931  21.084  12.010
21321W        W93047  22.248  35.467   3.663
21322W        W93048   0.314   9.192  11.834
21323W        W93049  37.357  40.577  10.735
21324W        W93050  11.066  21.572   4.168
21325W        W93051  21.512  44.275   0.939
21326W        W93052  23.285  39.715  14.385
21327W        W93053  41.090  22.581   3.660
21328W        W93054   0.785   1.489  13.029
21329W        W93055   5.282  25.233   2.770
21330W        W93056  32.360  11.761  10.239
21331W        W93057  27.957   2.426  11.182
21332W        W93058  32.194  33.109   1.781
21333W        W93059  40.034  34.406  10.938
21334W        W93060  29.097  17.928   0.341
21335W        W93061  41.377  14.708   2.348
21336W        W93062  12.905  17.730  13.823
21337W        W93063   7.796  28.431  11.482
21338W        W93064   1.759  36.034  13.450
21339W        W93065   2.461  19.616   1.835
21340W        W93066  33.365  38.967  14.246
21341W        W93067  32.432  38.819  13.927
21342W        W93068  27.644  32.112   2.885
21343W        W93069  35.789  32.304  12.919
21344W        W93070   1.997  12.221   3.268
21345W        W93071  29.001  22.273   2.099
21346W        W93072  24.498  27.678   4.153
21347W        W93073   3.459  31.131   0.903
21348W        W93074  42.931  36.949   3.795
21349W        W93075  37.484  32.924   1.705
21350W        W93076  34.596  16.632   3.905
21351W        W93077  23.723  20.537   2.249
21352W        W93078  37.443  13.444  14.483
21353W        W93079  27.097  41.009   1.294
21354W        W93080   2.443  18.493  14.546
21355W        W93081  39.837  24.178   4.462
21356W        W93082  42.372   7.667   0.678
21357W        W93083  36.051   1.474   1.201
21358W        W93084  27.170  17.071  11.162
21359W        W93085  44.467   5.834   2.438
21360W        W93086   7.816  30.994   2.435
21361W        W93087   9.109  21.200  10.583
21362W        W93088  16.417  42.809  14.295
21363W        W93089  38.565  13.284   3.730
21364W        W93090  16.252  29.850  13.929
21365W        W93091  43.917  36.881   1.161
21366W        W93092  32.941  44.136  13.810
21367W        W93093  36.572  22.084  13.923
21368W        W93094   7.300  13.843   3.375
21369W        W93095  22.408  25.578   0.986
21370W        W93096   1.778  44.429  11.569
21371W        W93097  42.258  34.056  10.431
21372W        W93098  32.519   3.364  13.531
21373W        W93099  26.986  41.540  13.091
21374W        W93100  36.637  34.621   1.633
21375W        W93101   9.806  33.045   2.360
21376W        W93102  29.036  38.798  11.986
21377W        W93103   2.412  35.851  10.722
21378W        W93104  21.863  18.117   1.709
21379W        W93105  12.220  13.881   1.327
21380W        W93106  43.075  27.335   1.846
21381W        W93107   8.924  40.677   2.952
21382W        W93108  21.211  14.520  12.176
21383W        W93109  15.852  18.206   1.300
21384W        W93110  36.002  35.398   1.867
21385W        W93111  29.143  18.441   0.371
21386W        W93112  22.887  32.414  12.960
21387W        W93113  15.300  35.565  10.786
21388W        W93114   6.837   6.724  14.204
21389W        W93115   1.514  17.579   1.740
21390W        W93116  11.929  43.849   1.351
21391W        W93117  10.764   0.505   4.432
21392W        W93118  25.247  24.117   3.171
21393W        W93119  24.920  15.824  12.116
21394W        W93120  37.562  31.937  14.941
21395W        W93121  15.049  19.301  12.791
21396W        W93122   9.209  44.813  11.001
21397W        W93123  23.973  31.189   2.708
21398W        W93124  33.717  21.978  12.033
21399W        W93125  18.979  18.706   0.193
21400W        W93126  36.438  15.286  13.350
21401W        W93127  28.120   3.007   2.739
21402W        W93128  13.563   9.297  10.521
21403W        W93129  10.711  33.335  12.072
21404W        W93130  30.139  34.910   1.716
21405W        W93131  30.713  25.878   0.359
21406W        W93132  25.065  21.791   2.299
21407W        W93133   8.096   5.530  11.933
21408W        W93134  33.603  11.817  12.605
21409W        W93135  11.162  33.859  12.498
21410W        W93136  33.640   8.357   4.139
21411W        W93137   8.815  30.640   0.468
21412W        W93138  33.707  21.132  13.885
21413W        W93139   3.267  26.066  11.424
21414W        W93140  34.411  35.890   1.468
21415W        W93141   3.665   8.786  14.081
21416W        W93142  15.367  22.284   2.548
21417W        W93143   9.604  16.162   4.258
21418W        W93144  33.585  23.745  10.665
21419W        W93145  37.098  39.528  12.559
21420W        W93146  38.494  15.377  11.639
21421W        W93147  19.161  37.973  11.696
21422W        W93148  11.198  18.391   2.384
21423W        W93149  30.674  27.246  13.085
21424W        W93150  37.328  25.640   4.243
21425W        W93151  31.954  19.237   3.824
21426W        W93152  39.608  37.417   1.989
21427W        W93153  28.029   8.823   1.370
21428W        W93154  43.014  20.519   0.948
21429W        W93155  29.450  20.611   3.606
21430W        W93156  12.859  13.777   2.818
21431W        W93157  19.957  41.951  11.998
21432W        W93158   7.357  40.802   0.470
21433W        W93159  34.507  32.989   4.297
21434W        W93160  33.009   7.804  13.829
21435W        W93161  35.776  28.112   4.654
21436W        W93162   7.114  37.334  13.796
21437W        W93163  28.290   0.182   0.822
21438W        W93164  40.779  17.109   1.246
21439W        W93165  15.021  41.729  12.058
21440W        W93166   3.825  29.103   4.110
21441W        W93167  29.151  44.731  12.501
21442W        W93168  37.154  42.883  11.649
21443W        W93169   1.999   6.355   1.421
21444W        W93170   8.293  36.588   1.755
21445W        W93171  19.704  30.114  12.498
21446W        W93172  23.725  37.114  12.057
21447W        W93173  11.620   9.791   3.701
21448W        W93174   7.400  10.965  13.305
21449W        W93175  15.147  11.398   2.268
21450W        W93176  35.321  27.877  14.835
21451W        W93177  12.279   8.784  13.391
21452W        W93178  31.502  34.106  14.907
21453W        W93179  39.958   8.237  11.920
21454W        W93180  12.642   3.301  11.617
21455W        W93181  36.302  26.522  12.161
21456W        W93182  34.184  31.540   2.352
21457W        W93183  32.491  10.333   4.876
21458W        W93184  22.554  35.022   3.677
21459W        W93185  44.846   2.761  13.946
21460W        W93186  16.221  13.287   2.671
21461W        W93187  23.537  36.070   1.631
21462W        W93188   7.851  35.613  12.096
21463W        W93189  22.606  42.318   1.617
21464W        W93190  13.854  14.703   2.739
21465W        W93191  42.457  16.920   3.149
21466W        W93192  23.216   7.179  10.666
21467W        W93193  14.541  34.606  12.697
21468W        W93194  15.322   1.742   3.211
21469W        W93195  33.428  16.940   0.266
21470W        W93196   3.377  40.948  10.707
21471W        W93197  23.554   8.733   3.254
21472W        W93198  16.955  20.819  11.129
21473W        W93199  15.295  43.328  10.398
21474W        W93200  36.922  27.653   1.492
21475W        W93201  36.948  10.392  11.135
21476W        W93202  13.367  33.885   0.795
21477W        W93203   7.437  19.464  14.618
21478W        W93204  31.169  20.303  10.781
21479W        W93205   4.888  14.132  10.797
21480W        W93206   8.797  12.599  10.270
21481W        W93207  39.919  40.307   2.659
21482W        W93208  20.136  15.019  12.398
21483W        W93209  39.125  18.727   0.286
21484W        W93210  34.605   1.827  14.836
21485W        W93211   2.692  36.680   0.341
21486W        W93212   9.764  12.908   4.698
21487W        W93213   6.467   1.255  12.531
21488W        W93214   5.812  27.106  10.564
21489W        W93215  36.597  17.710  12.056
21490W        W93216   4.455  34.759  14.834
21491W        W93217   3.792   6.709   4.134
21492W        W93218  16.942  10.534   3.513
21493W        W93219   7.933  16.381  14.096
21494W        W93220  41.317  11.611  11.453
21495W        W93221  38.465   2.140  11.207
21496W        W93222  31.122  37.073  14.880
21497W        W93223  13.083  12.768   3.152
21498W        W93224  32.887  13.434  12.472
21499W        W93225  18.229  27.196  14.333
21500W        W93226  28.391   3.798  13.703
21501W        W93227   1.081  35.927   1.067
21502W        W93228  40.064  18.205   3.685
21503W        W93229  20.684   3.387   2.090
21504W        W93230  12.600  38.435  11.565
21505W        W93231  10.314  22.704   2.717
21506W        W93232  44.547   1.923   4.369
21507W        W93233  18.560  41.655  11.961
21508W        W93234  38.525  16.857  10.568
21509W        W93235  15.714  17.293   1.988
21510W        W93236  35.279  25.524   1.638
21511W        W93237  40.473  19.566  10.489
21512W        W93238  26.227  37.990  13.061
21513W        W93239  35.297  20.561   2.327
21514W        W93240   3.002  38.824   2.312
21515W        W93241  26.547  24.406  13.547
21516W        W93242  38.922   7.544  14.333
21517W        W93243   2.680   3.326   4.143
21518W        W93244  13.721   2.935  12.452
21519W        W93245  41.947  10.786  12.284
21520W        W93246  42.916  33.030   2.716
21521W        W93247  40.750   9.388   1.918
21522W        W93248  42.765  32.081   3.136
21523W        W93249  19.052  20.624  14.301
21524W        W93250   8.436   4.514  14.788
21525W        W93251  22.034  33.712  10.371
21526W        W93252   0.054  33.153   1.901
21527W        W93253  33.045   4.518  12.610
21528W        W93254   8.123  39.008  10.249
21529W        W93255  10.809  10.531  13.969
21530W        W93256  25.946  30.616  13.804
21531W        W93257   1.378  21.395   4.106
21532W        W93258  40.596  14.766   2.746
21533W        W93259  23.763  26.232  14.952
21534W        W93260  35.056  10.832  10.444
21535W        W93261  23.398   1.518  10.523
21536W        W93262  10.703  11.750  11.547
21537W        W93263  43.782  12.745   0.943
21538W        W93264  24.155   5.745   2.119
21539W        W93265   0.931  15.280   3.763
21540W        W93266  18.235  36.332   0.217
21541W        W93267  37.018   4.169  14.994
21542W        W93268  35.481  10.380   4.916
21543W        W93269  23.043  38.957   2.636
21544W        W93270   5.869  31.349   3.569
21545W        W93271   2.246   4.728  10.401
21546W        W93272   3.316  41.094  12.361
21547W        W93273  14.837  14.077   3.536
21548W        W93274  18.678  37.302   0.458
21549W        W93275  27.891  30.978   1.317
21550W        W93276  27.077  38.076   2.591
21551W        W93277   4.719  40.752   0.788
21552W        W93278  34.348  42.030   3.041
21553W        W93279  21.260  37.440   1.502
21554W        W93280  13.799  40.335  10.879
21555W        W93281  31.650   3.940   0.704
21556W        W93282  16.837   7.342  12.470
21557W        W93283   9.838   6.326  11.443
21558W        W93284   8.502  17.298   2.442
21559W        W93285   7.415  27.585   2.218
21560W        W93286  28.521   7.394  14.052
21561W        W93287  25.461   5.299  13.312
21562W        W93288  13.228  28.700  11.691
21563W        W93289  14.329  36.764  12.595
21564W        W93290  29.571   6.253  12.025
21565W        W93291  40.601  20.965  12.822
21566W        W93292  30.245  15.853  11.906
21567W        W93293  36.309  15.039  14.154
21568W        W93294  32.496  17.387   2.889
21569W        W93295  37.621  31.278   1.854
21570W        W93296  14.615  16.040  10.795
21571W        W93297  18.183  39.564  11.068
21572W        W93298  39.781  35.071  12.887
21573W        W93299  36.307   4.979  10.760
21574W        W93300   9.855  43.853   3.912
21575W        W93301  40.479  19.569   3.242
21576W        W93302  30.982  34.822  13.450
21577W        W93303  11.221  17.696  13.466
21578W        W93304  24.267  12.869   2.843
21579W        W93305  38.858  35.880   0.336
21580W        W93306  44.764   6.590  10.790
21581W        W93307  10.252  43.875   4.380
21582W        W93308  22.291  43.731   4.630
21583W        W93309  14.856  21.217   3.151
21584W        W93310   6.440  15.800   1.237
21585W        W93311  28.114  28.546  10.587
21586W        W93312   0.544  40.104   3.082
21587W        W93313  17.608  21.789   0.335
21588W        W93314  33.301  35.642   4.557
21589W        W93315  17.883  40.745   2.627
21590W        W93316   3.151  13.189  13.303
21591W        W93317  15.779  28.495   2.366
21592W        W93318   3.824  30.456  13.562
21593W        W93319  37.473  42.825  12.417
21594W        W93320  34.492  20.708   1.870
21595W        W93321  30.934  33.947  10.782
21596W        W93322  32.463  11.970   4.265
21597W        W93323  21.619   5.795   3.091
21598W        W93324  40.327  34.055  14.594
21599W        W93325  27.189  22.213  12.910
21600W        W93326  24.502   5.361  13.927
21601W        W93327  22.233  13.701   4.187
21602W        W93328  36.704  41.812   3.869
21603W        W93329   3.036  22.029  12.028
21604W        W93330   4.717  38.885   3.421
21605W        W93331  17.436   8.699   4.005
21606W        W93332  42.591   9.431   2.388
21607W        W93333  43.385  26.803  12.356
21608W        W93334  25.493  17.005  14.009
21609W        W93335  38.433  31.629  14.016
21610W        W93336  41.862   0.773  10.264
21611W        W93337  20.744  27.026  12.981
21612W        W93338  19.541  29.635  12.115
21613W        W93339  17.173  37.511  14.306
21614W        W93340   7.734  34.353   1.759
21615W        W93341  10.312  21.701   3.599
21616W        W93342  12.371  39.867   3.152
21617W        W93343  21.291  15.126  12.966
21618W        W93344   4.012  25.547   0.871
21619W        W93345   4.846   6.239  11.534
21620W        W93346  26.496  34.277  12.277
21621W        W93347  29.625  14.327  11.744
21622W        W93348   5.908  23.541   4.205
21623W        W93349  42.072  14.601   3.779
21624W        W93350  16.042  38.608   2.856
21625W        W93351  35.956  34.586  10.768
21626W        W93352  26.675   5.175   2.311
21627W        W93353  42.345  29.116   1.786
21628W        W93354  18.054   4.834   2.781
21629W        W93355  20.960  43.977  13.528
21630W        W93356  12.659  10.234   2.818
21631W        W93357  37.986  30.599   4.022
21632W        W93358  18.854   9.525  12.514
21633W        W93359  12.548  28.890   2.397
21634W        W93360   5.835  23.058  13.267
21635W        W93361   4.440  43.249   2.395
21636W        W93362  19.696  11.726   2.284
21637W        W93363   2.341   7.954  13.977
21638W        W93364   9.322   0.789   3.770
21639W        W93365  18.611   5.082  11.912
21640W        W93366  14.681  31.290  10.684
21641W        W93367  32.878  36.289   3.289
21642W        W93368   0.583  25.043   3.175
21643W        W93369   6.865  32.978   2.114
21644W        W93370   7.923  15.198   2.916
21645W        W93371  11.723  25.354  11.084
21646W        W93372  26.895  29.937  12.450
21647W        W93373  23.624  33.632  13.486
21648W        W93374  19.773  41.707   2.346
21649W        W93375   6.285  37.686   4.510
21650W        W93376  20.842  23.546  11.612
21651W        W93377  11.661  28.652  12.975
21652W        W93378  10.329  30.516  14.463
21653W        W93379  18.170  30.323   4.323
21654W        W93380  29.047  22.827   0.857
21655W        W93381  32.184   4.802  12.112
21656W        W93382  12.380   4.765   2.867
21657W        W93383  34.585  13.395  14.321
21658W        W93384  20.091  12.034   2.129
21659W        W93385  21.740  26.229  13.414
21660W        W93386  34.592  39.425   1.297
21661W        W93387  14.912  28.519  12.550
21662W        W93388  20.494  23.783   4.669
21663W        W93389   9.905   2.356  12.854
21664W        W93390  41.877  39.350  12.412
21665W        W93391  17.116   4.645   1.955
21666W        W93392  14.211  12.700   3.105
21667W        W93393  43.031   0.884   2.039
21668W        W93394  26.228  38.573   3.302
21669W        W93395   5.610  23.544   2.286
21670W        W93396   6.235  23.255  14.350
21671W        W93397   1.993  19.084  12.560
21672W        W93398  20.617  13.052  10.967
21673W        W93399  24.735  12.157   4.213
21674W        W93400   5.044   2.544   0.819
21675W        W93401  44.217  20.618   4.344
21676W        W93402  19.180   9.777   2.057
21677W        W93403  23.021  43.244   4.261
21678W        W93404   6.489  23.179   2.560
21679W        W93405  43.303   4.262  10.767
21680W        W93406  38.946  42.423  14.373
21681W        W93407  33.934   4.296  11.224
21682W        W93408  14.742   2.907   3.317
21683W        W93409  15.089   2.062   2.851
21684W        W93410  44.312  30.683   1.356
21685W        W93411   1.067   0.970  13.041
21686W        W93412  40.964  16.175   2.875
21687W        W93413  28.539  30.152  14.359
21688W        W93414   7.875  16.164   3.752
21689W        W93415  15.161  14.687  11.986
21690W        W93416  33.407  28.282   2.565
21691W        W93417  32.951   2.632   4.058
21692W        W93418  31.997  25.212   0.835
21693W        W93419  18.206   6.492   1.922
21694W        W93420  18.844  43.208  10.387
21695W        W93421  28.534   1.994  13.818
21696W        W93422  37.421  27.927   0.869
21697W        W93423   1.861   6.385   3.652
21698W        W93424   0.715  13.246  13.714
21699W        W93425  26.893  35.090  13.313
21700W        W93426  21.227  30.397   3.803
21701W        W93427  37.429  40.776   1.980
21702W        W93428  44.684  34.485   4.602
21703W        W93429  16.287  43.418   1.400
21704W        W93430   1.621   7.639   1.422
21705W        W93431  30.486   8.717  12.595
21706W        W93432  37.414  33.859   1.858
21707W        W93433  37.116   2.484   3.769
21708W        W93434  16.600  23.977   0.203
21709W        W93435   3.284  26.473  14.519
21710W        W93436  39.412  34.886   4.676
21711W        W93437  28.103   9.939  11.588
21712W        W93438  20.028  44.169   2.808
21713W        W93439  15.520  18.611   2.664
21714W        W93440   6.426  39.011   0.465
21715W        W93441  15.414   9.753   4.225
21716W        W93442   8.806  19.039   3.740
21717W        W93443  24.401  33.307   4.137
21718W        W93444  23.112  21.039  11.199
21719W        W93445  40.484  22.539  13.485
21720W        W93446  34.442  24.476   1.210
21721W        W93447  29.513  39.704  13.657
21722W        W93448  33.416   7.351   1.618
21723W        W93449  14.046  18.957   2.523
21724W        W93450  40.073  32.503  13.558
21725W        W93451  20.199  26.847  12.228
21726W        W93452  36.087  11.680  11.694
21727W        W93453  19.856  19.489   1.210
21728W        W93454  44.926  26.445   0.911
21729W        W93455  30.741  14.758   1.708
21730W        W93456  31.468  18.027  14.003
21731W        W93457   1.279  39.730   2.526
21732W        W93458  19.804  19.701  10.737
21733W        W93459  38.929  11.781  11.975
21734W        W93460  41.256  12.644   4.000
21735W        W93461   9.764  40.432  12.018
21736W        W93462   4.343   5.305   2.833
21737W        W93463  24.738  41.029   0.976
21738W        W93464  16.718  28.466   1.806
21739W        W93465  30.228  40.966  14.925
21740W        W93466  24.968  40.712   1.416
21741W        W93467  15.724  19.819   1.754
21742W        W93468   8.276  12.619   1.253
21743W        W93469  14.945  32.035   4.526
21744W        W93470  13.346  16.229   4.559
21745W        W93471  17.623  44.388  14.553
21746W        W93472   6.151  17.623  10.261
21747W        W93473  20.778  20.058   2.326
21748W        W93474  20.682  22.166  10.742
21749W        W93475  17.118  16.040   3.782
21750W        W93476  30.776  15.311  14.418
21751W        W93477   8.908  13.691   4.879
21752W        W93478  32.931  18.077  11.481
21753W        W93479   2.528   1.868  11.647
21754W        W93480  43.312  40.294  14.349
21755W        W93481  38.737  25.831  11.582
21756W        W93482  18.232   0.388   3.326
21757W        W93483   1.515  34.996  12.549
21758W        W93484  27.042  33.616  12.559
21759W        W93485   8.233   9.374  12.578
21760W        W93486  24.209  18.504   1.767
21761W        W93487   1.318  12.455   0.320
21762W        W93488  16.187  31.933  14.900
21763W        W93489  19.077  14.207   0.369
21764W        W93490  43.046   7.736  13.123
21765W        W93491   8.818   3.682   3.779
21766W        W93492  13.299  36.354   4.675
21767W        W93493  34.112  29.438  14.755
21768W        W93494  16.553  25.105  11.099
21769W        W93495   4.648  20.430  10.514
21770W        W93496  37.037   1.098  12.436
21771W        W93497  31.377   6.661  11.470
21772W        W93498   1.016  44.106  14.815
21773W        W93499  31.594   3.305  13.014
21774W        W93500  18.322  22.785  10.619
21775W        W93501   7.681  35.331   1.708
21776W        W93502  11.086  41.849  11.537
21777W        W93503  28.728  33.839  13.288
21778W        W93504  18.786  42.363   4.909
21779W        W93505   0.280  23.212   0.811
21780W        W93506   4.676  43.445  14.367
21781W        W93507   7.901  20.342  10.624
21782W        W93508  33.010   9.712   4.221
21783W        W93509  24.973  23.712  12.397
21784W        W93510  38.492  42.242  14.161
21785W        W93511  15.377  17.696  11.491
21786W        W93512  28.542  36.132  11.401
21787W        W93513  34.129  39.735   3.549
21788W        W93514  22.469  13.676   2.997
21789W        W93515  15.251  24.435   1.797
21790W        W93516   5.426  34.066  13.011
21791W        W93517  36.637  30.150  12.985
21792W        W93518   1.432  33.090  12.328
21793W        W93519  39.983  36.293   2.711
21794W        W93520  34.482  31.789   3.711
21795W        W93521  13.942  37.596  11.738
21796W        W93522  44.281   6.328   2.322
21797W        W93523   5.049  20.952   1.475
21798W        W93524  24.231  31.454  12.383
21799W        W93525  38.427  25.485  11.271
21800W        W93526  29.947  21.663  11.728
21801W        W93527  34.685  35.027   3.202
21802W        W93528   5.839  25.635   3.907
21803W        W93529  35.037  42.255   0.393
21804W        W93530  26.587   0.473   1.739
21805W        W93531  17.485  34.771  10.617
21806W        W93532  39.882  36.987   4.682
21807W        W93533  24.594  24.044  12.478
21808W        W93534   8.259  11.874   0.703
21809W        W93535  21.127  43.355   4.483
21810W        W93536  32.914  15.075  12.972
21811W        W93537  37.403  20.590   3.159
21812W        W93538  10.240  12.338  11.628
21813W        W93539  40.089  19.722  14.868
21814W        W93540  23.002  12.408  14.807
21815W        W93541   0.196   3.193   2.815
21816W        W93542  13.195  37.782   0.452
21817W        W93543  11.895   4.461   2.764
21818W        W93544  31.448  39.822  14.354
21819W        W93545   3.697  20.749  13.584
21820W        W93546   8.754   7.576   0.399
21821W        W93547  23.672   2.777   2.487
21822W        W93548  43.327  10.612   1.385
21823W        W93549   2.297  39.125   1.859
21824W        W93550  31.074  17.182  13.310
21825W        W93551   3.459  27.488   0.296
21826W        W93552  11.092  27.004  10.610
21827W        W93553  40.680   8.663   1.390
21828W        W93554  17.702   6.671  10.682
21829W        W93555  43.960  43.915  13.051
21830W        W93556   3.167   4.924  12.647
21831W        W93557  41.878  21.767   1.810
21832W        W93558  17.045  21.918  10.171
21833W        W93559  32.856  16.278   3.527
21834W        W93560  14.249   2.404  13.934
21835W        W93561  12.665  31.560   0.736
21836W        W93562   8.586  35.046   5.039
21837W        W93563  28.521  27.510   4.385
21838W        W93564  39.300   3.744  12.998
21839W        W93565  11.456  39.518  12.838
21840W        W93566  35.545  24.665  14.730
21841W        W93567  21.746  28.202  14.834
21842W        W93568  14.745  42.296   2.612
21843W        W93569  33.021  42.288   2.388
21844W        W93570  15.767  13.399   4.812
21845W        W93571  36.283  38.298  13.871
21846W        W93572  15.032   8.119  11.901
21847W        W93573  43.170  29.672   4.459
21848W        W93574  25.724  25.643   3.932
21849W        W93575  13.498  35.534   2.958
21850W        W93576  29.752  14.948  11.987
21851W        W93577   8.355   5.238   3.304
21852W        W93578   4.388  12.875  14.825
21853W        W93579  34.645  43.387  11.981
21854W        W93580  14.840  24.769   0.426
21855W        W93581  34.530  22.798  14.259
21856W        W93582  26.050   0.318  13.027
21857W        W93583  22.087  23.995   1.786
21858W        W93584  16.709  28.460  12.058
21859W        W93585   6.437  24.586   4.238
21860W        W93586   7.444  44.513   3.609
21861W        W93587  34.309  39.384   0.345
21862W        W93588  39.345  34.784   3.365
21863W        W93589   7.662   0.868   2.215
21864W        W93590  18.622  29.474  12.682
21865W        W93591   4.129  16.464   4.986
21866W        W93592  42.478  25.112   0.871
21867W        W93593  40.053  31.234   4.785
21868W        W93594  28.617  33.926  11.965
21869W        W93595  17.837  25.219  11.990
21870W        W93596  33.842  14.108  13.582
21871W        W93597  28.328  25.229  13.078
21872W        W93598  31.035  20.266  13.880
21873W        W93599  21.822   6.921  14.325
21874W        W93600  23.058  28.255  11.401
21875W        W93601  35.956  29.139   4.925
21876W        W93602   8.145  28.652  14.208
21877W        W93603  44.785   1.796   0.229
21878W        W93604  19.576  41.892  14.874
21879W        W93605   0.369  22.593   1.466
21880W        W93606  19.527  23.664   1.166
21881W        W93607  42.538  21.576   2.120
21882W        W93608  29.532  33.549   0.286
21883W        W93609  12.221  15.064   3.498
21884W        W93610  31.890   9.836  13.799
21885W        W93611   6.310   1.728  13.135
21886W        W93612  38.825  29.946   2.615
21887W        W93613   3.650  12.848   0.836
21888W        W93614   8.529  10.627  12.543
21889W        W93615  25.995  22.289   0.324
21890W        W93616  38.901  12.798  11.685
21891W        W93617  23.024  27.134   1.237
21892W        W93618  18.136  19.747   2.254
21893W        W93619  12.870   1.004  13.109
21894W        W93620   6.212  33.182   0.718
21895W        W93621  34.952  38.852  12.493
21896W        W93622  37.440  35.571  12.808
21897W        W93623  39.593   0.318  13.346
21898W        W93624  34.173  43.319  11.601
21899W        W93625  14.367  44.965   3.629
21900W        W93626  36.487  22.767  14.722
21901W        W93627   1.524   9.620   0.528
21902W        W93628  30.589   3.633   3.200
21903W        W93629  27.075  44.922   1.319
21904W        W93630  34.982   3.502  13.982
21905W        W93631  34.349   9.913   4.651
21906W        W93632  19.230  44.318  13.991
21907W        W93633  12.387  19.671   1.679
21908W        W93634  25.849   5.711  11.668
21909W        W93635  39.584  40.899  12.855
21910W        W93636  39.225   6.569   3.301
21911W        W93637  22.371  25.374  13.499
21912W        W93638  11.388  31.151   4.243
21913W        W93639  21.524  19.699   3.579
21914W        W93640  10.583  20.479   3.673
21915W        W93641  12.171  42.196  13.900
21916W        W93642  39.334  19.291  12.027
21917W        W93643  40.763  21.415   2.940
21918W        W93644  22.908   8.239  12.011
21919W        W93645  38.088  44.417  14.778
21920W        W93646  24.054  36.125   1.804
21921W        W93647   4.116  36.972  12.464
21922W        W93648  33.753  37.461   2.681
21923W        W93649  43.775  20.780   2.380
21924W        W93650   3.822  26.193  11.997
21925W        W93651  11.745  16.464   0.295
21926W        W93652  23.048  39.934  11.076
21927W        W93653   6.757  20.038   0.484
21928W        W93654  32.649  11.090   0.996
21929W        W93655  22.119  17.084   2.147
21930W        W93656  37.364  41.947  13.146
21931W        W93657  38.747  28.976   3.683
21932W        W93658  36.371  30.075   4.291
21933W        W93659  29.154   9.879   3.791
21934W        W93660  14.233  29.063  12.428
21935W        W93661  31.928  25.586  13.538
21936W        W93662  14.188   8.115   4.058
21937W        W93663  14.673  14.034   0.463
21938W        W93664  13.122   7.371   0.933
21939W        W93665  25.578  41.366  12.059
21940W        W93666  26.502  42.021  11.294
21941W        W93667  28.027  31.880   1.645
21942W        W93668   6.261   2.742   2.189
21943W        W93669  40.517  16.790   1.930
21944W        W93670  44.722  16.734  12.500
21945W        W93671  22.211   4.299   4.072
21946W        W93672  36.603   0.174  10.818
21947W        W93673  35.422  36.496   1.778
21948W        W93674  11.797  14.173   0.249
21949W        W93675  42.941   3.809   2.899
21950W        W93676  10.826   5.098  11.510
21951W        W93677  33.118  29.070  12.077
21952W        W93678  15.610  14.258   0.349
21953W        W93679  11.382  10.328  14.398
21954W        W93680  24.591   5.682   3.203
21955W        W93681   5.116  21.196  13.519
21956W        W93682  24.452   2.425   1.240
21957W        W93683  16.646  30.743  11.668
21958W        W93684  37.638  41.066   4.192
21959W        W93685  33.671  12.785  12.890
21960W        W93686  25.570   4.294   3.090
21961W        W93687  13.843   2.342  12.391
21962W        W93688  15.036  25.977  11.649
21963W        W93689   8.655  18.071   1.822
21964W        W93690   4.988  44.453  11.713
21965W        W93691  16.819  11.851   4.643
21966W        W93692  41.805  36.573   4.334
21967W        W93693  31.447  42.778   3.224
21968W        W93694  22.039  27.508   1.893
21969W        W93695  31.019  17.600   2.260
21970W        W93696  43.919  29.102  10.422
21971W        W93697  34.502  37.957   2.574
21972W        W93698   0.220  31.840   2.238
21973W        W93699  18.052   6.713   4.775
21974W        W93700   7.396   0.655  14.062
21975W        W93701  22.271  10.989   2.738
21976W        W93702   3.401  41.326  14.921
21977W        W93703  22.212  22.228  12.492
21978W        W93704   0.882  39.596   3.575
21979W        W93705   6.218   8.813   3.371
21980W        W93706  24.838  37.337  11.198
21981W        W93707  11.738  12.184  11.093
21982W        W93708   7.189  36.427  13.711
21983W        W93709  38.412   5.782   4.667
21984W        W93710   6.992   4.568  12.623
21985W        W93711  26.070   2.767   0.736
21986W        W93712  22.534  28.393   4.072
21987W        W93713  26.985  43.192  10.244
21988W        W93714   6.741  13.046   4.202
21989W        W93715  19.196  37.900  11.193
21990W        W93716  14.314  41.435   4.631
21991W        W93717  27.841  39.527   4.949
21992W        W93718  26.424  13.751  13.484
21993W        W93719  42.282  13.736  12.489
21994W        W93720   9.762   3.952   2.547
21995W        W93721  16.120   2.472  14.917
21996W        W93722  23.474  40.896  12.185
21997W        W93723  26.044   8.928   0.894
21998W        W93724  15.834   6.196  14.650
21999W        W93725  18.209  39.821  11.978
22000W        W93726  18.539  41.307   4.173
22001W        W93727   4.523   9.764  11.170
22002W        W93728  37.083  27.709   2.352
22003W        W93729  25.053   8.640   3.704
22004W        W93730   1.579  26.975   2.713
22005W        W93731  26.572  25.725   1.291
22006W        W93732  29.837  27.929   1.495
22007W        W93733  17.059  37.661  11.029
22008W        W93734  36.085  21.311  11.620
22009W        W93735  16.222  14.983   2.292
22010W        W93736  41.879  13.760   0.371
22011W        W93737  33.797  41.873   2.151
22012W        W93738  39.757  22.671  12.333
22013W        W93739  22.736  28.665   2.827
22014W        W93740  29.796   1.752   0.105
22015W        W93741  17.097   3.331   4.631
22016W        W93742  36.130   0.359  11.615
22017W        W93743  30.145  28.415  14.538
22018W        W93744   7.559  15.547   2.819
22019W        W93745   3.890  33.661  12.535
22020W        W93746   0.209  28.147  12.402
22021W        W93747  19.818   3.229  14.597
22022W        W93748  17.307  26.621   1.765
22023W        W93749  21.541  15.106   0.807
22024W        W93750  31.656  38.241   4.543
22025W        W93751  37.576  44.541  14.488
22026W        W93752  19.826  14.590  11.221
22027W        W93753  28.024  40.738  14.333
22028W        W93754   8.942  11.111   1.778
22029W        W93755  42.053  24.018  10.650
22030W        W93756  24.569  30.401  14.320
22031W        W93757  19.733  42.096   0.336
22032W        W93758  32.463   9.811   3.551
22033W        W93759  21.579  12.425  11.548
22034W        W93760   0.879  36.875   1.915
22035W        W93761  40.732  40.412  14.968
22036W        W93762  13.090  22.571   2.855
22037W        W93763  22.485   3.516  12.686
22038W        W93764  40.090  12.967   1.315
22039W        W93765  20.011  22.634  13.296
22040W        W93766  21.743  25.375   3.469
22041W        W93767  17.210  13.585   4.479
22042W        W93768  42.862   7.927   1.418
22043W        W93769   6.645  35.889  12.444
22044W        W93770  21.608  36.878   4.846
22045W        W93771   2.774   4.568   3.711
22046W        W93772  37.099  40.818   0.293
22047W        W93773  33.889  23.307  14.030
22048W        W93774   8.929  35.888  14.412
22049W        W93775  36.868  38.457   4.501
22050W        W93776  26.023  23.545  14.807
22051W        W93777  33.843  17.304   0.175
22052W        W93778  25.931   0.811   5.497
22053W        W93779  43.985  11.612  12.885
22054W        W93780   2.836  18.793  14.801
22055W        W93781  39.638  38.554  14.303
22056W        W93782   0.899  37.870  14.359
22057W        W93783   2.719  37.829   0.210
22058W        W93784  25.527  29.012   3.901
22059W        W93785  22.861  44.873  11.729
22060W        W93786   6.215  33.812   1.945
22061W        W93787  24.819  23.285   4.139
22062W        W93788  11.601   5.897   2.279
22063W        W93789   5.184   4.972   5.009
22064W        W93790  22.050  32.626  10.641
22065W        W93791   9.132  16.200  12.514
22066W        W93792   7.807  28.721   0.871
22067W        W93793  41.512   9.762   1.559
22068W        W93794  23.095  15.829  14.966
22069W        W93795  35.702  15.703  10.663
22070W        W93796   2.689  27.007   0.236
22071W        W93797   1.317  42.005  11.586
22072W        W93798  36.890  36.829  13.402
22073W        W93799  34.782   8.305  14.857
22074W        W93800   7.351  25.641  13.128
22075W        W93801   0.038  23.275  14.925
22076W        W93802  18.328  31.527   3.654
22077W        W93803  42.732  13.917  12.295
22078W        W93804  37.124  34.200  12.987
22079W        W93805  36.440  10.770  14.722
22080W        W93806  26.877  22.040   0.969
22081W        W93807  28.533  37.053   4.085
22082W        W93808  43.956  39.599   2.657
22083W        W93809  20.755  38.903  14.008
22084W        W93810  35.979  14.084   0.310
22085W        W93811  40.074  40.912  14.420
22086W        W93812  10.747  44.628   2.343
22087W        W93813   5.454  14.133  12.946
22088W        W93814  39.816  10.375   0.828
22089W        W93815  41.843  32.411  10.496
22090W        W93816  23.011  44.191  11.966
22091W        W93817   1.216  27.890   1.741
22092W        W93818  15.430  43.903  14.207
22093W        W93819  37.617  25.641   2.478
22094W        W93820   0.361   7.815  13.635
22095W        W93821  31.830  39.020  11.142
22096W        W93822   4.148  27.179  10.649
22097W        W93823  43.629  25.904  14.318
22098W        W93824  27.135  23.679   2.908
22099W        W93825  21.032  17.996  11.921
22100W        W93826  13.800  36.178  14.878
22101W        W93827  11.948  17.866   4.559
22102W        W93828  36.407  22.492  13.382
22103W        W93829  31.107  26.939   4.681
22104W        W93830  21.267   6.782  12.483
22105W        W93831  13.364   2.296   1.896
22106W        W93832   7.237  40.871   0.990
22107W        W93833  40.290  28.138   1.163
22108W        W93834   5.783  16.513   0.920
22109W        W93835  24.206  14.085   0.130
22110W        W93836   3.676  42.279   2.838
22111W        W93837  14.798  43.295  11.114
22112W        W93838  22.327  38.063  14.072
22113W        W93839  21.744  34.254  12.471
22114W        W93840   2.900  21.800   3.343
22115W        W93841  35.209  28.066   4.706
22116W        W93842  18.302   4.662  13.497
22117W        W93843  18.696   4.643  10.592
22118W        W93844   1.580  18.330   0.149
22119W        W93845  16.878   9.324   4.852
22120W        W93846  21.046  39.316  11.880
22121W        W93847  29.839  30.627  12.055
22122W        W93848  44.463   0.433   5.145
22123W        W93849  23.695  28.272   4.708
22124W        W93850  39.267  29.886  11.685
22125W        W93851  27.456   1.277  10.931
22126W        W93852  43.042  41.741   4.287
22127W        W93853  13.565  32.831   0.433
22128W        W93854  31.140  11.626   2.183
22129W        W93855  27.070  44.770  12.310
22130W        W93856  31.852  15.754  13.054
22131W        W93857  36.670   1.951   3.733
22132W        W93858  23.044  18.614   4.823
22133W        W93859  38.043   1.780  11.947
22134W        W93860  34.173  36.778  12.431
22135W        W93861  15.298   6.892  13.163
22136W        W93862  44.364   2.432   3.174
22137W        W93863  44.001   6.178   2.750
22138W        W93864   0.809  36.605  11.312
22139W        W93865  10.518  18.774   5.070
22140W        W93866  39.108  29.981   4.254
22141W        W93867  20.040  19.666  11.187
22142W        W93868  32.513  40.217   2.849
22143W        W93869  20.269  44.342   2.386
22144W        W93870   0.327  40.061  12.851
22145W        W93871   2.729  12.666   0.941
22146W        W93872  20.304   3.237   1.778
22147W        W93873  17.480  27.159   0.351
22148W        W93874  24.757  13.253  13.966
22149W        W93875  44.878  17.268  11.029
22150W        W93876  27.006  38.887  11.702
22151W        W93877  13.782  11.884   4.049
22152W        W93878  12.708   0.803  15.000
22153W        W93879   7.989  36.509   0.286
22154W        W93880  33.526  36.214  10.719
22155W        W93881  38.594   4.408  10.722
22156W        W93882   1.530  39.299  14.589
22157W        W93883  31.953  40.396  13.872
22158W        W93884   0.321  36.161  13.932
22159W        W93885   6.136   8.982  11.681
22160W        W93886  18.673  41.019  13.765
22161W        W93887  22.639  40.380  13.805
22162W        W93888  11.104  13.811  12.680
22163W        W93889  28.445  22.173   1.181
22164W        W93890  32.653   6.344  11.993
22165W        W93891  27.213   6.477   0.850
22166W        W93892  26.212   7.361   4.169
22167W        W93893  18.185  22.756   1.876
22168W        W93894  27.135  23.970  11.627
22169W        W93895  28.979  41.931  14.454
22170W        W93896  42.441  13.873  13.549
22171W        W93897  11.568  23.142   0.446
22172W        W93898  18.511   4.605  11.076
22173W        W93899  26.756  39.885   0.356
22174W        W93900  35.115  11.572  11.649
22175W        W93901  39.983   1.454  12.348
22176W        W93902   3.463   3.130  14.223
22177W        W93903  25.506  40.699   1.641
22178W        W93904  21.790  24.913   2.155
22179W        W93905  40.067   9.239  11.850
22180W        W93906  43.614  41.844  12.999
22181W        W93907  25.722  37.140  13.024
22182W        W93908  34.603  12.822   1.495
22183W        W93909  33.396  28.718   4.709
22184W        W93910   8.466   4.135   3.686
22185W        W93911  29.989  29.860   3.096
22186W        W93912  18.157   0.026   4.197
22187W        W93913  32.862  15.695   2.228
22188W        W93914   1.345   2.995   3.568
22189W        W93915  13.357  17.374   3.290
22190W        W93916   3.205  23.000  10.564
22191W        W93917   4.576   0.057  11.754
22192W        W93918  37.415  12.770   0.422
22193W        W93919  18.235  34.611  11.711
22194W        W93920  21.759  40.855  10.648
22195W        W93921  16.052   6.764  11.590
22196W        W93922  26.481  28.689   2.163
22197W        W93923  44.264  16.407  13.346
22198W        W93924   6.185  17.472   3.362
22199W        W93925  36.008  31.275   3.707
22200W        W93926  21.956  27.012   4.783
22201W        W93927  37.636  37.519   1.453
22202W        W93928  41.209  18.366   4.326
22203W        W93929  19.674   5.854  13.853
22204W        W93930   1.275  27.203   3.577
22205W        W93931   8.405  32.029  13.411
22206W        W93932  23.130  28.011   0.024
22207W        W93933  36.154   8.683   2.473
22208W        W93934   8.154  16.181  10.616
22209W        W93935  19.835  33.621   1.206
22210W        W93936  19.446   6.917   3.242
22211W        W93937  25.570  35.382   0.881
22212W        W93938  33.296   7.246  11.955
22213W        W93939  32.068  15.204  13.036
22214W        W93940  22.120  31.091   4.786
22215W        W93941   2.352   8.135  13.473
22216W        W93942  32.437  40.232   1.247
22217W        W93943  38.891  23.888  12.311
22218W        W93944  23.565  26.199  13.416
22219W        W93945  16.520   5.827   4.226
22220W        W93946  29.431  12.129  13.893
22221W        W93947   4.444  42.547   0.448
22222W        W93948   9.370  44.848   4.126
22223W        W93949  40.092   1.666  11.130
22224W        W93950  38.597  32.691  14.873
22225W        W93951  33.235  40.504  11.554
22226W        W93952   3.458  12.966  12.093
22227W        W93953  12.297  31.094  11.648
22228W        W93954  26.412  15.438  14.529
22229W        W93955  32.040  31.918  14.530
22230W        W93956  38.331  19.312   1.154
22231W        W93957   7.249  32.277   2.399
22232W        W93958  23.007  21.611  12.458
22233W        W93959  34.570  19.618  14.350
22234W        W93960  43.080  15.194  12.535
22235W        W93961  15.161  38.333  13.369
22236W        W93962  19.668   2.675  12.940
22237W        W93963  15.434  37.973   0.833
22238W        W93964  39.251  20.041   2.854
22239W        W93965  36.174  12.166   4.250
22240W        W93966  36.985   4.570  12.963
22241W        W93967   5.052   4.691  14.605
22242W        W93968  40.349  34.131   1.687
22243W        W93969  25.396  28.464   1.234
22244W        W93970  29.566  28.507   2.816
22245W        W93971  21.124  22.473   4.624
22246W        W93972  18.680  44.342  14.530
22247W        W93973  28.390  41.512  11.829
22248W        W93974  25.775  13.176   4.528
22249W        W93975  20.064  37.957  12.474
22250W        W93976  14.248  14.890   3.699
22251W        W93977  17.187   5.735  11.945
22252W        W93978  27.766   8.823  10.557
22253W        W93979  15.806  29.055   4.156
22254W        W93980  10.166   3.498  13.591
22255W        W93981  30.457   4.418   4.294
22256W        W93982  41.758  30.872   1.983
22257W        W93983  32.337  12.424   1.324
22258W        W93984   4.686  12.825  11.936
22259W        W93985  31.074  25.191   2.002
22260W        W93986   9.768  33.802   9.747
22261W        W93987   7.879  19.973   1.762
22262W        W93988   7.351   5.212  10.173
22263W        W93989  16.300  20.565  14.407
22264W        W93990  14.720   4.948   4.662
22265W        W93991   7.998  39.543  12.054
22266W        W93992  36.366   6.844   1.329
22267W        W93993  41.954  13.861  13.394
22268W        W93994  43.003   3.777   1.918
22269W        W93995  15.198  17.719   2.868
22270W        W93996   5.392  22.293   2.625
22271W        W93997  23.153  21.752   2.291
22272W        W93998   8.602  43.220  11.599
22273W        W93999  23.504  35.979  10.889
22274W        W94000  36.506   4.185   4.469
22275W        W94001  44.803  22.091   2.563
22276W        W94002  14.535  43.235   3.529
22277W        W94003   5.003   6.293  13.574
22278W        W94004  19.618   1.791  14.395
22279W        W94005   3.533  40.253  14.493
22280W        W94006   6.670  13.275   3.745
22281W        W94007  36.097  36.831   0.894
22282W        W94008  35.555  10.405   1.673
22283W        W94009  28.263  19.078   2.821
22284W        W94010  15.152  38.091  11.521
22285W        W94011  15.316  43.370  10.914
22286W        W94012  36.035   3.597  12.515
22287W        W94013  29.189  26.867  14.030
22288W        W94014  40.643  43.948   1.710
22289W        W94015  26.426  16.592  13.014
22290W        W94016   7.899  32.119  14.032
22291W        W94017   9.536   6.049  14.827
22292W        W94018  43.384   5.229   2.753
22293W        W94019  24.488   9.161  13.456
22294W        W94020   7.852  14.571   0.282
22295W        W94021  24.926  35.124   2.337
22296W        W94022   0.231  31.388  14.972
22297W        W94023  29.489  29.504   2.202
22298W        W94024  28.797  21.441  11.166
22299W        W94025   5.652   4.602   1.880
22300W        W94026  13.609   6.317   4.092
22301W        W94027  33.499  24.614  10.959
22302W        W94028  34.803  15.401   4.811
22303W        W94029   4.666   2.363  13.941
22304W        W94030  37.991  11.899   1.220
22305W        W94031  13.274   5.774  10.729
22306W        W94032  12.090   7.304  10.506
22307W        W94033  36.516  41.567   4.540
22308W        W94034  17.706  41.362  13.953
22309W        W94035   6.467   4.702   2.127
22310W        W94036   1.866  41.588  11.134
22311W        W94037   8.422  16.295  13.909
22312W        W94038  20.453  37.762  12.151
22313W        W94039   5.920   6.474  14.849
22314W        W94040  20.550  15.305  12.543
22315W        W94041  29.673  35.827   4.490
22316W        W94042  28.055   0.966  13.575
22317W        W94043  32.161  16.709  11.136
22318W        W94044   9.236   1.885   2.818
22319W        W94045  35.132   3.388  10.946
22320W        W94046  36.650  29.651   4.256
22321W        W94047  22.430  24.767   1.682
22322W        W94048  33.463   1.259  11.405
22323W        W94049  21.766   8.565   2.761
22324W        W94050   4.419   5.329  12.381
22325W        W94051  25.642  33.520  14.350
22326W        W94052   8.665   0.013  13.384
22327W        W94053  39.730  17.148  12.181
22328W        W94054  16.573   3.049  13.667
22329W        W94055  26.318  32.545   2.685
22330W        W94056   2.454  29.528   2.643
22331W        W94057  25.489  31.845  12.439
22332W        W94058  13.143  34.524   4.710
22333W        W94059  42.025   2.603   2.379
22334W        W94060  14.167  22.971  13.050
22335W        W94061  21.327  35.057  13.484
22336W        W94062   4.730  38.648  10.154
22337W        W94063   4.929  17.853  10.974
22338W        W94064  29.724  41.251  12.366
22339W        W94065  13.186  27.715  10.436
22340W        W94066  34.030  44.334  12.817
22341W        W94067  23.106  24.204   1.678
22342W        W94068  23.396  16.868  14.451
22343W        W94069  22.803  15.371   3.703
22344W        W94070  18.086  13.741  12.605
22345W        W94071  36.500  37.840  13.977
22346W        W94072  12.815  10.615   2.457
22347W        W94073  17.206  23.457   1.870
22348W        W94074  14.671  40.381   0.429
22349W        W94075  16.869  28.654  13.056
22350W        W94076  10.569  44.384  13.471
22351W        W94077  32.234  38.639   1.237
22352W        W94078   5.718  25.298  12.059
22353W        W94079  33.354  26.476  13.959
22354W        W94080  23.062   4.291   0.846
22355W        W94081   7.856  39.330   0.027
22356W        W94082   9.664  14.102   1.838
22357W        W94083  21.024  39.247   0.371
22358W        W94084  29.732  26.272  11.937
22359W        W94085  26.999  31.256  10.492
22360W        W94086   0.373  15.901   2.739
22361W        W94087  36.202  42.363  14.518
22362W        W94088  32.942  29.410   4.663
22363W        W94089   2.095  31.456  13.986
22364W        W94090  23.561  24.709   0.711
22365W        W94091  31.870  24.337   5.097
22366W        W94092  28.421   9.223   1.386
22367W        W94093  12.092   7.195  12.483
22368W        W94094  17.224  31.043   1.714
22369W        W94095   2.335  36.889  11.628
22370W        W94096   7.817  33.588  13.045
22371W        W94097  34.645  11.376  12.034
22372W        W94098  14.062  40.510  11.888
22373W        W94099  22.788   5.480   1.618
22374W        W94100  16.605  29.036   0.265
22375W        W94101  43.331  19.058  13.237
22376W        W94102  41.488  26.649   3.674
22377W        W94103  18.188   3.062  12.936
22378W        W94104  44.416  27.942  10.675
22379W        W94105  44.018  15.355  10.561
22380W        W94106  10.125   7.337  12.892
22381W        W94107  26.054   7.345  13.315
22382W        W94108  15.065  44.045  13.842
22383W        W94109  35.072  14.936   4.945
22384W        W94110  15.255   4.891   0.885
22385W        W94111  13.225  26.634  12.875
22386W        W94112  16.118  19.340   0.861
22387W        W94113  34.421   5.369  10.955
22388W        W94114  27.174  36.487  13.793
22389W        W94115   6.529  44.043  12.445
22390W        W94116  44.810  44.829  13.353
22391W        W94117  36.120  22.103  14.635
22392W        W94118   3.452  17.135  12.482
22393W        W94119  15.653  30.921   3.613
22394W        W94120  14.530  42.961   4.519
22395W        W94121  37.968  42.961   2.174
22396W        W94122  27.083  28.686   3.605
22397W        W94123  36.857  26.464  13.627
22398W        W94124  37.790  23.482   2.433
22399W        W94125  25.414  31.025   1.152
22400W        W94126  43.937   4.751   4.753
22401W        W94127  42.178  25.177   3.457
22402W        W94128  36.976   4.129   2.277
22403W        W94129  34.202  15.255  12.099
22404W        W94130  41.517   7.116   3.491
22405W        W94131  24.726   2.471   2.665
22406W        W94132  32.515  30.727   3.343
22407W        W94133  32.961  37.432  14.894
22408W        W94134   9.205  24.431  14.594
22409W        W94135  17.262  44.402   1.265
22410W        W94136   3.406  40.317  12.820
22411W        W94137  23.590  19.078  12.125
22412W        W94138  10.661  11.679  14.561
22413W        W94139  17.553  41.986   4.105
22414W        W94140  40.344  44.826   2.342
22415W        W94141  12.982   0.615  11.105
22416W        W94142  38.404  13.316   1.818
22417W        W94143  18.201  33.187  11.590
22418W        W94144   2.440   0.848   4.536
22419W        W94145   4.004  12.662   1.551
22420W        W94146   6.309  41.381  12.364
22421W        W94147  35.374  24.924  11.980
22422W        W94148   8.761  24.255  13.171
22423W        W94149   2.970  31.517   2.191
22424W        W94150  30.092  21.718  10.707
22425W        W94151  42.995  40.557  10.977
22426W        W94152  17.797  19.069  12.031
22427W        W94153  11.039  19.078  11.383
22428W        W94154  29.877   8.160   4.152
22429W        W94155  36.511   4.645  12.481
22430W        W94156  18.779  27.539  11.477
22431W        W94157   8.018  40.016   4.047
22432W        W94158  19.825  10.247  12.482
22433W        W94159  21.010  31.327   3.759
22434W        W94160  40.387  31.903   2.182
22435W        W94161  15.119  38.259  14.393
22436W        W94162  44.573   5.254  10.262
22437W        W94163  32.974  40.467   2.463
22438W        W94164  15.438  11.712   2.606
22439W        W94165  42.979  35.614   1.396
22440W        W94166  43.747  38.415   2.214
22441W        W94167  16.599  36.556  12.160
22442W        W94168  23.138  27.193  13.185
22443W        W94169  27.998  35.921  14.471
22444W        W94170  33.279  20.547  11.907
22445W        W94171   2.333   6.552   3.796
22446W        W94172  15.308   9.665  13.437
22447W        W94173  16.086  29.492   4.137
22448W        W94174  21.649  16.872   1.359
22449W        W94175   8.399  32.878  13.771
22450W        W94176   0.181  40.921   3.133
22451W        W94177  27.255  39.083   2.774
22452W        W94178  35.155  29.422  13.733
22453W        W94179  36.912  16.876   4.976
22454W        W94180  13.739  40.325  14.568
22455W        W94181  33.968  22.921  12.445
22456W        W94182   8.336  23.207  14.824
22457W        W94183  19.037  15.519  11.115
22458W        W94184  21.784  27.267   2.818
22459W        W94185   9.925  17.019   1.656
22460W        W94186  11.951  13.225   0.325
22461W        W94187  32.875  32.376   1.899
22462W        W94188   2.660  40.472   1.303
22463W        W94189  27.605  18.275  10.213
22464W        W94190  39.475   2.777   0.014
22465W        W94191  42.641  10.323   4.997
22466W        W94192  29.829  30.108  12.018
22467W        W94193   1.323   5.108   0.738
22468W        W94194  11.364  21.352   3.766
22469W        W94195  23.394   3.850  10.662
22470W        W94196   1.293  41.074   1.708
22471W        W94197  34.786   7.599   4.530
22472W        W94198  26.103  42.815  12.847
22473W        W94199  36.895   2.152   3.266
22474W        W94200   8.655   4.465  12.326
22475W        W94201  26.615  19.998  11.022
22476W        W94202   8.135   3.788  12.631
22477W        W94203   7.092  44.818   2.235
22478W        W94204  33.692  39.893  13.917
22479W        W94205  26.013  14.084  14.798
22480W        W94206  20.724  30.732  13.199
22481W        W94207  31.537  42.781  10.580
22482W        W94208   1.350  13.446  11.315
22483W        W94209  37.774  39.757   4.688
22484W        W94210  13.156  44.224   1.373
22485W        W94211  39.147   6.254  13.746
22486W        W94212  42.584  44.015   2.893
22487W        W94213  44.837  41.453  12.971
22488W        W94214  28.991  44.879   4.544
22489W        W94215  10.640  17.288  12.426
22490W        W94216  19.909   2.478  13.355
22491W        W94217  15.616  23.069   2.308
22492W        W94218  19.030  40.789  14.430
22493W        W94219  31.588  38.177  10.599
22494W        W94220  32.413  13.668   4.918
22495W        W94221   4.918  28.705  12.923
22496W        W94222  26.684  20.101   1.363
22497W        W94223  29.525  43.574  14.847
22498W        W94224  10.270   3.941   0.969
22499W        W94225  24.228  36.128   0.033
22500W        W94226   7.599  12.754   5.145
22501W        W94227  43.472  37.454   1.593
22502W        W94228  23.403  35.876  13.811
22503W        W94229  17.721   5.287  12.835
22504W        W94230  25.194  36.873  12.886
22505W        W94231  23.106   0.854  14.804
22506W        W94232   1.744  43.053   2.107
22507W        W94233  24.455   6.669  10.782
22508W        W94234  36.432  40.038   4.049
22509W        W94235   9.402   1.675  12.950
22510W        W94236  19.017  22.947  13.323
22511W        W94237  42.358  15.394   3.292
22512W        W94238  34.138   7.743  12.159
22513W        W94239   9.629  33.406   1.985
22514W        W94240  30.016  31.187   2.380
22515W        W94241  34.463  21.598  11.323
22516W        W94242  25.612  34.076   4.109
22517W        W94243   8.029  13.196   0.720
22518W        W94244  38.720   7.176  12.136
22519W        W94245  41.342  13.586   1.974
22520W        W94246  14.424  37.600  11.927
22521W        W94247  20.524  35.037   1.353
22522W        W94248  16.354  21.058  12.931
22523W        W94249  12.188   4.794   0.399
22524W        W94250  23.186  11.968  13.866
22525W        W94251  25.173  12.222   3.925
22526W        W94252   0.105   4.341   1.342
22527W        W94253  18.534  44.803   1.302
22528W        W94254   0.806   5.787  12.644
22529W        W94255   8.977  24.029   2.394
22530W        W94256  33.516  32.008   3.084
22531W        W94257   8.789  39.381   2.136
22532W        W94258  22.782  12.856   4.143
22533W        W94259  37.821  35.332   1.353
22534W        W94260  27.929  21.973   3.269
22535W        W94261  12.198  36.911  11.507
22536W        W94262  19.069  43.689  10.603
22537W        W94263   5.999  30.170  12.912
22538W        W94264  22.014  23.188  13.382
22539W        W94265  15.447   7.754   3.807
22540W        W94266  36.562   9.967  14.601
22541W        W94267   5.408  26.999   3.717
22542W        W94268  18.127   4.761   0.919
22543W        W94269  26.501   1.859  11.807
22544W        W94270  12.615   2.847   3.887
22545W        W94271  25.560   1.993  14.840
22546W        W94272  29.981   8.928  14.411
22547W        W94273  22.488  43.989  13.414
22548W        W94274  18.854  41.328  11.666
22549W        W94275  11.295  20.780   2.303
22550W        W94276  34.344  16.183   3.461
22551W        W94277  16.019   1.322   4.744
22552W        W94278  41.041  16.200   0.492
22553W        W94279  21.084   6.870   4.592
22554W        W94280  12.748  23.104   3.944
22555W        W94281  12.148  28.361  13.886
22556W        W94282  11.625  27.263  14.954
22557W        W94283  36.888  13.269   2.752
22558W        W94284   0.971  15.827  10.782
22559W        W94285  42.735   1.217  11.446
22560W        W94286  44.371  18.440   0.031
22561W        W94287  24.625   1.254  14.229
22562W        W94288  39.732  11.190  10.696
22563W        W94289  34.274  37.393   1.920
22564W        W94290  41.634  38.767  12.053
22565W        W94291  25.147  40.233  11.587
22566W        W94292  30.935  18.222  14.919
22567W        W94293  39.464  12.131  10.047
22568W        W94294  30.817  14.358  12.864
22569W        W94295  16.216   0.712  13.356
22570W        W94296  23.272  20.831  10.615
22571W        W94297  14.620   4.331   1.136
22572W        W94298  27.445  20.101  11.258
22573W        W94299  34.697  40.147  11.997
22574W        W94300  42.987  36.013  12.796
22575W        W94301   7.000  22.395  11.101
22576W        W94302  34.162   1.251  12.392
22577W        W94303  20.575  30.163   2.331
22578W        W94304  20.617  16.740  12.814
22579W        W94305  13.235  38.114   4.529
22580W        W94306  29.668  40.555   2.116
22581W        W94307   7.699  25.450   3.619
22582W        W94308  11.401  22.759  10.981
22583W        W94309  21.373   9.917   1.264
22584W        W94310  20.584  18.075   3.539
22585W        W94311  18.243   0.907  11.913
22586W        W94312  17.640  37.009  12.553
22587W        W94313   8.618  16.399  14.463
22588W        W94314   0.316  36.739   0.329
22589W        W94315  39.860   1.072  14.763
22590W        W94316  43.598  20.401   4.932
22591W        W94317  30.553  23.545  11.499
22592W        W94318  36.282  14.650  12.041
22593W        W94319  17.581  10.687   4.573
22594W        W94320  12.013  25.123  11.577
22595W        W94321  34.523  16.878  13.482
22596W        W94322  16.122  12.382   4.153
22597W        W94323  23.275   1.690   0.363
22598W        W94324   2.467   6.978  10.271
22599W        W94325  22.549  11.221   3.580
22600W        W94326  12.719  21.790   0.869
22601W        W94327  27.569  27.676   1.053
22602W        W94328  14.829  35.336  10.794
22603W        W94329  32.893  41.569  13.371
22604W        W94330  27.688  38.440   2.278
22605W        W94331  24.494   5.306   3.728
22606W        W94332  20.592  26.770  14.298
22607W        W94333  37.313   1.632   0.866
22608W        W94334  40.378  41.501  11.571
22609W        W94335  16.722  21.995  10.566
22610W        W94336   3.998  40.967  11.570
22611W        W94337  32.344  29.520  12.722
22612W        W94338  29.268  14.842  12.570
22613W        W94339   6.706   9.368   0.491
22614W        W94340  22.064  42.284  13.911
22615W        W94341  26.555   0.710   2.194
22616W        W94342   1.590  43.440   1.662
22617W        W94343  22.020   1.861   2.308
22618W        W94344   1.750  26.647  10.855
22619W        W94345  42.515  19.487   1.483
22620W        W94346   2.091  31.141  12.637
22621W        W94347  36.427  42.940  13.389
22622W        W94348  19.586  11.814  11.659
22623W        W94349  38.913  44.959   0.856
22624W        W94350  11.191  34.319   5.402
22625W        W94351  20.772  43.896   2.993
22626W        W94352  17.986  11.626  13.543
22627W        W94353   8.511  41.932  10.754
22628W        W94354  35.123  17.599   4.202
22629W        W94355   5.271  36.491  12.429
22630W        W94356  10.863  34.570   3.707
22631W        W94357  39.191  35.374   0.115
22632W        W94358  36.593   0.693   2.336
22633W        W94359  24.654  32.589  14.629
22634W        W94360   2.773  42.887   1.351
22635W        W94361  16.780  25.090   1.324
22636W        W94362  41.447  43.430   3.799
22637W        W94363  16.313   8.935   0.953
22638W        W94364   6.140  40.407   1.666
22639W        W94365  26.533   3.818   1.356
22640W        W94366  21.659   5.429  13.517
22641W        W94367  15.802   4.828   3.145
22642W        W94368  14.257  21.284   2.308
22643W        W94369   8.665  39.845  13.198
22644W        W94370  11.265  20.779  12.480
22645W        W94371  14.794   4.859  12.078
22646W        W94372  23.122   8.788   4.346
22647W        W94373  14.279  27.573  10.443
22648W        W94374  26.162   0.184  11.001
22649W        W94375   9.411   5.175  13.866
22650W        W94376   4.234  30.396  11.115
22651W        W94377  17.902   4.810   1.474
22652W        W94378  26.196   7.277  11.854
22653W        W94379  42.289  41.367  11.247
22654W        W94380  14.499  22.407   1.769
22655W        W94381  10.580  14.623   3.384
22656W        W94382  35.883  23.477  10.756
22657W        W94383  31.466  30.100   1.325
22658W        W94384  21.732  13.623  10.979
22659W        W94385   3.252  17.191   4.855
22660W        W94386  35.534  38.045   0.076
22661W        W94387  21.544  30.351  13.898
22662W        W94388  25.466   4.817  13.146
22663W        W94389  11.825  15.653  14.643
22664W        W94390  19.729  35.636  12.170
22665W        W94391  13.169   1.140   1.248
22666W        W94392   9.321  12.291   3.224
22667W        W94393   8.534   3.236   3.727
22668W        W94394   9.474  25.591   0.097
22669W        W94395  27.242  39.891  11.422
22670W        W94396  42.049  32.956  13.060
22671W        W94397  16.039  28.261  10.795
22672W        W94398  20.320  42.399   4.435
22673W        W94399  34.694   5.149  14.369
22674W        W94400   1.816  42.929   3.552
22675W        W94401   1.672  24.090   5.372
22676W        W94402   9.635  19.179   3.152
22677W        W94403  18.562  32.963   2.684
22678W        W94404   6.482   6.361   2.767
22679W        W94405  29.536  29.162  12.481
22680W        W94406  14.145  44.981  12.515
22681W        W94407  27.989  29.415  11.519
22682W        W94408  36.460  20.003  14.531
22683W        W94409  16.522  20.450  11.978
22684W        W94410   5.326  31.628   0.879
22685W        W94411  15.565  40.862  13.540
22686W        W94412  18.156  24.739   4.182
22687W        W94413  43.994  40.584   2.688
22688W        W94414   8.687   9.919  11.957
22689W        W94415   1.717  13.362   4.582
22690W        W94416  28.478   4.931  12.891
22691W        W94417   9.314  26.232  10.665
22692W        W94418  14.898   0.032   3.594
22693W        W94419  42.771  31.988  12.439
22694W        W94420   6.417  27.173  10.787
22695W        W94421  14.670  15.362  11.583
22696W        W94422  13.398  10.276   0.576
22697W        W94423  15.974  42.650  12.923
22698W        W94424  44.240  13.876   0.426
22699W        W94425  17.847  11.093  13.508
22700W        W94426  32.608  43.575  10.383
22701W        W94427  11.615  30.970   2.000
22702W        W94428   9.454  34.643  13.603
22703W        W94429  40.588   7.374   4.188
22704W        W94430  12.418  25.032   3.789
22705W        W94431  43.357   2.940  13.077
22706W        W94432  20.837   7.713   1.744
22707W        W94433  34.721  38.736  12.026
22708W        W94434   2.743  24.108   2.363
22709W        W94435  13.722  10.400  11.815
22710W        W94436  26.768  28.483  11.536
22711W        W94437  30.691  30.004  14.485
22712W        W94438  41.728  21.802  13.802
22713W        W94439  18.695  38.409  10.944
22714W        W94440  12.864  16.061   2.076
22715W        W94441  19.629   0.251   0.021
22716W        W94442  29.936  30.929   3.286
22717W        W94443  34.838  11.329   2.361
22718W        W94444  20.039   6.128  12.486
22719W        W94445   3.431  14.831   1.645
22720W        W94446  36.568  25.691  10.552
22721W        W94447  16.528   5.247   1.007
22722W        W94448  27.778  21.160   0.344
22723W        W94449  14.822  40.518  12.440
22724W        W94450   0.354  20.493  14.902
22725W        W94451   1.818   3.399   0.421
22726W        W94452   5.293  11.264   4.655
22727W        W94453  22.711   2.754  12.974
22728W        W94454   6.324  39.753  11.862
22729W        W94455   6.421   0.372   2.184
22730W        W94456   1.386  17.237  14.944
22731W        W94457  33.139  15.617   2.781
22732W        W94458  32.884   4.803  13.495
22733W        W94459   1.433  10.433  14.336
22734W        W94460   8.865  20.971   0.271
22735W        W94461  31.164  30.888  12.990
22736W        W94462  13.394   9.125   2.736
22737W        W94463   4.102  19.629   4.641
22738W        W94464  17.643  41.958  11.765
22739W        W94465  19.840   9.771  12.700
22740W        W94466  29.806  11.620  14.423
22741W        W94467  13.198  44.603   2.406
22742W        W94468   4.736   1.571  13.307
22743W        W94469  21.046  16.698   3.504
22744W        W94470   7.939   3.872  11.071
22745W        W94471   0.478   2.754   2.698
22746W        W94472  36.906  34.634   2.617
22747W        W94473  36.472  25.645   0.124
22748W        W94474   5.273  13.867   4.789
22749W        W94475  28.722  40.093   0.308
22750W        W94476  43.584  37.501  11.625
22751W        W94477  10.435   8.891  14.152
22752W        W94478  16.748   9.206  11.034
22753W        W94479  42.794  40.709  13.256
22754W        W94480  12.369   0.635  13.485
22755W        W94481  12.683  38.528   0.568
22756W        W94482   3.233   9.056   2.563
22757W        W94483  30.831   7.870   1.138
22758W        W94484  26.457  15.075  12.905
22759W        W94485  22.109  10.139  11.249
22760W        W94486  22.738  27.040  10.743
22761W        W94487  37.553   1.995  13.212
22762W        W94488  26.253  42.494   2.756
22763W        W94489  27.380  30.598  14.392
22764W        W94490   7.436  23.105   0.968
22765W        W94491  40.742  14.632  12.515
22766W        W94492   0.187  18.304   1.338
22767W        W94493   9.300   1.906   1.494
22768W        W94494  40.966  34.619  13.947
22769W        W94495  25.632  42.889   2.027
22770W        W94496  22.710  37.889   3.431
22771W        W94497  18.193   1.001   4.455
22772W        W94498  41.051  41.151   1.765
22773W        W94499  28.444  22.602  12.951
22774W        W94500   9.246  37.381  11.007
22775W        W94501  23.513   5.247   4.094
22776W        W94502  14.704  29.559  13.531
22777W        W94503  41.558   3.726  13.635
22778W        W94504  37.083  34.129  10.750
22779W        W94505  34.910  39.681  10.339
22780W        W94506  21.777  24.167  13.848
22781W        W94507  41.768  42.103  12.387
22782W        W94508   5.896  38.919   4.280
22783W        W94509   2.384  24.884  12.031
22784W        W94510   0.017  26.166  13.572
22785W        W94511   2.430  43.913   4.585
22786W        W94512  23.005  37.488   1.169
22787W        W94513  22.346  41.981  11.981
22788W        W94514  44.770  18.122   4.878
22789W        W94515   9.900  20.536   3.331
22790W        W94516   3.815   7.377   0.998
22791W        W94517  25.258  34.840  10.810
22792W        W94518  17.406  28.225   4.590
22793W        W94519  25.874  42.961   4.265
22794W        W94520  32.106  25.963   0.260
22795W        W94521  22.992  17.304  11.457
22796W        W94522   5.214  17.067  12.032
22797W        W94523  12.884   5.835   2.952
22798W        W94524   8.415  13.659   1.258
22799W        W94525  13.000  42.547   2.631
22800W        W94526  11.816  21.073   3.812
22801W        W94527   9.323  18.797   2.482
22802W        W94528  18.110   9.763  13.902
22803W        W94529  29.450  33.477  11.940
22804W        W94530  24.250  11.281   4.004
22805W        W94531  13.096  38.411  12.495
22806W        W94532  25.184  34.389   4.053
22807W        W94533  25.672  14.892  11.597
22808W        W94534  34.481  16.791  10.720
22809W        W94535  26.467  39.083  12.553
22810W        W94536   9.881   5.210  12.031
22811W        W94537  41.920  17.770   4.702
22812W        W94538  44.870  11.731  12.262
22813W        W94539   2.294  33.336   4.046
22814W        W94540   9.428  24.509  11.943
22815W        W94541   6.194  31.075   0.948
22816W        W94542  13.419  37.670   1.774
22817W        W94543   2.782  14.073  13.900
22818W        W94544   6.769  16.313  13.475
22819W        W94545   4.945   5.323  11.507
22820W        W94546  30.847  16.556   2.351
22821W        W94547  34.178   7.398   5.175
22822W        W94548  27.537  27.584   4.351
22823W        W94549  27.678   6.946   2.343
22824W        W94550   2.954  42.724   3.279
22825W        W94551  18.313  42.781  12.341
22826W        W94552  11.360  24.111   4.264
22827W        W94553   3.766  30.689  14.591
22828W        W94554  10.725   3.560  14.826
22829W        W94555  27.812  12.757   2.801
22830W        W94556   0.168  27.423  12.990
22831W        W94557  31.589  28.587   0.777
22832W        W94558  11.798  22.543  11.218
22833W        W94559   2.169  35.051   4.509
22834W        W94560  23.278  41.374  14.084
22835W        W94561  37.335  11.287   1.708
22836W        W94562  31.654   7.981   0.736
22837W        W94563   1.842  29.955  11.420
22838W        W94564   0.229   4.985   0.676
22839W        W94565   8.372  41.503  12.790
22840W        W94566   1.969   0.642  14.404
22841W        W94567  16.594  12.686   1.930
22842W        W94568  32.554  31.458  10.592
22843W        W94569  35.542  19.074   3.349
22844W        W94570  38.681  22.169   4.819
22845W        W94571  16.598  32.883   0.386
22846W        W94572   5.385  41.277  11.441
22847W        W94573   6.932  24.081  13.969
22848W        W94574  35.383   2.984   3.354
22849W        W94575  41.837  24.899   4.956
22850W        W94576  35.137  22.554   5.018
22851W        W94577  28.221  33.434   3.053
22852W        W94578  31.906  44.239  10.654
22853W        W94579  23.871  35.365   3.840
22854W        W94580   5.923  18.503  13.501
22855W        W94581  43.035  39.357  10.842
22856W        W94582   7.246   1.954   2.651
22857W        W94583   7.023  40.360  12.857
22858W        W94584  19.579  40.322   1.324
22859W        W94585  22.779   3.917  13.620
22860W        W94586  28.909  22.021  14.226
22861W        W94587  23.774  38.426  13.094
22862W        W94588  29.621  39.974  11.157
22863W        W94589  34.988  29.878   4.895
22864W        W94590   8.911  37.923  13.882
22865W        W94591   6.469  35.358  14.341
22866W        W94592  43.600  15.545   4.888
22867W        W94593   7.250  17.597  13.395
22868W        W94594   7.622  31.484   1.273
22869W        W94595   0.426  23.854   2.741
22870W        W94596   1.266   4.775   4.767
22871W        W94597  39.686  13.779  12.800
22872W        W94598   0.448   0.014   0.634
22873W        W94599  17.758   6.685  14.957
22874W        W94600   5.873   4.974  14.855
22875W        W94601   5.723  34.128  10.766
22876W        W94602  31.282  26.048   2.577
22877W        W94603  34.934  33.300   0.454
22878W        W94604  32.342   0.313  12.165
22879W        W94605  10.240  27.424  12.476
22880W        W94606  26.884  13.511   1.770
22881W        W94607  12.813  34.088  14.293
22882W        W94608  29.724   2.960  11.930
22883W        W94609  18.311  37.361  11.510
22884W        W94610   1.096  30.425  11.472
22885W        W94611  15.057  40.001  14.947
22886W        W94612  17.377  43.398  14.770
22887W        W94613  44.898  31.048  10.991
22888W        W94614  10.647  27.020  10.898
22889W        W94615  19.761  27.245   1.239
22890W        W94616  30.112   6.220  11.994
22891W        W94617  16.643   3.762   2.594
22892W        W94618  15.403  30.131   1.154
22893W        W94619   6.635  32.492   0.995
22894W        W94620  31.028   8.352   0.270
22895W        W94621  11.065  36.432   4.549
22896W        W94622  11.050  14.141   4.100
22897W        W94623   6.388  10.257  14.431
22898W        W94624  27.668  13.349   3.306
22899W        W94625   4.956  16.082  12.437
22900W        W94626   8.262  44.282  14.906
22901W        W94627   0.934   3.132  10.789
22902W        W94628  21.820  11.211   2.870
22903W        W94629  24.822  29.748  13.542
22904W        W94630   3.397  23.581  12.750
22905W        W94631  16.097  26.765   3.836
22906W        W94632  27.025  20.613  14.885
22907W        W94633  17.019  33.047  13.923
22908W        W94634   2.539  34.580   1.375
22909W        W94635  31.473   4.084   3.602
22910W        W94636   6.624  11.299   1.371
22911W        W94637  23.839  26.511   9.758
22912W        W94638  23.189  12.534  11.481
22913W        W94639  12.158  40.819  10.603
22914W        W94640   7.186  37.989  13.934
22915W        W94641   9.702  36.813   4.701
22916W        W94642  40.308   7.266  14.307
22917W        W94643   4.253  42.838   1.672
22918W        W94644  29.792  42.332  14.324
22919W        W94645  21.794  38.975  10.588
22920W        W94646  42.285  19.108  13.501
22921W        W94647  29.034  43.976   2.376
22922W        W94648   0.456  39.034  11.915
22923W        W94649  20.082  23.378  14.787
22924W        W94650   4.855  11.100  11.935
22925W        W94651   7.031  15.467   2.844
22926W        W94652  12.168  10.241  12.973
22927W        W94653  44.969  32.118  10.176
22928W        W94654  31.395   8.539  10.432
22929W        W94655  16.902   8.555  12.646
22930W        W94656  36.853  38.513   0.025
22931W        W94657   8.870  32.728   0.466
22932W        W94658  26.540   3.844  10.688
22933W        W94659  24.084  11.960   2.805
22934W        W94660  22.689  27.142   2.326
22935W        W94661  34.564  32.069   0.503
22936W        W94662  26.275   3.259  10.742
22937W        W94663  12.671  42.468  14.710
22938W        W94664  22.007   8.451  13.114
22939W        W94665  42.478  26.637   1.782
22940W        W94666  42.014   6.475   0.190
22941W        W94667  21.267  42.274   4.251
22942W        W94668  38.036  15.187   4.510
22943W        W94669  44.075  37.291  13.048
22944W        W94670  31.034  34.456  10.712
22945W        W94671   4.457  21.789   3.871
22946W        W94672   5.710  39.218   2.246
22947W        W94673  22.342  22.129   1.365
22948W        W94674  12.185  35.102  13.378
22949W        W94675  15.334  24.001   4.503
22950W        W94676  19.067  11.810  11.628
22951W        W94677   8.562  34.886   0.083
22952W        W94678  43.842  23.536  10.683
22953W        W94679  19.648   7.989   4.076
22954W        W94680  17.385  23.397  11.937
22955W        W94681  32.868  33.597  13.158
22956W        W94682  10.567  27.456  12.082
22957W        W94683  44.355  26.942   1.893
22958W        W94684   0.645  29.032  14.887
22959W        W94685  42.847  28.699  13.786
22960W        W94686  29.960   7.344   4.583
22961W        W94687   2.897  36.481   3.237
22962W        W94688  13.300  25.980   2.625
22963W        W94689  43.290  11.901   4.645
22964W        W94690  15.798   7.910   1.666
22965W        W94691   4.710  41.724   4.182
22966W        W94692  26.170  22.315  11.591
22967W        W94693  19.697   3.668  14.869
22968W        W94694  12.020  15.540   5.021
22969W        W94695   5.176  13.592  11.037
22970W        W94696  18.573  29.746   0.377
22971W        W94697  12.021   4.726  12.054
22972W        W94698   2.518   6.075   3.762
22973W        W94699  35.792  44.282  12.496
22974W        W94700  14.879  14.471  11.573
22975W        W94701   3.963  26.491   3.703
22976W        W94702  24.596  44.440  10.232
22977W        W94703  17.369  26.989  11.993
22978W        W94704  11.407   2.237  10.745
22979W        W94705  42.903  31.527  13.517
22980W        W94706  14.778   9.855  11.662
22981W        W94707  29.182  18.519  13.181
22982W        W94708  41.721   8.776   4.767
22983W        W94709  43.032  23.605   3.582
22984W        W94710   4.377  35.327  11.020
22985W        W94711  16.781  41.055   3.524
22986W        W94712  14.876  30.929  14.042
22987W        W94713  31.613  11.118  13.405
22988W        W94714   1.905  12.017  14.251
22989W        W94715  28.055  17.689  13.415
22990W        W94716  23.519  36.375  13.616
22991W        W94717  33.629  21.525  11.063
22992W        W94718  29.058  20.793   2.880
22993W        W94719  41.570  25.009   3.096
22994W        W94720   5.732  11.063  14.359
22995W        W94721   9.788  39.468   3.870
22996W        W94722   9.625  31.570   4.623
22997W        W94723   8.091  43.692   3.496
22998W        W94724   2.992   2.008   1.437
22999W        W94725  32.777  29.082  11.683
23000W        W94726  40.807  23.947  11.035
23001W        W94727  20.493  21.674   3.223
23002W        W94728  29.613  22.981  14.846
23003W        W94729  18.315  28.480  11.738
23004W        W94730  20.529  14.797   4.529
23005W        W94731  43.384  40.211  11.163
23006W        W94732  32.085  12.436   0.867
23007W        W94733  44.328  22.223  11.227
23008W        W94734  27.170  43.929   5.027
23009W        W94735  11.140   5.377   4.660
23010W        W94736  25.680  14.284  10.980
23011W        W94737  19.535   4.786   0.313
23012W        W94738  14.679  19.722   3.212
23013W        W94739   7.970  11.691   1.259
23014W        W94740  14.342  32.510   3.912
23015W        W94741  10.464   1.428   4.029
23016W        W94742  11.195  44.869   1.795
23017W        W94743  26.292  33.113  10.751
23018W        W94744  11.184  41.091   3.149
23019W        W94745   0.874   8.851   4.114
23020W        W94746  27.357   9.853   1.856
23021W        W94747  41.428   4.876  12.194
23022W        W94748   1.259   9.890  12.533
23023W        W94749  42.788   0.015  12.938
23024W        W94750  35.274  37.379   3.615
23025W        W94751   4.716  11.414   1.689
23026W        W94752  33.171  29.217   4.011
23027W        W94753  17.329  20.585   0.253
23028W        W94754  31.476  41.389  10.799
23029W        W94755  14.486  35.871  11.754
23030W        W94756  29.345  38.504  14.316
23031W        W94757  23.248  22.143  12.571
23032W        W94758  43.066  37.476  12.878
23033W        W94759   4.877  24.863   2.328
23034W        W94760  12.578  37.400  12.368
23035W        W94761   3.498  38.355   1.735
23036W        W94762  29.706  31.920   3.269
23037W        W94763  31.551   1.748   4.568
23038W        W94764  19.867  17.037  12.019
23039W        W94765   6.653  29.787   2.799
23040W        W94766  26.430  24.697   3.177
23041W        W94767   1.987  27.301   1.478
23042W        W94768  32.477  25.630   1.504
23043W        W94769  13.466  12.297   2.165
23044W        W94770  10.597   9.933   0.016
23045W        W94771  16.613  11.745  10.732
23046W        W94772  13.619  38.857  14.582
23047W        W94773  22.530  37.722   0.325
23048W        W94774  19.624  36.575   0.099
23049W        W94775  24.242  17.669   1.737
23050W        W94776  12.168   8.354   2.431
23051W        W94777  38.336  14.165   1.446
23052W        W94778   6.981  22.136   0.480
23053W        W94779  22.490   9.191  12.624
23054W        W94780  39.024  35.938   3.440
23055W        W94781  10.712  41.773   4.653
23056W        W94782  42.730  27.007   0.417
23057W        W94783  38.792  21.401   1.436
23058W        W94784   1.465  18.062   1.983
23059W        W94785  22.710   4.612   1.410
23060W        W94786  42.361  34.796  11.738
23061W        W94787  19.147   1.046   2.267
23062W        W94788  20.626   0.208   2.374
23063W        W94789   6.125  39.470   4.135
23064W        W94790  25.457   9.782  13.563
23065W        W94791   5.763  16.673  13.516
23066W        W94792  13.614   7.393  12.095
23067W        W94793  44.726  41.543  11.547
23068W        W94794   0.493  23.648   3.804
23069W        W94795   5.260  44.569  10.675
23070W        W94796  37.457  30.496  12.331
23071W        W94797  13.268  37.402   0.804
23072W        W94798  24.131   2.139   0.274
23073W        W94799  32.459  22.985  13.440
23074W        W94800  21.724   3.467  10.545
23075W        W94801  37.018  39.307   1.007
23076W        W94802  11.266  19.240   4.716
23077W        W94803  13.099  11.302   3.632
23078W        W94804  18.089   4.712   1.951
23079W        W94805  15.672   2.802  14.042
23080W        W94806  10.779  42.819  12.308
23081W        W94807   4.191  29.043  11.574
23082W        W94808  44.340  44.884  11.608
23083W        W94809  39.053   6.682   2.263
23084W        W94810  40.772  16.622   2.684
23085W        W94811  39.319   1.438   0.227
23086W        W94812  40.420   8.844  13.517
23087W        W94813   5.713   7.787  14.940
23088W        W94814  42.682  35.887  10.788
23089W        W94815  42.069  17.233  12.221
23090W        W94816  21.125  43.457  14.961
23091W        W94817   6.801  15.498  11.158
23092W        W94818  18.445  37.567   0.032
23093W        W94819  37.484  40.264  11.565
23094W        W94820  15.457  27.154  12.235
23095W        W94821   2.414  17.197  12.180
23096W        W94822  27.364  21.746  11.235
23097W        W94823  28.117  38.514  12.471
23098W        W94824  33.515  21.758  12.468
23099W        W94825  20.041  25.289   2.665
23100W        W94826  36.916  35.902  13.545
23101W        W94827  12.256  41.560  12.574
23102W        W94828  40.881  26.104  11.897
23103W        W94829  24.082  39.881   1.906
23104W        W94830  11.389  11.220  14.264
23105W        W94831  44.922  38.085   4.206
23106W        W94832  14.217  28.275   3.744
23107W        W94833  19.621  29.626  13.602
23108W        W94834  41.275  39.764   0.920
23109W        W94835   3.470   2.258   4.527
23110W        W94836  37.275  42.426  13.662
23111W        W94837  30.084   1.179   3.402
23112W        W94838   7.221  41.633   1.757
23113W        W94839   6.889  28.694  12.984
23114W        W94840  30.176   5.792   1.364
23115W        W94841  19.141  41.308   2.177
23116W        W94842  40.349  24.116   3.640
23117W        W94843  17.520  12.000   0.858
23118W        W94844  32.904   3.677   2.175
23119W        W94845  22.312   5.591  11.083
23120W        W94846  16.049  28.546  13.339
23121W        W94847  26.794  40.594  13.020
23122W        W94848   6.146  13.717   5.526
23123W        W94849  38.006  24.498   3.742
23124W        W94850  13.284  20.563  13.879
23125W        W94851  30.042  19.579  13.846
23126W        W94852  22.936  33.489  10.664
23127W        W94853  11.841  36.506   0.331
23128W        W94854   2.362  15.309   2.836
23129W        W94855  23.237   1.511   1.857
23130W        W94856  36.622  26.166   0.222
23131W        W94857  40.225  24.479  11.080
23132W        W94858  43.742  36.939  12.870
23133W        W94859  35.124  14.219  13.788
23134W        W94860   3.989  41.841   1.925
23135W        W94861  19.570  34.670  11.066
23136W        W94862  36.599  42.215  14.829
23137W        W94863   4.235  18.624  14.141
23138W        W94864  17.755  39.640   4.082
23139W        W94865   0.245  38.481   1.311
23140W        W94866  16.873  26.580  13.236
23141W        W94867   4.433  27.580  12.456
23142W        W94868   7.129  24.589  11.059
23143W        W94869  20.731  25.217  12.394
23144W        W94870   0.942  33.194   2.748
23145W        W94871  23.025  25.091   4.239
23146W        W94872  16.815  26.165  12.000
23147W        W94873  40.372  37.455  13.671
23148W        W94874   6.095   1.272  11.174
23149W        W94875   0.435   8.205   4.431
23150W        W94876  30.457  11.704  12.387
23151W        W94877   5.938  22.215  14.808
23152W        W94878   6.168  42.881   2.616
23153W        W94879  27.935  44.339   3.460
23154W        W94880   2.886   1.352  13.376
23155W        W94881  17.049  20.798   2.744
23156W        W94882  11.236   4.732  14.101
23157W        W94883  39.723   0.138  12.894
23158W        W94884   7.822  18.600  11.535
23159W        W94885  34.129  35.290  10.886
23160W        W94886  42.447   1.947   4.534
23161W        W94887  24.356   2.226  14.353
23162W        W94888  20.217  30.894  13.046
23163W        W94889  43.916   5.963   3.657
23164W        W94890  19.515  19.738  11.166
23165W        W94891  13.320  33.014   1.778
23166W        W94892  40.527  11.325  12.926
23167W        W94893   7.375  41.074  11.108
23168W        W94894  17.992   9.750   1.047
23169W        W94895  33.012  17.294  14.841
23170W        W94896  11.541  40.591   3.770
23171W        W94897  17.040  37.534  14.974
23172W        W94898  10.310  11.922  13.866
23173W        W94899  37.409   1.399   4.747
23174W        W94900  16.076  28.990   0.299
23175W        W94901  11.540  11.742  14.027
23176W        W94902  11.839  16.776   3.358
23177W        W94903  27.636  32.900   0.191
23178W        W94904  37.639  25.066  13.939
23179W        W94905  21.296  34.041  13.331
23180W        W94906  20.685  20.783   2.850
23181W        W94907  22.667  23.556  10.950
23182W        W94908  19.722  41.922  10.635
23183W        W94909  34.119  36.046   1.848
23184W        W94910   0.240  19.664   0.578
23185W        W94911   7.886  14.698   1.700
23186W        W94912  17.346  21.347  11.696
23187W        W94913  22.144  21.174  10.902
23188W        W94914  34.976  38.619   3.593
23189W        W94915  32.225  19.748   0.359
23190W        W94916  38.930  35.298  11.658
23191W        W94917   2.820   9.138   1.916
23192W        W94918  42.511  42.997   1.877
23193W        W94919  20.845  10.517   0.813
23194W        W94920  18.337  21.970  11.147
23195W        W94921  14.078  38.396  11.585
23196W        W94922  39.153   7.179   2.184
23197W        W94923  23.054  35.130   1.378
23198W        W94924  39.414  38.290  13.859
23199W        W94925  36.059  44.756  12.430
23200W        W94926  12.513  42.005   2.612
23201W        W94927  14.679  42.877   2.166
23202W        W94928  43.337  37.833   4.306
23203W        W94929  25.286   2.091   1.872
23204W        W94930   6.921  24.526  13.430
23205W        W94931   3.685  20.473  12.572
23206W        W94932  12.177  44.977  14.009
23207W        W94933  29.717   7.350   0.802
23208W        W94934  18.407  16.183   3.665
23209W        W94935  39.839  27.139   0.519
23210W        W94936  14.846   4.871   3.064
23211W        W94937  26.602  17.219  11.922
23212W        W94938  20.206  14.425   2.480
23213W        W94939  34.038  39.557  14.433
23214W        W94940  31.671  23.200   2.089
23215W        W94941  41.059  29.361  13.333
23216W        W94942  30.419  35.610   2.293
23217W        W94943   3.840   6.993  14.291
23218W        W94944  29.666   6.679  11.233
23219W        W94945  29.489  21.066  14.793
23220W        W94946   5.836   2.268   1.770
23221W        W94947   3.904   0.228   3.358
23222W        W94948  39.417   7.979  13.468
23223W        W94949  19.232  22.035  13.400
23224W        W94950  36.344   9.948  12.488
23225W        W94951  41.951  37.555   3.654
23226W        W94952  26.917  37.444  14.605
23227W        W94953  12.577  38.093   1.523
23228W        W94954  33.594  14.587   0.679
23229W        W94955  42.373  31.566   1.966
23230W        W94956  10.380  24.013   3.312
23231W        W94957  23.500  41.559   4.104
23232W        W94958   4.405  32.784  12.029
23233W        W94959  28.258  39.258   3.321
23234W        W94960  12.690  18.556  11.507
23235W        W94961  31.372  18.794  10.599
23236W        W94962  17.741  37.972   1.403
23237W        W94963  26.411  21.623  13.026
23238W        W94964  32.672  37.463   3.693
23239W        W94965  29.977  28.110  10.563
23240W        W94966  13.593  19.212  13.151
23241W        W94967  28.190  23.820  12.985
23242W        W94968  44.517  23.835  11.004
23243W        W94969  27.931  41.336  10.667
23244W        W94970  15.611  37.140   2.018
23245W        W94971  14.781  15.347  14.159
23246W        W94972  26.488  18.307  14.036
23247W        W94973  29.620  24.409   2.421
23248W        W94974   4.018  24.458   1.226
23249W        W94975  20.634   4.435   1.494
23250W        W94976  30.826  33.544   1.898
23251W        W94977  10.130   5.379  11.604
23252W        W94978   4.053  34.169   1.344
23253W        W94979  17.241   1.305  11.118
23254W        W94980  41.316  31.653  13.571
23255W        W94981  23.673  18.994   2.361
23256W        W94982   2.067  42.420  14.995
23257W        W94983  35.911   9.621   0.726
23258W        W94984  22.695  36.123  12.054
23259W        W94985   2.871   7.831  10.676
23260W        W94986  36.788  31.967   3.556
23261W        W94987   5.890  12.036   1.416
23262W        W94988  23.974   6.162  11.242
23263W        W94989  11.205   6.784  12.884
23264W        W94990   5.394   7.445   3.888
23265W        W94991  30.117  18.430  12.217
23266W        W94992  40.001  40.297   4.072
23267W        W94993   2.777  11.720  12.979
23268W        W94994  38.477  27.727  10.609
23269W        W94995  30.391  40.000   3.140
23270W        W94996  29.064   9.872   4.715
23271W        W94997  28.059  18.714  13.022
23272W        W94998  25.514  36.087  13.322
23273W        W94999  27.310  32.384  11.225
23274W        W95000   8.330  14.594   1.348
23275W        W95001   4.769  10.337   4.581
23276W        W95002   7.929  24.658   0.259
23277W        W95003  19.803  30.667  14.826
23278W        W95004  21.759  27.394  10.523
23279W        W95005   5.569  27.984   0.324
23280W        W95006  27.392  31.391   0.499
23281W        W95007  23.156  30.091   2.754
23282W        W95008  20.197  18.404  14.565
23283W        W95009   9.084  44.463   1.406
23284W        W95010   0.082  22.272   1.795
23285W        W95011  44.148  42.239   2.214
23286W        W95012  13.873  40.348   1.089
23287W        W95013   3.818  14.747  10.027
23288W        W95014  39.413  30.466   4.669
23289W        W95015   2.721  36.468   3.755
23290W        W95016   4.882  35.394  11.895
23291W        W95017   5.821   1.824  11.960
23292W        W95018  44.125   9.242  13.423
23293W        W95019  33.175   1.807  13.853
23294W        W95020  17.344  31.206  13.001
23295W        W95021  15.193  21.457   3.855
23296W        W95022   5.589  26.768   2.582
23297W        W95023  23.257  41.995  12.979
23298W        W95024   8.456  22.292  14.911
23299W        W95025  33.507  18.257   3.214
23300W        W95026  38.019  43.276  12.916
23301W        W95027  35.678   3.264   3.043
23302W        W95028  34.633   5.601   3.693
23303W        W95029   4.827  33.108   1.781
23304W        W95030   0.876  37.267  12.559
23305W        W95031  42.354  43.766  14.240
23306W        W95032  42.186  41.783   4.018
23307W        W95033  40.862  11.831  11.693
23308W        W95034   1.725  15.261   3.209
23309W        W95035  14.094  36.892  14.269
23310W        W95036  19.147  10.464   1.292
23311W        W95037  13.247  10.846  13.731
23312W        W95038   2.006  34.504   1.257
23313W        W95039  12.658  17.316   1.275
23314W        W95040   8.214  31.352   2.859
23315W        W95041   2.252  30.359   0.458
23316W        W95042  29.008  23.526   3.031
23317W        W95043  23.109   2.682   3.221
23318W        W95044  40.414   8.667   0.551
23319W        W95045  44.254  31.453   0.855
23320W        W95046  28.833  33.990   4.479
23321W        W95047   1.332  15.757  14.725
23322W        W95048  17.302  27.387   2.431
23323W        W95049  27.604  39.649  13.760
23324W        W95050  10.652  31.556   3.678
23325W        W95051   3.569   4.289  10.624
23326W        W95052  32.373  37.063   3.830
23327W        W95053   3.809  40.996  12.518
23328W        W95054  12.228  16.431  11.218
23329W        W95055   8.219  12.582  10.959
23330W        W95056  36.819  11.393  14.229
23331W        W95057   8.219   5.296   9.759
23332W        W95058   8.755  12.720   4.508
23333W        W95059  30.045   4.183   0.372
23334W        W95060  29.440  39.841   0.020
23335W        W95061  28.968  12.292  11.646
23336W        W95062  31.410   8.840  13.435
23337W        W95063  26.051  29.188  13.464
23338W        W95064   2.874  31.007   4.844
23339W        W95065  10.704  44.590  12.244
23340W        W95066  40.789  34.990   2.704
23341W        W95067   2.344  15.500  13.355
23342W        W95068  37.452   1.533  12.917
23343W        W95069  21.775  36.878   4.328
23344W        W95070  44.556  25.980  13.859
23345W        W95071  44.974  32.324  12.460
23346W        W95072  18.282  37.365   2.662
23347W        W95073  22.221   2.220  14.345
23348W        W95074  18.677   0.687  14.981
23349W        W95075   1.699  10.403   0.962
23350W        W95076  39.042  16.757  14.843
23351W        W95077  34.967  31.362   4.829
23352W        W95078  44.984  39.511  14.007
23353W        W95079  16.820  21.687   1.295
23354W        W95080  12.217  36.192  10.988
23355W        W95081   1.197  37.842   2.368
23356W        W95082  22.350  26.358  12.870
23357W        W95083   1.419  10.723   1.315
23358W        W95084   8.665  25.998   1.091
23359W        W95085   3.240  11.942   3.195
23360W        W95086   0.399  34.775  11.219
23361W        W95087  20.764   7.367  10.789
23362W        W95088  43.201   8.880  12.383
23363W        W95089  16.344  16.000  11.111
23364W        W95090  39.630  41.022   0.270
23365W        W95091  28.758  40.871  13.911
23366W        W95092  22.818   5.655  11.097
23367W        W95093  13.552  24.448   2.661
23368W        W95094  10.663  13.331   5.034
23369W        W95095  44.268  11.013  14.957
23370W        W95096  20.823  39.355   4.637
23371W        W95097  44.440  38.939   3.459
23372W        W95098  40.043   1.491   1.860
23373W        W95099  28.173  35.632  11.975
23374W        W95100  18.175  20.596   2.799
23375W        W95101  38.064  19.344   4.286
23376W        W95102  24.713  36.607   1.498
23377W        W95103   4.805  13.518   0.960
23378W        W95104  41.770  20.554  13.506
23379W        W95105  34.622  43.279   1.901
23380W        W95106  41.573  23.775   2.823
23381W        W95107  29.515  15.165  10.655
23382W        W95108  17.228  38.529  11.137
23383W        W95109  29.981   6.822  11.614
23384W        W95110  30.061  33.863  14.080
23385W        W95111   6.442  36.877   0.077
23386W        W95112  28.552  23.217  14.508
23387W        W95113  20.644   5.797   4.561
23388W        W95114  10.460  23.744  12.200
23389W        W95115   8.399  27.132  11.468
23390W        W95116  13.734   2.391  14.713
23391W        W95117  44.221  42.976   2.700
23392W        W95118  19.582  40.608  12.878
23393W        W95119   9.646  37.019  10.991
23394W        W95120  43.246  15.228   4.088
23395W        W95121  33.366  21.185  13.513
23396W        W95122  25.621  37.219   2.853
23397W        W95123  32.949  20.676  13.042
23398W        W95124  24.619   9.570   0.250
23399W        W95125  19.688  41.058  10.658
23400W        W95126   6.287  40.477   2.677
23401W        W95127   7.689  10.082  11.172
23402W        W95128  39.571  11.834  14.477
23403W        W95129  19.244  37.820   3.106
23404W        W95130   6.309  27.480  13.049
23405W        W95131  19.201   6.563  10.726
23406W        W95132   2.578  21.532   1.400
23407W        W95133   3.702  38.286   0.389
23408W        W95134  36.892  35.397   0.319
23409W        W95135  18.098  33.567  13.350
23410W        W95136  10.181  31.894   4.234
23411W        W95137  23.883  39.069  11.870
23412W        W95138   0.722  33.190   3.231
23413W        W95139  40.909  39.553   4.679
23414W        W95140  41.232  37.434  13.981
23415W        W95141  32.065  33.405  10.483
23416W        W95142  42.166  13.396   4.699
23417W        W95143  18.587  27.463  12.501
23418W        W95144  11.592  28.904  13.418
23419W        W95145   4.807   8.251  11.871
23420W        W95146  27.853  20.082  11.564
23421W        W95147  30.654  11.630   0.956
23422W        W95148  40.816  25.260  12.988
23423W        W95149   3.881  35.476   4.542
23424W        W95150  11.095   6.679  14.021
23425W        W95151   6.330  38.447   2.653
23426W        W95152   9.363  17.030  11.985
23427W        W95153  15.373  43.259   0.750
23428W        W95154   1.207  25.697   2.291
23429W        W95155  42.363  43.766  14.768
23430W        W95156   0.370  36.833  14.781
23431W        W95157  34.646   5.031   1.316
23432W        W95158  38.528  39.397   1.955
23433W        W95159  24.664   7.298   0.136
23434W        W95160  25.223   8.706  10.712
23435W        W95161  18.117  20.705  11.669
23436W        W95162  27.726  30.474  11.162
23437W        W95163  42.681  15.217   4.624
23438W        W95164  39.953  24.251  14.304
23439W        W95165  10.869  21.481   2.807
23440W        W95166  17.178   5.886  12.487
23441W        W95167   0.700  39.996   0.442
23442W        W95168  19.482  14.160  14.011
23443W        W95169   3.735  22.857  14.917
23444W        W95170  36.075  42.729  12.417
23445W        W95171   6.677   6.784  13.261
23446W        W95172   2.026   7.207  14.399
23447W        W95173  20.330  42.082  13.840
23448W        W95174  34.448   9.638  10.683
23449W        W95175  22.563  19.271   1.849
23450W        W95176  18.765  27.458   4.545
23451W        W95177   9.317   1.933   3.789
23452W        W95178   8.950  34.555  13.776
23453W        W95179  33.475   9.732   1.256
23454W        W95180  35.974  39.884   4.339
23455W        W95181  23.645  26.107   1.725
23456W        W95182  27.497  25.001   2.683
23457W        W95183  22.189  12.314   3.160
23458W        W95184  26.104  29.674   2.895
23459W        W95185  39.087  39.503  13.424
23460W        W95186  42.390  37.844   3.801
23461W        W95187  20.746  24.206  14.086
23462W        W95188  26.911  21.785  12.970
23463W        W95189  19.714   8.177  12.714
23464W        W95190  43.279  15.478  12.930
23465W        W95191  14.816  24.190  14.911
23466W        W95192  43.305  24.533   2.190
23467W        W95193  17.863  30.578  11.480
23468W        W95194  27.584  21.742   0.992
23469W        W95195  26.893  14.574   3.228
23470W        W95196  32.126   5.324  13.365
23471W        W95197  24.074  13.009   2.372
23472W        W95198  38.607  28.721  10.779
23473W        W95199  26.053  16.496  14.018
23474W        W95200   4.898  25.697   3.400
23475W        W95201  11.414  37.086   2.306
23476W        W95202   4.311  26.053  13.439
23477W        W95203   2.857   9.140   4.640
23478W        W95204  43.322  36.424   4.149
23479W        W95205   9.500   0.908  14.014
23480W        W95206  36.380  34.400  14.447
23481W        W95207  23.872  36.121  13.881
23482W        W95208  23.370  37.544  11.293
23483W        W95209  19.336  29.427   5.077
23484W        W95210  44.951  26.187   0.419
23485W        W95211   6.305  24.757  11.259
23486W        W95212  28.959  17.296   1.728
23487W        W95213  18.389   6.941   1.751
23488W        W95214  26.113  15.969  14.026
23489W        W95215  35.971   0.447  12.896
23490W        W95216   7.197  19.564   2.574
23491W        W95217  11.757  44.792  13.789
23492W        W95218  39.232  39.399   3.379
23493W        W95219   7.425  33.032  10.340
23494W        W95220  17.006   8.202  14.007
23495W        W95221   1.835   0.317  11.507
23496W        W95222  13.276   5.878   0.845
23497W        W95223  27.067  38.098   3.105
23498W        W95224  37.839  13.237   0.917
23499W        W95225  44.948  14.798  13.115
23500W        W95226  11.392  19.565   0.777
23501W        W95227  41.456  39.537   0.311
23502W        W95228   7.604  36.012   3.175
23503W        W95229  13.872  16.046   4.631
23504W        W95230  26.917  20.027   1.823
23505W        W95231   5.297  28.303  12.943
23506W        W95232  41.255   4.755  10.671
23507W        W95233  33.956   5.202  10.069
23508W        W95234  42.933   6.901   4.114
23509W        W95235  43.205  37.856   1.814
23510W        W95236  43.980  22.622  14.789
23511W        W95237  11.482  10.662   3.869
23512W        W95238  10.115  16.408   0.610
23513W        W95239  23.877  42.650   3.607
23514W        W95240   4.982  27.137  10.431
23515W        W95241  44.849   0.187  14.596
23516W        W95242  27.698  13.125  12.888
23517W        W95243  40.038  14.779   4.554
23518W        W95244  28.180  38.495   2.038
23519W        W95245   4.222   5.327  10.446
23520W        W95246   8.647  20.954  10.683
23521W        W95247   4.918  17.545   3.300
23522W        W95248  36.689  12.302  12.306
23523W        W95249  34.519  14.328   3.028
23524W        W95250  19.816  30.502  13.463
23525W        W95251  40.782  29.420  12.907
23526W        W95252  18.643  15.235   1.844
23527W        W95253  12.343  27.054   1.820
23528W        W95254   7.438  14.096   1.318
23529W        W95255  11.349   7.941   2.347
23530W        W95256  10.521  34.796  10.248
23531W        W95257   8.720   7.829   0.898
23532W        W95258  14.360  20.580   1.458
23533W        W95259  14.750  42.959   5.023
23534W        W95260  38.428  40.925  14.963
23535W        W95261  44.948  16.636  12.054
23536W        W95262  13.728  27.236   4.205
23537W        W95263  26.643  26.957   1.779
23538W        W95264  27.594   1.996  14.922
23539W        W95265  16.320  37.285  11.574
23540W        W95266  30.442  14.427   0.894
23541W        W95267  40.539  20.130   0.709
23542W        W95268  42.353  29.254  14.927
23543W        W95269  35.575  18.670  11.657
23544W        W95270  23.512  33.327   3.184
23545W        W95271  30.071  18.120  13.940
23546W        W95272  29.058  19.483   2.270
23547W        W95273  15.692  39.821   5.037
23548W        W95274  36.200  42.514  14.026
23549W        W95275   8.840  32.584  12.834
23550W        W95276  39.041  33.760   2.689
23551W        W95277  14.362   8.896  10.807
23552W        W95278   8.310  24.416  11.444
23553W        W95279  19.110  42.979  14.767
23554W        W95280  43.711  44.745   2.777
23555W        W95281  17.595  26.156  11.378
23556W        W95282  29.853  33.235  13.337
23557W        W95283  27.026  31.245   1.712
23558W        W95284   4.357  24.644   3.590
23559W        W95285  44.966  35.042   2.958
23560W        W95286  20.714  29.351   0.488
23561W        W95287  31.998  25.611   3.713
23562W        W95288   8.913   4.435   5.050
23563W        W95289  26.679  25.961  14.816
23564W        W95290  29.432  19.433  11.122
23565W        W95291  39.084   9.363  12.514
23566W        W95292   8.232  25.994   0.315
23567W        W95293  40.962  20.797  12.377
23568W        W95294  14.204  22.740   3.418
23569W        W95295   2.314   7.687   4.771
23570W        W95296  19.289   3.495   0.892
23571W        W95297  14.271  19.505  11.187
23572W        W95298   4.240  29.547   3.349
23573W        W95299  10.422  31.507  12.001
23574W        W95300  44.690  44.194   2.317
23575W        W95301   5.691  25.789  12.184
23576W        W95302   0.416  11.070  13.829
23577W        W95303   0.685  27.911   3.584
23578W        W95304   7.178  10.167   0.025
23579W        W95305  43.540  39.542  10.794
23580W        W95306  40.538  18.085  14.290
23581W        W95307  39.515   8.324  12.691
23582W        W95308  37.854   0.695   5.122
23583W        W95309  18.480  43.005  10.690
23584W        W95310  16.959  43.329   1.985
23585W        W95311  22.591   3.505   3.123
23586W        W95312  31.431   2.562   0.342
23587W        W95313  16.726  18.429   0.823
23588W        W95314  27.307  28.986   2.715
23589W        W95315  19.111  15.346  13.360
23590W        W95316  20.055  10.861   3.121
23591W        W95317  40.931  26.917   2.965
23592W        W95318   6.173  22.460  10.295
23593W        W95319   9.526   9.044  12.839
23594W        W95320  11.242   8.081  12.554
23595W        W95321  29.622  12.246   3.079
23596W        W95322  12.624  10.887  14.059
23597W        W95323  39.330  22.592  11.352
23598W        W95324   7.939  24.142  11.149
23599W        W95325   6.060  31.860  12.502
23600W        W95326  34.909  33.101   2.426
23601W        W95327   6.617  16.828  11.996
23602W        W95328  44.430  32.628  12.261
23603W        W95329   9.877   6.520   3.851
23604W        W95330  18.603  39.890  14.790
23605W        W95331  18.015   9.372   2.388
23606W        W95332   5.710  19.930   0.277
23607W        W95333   5.336  41.518  10.535
23608W        W95334  17.690  42.891   4.166
23609W        W95335  39.306  18.766   4.248
23610W        W95336  44.099  33.138   2.018
23611W        W95337   6.755  10.386  14.045
23612W        W95338   5.741  33.911  12.452
23613W        W95339  19.240  44.485   1.477
23614W        W95340   9.032  40.096   4.153
23615W        W95341  35.969  33.946   1.920
23616W        W95342  28.021  39.171  13.813
23617W        W95343  12.378  37.259   3.930
23618W        W95344  34.452  33.127  13.449
23619W        W95345   9.352  36.355   4.115
23620W        W95346  22.581   3.740   0.287
23621W        W95347  10.358  26.750   4.171
23622W        W95348  41.932   6.450   1.947
23623W        W95349  21.805  40.953  13.532
23624W        W95350   2.017  41.944   0.744
23625W        W95351  12.340  39.276   1.658
23626W        W95352  24.098  30.978  12.647
23627W        W95353  26.256  44.018   0.380
23628W        W95354  38.222  42.893   4.548
23629W        W95355  25.441  41.288  10.732
23630W        W95356   1.278  18.334   4.157
23631W        W95357  15.268   4.787   4.774
23632W        W95358  40.877  39.453  12.059
23633W        W95359  18.323  39.502   3.338
23634W        W95360  15.754  14.912   2.030
23635W        W95361  26.101  22.159   2.631
23636W        W95362  44.958  15.394   0.058
23637W        W95363  39.271   0.735   2.341
23638W        W95364  12.128  36.030   3.270
23639W        W95365  30.573   7.635   1.877
23640W        W95366  31.118  38.953   2.295
23641W        W95367  31.879  13.771   1.839
23642W        W95368   6.193  38.535  13.102
23643W        W95369  26.028  42.084   1.689
23644W        W95370   9.112   8.526   0.579
23645W        W95371  36.673  30.480   4.085
23646W        W95372  31.401  18.327  11.051
23647W        W95373  20.596   1.745   4.148
23648W        W95374   1.364  23.445  13.846
23649W        W95375  25.772  22.557  11.850
23650W        W95376   8.323  15.839  11.962
23651W        W95377  16.038  15.548  11.156
23652W        W95378  14.651  28.345  12.073
23653W        W95379  44.689  21.106  11.510
23654W        W95380  28.055  27.617   4.144
23655W        W95381   3.659  23.095   3.583
23656W        W95382  12.251  38.069   2.740
23657W        W95383  15.031  43.914  12.961
23658W        W95384  20.288  21.099   0.119
23659W        W95385  38.921  31.490   4.266
23660W        W95386  15.194  40.933  12.399
23661W        W95387  25.216  18.638  12.958
23662W        W95388  21.128   5.699   2.179
23663W        W95389  24.761  13.287   4.693
23664W        W95390   3.874  26.159   4.118
23665W        W95391  16.061   8.846   0.471
23666W        W95392  28.213   8.950   4.096
23667W        W95393  37.493   2.434  10.950
23668W        W95394   0.771   1.156  11.611
23669W        W95395  42.547  22.134   1.314
23670W        W95396  41.602  26.771  13.580
23671W        W95397  34.624  12.196   3.374
23672W        W95398  20.190  34.691   3.964
23673W        W95399  29.368  32.018   2.403
23674W        W95400  26.719  12.148   4.589
23675W        W95401   4.771  20.571   2.398
23676W        W95402  16.197  28.496   0.487
23677W        W95403  12.681  20.868  12.600
23678W        W95404  29.451  21.231  10.709
23679W        W95405   7.343  31.983   2.810
23680W        W95406  38.447  44.772   0.909
23681W        W95407   3.532  42.270   0.007
23682W        W95408  13.903  10.390   0.500
23683W        W95409  10.159  30.404  11.206
23684W        W95410  30.516   4.693  14.540
23685W        W95411  33.399  41.536   4.570
23686W        W95412  39.014  24.143  10.092
23687W        W95413  18.604  22.464   1.811
23688W        W95414   6.342  30.900  11.205
23689W        W95415  25.967   5.882  12.841
23690W        W95416  37.138   2.109   2.263
23691W        W95417  13.159  21.963   1.812
23692W        W95418   1.270  44.181   4.698
23693W        W95419   1.080   8.289  14.488
23694W        W95420  40.894   7.122   2.324
23695W        W95421  23.683  12.880   5.366
23696W        W95422  22.112  27.242  14.604
23697W        W95423  21.207  13.236  11.936
23698W        W95424  39.691  19.518  13.802
23699W        W95425  28.470  24.506   2.909
23700W        W95426  24.084   0.228   1.876
23701W        W95427   3.931  33.520  14.684
23702W        W95428  29.655  41.763  12.346
23703W        W95429  43.070  21.081  13.558
23704W        W95430  31.061  39.017  12.382
23705W        W95431  36.198   3.468  13.335
23706W        W95432   8.997  33.837   4.293
23707W        W95433  40.287  29.554   1.348
23708W        W95434   6.694   3.911  13.555
23709W        W95435  15.640  20.281   2.624
23710W        W95436  39.298  41.619   3.482
23711W        W95437  41.825   3.337  13.391
23712W        W95438  44.877  12.411  10.728
23713W        W95439  43.588   8.026   4.058
23714W        W95440  25.393  11.909   1.861
23715W        W95441  27.168  11.209   3.350
23716W        W95442   9.800  34.245  11.508
23717W        W95443  20.197  37.388  12.459
23718W        W95444  37.483  42.094   1.456
23719W        W95445  41.078   3.029  14.690
23720W        W95446  27.656   0.042   5.024
23721W        W95447  43.915  11.349  12.046
23722W        W95448  22.195  20.601   3.953
23723W        W95449  39.442  34.195  12.416
23724W        W95450  39.773  37.040   1.366
23725W        W95451   2.701   3.845   4.228
23726W        W95452   6.945   5.782   4.722
23727W        W95453  39.363  24.909   3.827
23728W        W95454  36.412  23.648   1.871
23729W        W95455  37.501  38.223  11.167
23730W        W95456  10.779  39.802   4.613
23731W        W95457   7.604  38.148  11.050
23732W        W95458  21.085  20.937   0.267
23733W        W95459  36.482  18.154   3.098
23734W        W95460  14.082  27.133  12.090
23735W        W95461  34.890  23.677   3.634
23736W        W95462  14.142  16.693   4.997
23737W        W95463  44.489  15.614  14.913
23738W        W95464   9.258  44.368   4.345
23739W        W95465   0.882   0.735  14.046
23740W        W95466  24.011  16.587   3.101
23741W        W95467  26.474   1.747  13.064
23742W        W95468  29.914  30.351   3.325
23743W        W95469  37.851  44.846  13.495
23744W        W95470  38.441  17.502   1.955
23745W        W95471   0.867   0.276   1.415
23746W        W95472   8.604  21.661  11.551
23747W        W95473  35.212  30.467   0.975
23748W        W95474  44.110   3.347  11.976
23749W        W95475  28.907  17.961   3.839
23750W        W95476  21.322  41.475  11.878
23751W        W95477   9.579  35.123  14.988
23752W        W95478   2.695  32.107  10.411
23753W        W95479   1.761  18.536  13.413
23754W        W95480   3.402  12.202  13.384
23755W        W95481  23.124  18.554  11.753
23756W        W95482  18.858  24.419  11.233
23757W        W95483  17.302  17.062  10.950
23758W        W95484  40.292  24.598  14.781
23759W        W95485   0.352   6.068   4.634
23760W        W95486  40.543   7.479   0.904
23761W        W95487  27.069  11.680  13.099
23762W        W95488  21.085   6.552   4.175
23763W        W95489  21.615  36.855  11.335
23764W        W95490  19.058  26.216   4.194
23765W        W95491  36.639   6.722  13.216
23766W        W95492   1.908  15.005  11.505
23767W        W95493  39.042  12.237   4.242
23768W        W95494  20.787  40.391  13.562
23769W        W95495  11.593  13.847   3.162
23770W        W95496   3.642   7.848   2.662
23771W        W95497  37.060  44.153  10.970
23772W        W95498   9.160   9.442  11.152
23773W        W95499  17.582   3.468   4.742
23774W        W95500  22.044  34.564   1.279
23775W        W95501  34.074  32.058  11.676
23776W        W95502   4.216  14.056   2.066
23777W        W95503  28.019  19.106  10.695
23778W        W95504  17.583   0.933  11.074
23779W        W95505  24.333  23.131  10.829
23780W        W95506   1.243  42.460  13.824
23781W        W95507  12.421  42.636   0.491
23782W        W95508  12.358  33.986  11.912
23783W        W95509  16.208   6.514   2.327
23784W        W95510  14.792   5.765  13.019
23785W        W95511  34.741  43.900  14.998
23786W        W95512  25.702  33.627  14.847
23787W        W95513  29.938  16.194  13.817
23788W        W95514  26.741   4.002   3.221
23789W        W95515  10.164   7.162   1.970
23790W        W95516   6.606  31.703   0.922
23791W        W95517  27.460  19.142   4.165
23792W        W95518  12.976   9.558   4.308
23793W        W95519  41.333  11.121  11.659
23794W        W95520  36.365   4.699  10.314
23795W        W95521  32.351  23.573  11.115
23796W        W95522  22.011  40.767   3.287
23797W        W95523   4.636   9.630  14.906
23798W        W95524  28.798  44.894   0.403
23799W        W95525  44.953  28.932  11.267
23800W        W95526  42.578  38.467   3.173
23801W        W95527  43.139  24.230  10.711
23802W        W95528  26.658  30.192   0.506
23803W        W95529  15.303  14.260   0.751
23804W        W95530  22.996  27.065  11.199
23805W        W95531  44.423  23.128   4.042
23806W        W95532  40.785  36.372   0.915
23807W        W95533  12.862  25.537   4.711
23808W        W95534  29.515  13.056  14.947
23809W        W95535   0.643  20.271   3.151
23810W        W95536  12.575  31.448  13.912
23811W        W95537  14.401  33.523   3.125
23812W        W95538  33.922   6.667   0.271
23813W        W95539  21.345  10.887  12.979
23814W        W95540  41.826  21.118   0.026
23815W        W95541  11.009   3.725  14.429
23816W        W95542  29.638   1.421  14.233
23817W        W95543  10.077   7.668   0.274
23818W        W95544   2.582  39.687  10.225
23819W        W95545  16.523  17.729  10.823
23820W        W95546   3.290  11.855  13.007
23821W        W95547  42.282  20.638   1.249
23822W        W95548   5.289   3.747   1.223
23823W        W95549  14.264  13.267  10.530
23824W        W95550  19.875  44.033   0.309
23825W        W95551  12.850  28.903  13.051
23826W        W95552  25.634  30.297  13.451
23827W        W95553   4.280  44.437   0.376
23828W        W95554  37.420  13.382   4.937
23829W        W95555  23.018  12.562   9.536
23830W        W95556  18.075   6.658   0.399
23831W        W95557  31.954  43.826  13.246
23832W        W95558  43.484  40.539   4.719
23833W        W95559   2.971  40.255  11.187
23834W        W95560  11.763  34.103   3.639
23835W        W95561  27.611   2.509   1.714
23836W        W95562  37.082   3.713   3.192
23837W        W95563  16.581   0.221   0.886
23838W        W95564  34.913  33.509  10.787
23839W        W95565  11.874   5.026   1.612
23840W        W95566  31.189  23.159  12.715
23841W        W95567  41.994  40.828  12.914
23842W        W95568   4.706  28.806  14.644
23843W        W95569  35.266  34.413  12.710
23844W        W95570  42.743  44.997   3.628
23845W        W95571  26.542  29.979   1.475
23846W        W95572   0.260   6.495  14.438
23847W        W95573  24.880  18.814   4.567
23848W        W95574  42.868  19.716   2.714
23849W        W95575   5.889  21.024  12.625
23850W        W95576  26.410   8.824  14.726
23851W        W95577  24.470  27.447   3.235
23852W        W95578  30.155   4.254   2.209
23853W        W95579  20.361   2.585   1.390
23854W        W95580  34.940  33.603   1.734
23855W        W95581  13.125   4.082   1.040
23856W        W95582  15.494  28.050   2.393
23857W        W95583  35.667   5.818   3.773
23858W        W95584  24.519   5.704  10.463
23859W        W95585  30.257  32.493  12.371
23860W        W95586  14.765  16.101   1.285
23861W        W95587  24.574   0.953   5.473
23862W        W95588  44.365  42.733   5.399
23863W        W95589   1.114  33.544   2.390
23864W        W95590   7.080   1.871  14.881
23865W        W95591  35.569   4.077   0.257
23866W        W95592  38.302  37.539   2.715
23867W        W95593  23.253  29.112  12.080
23868W        W95594   2.199  27.684   4.301
23869W        W95595  26.581  41.528  12.763
23870W        W95596  42.459  18.647   2.231
23871W        W95597  19.215   6.839   2.752
23872W        W95598   0.729  24.189  13.001
23873W        W95599  31.894  35.531   0.327
23874W        W95600  42.895   4.926  12.527
23875W        W95601  36.376  15.807   1.911
23876W        W95602  12.826  17.682   3.969
23877W        W95603  32.547   6.985  10.875
23878W        W95604  23.636  17.874  11.436
23879W        W95605  19.579  18.364   1.281
23880W        W95606  29.543  30.213   0.287
23881W        W95607  19.812  42.405  14.575
23882W        W95608  19.319  12.775  10.663
23883W        W95609   4.312  38.855   3.104
23884W        W95610  30.016  21.148   0.539
23885W        W95611   3.824  21.454  14.775
23886W        W95612  17.587  34.867   3.568
23887W        W95613   5.868  20.437   0.263
23888W        W95614  29.434  44.916  13.419
23889W        W95615  39.988  42.107   1.977
23890W        W95616  24.943  20.573   0.403
23891W        W95617  25.891   6.197   3.998
23892W        W95618  25.762  25.336  14.744
23893W        W95619  39.266  10.672  13.046
23894W        W95620  44.813  15.647  12.930
23895W        W95621  27.101   7.863   2.106
23896W        W95622   1.502  21.775  11.658
23897W        W95623   0.482  11.793   2.976
23898W        W95624  21.261   9.683  12.104
23899W        W95625  34.590   6.573  14.253
23900W        W95626  11.642  39.921  11.941
23901W        W95627  41.094  24.217   3.081
23902W        W95628   1.023   0.890   2.746
23903W        W95629  10.582  44.833   0.914
23904W        W95630   4.662  37.371   3.771
23905W        W95631   9.814  11.861   4.613
23906W        W95632  38.116  14.849  13.522
23907W        W95633  14.042  15.065   3.055
23908W        W95634  43.270  44.252   0.758
23909W        W95635  14.756  28.828   5.014
23910W        W95636  19.267  35.062   0.871
23911W        W95637  14.825  43.409  10.616
23912W        W95638  35.812  24.509   1.805
23913W        W95639   0.488  26.247   2.732
23914W        W95640  40.031  32.613   3.530
23915W        W95641  21.234  14.009   1.277
23916W        W95642  26.852  16.663  11.168
23917W        W95643  42.446   3.248  14.118
23918W        W95644  20.401   0.161   4.919
23919W        W95645  40.443  10.813  10.353
23920W        W95646  43.319  44.961  12.927
23921W        W95647  30.372  22.304   4.545
23922W        W95648  40.354   2.972   1.895
23923W        W95649   1.291  26.883  10.885
23924W        W95650  27.977  29.920  11.565
23925W        W95651  12.361  27.572   4.370
23926W        W95652  24.514  37.048   2.425
23927W        W95653   1.921  25.327   3.479
23928W        W95654   2.911  31.613   4.027
23929W        W95655  41.735  30.434  10.111
23930W        W95656  33.130   8.714  14.081
23931W        W95657   2.663  35.728   9.792
23932W        W95658  44.744   6.713  13.418
23933W        W95659   9.989  18.767   3.297
23934W        W95660  17.584  39.318   1.860
23935W        W95661  22.702   5.026  12.042
23936W        W95662  11.752  33.015   0.084
23937W        W95663  23.677  44.301   1.261
23938W        W95664  24.903  38.111  13.345
23939W        W95665   7.069   7.758   0.162
23940W        W95666  28.604  12.703  10.765
23941W        W95667   7.289  15.348  11.007
23942W        W95668  30.100  28.977  11.269
23943W        W95669  33.483   7.241   3.817
23944W        W95670  18.056   8.872  14.825
23945W        W95671  40.352  43.933  11.991
23946W        W95672   5.450  26.900   4.626
23947W        W95673  19.464  42.837   1.258
23948W        W95674  13.214  12.932  10.051
23949W        W95675   3.198  27.462   3.242
23950W        W95676  35.406  25.603   4.234
23951W        W95677  36.169  42.964  12.957
23952W        W95678  33.181  32.808  13.404
23953W        W95679  20.810  36.307  13.356
23954W        W95680  12.141  32.467   0.777
23955W        W95681   8.247  14.704  11.456
23956W        W95682   0.480  14.641  10.785
23957W        W95683  39.566  25.247  10.651
23958W        W95684  37.149   7.165   3.396
23959W        W95685  43.519  42.380  14.270
23960W        W95686   3.706  23.089   4.091
23961W        W95687  13.159  41.377   0.835
23962W        W95688  23.566   0.204  12.618
23963W        W95689   2.704   4.778  11.162
23964W        W95690  26.461  21.020  14.320
23965W        W95691   9.745   0.375   0.308
23966W        W95692   5.891  22.238   4.422
23967W        W95693   2.790   3.918   0.282
23968W        W95694  11.133  30.971  14.261
23969W        W95695  40.836  44.150  12.012
23970W        W95696   2.911   4.936   2.395
23971W        W95697  33.459   7.996   3.325
23972W        W95698   4.950  37.490  12.582
23973W        W95699  22.348   1.036  13.391
23974W        W95700  27.480   1.947   4.573
23975W        W95701  28.979  32.003  14.047
23976W        W95702  38.637  12.660  12.123
23977W        W95703  34.514  12.289  11.134
23978W        W95704  31.357  26.767   9.874
23979W        W95705   5.753  34.030   2.160
23980W        W95706  18.963  15.292   3.824
23981W        W95707  42.056  20.655  11.285
23982W        W95708  23.523  40.062  11.179
23983W        W95709  30.506   8.084  11.459
23984W        W95710  16.568  29.574   0.339
23985W        W95711  15.156   3.999  12.153
23986W        W95712   5.467   5.924   2.135
23987W        W95713   7.847   2.948   4.328
23988W        W95714  33.339  19.575   1.827
23989W        W95715   7.989  12.232   2.604
23990W        W95716  20.264  23.796   0.797
23991W        W95717  12.857  18.087   0.424
23992W        W95718  42.708  44.648   3.999
23993W        W95719   2.508  10.856  11.216
23994W        W95720  10.885  14.806  10.951
23995W        W95721   4.039  35.360   4.064
23996W        W95722  43.289   1.740  11.706
23997W        W95723  10.593  24.128   3.775
23998W        W95724  10.193  16.917   4.564
23999W        W95725  28.894  43.556   1.407
24000W        W95726  32.095  10.710  13.414
24001W        W95727  25.475   3.885  10.640
24002W        W95728   7.379  41.340  10.520
24003W        W95729   1.396  33.132  14.361
24004W        W95730  14.561  37.031   3.797
24005W        W95731   4.686   6.258   1.714
24006W        W95732  20.346  43.805  12.831
24007W        W95733  22.767  19.551   2.288
24008W        W95734  10.343  24.567   3.334
24009W        W95735  41.928   4.485   1.372
24010W        W95736  30.621  25.398  13.547
24011W        W95737  43.036  31.797   0.456
24012W        W95738  12.250   1.824  12.053
24013W        W95739  33.750  19.153   2.739
24014W        W95740  30.645  22.776  12.192
24015W        W95741  42.588  16.462  12.110
24016W        W95742  41.738  21.972  11.838
24017W        W95743  40.265  15.957  12.220
24018W        W95744  26.748  41.220  12.391
24019W        W95745  33.565  41.640  10.525
24020W        W95746  44.888  15.377  12.347
24021W        W95747   9.368  39.063   0.293
24022W        W95748  32.753  32.285   4.579
24023W        W95749  14.822  10.411  13.359
24024W        W95750  22.412  36.457  11.144
24025W        W95751  23.667  14.768  10.184
24026W        W95752  35.319   1.128  11.756
24027W        W95753   1.146  23.810  10.779
24028W        W95754  17.406  15.618   4.652
24029W        W95755   4.642  32.289   2.775
24030W        W95756  37.965   2.503   2.171
24031W        W95757   4.722  40.115   4.584
24032W        W95758   6.773  23.020  13.324
24033W        W95759  23.754  40.856   3.134
24034W        W95760   6.255   7.422   4.606
24035W        W95761  40.373  42.877  13.083
24036W        W95762  29.829  36.171  11.137
24037W        W95763  37.863  26.600  10.639
24038W        W95764   4.171  29.420   4.359
24039W        W95765   9.079  44.842  10.509
24040W        W95766  35.548  41.613   3.568
24041W        W95767  34.878  21.539   1.859
24042W        W95768  41.735   2.870  11.569
24043W        W95769   8.388  30.360   0.517
24044W        W95770  13.229   3.453  12.863
24045W        W95771  41.295  12.810  12.199
24046W        W95772  40.398   6.907  12.631
24047W        W95773  41.523   6.117  13.026
24048W        W95774  32.893  27.197  13.039
24049W        W95775   9.175  35.652   3.629
24050W        W95776  44.898  20.318   4.087
24051W        W95777  43.102  25.423  11.499
24052W        W95778  22.205   8.859   2.408
24053W        W95779   7.651   2.979   0.831
24054W        W95780   3.068  14.304   3.171
24055W        W95781  37.520  24.284  12.818
24056W        W95782  18.180  27.110   3.474
24057W        W95783  15.841  11.809  11.662
24058W        W95784   2.657   2.930  11.702
24059W        W95785  16.116  38.597  10.564
24060W        W95786  36.300  25.083   3.756
24061W        W95787   7.014   9.194  13.814
24062W        W95788  24.190   3.478  11.491
24063W        W95789   0.782  34.402  12.599
24064W        W95790  22.671  43.310   3.683
24065W        W95791  14.819  18.807   1.690
24066W        W95792  16.033  10.391  10.735
24067W        W95793  13.761   4.293  12.435
24068W        W95794  38.462  29.382   3.838
24069W        W95795  42.392  10.517  14.280
24070W        W95796  32.708   9.385   3.752
24071W        W95797  12.611   9.243   1.285
24072W        W95798  15.557  27.907  14.448
24073W        W95799  44.386  38.556   1.427
24074W        W95800  14.478  23.642  11.783
24075W        W95801  29.315  33.623   0.781
24076W        W95802  21.229  32.371   3.537
24077W        W95803  30.682  19.785   1.280
24078W        W95804  32.603   9.210   3.266
24079W        W95805  34.409  17.837  14.354
24080W        W95806  37.874   4.381   0.126
24081W        W95807  23.606  31.561   2.742
24082W        W95808  20.523  23.179   2.896
24083W        W95809   3.898  31.181  12.840
24084W        W95810  32.118   1.952   0.264
24085W        W95811  40.270  18.444   4.152
24086W        W95812   7.052  39.383  11.967
24087W        W95813  42.922   1.622   1.190
24088W        W95814  41.455  34.995  11.879
24089W        W95815  31.985  17.093  13.452
24090W        W95816   7.955  39.749   3.620
24091W        W95817   1.459   8.013   1.750
24092W        W95818  32.525  35.120   1.918
24093W        W95819   2.705  38.418   1.512
24094W        W95820  38.927  35.701  12.845
24095W        W95821  24.571  24.595  14.675
24096W        W95822  34.346  16.546  11.142
24097W        W95823  33.614   5.843   2.669
24098W        W95824  13.632  44.899   4.218
24099W        W95825  14.199  21.866  13.083
24100W        W95826  18.159  14.642  13.006
24101W        W95827   2.247   3.478   0.733
24102W        W95828   1.853   4.798  14.738
24103W        W95829  11.409   0.339   3.526
24104W        W95830   6.769  21.668  11.846
24105W        W95831  41.043  19.278  12.513
24106W        W95832  38.946  33.649  10.878
24107W        W95833  37.022  28.423   4.325
24108W        W95834  16.671  44.017   2.613
24109W        W95835  24.986  18.544  12.113
24110W        W95836  27.531   7.937   2.359
24111W        W95837  42.275  35.970   4.124
24112W        W95838  40.533  34.396  13.158
24113W        W95839  10.025  37.540  14.561
24114W        W95840   4.152  31.062  10.694
24115W        W95841  35.851  11.776   4.152
24116W        W95842  34.624  19.255  13.888
24117W        W95843   0.329  15.923  11.226
24118W        W95844   6.953   5.246   1.763
24119W        W95845  26.496   7.193   2.167
24120W        W95846  20.251  42.889  13.056
24121W        W95847  32.158  37.410   4.550
24122W        W95848  29.485  41.939   4.337
24123W        W95849  37.840  18.189  14.945
24124W        W95850  31.104   5.022   1.278
24125W        W95851  33.695  18.573   2.126
24126W        W95852  39.991  10.765   1.735
24127W        W95853  10.851  31.381  11.119
24128W        W95854   0.876   5.201  10.702
24129W        W95855  33.277  30.993   4.313
24130W        W95856  37.474  14.553  10.746
24131W        W95857  37.147  25.800   3.790
24132W        W95858  37.440  43.069   2.348
24133W        W95859  31.340  37.039   0.970
24134W        W95860  41.705  17.668   4.139
24135W        W95861  12.079  35.352  11.074
24136W        W95862  39.747  42.850  10.794
24137W        W95863  33.625  12.808  14.873
24138W        W95864  38.820  15.003   0.311
24139W        W95865  31.413  24.658   0.657
24140W        W95866   3.382  18.786   4.934
24141W        W95867  44.890  24.151  10.858
24142W        W95868  24.208  20.570  14.957
24143W        W95869  11.513   3.740   2.277
24144W        W95870  12.156  17.124   1.410
24145W        W95871  29.168   7.740   0.409
24146W        W95872  38.563  33.859   4.709
24147W        W95873   8.224  30.678   2.288
24148W        W95874  29.088  42.805   0.888
24149W        W95875   4.839   6.726   1.565
24150W        W95876  40.205  40.781  13.552
24151W        W95877  30.562  14.084  13.908
24152W        W95878  17.067  26.933   3.428
24153W        W95879  20.737  20.082   4.609
24154W        W95880  16.341   7.088   1.283
24155W        W95881  20.539   4.872  13.799
24156W        W95882  14.466  10.523   3.127
24157W        W95883  35.096  44.806   3.240
24158W        W95884  30.011   5.304  11.541
24159W        W95885   2.930  16.415   1.360
24160W        W95886  19.473  40.845   1.457
24161W        W95887   0.871  13.233   4.101
24162W        W95888  16.630  34.405  14.316
24163W        W95889  44.182  21.198   2.314
24164W        W95890  24.774  40.265  11.959
24165W        W95891  10.019  12.547  11.168
24166W        W95892  20.300  20.775  12.558
24167W        W95893  32.905   9.195  11.153
24168W        W95894  41.315  31.958   1.318
24169W        W95895  39.911   5.431  12.865
24170W        W95896  11.803  29.215   2.586
24171W        W95897   8.827   2.688  12.433
24172W        W95898  22.675   5.912  10.671
24173W        W95899  42.378  11.688   3.622
24174W        W95900  16.135  44.293  12.639
24175W        W95901  38.961  30.633  13.481
24176W        W95902   4.241  26.642  14.814
24177W        W95903  12.574  38.546   2.783
24178W        W95904  31.178  29.176   1.720
24179W        W95905  35.350  31.510  14.415
24180W        W95906   3.859  14.284   3.618
24181W        W95907  36.006  20.478   0.413
24182W        W95908  18.548  33.994   1.258
24183W        W95909  44.454   0.521  13.834
24184W        W95910  21.691  35.057  12.026
24185W        W95911   2.851   5.685  11.328
24186W        W95912  31.694  23.204   2.616
24187W        W95913  12.578  16.677   1.926
24188W        W95914  31.515  15.303   2.275
24189W        W95915  42.890  14.782  13.556
24190W        W95916  32.895  22.069  13.482
24191W        W95917  20.828   5.291  11.722
24192W        W95918  24.141  30.176   4.378
24193W        W95919  36.845  32.139  13.191
24194W        W95920  27.972   9.915  10.206
24195W        W95921  36.826  18.271  12.046
24196W        W95922  31.451   4.583  13.441
24197W        W95923  20.622   5.826   3.614
24198W        W95924  12.172   5.329   4.218
24199W        W95925  17.137  13.901  14.747
24200W        W95926   7.791   3.394   0.260
24201W        W95927  16.589   2.705  14.922
24202W        W95928  35.617  25.502  13.471
24203W        W95929   7.261  23.494   3.614
24204W        W95930   8.754  17.778   1.235
24205W        W95931  38.141  15.015   1.470
24206W        W95932   0.846  27.291  13.377
24207W        W95933  22.701  35.882  11.546
24208W        W95934  20.606   0.172  12.855
24209W        W95935  16.778  22.822  11.107
24210W        W95936  21.351  27.971   1.751
24211W        W95937  18.833  20.134  14.937
24212W        W95938  38.035   9.628   4.164
24213W        W95939  22.756   2.551   4.469
24214W        W95940  32.942  29.935   2.707
24215W        W95941  18.267   0.251  11.258
24216W        W95942  40.573   8.154   0.013
24217W        W95943  29.137   3.742  12.057
24218W        W95944  37.793  28.218   3.640
24219W        W95945  14.207  34.512  13.080
24220W        W95946  43.322  42.949   1.421
24221W        W95947  25.605  44.823   3.955
24222W        W95948   0.556  32.587  14.259
24223W        W95949  36.417  40.052  12.137
24224W        W95950  23.933  40.824   1.344
24225W        W95951  23.417  10.242  12.157
24226W        W95952  22.671  20.462  13.569
24227W        W95953  44.974  42.370  10.518
24228W        W95954  42.174   9.316   0.564
24229W        W95955  24.417  12.616   2.416
24230W        W95956   4.242  26.765  11.548
24231W        W95957  43.384  11.784  10.709
24232W        W95958  28.591   9.697  12.810
24233W        W95959  43.312  11.038  13.983
24234W        W95960  30.762   9.726   1.778
24235W        W95961  42.810  21.661   0.279
24236W        W95962  10.723   6.415  11.187
24237W        W95963  34.423  15.076  12.944
24238W        W95964  43.751   3.733  14.338
24239W        W95965   4.233  18.308  11.568
24240W        W95966  12.348  24.638   3.369
24241W        W95967  44.822   2.446   3.833
24242W        W95968  28.964  12.630  12.931
24243W        W95969  30.675  19.106   4.647
24244W        W95970  36.403  40.956   3.784
24245W        W95971  18.308   4.420  13.041
24246W        W95972  33.895  26.325  12.063
24247W        W95973  33.289  29.030  10.792
24248W        W95974  11.112   9.708   3.735
24249W        W95975  14.312  21.529   4.091
24250W        W95976   5.324   6.907   2.863
24251W        W95977  15.048  40.200   2.405
24252W        W95978   8.514  25.940  12.058
24253W        W95979  41.602  11.088  10.705
24254W        W95980  41.297  10.763   1.401
24255W        W95981   2.487  18.111  12.214
24256W        W95982  18.232   8.943   0.832
24257W        W95983  27.419   6.507  14.103
24258W        W95984  21.227  40.563   2.845
24259W        W95985  11.228  19.147   2.709
24260W        W95986  22.538  32.122   1.386
24261W        W95987  43.067  29.505   4.991
24262W        W95988   4.919  38.028   0.718
24263W        W95989   0.397  32.879  13.423
24264W        W95990  28.685   3.469   0.459
24265W        W95991  23.979  22.704   3.605
24266W        W95992  24.203  42.360  12.707
24267W        W95993   7.169  13.267   0.955
24268W        W95994  40.428  34.611   2.742
24269W        W95995  14.852   9.726  12.521
24270W        W95996  12.257  41.884   0.330
24271W        W95997  11.939  39.915  11.500
24272W        W95998  22.213  39.863   3.114
24273W        W95999  30.433  26.959  14.473
24274W        W96000   0.970  40.983  11.735
24275W        W96001  37.967  23.308  12.059
24276W        W96002  31.967  15.267  12.202
24277W        W96003  10.467  11.813  12.013
24278W        W96004  34.119  37.951  11.902
24279W        W96005  37.587  18.573  11.491
24280W        W96006   4.288   2.707   2.301
24281W        W96007  10.435   8.190   4.597
24282W        W96008   7.432  42.820  13.971
24283W        W96009   2.113  31.970   0.801
24284W        W96010  13.220  13.826  10.852
24285W        W96011  10.229   2.931  12.445
24286W        W96012  36.447  42.356  12.400
24287W        W96013  37.545  31.995   3.780
24288W        W96014  42.108   9.386  13.424
24289W        W96015   7.070  36.420  12.024
24290W        W96016  33.921  23.470  12.777
24291W        W96017   2.816  25.941  11.626
24292W        W96018  10.312   9.804   2.285
24293W        W96019  23.938  42.851  10.528
24294W        W96020  23.102  16.593   3.669
24295W        W96021  36.017  40.347   4.112
24296W        W96022  30.100  37.148  11.003
24297W        W96023  11.463  30.547  13.505
24298W        W96024  19.669  18.494  12.387
24299W        W96025  12.694  39.747  14.997
24300W        W96026  28.042  34.679   4.772
24301W        W96027  35.438  44.342  10.734
24302W        W96028  27.094  12.670   3.376
24303W        W96029   4.396  22.242   0.211
24304W        W96030  23.113   5.219  11.096
24305W        W96031  28.419  10.260   4.621
24306W        W96032  23.572  11.603   1.242
24307W        W96033  32.189  20.680  13.547
24308W        W96034   9.230  44.238  14.895
24309W        W96035  18.067  40.977  14.337
24310W        W96036  33.019  42.409   3.518
24311W        W96037  40.970   6.197  10.678
24312W        W96038  42.753   5.080  14.304
24313W        W96039   3.318  29.941   0.459
24314W        W96040  38.655  31.671   0.052
24315W        W96041   1.561   2.995   1.308
24316W        W96042  33.086   9.648   4.732
24317W        W96043   8.696   6.864  14.791
24318W        W96044  26.496  19.671  11.980
24319W        W96045   2.829  20.118   3.679
24320W        W96046  32.937  23.643   0.018
24321W        W96047  39.524   1.392   3.295
24322W        W96048   1.152  13.292   4.557
24323W        W96049  11.189  13.074   1.473
24324W        W96050  25.411   0.271  11.264
24325W        W96051  38.410   0.878   2.833
24326W        W96052  42.892  12.191   2.097
24327W        W96053  23.965  33.527   3.039
24328W        W96054  26.163  16.262  10.979
24329W        W96055  35.022  30.911   0.430
24330W        W96056   7.710   0.249  13.317
24331W        W96057   4.901  10.740  12.308
24332W        W96058  21.211  13.619  14.266
24333W        W96059  20.687  39.320   2.796
24334W        W96060  43.440  31.505  11.652
24335W        W96061  10.837  40.861   2.854
24336W        W96062  36.907   5.069  13.003
24337W        W96063  36.605  19.240  14.165
24338W        W96064  22.483  25.621  14.523
24339W        W96065  11.292   6.336  12.189
24340W        W96066  30.677   2.929  13.971
24341W        W96067  27.638  15.816   3.273
24342W        W96068   9.485  37.107   1.376
24343W        W96069   8.378  10.182   2.993
24344W        W96070   1.654  27.269  14.091
24345W        W96071   8.389  36.169   0.297
24346W        W96072  23.667  31.092  12.291
24347W        W96073  21.256   4.338   5.029
24348W        W96074  37.179  44.868   0.412
24349W        W96075  20.107  15.308  13.507
24350W        W96076   9.403   9.437   0.939
24351W        W96077   5.820  18.189   3.989
24352W        W96078  41.006  13.805   1.173
24353W        W96079   1.861   0.416   1.697
24354W        W96080  42.927  32.128  11.953
24355W        W96081  32.874  41.251  10.170
24356W        W96082  32.172   9.954   2.240
24357W        W96083  10.879  16.784  10.688
24358W        W96084  42.762   4.343  13.491
24359W        W96085  24.074  22.266   2.607
24360W        W96086   3.044  34.109  11.121
24361W        W96087  11.121   9.762   0.250
24362W        W96088  13.446   7.753   4.528
24363W        W96089   9.259   6.134   4.521
24364W        W96090   3.295  27.201   3.731
24365W        W96091   2.269  10.101  13.381
24366W        W96092  19.782  10.916   2.698
24367W        W96093  36.330  14.227  13.448
24368W        W96094   2.961   7.426   1.219
24369W        W96095  16.086   0.271  12.489
24370W        W96096  30.527   2.413   4.689
24371W        W96097   4.779   6.702  13.285
24372W        W96098  36.854  16.740   2.712
24373W        W96099  29.072  43.280  11.444
24374W        W96100   0.011   0.897   0.728
24375W        W96101  34.981  24.609   4.946
24376W        W96102   2.330  32.888   2.228
24377W        W96103   4.405  25.131  13.481
24378W        W96104  36.782  34.538   0.234
24379W        W96105  42.774  20.074  11.595
24380W        W96106   4.388  33.116  14.138
24381W        W96107  17.045  23.824  10.175
24382W        W96108   8.511   4.111   5.013
24383W        W96109  30.893  13.852   0.414
24384W        W96110  12.572  22.359   4.217
24385W        W96111  17.210  25.185   3.414
24386W        W96112  23.163  27.929   3.905
24387W        W96113  36.008  33.698   4.562
24388W        W96114  42.528  36.988  12.102
24389W        W96115  44.029   6.749  11.298
24390W        W96116  14.401  17.292  13.347
24391W        W96117  17.752  32.645   3.185
24392W        W96118  25.587  14.841   3.243
24393W        W96119  27.809  28.258  10.237
24394W        W96120  20.708  26.554   9.699
24395W        W96121  29.564  11.111   2.305
24396W        W96122  35.943  15.075   0.404
24397W        W96123  14.705  15.716  14.537
24398W        W96124  24.613   8.712   1.367
24399W        W96125  33.558  19.445   2.309
24400W        W96126  22.503  26.126   3.137
24401W        W96127  21.341  21.262   3.559
24402W        W96128  22.101  16.089  10.494
24403W        W96129  33.020  39.953  12.476
24404W        W96130  21.775  39.580   4.261
24405W        W96131  29.696  10.640  13.801
24406W        W96132  25.099  25.030   3.783
24407W        W96133  15.334  25.142  11.518
24408W        W96134   5.759  37.960  14.628
24409W        W96135  24.602  13.035   1.235
24410W        W96136  23.533  31.951  14.871
24411W        W96137   8.252  25.173   9.841
24412W        W96138  16.968  26.056   1.434
24413W        W96139  24.018   4.406   0.469
24414W        W96140  24.652  25.501   4.628
24415W        W96141  35.860  15.854   1.805
24416W        W96142  18.645  21.260   3.346
24417W        W96143  21.799  38.580   2.188
24418W        W96144  17.402   2.852  14.364
24419W        W96145   2.282  35.533   4.729
24420W        W96146  39.403   2.810  12.120
24421W        W96147   8.198  13.409   1.670
24422W        W96148  35.100  18.116  12.476
24423W        W96149  26.468   8.102   3.638
24424W        W96150  27.579   8.130   1.201
24425W        W96151  14.798  30.391   1.364
24426W        W96152  23.728  35.842   3.609
24427W        W96153  16.786  20.083   1.467
24428W        W96154  36.929  18.763  12.079
24429W        W96155  44.665  12.334   3.281
24430W        W96156  21.485   6.278  12.562
24431W        W96157  43.213  21.237   4.724
24432W        W96158   4.746   1.787   3.597
24433W        W96159  42.123  40.264  13.386
24434W        W96160  40.625   0.912   1.867
24435W        W96161  36.944   2.150   4.612
24436W        W96162  31.753   7.755   2.720
24437W        W96163  44.408  33.103  10.420
24438W        W96164  13.315   6.691  12.427
24439W        W96165   6.775   1.942  13.193
24440W        W96166  13.840  42.329  13.019
24441W        W96167  44.383  12.612  14.045
24442W        W96168  30.593  15.536   2.707
24443W        W96169  22.541  24.608   4.683
24444W        W96170  27.891   6.288  13.989
24445W        W96171  35.657   4.855  14.875
24446W        W96172  16.236   2.561   2.294
24447W        W96173  13.703   6.135   0.734
24448W        W96174  29.886  22.727  11.437
24449W        W96175  24.077   1.281   4.796
24450W        W96176   0.253  18.134  11.143
24451W        W96177   1.751  20.170   3.337
24452W        W96178  34.748  13.913   2.761
24453W        W96179  16.544  42.066   3.229
24454W        W96180   3.358  41.343  11.899
24455W        W96181   9.333  41.889  12.376
24456W        W96182  29.981   5.179  12.945
24457W        W96183  44.559   0.649  14.328
24458W        W96184   2.857  32.981   2.840
24459W        W96185   6.579   2.027  14.901
24460W        W96186  24.394  31.868   1.554
24461W        W96187  14.295  19.632  11.667
24462W        W96188   1.053   4.297   4.707
24463W        W96189  44.277  10.477  12.622
24464W        W96190   2.259  39.945   4.656
24465W        W96191  28.453  33.465  12.067
24466W        W96192   9.662  39.505   1.378
24467W        W96193  16.544  24.593  13.026
24468W        W96194  17.716  40.295  13.834
24469W        W96195  40.780   3.887  12.934
24470W        W96196  22.656  20.667  13.070
24471W        W96197   9.170  40.421   0.177
24472W        W96198  37.213  36.341  11.442
24473W        W96199  18.488   9.254   2.219
24474W        W96200  11.363  44.977  12.426
24475W        W96201  20.207  18.146   1.295
24476W        W96202  15.662   0.981  11.187
24477W        W96203  28.242  36.622   2.296
24478W        W96204  28.826  16.769   4.428
24479W        W96205  17.276   7.150  10.791
24480W        W96206   4.397  35.079   4.326
24481W        W96207   4.467  25.581   0.287
24482W        W96208  34.665  13.841   0.150
24483W        W96209  15.438  16.684   3.935
24484W        W96210  15.378  15.884  11.846
24485W        W96211  18.774  26.148  12.486
24486W        W96212  29.956  32.622  13.812
24487W        W96213   6.327  44.732   3.502
24488W        W96214   2.138   9.570   3.045
24489W        W96215   8.865  35.536  14.918
24490W        W96216  10.443  41.343  13.058
24491W        W96217  15.032  12.369   3.259
24492W        W96218  36.307  24.296  11.127
24493W        W96219  40.136  33.771   2.774
24494W        W96220  17.354   7.901  11.937
24495W        W96221  38.619  16.208  13.899
24496W        W96222   7.759  13.707  10.153
24497W        W96223  19.476  10.434  13.945
24498W        W96224   4.260   5.783   0.417
24499W        W96225   5.012  16.322  12.905
24500W        W96226  38.524  31.163   4.296
24501W        W96227  31.445  30.402   0.428
24502W        W96228  41.760  28.927  11.933
24503W        W96229  38.164  23.074  11.605
24504W        W96230   6.218  26.521   3.383
24505W        W96231   5.281  34.602   3.594
24506W        W96232  18.265  41.467   0.890
24507W        W96233  43.835  33.374   4.516
24508W        W96234   6.864  18.753  11.454
24509W        W96235  19.603  22.985  11.122
24510W        W96236  18.504   4.917   0.572
24511W        W96237  15.233  30.517   4.253
24512W        W96238  33.632  25.018  11.617
24513W        W96239  11.636  33.084   3.253
24514W        W96240  21.061  20.540   3.765
24515W        W96241  17.828  35.398  11.744
24516W        W96242  38.837   9.800  13.993
24517W        W96243  22.868  22.513  12.056
24518W        W96244  41.525  32.148   4.389
24519W        W96245  18.478  33.136   3.778
24520W        W96246  35.314   5.539   2.521
24521W        W96247  41.071  37.321   2.258
24522W        W96248  18.365  26.677  12.963
24523W        W96249  31.243  37.663   0.892
24524W        W96250  41.426  31.448   1.344
24525W        W96251  18.783  15.313   3.300
24526W        W96252   5.008  40.250   0.733
24527W        W96253  14.794  17.139  10.825
24528W        W96254  38.045   5.331  14.916
24529W        W96255  32.433   7.205  11.626
24530W        W96256  23.697   6.731   2.187
24531W        W96257  39.955  12.584  12.361
24532W        W96258   7.764  36.379  13.463
24533W        W96259  10.094  10.544  10.396
24534W        W96260  25.814  43.871  12.020
24535W        W96261  41.524  38.008  14.740
24536W        W96262  36.431  33.468  10.582
24537W        W96263  31.755  14.508   1.971
24538W        W96264   4.675  41.912   3.708
24539W        W96265  21.143  25.490   0.224
24540W        W96266   5.273  32.970   2.038
24541W        W96267  25.060  15.333  12.065
24542W        W96268  13.769   4.428   4.644
24543W        W96269  37.394  30.218   1.713
24544W        W96270  37.201  27.149   2.352
24545W        W96271  21.229   8.918  13.561
24546W        W96272  33.154   4.903   2.955
24547W        W96273  24.621  10.165   0.747
24548W        W96274  19.616  14.349  12.994
24549W        W96275  22.424  19.276  12.924
24550W        W96276  43.882  17.316  14.754
24551W        W96277  13.818  32.317   1.814
24552W        W96278  21.161  19.206  11.615
24553W        W96279  24.944  14.906   4.347
24554W        W96280   2.818  31.591   0.454
24555W        W96281   9.669  26.642  12.714
24556W        W96282  29.277  24.912   9.505
24557W        W96283  21.620  19.784  13.589
24558W        W96284  15.186  38.107  10.640
24559W        W96285  39.427  22.959  13.018
24560W        W96286   3.366  11.127   3.719
24561W        W96287   3.533  36.854  13.848
24562W        W96288  28.731  40.508   1.927
24563W        W96289  32.883  38.321   4.130
24564W        W96290  19.663  22.299  12.158
24565W        W96291  21.240  25.236   3.499
24566W        W96292  22.110   1.256   4.884
24567W        W96293  11.677  14.850  10.724
24568W        W96294   8.290  29.301  14.687
24569W        W96295  10.831  32.736   1.131
24570W        W96296   1.229  30.143   1.153
24571W        W96297  31.666  18.272  14.449
24572W        W96298  38.096   5.914  11.221
24573W        W96299  10.850  20.616   0.476
24574W        W96300   1.469  22.044   4.670
24575W        W96301  32.054  27.696   0.549
24576W        W96302  32.311  10.279   3.341
24577W        W96303  11.369  18.001   3.829
24578W        W96304  14.861   6.101   1.851
24579W        W96305  24.178  21.870  13.349
24580W        W96306  27.648   2.805   2.639
24581W        W96307   4.652  13.690  11.007
24582W        W96308  14.730  39.865  12.031
24583W        W96309  40.795  42.253  14.193
24584W        W96310  36.599  12.915  14.952
24585W        W96311  19.899  22.014  11.130
24586W        W96312  37.980  26.454   3.391
24587W        W96313  30.550  16.609   2.781
24588W        W96314  28.610  27.214   3.547
24589W        W96315  35.425  39.812   2.138
24590W        W96316  36.084  35.553  12.414
24591W        W96317  23.755  30.953  10.603
24592W        W96318  42.410  44.444  14.085
24593W        W96319  32.517  25.675  14.331
24594W        W96320  10.136  14.920   1.772
24595W        W96321   1.029   9.346   4.079
24596W        W96322   2.796  24.722  10.183
24597W        W96323  16.074  15.848  12.958
24598W        W96324  38.885  11.290  13.517
24599W        W96325  11.246  40.946  13.143
24600W        W96326   1.842  21.743  10.964
24601W        W96327  14.272  17.300   3.631
24602W        W96328  14.387  16.541  10.765
24603W        W96329  14.268  39.612   4.172
24604W        W96330  15.231  17.650   4.503
24605W        W96331  17.118  18.035   4.610
24606W        W96332  20.129   4.764   1.811
24607W        W96333  24.081  23.925  14.920
24608W        W96334   8.237  21.076  12.496
24609W        W96335  14.428   3.431   1.626
24610W        W96336  16.845  33.341   0.249
24611W        W96337  10.599  27.480   4.098
24612W        W96338   4.399  30.612  10.673
24613W        W96339  31.115  43.588  13.575
24614W        W96340   6.454  43.050  13.762
24615W        W96341  14.015   3.181   4.169
24616W        W96342   7.864  30.584   1.895
24617W        W96343  31.987  30.244  11.124
24618W        W96344   5.219  24.076   2.344
24619W        W96345  14.263   7.396  11.912
24620W        W96346  26.614   0.990   1.764
24621W        W96347   4.292   3.848  14.511
24622W        W96348   1.806  33.539   1.870
24623W        W96349  34.997  38.334  11.872
24624W        W96350   2.376  42.530  13.424
24625W        W96351  15.821  28.711  10.688
24626W        W96352  38.471  34.996  13.857
24627W        W96353  10.616  15.667  13.758
24628W        W96354  33.802  19.258  13.441
24629W        W96355  39.459   6.668  10.311
24630W        W96356  42.874  28.027  13.082
24631W        W96357   0.982  21.375   1.442
24632W        W96358  14.488   2.676   0.608
24633W        W96359  38.883  25.582  14.033
24634W        W96360  37.110  18.188  12.482
24635W        W96361  29.011  37.543   0.413
24636W        W96362  34.183  10.688  12.428
24637W        W96363  35.341  35.944   2.331
24638W        W96364   9.280  37.887   4.865
24639W        W96365  29.700   7.992  13.419
24640W        W96366   1.980  37.569  11.078
24641W        W96367   7.972  24.551  13.437
24642W        W96368  32.578  17.071  14.009
24643W        W96369  31.735   6.868   1.167
24644W        W96370   6.711   8.326   0.728
24645W        W96371  21.785   8.138  13.517
24646W        W96372  44.964  13.917  12.985
24647W        W96373  12.364  12.901   0.852
24648W        W96374  19.705  31.023  10.577
24649W        W96375   6.247  36.136   2.225
24650W        W96376  36.454  35.445   2.140
24651W        W96377  15.558  36.872  13.397
24652W        W96378  33.041  31.680  14.998
24653W        W96379  18.122   4.638   0.387
24654W        W96380   5.908  34.847   3.294
24655W        W96381   1.494  29.069  11.794
24656W        W96382  40.300  25.468   3.092
24657W        W96383  23.710  33.003  10.624
24658W        W96384  30.594  13.075   0.553
24659W        W96385  39.949   8.746  14.877
24660W        W96386  15.732  44.521   2.810
24661W        W96387  25.925  16.721  12.815
24662W        W96388  26.741  28.548  14.988
24663W        W96389   5.309  33.122  12.483
24664W        W96390  16.992  35.496   3.324
24665W        W96391   6.709  29.578   3.823
24666W        W96392   1.673  32.397  14.303
24667W        W96393   4.199  26.970   4.356
24668W        W96394   2.334  31.616  14.818
24669W        W96395  29.888   2.470  11.816
24670W        W96396   3.362  41.644  14.493
24671W        W96397  20.843  12.835   3.245
24672W        W96398  36.409  35.245  13.550
24673W        W96399  37.024   4.834  12.512
24674W        W96400  34.787   9.279  12.114
24675W        W96401   1.996   5.220  10.524
24676W        W96402  17.480  12.576  13.627
24677W        W96403  18.427  39.952   3.672
24678W        W96404  22.750  42.056  12.998
24679W        W96405   7.037  20.128  11.013
24680W        W96406  31.718  18.725  12.950
24681W        W96407   4.349  22.547  14.240
24682W        W96408  37.515   4.131  14.592
24683W        W96409  40.601  38.759  12.446
24684W        W96410   3.479  15.767   0.019
24685W        W96411  16.867  12.143   3.297
24686W        W96412  16.255  37.751   4.105
24687W        W96413  10.552  18.758  12.595
24688W        W96414  21.191  21.637   3.877
24689W        W96415  17.347  12.798  14.755
24690W        W96416  33.033  28.971   3.021
24691W        W96417  35.964  18.802   0.198
24692W        W96418   3.743  12.369   5.104
24693W        W96419  43.477  19.957  13.243
24694W        W96420  36.637  12.292  13.813
24695W        W96421  24.763  40.734   0.015
24696W        W96422   4.775  26.288  12.069
24697W        W96423  32.924  37.454   2.354
24698W        W96424  16.315  31.441   3.653
24699W        W96425  13.648  35.900  12.119
24700W        W96426  16.588  28.783   3.840
24701W        W96427  26.067  32.891  11.156
24702W        W96428  44.839  18.068  14.051
24703W        W96429  20.163  40.520  12.216
24704W        W96430   6.309  16.626  13.407
24705W        W96431  31.211  16.705  10.679
24706W        W96432  25.622  12.752   5.052
24707W        W96433  23.766  27.003   4.174
24708W        W96434  19.623   2.783  14.836
24709W        W96435  37.153  12.082  12.512
24710W        W96436   1.774  33.097   3.288
24711W        W96437  33.611  25.951  12.542
24712W        W96438   3.923  20.727  12.178
24713W        W96439   5.687  22.074  12.580
24714W        W96440  33.964  32.558  11.478
24715W        W96441   6.861   3.172  12.048
24716W        W96442  11.653  43.884  12.874
24717W        W96443  36.447  36.888  12.918
24718W        W96444  31.586  21.592  10.384
24719W        W96445   3.139  22.387  13.810
24720W        W96446   9.245  15.146   0.817
24721W        W96447  32.106  13.307   1.568
24722W        W96448  20.104  35.252  11.536
24723W        W96449  25.190  33.940   1.249
24724W        W96450  15.633  33.911   4.006
24725W        W96451  15.066   2.448  12.039
24726W        W96452  23.978  40.475  11.581
24727W        W96453  33.934  38.830  14.930
24728W        W96454  24.270  17.012   3.242
24729W        W96455   4.439  24.712   0.412
24730W        W96456  11.730  35.093   0.350
24731W        W96457  32.560  31.068  10.932
24732W        W96458   2.228  14.249  12.056
24733W        W96459  42.119   4.839   9.946
24734W        W96460   6.706  35.886   4.198
24735W        W96461  13.704  12.783   3.360
24736W        W96462  23.123  31.178   1.765
24737W        W96463   9.539  20.060   4.085
24738W        W96464  20.014  16.505  11.146
24739W        W96465  43.326  37.492  13.337
24740W        W96466  36.005  38.395  14.390
24741W        W96467  37.830  12.824  12.976
24742W        W96468  19.784  41.990  13.923
24743W        W96469  29.442  39.019  12.927
24744W        W96470  21.600  40.750  13.086
24745W        W96471  33.029  40.392   2.963
24746W        W96472   6.745  26.670  14.837
24747W        W96473  30.111  30.048   1.708
24748W        W96474   9.339   5.712   4.894
24749W        W96475  22.757  43.780   1.999
24750W        W96476  33.308  41.832  12.997
24751W        W96477  32.428  38.571  10.394
24752W        W96478  32.878   2.645   1.238
24753W        W96479  36.370  26.537  10.674
24754W        W96480   9.375  22.731  10.158
24755W        W96481  25.030  31.554  11.644
24756W        W96482  40.224   4.786  14.343
24757W        W96483  30.129  15.810  12.416
24758W        W96484  10.778  13.157  13.337
24759W        W96485  20.062  13.303  11.449
24760W        W96486   2.452  27.558   1.335
24761W        W96487  16.122  35.985   4.582
24762W        W96488  14.986  41.023   5.459
24763W        W96489  40.608  24.609   4.286
24764W        W96490  22.557  24.670   2.616
24765W        W96491  10.274  26.162   2.679
24766W        W96492  39.886  27.397   3.297
24767W        W96493   1.341  40.136  11.545
24768W        W96494  17.501   1.559   2.751
24769W        W96495  28.848  34.191   4.964
24770W        W96496  34.630   6.285   0.446
24771W        W96497  10.794  42.249   4.822
24772W        W96498  34.984   7.063  12.545
24773W        W96499   5.608  24.140  14.283
24774W        W96500  34.790  29.725  13.525
24775W        W96501  42.376  39.508   0.241
24776W        W96502  31.302  11.935  11.670
24777W        W96503   7.717  27.649  13.062
24778W        W96504  20.095  39.484  13.924
24779W        W96505  41.081  36.325   1.344
24780W        W96506  25.498  10.375   1.116
24781W        W96507  27.971  28.500  13.275
24782W        W96508  13.521  16.954  12.409
24783W        W96509   4.775   9.774   3.313
24784W        W96510  17.362  23.642  11.079
24785W        W96511  22.717  35.924   0.413
24786W        W96512  26.649   6.331   1.717
24787W        W96513  23.015  38.815  13.071
24788W        W96514  44.170   4.139   2.783
24789W        W96515   5.729  22.569  13.381
24790W        W96516  35.375   6.833   1.196
24791W        W96517  33.475   4.012  12.855
24792W        W96518  15.388  30.879   1.773
24793W        W96519  17.063  12.863   1.793
24794W        W96520   0.688  41.808  11.500
24795W        W96521  24.845   7.503   3.987
24796W        W96522  32.566  18.767   0.934
24797W        W96523  21.030   1.920   5.059
24798W        W96524  39.523   7.131   5.053
24799W        W96525  38.823  21.071  10.796
24800W        W96526   5.845   8.129   2.431
24801W        W96527  10.744  38.651  10.090
24802W        W96528  17.620  20.567  11.528
24803W        W96529  33.102   3.963   1.767
24804W        W96530  11.174  29.786  13.017
24805W        W96531  33.598  43.549   5.041
24806W        W96532  23.696  39.504   1.753
24807W        W96533   2.251  39.161   3.308
24808W        W96534  19.573   5.824   3.645
24809W        W96535  27.186  14.651  13.034
24810W        W96536   2.448  44.239  11.965
24811W        W96537  23.457  39.729  12.900
24812W        W96538   7.806  10.836   4.735
24813W        W96539  19.235  38.754   0.791
24814W        W96540   9.440  14.266  12.337
24815W        W96541  15.513   0.408   1.206
24816W        W96542   7.572   6.718   3.288
24817W        W96543  22.308  32.415   2.818
24818W        W96544   3.141   9.797  12.930
24819W        W96545  27.634  16.078   0.274
24820W        W96546  16.572  28.003   2.273
24821W        W96547  37.985  27.684  12.612
24822W        W96548  11.886  39.504   0.570
24823W        W96549   0.269  13.171  14.056
24824W        W96550  14.810  33.853   3.205
24825W        W96551   8.445  31.996  11.591
24826W        W96552  22.451  29.611   0.768
24827W        W96553  28.495  30.410   3.129
24828W        W96554  20.534  34.651   1.900
24829W        W96555  15.519  25.517  14.347
24830W        W96556  22.544  44.403  13.099
24831W        W96557  35.069  43.898  12.011
24832W        W96558  34.709  37.609  12.887
24833W        W96559  40.961  12.789   4.914
24834W        W96560  37.485   9.153  10.865
24835W        W96561  10.390  38.287   0.138
24836W        W96562   8.625  39.995  14.682
24837W        W96563  24.925  29.995   0.320
24838W        W96564  16.082  40.289  10.202
24839W        W96565   4.815   8.982   5.090
24840W        W96566  12.883  39.570   3.639
24841W        W96567  32.054   7.053  11.016
24842W        W96568   7.691  34.794   3.551
24843W        W96569  21.904  25.691   4.122
24844W        W96570  24.638  44.765   4.147
24845W        W96571   0.217  21.252   2.284
24846W        W96572  43.500  20.218  12.414
24847W        W96573  28.207  36.750  12.477
24848W        W96574  33.582  18.562  12.070
24849W        W96575   8.649  29.473  11.575
24850W        W96576  21.740  15.685  13.940
24851W        W96577  17.299  19.078  12.092
24852W        W96578  32.105  31.382  13.516
24853W        W96579  38.532  12.617  13.430
24854W        W96580   7.804   9.789   0.863
24855W        W96581  10.366  32.509   0.282
24856W        W96582   5.449  33.042  11.149
24857W        W96583  33.557  44.072   1.352
24858W        W96584  34.794  18.541   4.033
24859W        W96585  36.559  18.975   2.283
24860W        W96586  31.573  11.754  10.528
24861W        W96587  26.153   8.107  14.442
24862W        W96588  35.481  27.178   4.199
24863W        W96589  16.129  42.974  11.982
24864W        W96590  30.568  23.590  12.601
24865W        W96591   2.688   4.403   1.170
24866W        W96592  34.492  15.859   3.104
24867W        W96593  38.654  17.012   4.100
24868W        W96594  17.453  41.264   1.276
24869W        W96595  25.036   2.975   4.568
24870W        W96596   7.215   0.312   2.896
24871W        W96597  31.557  40.243  12.469
24872W        W96598  10.558  21.849  14.515
24873W        W96599  34.428   8.654  11.534
24874W        W96600  22.806  44.241  10.644
24875W        W96601  30.716  38.498   4.932
24876W        W96602   0.717  30.925  10.732
24877W        W96603  43.208  34.328   1.769
24878W        W96604  41.633  26.451   3.224
24879W        W96605  21.356  41.214  13.642
24880W        W96606  29.978  32.018   0.249
24881W        W96607  27.239  11.579   5.039
24882W        W96608  23.537   0.308   3.190
24883W        W96609  16.811  29.911   4.362
24884W        W96610  15.281  23.174  12.442
24885W        W96611  37.110   0.512   3.474
24886W        W96612  20.345  25.598   4.851
24887W        W96613  12.373   2.451  14.918
24888W        W96614  26.556  21.745  10.784
24889W        W96615   8.210  21.169  14.299
24890W        W96616  27.048  39.818  13.862
24891W        W96617  38.870   1.802  12.907
24892W        W96618  25.746  30.366  12.548
24893W        W96619  25.057  24.564  14.868
24894W        W96620  29.431   0.663  10.691
24895W        W96621  23.320  14.161  12.195
24896W        W96622  30.407   6.237  11.504
24897W        W96623  43.208  22.907   0.856
24898W        W96624  30.934  20.279  13.035
24899W        W96625   6.804   3.682  14.022
24900W        W96626   4.646  10.366  12.602
24901W        W96627  25.261  16.700  14.893
24902W        W96628  21.444  26.933  11.046
24903W        W96629  27.927  27.598  13.234
24904W        W96630   2.789   5.980  11.744
24905W        W96631   1.761  43.936   1.817
24906W        W96632  39.701  14.589  12.588
24907W        W96633  25.132  14.663  13.589
24908W        W96634   1.864  27.628   3.628
24909W        W96635  32.857  20.157  14.838
24910W        W96636  36.162  16.128   5.011
24911W        W96637  20.074   6.026   0.447
24912W        W96638   5.341   8.630  11.092
24913W        W96639   4.762  33.813   0.386
24914W        W96640  29.070  40.498   0.288
24915W        W96641  27.561  38.080  10.788
24916W        W96642  42.921  29.429   4.050
24917W        W96643  12.962   2.183   0.907
24918W        W96644  30.445  33.367   4.156
24919W        W96645   2.533  28.434  10.675
24920W        W96646  27.759  32.888   4.616
24921W        W96647  13.348  24.597   1.265
24922W        W96648  34.160  20.337   1.731
24923W        W96649  38.914  34.119   2.326
24924W        W96650  33.355  39.082   0.667
24925W        W96651  21.362  31.063  14.723
24926W        W96652   0.713  42.763  12.478
24927W        W96653  11.476  15.173  13.768
24928W        W96654   6.457  41.681   3.688
24929W        W96655   3.211  25.603  14.901
24930W        W96656  40.745  20.710  13.611
24931W        W96657   7.153  13.136   4.941
24932W        W96658  44.812  14.111  14.353
24933W        W96659  14.956  41.266  11.267
24934W        W96660  27.904   4.060  11.366
24935W        W96661   8.187  35.076  13.287
24936W        W96662  25.178   3.464  14.899
24937W        W96663  17.734  29.659   0.797
24938W        W96664   7.863   1.313  14.622
24939W        W96665  14.357  17.570   2.681
24940W        W96666   6.896   0.201   0.387
24941W        W96667  36.357  33.664   2.655
24942W        W96668  22.214  27.943  12.913
24943W        W96669   0.194  12.220   2.823
24944W        W96670   3.387  40.514   2.346
24945W        W96671  13.413  20.044   2.272
24946W        W96672  35.350  34.577   2.785
24947W        W96673  44.666  43.288  13.006
24948W        W96674  33.587  19.496  12.899
24949W        W96675   4.408   6.414   5.457
24950W        W96676  24.303  13.679  12.544
24951W        W96677  36.699  37.671  11.927
24952W        W96678  13.177  18.664   4.276
24953W        W96679   1.015  26.997   3.981
24954W        W96680  29.920  25.134   3.003
24955W        W96681   8.883  39.288   4.752
24956W        W96682  13.614  30.873   4.756
24957W        W96683  43.665   8.484   1.877
24958W        W96684  21.984  10.398  12.210
24959W        W96685  18.351  32.494  12.491
24960W        W96686  28.913   7.704  12.859
24961W        W96687   2.283  24.404   1.115
24962W        W96688  25.971  29.195   4.576
24963W        W96689   5.721  24.816   2.023
24964W        W96690   8.323   4.697   1.854
24965W        W96691  30.567  22.615   4.156
24966W        W96692  14.067  20.105  10.569
24967W        W96693  17.898  25.988   4.090
24968W        W96694  22.176  18.804   2.695
24969W        W96695   5.235  17.387   0.925
24970W        W96696   2.034  20.644  14.035
24971W        W96697   5.232  15.770   0.655
24972W        W96698   2.028   1.641   1.325
24973W        W96699  11.728  40.652  13.391
24974W        W96700  43.916  36.395  14.026
24975W        W96701  41.818  33.422   4.556
24976W        W96702  13.562   0.782   4.173
24977W        W96703  41.318  10.362  14.360
24978W        W96704  27.093  15.012   0.820
24979W        W96705   8.262  10.290   0.369
24980W        W96706  27.549  22.015   1.418
24981W        W96707  26.213  20.537   4.289
24982W        W96708  34.433  17.057  11.202
24983W        W96709   0.255   2.896   3.228
24984W        W96710  24.201  15.241  13.546
24985W        W96711  44.915   1.035  14.328
24986W        W96712  38.006  19.097  14.004
24987W        W96713   4.460  42.496  10.591
24988W        W96714  30.160  32.515   2.226
24989W        W96715  43.276   6.576   4.446
24990W        W96716  25.975   0.713  14.742
24991W        W96717   2.418  16.045   3.301
24992W        W96718  11.614   7.934   0.518
24993W        W96719  13.918   9.980   4.162
24994W        W96720   5.822   1.454   4.054
24995W        W96721   4.663  18.407   3.445
24996W        W96722  25.668  37.028  11.178
24997W        W96723  17.049  25.117  11.204
24998W        W96724  43.864  43.028   3.691
24999W        W96725   4.857  29.933  13.826
25000W        W96726  16.780  30.880   4.635
25001W        W96727  34.612  35.031  14.789
25002W        W96728  24.755  16.581  14.813
25003W        W96729  25.123   3.989  14.905
25004W        W96730  17.379  43.689  13.553
25005W        W96731  35.109  28.934   0.042
25006W        W96732   0.003  34.869  12.367
25007W        W96733  36.112   1.042  12.118
25008W        W96734   7.659   5.333   4.795
25009W        W96735  38.363  40.060  11.626
25010W        W96736   5.318   7.286   0.543
25011W        W96737  24.125  34.494   2.259
25012W        W96738  35.990  30.255   1.294
25013W        W96739   2.720   0.233   1.929
25014W        W96740  42.313  16.040   4.950
25015W        W96741  41.782  24.124  11.098
25016W        W96742   4.486  15.854  12.381
25017W        W96743  24.434  27.848  12.414
25018W        W96744  39.764  39.815   2.682
25019W        W96745   1.848  11.736   2.206
25020W        W96746  38.398  17.658   1.473
25021W        W96747  38.865  24.600   2.168
25022W        W96748  43.481  10.885  12.450
25023W        W96749  41.516  14.721  11.912
25024W        W96750  26.838  29.078   1.943
25025W        W96751  24.985  22.951  13.380
25026W        W96752   1.365  12.715   0.796
25027W        W96753  28.460  40.433  10.554
25028W        W96754   0.691  28.998   3.767
25029W        W96755  19.382  38.387  13.369
25030W        W96756  24.082  14.180   0.619
25031W        W96757  26.119   9.287  14.831
25032W        W96758  36.407  15.220  14.629
25033W        W96759  31.742   9.457   1.814
25034W        W96760  28.499  37.143  12.346
25035W        W96761  27.932  15.168  13.140
25036W        W96762  38.479  35.100   1.013
25037W        W96763  41.362  33.908  13.377
25038W        W96764  37.255  38.712  14.737
25039W        W96765  31.979  28.932   2.210
25040W        W96766  23.767   5.109  14.977
25041W        W96767  41.849   7.920   1.847
25042W        W96768   8.324  26.092  12.574
25043W        W96769  16.559   5.728   2.311
25044W        W96770   2.196  26.787  13.394
25045W        W96771  22.745  35.401   2.308
25046W        W96772   7.960  30.134   3.691
25047W        W96773  33.552  28.831  11.882
25048W        W96774   1.434  33.615   1.464
25049W        W96775  38.861  44.731   1.310
25050W        W96776  12.418  13.877  13.934
25051W        W96777  13.894  30.041   3.693
25052W        W96778  17.191  20.618  10.682
25053W        W96779  28.055  37.260   3.899
25054W        W96780  22.563  35.855   1.491
25055W        W96781  28.598  20.284   3.269
25056W        W96782  41.879  41.014  12.449
25057W        W96783  36.397  18.763   2.808
25058W        W96784  17.655   7.352   3.322
25059W        W96785  15.871  18.668  13.467
25060W        W96786  18.202   6.560   2.439
25061W        W96787  35.817  14.572  11.142
25062W        W96788   0.832  12.230   3.734
25063W        W96789   1.856  18.774   0.248
25064W        W96790  23.474   7.358   0.533
25065W        W96791  39.770  14.334   4.520
25066W        W96792  20.684   3.932   0.829
25067W        W96793  30.555  26.737  11.040
25068W        W96794  27.097  11.301   0.444
25069W        W96795  17.125  34.758   4.961
25070W        W96796   0.009  24.573   4.683
25071W        W96797  13.282  25.960  14.161
25072W        W96798  29.667   2.351   4.936
25073W        W96799   7.689  24.918  14.296
25074W        W96800  39.030   2.863   5.120
25075W        W96801   2.648  38.186   4.988
25076W        W96802  11.187   1.207   3.480
25077W        W96803  16.090  18.806  13.988
25078W        W96804   8.389  11.732  11.067
25079W        W96805  35.620  29.968   2.057
25080W        W96806   3.859  14.935   3.027
25081W        W96807  31.030   2.121  10.799
25082W        W96808  33.558  26.405  11.614
25083W        W96809  15.325  19.721   4.857
25084W        W96810  16.179  22.133   0.771
25085W        W96811  38.065  13.410   0.489
25086W        W96812  27.881  19.478   0.302
25087W        W96813  27.904  24.632   4.058
25088W        W96814  34.667   1.731  11.038
25089W        W96815   9.282  14.285  11.477
25090W        W96816   4.184  13.794   3.620
25091W        W96817  14.361  12.476   0.802
25092W        W96818  35.325  19.653   1.498
25093W        W96819  14.087  19.233   1.677
25094W        W96820  32.130  15.217   3.502
25095W        W96821  14.168  29.628  12.035
25096W        W96822  21.271  30.836   1.610
25097W        W96823  30.070  11.437   2.296
25098W        W96824   2.223  35.029  14.863
25099W        W96825   5.391  35.467  13.805
25100W        W96826  37.582   7.379   3.195
25101W        W96827  12.634  19.165  12.146
25102W        W96828  41.311  25.665   2.875
25103W        W96829  30.183  43.731  13.542
25104W        W96830  12.971   3.712  11.517
25105W        W96831  41.242  33.370  13.360
25106W        W96832   8.510  30.160   1.663
25107W        W96833   7.737  13.178  11.066
25108W        W96834  35.224  35.501  11.935
25109W        W96835  15.875  24.196  14.818
25110W        W96836  20.596  40.423  13.083
25111W        W96837  10.729  36.178  14.914
25112W        W96838  20.064  13.758  12.196
25113W        W96839  10.875  44.751   0.101
25114W        W96840   8.733  41.458   0.052
25115W        W96841  31.484  39.576   1.706
25116W        W96842  36.105  31.550   3.243
25117W        W96843  23.910  23.790   1.687
25118W        W96844  10.415  35.719  10.749
25119W        W96845  37.562   7.724   1.360
25120W        W96846  30.697  14.055  11.112
25121W        W96847   2.721   6.779   1.214
25122W        W96848  35.022  32.858  13.482
25123W        W96849  31.636  29.363   1.867
25124W        W96850  19.277   7.287  12.924
25125W        W96851  24.208  14.818   5.098
25126W        W96852  38.751  35.420   2.260
25127W        W96853  17.152   1.194  13.591
25128W        W96854  29.036  20.059  10.604
25129W        W96855  19.488  35.671   2.308
25130W        W96856   2.607  18.705  11.134
25131W        W96857  11.847   5.121   2.148
25132W        W96858   6.714  10.656  11.078
25133W        W96859  24.242  42.034  14.961
25134W        W96860  20.580   8.460   3.447
25135W        W96861   2.027  42.794  14.231
25136W        W96862   4.496  14.867  10.661
25137W        W96863  37.266  28.843   4.144
25138W        W96864  42.009  35.463   2.880
25139W        W96865  16.221  16.751  11.546
25140W        W96866  30.575  12.183  14.191
25141W        W96867  41.029  38.185   5.001
25142W        W96868  32.421  14.280   3.646
25143W        W96869  16.872  16.486  14.451
25144W        W96870  13.270  43.239   4.558
25145W        W96871  44.216  30.533  11.009
25146W        W96872  19.019  40.838   0.306
25147W        W96873  31.396   6.193  11.677
25148W        W96874  25.488  34.492   2.267
25149W        W96875  24.450  40.489  14.633
25150W        W96876  31.097   2.372   2.735
25151W        W96877   7.425  41.969  13.514
25152W        W96878  36.018   4.590  14.583
25153W        W96879  24.634  17.987   3.164
25154W        W96880   4.807  28.180   2.884
25155W        W96881  10.364  28.687   2.668
25156W        W96882  31.675  36.542   2.722
25157W        W96883  44.458   0.920  14.936
25158W        W96884  18.460  17.514   2.637
25159W        W96885   4.414  33.321  10.676
25160W        W96886  40.234  37.315  11.401
25161W        W96887  25.177  39.353   1.422
25162W        W96888   4.925  20.467   0.260
25163W        W96889  33.189   0.491   1.859
25164W        W96890  25.765  34.391  11.494
25165W        W96891   0.401   9.849  12.382
25166W        W96892   4.839  38.424   2.155
25167W        W96893  28.775  13.354   0.930
25168W        W96894  20.713  26.226  13.456
25169W        W96895  25.860   5.972   1.186
25170W        W96896   1.379  15.789  13.717
25171W        W96897  21.594  43.454  13.751
25172W        W96898   8.704  30.646  14.968
25173W        W96899  24.265  16.626   0.796
25174W        W96900  12.598  28.713   3.611
25175W        W96901  41.453  30.564   2.277
25176W        W96902  26.628  37.903   1.846
25177W        W96903   3.759  34.305  10.539
25178W        W96904   4.411  34.589   0.345
25179W        W96905  30.982  14.794  13.071
25180W        W96906   8.298  32.960  14.264
25181W        W96907  39.535   9.350  11.177
25182W        W96908  16.794  34.104   1.956
25183W        W96909  26.434  39.665   0.697
25184W        W96910   5.445   1.087  12.728
25185W        W96911  14.721  13.916  11.627
25186W        W96912   4.711  44.827   2.178
25187W        W96913  27.603  34.126  14.773
25188W        W96914  23.225  10.735  14.116
25189W        W96915  25.183  35.385   2.705
25190W        W96916  22.575   6.378  12.341
25191W        W96917   2.252  10.729  11.642
25192W        W96918   6.402  44.127  11.449
25193W        W96919   4.323  14.655   5.265
25194W        W96920  28.492  44.255   1.716
25195W        W96921  11.924  39.672   3.899
25196W        W96922  17.531  23.582  12.438
25197W        W96923  14.617   4.702   2.093
25198W        W96924  20.792  26.758   3.352
25199W        W96925  40.406   6.897  13.947
25200W        W96926  27.019  26.633   3.119
25201W        W96927  24.699  21.703  13.969
25202W        W96928   0.762  42.760   0.231
25203W        W96929  42.228  22.762  11.019
25204W        W96930  28.730  23.576  14.868
25205W        W96931   0.216  24.950   1.397
25206W        W96932  21.464  29.115  11.093
25207W        W96933   0.899   4.037   1.680
25208W        W96934  22.470  22.824  12.536
25209W        W96935   6.722  24.050  13.461
25210W        W96936  17.738  40.901   3.104
25211W        W96937  15.082  22.442  10.924
25212W        W96938  14.712   2.323   2.391
25213W        W96939  27.468  28.452   1.904
25214W        W96940  21.566  40.870   4.427
25215W        W96941  10.846  36.902  11.134
25216W        W96942  44.390  17.134   1.485
25217W        W96943  39.729  42.551  11.203
25218W        W96944   0.798  20.062   1.387
25219W        W96945  38.359  33.334  10.026
25220W        W96946  32.087  17.630  11.601
25221W        W96947   7.322  21.031  13.968
25222W        W96948  22.723  42.749  13.519
25223W        W96949   9.735  42.013  11.555
25224W        W96950  38.138   4.968   4.120
25225W        W96951  24.127  24.244  12.483
25226W        W96952  24.743  24.155   2.967
25227W        W96953   7.569  16.933  12.904
25228W        W96954  37.395  31.090  11.292
25229W        W96955  42.382  41.733  13.620
25230W        W96956  19.974  39.331  12.554
25231W        W96957  13.345  34.070  11.124
25232W        W96958  14.023  26.268   3.645
25233W        W96959  35.466  25.788   3.750
25234W        W96960  34.970  40.617  12.866
25235W        W96961  24.685  42.304  14.883
25236W        W96962  41.927  44.530   3.140
25237W        W96963   2.418  27.263   4.536
25238W        W96964  10.115  24.513  12.434
25239W        W96965  26.270  29.379  11.255
25240W        W96966  19.110  29.697  13.500
25241W        W96967  36.686   7.665   3.633
25242W        W96968  10.363  28.936   4.693
25243W        W96969  34.406  27.590  11.184
25244W        W96970  16.646  34.857   3.529
25245W        W96971  16.262  20.000  12.017
25246W        W96972  13.808  34.795   1.850
25247W        W96973  33.788   0.870  11.474
25248W        W96974  41.010   8.149  10.829
25249W        W96975  10.695  10.779  13.513
25250W        W96976   3.900  43.169   3.227
25251W        W96977  38.956   2.747   3.426
25252W        W96978  32.744  12.096   1.757
25253W        W96979  13.863  33.949  10.687
25254W        W96980  29.849  20.516  11.064
25255W        W96981  23.199  27.832  12.587
25256W        W96982  20.907  30.760   2.893
25257W        W96983  40.984  27.797   3.214
25258W        W96984  11.342  36.374   0.338
25259W        W96985  31.855  22.254   4.196
25260W        W96986  16.200  34.615  14.559
25261W        W96987  28.389  25.099  14.821
25262W        W96988  24.649  42.702   4.087
25263W        W96989   9.288  14.871  12.852
25264W        W96990  40.261  38.050   3.683
25265W        W96991  40.974  21.178  13.134
25266W        W96992  31.652  28.834   1.800
25267W        W96993  26.925  31.552   3.344
25268W        W96994  26.086  43.254   4.717
25269W        W96995  18.800  34.101  13.538
25270W        W96996  11.164  13.288   4.446
25271W        W96997   0.285  29.417  14.623
25272W        W96998   9.629  22.495  12.829
25273W        W96999  27.863  34.459  13.969
25274W        W97000  11.312   0.790   0.380
25275W        W97001  24.942   6.064   0.763
25276W        W97002  25.656  10.318  11.620
25277W        W97003  26.523   8.729  14.237
25278W        W97004  12.343  15.352  13.013
25279W        W97005  28.000  10.824  14.387
25280W        W97006  20.963  41.709  10.921
25281W        W97007  40.115  27.203   4.140
25282W        W97008  28.334   0.948   1.191
25283W        W97009  23.048  16.118  10.491
25284W        W97010  44.740   3.052   2.647
25285W        W97011  14.631  30.643   2.687
25286W        W97012  14.655  35.984  10.813
25287W        W97013  38.103  27.010   4.253
25288W        W97014  16.255   6.373   3.913
25289W        W97015  43.242  36.481  12.741
25290W        W97016  40.902  29.499   4.796
25291W        W97017  30.184  13.671   2.804
25292W        W97018  26.932  29.076  14.003
25293W        W97019  38.537  35.975   0.741
25294W        W97020  39.982   6.939  12.950
25295W        W97021  20.228  36.497   1.570
25296W        W97022  19.305   4.011   0.783
25297W        W97023  29.258  10.281  13.544
25298W        W97024  23.050  10.398   2.930
25299W        W97025   7.386   9.764  11.494
25300W        W97026   9.873   6.829  10.652
25301W        W97027  31.664  32.867  12.392
25302W        W97028  44.025  29.684   3.276
25303W        W97029   6.521  28.983  14.545
25304W        W97030  41.540  18.229  11.564
25305W        W97031  13.670  29.942   0.516
25306W        W97032   8.332  16.328  14.897
25307W        W97033  39.759  12.655  11.190
25308W        W97034  44.017  21.083   4.224
25309W        W97035   2.894  30.172   0.890
25310W        W97036  40.311  26.445  11.155
25311W        W97037  36.889  13.755  11.456
25312W        W97038  31.957   2.955   1.199
25313W        W97039  15.143   9.640   1.541
25314W        W97040  24.700   7.518  10.891
25315W        W97041  13.171   7.274   4.471
25316W        W97042  43.980   9.337   3.771
25317W        W97043  16.285   9.332  14.245
25318W        W97044  41.266  28.752   2.978
25319W        W97045  25.067  28.947   2.177
25320W        W97046  20.409  28.736   1.450
25321W        W97047  24.126  29.975  12.091
25322W        W97048  43.437  39.239  14.465
25323W        W97049  14.309  13.581   4.516
25324W        W97050  43.857  34.394   1.386
25325W        W97051  15.978  40.924   4.617
25326W        W97052   1.292  16.892   4.030
25327W        W97053  32.290  19.722   2.104
25328W        W97054   9.899   4.324  12.049
25329W        W97055  15.777  18.544   3.616
25330W        W97056  34.333  35.067  12.101
25331W        W97057  38.886  23.028  12.274
25332W        W97058  29.576  26.231   3.810
25333W        W97059  17.779  28.517   3.146
25334W        W97060   6.288   6.308   2.283
25335W        W97061  20.473   8.220  12.044
25336W        W97062  18.062  33.887  13.823
25337W        W97063  16.146  37.685  13.807
25338W        W97064  39.512  34.142   4.096
25339W        W97065  44.277   7.184  11.118
25340W        W97066  39.169  18.076   0.121
25341W        W97067  14.753  39.246   3.780
25342W        W97068  20.437  19.041  14.935
25343W        W97069  25.498  27.824  13.056
25344W        W97070  17.275  34.363  11.992
25345W        W97071  18.778   2.178  12.532
25346W        W97072  39.913  23.091  13.172
25347W        W97073   2.786   5.812   1.669
25348W        W97074  42.526  20.297  12.051
25349W        W97075   8.099  32.412   2.494
25350W        W97076   0.390  26.430   0.354
25351W        W97077  22.557  14.364   1.222
25352W        W97078  25.983  24.375  10.564
25353W        W97079  39.896  28.934   0.847
25354W        W97080   5.506  10.172   3.435
25355W        W97081  33.817  14.606  14.861
25356W        W97082  38.470  40.303  11.181
25357W        W97083   9.731  18.221  10.565
25358W        W97084  19.773  38.772   4.346
25359W        W97085   9.251  40.774  10.906
25360W        W97086  33.166  26.000   0.770
25361W        W97087  25.953  31.921   1.351
25362W        W97088  13.786  23.314  12.420
25363W        W97089  25.011  26.233  10.258
25364W        W97090  35.657  15.744   3.704
25365W        W97091  26.538  23.620  11.911
25366W        W97092  10.820  32.934   2.584
25367W        W97093  33.521   4.849   3.334
25368W        W97094  35.323  23.745   1.802
25369W        W97095  25.643  33.818   4.734
25370W        W97096  35.589  42.151   3.526
25371W        W97097  34.991  12.604  13.325
25372W        W97098   3.616  44.824  14.103
25373W        W97099   5.877  38.202   2.250
25374W        W97100  35.588   8.393  13.084
25375W        W97101  39.580  16.184  11.095
25376W        W97102  17.575  38.949   3.287
25377W        W97103   7.835   8.709   0.819
25378W        W97104  40.399  25.968   1.316
25379W        W97105  40.429  15.044  12.483
25380W        W97106   0.889  29.458   2.285
25381W        W97107   3.210  30.674   1.763
25382W        W97108  34.905  17.692  12.687
25383W        W97109  42.518  17.757  12.578
25384W        W97110  12.268  20.632   1.325
25385W        W97111   5.285  25.564   4.668
25386W        W97112  32.317   2.197   1.822
25387W        W97113  25.757  13.418   0.874
25388W        W97114  43.391  17.104  11.208
25389W        W97115  21.217  21.208  10.623
25390W        W97116  13.273  37.393   3.779
25391W        W97117  15.920   6.533   4.568
25392W        W97118  37.189  24.747   4.134
25393W        W97119  15.245   7.385   3.256
25394W        W97120  44.835   6.665   0.155
25395W        W97121  11.957  18.864   2.194
25396W        W97122   3.873   3.236   0.104
25397W        W97123  33.986  22.469  14.416
25398W        W97124   1.289  37.754  12.056
25399W        W97125  42.318  33.062  11.558
25400W        W97126   5.385  17.363  14.634
25401W        W97127  40.775  34.747  12.879
25402W        W97128  41.830  43.292   0.512
25403W        W97129  24.002  32.937  11.051
25404W        W97130  39.676  41.523   0.543
25405W        W97131  41.218  10.803  10.876
25406W        W97132   5.404  18.563  11.187
25407W        W97133  31.948  42.844   3.394
25408W        W97134  24.198  22.769   2.645
25409W        W97135  28.358  23.462   3.259
25410W        W97136   0.463   7.193  12.049
25411W        W97137   9.915  19.766  11.238
25412W        W97138  42.761  35.631  14.753
25413W        W97139  23.235  38.378   2.725
25414W        W97140  23.663  33.289   4.939
25415W        W97141  31.233  13.731   4.214
25416W        W97142  10.628  12.716   0.335
25417W        W97143  29.767  28.241   2.434
25418W        W97144  38.644   4.015   4.120
25419W        W97145  17.308  23.610  10.578
25420W        W97146  38.530  30.612  13.836
25421W        W97147  35.147  22.077   4.468
25422W        W97148  41.376   3.714   4.627
25423W        W97149  37.008  16.547   0.383
25424W        W97150  21.039  34.036  12.856
25425W        W97151  39.490  34.511  12.889
25426W        W97152  34.376  12.160   4.921
25427W        W97153  38.438  31.164  12.123
25428W        W97154  26.667   7.572  12.814
25429W        W97155  34.098  14.777   1.216
25430W        W97156  39.205  26.066   3.075
25431W        W97157  15.684  17.022   2.910
25432W        W97158  19.601  35.479  14.164
25433W        W97159   9.639   0.993   3.138
25434W        W97160  21.607  27.413  11.874
25435W        W97161  19.674  22.622  10.739
25436W        W97162   7.248   8.406  11.275
25437W        W97163  41.995  31.055   0.768
25438W        W97164  30.556  37.794   4.282
25439W        W97165   3.811   3.208  14.586
25440W        W97166  36.529  34.087   0.345
25441W        W97167   5.274  30.098   1.570
25442W        W97168   1.447  14.595  10.682
25443W        W97169   9.207  23.441   3.460
25444W        W97170  19.620  41.754  12.404
25445W        W97171  34.332  38.944   5.002
25446W        W97172  34.914  17.599   0.034
25447W        W97173  40.289   3.776  14.004
25448W        W97174  39.802  13.529  12.379
25449W        W97175  28.236   5.543   0.684
25450W        W97176  13.055  35.042  12.922
25451W        W97177   8.745  37.410   2.385
25452W        W97178  40.974   0.749  13.341
25453W        W97179   6.185  39.617  11.387
25454W        W97180  20.553  43.869   0.543
25455W        W97181  13.003  32.499   1.495
25456W        W97182   5.609  41.130  13.535
25457W        W97183  41.135  42.387   3.242
25458W        W97184  17.288   6.887   4.702
25459W        W97185   9.820  16.920   3.306
25460W        W97186   3.636  31.937  12.445
25461W        W97187   4.324   0.938   2.132
25462W        W97188  26.990  29.402  10.672
25463W        W97189  41.331   7.240   4.729
25464W        W97190  19.560  32.495  14.386
25465W        W97191   9.396  36.061  11.572
25466W        W97192  41.954   6.181  13.323
25467W        W97193  44.618  42.382   2.034
25468W        W97194   8.448  20.616   0.514
25469W        W97195  39.434  24.645  10.673
25470W        W97196  31.997  39.415   1.010
25471W        W97197  20.514   0.753  12.216
25472W        W97198  17.395  37.027  12.069
25473W        W97199  44.055  24.009  10.861
25474W        W97200  37.526  35.518  10.504
25475W        W97201  30.978  35.099   0.032
25476W        W97202  38.652  32.571   3.343
25477W        W97203  13.847  41.789  11.227
25478W        W97204  11.649   5.974  10.747
25479W        W97205  38.456  21.745  11.553
25480W        W97206  26.297  10.389  13.465
25481W        W97207   1.261   7.619  12.034
25482W        W97208  18.259  24.122   4.342
25483W        W97209   6.362  35.083   4.528
25484W        W97210  15.617  43.028  13.072
25485W        W97211  22.366  25.987   4.920
25486W        W97212  27.908  31.812  11.698
25487W        W97213   1.902  39.123   2.210
25488W        W97214  41.219  21.658   2.898
25489W        W97215  40.389  29.215  13.854
25490W        W97216  18.645  40.679   1.346
25491W        W97217   9.828  33.458  11.060
25492W        W97218  26.840  10.855  11.825
25493W        W97219  33.343  32.354  12.087
25494W        W97220  32.168  39.816  13.834
25495W        W97221  17.490  26.600  11.138
25496W        W97222  35.205  42.923  12.406
25497W        W97223  33.032  20.819  11.150
25498W        W97224   4.836  25.263  13.786
25499W        W97225  24.532   8.379   4.197
25500W        W97226  32.037  29.179  12.966
25501W        W97227  27.145   0.125   5.014
25502W        W97228   4.419   8.716  10.712
25503W        W97229  38.359  35.617   1.052
25504W        W97230  33.137   6.166  13.814
25505W        W97231  22.967  24.513   0.847
25506W        W97232   4.797  38.280  13.051
25507W        W97233  27.848  24.719  11.471
25508W        W97234  28.598  27.211   0.576
25509W        W97235  13.747  19.045  14.451
25510W        W97236  38.802  32.459  12.913
25511W        W97237  19.015  13.581  14.930
25512W        W97238   3.384  31.515  14.972
25513W        W97239  36.391   0.211   2.344
25514W        W97240  17.532  44.829   1.424
25515W        W97241   1.285   4.700  13.707
25516W        W97242   2.069  14.122  12.617
25517W        W97243   3.789  11.690  12.914
25518W        W97244   4.178  30.998  11.578
25519W        W97245  29.942  35.125  14.010
25520W        W97246  40.113  21.134  12.924
25521W        W97247  31.433  14.810   2.336
25522W        W97248   1.721   3.813  10.705
25523W        W97249  42.848  37.908  13.103
25524W        W97250   7.941  28.754  10.949
25525W        W97251   4.176  12.248   4.843
25526W        W97252   2.354   5.069   1.963
25527W        W97253  22.969  41.838  14.023
25528W        W97254  19.112  33.657   4.954
25529W        W97255  25.053  25.581  13.460
25530W        W97256   0.931  17.486  14.772
25531W        W97257  33.229  12.894  11.083
25532W        W97258  29.570  20.236   3.241
25533W        W97259  25.476  18.227   4.588
25534W        W97260  42.419  18.574   4.748
25535W        W97261   9.801  32.876   5.071
25536W        W97262  16.607  37.941  13.861
25537W        W97263  18.251  41.428   2.531
25538W        W97264  12.690  34.571   1.018
25539W        W97265  18.204   7.697   2.916
25540W        W97266  33.338  11.235   0.407
25541W        W97267  21.663  21.594   3.242
25542W        W97268  21.785  18.220  14.424
25543W        W97269  13.732  15.750  14.346
25544W        W97270  26.980   5.387   0.400
25545W        W97271  12.012   7.178  14.452
25546W        W97272  16.684  23.471  14.700
25547W        W97273  25.713   4.009  13.992
25548W        W97274  33.614  20.750  12.539
25549W        W97275   7.958  42.541  12.043
25550W        W97276  43.382  38.090  13.454
25551W        W97277  17.343  17.254   0.230
25552W        W97278   3.358  41.347   1.443
25553W        W97279  32.749  30.064   2.207
25554W        W97280  25.947   3.151   2.969
25555W        W97281  37.492  11.274  14.824
25556W        W97282  25.143  29.653   4.656
25557W        W97283  41.851  24.786  14.295
25558W        W97284  16.315  43.127   4.197
25559W        W97285  39.370  10.323   0.558
25560W        W97286  40.949  25.666  13.516
25561W        W97287  29.739   8.353   3.197
25562W        W97288   7.889  18.294   1.363
25563W        W97289  37.348  23.624   3.822
25564W        W97290  13.211  19.289   0.357
25565W        W97291  35.382  43.931   4.052
25566W        W97292  38.118  31.069  13.531
25567W        W97293  10.922  36.297  10.733
25568W        W97294   5.860  10.362  13.863
25569W        W97295   7.262  28.504  11.629
25570W        W97296  29.235  24.400   0.992
25571W        W97297   6.442   3.264  10.370
25572W        W97298  16.950  18.052  13.886
25573W        W97299  29.675  25.236  11.613
25574W        W97300  44.091   5.268  12.997
25575W        W97301  33.135  21.661   2.241
25576W        W97302  37.987  38.820  14.998
25577W        W97303  15.695   8.790   1.786
25578W        W97304  36.017   4.322  10.556
25579W        W97305  41.142   0.819   2.689
25580W        W97306  25.944   4.210  11.558
25581W        W97307  31.105  19.383   3.942
25582W        W97308  21.618  31.044   4.953
25583W        W97309  42.923  38.352   0.949
25584W        W97310  30.824  25.862  11.033
25585W        W97311  13.394  15.099   0.544
25586W        W97312  16.152  36.474  11.924
25587W        W97313  17.765  23.674   2.666
25588W        W97314  10.412  19.795  11.397
25589W        W97315  17.647  38.441   2.243
25590W        W97316   7.317  18.493  14.734
25591W        W97317  21.924   2.722  12.648
25592W        W97318  41.003  32.923  13.423
25593W        W97319   4.500  37.109   0.506
25594W        W97320  31.592  26.250  14.420
25595W        W97321  25.186  14.902   0.069
25596W        W97322   4.448  29.666   1.364
25597W        W97323  40.765  35.389   4.036
25598W        W97324  19.129  39.377  12.285
25599W        W97325  18.242  16.951  10.775
25600W        W97326  16.330  43.943   3.897
25601W        W97327  15.045  10.540   1.731
25602W        W97328   3.212   4.849   3.724
25603W        W97329  36.047  15.290  13.782
25604W        W97330  19.974  26.635   2.137
25605W        W97331  31.605   2.214   2.581
25606W        W97332  38.378  18.931  12.917
25607W        W97333  12.555  39.355   3.202
25608W        W97334  24.039   5.700  12.923
25609W        W97335  23.940   3.061   2.821
25610W        W97336   4.430  18.071   1.746
25611W        W97337  42.871  34.909  11.009
25612W        W97338  17.023   3.212   3.029
25613W        W97339  22.541  17.276  10.176
25614W        W97340  13.125  30.410   2.299
25615W        W97341  33.893   1.228  10.598
25616W        W97342  27.161  40.868   0.777
25617W        W97343  40.629  44.632   0.694
25618W        W97344  34.953  36.627   1.929
25619W        W97345   2.146  15.345   1.269
25620W        W97346   8.674  13.648  13.036
25621W        W97347  42.762  36.133   3.357
25622W        W97348  42.943   3.933  13.736
25623W        W97349   0.261  14.827  11.226
25624W        W97350   1.113  32.008   3.350
25625W        W97351  35.995  22.979   1.750
25626W        W97352  25.936  25.461   1.678
25627W        W97353  39.317   6.723  14.927
25628W        W97354   6.820   5.713   1.508
25629W        W97355  15.883  37.102  14.446
25630W        W97356   3.314  37.301  13.907
25631W        W97357   4.955   1.217   2.777
25632W        W97358  11.384  23.186  14.358
25633W        W97359  25.775   1.391   4.110
25634W        W97360  37.027  32.392  12.370
25635W        W97361  20.784   0.191   3.157
25636W        W97362  11.176  11.330  10.270
25637W        W97363  32.082  27.492   1.809
25638W        W97364  32.749  28.476   3.412
25639W        W97365  35.496   9.122  12.585
25640W        W97366  15.303  39.360  11.953
25641W        W97367  43.493  27.438  14.061
25642W        W97368  15.591  33.492   4.552
25643W        W97369  33.928  34.364   3.761
25644W        W97370   7.866  43.924  14.769
25645W        W97371  38.031   4.406   3.629
25646W        W97372  44.469  28.230  11.952
25647W        W97373  41.092  38.389  14.641
25648W        W97374  40.769  33.520  14.094
25649W        W97375  15.837  34.948  11.098
25650W        W97376  32.654  43.528  13.556
25651W        W97377   1.726  34.814   4.610
25652W        W97378  23.174   3.004  12.967
25653W        W97379  33.374  14.644  11.171
25654W        W97380   4.889  19.163  10.626
25655W        W97381   9.783  17.547  14.294
25656W        W97382  27.645  10.656   3.631
25657W        W97383   8.422  39.626  12.301
25658W        W97384  26.956  41.762  10.654
25659W        W97385   4.696  27.137   4.581
25660W        W97386  30.892  39.341   4.716
25661W        W97387   2.830  44.624   4.180
25662W        W97388   7.320   3.150  13.029
25663W        W97389  35.805  21.451   2.005
25664W        W97390  37.963  10.861   3.622
25665W        W97391  12.585  33.613  11.086
25666W        W97392   3.407  34.407   3.718
25667W        W97393   1.211   3.939  12.550
25668W        W97394  20.197  10.269  14.747
25669W        W97395   3.438   8.459  12.221
25670W        W97396  27.589  33.572  10.550
25671W        W97397   2.934  44.797   4.660
25672W        W97398  39.954   3.988   3.798
25673W        W97399  33.829  10.420   0.548
25674W        W97400  40.732  20.273  11.761
25675W        W97401   2.594   0.764   0.275
25676W        W97402  32.398   8.131   4.753
25677W        W97403  44.373   8.821   4.712
25678W        W97404  43.438  34.982  14.456
25679W        W97405  32.358  15.812  13.005
25680W        W97406  27.624  40.133   4.240
25681W        W97407   1.493  40.382   4.409
25682W        W97408   8.523  34.763  13.546
25683W        W97409  10.215  18.165  10.796
25684W        W97410   8.586  32.532  13.431
25685W        W97411  11.152  26.032   1.803
25686W        W97412  36.822   2.062   2.727
25687W        W97413  18.278   6.323  13.936
25688W        W97414  23.028   6.323  12.079
25689W        W97415  36.316  40.048   1.905
25690W        W97416  41.611   7.770   3.652
25691W        W97417  10.727   5.798  10.545
25692W        W97418   4.483  10.682   1.515
25693W        W97419  20.537  17.007  11.590
25694W        W97420  26.442  21.874  12.555
25695W        W97421  22.995   3.474   3.607
25696W        W97422  41.603  22.906   4.206
25697W        W97423  18.887  27.111   0.656
25698W        W97424  39.473  21.591  11.611
25699W        W97425  16.399  33.943   4.502
25700W        W97426  23.028   0.305   4.333
25701W        W97427  31.408  10.303  12.834
25702W        W97428  31.961  38.440  12.280
25703W        W97429   5.646  13.308   1.309
25704W        W97430  18.170  34.637   0.931
25705W        W97431  18.775  21.417   0.442
25706W        W97432   9.154  16.393  11.044
25707W        W97433  40.936  27.020  14.773
25708W        W97434  36.508  42.551   2.838
25709W        W97435  17.393  33.788   2.510
25710W        W97436  32.079  44.416   3.546
25711W        W97437  34.664   9.143   4.461
25712W        W97438  29.910  24.972  14.803
25713W        W97439  20.113  18.118  11.248
25714W        W97440  12.345  17.450   2.907
25715W        W97441   1.442   0.237   4.190
25716W        W97442   1.799  42.090  12.080
25717W        W97443  34.802  38.874   0.746
25718W        W97444  18.826  42.507  12.434
25719W        W97445  32.799   7.307  14.351
25720W        W97446  12.933  29.711  14.446
25721W        W97447  26.172  36.294   3.609
25722W        W97448   6.404  24.632   2.814
25723W        W97449  18.256   5.198   1.803
25724W        W97450  24.234  33.978   2.354
25725W        W97451   4.493  16.635   5.525
25726W        W97452  16.237  39.561  13.032
25727W        W97453   9.230  39.986   3.306
25728W        W97454  17.274  24.955   0.669
25729W        W97455  37.697  17.593  14.381
25730W        W97456  29.560   1.524  12.058
25731W        W97457  40.314  39.336   1.246
25732W        W97458  11.194  24.744   3.613
25733W        W97459  33.969   9.539  12.287
25734W        W97460  41.874  23.724   0.525
25735W        W97461  20.474  39.842   2.188
25736W        W97462  42.297  18.221   1.952
25737W        W97463  39.906   3.949   0.406
25738W        W97464  26.756  35.107   4.046
25739W        W97465  33.641   6.779   2.815
25740W        W97466  13.763  39.297  14.323
25741W        W97467  11.672  32.207   1.453
25742W        W97468   0.968   0.445  13.093
25743W        W97469  37.417   9.387  10.350
25744W        W97470  24.123  15.777  11.097
25745W        W97471  21.496  10.670  11.063
25746W        W97472   5.683  24.460   0.884
25747W        W97473   7.333  10.220  14.063
25748W        W97474  41.787  38.370   4.903
25749W        W97475  14.616  20.201  13.405
25750W        W97476  33.699  36.941  14.801
25751W        W97477  17.709   2.065  14.386
25752W        W97478  24.267  16.790   1.672
25753W        W97479  37.508  42.402   2.758
25754W        W97480   6.049  40.420  14.857
25755W        W97481   8.403   4.819   4.666
25756W        W97482   7.270  16.666  10.749
25757W        W97483  27.920   7.680  12.037
25758W        W97484   6.332  16.942   1.644
25759W        W97485  24.640  14.073   1.335
25760W        W97486   1.198   7.955   3.189
25761W        W97487   1.038  20.986   1.125
25762W        W97488  38.833   4.889  10.693
25763W        W97489  26.748  11.108  11.001
25764W        W97490  25.930  41.471   5.059
25765W        W97491   3.501  11.701  14.316
25766W        W97492   7.887  38.901   0.774
25767W        W97493  34.416  38.515   0.844
25768W        W97494  18.017  42.402  11.444
25769W        W97495   2.466  39.849   1.220
25770W        W97496  44.877  29.451  13.835
25771W        W97497  25.086   2.971  14.847
25772W        W97498   2.724  28.884   2.081
25773W        W97499  18.137   4.269  11.075
25774W        W97500  26.713  27.155   2.245
25775W        W97501  26.176  31.979   3.400
25776W        W97502   2.985  15.205   3.161
25777W        W97503  22.175  11.328   2.253
25778W        W97504  42.788  44.562  10.764
25779W        W97505  36.798  28.066  12.140
25780W        W97506   4.733  34.809   4.670
25781W        W97507   2.798   0.459   3.878
25782W        W97508  18.829  13.110  11.638
25783W        W97509  13.158  23.510   1.164
25784W        W97510  26.071   2.646  11.632
25785W        W97511  23.062  33.944  12.833
25786W        W97512  21.254  25.023   3.970
25787W        W97513  23.619  24.264   1.800
25788W        W97514  34.024  24.071   4.244
25789W        W97515  42.014  31.379   2.301
25790W        W97516  38.122   6.844  12.865
25791W        W97517  20.746  43.908   4.369
25792W        W97518   2.889  16.592  13.653
25793W        W97519  39.332  17.695  13.366
25794W        W97520  28.699  31.205  14.318
25795W        W97521   7.444  20.138  11.471
25796W        W97522  25.462  23.103   2.125
25797W        W97523  18.964  32.255   3.636
25798W        W97524   9.192   3.266  12.183
25799W        W97525  12.127  31.586   0.794
25800W        W97526  37.248  24.748  11.037
25801W        W97527  27.082  44.983  11.018
25802W        W97528  21.642  27.959  13.478
25803W        W97529   2.222   2.752  11.274
25804W        W97530   0.240   9.216   4.586
25805W        W97531  20.579  35.531   2.254
25806W        W97532  35.828  38.871  14.312
25807W        W97533   5.153  41.364   3.250
25808W        W97534  10.747   4.562  14.358
25809W        W97535   8.207  19.197  11.208
25810W        W97536  20.840  32.224   3.842
25811W        W97537  14.777  22.356  12.687
25812W        W97538  40.133  30.479   0.001
25813W        W97539  26.014   3.687  11.543
25814W        W97540  25.553   1.667   0.227
25815W        W97541  22.276  40.805  10.776
25816W        W97542  31.820  41.319   3.251
25817W        W97543  30.857  13.181  12.040
25818W        W97544  16.206  34.135  14.243
25819W        W97545  15.086  44.378  14.287
25820W        W97546  17.199  30.017   4.675
25821W        W97547   6.908  44.809   4.668
25822W        W97548  10.173  33.553   3.607
25823W        W97549  11.744   6.822  11.540
25824W        W97550  36.515   1.264  14.412
25825W        W97551   4.747  40.311  13.080
25826W        W97552  18.796   5.785  12.609
25827W        W97553  36.039  41.420  10.789
25828W        W97554  16.416  26.888  14.856
25829W        W97555  16.376  26.901   4.249
25830W        W97556  23.521  18.831  11.561
25831W        W97557  15.501  16.748   2.516
25832W        W97558  32.419  17.637  12.949
25833W        W97559  42.717  39.126   0.206
25834W        W97560  16.297   2.197  12.416
25835W        W97561   2.122   8.952   5.085
25836W        W97562  16.174   1.262   2.706
25837W        W97563   6.143  18.055  13.314
25838W        W97564  10.595   7.102  12.535
25839W        W97565  19.027  31.015   1.818
25840W        W97566   8.977  20.356   3.627
25841W        W97567  23.086  17.601  13.893
25842W        W97568   3.589  25.680  14.520
25843W        W97569  30.125  28.489  10.871
25844W        W97570  25.233  28.270  12.000
25845W        W97571  23.709  10.375  12.558
25846W        W97572  39.531  26.209   2.270
25847W        W97573  11.833   6.612   4.092
25848W        W97574  42.507  38.116   0.269
25849W        W97575  12.195  41.354  10.631
25850W        W97576  13.014  27.408   2.891
25851W        W97577  36.494   2.891   0.813
25852W        W97578  34.615  24.894  12.329
25853W        W97579  31.935   5.880   0.531
25854W        W97580  29.941   1.905   4.815
25855W        W97581  42.483  11.703  10.964
25856W        W97582   8.206  36.085  13.534
25857W        W97583  36.781  24.252   2.718
25858W        W97584  31.813  22.130   1.110
25859W        W97585  26.179  25.600  11.556
25860W        W97586   8.455  17.980   3.128
25861W        W97587  22.246  27.678  12.441
25862W        W97588   9.578  25.208   1.017
25863W        W97589  22.228   7.377   4.387
25864W        W97590  19.815   7.907   1.037
25865W        W97591  28.596  37.679  12.234
25866W        W97592  41.029  30.863   4.599
25867W        W97593   3.035  21.345   0.439
25868W        W97594  29.632  34.661  14.491
25869W        W97595   7.866  41.358  10.691
25870W        W97596  39.395  40.515  10.783
25871W        W97597  37.988  10.625   1.741
25872W        W97598  43.680  32.102  12.987
25873W        W97599  37.413  13.776  12.943
25874W        W97600   2.006  34.595   3.236
25875W        W97601   4.548  25.014   4.147
25876W        W97602   4.695  20.961  10.611
25877W        W97603   3.459  42.471   3.904
25878W        W97604  11.427  29.223  11.572
25879W        W97605  25.419  22.027  11.189
25880W        W97606  27.951  11.333  14.502
25881W        W97607   2.423  39.251  10.512
25882W        W97608   3.532  13.155  12.917
25883W        W97609  25.691   1.869  11.697
25884W        W97610   6.394   6.792   3.850
25885W        W97611  15.648  33.713  13.908
25886W        W97612  10.080  31.708   2.370
25887W        W97613  34.296  23.754   1.994
25888W        W97614  29.689  15.100  13.736
25889W        W97615  14.364  13.819   1.861
25890W        W97616  41.339   5.412   0.098
25891W        W97617  25.059  19.667  14.518
25892W        W97618   8.275  21.764  10.626
25893W        W97619  12.493   3.880  11.622
25894W        W97620   7.142  22.691   1.867
25895W        W97621  24.839  44.498   2.264
25896W        W97622  32.032  29.662   4.229
25897W        W97623  24.643   1.205  14.766
25898W        W97624  11.912   2.951   1.801
25899W        W97625  29.112  15.973   4.156
25900W        W97626  39.200  12.543   1.378
25901W        W97627  24.693  33.429   0.018
25902W        W97628   4.764  34.614   0.815
25903W        W97629  44.383  28.956   1.995
25904W        W97630  35.007   0.939   4.484
25905W        W97631  26.000  16.557  11.464
25906W        W97632   3.447  28.168  13.523
25907W        W97633  33.046  37.854  10.397
25908W        W97634  20.553   0.202   0.745
25909W        W97635  13.128  19.043   0.830
25910W        W97636  29.936   2.418  12.960
25911W        W97637  33.208  18.702   2.011
25912W        W97638  11.233  15.775  12.560
25913W        W97639  13.785  28.973   1.730
25914W        W97640  42.862  15.996   3.829
25915W        W97641  30.186  23.470  12.950
25916W        W97642  24.563  16.144  10.814
25917W        W97643  31.047  33.447  10.695
25918W        W97644  30.938   5.163  13.843
25919W        W97645   4.195  24.097   4.357
25920W        W97646   8.180   5.878   0.883
25921W        W97647  34.125  26.194   4.203
25922W        W97648  25.281  38.205   3.058
25923W        W97649  31.804  29.247  10.357
25924W        W97650  28.483  20.122  14.724
25925W        W97651  11.432  27.512   3.678
25926W        W97652  43.478   5.807   1.628
25927W        W97653  30.819  35.522   3.087
25928W        W97654  32.544  37.023   4.340
25929W        W97655  39.313  25.366   1.494
25930W        W97656  18.181  43.742   3.758
25931W        W97657  35.231  22.264  11.117
25932W        W97658  15.785  25.084   0.072
25933W        W97659  24.379  36.923   4.228
25934W        W97660   3.450   8.879   0.780
25935W        W97661  10.911  35.069   0.836
25936W        W97662  43.459  31.712  12.270
25937W        W97663  15.654  33.865  13.427
25938W        W97664  20.512  25.600   3.690
25939W        W97665  36.973  12.666   1.688
25940W        W97666  25.512  18.049   1.470
25941W        W97667  24.065   9.877   4.075
25942W        W97668  30.815  42.403   4.165
25943W        W97669  29.360   0.988  13.586
25944W        W97670  24.816   0.303   2.159
25945W        W97671  29.873  27.062   1.340
25946W        W97672  35.143   9.800  13.778
25947W        W97673  28.462  25.139   0.774
25948W        W97674  31.119   4.251   1.645
25949W        W97675  43.535  21.635  14.789
25950W        W97676   7.007  16.142   5.483
25951W        W97677  43.998  24.556  13.887
25952W        W97678  44.520   1.607   2.233
25953W        W97679  44.966  17.698   4.523
25954W        W97680   8.403  42.306  11.624
25955W        W97681  29.385   6.919  12.475
25956W        W97682  21.144  14.905  13.903
25957W        W97683  31.038  40.243   4.084
25958W        W97684   6.648  33.292  12.630
25959W        W97685  13.140  19.264   2.857
25960W        W97686  19.711  18.932   2.589
25961W        W97687  42.335  40.722  13.499
25962W        W97688  20.015  22.816  11.378
25963W        W97689  33.921  42.204  13.591
25964W        W97690  19.486   2.985   0.848
25965W        W97691  43.016  36.560   1.355
25966W        W97692  22.901  14.143  14.004
25967W        W97693  14.027  30.535  14.457
25968W        W97694  43.218   5.978  11.126
25969W        W97695  25.994  37.826  11.500
25970W        W97696  43.657  23.466  13.473
25971W        W97697  27.576  13.874  13.623
25972W        W97698   0.904  41.157  14.396
25973W        W97699  24.081   7.440   0.769
25974W        W97700  17.757   2.266  11.541
25975W        W97701  13.286  42.373  12.131
25976W        W97702  29.142  42.802   2.956
25977W        W97703   9.464  44.654   2.151
25978W        W97704  35.923   5.257   1.715
25979W        W97705   8.448  28.527  12.497
25980W        W97706   3.282  31.036  13.949
25981W        W97707   1.298  35.438  14.311
25982W        W97708  33.427  21.005  14.768
25983W        W97709   8.623  40.066   2.800
25984W        W97710   3.654  33.319   1.595
25985W        W97711  28.489  34.610   1.779
25986W        W97712  36.001   9.510  11.681
25987W        W97713  13.125   8.926   3.830
25988W        W97714   5.153  18.119   0.427
25989W        W97715  22.791  19.748  12.103
25990W        W97716  25.696  38.797  10.763
25991W        W97717   2.808  25.789   1.376
25992W        W97718  39.167  34.782   1.542
25993W        W97719   0.020  15.841   1.244
25994W        W97720   9.773  16.757  13.800
25995W        W97721  11.696  34.159  12.548
25996W        W97722  16.106   2.972  14.958
25997W        W97723  26.600  10.197  11.919
25998W        W97724   1.936  10.642   4.617
25999W        W97725  33.115   4.009   0.835
26000W        W97726   7.942   6.607   4.615
26001W        W97727   9.923  41.890   3.238
26002W        W97728   9.661  21.991  11.931
26003W        W97729  15.735   7.461   3.066
26004W        W97730  15.337  19.624  13.140
26005W        W97731  44.367   6.306  14.089
26006W        W97732  32.694  20.423  14.417
26007W        W97733  11.370  15.159   0.187
26008W        W97734  33.561  26.001  13.924
26009W        W97735   5.149  35.206   3.784
26010W        W97736  30.163  30.646   2.401
26011W        W97737  15.384  38.500  12.020
26012W        W97738  29.740  44.946   3.031
26013W        W97739  18.631  19.111   0.018
26014W        W97740   8.390  42.788  14.301
26015W        W97741  25.966  17.792   2.328
26016W        W97742  40.347   7.842   1.857
26017W        W97743  10.593  15.496   4.466
26018W        W97744  33.178   3.122   3.134
26019W        W97745   3.284  15.502   4.033
26020W        W97746   7.811  37.930   0.777
26021W        W97747  42.034  20.531  13.962
26022W        W97748  20.793  22.388  12.889
26023W        W97749  37.864  43.933   1.724
26024W        W97750   7.388  38.271   0.707
26025W        W97751   3.291   9.237   3.041
26026W        W97752  21.127  20.312   3.288
26027W        W97753   8.455  20.258   1.356
26028W        W97754   0.393  44.591   1.018
26029W        W97755  19.538  33.886  13.628
26030W        W97756  42.837  18.023  14.684
26031W        W97757  28.678  18.303  13.463
26032W        W97758  30.601  24.913  13.348
26033W        W97759  22.228  18.099  10.649
26034W        W97760   1.458  38.495  12.318
26035W        W97761  44.771  27.607  12.108
26036W        W97762  23.714  32.375  13.050
26037W        W97763  21.978   9.278   1.495
26038W        W97764  35.764  22.197  11.146
26039W        W97765  36.564   1.813  14.955
26040W        W97766  17.463  13.171  13.500
26041W        W97767  12.179  32.954  11.661
26042W        W97768  30.257  41.775  10.748
26043W        W97769  27.762  42.163   0.418
26044W        W97770  26.546   4.917  10.692
26045W        W97771  42.867  18.135  11.865
26046W        W97772  26.153  23.695   4.620
26047W        W97773  38.616   1.425   1.895
26048W        W97774   0.118   0.742  12.803
26049W        W97775  26.010  35.440   4.545
26050W        W97776  21.014  11.422   1.912
26051W        W97777  19.442   1.170   4.108
26052W        W97778  38.052   1.251   0.314
26053W        W97779  38.504  26.132  14.498
26054W        W97780  36.381   7.484  12.637
26055W        W97781  34.869  43.344   2.837
26056W        W97782  29.780  26.596   0.460
26057W        W97783  30.942  13.380   0.188
26058W        W97784  17.018  27.998  10.596
26059W        W97785  25.984  18.473  10.972
26060W        W97786  38.521  24.754  14.387
26061W        W97787  37.124  27.249   3.686
26062W        W97788  36.691  29.048  13.601
26063W        W97789  34.321  39.073  11.865
26064W        W97790  22.410   8.935  10.849
26065W        W97791  18.637  43.984   0.766
26066W        W97792   6.557  14.165   4.186
26067W        W97793  18.560  25.425   1.863
26068W        W97794  40.722  17.007  12.436
26069W        W97795  12.626  43.869  14.402
26070W        W97796  13.661  35.537  11.222
26071W        W97797   1.081  28.196  13.442
26072W        W97798  39.949  23.248   1.305
26073W        W97799  24.158  32.309  13.373
26074W        W97800  17.621  19.788   1.967
26075W        W97801   5.420   5.561  11.528
26076W        W97802  26.551   1.391   0.467
26077W        W97803  13.412  22.530  13.467
26078W        W97804   7.486  16.094  14.040
26079W        W97805  35.390  12.241   3.789
26080W        W97806  20.097  21.465   2.936
26081W        W97807  10.890  27.329  11.701
26082W        W97808  38.504   0.676   3.303
26083W        W97809  25.074  28.439   0.781
26084W        W97810  37.532  19.153  14.518
26085W        W97811  21.713   4.021  12.623
26086W        W97812  39.277  25.492   0.924
26087W        W97813   2.165  20.767   2.446
26088W        W97814   8.774  35.368   3.759
26089W        W97815  14.204  11.809  11.213
26090W        W97816   9.697  19.740  14.237
26091W        W97817  17.187  11.410   1.820
26092W        W97818  11.741  34.669   1.778
26093W        W97819   5.527   2.263  13.590
26094W        W97820  24.978  42.348   0.923
26095W        W97821  20.663   1.476  10.978
26096W        W97822   2.777  38.539  10.688
26097W        W97823  32.778   7.276  12.009
26098W        W97824  26.894   8.880   2.386
26099W        W97825   4.571   3.396   2.329
26100W        W97826  40.726  19.853  14.067
26101W        W97827  31.686  41.368  11.698
26102W        W97828  14.838  15.152   1.150
26103W        W97829  34.627  37.263   1.164
26104W        W97830  40.561  32.119   1.709
26105W        W97831  28.680  11.785   4.172
26106W        W97832  32.435  29.541  13.222
26107W        W97833   8.386  22.382   1.850
26108W        W97834  33.871   0.520   3.079
26109W        W97835  33.634   9.827  12.549
26110W        W97836   3.347  28.029   2.420
26111W        W97837  22.309  20.569  12.478
26112W        W97838  12.823  19.669   2.611
26113W        W97839   1.695  20.797  12.134
26114W        W97840   5.383  36.218  14.296
26115W        W97841  33.011  34.128  14.954
26116W        W97842  41.073   1.872  13.428
26117W        W97843  31.424  33.071   4.100
26118W        W97844  42.864  32.106   2.616
26119W        W97845   0.408  37.289  11.585
26120W        W97846  17.770  15.109   3.207
26121W        W97847  17.251  12.985   0.212
26122W        W97848   7.546  17.478   2.269
26123W        W97849   1.854  12.427  12.104
26124W        W97850   7.856   2.338  10.691
26125W        W97851  31.597   7.320  14.953
26126W        W97852  42.253  25.136  12.404
26127W        W97853  33.915   4.190   2.848
26128W        W97854  14.078  26.021  11.214
26129W        W97855   9.575  39.525   0.321
26130W        W97856  29.874  19.761  12.227
26131W        W97857  24.006  40.379  10.326
26132W        W97858  26.249  10.167   0.421
26133W        W97859  26.513   5.322   1.337
26134W        W97860   9.691  19.017  13.127
26135W        W97861  23.792  44.758  11.737
26136W        W97862  22.710  36.735  13.606
26137W        W97863  40.262  43.772  13.829
26138W        W97864   9.746  29.702   4.574
26139W        W97865  23.176  18.691   2.882
26140W        W97866  41.443   5.821   0.437
26141W        W97867  27.167   1.477   2.311
26142W        W97868  18.544  41.071   3.715
26143W        W97869  44.443  44.218  13.902
26144W        W97870  27.570  23.864   3.692
26145W        W97871  10.246  25.779   2.031
26146W        W97872  13.464  25.989   0.621
26147W        W97873  15.713  33.201  13.854
26148W        W97874  19.714  10.395   4.084
26149W        W97875  43.751  26.778  11.988
26150W        W97876  23.267  40.346   0.410
26151W        W97877   0.235  26.719   1.746
26152W        W97878  43.185  18.682   3.689
26153W        W97879  20.212  37.833  13.394
26154W        W97880  41.144  16.317   4.202
26155W        W97881  19.531  13.289   0.369
26156W        W97882  25.238  44.206  10.688
26157W        W97883  24.518  34.176  11.960
26158W        W97884  16.860   9.548  12.663
26159W        W97885   2.503  42.996  10.366
26160W        W97886  28.733   2.734  14.464
26161W        W97887  32.912  22.606  11.726
26162W        W97888  27.949  10.354  14.059
26163W        W97889  42.107  40.739   0.498
26164W        W97890  32.526  42.384  13.238
26165W        W97891   2.955  20.998   2.790
26166W        W97892  17.494  26.409   4.585
26167W        W97893   5.740   3.705  11.607
26168W        W97894  20.431  33.138   2.497
26169W        W97895  28.855  28.643   3.294
26170W        W97896  28.480   6.301   1.197
26171W        W97897  41.360  19.217  12.925
26172W        W97898   8.355  29.470   1.525
26173W        W97899   4.073  17.655  11.170
26174W        W97900  12.952   6.815  14.346
26175W        W97901  21.088  18.558   3.748
26176W        W97902  44.052  20.051   4.937
26177W        W97903  13.752   2.095  12.864
26178W        W97904  34.505  32.103  13.375
26179W        W97905  25.551  29.296  13.350
26180W        W97906  12.696  33.433   2.252
26181W        W97907  24.122  39.063  11.425
26182W        W97908  43.102  41.569   2.741
26183W        W97909  10.694   8.632   4.414
26184W        W97910  37.149  26.317   2.192
26185W        W97911  44.311  13.400   2.145
26186W        W97912  35.685  43.312   1.924
26187W        W97913  36.039  37.896   1.704
26188W        W97914  30.835  25.052  12.870
26189W        W97915   4.741   6.468   3.337
26190W        W97916   5.243  42.830  10.207
26191W        W97917  10.415  22.187   1.770
26192W        W97918  15.300  41.330  10.515
26193W        W97919   1.866  16.019   4.610
26194W        W97920  13.611  12.289   2.677
26195W        W97921  26.244  28.053   1.258
26196W        W97922  11.981   1.508  10.476
26197W        W97923   3.848  39.527   4.710
26198W        W97924   2.041  19.455  10.999
26199W        W97925  32.554   7.446  10.661
26200W        W97926  28.258  43.444   4.206
26201W        W97927  33.903  15.733  13.915
26202W        W97928  16.742  37.596   4.239
26203W        W97929  27.542   0.217   1.289
26204W        W97930  38.649  19.166   2.732
26205W        W97931  39.453   3.287  11.927
26206W        W97932  44.884  33.586  12.942
26207W        W97933  24.971  41.735  11.485
26208W        W97934  12.246  10.287   3.575
26209W        W97935  43.503  28.969   4.223
26210W        W97936  39.042  28.931  14.993
26211W        W97937  39.658  31.017   3.424
26212W        W97938   0.249  11.529   4.604
26213W        W97939  14.620  31.325   1.961
26214W        W97940  11.324  39.504  11.037
26215W        W97941   0.418   3.214   1.879
26216W        W97942  10.704  12.766  10.606
26217W        W97943  24.988  23.917  11.942
26218W        W97944  16.655  26.712   0.705
26219W        W97945   7.319  34.944   2.901
26220W        W97946  37.402   1.405  14.059
26221W        W97947   0.550  29.620   3.393
26222W        W97948   7.471   5.426   0.454
26223W        W97949  40.218  17.500   2.358
26224W        W97950   6.558  29.863  11.105
26225W        W97951  39.352  26.844   1.239
26226W        W97952  16.603  21.464  12.107
26227W        W97953  25.912  39.037  12.420
26228W        W97954   2.514   3.932  13.918
26229W        W97955  16.531  25.606  14.404
26230W        W97956  36.470  15.689   5.058
26231W        W97957  44.319   0.302  14.644
26232W        W97958  10.340  44.734  11.700
26233W        W97959  17.798  24.995  13.934
26234W        W97960  40.877  20.333  12.587
26235W        W97961  28.136   3.778   3.783
26236W        W97962  44.884  32.699   4.347
26237W        W97963  17.717  28.290   0.607
26238W        W97964  36.390  31.617   0.312
26239W        W97965  31.474   3.694   1.147
26240W        W97966  20.549  35.949   0.982
26241W        W97967  35.450   8.940   1.954
26242W        W97968  17.675  34.077   4.128
26243W        W97969  32.177  16.332   4.091
26244W        W97970  16.021  35.147  13.769
26245W        W97971  10.699   4.865  12.112
26246W        W97972  39.015  37.310   3.648
26247W        W97973  10.599  25.123   0.900
26248W        W97974  12.901  13.755  14.032
26249W        W97975  44.567  22.024  10.833
26250W        W97976  33.252  22.933  11.450
26251W        W97977  15.762  10.176   2.117
26252W        W97978  18.718   2.800  13.922
26253W        W97979  33.940  21.260   4.227
26254W        W97980  34.087  39.069   3.180
26255W        W97981   4.311  21.113   3.598
26256W        W97982  33.595  25.537   4.615
26257W        W97983  11.330  17.788   2.258
26258W        W97984  13.751  17.767   3.339
26259W        W97985  23.939  14.894  10.610
26260W        W97986  20.847  18.201  10.134
26261W        W97987  15.077  19.988  12.068
26262W        W97988  16.319   5.355  11.564
26263W        W97989  27.214  33.912  10.930
26264W        W97990  19.078   7.121  13.831
26265W        W97991  35.506   7.125  11.074
26266W        W97992   0.960  23.740  13.745
26267W        W97993  39.785  44.897   3.684
26268W        W97994  29.477  11.779  12.530
26269W        W97995  29.139  28.426  12.897
26270W        W97996  13.208  28.142  13.432
26271W        W97997  17.301   4.646  13.898
26272W        W97998   1.468  42.922   4.399
26273W        W97999   5.124   7.141   5.223
26274W        W98000   3.727  42.466  13.561
26275W        W98001   4.756  25.735   2.408
26276W        W98002  30.831  22.809  14.010
26277W        W98003  35.510  38.646   1.372
26278W        W98004  26.503  12.838   4.066
26279W        W98005  42.601  14.475  11.978
26280W        W98006  22.088  25.804   5.332
26281W        W98007  19.584  33.551  14.511
26282W        W98008  35.429  20.757   1.725
26283W        W98009  24.427  41.052  10.698
26284W        W98010  37.792  22.980  12.431
26285W        W98011  42.499  14.088   2.912
26286W        W98012  21.376  39.929  10.125
26287W        W98013  33.361  18.758  14.218
26288W        W98014  38.979  38.051  11.195
26289W        W98015  12.441  27.051   4.004
26290W        W98016   0.040  40.057  14.837
26291W        W98017  30.073   0.774   4.674
26292W        W98018  30.070  24.630  14.375
26293W        W98019  36.496  20.686  12.886
26294W        W98020  40.353  15.554   3.325
26295W        W98021  20.997  36.922  11.984
26296W        W98022  38.277   9.135   0.965
26297W        W98023  30.106  38.401   0.330
26298W        W98024   5.297  13.579  10.197
26299W        W98025  34.436  16.842   2.790
26300W        W98026  33.097  42.673   2.701
26301W        W98027  35.054   5.248   2.148
26302W        W98028  42.842   1.969  11.493
26303W        W98029  15.384   2.951   2.683
26304W        W98030  43.386  17.695   1.799
26305W        W98031  14.600  43.445  13.457
26306W        W98032  25.431   3.257  13.580
26307W        W98033  15.643   3.890  11.159
26308W        W98034  24.724  31.234  10.803
26309W        W98035  29.599  19.021   4.914
26310W        W98036  38.466  35.827  12.400
26311W        W98037  35.636  40.942   2.779
26312W        W98038   6.228  34.870  13.844
26313W        W98039   3.279  22.495  12.954
26314W        W98040   6.375  42.032  14.787
26315W        W98041   3.730  26.024   4.621
26316W        W98042   2.795  12.305  11.181
26317W        W98043  24.157   9.703   0.040
26318W        W98044   4.654  12.301   3.577
26319W        W98045   0.827  42.289  11.587
26320W        W98046  28.809  23.548  13.929
26321W        W98047  20.539  20.989  12.993
26322W        W98048  39.060  10.650   0.266
26323W        W98049  42.475  30.102  13.271
26324W        W98050   2.430  37.318   3.777
26325W        W98051  43.929  24.898  14.390
26326W        W98052   8.396  24.695   4.565
26327W        W98053  29.422  28.977  13.390
26328W        W98054  36.361  25.732   4.296
26329W        W98055  28.328  10.063  10.594
26330W        W98056  10.158  31.531   4.601
26331W        W98057  31.527  24.419  14.681
26332W        W98058   2.066  18.140  14.468
26333W        W98059  10.912  18.216   1.497
26334W        W98060  11.812  23.930   0.315
26335W        W98061  19.256  26.402   3.756
26336W        W98062   8.883   2.440  14.396
26337W        W98063  32.405   1.177   0.824
26338W        W98064  40.985  38.460   4.169
26339W        W98065  21.235  34.383  10.774
26340W        W98066  36.327  10.247   2.900
26341W        W98067  20.876  22.646  10.658
26342W        W98068   8.168  18.099   2.701
26343W        W98069  34.092  34.874   3.869
26344W        W98070   9.958  26.628   1.780
26345W        W98071  39.020  16.266  14.411
26346W        W98072   1.634  10.915  14.284
26347W        W98073  12.666   8.875  13.809
26348W        W98074   5.694   5.822   2.605
26349W        W98075  11.613   9.169  10.593
26350W        W98076   0.508  22.773   0.992
26351W        W98077  30.667  33.339  12.007
26352W        W98078  20.744  15.435  10.758
26353W        W98079   8.948   7.419   2.865
26354W        W98080  24.258  27.650   0.045
26355W        W98081  31.006  30.819   0.914
26356W        W98082  11.117  27.614   0.520
26357W        W98083  10.334  44.195  10.453
26358W        W98084  44.919  43.330  12.520
26359W        W98085   2.900   6.933  14.233
26360W        W98086  15.104  12.506  11.735
26361W        W98087   7.406  14.815   1.189
26362W        W98088  13.324  37.946  12.361
26363W        W98089   1.770  11.145   3.968
26364W        W98090  39.878  20.527   0.387
26365W        W98091  29.710   8.644  11.941
26366W        W98092  12.222  42.994   0.821
26367W        W98093  10.599  24.318  11.413
26368W        W98094  19.560  15.579  11.154
26369W        W98095  42.805   0.416  12.540
26370W        W98096  11.043   5.130  14.374
26371W        W98097  41.174  15.169   0.409
26372W        W98098   4.880   3.431   1.147
26373W        W98099   4.134  16.532   4.174
26374W        W98100  17.024  42.569   0.567
26375W        W98101  40.035   6.897   2.301
26376W        W98102  27.980   0.790   0.072
26377W        W98103  35.866  13.783  10.775
26378W        W98104  31.057  29.684   1.846
26379W        W98105   4.957  18.190   3.826
26380W        W98106  25.699  43.289  12.396
26381W        W98107  17.798  39.039   5.472
26382W        W98108  10.927   1.923   0.403
26383W        W98109  28.046  17.064  11.621
26384W        W98110   0.509  39.368   2.704
26385W        W98111   1.210  13.396  12.968
26386W        W98112   3.821  41.463  14.297
26387W        W98113  18.530  29.403   4.900
26388W        W98114  10.690   0.805   1.823
26389W        W98115  33.287  27.472  13.358
26390W        W98116  13.274  22.469   1.333
26391W        W98117  12.661  24.460   2.560
26392W        W98118  35.561   1.927  12.062
26393W        W98119  32.565  40.848  12.632
26394W        W98120   8.613   8.437   3.233
26395W        W98121  15.086  21.430  13.146
26396W        W98122  39.975  44.198   0.542
26397W        W98123  38.863  14.755  12.360
26398W        W98124  18.544   0.452  13.872
26399W        W98125  18.635   1.181   0.136
26400W        W98126   2.617  18.234   0.440
26401W        W98127  37.056  33.911   2.247
26402W        W98128  11.194  32.392  12.370
26403W        W98129  27.003  24.588   0.803
26404W        W98130   2.232  10.660  12.531
26405W        W98131  38.493  10.826   1.747
26406W        W98132  29.036  17.024   4.009
26407W        W98133  40.945   9.368   3.720
26408W        W98134  24.412   6.042  12.892
26409W        W98135  11.672  26.592  13.098
26410W        W98136  24.157   0.380  13.986
26411W        W98137  31.787  24.363   1.887
26412W        W98138  32.486  40.314   2.320
26413W        W98139  32.151  30.082  14.947
26414W        W98140  43.469  12.377  13.046
26415W        W98141   5.018  18.736  10.891
26416W        W98142  20.536  35.537  11.540
26417W        W98143  42.028  35.398   0.440
26418W        W98144  36.963  15.044   2.004
26419W        W98145  18.015  39.613   1.842
26420W        W98146  16.100  23.976   1.404
26421W        W98147   3.430  10.787   4.117
26422W        W98148   5.681  16.851  12.037
26423W        W98149  26.177  12.819   2.814
26424W        W98150  10.918  18.518   3.216
26425W        W98151  33.983  28.523   1.146
26426W        W98152  21.058  37.463  14.848
26427W        W98153   6.697   9.367  14.262
26428W        W98154  23.437  27.674   2.308
26429W        W98155  40.985  21.339  11.601
26430W        W98156  36.332  24.998   2.367
26431W        W98157  41.070  31.925   4.394
26432W        W98158  43.534   6.783  11.454
26433W        W98159  26.684  12.900  10.435
26434W        W98160  42.141  26.402  14.568
26435W        W98161  16.647  18.278   1.682
26436W        W98162  29.894  21.849   2.632
26437W        W98163  21.675   1.278   3.157
26438W        W98164   6.116  39.492   0.725
26439W        W98165  26.030   9.110  13.504
26440W        W98166  38.919   5.732   1.342
26441W        W98167  38.052  28.556   3.367
26442W        W98168  19.919  35.840  13.892
26443W        W98169  20.546  44.614   1.920
26444W        W98170   6.201  34.969  12.571
26445W        W98171   1.377   6.794   4.670
26446W        W98172  18.757  41.956  13.812
26447W        W98173   0.849  24.544   3.107
26448W        W98174  16.845  44.076  12.067
26449W        W98175  30.164  23.530   4.175
26450W        W98176  42.975  41.790  12.097
26451W        W98177  15.382  35.915  11.995
26452W        W98178   3.917   7.194   4.542
26453W        W98179  36.043  17.426  14.823
26454W        W98180  22.140   5.880   2.988
26455W        W98181   8.620  33.216   1.844
26456W        W98182  29.174  34.297  13.335
26457W        W98183  33.634  23.682   0.614
26458W        W98184  38.062   2.720  14.906
26459W        W98185   8.435  24.958   2.900
26460W        W98186  30.543   0.041  14.862
26461W        W98187  37.310  40.326   1.698
26462W        W98188  19.334  43.438  11.540
26463W        W98189  19.695   6.343   0.682
26464W        W98190  37.315  25.248  11.068
26465W        W98191   9.804  21.123   2.468
26466W        W98192  43.480  32.628   1.623
26467W        W98193  12.684   4.217  13.421
26468W        W98194  17.306   4.932  13.458
26469W        W98195  43.285   7.237  11.409
26470W        W98196  23.484  37.364   1.250
26471W        W98197   8.764  31.048  14.647
26472W        W98198   3.979  17.859  13.437
26473W        W98199  25.898  15.312  11.974
26474W        W98200  20.539  18.127  12.044
26475W        W98201  35.038  17.182   1.708
26476W        W98202  44.913  43.290   1.726
26477W        W98203  25.244  13.919   4.274
26478W        W98204  24.159  11.744  11.592
26479W        W98205  28.277  17.831  13.869
26480W        W98206  44.356  41.044  10.215
26481W        W98207  15.639   8.663   4.597
26482W        W98208  38.794  37.346  14.855
26483W        W98209   3.137  14.631   1.285
26484W        W98210  44.313  24.929  14.043
26485W        W98211  23.003  21.829   4.087
26486W        W98212  32.161   1.668  12.997
26487W        W98213   8.380  43.843  12.950
26488W        W98214   6.235   6.291  10.697
26489W        W98215  15.241  21.875   2.270
26490W        W98216  28.699  10.858  11.641
26491W        W98217  34.092  10.535  10.692
26492W        W98218  32.003   4.375   1.506
26493W        W98219  41.570  30.453   1.732
26494W        W98220  10.104  37.830  12.097
26495W        W98221  29.715  12.593  14.800
26496W        W98222   1.381   6.327   3.862
26497W        W98223  25.720  37.584   2.522
26498W        W98224  34.064   8.735  12.455
26499W        W98225  29.459  14.113   4.193
26500W        W98226  30.393  39.337   4.776
26501W        W98227   7.437  28.302   4.252
26502W        W98228   2.873  22.169   1.903
26503W        W98229  23.065  43.314  12.211
26504W        W98230  40.475   6.936   1.990
26505W        W98231  32.763  25.959   4.673
26506W        W98232  43.542   1.325  11.038
26507W        W98233  12.119  28.445   2.638
26508W        W98234  11.649  23.666  13.411
26509W        W98235  35.447  25.520  12.619
26510W        W98236  16.028  27.825   3.582
26511W        W98237  28.703  31.510   0.145
26512W        W98238  41.359   7.896   0.744
26513W        W98239  20.480  14.387  10.075
26514W        W98240  38.435  23.225   0.450
26515W        W98241  38.968  26.606   4.626
26516W        W98242  33.699  10.834   0.878
26517W        W98243  43.081  23.806  11.011
26518W        W98244  38.290   6.972   1.141
26519W        W98245  19.462  37.504  14.940
26520W        W98246  23.622   0.727  11.423
26521W        W98247  19.318   3.480  10.877
26522W        W98248   1.188  29.632   1.213
26523W        W98249  35.984  25.598  14.899
26524W        W98250  20.550  43.779   3.886
26525W        W98251  17.835  23.785   1.261
26526W        W98252  15.002  17.998   3.274
26527W        W98253  13.972  20.969   3.795
26528W        W98254  18.145  28.087   3.297
26529W        W98255  39.925  44.588   4.101
26530W        W98256  15.101  13.775   0.288
26531W        W98257   9.614  22.448   3.181
26532W        W98258  20.276  15.679  10.721
26533W        W98259  27.439  26.558   2.225
26534W        W98260  41.003  32.770   4.819
26535W        W98261   1.217  42.165  12.317
26536W        W98262   5.482  10.560   1.193
26537W        W98263  35.137  28.664  14.195
26538W        W98264   9.365  17.504   4.884
26539W        W98265  43.600  37.719  12.479
26540W        W98266  27.069  23.839   3.829
26541W        W98267   9.905   0.448   4.755
26542W        W98268  25.462  30.873  14.777
26543W        W98269  34.090  43.901   1.322
26544W        W98270   8.628  41.550  11.129
26545W        W98271  44.982  16.529   2.013
26546W        W98272  25.814  37.811  13.855
26547W        W98273  40.420  24.075  11.370
26548W        W98274  11.184  21.306  11.033
26549W        W98275  29.960  18.778   3.902
26550W        W98276   4.770   2.926   2.319
26551W        W98277   7.926  32.933   2.853
26552W        W98278  41.558  32.366  11.839
26553W        W98279  34.040  33.853   0.120
26554W        W98280  30.062  41.326   4.826
26555W        W98281  19.132  44.201  10.671
26556W        W98282  33.975  42.878   2.715
26557W        W98283   2.870  35.495   4.696
26558W        W98284   2.363  32.669   1.769
26559W        W98285  40.852   5.741   4.156
26560W        W98286  25.176  33.145   3.789
26561W        W98287  19.392  30.561  10.615
26562W        W98288  35.854  22.222   0.490
26563W        W98289  37.510   8.601   0.665
26564W        W98290  28.027  39.756   3.479
26565W        W98291  22.594  18.489   4.107
26566W        W98292  31.928  18.608   0.687
26567W        W98293  26.302  15.473   0.029
26568W        W98294  21.163  42.239   4.758
26569W        W98295  32.964  27.762  13.990
26570W        W98296  10.777  17.090   1.001
26571W        W98297  24.454  35.947  11.509
26572W        W98298   0.397  41.834   3.885
26573W        W98299  23.730  15.633   1.627
26574W        W98300  18.842  13.725   2.714
26575W        W98301  39.623   6.240  11.650
26576W        W98302  26.529  28.920  13.452
26577W        W98303  18.675   1.691   0.209
26578W        W98304  41.381  38.735  11.567
26579W        W98305  42.906  33.945   4.737
26580W        W98306   5.851   5.742   3.090
26581W        W98307  21.994  25.453  13.135
26582W        W98308  14.383  37.943  10.214
26583W        W98309  31.056  27.042   3.790
26584W        W98310  44.254  40.299  12.838
26585W        W98311  26.200  10.637  12.675
26586W        W98312   1.900  14.375   0.492
26587W        W98313   0.451   7.234   1.323
26588W        W98314  35.190   1.496   2.899
26589W        W98315  38.495  35.636   1.852
26590W        W98316  12.677  21.218   1.885
26591W        W98317  14.662  25.602  13.989
26592W        W98318  44.853  34.974  14.099
26593W        W98319  17.133  28.110   9.864
26594W        W98320  30.476  33.092  12.596
26595W        W98321  42.433  25.590  11.616
26596W        W98322  28.922  14.615  10.657
26597W        W98323  10.371  30.036  11.497
26598W        W98324  39.024   3.728   2.439
26599W        W98325  12.419  18.383   3.661
26600W        W98326  35.930  23.510   1.728
26601W        W98327  13.547   4.748   2.216
26602W        W98328  12.206   2.590  12.590
26603W        W98329  38.615  19.712  13.401
26604W        W98330  23.233  42.673  11.149
26605W        W98331   5.906  38.513   4.613
26606W        W98332  18.602  40.620  13.435
26607W        W98333  24.742  23.670  11.173
26608W        W98334  40.353   7.931  11.854
26609W        W98335  31.024  35.983   4.550
26610W        W98336  24.090   5.203  11.147
26611W        W98337  20.469  14.227  14.353
26612W        W98338  24.146  27.636   0.540
26613W        W98339  18.758   2.458   0.788
26614W        W98340  43.415   5.615  10.646
26615W        W98341  28.630  13.036  11.192
26616W        W98342  18.040  25.098   4.597
26617W        W98343  10.160  13.980   4.586
26618W        W98344  36.592  33.223  14.791
26619W        W98345   9.752  30.954  14.982
26620W        W98346  43.756   8.332  12.922
26621W        W98347  22.933  13.880  11.986
26622W        W98348  14.974   2.956   4.131
26623W        W98349  39.996  24.743  12.643
26624W        W98350  31.573  28.944   2.868
26625W        W98351  27.675  14.959   4.447
26626W        W98352   0.503  11.589  10.450
26627W        W98353  32.389  22.831  11.710
26628W        W98354  40.435  32.927  14.764
26629W        W98355  42.963   4.823   1.966
26630W        W98356   8.962  35.953  11.312
26631W        W98357  31.045  27.046  13.371
26632W        W98358  28.236  20.645   1.964
26633W        W98359  29.084  20.750  12.710
26634W        W98360  22.603  20.015  13.313
26635W        W98361  42.662  22.084   2.227
26636W        W98362  32.995  29.086  11.232
26637W        W98363  30.165   1.915   1.982
26638W        W98364  10.798  36.606   2.740
26639W        W98365  26.553   9.170   1.900
26640W        W98366  35.047   3.268  14.492
26641W        W98367  20.533  38.380   4.826
26642W        W98368   1.962   2.552  12.867
26643W        W98369  37.585  26.033   2.989
26644W        W98370  30.969  18.526  12.052
26645W        W98371  31.106  10.299  12.409
26646W        W98372   2.777   6.715  10.627
26647W        W98373  39.386  11.195   2.211
26648W        W98374  36.062   8.289  14.341
26649W        W98375  41.888  35.526   3.374
26650W        W98376   3.078  40.265   4.417
26651W        W98377  44.695  15.577   2.204
26652W        W98378  36.828  33.907  12.075
26653W        W98379  15.315   1.804  12.490
26654W        W98380   5.183  33.336   1.219
26655W        W98381  28.109  18.781   4.052
26656W        W98382  44.485  21.699   3.157
26657W        W98383  38.038  11.135  14.877
26658W        W98384   1.390  12.301   4.530
26659W        W98385  10.380  23.597  11.156
26660W        W98386  20.779   7.281  12.109
26661W        W98387  14.063   7.417   0.491
26662W        W98388  16.838  25.005  10.681
26663W        W98389  14.250   0.233  10.821
26664W        W98390  21.063  26.088   4.989
26665W        W98391   3.630   1.505  11.033
26666W        W98392   1.147   0.630  12.644
26667W        W98393  19.237  42.401  12.089
26668W        W98394  14.556   9.095   3.211
26669W        W98395  10.418   2.065   0.431
26670W        W98396  22.249  15.353   5.506
26671W        W98397   5.836  44.347   1.640
26672W        W98398  27.557   0.595   9.796
26673W        W98399  10.843  40.947   1.996
26674W        W98400  33.561  40.289  14.256
26675W        W98401   5.730   6.176  13.959
26676W        W98402  19.712  18.305  10.959
26677W        W98403  12.119  30.034  12.955
26678W        W98404  38.381   2.829   2.802
26679W        W98405  31.421   7.429   3.919
26680W        W98406  36.890  10.138  11.610
26681W        W98407  40.051   2.188  11.181
26682W        W98408  20.571   3.861   3.608
26683W        W98409   3.549  40.942  13.962
26684W        W98410  24.755  14.605  10.104
26685W        W98411  30.426  12.610   0.364
26686W        W98412  41.478  28.068  14.810
26687W        W98413   3.031   2.750  12.820
26688W        W98414   8.629  22.135   5.189
26689W        W98415  39.672  24.174   1.245
26690W        W98416  25.720   6.664  12.124
26691W        W98417  39.831  34.993   3.333
26692W        W98418  13.709  10.221  11.330
26693W        W98419  22.398   9.585   1.281
26694W        W98420  30.035  44.805  14.834
26695W        W98421  28.411  27.947   1.157
26696W        W98422  14.154  43.713   3.146
26697W        W98423  15.113  40.784  13.301
26698W        W98424   1.495  31.413   1.383
26699W        W98425  11.806  44.159  14.574
26700W        W98426  36.100  15.026  11.157
26701W        W98427  33.003  37.863  10.914
26702W        W98428  40.924  22.117   4.096
26703W        W98429  24.064  35.392   0.327
26704W        W98430  19.096  12.270  11.404
26705W        W98431  30.107  23.506   2.371
26706W        W98432   6.170  17.076   0.231
26707W        W98433   3.295  44.495  10.746
26708W        W98434  35.073  39.858   4.437
26709W        W98435  23.794  28.552  14.903
26710W        W98436   8.634  12.726  13.020
26711W        W98437  40.929   6.659   2.128
26712W        W98438  14.940  29.908   1.278
26713W        W98439  11.641   6.819   1.987
26714W        W98440  13.242  23.068  10.488
26715W        W98441  10.445   0.500  10.357
26716W        W98442  10.827   1.513   3.639
26717W        W98443  33.586  32.138  10.294
26718W        W98444   5.906  19.027  10.591
26719W        W98445  15.672   1.840  12.978
26720W        W98446   4.169   8.735  14.999
26721W        W98447  20.085  16.455   1.247
26722W        W98448  34.001  41.094  12.808
26723W        W98449   9.317  34.927   2.243
26724W        W98450  39.990  42.923   1.249
26725W        W98451  26.740   7.454   0.459
26726W        W98452  28.050  12.139   4.792
26727W        W98453  12.724  17.161   1.764
26728W        W98454  28.166  12.242   0.708
26729W        W98455   0.325  34.049  13.588
26730W        W98456   2.599  15.363   2.251
26731W        W98457  42.259   9.396   2.787
26732W        W98458  11.761  25.076   0.585
26733W        W98459  39.597  29.576   0.540
26734W        W98460  37.084  23.286  14.415
26735W        W98461  21.138  12.170  14.199
26736W        W98462  40.865  34.949   4.331
26737W        W98463  18.173  19.105   0.301
26738W        W98464   1.094  11.084   0.523
26739W        W98465  35.456  43.174   2.377
26740W        W98466  16.758  13.334   4.589
26741W        W98467   6.396  44.948   4.865
26742W        W98468   0.388  42.929  10.746
26743W        W98469  11.857   9.379   3.844
26744W        W98470  30.745  43.743   9.887
26745W        W98471   1.509  35.782   3.744
26746W        W98472  25.509  28.626   3.054
26747W        W98473  27.290  22.048   0.672
26748W        W98474  26.972  36.517  14.939
26749W        W98475  40.133  44.339   2.320
26750W        W98476  16.639   8.904   3.119
26751W        W98477  25.510  40.144   4.089
26752W        W98478   2.943  27.371   1.502
26753W        W98479  37.236   0.945   3.751
26754W        W98480   6.807   8.232  11.457
26755W        W98481  17.043  35.988   3.139
26756W        W98482  19.782  17.368  12.799
26757W        W98483  16.360  39.474  10.154
26758W        W98484  39.825  10.065  14.772
26759W        W98485  42.793  36.888   4.672
26760W        W98486  27.002  28.589  12.116
26761W        W98487  20.672  44.384  12.248
26762W        W98488  12.108  44.978   4.142
26763W        W98489   2.312  16.261   4.395
26764W        W98490  17.225  15.629   1.699
26765W        W98491   2.443   9.356   2.258
26766W        W98492   9.041  12.330  11.033
26767W        W98493   2.481  31.328   2.190
26768W        W98494  38.044   6.713  10.545
26769W        W98495  17.738   8.629   1.827
26770W        W98496  21.342  16.287   3.685
26771W        W98497  40.161  18.409  12.331
26772W        W98498   5.764  38.700   2.200
26773W        W98499  19.623   6.586  14.314
26774W        W98500  17.174  18.596   1.029
26775W        W98501  39.397   4.142  13.312
26776W        W98502  17.015  19.913  11.206
26777W        W98503  29.463  11.090   3.555
26778W        W98504  15.148   5.282   2.818
26779W        W98505  28.625  27.685   3.338
26780W        W98506   5.939  11.188   1.684
26781W        W98507  39.554   8.673   1.088
26782W        W98508  20.524   2.327  10.764
26783W        W98509  21.458  32.970   1.361
26784W        W98510  39.276  24.419  12.874
26785W        W98511  43.484  28.775  10.294
26786W        W98512  23.740  25.345   3.406
26787W        W98513   5.586  44.028   1.315
26788W        W98514  11.366  30.555   3.711
26789W        W98515  32.642  37.365   0.577
26790W        W98516  19.622  41.567  11.037
26791W        W98517  12.856   0.792   0.976
26792W        W98518  19.719   9.168  13.912
26793W        W98519  32.187   8.878   0.857
26794W        W98520  43.526  23.939   0.912
26795W        W98521  21.469   1.406   4.230
26796W        W98522  40.673  32.319  12.907
26797W        W98523  33.482  25.602   3.156
26798W        W98524  39.579  26.043  13.579
26799W        W98525   3.182  31.501   2.683
26800W        W98526  15.766  24.184   2.721
26801W        W98527  22.300   6.160  13.957
26802W        W98528  21.423  12.435  14.542
26803W        W98529   9.536  37.480  12.475
26804W        W98530  24.725   3.798  11.183
26805W        W98531  16.276  10.702  14.420
26806W        W98532  30.077  32.916  11.098
26807W        W98533  24.579  30.054   4.100
26808W        W98534  43.017  23.173   2.281
26809W        W98535  37.014  40.566   0.750
26810W        W98536  13.623  19.998   1.409
26811W        W98537  29.440  34.499   4.598
26812W        W98538  32.256   9.727  12.498
26813W        W98539  16.278  32.409   0.421
26814W        W98540   1.978  25.527   1.880
26815W        W98541  38.804   0.745   2.131
26816W        W98542  42.502  37.569  14.335
26817W        W98543  14.145   7.981  11.338
26818W        W98544  17.094  40.875   1.291
26819W        W98545  23.978  37.491  13.978
26820W        W98546  26.579  37.122  11.471
26821W        W98547   3.204  44.835   3.410
26822W        W98548   4.921  29.052  13.798
26823W        W98549   1.073  27.034   2.804
26824W        W98550  35.429  12.818   4.951
26825W        W98551   7.527  34.124  14.733
26826W        W98552   4.682   2.152  14.501
26827W        W98553  43.448   1.329   1.307
26828W        W98554  21.099  44.733   1.902
26829W        W98555  23.719   0.627  12.326
26830W        W98556   4.213  17.873   1.296
26831W        W98557   7.108  23.476   1.297
26832W        W98558  34.664   4.314   2.237
26833W        W98559  27.251  39.604   2.820
26834W        W98560  15.537  13.344   3.863
26835W        W98561  34.581  22.324   1.010
26836W        W98562  34.643  25.207  13.586
26837W        W98563  13.703   5.027   1.781
26838W        W98564  43.755   7.183  11.204
26839W        W98565  38.020  36.318  10.712
26840W        W98566  20.862  17.284  14.411
26841W        W98567  31.397  22.754   0.747
26842W        W98568   4.356  14.745   2.785
26843W        W98569   4.732   4.904   1.905
26844W        W98570  35.745  10.224  14.436
26845W        W98571  19.649   0.453  14.347
26846W        W98572  31.917  26.018  11.847
26847W        W98573  38.873   7.913   0.246
26848W        W98574   6.351   4.034   2.853
26849W        W98575  27.278   7.399  12.814
26850W        W98576  34.906  15.296  12.857
26851W        W98577  44.787  11.153   0.007
26852W        W98578  39.347  14.701   3.390
26853W        W98579  15.770  36.411   3.155
26854W        W98580  15.625  43.533  12.435
26855W        W98581  33.148  36.530   4.582
26856W        W98582  41.408  39.269  11.474
26857W        W98583   8.528   9.043  12.862
26858W        W98584  43.253  16.725  14.256
26859W        W98585  39.514   2.385   3.332
26860W        W98586  32.016  33.915  12.621
26861W        W98587  27.864  13.657  10.644
26862W        W98588  18.105   1.380  12.160
26863W        W98589  34.470  17.092  13.937
26864W        W98590  19.183   9.768  13.453
26865W        W98591  23.481  44.280  14.894
26866W        W98592  41.283   8.756   4.508
26867W        W98593  38.586   8.969   4.475
26868W        W98594  36.566  34.425   3.436
26869W        W98595  23.182  21.154  11.687
26870W        W98596  13.072  21.757   2.383
26871W        W98597   3.256  43.709  12.998
26872W        W98598  18.325  32.174   4.108
26873W        W98599  18.509   9.891   3.822
26874W        W98600   0.761  31.039   4.506
26875W        W98601  40.570  23.904  10.431
26876W        W98602  15.840  20.950  13.110
26877W        W98603  40.665  24.011   0.414
26878W        W98604   5.965   7.245   2.131
26879W        W98605  44.613  39.639   4.031
26880W        W98606  15.535  15.691   3.586
26881W        W98607  10.083  13.181   2.775
26882W        W98608  22.004  24.056  13.367
26883W        W98609   3.013   1.449   0.738
26884W        W98610   2.858  41.893   4.312
26885W        W98611   3.386   2.969   4.212
26886W        W98612  36.583  12.877  11.514
26887W        W98613  40.175  17.268   2.802
26888W        W98614  25.697  21.586  11.150
26889W        W98615   2.903  18.280  12.893
26890W        W98616  38.677  27.679   0.727
26891W        W98617  17.644  22.278  14.435
26892W        W98618  22.786  23.296   2.621
26893W        W98619  16.009  10.139   1.625
26894W        W98620  30.216   0.366   2.328
26895W        W98621  16.685  25.399  12.607
26896W        W98622  12.607  11.376   2.235
26897W        W98623  30.503  37.486   3.886
26898W        W98624  32.446  35.113  10.754
26899W        W98625  40.997  38.052  13.360
26900W        W98626  20.235  36.361   1.071
26901W        W98627  31.039   9.362  11.476
26902W        W98628  24.998   6.718   1.621
26903W        W98629  33.108  25.859  12.980
26904W        W98630  34.840  14.872   1.873
26905W        W98631   0.455   9.687  11.910
26906W        W98632   7.710  34.110  12.578
26907W        W98633   3.036  12.762  14.869
26908W        W98634  21.225  42.022   3.787
26909W        W98635  24.552  41.682  14.052
26910W        W98636  33.582  14.297   4.220
26911W        W98637  12.738  43.952  11.898
26912W        W98638   7.865  15.607   3.280
26913W        W98639  29.682  12.716  11.607
26914W        W98640   9.618  40.913  12.156
26915W        W98641  29.813  18.641   1.271
26916W        W98642  21.577   1.222   2.656
26917W        W98643  32.445  26.513  10.532
26918W        W98644  35.893  29.212  12.105
26919W        W98645  43.467  36.170   3.624
26920W        W98646  25.589  36.428   1.053
26921W        W98647  13.667  17.121   1.976
26922W        W98648  23.321  40.434   4.558
26923W        W98649   0.893  41.873  13.852
26924W        W98650  14.143  21.035   1.736
26925W        W98651  14.202  10.725   2.178
26926W        W98652  23.157  37.438   4.620
26927W        W98653  36.480  21.652   3.176
26928W        W98654  27.170  25.555  12.438
26929W        W98655  25.498  42.910  14.389
26930W        W98656  44.176  17.241   4.545
26931W        W98657  42.245  13.598  12.985
26932W        W98658  21.317  42.806   0.811
26933W        W98659  38.808   8.320   1.343
26934W        W98660  14.158  27.289   3.889
26935W        W98661   8.036  21.703  11.084
26936W        W98662  12.356  17.084   3.335
26937W        W98663  32.482  42.927   0.903
26938W        W98664  17.673  26.915   3.209
26939W        W98665  32.075  42.024   4.561
26940W        W98666  19.638  43.581   0.412
26941W        W98667   5.950  16.028   0.064
26942W        W98668  13.317   3.340   4.645
26943W        W98669  28.883  22.734   2.345
26944W        W98670   0.273  27.650  11.195
26945W        W98671  32.942  11.227  12.107
26946W        W98672  23.213   7.905   2.942
26947W        W98673   7.289   6.431  11.579
26948W        W98674  18.594  18.627   0.810
26949W        W98675   8.677   2.575  13.009
26950W        W98676  29.855  29.252  13.412
26951W        W98677  25.010   5.098  13.123
26952W        W98678  29.199   0.483   0.966
26953W        W98679  44.724  16.369   3.384
26954W        W98680  32.103  19.981   0.817
26955W        W98681  44.366  34.142  12.573
26956W        W98682  18.622  13.299  12.910
26957W        W98683  26.122   9.703   3.784
26958W        W98684  13.302  11.940  10.322
26959W        W98685  20.595   5.450   2.377
26960W        W98686  28.454  40.342  11.584
26961W        W98687   2.328  14.405  11.569
26962W        W98688  41.258  38.250  11.489
26963W        W98689  12.110  25.245   4.159
26964W        W98690  17.692  15.634   3.843
26965W        W98691  31.612  28.534  11.166
26966W        W98692  37.542  10.678  10.901
26967W        W98693  11.630  12.813  10.586
26968W        W98694  18.214  20.061   1.524
26969W        W98695  25.450  19.744  13.484
26970W        W98696  36.644  29.609   1.599
26971W        W98697   7.820   0.568  13.732
26972W        W98698  35.910  20.521   1.715
26973W        W98699  25.719  38.966  14.336
26974W        W98700   8.806   8.691   1.869
26975W        W98701   5.339  43.580   1.344
26976W        W98702  30.892  12.268   4.456
26977W        W98703   4.279  35.805   3.241
26978W        W98704  22.656  21.338   0.921
26979W        W98705  14.651  11.960  10.585
26980W        W98706  23.585  34.037  11.084
26981W        W98707  32.156  37.052  14.838
26982W        W98708   0.455   0.464  10.983
26983W        W98709  25.867   5.068  12.975
26984W        W98710  41.434  32.043   4.880
26985W        W98711  25.201  21.431  13.965
26986W        W98712  30.585  26.387  13.743
26987W        W98713  43.044  25.170  13.938
26988W        W98714   0.786  37.630  12.185
26989W        W98715  27.957  43.576   2.651
26990W        W98716  11.829  21.134  10.606
26991W        W98717  29.376  37.877  11.198
26992W        W98718   5.785  10.126  14.704
26993W        W98719   5.681  15.957   1.633
26994W        W98720   6.633   7.825   0.928
26995W        W98721  28.510  11.632   2.578
26996W        W98722   3.723  41.556   3.380
26997W        W98723  27.465  35.920  13.879
26998W        W98724  21.635   2.249   1.791
26999W        W98725   9.925  14.331  14.536
27000W        W98726  17.183  10.651   0.628
27001W        W98727  41.402  23.192   1.961
27002W        W98728  44.160  39.103   1.746
27003W        W98729   2.237  37.024  12.592
27004W        W98730   5.348  14.814  12.570
27005W        W98731  21.142  37.052  11.491
27006W        W98732  22.437  15.756   2.227
27007W        W98733   5.311  23.766   1.498
27008W        W98734   9.889  39.928   0.293
27009W        W98735  36.496  40.556   4.127
27010W        W98736  10.424   4.297  11.185
27011W        W98737  44.479  18.121  12.771
27012W        W98738  40.959   4.376   3.044
27013W        W98739  30.496  31.432   3.786
27014W        W98740   1.072  37.539  13.045
27015W        W98741  24.727  18.248  14.843
27016W        W98742  24.265  16.120   3.227
27017W        W98743  19.629  18.360  13.128
27018W        W98744  32.595  26.741  12.982
27019W        W98745  12.348  12.155   3.185
27020W        W98746  17.741  30.628  13.545
27021W        W98747  21.502  26.679   2.118
27022W        W98748  26.845  22.585   2.318
27023W        W98749  25.559  42.306  14.780
27024W        W98750  16.755  42.416  14.285
27025W        W98751  19.570  28.463   5.137
27026W        W98752  29.357  39.810   0.899
27027W        W98753  37.763  37.872   4.719
27028W        W98754  10.480  28.453  14.364
27029W        W98755   2.317  26.420  12.060
27030W        W98756  14.529   6.291   0.880
27031W        W98757  28.949   8.872  12.452
27032W        W98758  42.748  28.896   4.739
27033W        W98759   9.078  34.660   0.792
27034W        W98760  37.363  18.347  14.796
27035W        W98761  14.347   3.667   0.970
27036W        W98762  28.110   6.341  12.421
27037W        W98763   8.461  18.630  14.261
27038W        W98764   2.843  27.587   4.654
27039W        W98765  38.863  41.965  13.210
27040W        W98766  13.781  23.135  14.589
27041W        W98767  25.486  38.490   3.567
27042W        W98768  37.115  20.341  12.175
27043W        W98769  12.875  21.790  11.173
27044W        W98770   4.862  19.055  10.110
27045W        W98771  31.887   4.876  14.286
27046W        W98772  44.400  33.488  10.765
27047W        W98773  31.669  38.253   3.301
27048W        W98774  23.442  32.367  11.627
27049W        W98775   0.850  29.217  13.126
27050W        W98776  22.171  34.017  12.143
27051W        W98777  22.960  16.584   2.233
27052W        W98778  30.373  41.913  13.814
27053W        W98779  35.689  28.175   1.288
27054W        W98780  28.807  43.290   1.877
27055W        W98781  44.459  13.146   0.317
27056W        W98782  37.556  15.197  10.949
27057W        W98783  15.836  28.041  12.074
27058W        W98784  36.531  39.084   9.944
27059W        W98785  43.483   6.090   4.570
27060W        W98786   5.243  28.643  13.629
27061W        W98787  21.208  41.397  12.377
27062W        W98788  28.115  29.543   2.342
27063W        W98789   9.150  22.067  12.680
27064W        W98790  35.097  13.589  12.539
27065W        W98791   3.016  23.291  14.563
27066W        W98792  21.440  41.561   0.640
27067W        W98793   9.933  22.050  13.564
27068W        W98794  44.442  40.474   3.392
27069W        W98795  28.862  22.306   3.563
27070W        W98796  38.540  22.178   1.990
27071W        W98797  21.134  13.286   2.445
27072W        W98798  29.771  43.414  13.570
27073W        W98799  41.270   7.208  11.629
27074W        W98800  27.162  26.130   2.194
27075W        W98801  23.348  27.841  11.519
27076W        W98802  34.044  39.863   2.685
27077W        W98803   8.399   3.833   2.791
27078W        W98804  36.616  22.163   1.470
27079W        W98805  10.882  12.226  12.877
27080W        W98806   8.921  19.705   2.403
27081W        W98807  13.128  22.194   4.168
27082W        W98808  44.186   1.164   4.896
27083W        W98809  15.740   7.886  11.202
27084W        W98810  44.000   0.301  10.589
27085W        W98811   7.865  21.833  13.940
27086W        W98812   2.855  30.844   4.318
27087W        W98813   9.433  36.486   5.003
27088W        W98814   4.612  10.614  14.728
27089W        W98815  30.363  30.137  14.965
27090W        W98816  37.757  40.122  13.130
27091W        W98817   6.315  16.841  11.135
27092W        W98818   8.328  35.019  14.297
27093W        W98819   2.072   5.899  14.068
27094W        W98820   6.636  43.920   1.234
27095W        W98821  21.270   3.813   1.711
27096W        W98822  39.337  28.901  12.497
27097W        W98823   6.955   4.402   1.341
27098W        W98824  27.183   9.089  14.950
27099W        W98825  28.042  29.994   2.659
27100W        W98826  42.581   8.614   0.823
27101W        W98827  39.965   9.593   0.033
27102W        W98828   4.790  29.609   3.267
27103W        W98829  10.505  29.132   1.416
27104W        W98830   6.499  30.463   0.198
27105W        W98831   0.806  13.760   3.285
27106W        W98832   2.288   3.223   3.799
27107W        W98833  35.414  16.807   0.775
27108W        W98834  21.275  42.424   1.904
27109W        W98835  34.260  33.017  11.621
27110W        W98836  28.979  27.263   3.199
27111W        W98837  31.937   1.483  12.468
27112W        W98838  19.837  39.633  12.988
27113W        W98839  37.994  31.355  14.523
27114W        W98840  10.156  14.732   0.900
27115W        W98841  12.911   0.971   2.253
27116W        W98842   2.234  11.760  12.875
27117W        W98843  12.733  15.566   0.856
27118W        W98844  12.144  20.279  10.722
27119W        W98845   7.651  30.179   2.825
27120W        W98846  44.047  33.473  14.863
27121W        W98847   6.155  37.837  12.038
27122W        W98848  21.011  44.055  10.990
27123W        W98849  12.621  21.452   3.894
27124W        W98850   5.727  35.338   3.166
27125W        W98851   9.878  37.267   0.578
27126W        W98852  44.008  20.105   1.785
27127W        W98853   4.943  13.642  13.900
27128W        W98854  14.561   6.340  12.713
27129W        W98855  39.936  19.212   0.339
27130W        W98856  20.611  44.246  12.767
27131W        W98857  16.018  41.047   5.480
27132W        W98858  29.541  32.012   1.407
27133W        W98859   2.460  23.288  11.059
27134W        W98860  15.334  27.979   1.240
27135W        W98861  41.691  19.618   3.639
27136W        W98862  38.852  22.640   2.382
27137W        W98863  18.999  19.191   1.371
27138W        W98864  19.030  42.853   4.280
27139W        W98865  20.590  40.848  13.417
27140W        W98866  28.064  19.743   5.005
27141W        W98867  27.159  32.202   0.836
27142W        W98868  37.435  16.252   0.305
27143W        W98869   1.406   8.880   1.213
27144W        W98870  42.686  30.546  11.073
27145W        W98871  28.629   1.734   3.581
27146W        W98872  18.922  37.660  12.071
27147W        W98873  11.745   1.683  13.841
27148W        W98874   7.092  41.568  13.420
27149W        W98875   5.524  40.492  14.823
27150W        W98876  27.191   8.571   1.778
27151W        W98877  25.480   1.099   0.887
27152W        W98878  43.437   2.799  14.930
27153W        W98879  16.910  18.663  13.469
27154W        W98880   3.220  30.017  11.494
27155W        W98881   2.748   2.771   4.074
27156W        W98882  41.397  35.937  12.170
27157W        W98883   7.809  36.592  12.010
27158W        W98884  14.381  12.996   0.681
27159W        W98885  30.231  42.307   0.351
27160W        W98886  31.226  26.197  13.128
27161W        W98887  36.789  21.602  14.837
27162W        W98888  18.748   6.821   5.275
27163W        W98889   6.036  29.992  11.126
27164W        W98890  23.821  26.483  14.494
27165W        W98891  31.014  13.891  12.766
27166W        W98892  11.766  36.381  10.413
27167W        W98893  19.553  15.844   0.874
27168W        W98894   1.092  27.945   0.787
27169W        W98895  11.577   6.819   3.092
27170W        W98896  24.965  33.381   2.393
27171W        W98897   0.820  22.314  14.846
27172W        W98898  14.190  39.264   3.193
27173W        W98899  30.073  15.904   1.936
27174W        W98900  18.470  43.282   3.910
27175W        W98901  17.648   5.372   0.926
27176W        W98902  34.379  17.316  10.753
27177W        W98903  32.621  23.493  10.670
27178W        W98904  36.129  23.032  10.653
27179W        W98905  15.201  38.776  14.349
27180W        W98906  33.657  36.780   1.431
27181W        W98907  36.634  38.523  10.707
27182W        W98908  16.478  30.384  10.377
27183W        W98909  42.532  31.470  14.941
27184W        W98910  12.870  12.164   0.908
27185W        W98911  30.216  43.095  12.664
27186W        W98912  11.795  15.988  11.941
27187W        W98913   9.694  17.543   0.383
27188W        W98914  35.168   5.989  14.091
27189W        W98915   5.407  35.787  13.390
27190W        W98916  16.803   3.017   1.698
27191W        W98917  39.255  30.479   5.163
27192W        W98918   5.484  35.550   0.353
27193W        W98919  19.496  36.623  13.719
27194W        W98920  34.017  18.241  12.062
27195W        W98921  39.292   8.618  11.913
27196W        W98922  11.269   9.508  14.822
27197W        W98923  18.326   5.299  14.785
27198W        W98924  43.457   5.050   3.235
27199W        W98925  37.223  30.018   3.641
27200W        W98926  37.471  13.063  10.583
27201W        W98927  17.507  25.143   4.644
27202W        W98928   4.788   8.731  11.602
27203W        W98929  35.802  25.045   4.581
27204W        W98930  17.277  37.138   3.625
27205W        W98931  41.583   4.848  13.616
27206W        W98932  30.670  29.470   2.819
27207W        W98933  21.742   7.215  12.968
27208W        W98934  26.850  22.680  12.016
27209W        W98935  37.977  11.315   3.891
27210W        W98936   6.959  15.776  13.788
27211W        W98937  25.146  33.557   1.957
27212W        W98938  27.948  36.593   4.523
27213W        W98939   8.259  24.121  13.362
27214W        W98940  41.237  42.875   4.737
27215W        W98941   4.984  30.826   2.837
27216W        W98942  43.045  20.896   4.178
27217W        W98943  36.486  34.629  13.027
27218W        W98944  32.351  37.143  11.557
27219W        W98945  10.700  32.002   0.370
27220W        W98946  26.119  34.797  10.469
27221W        W98947  32.371   6.824   3.197
27222W        W98948  34.228  12.122  11.536
27223W        W98949  17.761  14.744   3.620
27224W        W98950   8.294  38.875  10.717
27225W        W98951  28.018   7.857   2.331
27226W        W98952  12.404  40.169   4.494
27227W        W98953   5.031  13.110  13.182
27228W        W98954  33.497   8.838   0.854
27229W        W98955  21.841  22.139   2.315
27230W        W98956   8.854  32.138  13.665
27231W        W98957  13.925  43.760  14.472
27232W        W98958  10.485  18.057   3.801
27233W        W98959   8.261  22.521   3.622
27234W        W98960  14.658  28.190  13.052
27235W        W98961   7.879  20.101  14.751
27236W        W98962   5.816   4.946   2.716
27237W        W98963   2.784  25.483  13.545
27238W        W98964  44.280  35.084   3.703
27239W        W98965   3.256   5.467  13.828
27240W        W98966   9.289   3.082  13.169
27241W        W98967  29.937   3.197   1.978
27242W        W98968  44.993   1.669   3.596
27243W        W98969  31.841   3.512  11.529
27244W        W98970  20.215  28.914   1.934
27245W        W98971  11.884  24.728   1.381
27246W        W98972  27.580  40.534   3.400
27247W        W98973  28.802  17.761  10.655
27248W        W98974  30.069   5.222  13.914
27249W        W98975   4.421  43.791  12.423
27250W        W98976  15.707  42.710  13.494
27251W        W98977  14.895   2.335   4.652
27252W        W98978  41.252  21.143  14.770
27253W        W98979   6.875  24.802  13.009
27254W        W98980  30.822  26.060  10.046
27255W        W98981  24.177  18.571  11.620
27256W        W98982   7.004  41.049  13.839
27257W        W98983  17.068  38.194   3.687
27258W        W98984  32.323  42.837   0.418
27259W        W98985  10.815   8.771  12.050
27260W        W98986  40.298  21.958  14.045
27261W        W98987   9.104  39.012  12.387
27262W        W98988  33.618  19.722   3.274
27263W        W98989  33.988  15.378   1.867
27264W        W98990  41.998   5.994   2.814
27265W        W98991  30.452  21.531   1.223
27266W        W98992  27.706  19.096  11.121
27267W        W98993  27.029  29.411   2.372
27268W        W98994  19.566  28.958   4.826
27269W        W98995  33.436  29.736  11.906
27270W        W98996  10.388  37.959   3.322
27271W        W98997  24.362  13.839   0.917
27272W        W98998  20.639  15.636   0.866
27273W        W98999  44.454  14.144  13.978
27274W        W99000  18.967  17.995  12.529
27275W        W99001  21.033   2.762   4.617
27276W        W99002  33.433  44.743   2.576
27277W        W99003  27.879  42.367   3.339
27278W        W99004   5.734  22.301  10.844
27279W        W99005  38.128  11.181   0.859
27280W        W99006  38.293  24.038   3.671
27281W        W99007  16.149  42.423   3.242
27282W        W99008   4.976  24.812  11.106
27283W        W99009  36.674  28.083  13.552
27284W        W99010  20.179  18.636   1.909
27285W        W99011  33.939  32.286   4.197
27286W        W99012   8.598  36.517  14.980
27287W        W99013  42.587  40.418  11.518
27288W        W99014  41.554  26.917  12.450
27289W        W99015   1.820   9.957  11.489
27290W        W99016  18.252  36.326  12.500
27291W        W99017  26.009  40.329   0.907
27292W        W99018   3.803   8.791  11.557
27293W        W99019  23.556   0.082   1.891
27294W        W99020  12.362  35.544   0.143
27295W        W99021   6.412  44.853  12.136
27296W        W99022   1.028   3.070   4.040
27297W        W99023  10.708  22.633  10.124
27298W        W99024  28.225   6.258   1.684
27299W        W99025  22.474   6.109  11.097
27300W        W99026  23.137  17.599   4.560
27301W        W99027  22.399  18.721  11.176
27302W        W99028   2.668  12.440   4.837
27303W        W99029   7.723  35.095  12.360
27304W        W99030  15.170  12.163  14.495
27305W        W99031  20.696  14.551   1.129
27306W        W99032   9.918   8.288   0.241
27307W        W99033   4.195  39.764  12.400
27308W        W99034   2.959   4.678  13.073
27309W        W99035  44.892  20.286  10.277
27310W        W99036  21.607   6.303   3.729
27311W        W99037   1.106   0.324  14.508
27312W        W99038  39.184  24.222  14.778
27313W        W99039   1.748  25.526   4.924
27314W        W99040   7.339   2.564  14.568
27315W        W99041  44.877  32.161   2.767
27316W        W99042  31.621  39.391  13.528
27317W        W99043  13.609  16.189  12.642
27318W        W99044  11.760  40.235  13.921
27319W        W99045  10.384  19.195   1.523
27320W        W99046  10.544  14.332  13.390
27321W        W99047  27.913  44.552  10.617
27322W        W99048  33.434  19.331  12.415
27323W        W99049   7.475   3.283   4.096
27324W        W99050  23.606  17.650  14.571
27325W        W99051  13.357  34.066  12.095
27326W        W99052   9.972  44.859   2.317
27327W        W99053  25.631  13.318   0.022
27328W        W99054   6.571  40.463  14.855
27329W        W99055  27.998  15.991  10.673
27330W        W99056   9.598  21.513   4.258
27331W        W99057  43.316  35.981   4.558
27332W        W99058  36.447   2.867   3.336
27333W        W99059  30.401  32.550   2.807
27334W        W99060  43.862  22.522   1.513
27335W        W99061  17.400  13.707  13.398
27336W        W99062  36.540  34.915   4.783
27337W        W99063  14.702  28.112   3.600
27338W        W99064  21.022  28.605   2.492
27339W        W99065  17.136   4.801  11.454
27340W        W99066  39.320   4.990   0.746
27341W        W99067  13.765  12.612  14.059
27342W        W99068  42.559  22.867   0.725
27343W        W99069  42.272  32.965  12.473
27344W        W99070  21.195  38.262   4.298
27345W        W99071   4.616   0.926  14.606
27346W        W99072   8.474   3.339   0.873
27347W        W99073  17.554  12.327   0.439
27348W        W99074   2.407  39.402  11.024
27349W        W99075  35.304  19.084  14.437
27350W        W99076  15.875  12.047   2.302
27351W        W99077  43.755  42.750   2.667
27352W        W99078  28.533  19.053  12.901
27353W        W99079  11.717  36.617  11.396
27354W        W99080   9.543   8.670   3.257
27355W        W99081   2.943   8.761   0.846
27356W        W99082  28.931   0.205  13.365
27357W        W99083  13.701   9.707   4.561
27358W        W99084  38.607  44.417   0.536
27359W        W99085   0.535  14.359  12.396
27360W        W99086   3.223  18.493  12.523
27361W        W99087  37.176  43.852  12.954
27362W        W99088  38.874  43.461  10.694
27363W        W99089  33.530   7.785   2.366
27364W        W99090   0.900  39.453  10.883
27365W        W99091  41.594  40.759   0.443
27366W        W99092   6.351  21.993  13.037
27367W        W99093  43.930   1.287  14.347
27368W        W99094   1.291  17.727  12.919
27369W        W99095  35.989   9.672  14.851
27370W        W99096  19.708  28.480  13.898
27371W        W99097   7.835   8.676  13.521
27372W        W99098  21.528  43.990   3.253
27373W        W99099  34.965   8.640  11.443
27374W        W99100  36.746  18.144   4.814
27375W        W99101   0.387  31.318  13.215
27376W        W99102   8.577   8.500   0.389
27377W        W99103  26.074   2.285   3.617
27378W        W99104  15.109  27.910   4.104
27379W        W99105   6.253   3.240   2.939
27380W        W99106  17.688  41.998  11.264
27381W        W99107  10.632  15.820   0.212
27382W        W99108   5.761  34.045   0.189
27383W        W99109  19.170  24.163  13.136
27384W        W99110  40.587   3.117   2.356
27385W        W99111  16.736  29.003   2.219
27386W        W99112  21.571   8.109   2.919
27387W        W99113  36.510  16.640  12.195
27388W        W99114  18.605  44.514   2.849
27389W        W99115  34.681  17.135  13.026
27390W        W99116  44.721  38.166   2.454
27391W        W99117  13.910  13.899  12.110
27392W        W99118  22.796  24.417   4.017
27393W        W99119  44.936  31.501  10.706
27394W        W99120   2.926   4.003  14.366
27395W        W99121  22.996  13.561   2.184
27396W        W99122  33.513  37.603  13.606
27397W        W99123   7.448  37.751  10.751
27398W        W99124  32.553   3.192  12.527
27399W        W99125  41.822   9.492  14.766
27400W        W99126  44.468   7.578   1.269
27401W        W99127  34.767  19.801   1.406
27402W        W99128  29.960  20.577  13.299
27403W        W99129  35.571  14.232  11.458
27404W        W99130  29.665  23.837  13.900
27405W        W99131  42.397  21.969   3.154
27406W        W99132   6.673  12.254   2.833
27407W        W99133   8.817  24.228   4.075
27408W        W99134  18.776  35.247  11.987
27409W        W99135  21.654  42.920  12.765
27410W        W99136  32.593  23.782   5.631
27411W        W99137  11.588  26.996   4.433
27412W        W99138  28.555  24.722   4.243
27413W        W99139   4.291   4.777  11.066
27414W        W99140  19.001  13.272   0.404
27415W        W99141  21.158  26.195   3.689
27416W        W99142  38.958   8.788   0.211
27417W        W99143  10.368  29.163   0.541
27418W        W99144  39.252   7.074  14.528
27419W        W99145  16.470  25.805  13.574
27420W        W99146   6.121   7.753  10.574
27421W        W99147  12.910   5.354  11.147
27422W        W99148  15.209   2.216   3.383
27423W        W99149  39.535  22.005   2.323
27424W        W99150  16.867  16.089  13.189
27425W        W99151  24.665  29.082   4.087
27426W        W99152  13.830  14.451   2.300
27427W        W99153   3.349  15.130   1.210
27428W        W99154  35.181  22.071  13.840
27429W        W99155  35.427  34.817  13.567
27430W        W99156  29.089  19.635  12.821
27431W        W99157  19.891  26.959  13.863
27432W        W99158   8.325   9.213   1.272
27433W        W99159  12.549   1.161  14.410
27434W        W99160  29.945  29.405  11.514
27435W        W99161  18.313  12.029  11.050
27436W        W99162   8.736  18.061   3.684
27437W        W99163  12.572  34.107  12.378
27438W        W99164  40.261  37.308   3.249
27439W        W99165  10.948  32.845  12.165
27440W        W99166  24.259  33.960  11.581
27441W        W99167  16.101  13.801   1.265
27442W        W99168  21.769  15.285   2.911
27443W        W99169   7.949  27.221  10.795
27444W        W99170  11.667   2.238   3.671
27445W        W99171   9.325  13.186  13.512
27446W        W99172  11.647  43.434   0.351
27447W        W99173  43.278  34.925  10.600
27448W        W99174  16.996  33.516  11.072
27449W        W99175   2.381  16.711  10.904
27450W        W99176  24.438  25.913   1.331
27451W        W99177  11.757  22.723  10.197
27452W        W99178   1.639  11.318  14.773
27453W        W99179   7.648  32.395  14.400
27454W        W99180  17.134  26.968  11.201
27455W        W99181  26.171  26.732   2.627
27456W        W99182  40.066  36.949  13.848
27457W        W99183  19.053  16.976  14.437
27458W        W99184  32.813  31.411  12.025
27459W        W99185  19.987  32.596   4.592
27460W        W99186  12.778  44.208  12.378
27461W        W99187   2.932   7.300  11.497
27462W        W99188  21.976  13.716   1.822
27463W        W99189   9.493  29.259  13.091
27464W        W99190  23.617  25.748   9.803
27465W        W99191  36.157  26.949  11.582
27466W        W99192  33.536  28.311   3.659
27467W        W99193  11.735  16.389   1.391
27468W        W99194   0.920   2.477  14.438
27469W        W99195   9.124   7.664  13.771
27470W        W99196   6.289  30.694   4.576
27471W        W99197  30.541  19.946   0.357
27472W        W99198  15.888  14.188  12.803
27473W        W99199  44.807  14.541   1.242
27474W        W99200  41.381  30.410  10.566
27475W        W99201   9.772  18.556  12.915
27476W        W99202   8.788  26.239  12.366
27477W        W99203  27.074  12.664  11.678
27478W        W99204  28.558  37.503   2.618
27479W        W99205  22.520  22.104  11.939
27480W        W99206  27.092  25.035  14.478
27481W        W99207  23.707  14.317   4.146
27482W        W99208  32.380  40.368   3.789
27483W        W99209  18.066   7.158  11.827
27484W        W99210  14.647  16.664  14.561
27485W        W99211   6.808  21.520   2.414
27486W        W99212   4.516  18.608  11.089
27487W        W99213  18.836  25.722  11.542
27488W        W99214  18.149  30.743  11.084
27489W        W99215  29.084  18.973   2.164
27490W        W99216  24.603  36.365  10.590
27491W        W99217  11.475   4.594  12.630
27492W        W99218  19.027  34.551  13.478
27493W        W99219  42.387  15.177   2.315
27494W        W99220  14.971  24.406  11.374
27495W        W99221  21.536  36.408   0.088
27496W        W99222  39.842  33.438   0.895
27497W        W99223   4.878  10.668   3.684
27498W        W99224  38.349  18.123  14.803
27499W        W99225  36.553  13.360  10.969
27500W        W99226  41.955   0.979  12.570
27501W        W99227  36.234  26.247  14.349
27502W        W99228  29.547  19.998   4.608
27503W        W99229  33.963   1.918   1.492
27504W        W99230  20.962  16.718   2.467
27505W        W99231  36.455  15.130   2.204
27506W        W99232   1.413  22.386   2.149
27507W        W99233  18.496  30.239  10.087
27508W        W99234  28.720   3.821  11.078
27509W        W99235   7.736  11.337  12.513
27510W        W99236   5.131  28.716  14.939
27511W        W99237   3.902  35.422  14.006
27512W        W99238  17.764  10.636  11.612
27513W        W99239  37.338  11.721  10.957
27514W        W99240  19.221  41.853  11.471
27515W        W99241  14.105  10.355  12.637
27516W        W99242  31.584   5.218   4.705
27517W        W99243  16.191  19.298   1.371
27518W        W99244  29.884  37.565  13.905
27519W        W99245  43.796  23.507  12.579
27520W        W99246  44.600  20.681   4.725
27521W        W99247  14.162  17.341  11.963
27522W        W99248  15.591   0.263   2.302
27523W        W99249  34.847  19.788  12.136
27524W        W99250  36.575  38.984   0.448
27525W        W99251   6.405  12.591   4.787
27526W        W99252  21.062  26.465   2.210
27527W        W99253  39.833  29.950   0.814
27528W        W99254  19.961  44.459  14.437
27529W        W99255  21.418   5.608   1.687
27530W        W99256  41.262   6.944  12.590
27531W        W99257  36.582  27.536  12.156
27532W        W99258  41.673   2.352   1.148
27533W        W99259  11.843   5.018   5.072
27534W        W99260  29.646   7.150   4.163
27535W        W99261  32.584  32.273   0.875
27536W        W99262  42.869  42.839  11.244
27537W        W99263  42.274   5.409  12.011
27538W        W99264  36.285  18.191   4.615
27539W        W99265  33.613   3.220   3.762
27540W        W99266  12.214  39.824  10.491
27541W        W99267  17.126  16.784   0.336
27542W        W99268   1.400  25.731   4.575
27543W        W99269  11.553  21.562  14.465
27544W        W99270   7.920  35.995   0.437
27545W        W99271  42.484   1.585   1.864
27546W        W99272  18.219  34.340   1.916
27547W        W99273  11.344  30.111  12.633
27548W        W99274  22.726  14.870   3.620
27549W        W99275  19.274  22.181   1.818
27550W        W99276  44.483  14.282   2.403
27551W        W99277  22.327  26.175   3.656
27552W        W99278  21.279  38.412   3.807
27553W        W99279  31.493  32.747  11.915
27554W        W99280  21.547  23.209  13.621
27555W        W99281  25.628   2.382  11.588
27556W        W99282  25.506  10.990   3.841
27557W        W99283  38.666  41.010  10.722
27558W        W99284  39.408  22.504  14.300
27559W        W99285   5.461  44.325  11.969
27560W        W99286   1.289  16.228  14.975
27561W        W99287   2.573  39.631  13.001
27562W        W99288  15.923  30.120   2.673
27563W        W99289  23.983  27.459   1.450
27564W        W99290  20.547  27.939  11.167
27565W        W99291  12.120   6.457  11.569
27566W        W99292  28.545  44.740   1.857
27567W        W99293  21.578  13.599  12.535
27568W        W99294  38.120  30.877   1.682
27569W        W99295   7.222  44.367  10.964
27570W        W99296  42.357  25.154   3.933
27571W        W99297  23.254  43.357  13.218
27572W        W99298  36.073   5.699  13.959
27573W        W99299  17.295  13.346   3.160
27574W        W99300  39.389  34.933  14.262
27575W        W99301   3.440  33.558  14.859
27576W        W99302  41.744  24.464  12.065
27577W        W99303  43.007  43.764   0.849
27578W        W99304  11.161  43.332  10.752
27579W        W99305  13.718  23.965   1.751
27580W        W99306  24.221  21.443  13.041
27581W        W99307  21.879  17.680  11.382
27582W        W99308  25.934  12.718   0.737
27583W        W99309  44.046  36.568  11.528
27584W        W99310  16.086   9.773   1.991
27585W        W99311  40.522  17.128   5.178
27586W        W99312  25.002  21.728  14.388
27587W        W99313  27.964  13.604  13.845
27588W        W99314  36.021  17.445  10.762
27589W        W99315   6.168  13.282   3.617
27590W        W99316  28.014  25.434   0.003
27591W        W99317   9.868  16.337   2.406
27592W        W99318  37.051  10.672  10.712
27593W        W99319  41.215  39.311  12.838
27594W        W99320   4.105  11.409   3.183
27595W        W99321  24.588  12.686  14.938
27596W        W99322  25.450  31.410   2.076
27597W        W99323  38.874  43.909  13.579
27598W        W99324   9.755  28.953   2.348
27599W        W99325  18.178  44.794   0.823
27600W        W99326  34.323  25.587   0.292
27601W        W99327  43.001   1.421  12.241
27602W        W99328  30.131  10.876  13.987
27603W        W99329   7.746  36.613   2.315
27604W        W99330  10.356   6.592   3.565
27605W        W99331   0.735  36.574   2.414
27606W        W99332  22.058  42.081   4.756
27607W        W99333  44.953  28.964   3.918
27608W        W99334   7.497  10.260   4.124
27609W        W99335  14.310  31.905  11.526
27610W        W99336  39.804   5.768   4.996
27611W        W99337   9.209   2.862  10.880
27612W        W99338  18.973  30.050   0.196
27613W        W99339  12.729   7.173   4.764
27614W        W99340  30.654  28.775   0.245
27615W        W99341  11.041   0.430   3.103
27616W        W99342  42.630   3.970   3.781
27617W        W99343  23.770  29.540   1.433
27618W        W99344  27.781   1.305  14.315
27619W        W99345  33.347  14.727   4.972
27620W        W99346  26.030   7.383  14.808
27621W        W99347   1.965  25.787  14.415
27622W        W99348  39.471  34.129   0.993
27623W        W99349  44.358  14.763   1.362
27624W        W99350  18.345  32.679  11.541
27625W        W99351   8.795  27.232   0.283
27626W        W99352   9.585   5.368   1.511
27627W        W99353   3.121  32.097   0.809
27628W        W99354  31.417  24.508   3.564
27629W        W99355  44.775  34.086  14.953
27630W        W99356  39.068  40.361   4.748
27631W        W99357  32.565  35.024   1.404
27632W        W99358  43.527   1.208   2.183
27633W        W99359  25.525  42.585   1.191
27634W        W99360  40.553  35.096   1.793
27635W        W99361  26.787  33.950  11.269
27636W        W99362  41.256  26.095   0.868
27637W        W99363  12.343  37.790   3.185
27638W        W99364  24.471   7.916  13.899
27639W        W99365  40.542  14.593  13.778
27640W        W99366  37.385  34.576  14.456
27641W        W99367  10.325  13.200   4.239
27642W        W99368   9.638  16.181  12.618
27643W        W99369  27.677  41.566  11.222
27644W        W99370  44.562  25.586  11.568
27645W        W99371  30.927  18.871  12.590
27646W        W99372   0.825   4.882  13.580
27647W        W99373  19.804  28.127   3.853
27648W        W99374  23.049  40.399   2.353
27649W        W99375  44.218  21.068   0.431
27650W        W99376  26.636  21.181  11.157
27651W        W99377  25.060  30.206  10.397
27652W        W99378   3.401  39.045   4.567
27653W        W99379  29.790  17.424   3.688
27654W        W99380   4.936   0.999   3.254
27655W        W99381   5.844  33.721   3.598
27656W        W99382   0.924  44.299   2.683
27657W        W99383  28.752   3.140   1.284
27658W        W99384  30.571   8.767   1.915
27659W        W99385  23.132  40.391   0.910
27660W        W99386  38.628  11.194   3.271
27661W        W99387   6.638  29.138  10.360
27662W        W99388  23.403   6.371   4.687
27663W        W99389  12.694  37.537  11.892
27664W        W99390  13.343  28.109   3.794
27665W        W99391   5.910  35.006   4.084
27666W        W99392  43.892   9.753   5.044
27667W        W99393  33.717  33.867   2.284
27668W        W99394   3.396  38.475   2.734
27669W        W99395   8.683  25.420   3.747
27670W        W99396  40.074  26.157   0.463
27671W        W99397  40.938   5.293  12.700
27672W        W99398  23.155  27.436   2.721
27673W        W99399  22.260  13.255   0.190
27674W        W99400  27.598  37.888  12.173
27675W        W99401   8.374  37.932  13.905
27676W        W99402  32.844  35.858   2.375
27677W        W99403  37.386  20.380   3.629
27678W        W99404  24.073  44.908   0.745
27679W        W99405  35.357  14.737   3.612
27680W        W99406  15.674  38.785   0.822
27681W        W99407  25.796  29.891   2.546
27682W        W99408   4.856  21.675   3.560
27683W        W99409  15.774  32.562   4.833
27684W        W99410  22.160  33.119  10.701
27685W        W99411  15.759  42.830   1.824
27686W        W99412  25.946   5.246   1.539
27687W        W99413  31.586  29.980   3.207
27688W        W99414  23.933   2.300   1.353
27689W        W99415   6.200  32.149  14.342
27690W        W99416  36.355  44.006  13.422
27691W        W99417   4.928  18.047  14.095
27692W        W99418   1.167  22.936   1.213
27693W        W99419  12.065  24.101   3.680
27694W        W99420   2.991  13.362  11.219
27695W        W99421  13.799  11.632  12.705
27696W        W99422  20.780  26.521   4.929
27697W        W99423  10.080   5.393   1.816
27698W        W99424   8.826   9.424  14.670
27699W        W99425  43.493  20.442  13.057
27700W        W99426  10.416  41.469  13.928
27701W        W99427  43.785   1.586   3.995
27702W        W99428  13.718  29.556  13.940
27703W        W99429  28.133  35.023   0.295
27704W        W99430   2.215   8.564  12.569
27705W        W99431  43.474   5.757   0.667
27706W        W99432   2.287  22.377   4.440
27707W        W99433  13.225   2.294   2.397
27708W        W99434  31.194  27.900   2.451
27709W        W99435  39.120  43.444   3.173
27710W        W99436   1.785  19.123  14.749
27711W        W99437  42.034  14.574   2.930
27712W        W99438  24.628   9.058   2.384
27713W        W99439  11.813  40.414  10.687
27714W        W99440   8.011  35.759   9.737
27715W        W99441  36.375  20.723   3.147
27716W        W99442  13.343  32.338  12.861
27717W        W99443  17.035  14.461  13.766
27718W        W99444   7.001   8.121   2.649
27719W        W99445  14.709   5.463  14.336
27720W        W99446  25.721   9.065  12.928
27721W        W99447  22.899   7.323  10.263
27722W        W99448   6.242   6.795   2.492
27723W        W99449   3.476  12.643  14.392
27724W        W99450  40.464   9.230  11.074
27725W        W99451  30.511  26.325   1.814
27726W        W99452  17.351  35.567  10.493
27727W        W99453   7.266  19.561  13.544
27728W        W99454  32.920  41.827   4.127
27729W        W99455   9.355  43.772  12.799
27730W        W99456   6.494   8.679   4.605
27731W        W99457  34.576  44.739  12.000
27732W        W99458  42.610   2.715   3.211
27733W        W99459   3.260  26.726   1.942
27734W        W99460  13.839  13.359  12.045
27735W        W99461   1.491  19.642  14.380
27736W        W99462  15.292  14.356  14.570
27737W        W99463  21.088  37.287   0.510
27738W        W99464  40.960   4.866   3.205
27739W        W99465  11.769  33.138   3.754
27740W        W99466  15.321  29.042   2.489
27741W        W99467  17.138   4.313   3.603
27742W        W99468   5.824  36.928   0.929
27743W        W99469  20.062  28.268  13.143
27744W        W99470  40.742  22.496  11.206
27745W        W99471   5.260  39.231   0.799
27746W        W99472   5.243  40.946   2.739
27747W        W99473  10.100  37.331  11.608
27748W        W99474   7.591  38.039   1.883
27749W        W99475  16.518  34.942  13.768
27750W        W99476  33.094  31.605  14.056
27751W        W99477   8.438  36.144  14.412
27752W        W99478  20.249  22.484   1.809
27753W        W99479  24.304  28.141  10.137
27754W        W99480  34.871  12.963  14.301
27755W        W99481  31.693  39.445   4.308
27756W        W99482   4.276  29.371   0.311
27757W        W99483  32.138  41.518   2.744
27758W        W99484  36.546  11.784  14.440
27759W        W99485  34.832  23.675  10.607
27760W        W99486  23.418   5.802  14.402
27761W        W99487  31.513  15.743  13.507
27762W        W99488  24.731   9.630   3.576
27763W        W99489   0.787   7.680   4.314
27764W        W99490  40.393  37.928   4.527
27765W        W99491  28.838  12.020   2.837
27766W        W99492  12.373  23.168   3.107
27767W        W99493  10.121  28.612   2.195
27768W        W99494  39.594  29.439  11.642
27769W        W99495  43.144  24.973   4.471
27770W        W99496  28.442  44.257  12.918
27771W        W99497   4.184  16.573  13.815
27772W        W99498  27.177  12.996  12.142
27773W        W99499   9.545   2.903  11.247
27774W        W99500   1.452  21.171  14.650
27775W        W99501  23.203  25.816  13.327
27776W        W99502  21.301  16.498   4.230
27777W        W99503  42.025  14.034  10.595
27778W        W99504   7.776  14.118  13.318
27779W        W99505  31.687  22.839   1.146
27780W        W99506  35.514  15.035  12.222
27781W        W99507  31.551   9.065   3.354
27782W        W99508  38.165  14.092   1.930
27783W        W99509  39.419  27.808   2.985
27784W        W99510  36.796  32.881   2.276
27785W        W99511  40.707  20.102  10.470
27786W        W99512   2.653  38.944  11.003
27787W        W99513   3.248  38.920  11.065
27788W        W99514  26.384  36.021   4.036
27789W        W99515   7.584  24.206  13.967
27790W        W99516  22.500   2.444   4.935
27791W        W99517  39.459  43.015  12.377
27792W        W99518  11.178  13.278   0.035
27793W        W99519  42.730  41.412  10.991
27794W        W99520  31.138  33.898   4.559
27795W        W99521  17.444   6.249   1.232
27796W        W99522  17.235  27.422   3.343
27797W        W99523   6.385   9.149  12.917
27798W        W99524  37.856  35.008  14.803
27799W        W99525  18.218  40.206  14.059
27800W        W99526   0.766   9.421  13.129
27801W        W99527  32.874   8.517   3.768
27802W        W99528   8.298  26.554  13.437
27803W        W99529  41.303   2.085   0.948
27804W        W99530  32.507   4.871  14.953
27805W        W99531  44.826  14.565  11.248
27806W        W99532  13.660  10.847   0.442
27807W        W99533  17.213  13.445  14.978
27808W        W99534   4.950   8.394   2.224
27809W        W99535  18.271  20.408   3.280
27810W        W99536  31.473  11.662   2.816
27811W        W99537  22.546  22.622  10.714
27812W        W99538   2.081  18.310   0.274
27813W        W99539  16.576   2.059   2.731
27814W        W99540  26.721   2.692  11.199
27815W        W99541   5.368  31.002  12.049
27816W        W99542   6.175  20.268   1.296
27817W        W99543  13.601  16.650  13.354
27818W        W99544  20.319   5.405   3.715
27819W        W99545  30.602   8.140  10.957
27820W        W99546   5.966  42.338   2.819
27821W        W99547  22.475  40.492   4.267
27822W        W99548  33.493   5.854  13.625
27823W        W99549   9.799  32.809   2.827
27824W        W99550   3.841  17.452  13.744
27825W        W99551  30.426  34.555  10.581
27826W        W99552  20.527  44.996  10.620
27827W        W99553  29.975  20.082   1.653
27828W        W99554  20.609  36.405  11.380
27829W        W99555  20.575  32.930   0.370
27830W        W99556   7.792  39.851   2.773
27831W        W99557   0.030  24.982   2.216
27832W        W99558  21.073  10.168  12.094
27833W        W99559  27.560   4.608   0.354
27834W        W99560  26.420  12.566  13.029
27835W        W99561   3.755  17.712   1.122
27836W        W99562  16.698  14.771   4.036
27837W        W99563  41.553  20.051   2.759
27838W        W99564  42.228  44.127   3.258
27839W        W99565   2.257  13.415   0.967
27840W        W99566  13.875  39.265   3.605
27841W        W99567  44.934  23.810   2.628
27842W        W99568  15.338  26.480   3.735
27843W        W99569  40.874   2.907   4.644
27844W        W99570  38.750   6.338  12.860
27845W        W99571  36.112   0.046   1.325
27846W        W99572  23.496  13.877   3.940
27847W        W99573   4.886  42.792  10.627
27848W        W99574   9.475   7.552   2.945
27849W        W99575   5.050  34.002  13.899
27850W        W99576  13.114  24.192  10.959
27851W        W99577  12.593   5.949   0.331
27852W        W99578  26.578  33.859  12.578
27853W        W99579  23.247  44.544   4.611
27854W        W99580  33.147  29.748  11.451
27855W        W99581  10.249  41.742   5.322
27856W        W99582   8.004  17.179   2.237
27857W        W99583  35.450  36.130   1.423
27858W        W99584  13.593  28.183   1.169
27859W        W99585  36.557  36.657  12.013
27860W        W99586  20.453  22.766   1.417
27861W        W99587  36.002   6.709  11.732
27862W        W99588   1.012   3.099  12.793
27863W        W99589  24.654  35.874  14.846
27864W        W99590  29.626   0.460  14.304
27865W        W99591  31.928  33.371  13.632
27866W        W99592  27.640  15.321  14.797
27867W        W99593  23.041   3.216   3.098
27868W        W99594   5.191  28.029  12.513
27869W        W99595   7.886  29.445   1.313
27870W        W99596  31.518  26.431  13.910
27871W        W99597  24.558  20.298  13.793
27872W        W99598  41.849  38.614  14.059
27873W        W99599   5.928   1.759   1.906
27874W        W99600   1.317   5.096  14.018
27875W        W99601  13.691   4.964   3.901
27876W        W99602  10.083  37.589   3.100
27877W        W99603  31.689  40.882  13.824
27878W        W99604   1.539   9.444  13.548
27879W        W99605   1.297  15.923  12.082
27880W        W99606   7.339  25.618   3.229
27881W        W99607  42.637  35.847   3.761
27882W        W99608  40.589  40.178   2.800
27883W        W99609  39.504  16.518  14.795
27884W        W99610   2.470   0.866   4.003
27885W        W99611   6.352   7.623  12.848
27886W        W99612  41.101  26.484   3.292
27887W        W99613  28.188  21.235   4.232
27888W        W99614  37.938   4.888   2.217
27889W        W99615  23.189  10.817  12.086
27890W        W99616  33.812  38.845   4.167
27891W        W99617  23.264   0.174   3.835
27892W        W99618  32.473   0.426  11.230
27893W        W99619  37.505  37.037   1.609
27894W        W99620  18.714   1.868   2.212
27895W        W99621   9.881  14.750   1.350
27896W        W99622  41.407  23.880  12.666
27897W        W99623   4.912  15.606  10.218
27898W        W99624  22.666  28.534   5.464
27899W        W99625   3.343  20.019   4.401
27900W        W99626  35.811  19.672  11.213
27901W        W99627  17.473  10.079   3.660
27902W        W99628   2.336  24.667  11.588
27903W        W99629  30.684  25.024  14.340
27904W        W99630  28.033  31.001   1.808
27905W        W99631  25.139  39.823   0.851
27906W        W99632  22.283  25.472  10.226
27907W        W99633  30.521  23.504   1.458
27908W        W99634  40.987   4.434  11.183
27909W        W99635  24.684   3.453   4.657
27910W        W99636  29.804  34.918   2.123
27911W        W99637  22.173  33.015   0.687
27912W        W99638  39.013  27.110   1.895
27913W        W99639  24.152  15.087   0.176
27914W        W99640  35.241  17.908   0.799
27915W        W99641  32.584  28.452   0.023
27916W        W99642  28.700  10.248  14.543
27917W        W99643  30.429  35.660  10.651
27918W        W99644   1.742  19.653   3.609
27919W        W99645  23.317  35.607  11.205
27920W        W99646  24.647  28.180   0.887
27921W        W99647  20.564  41.799   0.704
27922W        W99648   0.269  40.739   0.885
27923W        W99649  38.555  21.695   0.216
27924W        W99650  12.487  13.822  13.053
27925W        W99651  35.377  30.924   0.852
27926W        W99652  38.456   4.775  10.344
27927W        W99653  24.845  20.427   3.358
27928W        W99654   3.217  29.737  10.766
27929W        W99655  40.464   3.210   3.692
27930W        W99656  34.505   3.956   4.596
27931W        W99657  35.069  26.888  13.912
27932W        W99658  37.769  27.859  11.983
27933W        W99659  35.521  42.731  11.652
27934W        W99660  25.596  14.702   0.317
27935W        W99661  30.157  36.359   2.253
27936W        W99662  11.834  11.863   2.379
27937W        W99663  40.058  28.164   4.497
27938W        W99664  32.091  11.798  11.927
27939W        W99665  43.208  23.741  13.363
27940W        W99666  32.360  24.368   4.495
27941W        W99667   7.593  40.950   2.893
27942W        W99668  35.896  40.019   2.393
27943W        W99669  39.396  16.100   2.949
27944W        W99670  37.018   7.483   1.244
27945W        W99671  29.548   6.962  13.511
27946W        W99672  43.342   9.640   4.060
27947W        W99673  21.796   3.086   4.652
27948W        W99674  12.143  26.377  12.983
27949W        W99675  37.572  37.114   4.055
27950W        W99676  19.290  36.455   1.926
27951W        W99677  16.253   9.397  14.750
27952W        W99678  11.095   9.094  13.472
27953W        W99679  11.716  14.822  14.078
27954W        W99680  23.578   8.168  10.761
27955W        W99681   6.772  32.504   2.386
27956W        W99682  14.285  33.540  10.683
27957W        W99683   2.915  34.417  13.492
27958W        W99684   8.420  12.862   2.230
27959W        W99685  41.706   3.179   0.335
27960W        W99686  10.034  35.427   2.723
27961W        W99687  18.970   0.954   1.787
27962W        W99688  37.838  23.148   1.719
27963W        W99689  24.538  39.208   4.610
27964W        W99690  32.396   0.478  10.710
27965W        W99691   0.238  42.326   1.933
27966W        W99692  15.772  43.346  10.642
27967W        W99693   0.138  44.243   1.361
27968W        W99694   1.176   5.456   1.681
27969W        W99695  12.742  22.104   3.782
27970W        W99696  22.943  22.158  11.637
27971W        W99697  12.833  44.396   3.108
27972W        W99698  38.866  38.377  11.608
27973W        W99699   8.640  21.646   2.882
27974W        W99700   4.442  29.810   0.521
27975W        W99701  10.357  35.557  14.307
27976W        W99702  21.018  44.810  12.351
27977W        W99703   2.661  29.143   3.681
27978W        W99704  38.001  18.754  11.199
27979W        W99705   8.699  43.256  12.434
27980W        W99706  36.509  19.832   1.389
27981W        W99707  32.890  15.564  11.505
27982W        W99708  28.227  10.320  12.680
27983W        W99709  40.884  36.038  14.578
27984W        W99710   1.307  24.083   0.788
27985W        W99711  38.849  14.107  13.530
27986W        W99712   3.201   5.247   1.311
27987W        W99713   3.949  15.861   0.266
27988W        W99714  14.529  40.189   4.969
27989W        W99715   5.068  17.518   1.415
27990W        W99716  39.754  32.095   4.203
27991W        W99717  13.293  23.533   3.917
27992W        W99718  30.131  18.963  12.072
27993W        W99719  24.684   9.814   3.097
27994W        W99720  10.147  15.937  12.622
27995W        W99721  32.534   4.357  10.493
27996W        W99722   2.116  32.896   4.302
27997W        W99723  35.955  34.070   4.939
27998W        W99724  24.120   3.011   3.308
27999W        W99725  20.685  39.376  11.056
28000W        W99726   3.989  12.585   0.009
28001W        W99727  21.275   6.196   2.360
28002W        W99728  24.708   2.817  11.360
28003W        W99729  10.322  35.572  13.250
28004W        W99730  42.302  40.389   0.843
28005W        W99731  12.750  15.346  12.700
28006W        W99732  36.181  37.608  11.905
28007W        W99733   2.623  21.993   3.734
28008W        W99734  27.706  10.677  10.627
28009W        W99735  26.533  19.076   4.080
28010W        W99736  28.146  27.522   1.342
28011W        W99737  12.202  39.724   0.934
28012W        W99738   1.481  19.980  11.537
28013W        W99739  29.505  40.708  14.404
28014W        W99740   5.816  41.911  12.084
28015W        W99741  44.448  34.164  13.994
28016W        W99742  23.504  11.286  12.017
28017W        W99743   6.943  42.694   2.171
28018W        W99744  37.569  16.124   4.084
28019W        W99745  36.583  41.245   5.191
28020W        W99746  41.785  38.852   0.336
28021W        W99747  14.656  11.357  13.032
28022W        W99748  12.851  13.414  14.695
28023W        W99749  19.830  11.126  14.667
28024W        W99750  36.781  40.690  11.164
28025W        W99751  20.011  35.994   1.974
28026W        W99752  13.747  13.757   0.186
28027W        W99753   6.748  37.364  14.140
28028W        W99754  25.019  34.534  11.165
28029W        W99755  32.642  39.050   3.552
28030W        W99756   7.767  21.312  14.015
28031W        W99757  18.069   5.809   2.621
28032W        W99758   6.576   2.026  10.867
28033W        W99759  14.247  37.500  12.693
28034W        W99760  26.835  23.643  12.884
28035W        W99761  25.979  17.643  10.745
28036W        W99762  38.409  27.211   2.665
28037W        W99763  26.098  19.146  12.639
28038W        W99764  44.297   6.352  12.508
28039W        W99765  31.522   9.669   3.772
28040W        W99766  23.874  14.369   2.376
28041W        W99767  10.054  14.139  10.218
28042W        W99768  38.905  40.833  14.800
28043W        W99769  28.337  26.188  13.885
28044W        W99770   2.282  43.346   4.620
28045W        W99771  43.230   2.911  10.442
28046W        W99772  10.220  38.879   3.282
28047W        W99773   8.706  37.231   3.411
28048W        W99774  28.452  35.908  14.193
28049W        W99775  28.863  44.418  11.620
28050W        W99776  15.625   6.716   1.321
28051W        W99777  39.040  30.469  12.049
28052W        W99778  36.595  39.548  13.806
28053W        W99779  17.566  19.936   4.544
28054W        W99780  18.701  34.803   1.063
28055W        W99781  20.281  39.190   2.027
28056W        W99782  14.653  19.027   0.322
28057W        W99783  12.282  36.978   0.736
28058W        W99784  18.710   2.059   1.203
28059W        W99785   2.305  35.569  11.141
28060W        W99786   6.786  24.081  11.639
28061W        W99787  11.070  26.248   3.172
28062W        W99788  17.819  13.794  12.149
28063W        W99789  24.280   7.979  13.093
28064W        W99790   8.812  10.896  14.984
28065W        W99791   4.704  21.818   3.064
28066W        W99792  33.700  32.960  14.224
28067W        W99793  11.059  40.929   1.527
28068W        W99794  43.493   4.667  11.656
28069W        W99795   9.095  29.547  12.969
28070W        W99796  42.074   8.901   2.807
28071W        W99797  24.428  35.863  10.586
28072W        W99798  21.567  27.794   3.074
28073W        W99799  27.717  31.461   1.200
28074W        W99800  21.972  22.088  12.951
28075W        W99801  11.292  40.801  13.642
28076W        W99802  11.293  32.110  11.198
28077W        W99803   6.753   0.448  13.116
28078W        W99804  36.873  20.006  12.491
28079W        W99805  40.131  14.937  12.900
28080W        W99806   4.666  44.098   1.642
28081W        W99807   5.469  24.621  14.522
28082W        W99808   3.348  20.614   0.849
28083W        W99809   0.393  39.900   2.626
28084W        W99810  29.672  40.263  12.431
28085W        W99811  39.853  33.971  12.134
28086W        W99812  34.037  25.244   3.285
28087W        W99813  21.588  14.617   3.351
28088W        W99814  38.323  10.569  12.803
28089W        W99815  22.467  43.353   1.946
28090W        W99816  24.889  28.067   4.144
28091W        W99817   9.844  41.346   4.278
28092W        W99818  31.039   6.134  13.932
28093W        W99819  20.329  43.206  13.539
28094W        W99820  21.598  25.553  10.608
28095W        W99821  18.146  37.817  14.674
28096W        W99822  44.378  22.612   2.313
28097W        W99823  30.934  24.302   5.174
28098W        W99824  31.134  19.071   2.620
28099W        W99825  24.165  36.955   0.128
28100W        W99826  37.817  27.514   1.369
28101W        W99827  19.223  43.411  11.031
28102W        W99828  26.569  16.068  11.769
28103W        W99829  35.152  13.920   4.200
28104W        W99830   3.528  31.246  11.190
28105W        W99831  24.011  17.846   3.173
28106W        W99832   3.859  37.787  10.264
28107W        W99833  44.180  18.082   1.908
28108W        W99834  21.619  10.079  11.494
28109W        W99835  27.393   8.795   2.274
28110W        W99836   7.236  31.961  12.888
28111W        W99837  32.374  36.300   3.363
28112W        W99838   4.371  28.863   2.345
28113W        W99839  35.523  44.561   2.833
28114W        W99840   5.456  35.977   1.058
28115W        W99841  23.788   0.346   2.318
28116W        W99842   0.182  31.305   2.313
28117W        W99843   5.397  44.625   1.576
28118W        W99844  33.218  11.071   0.895
28119W        W99845   2.292  35.511   1.364
28120W        W99846  42.908   2.187  13.391
28121W        W99847  30.069  26.174  11.477
28122W        W99848   2.734  14.148   2.779
28123W        W99849  39.023  34.506  11.096
28124W        W99850  33.528  29.421  14.522
28125W        W99851  11.597  35.148  11.021
28126W        W99852   6.887  22.159   3.741
28127W        W99853   0.411   1.267  13.386
28128W        W99854  20.597  34.261   5.131
28129W        W99855  31.354   7.921   0.308
28130W        W99856  33.158  36.514   3.690
28131W        W99857   2.896  18.156  11.424
28132W        W99858   3.486  24.180  11.227
28133W        W99859  17.977  19.319   1.320
28134W        W99860   3.266   7.073   2.421
28135W        W99861   9.114  20.450   2.931
28136W        W99862  22.694  24.625   0.401
28137W        W99863   1.159   4.347   0.487
28138W        W99864  44.393  38.101  13.441
28139W        W99865   8.065  35.051  10.114
28140W        W99866  37.553  14.838  12.630
28141W        W99867  26.451  41.513  14.823
28142W        W99868  13.832  36.546   3.797
28143W        W99869  33.089  13.220  14.607
28144W        W99870  43.493  25.043  13.739
28145W        W99871   1.969  35.837   2.964
28146W        W99872  27.964  25.987   0.291
28147W        W99873   8.805  30.188   4.816
28148W        W99874  43.921   2.704  14.770
28149W        W99875  33.095  21.541   3.667
28150W        W99876  23.462  24.618  13.824
28151W        W99877   6.234  34.073  12.465
28152W        W99878   7.709   8.133   3.880
28153W        W99879  31.451  42.555  14.159
28154W        W99880  26.064  39.906   4.997
28155W        W99881  41.999  41.749  11.095
28156W        W99882  27.931  36.911  13.974
28157W        W99883  11.729  35.857  10.257
28158W        W99884  12.343  14.775   1.354
28159W        W99885  32.054   5.912  11.594
28160W        W99886  42.574  16.174  14.373
28161W        W99887   1.775  20.872  10.713
28162W        W99888  25.667  40.020  12.599
28163W        W99889  11.941  28.766  12.170
28164W        W99890  36.499  29.569   5.144
28165W        W99891   4.121  29.178  13.030
28166W        W99892  12.743  13.151   3.115
28167W        W99893  35.606   9.200   2.811
28168W        W99894   4.397   0.747   4.858
28169W        W99895   4.741  37.880   4.462
28170W        W99896   1.752  28.533   4.626
28171W        W99897  20.413  30.989  12.241
28172W        W99898  27.575  22.353   3.217
28173W        W99899  38.889   8.379   3.338
28174W        W99900  28.395   2.039  12.287
28175W        W99901  34.463  22.178  10.681
28176W        W99902  12.310  34.423  13.934
28177W        W99903  23.538  41.659   0.442
28178W        W99904  16.089  20.549   2.753
28179W        W99905  24.578  43.778  13.134
28180W        W99906  38.971  13.785   3.720
28181W        W99907  26.533  39.178   2.439
28182W        W99908   8.741   0.245  14.171
28183W        W99909  31.102  33.498   2.381
28184W        W99910  36.430   6.951  12.580
28185W        W99911  10.882  32.491   0.312
28186W        W99912  22.219  37.623  13.394
28187W        W99913  23.548  25.482   2.532
28188W        W99914  37.858  15.160  12.285
28189W        W99915  35.807   6.688   0.959
28190W        W99916  11.188  37.330  13.418
28191W        W99917  37.219  39.431  10.745
28192W        W99918  42.826  21.653  13.794
28193W        W99919  29.466  44.255  12.516
28194W        W99920  15.153  35.446  12.102
28195W        W99921  44.957  32.912  11.024
28196W        W99922  40.472  22.002   0.789
28197W        W99923  31.470  25.993  11.544
28198W        W99924  15.343   8.612  11.136
28199W        W99925  29.574  18.085   0.499
28200W        W99926   3.813  44.069  14.747
28201W        W99927  43.928   4.947  11.635
28202W        W99928  39.807  10.133   4.644
28203W        W99929   7.636  38.304  12.856
28204W        W99930   2.345  22.325  12.869
28205W        W99931  22.729  27.242  12.411
28206W        W99932  14.843  17.532  13.976
28207W        W99933  44.563   0.358   2.771
28208W        W99934  32.927   8.806   5.062
28209W        W99935  14.490  22.370   4.207
28210W        W99936   3.957  27.430   1.426
28211W        W99937  31.650  20.780  13.533
28212W        W99938   0.242  31.312   0.507
28213W        W99939  41.656  17.080   0.398
28214W        W99940  39.131   2.344   1.137
28215W        W99941  20.487  24.411   1.721
28216W        W99942   3.363   2.280   3.699
28217W        W99943  22.022  38.600   4.316
28218W        W99944  15.388  28.225   4.695
28219W        W99945   2.829   4.022   0.842
28220W        W99946  17.596  44.071  14.141
28221W        W99947  27.016  20.169   3.616
28222W        W99948  25.135  17.149  12.336
28223W        W99949  39.292  14.685  13.038
28224W        W99950  19.510  43.334   4.824
28225W        W99951   9.674   4.998  14.270
28226W        W99952  43.382  11.774  10.123
28227W        W99953  34.007  41.343   1.418
28228W        W99954   3.270  38.348   4.190
28229W        W99955  14.766  38.271  14.847
28230W        W99956  36.759  42.976   3.745
28231W        W99957  37.863  44.630   4.662
28232W        W99958  34.513  43.891   4.513
28233W        W99959   1.538  37.949   3.822
28234W        W99960  32.516  17.076  14.945
28235W        W99961   3.138  42.124   3.669
28236W        W99962  11.155   7.257  12.122
28237W        W99963  17.063   0.087   2.315
28238W        W99964   3.162   2.484   4.163
28239W        W99965  33.973  29.172   4.977
28240W        W99966  43.985   1.481   3.077
28241W        W99967  23.556  27.501  12.396
28242W        W99968  16.907  30.660   3.161
28243W        W99969  21.553  23.147  10.577
28244W        W99970  43.056   6.241   3.648
28245W        W99971  16.107  37.411  14.803
28246W        W99972  42.969  38.386  12.447
28247W        W99973  30.805  20.151   3.651
28248W        W99974  22.153   7.036  11.813
28249W        W99975  18.800  28.883   0.937
28250W        W99976  36.025  11.286   4.106
28251W        W99977  12.197  18.328   2.356
28252W        W99978  40.669  27.867  13.852
28253W        W99979   8.752  38.370   1.626
28254W        W99980   0.315  43.686   1.677
28255W        W99981   3.194  23.076   1.404
28256W        W99982  16.712  17.517  14.726
28257W        W99983  32.597  13.850  13.014
28258W        W99984  22.553  39.761   2.731
28259W        W99985  15.359  33.518   1.329
28260W        W99986   5.694  38.757  12.976
28261W        W99987  36.367  31.405   4.572
28262W        W99988  32.047   8.419  11.657
28263W        W99989  37.536  28.313   3.190
28264W        W99990  20.665  22.950   2.278
28265W        W99991  29.555  10.652  14.286
28266W        W99992  34.232  42.132  11.491
28267W        W99993  43.995  37.321   1.452
28268W        W99994  31.619  35.485  12.426
28269W        W99995   2.718   9.934  13.641
28270W        W99996  16.169  23.239  13.908
28271W        W99997   3.932   3.116  12.123
28272W        W99998  11.610  14.610   0.490
28273W        W99999  35.183  40.670   1.394
28274W        W    0  37.115  18.369   0.809
28275W        W    1   8.506  26.650  10.989
28276W        W    2   3.654  35.479   0.835
28277W        W    3  28.696  24.699   3.370
28278W        W    4  28.611  26.004  11.104
28279W        W    5  22.520   0.254  13.135
28280W        W    6  10.952  35.156   4.677
28281W        W    7  16.011   2.890  12.032
28282W        W    8  25.509  25.693   0.419
28283W        W    9  10.584  37.469   3.244
28284W        W   10  31.512  19.751   3.256
28285W        W   11  40.538  22.000  13.561
28286W        W   12   7.580  42.728  11.200
28287W        W   13   2.691  10.437  11.591
28288W        W   14  29.926   1.675  13.429
28289W        W   15  24.494  15.358   2.343
28290W        W   16  44.851  32.108   0.739
28291W        W   17  29.416  30.500   0.692
28292W        W   18  14.954  25.445  11.667
28293W        W   19  34.177   2.453   1.302
28294W        W   20  25.013  32.867  12.913
28295W        W   21  26.877  25.920  13.081
28296W        W   22  25.836  34.194   5.026
28297W        W   23  30.365  24.244   2.651
28298W        W   24  14.232  17.735  14.443
28299W        W   25  26.619  11.850  12.517
28300W        W   26  25.023  25.380  10.650
28301W        W   27  37.372  33.756  11.384
28302W        W   28   3.758  18.454  12.524
28303W        W   29   3.122   2.249   4.930
28304W        W   30  42.981  12.374  13.803
28305W        W   31  13.486  21.745  12.640
28306W        W   32  27.099  21.789   2.655
28307W        W   33  20.385  43.979  12.103
28308W        W   34   6.001   5.356   0.508
28309W        W   35   0.996  26.297  11.161
28310W        W   36  34.145  38.574  14.468
28311W        W   37  22.572  12.546  12.027
28312W        W   38  31.694  17.767   1.777
28313W        W   39  25.030  33.442  11.730
28314W        W   40  10.421  34.250   5.018
28315W        W   41  21.280  11.571  13.730
28316W        W   42   4.627  36.405   1.609
28317W        W   43  20.005   3.850   4.940
28318W        W   44  14.232   4.450  13.399
28319W        W   45  15.270  12.066  13.975
28320W        W   46  23.689  44.119   2.866
28321W        W   47  44.482   8.169   0.876
28322W        W   48  43.420  25.096  10.703
28323W        W   49   1.762  24.479  10.933
28324W        W   50  41.154   0.695  14.377
28325W        W   51  17.626   2.046   2.661
28326W        W   52  40.985  30.036  11.201
28327W        W   53  29.460  11.354  11.713
28328W        W   54  28.131  12.151  13.714
28329W        W   55  30.843  20.956   4.601
28330W        W   56  20.149   8.708  14.836
28331W        W   57  41.928  12.542  10.677
28332W        W   58  20.677  42.055   4.628
28333W        W   59   8.254   6.999   0.491
28334W        W   60  15.242  15.182  10.666
28335W        W   61  31.856  22.024  14.284
28336W        W   62  18.198  41.443   4.751
28337W        W   63  24.423  29.995   0.476
28338W        W   64  43.705  14.650   2.087
28339W        W   65   3.157   2.224  13.425
28340W        W   66  33.097  12.166   3.089
28341W        W   67  11.750  37.855  13.389
28342W        W   68  22.116  15.358  10.954
28343W        W   69  16.856  25.223   0.813
28344W        W   70  35.915  23.498   0.791
28345W        W   71   2.378   9.766   4.011
28346W        W   72   2.250  19.074  11.320
28347W        W   73  25.443  18.658   0.392
28348W        W   74  19.154   9.257  11.321
28349W        W   75  12.864   4.406   1.365
28350W        W   76  44.286  41.005  10.722
28351W        W   77  22.915  40.986   1.256
28352W        W   78   3.416  37.851  11.192
28353W        W   79  27.651  10.376   3.188
28354W        W   80  28.715   4.718  11.397
28355W        W   81  43.310  39.812   1.703
28356W        W   82  28.458  12.903   1.821
28357W        W   83   0.916  41.903  12.938
28358W        W   84   2.339  10.438  14.874
28359W        W   85  13.194   2.254   2.913
28360W        W   86  39.504  43.503  13.728
28361W        W   87  17.819   9.693  13.033
28362W        W   88  36.463  23.079   2.004
28363W        W   89  19.745  34.616   4.184
28364W        W   90  19.740  34.577   3.184
28365W        W   91  13.655  39.723  13.096
28366W        W   92   8.726  21.243  14.410
28367W        W   93  25.308  14.580   4.982
28368W        W   94  15.513   1.371   1.224
28369W        W   95  38.256  36.840  14.466
28370W        W   96  39.488  16.713  11.995
28371W        W   97   3.910  15.657  14.766
28372W        W   98  18.857  38.984   4.048
28373W        W   99   5.932   0.225  13.889
28374W        W  100   4.486  28.096  13.560
28375W        W  101  22.137   2.786   2.229
28376W        W  102   6.788  28.525  12.453
28377W        W  103   1.235  26.517   0.572
28378W        W  104  38.467  18.581   1.855
28379W        W  105   7.407   9.481  13.507
28380W        W  106  15.188  17.287  14.262
28381W        W  107  38.240  41.968   2.802
28382W        W  108  16.074  19.529  11.894
28383W        W  109   5.337  18.434   4.130
28384W        W  110  36.122  26.781  11.092
28385W        W  111  12.271   3.684  12.021
28386W        W  112  25.653  25.651  11.649
28387W        W  113  24.202  23.807   4.848
28388W        W  114  16.819  28.094  13.649
28389W        W  115  18.991  16.722  12.134
28390W        W  116   2.778  31.865  11.601
28391W        W  117  27.005  32.438  13.908
28392W        W  118   5.776   0.205   3.728
28393W        W  119  34.469   0.840   4.374
28394W        W  120  34.159  21.103   1.277
28395W        W  121  34.429  18.877  12.586
28396W        W  122  18.222  16.215  13.974
28397W        W  123  16.648  38.062   2.333
28398W        W  124  19.719  19.787   3.145
28399W        W  125   4.731   8.741   4.245
28400W        W  126  42.554   2.436  14.544
28401W        W  127  37.283  11.622   2.375
28402W        W  128  32.082  26.030  13.346
28403W        W  129  21.739  33.793  13.452
28404W        W  130  25.457  11.236   3.345
28405W        W  131  23.213  37.034  14.276
28406W        W  132   3.158  23.060   0.528
28407W        W  133  14.917  28.030   4.573
28408W        W  134   4.491   9.225  11.027
28409W        W  135  16.105  17.760   2.781
28410W        W  136  12.637   2.952   0.414
28411W        W  137  37.796   6.442  12.828
28412W        W  138  39.962   2.469  11.622
28413W        W  139  29.138  12.433   2.975
28414W        W  140  26.010  22.093   4.664
28415W        W  141  10.158  38.461   4.050
28416W        W  142  37.430   5.700   2.750
28417W        W  143  42.334   0.241  12.609
28418W        W  144  30.695  20.267  14.271
28419W        W  145   5.720  44.592  13.323
28420W        W  146  10.214  12.088   3.681
28421W        W  147  36.877  40.352   0.299
28422W        W  148  28.154   4.371   1.453
28423W        W  149  43.347   6.236  14.355
28424W        W  150  38.392   7.320   2.405
28425W        W  151  41.227  14.279  13.331
28426W        W  152  27.450  43.021   2.882
28427W        W  153  43.026   2.487  10.652
28428W        W  154  43.865  18.327  10.486
28429W        W  155  16.882  33.505   4.232
28430W        W  156  20.210  42.869   1.919
28431W        W  157  19.695   2.671   4.122
28432W        W  158   1.347  26.336  10.773
28433W        W  159  42.964   2.490   0.745
28434W        W  160   6.421   7.299   3.716
28435W        W  161   7.847  30.668   3.695
28436W        W  162  22.363  30.224   2.524
28437W        W  163  31.599  34.989   0.426
28438W        W  164  10.651   3.868   3.852
28439W        W  165   5.851  18.533   4.812
28440W        W  166  35.648  25.830   0.508
28441W        W  167  39.780  18.488  11.962
28442W        W  168   5.334  43.669   2.784
28443W        W  169  20.759   4.962   1.174
28444W        W  170  10.889  34.464   1.275
28445W        W  171   5.656  10.735  11.166
28446W        W  172   1.541  19.435   4.923
28447W        W  173  33.396  21.557  13.914
28448W        W  174  24.390  23.309   0.591
28449W        W  175   4.404  43.770  13.760
28450W        W  176  38.741  39.616   3.343
28451W        W  177  22.537  39.614  12.015
28452W        W  178  17.655  38.963   2.279
28453W        W  179   2.764  31.743  12.626
28454W        W  180  18.463  26.040   0.076
28455W        W  181  34.847   0.830   4.019
28456W        W  182  25.454  19.297   3.565
28457W        W  183  40.441   9.408   2.845
28458W        W  184  38.924  37.148   1.266
28459W        W  185  37.122  16.186  12.504
28460W        W  186  42.483   7.725   2.215
28461W        W  187  29.485  36.131  14.349
28462W        W  188  15.985  32.135   0.775
28463W        W  189   3.769  44.338  13.795
28464W        W  190   1.932  30.795   2.896
28465W        W  191  17.123  23.105   0.435
28466W        W  192  32.122   6.171  14.878
28467W        W  193  41.826  19.863  10.717
28468W        W  194  22.751  27.688   0.811
28469W        W  195  40.722  17.219   1.744
28470W        W  196  16.717  21.864  11.481
28471W        W  197  34.376  27.156  12.712
28472W        W  198  40.406  34.073  11.016
28473W        W  199  44.561   1.280   1.340
28474W        W  200  12.318  42.363   0.063
28475W        W  201   1.906  26.561  14.754
28476W        W  202  24.608  44.485   2.774
28477W        W  203  29.157  41.825   4.709
28478W        W  204   6.698  35.930   1.978
28479W        W  205  18.171  25.073   3.150
28480W        W  206   7.665  20.462  12.378
28481W        W  207  12.832  10.056   4.217
28482W        W  208  43.350  27.895  13.294
28483W        W  209  10.609   0.970  11.725
28484W        W  210  35.027  44.436  13.619
28485W        W  211  36.728   4.847  13.441
28486W        W  212  38.341  39.297   3.271
28487W        W  213  36.812   2.893   2.839
28488W        W  214  17.973  36.940   2.584
28489W        W  215  44.713   2.546  10.971
28490W        W  216  44.268  42.735   2.196
28491W        W  217  43.816   8.811  13.325
28492W        W  218  40.817  20.629  10.629
28493W        W  219  38.743  27.462  11.970
28494W        W  220  35.275   6.555   2.375
28495W        W  221  10.062  15.047  11.202
28496W        W  222   3.664  10.555   2.796
28497W        W  223  38.784  19.206  12.173
28498W        W  224   1.111  25.239  10.233
28499W        W  225  42.395  14.738  12.384
28500W        W  226  26.596  25.394  13.300
28501W        W  227  29.338  34.995  11.123
28502W        W  228  44.708  12.832   3.363
28503W        W  229   0.375  32.378  14.713
28504W        W  230  28.886   1.832  12.483
28505W        W  231  10.670   2.863  13.361
28506W        W  232  18.613  18.150   4.620
28507W        W  233  10.865  42.321  11.388
28508W        W  234   5.456   7.450   1.985
28509W        W  235  18.537  34.854  13.877
28510W        W  236  16.806  28.934   4.274
28511W        W  237  16.545  39.976  10.492
28512W        W  238  21.389  25.866  10.202
28513W        W  239  22.473  29.022   2.220
28514W        W  240   9.237  34.992   3.062
28515W        W  241  17.629  11.812   1.366
28516W        W  242  13.211  30.189   1.826
28517W        W  243  35.807  35.843  10.708
28518W        W  244   5.332  29.965  14.025
28519W        W  245  38.965  26.486   3.599
28520W        W  246  10.396   5.172  11.206
28521W        W  247  32.568  13.839   3.969
28522W        W  248  39.166   4.001   4.237
28523W        W  249  30.925   6.883   4.485
28524W        W  250  24.416  38.920  11.005
28525W        W  251  40.790  26.606   1.469
28526W        W  252   0.027  30.024   4.344
28527W        W  253  19.609  23.155   4.909
28528W        W  254  13.142   0.111  13.451
28529W        W  255  12.988   0.340   0.750
28530W        W  256  39.576  10.248  11.186
28531W        W  257  32.690  18.628  13.127
28532W        W  258  13.324   7.114   4.000
28533W        W  259  44.790  30.981  13.812
28534W        W  260  22.145  36.332  14.375
28535W        W  261   0.493  36.373   0.013
28536W        W  262  23.051  35.487  11.648
28537W        W  263  34.399  29.320   2.847
28538W        W  264  12.860  23.443   3.122
28539W        W  265   1.520   4.300   2.276
28540W        W  266  15.865  28.948  11.135
28541W        W  267  41.120  11.631  14.443
28542W        W  268  29.847  43.044   4.572
28543W        W  269  37.504   8.086  10.958
28544W        W  270  12.204   7.301  11.016
28545W        W  271  32.136   2.930   2.209
28546W        W  272  13.749  40.549   0.605
28547W        W  273  29.659  28.641  13.760
28548W        W  274  35.986  36.345  10.690
28549W        W  275  28.429  19.259  10.364
28550W        W  276  13.096   9.052   4.319
28551W        W  277  32.459  20.026   1.197
28552W        W  278   2.906   9.700   0.885
28553W        W  279  43.179   1.734  13.413
28554W        W  280   5.369  24.207  13.667
28555W        W  281  21.442   9.752  13.797
28556W        W  282   7.628   5.335  10.595
28557W        W  283  34.276  41.063  11.986
28558W        W  284  39.596  12.662  12.001
28559W        W  285  31.960  13.474  13.532
28560W        W  286  41.603  37.338  12.838
28561W        W  287  10.418  22.002  12.331
28562W        W  288  28.443  34.086   0.239
28563W        W  289  35.340  25.412   0.396
28564W        W  290  44.442  37.801   2.220
28565W        W  291  38.644  43.154   4.205
28566W        W  292  24.613  29.169  14.923
28567W        W  293  16.621  43.182  12.489
28568W        W  294  20.605   3.316   2.768
28569W        W  295  14.672  19.300   0.782
28570W        W  296  21.095  32.385  14.985
28571W        W  297  34.618  14.779   3.701
28572W        W  298   0.046   0.743  11.119
28573W        W  299  31.909  24.689   0.913
28574W        W  300  29.925   6.323  10.491
28575W        W  301  18.744   7.255  10.353
28576W        W  302   7.423  39.639   3.674
28577W        W  303  11.593  40.030   1.276
28578W        W  304  39.831  22.912  14.935
28579W        W  305  16.071  20.059  14.494
28580W        W  306  14.189   6.197  14.001
28581W        W  307  19.806  20.572   2.025
28582W        W  308  27.119  20.158  13.466
28583W        W  309   9.163  25.157  10.617
28584W        W  310  23.059  35.571  13.299
28585W        W  311  12.395  35.996  12.497
28586W        W  312  29.066  43.626   3.775
28587W        W  313  13.636  44.023   3.168
28588W        W  314  14.632  13.695   3.219
28589W        W  315  14.005  26.022   1.362
28590W        W  316  35.451  36.549   0.652
28591W        W  317  43.539  26.867   2.548
28592W        W  318  38.848  17.603  13.525
28593W        W  319  16.220   5.735  13.943
28594W        W  320  27.048  21.088   2.410
28595W        W  321  40.395   0.043  13.455
28596W        W  322  34.992  31.412   0.221
28597W        W  323  21.776  23.279   3.041
28598W        W  324  44.430  25.093  11.697
28599W        W  325  15.069   9.595  11.169
28600W        W  326  21.913  44.950   3.827
28601W        W  327  30.192  33.006   3.468
28602W        W  328  10.200  16.216   1.978
28603W        W  329   6.804   2.359  12.850
28604W        W  330  26.637  15.275   0.956
28605W        W  331   9.709  26.274  14.452
28606W        W  332   0.667  20.438   1.054
28607W        W  333  26.918  21.756  11.729
28608W        W  334  25.697  33.865  12.408
28609W        W  335  33.133  20.250   0.426
28610W        W  336  44.359  43.041   4.017
28611W        W  337  38.869  11.107  12.487
28612W        W  338  18.193  18.626  10.590
28613W        W  339   9.629  33.099   0.308
28614W        W  340  30.808  39.519   2.349
28615W        W  341  37.486  27.063  10.985
28616W        W  342   5.627  21.644  13.334
28617W        W  343  44.417  14.366   0.406
28618W        W  344  17.934  31.908   0.537
28619W        W  345  17.495  16.516   2.888
28620W        W  346   8.326  13.877   2.449
28621W        W  347  25.618  17.030  12.142
28622W        W  348  25.523  37.923   4.181
28623W        W  349  30.476  24.565   4.648
28624W        W  350  21.666   6.840   5.005
28625W        W  351  21.794  10.732   2.678
28626W        W  352  23.917  34.065   0.933
28627W        W  353  36.787   6.741  14.476
28628W        W  354   0.638  39.571   4.043
28629W        W  355  23.940  30.947  14.061
28630W        W  356   3.845  41.341   1.725
28631W        W  357  14.572  37.806  12.984
28632W        W  358  12.892  35.550   4.635
28633W        W  359  25.912  12.320  12.912
28634W        W  360   9.851   0.970  12.991
28635W        W  361  22.601  14.228   4.718
28636W        W  362   2.760  37.603   4.082
28637W        W  363  26.699  37.292  10.914
28638W        W  364  18.096   7.147   2.626
28639W        W  365  31.366  21.983   3.253
28640W        W  366   7.361  28.544  10.689
28641W        W  367  37.959  38.804  10.633
28642W        W  368  41.437  43.964  10.883
28643W        W  369   9.194  36.543  11.655
28644W        W  370   5.402   0.281   2.722
28645W        W  371  35.472   1.977   2.311
28646W        W  372  21.539   7.213   3.691
28647W        W  373  10.931  22.774   1.915
28648W        W  374  38.442  13.187  14.562
28649W        W  375  28.736  40.960  12.553
28650W        W  376   3.484  36.447  11.267
28651W        W  377   6.750  32.505  11.911
28652W        W  378  10.149  12.657   2.595
28653W        W  379  32.478  40.840   0.021
28654W        W  380  28.003  22.303  13.854
28655W        W  381  11.232  14.665  12.460
28656W        W  382  15.582  10.881  12.995
28657W        W  383  39.518  14.070   4.977
28658W        W  384   9.394   4.862   4.469
28659W        W  385  43.984   4.551   1.855
28660W        W  386  23.163  44.382   1.381
28661W        W  387   8.931  44.660  13.111
28662W        W  388  41.048  14.761  14.458
28663W        W  389  29.544  27.220   3.777
28664W        W  390  15.801  11.658  12.536
28665W        W  391  34.847  23.536   1.692
28666W        W  392  28.651  28.100  10.753
28667W        W  393  19.116  14.595  11.621
28668W        W  394  23.033  41.053  13.082
28669W        W  395  30.044  43.953  14.505
28670W        W  396  28.881  30.456   1.886
28671W        W  397  24.270  11.494  12.549
28672W        W  398  37.870  37.097  13.550
28673W        W  399  23.382  30.431   4.819
28674W        W  400   4.705   9.330  11.500
28675W        W  401  35.789  10.869   2.458
28676W        W  402   3.310   6.462  12.826
28677W        W  403  16.656  30.562   1.020
28678W        W  404  24.051   5.128   4.903
28679W        W  405   3.682  43.733   0.924
28680W        W  406  27.109  40.880  14.789
28681W        W  407   3.681  20.948  14.070
28682W        W  408   7.226  12.778   4.167
28683W        W  409   8.779  11.785  14.333
28684W        W  410  15.258   1.764  11.271
28685W        W  411  22.084  13.344  11.972
28686W        W  412   9.706  24.533  13.629
28687W        W  413   7.726  28.525  11.988
28688W        W  414  44.511   2.438  13.072
28689W        W  415  39.393   4.507   0.936
28690W        W  416  29.127  34.974   4.799
28691W        W  417  17.189  29.642   1.997
28692W        W  418  43.899  17.121   0.242
28693W        W  419  19.823  19.617  13.939
28694W        W  420   1.833   5.652  11.626
28695W        W  421  26.635  35.014  12.320
28696W        W  422  27.566  31.929  11.336
28697W        W  423  29.445  31.957  11.578
28698W        W  424   4.245   1.773  13.387
28699W        W  425  18.044  33.125   2.560
28700W        W  426  31.362  33.983   1.318
28701W        W  427  27.499  22.730  11.039
28702W        W  428  20.057  23.234  11.740
28703W        W  429  27.898  32.551   4.224
28704W        W  430  16.526  12.312  11.422
28705W        W  431  23.232  16.337  14.950
28706W        W  432   0.820  33.423  12.778
28707W        W  433  12.347  43.541   4.339
28708W        W  434  24.117  27.584  10.593
28709W        W  435   8.104  40.780   1.187
28710W        W  436   0.526  35.360   4.183
28711W        W  437  40.315  18.817  12.894
28712W        W  438  44.799  39.281  14.466
28713W        W  439  40.821  20.583   1.355
28714W        W  440  37.025  29.492  13.540
28715W        W  441  43.816   2.792  11.526
28716W        W  442  35.018  26.959   3.276
28717W        W  443  40.324  26.532  14.186
28718W        W  444  10.602  30.532  13.920
28719W        W  445  28.362  27.373   1.855
28720W        W  446  27.745   9.670  12.366
28721W        W  447  26.177  18.687  13.368
28722W        W  448  16.845  41.461  11.555
28723W        W  449  38.574  26.033  12.937
28724W        W  450  12.730   8.777  14.669
28725W        W  451  29.926  26.107   0.010
28726W        W  452  19.508  30.461   1.090
28727W        W  453  18.310  40.528   0.960
28728W        W  454   4.402   6.635   0.759
28729W        W  455   9.308  27.740  14.750
28730W        W  456   4.617  41.663  12.946
28731W        W  457   6.522  29.502   0.941
28732W        W  458  21.711   8.636   4.783
28733W        W  459   7.192  26.776   4.563
28734W        W  460  13.709  10.841  12.118
28735W        W  461  11.046   3.187   0.048
28736W        W  462  33.133   6.365   0.167
28737W        W  463  40.059   1.284  13.797
28738W        W  464  11.715   2.004  13.445
28739W        W  465  34.560  41.588   4.270
28740W        W  466   9.582  14.016  13.360
28741W        W  467  31.931  43.161  11.999
28742W        W  468  35.565   4.346   0.811
28743W        W  469  23.772  18.638  13.528
28744W        W  470  24.209  12.569  10.997
28745W        W  471   5.953  33.068  11.121
28746W        W  472  31.016   8.971   5.108
28747W        W  473  34.535   8.797  14.800
28748W        W  474   0.283  19.467  13.826
28749W        W  475   2.739  14.760   3.131
28750W        W  476  39.317  36.317   3.266
28751W        W  477  40.492   2.174   3.702
28752W        W  478   1.036  19.655  13.592
28753W        W  479   6.887  22.506  11.581
28754W        W  480  14.502  14.913   4.145
28755W        W  481  21.614  38.035   1.318
28756W        W  482  41.813  44.033  13.359
28757W        W  483  10.874  33.454   4.162
28758W        W  484  33.606  24.359   4.330
28759W        W  485  36.381   9.505   0.938
28760W        W  486  29.701   7.597  11.169
28761W        W  487   9.211  32.154  12.027
28762W        W  488  25.614  40.435   4.870
28763W        W  489  12.312   6.203   0.883
28764W        W  490  20.657   3.403  11.527
28765W        W  491  35.800  19.460   1.688
28766W        W  492  40.893  28.714   2.231
28767W        W  493  19.549   5.908   1.867
28768W        W  494  35.172  37.320  10.351
28769W        W  495   0.382   9.645  14.833
28770W        W  496  19.281  40.037  14.913
28771W        W  497  10.145  35.590  11.569
28772W        W  498  18.689   2.213   3.209
28773W        W  499   7.326  38.892   2.066
28774W        W  500  21.949   0.712  14.568
28775W        W  501  16.303  42.734   1.865
28776W        W  502   2.646  30.000   1.344
28777W        W  503  19.580   4.766  14.784
28778W        W  504  40.305  13.671  13.941
28779W        W  505  20.676  22.162  14.949
28780W        W  506  23.524  35.668  11.657
28781W        W  507  16.408  31.196   4.296
28782W        W  508   9.442  21.664  12.338
28783W        W  509   0.371  20.511  12.351
28784W        W  510  24.403  26.533   5.403
28785W        W  511  19.271  32.167   4.268
28786W        W  512   2.514  37.808   3.646
28787W        W  513  37.202  23.157  13.490
28788W        W  514   0.271  26.697  11.509
28789W        W  515  44.945  30.037  11.138
28790W        W  516  42.517   8.656  10.333
28791W        W  517  30.704  32.813  12.219
28792W        W  518  16.644   7.674   2.773
28793W        W  519  24.381  21.635   3.604
28794W        W  520  18.098  25.000  12.679
28795W        W  521  30.776   5.431   2.883
28796W        W  522  11.933  11.200   4.321
28797W        W  523  30.698  33.620  12.821
28798W        W  524  17.715  27.561  12.808
28799W        W  525   4.174  17.955   4.313
28800W        W  526  31.643  33.951   1.759
28801W        W  527  15.633  37.398   4.853
28802W        W  528  10.423  32.216  11.729
28803W        W  529  33.044  12.630   4.803
28804W        W  530  22.310   6.839   0.706
28805W        W  531  11.248  39.335  13.743
28806W        W  532  32.565  44.194  11.039
28807W        W  533  20.699  14.144   0.346
28808W        W  534  26.502  19.767  11.477
28809W        W  535   8.418  35.335   5.472
28810W        W  536  30.213  38.549  13.870
28811W        W  537  13.244  44.676  10.276
28812W        W  538  36.911   5.224  14.574
28813W        W  539   4.964  25.638   0.425
28814W        W  540  31.631  37.412   2.876
28815W        W  541  31.826   8.619  14.367
28816W        W  542  36.519  30.858  14.598
28817W        W  543   9.695  35.733   0.601
28818W        W  544  15.877   1.435  12.687
28819W        W  545  23.361  18.237   2.723
28820W        W  546  43.358  20.327  11.673
28821W        W  547   1.765   1.234   0.403
28822W        W  548  27.157  37.772   1.215
28823W        W  549   8.129  36.811   1.315
28824W        W  550  38.917   1.197   0.474
28825W        W  551   5.674  28.115   3.700
28826W        W  552  14.387  38.863   4.666
28827W        W  553   1.388  35.974  14.120
28828W        W  554  15.530  41.411  12.941
28829W        W  555  36.328  42.895   3.193
28830W        W  556   6.320  27.386   4.582
28831W        W  557  11.589   6.393   3.421
28832W        W  558  10.830  31.192   1.359
28833W        W  559  20.728  13.188   2.146
28834W        W  560  32.554  44.432   1.195
28835W        W  561   9.171   5.286   4.645
28836W        W  562  10.909   5.625   4.284
28837W        W  563   5.869  41.250   1.413
28838W        W  564  30.328  40.536  11.148
28839W        W  565  38.594   6.827   3.893
28840W        W  566  34.496  39.413   3.865
28841W        W  567  11.073   2.771   4.742
28842W        W  568   9.612  15.832  11.028
28843W        W  569  25.709  15.271   0.826
28844W        W  570  39.356   4.484   1.476
28845W        W  571  42.899  35.137   3.285
28846W        W  572  28.950  39.303  12.893
28847W        W  573  34.974  19.006  14.846
28848W        W  574   7.817  28.611  10.420
28849W        W  575  10.879   0.871  13.379
28850W        W  576  25.595   1.605  14.411
28851W        W  577  42.462  33.008   4.690
28852W        W  578  29.681  30.367  10.729
28853W        W  579  13.273  33.284   4.580
28854W        W  580  44.421  25.732   2.668
28855W        W  581  10.249  23.925   1.767
28856W        W  582  12.583  11.312   3.657
28857W        W  583  30.988  26.997  10.190
28858W        W  584   5.342  19.078   3.397
28859W        W  585  11.420  18.375   1.415
28860W        W  586  21.602  22.131   0.461
28861W        W  587  42.992   6.080   2.630
28862W        W  588  34.241   6.181   2.111
28863W        W  589  30.080   8.380  11.635
28864W        W  590  43.886  35.035   4.673
28865W        W  591   9.615   0.021   3.159
28866W        W  592   6.340  20.515  14.089
28867W        W  593  15.276  16.915  11.892
28868W        W  594  17.236  19.032  13.194
28869W        W  595   8.226  27.824  14.743
28870W        W  596  28.955   2.764   4.717
28871W        W  597  16.888  35.006   3.104
28872W        W  598  36.730  34.443  12.604
28873W        W  599   2.382   6.703  11.975
28874W        W  600  28.504  27.944  11.210
28875W        W  601  42.931  34.163  12.960
28876W        W  602   5.569  10.165   3.976
28877W        W  603  14.729  43.937  13.454
28878W        W  604  11.196   5.507  13.367
28879W        W  605  34.069  10.816   4.637
28880W        W  606  18.288   8.600   0.430
28881W        W  607   8.950  37.197   1.354
28882W        W  608  14.331  14.299   0.777
28883W        W  609   0.878  23.660  11.541
28884W        W  610  40.959   2.424   3.712
28885W        W  611  36.396  18.642   4.391
28886W        W  612   8.484  20.607  12.267
28887W        W  613  31.485  42.014  10.234
28888W        W  614  42.515  42.351   3.003
28889W        W  615   6.295  16.193   2.240
28890W        W  616   3.143  13.867  10.710
28891W        W  617  39.411  35.279   3.213
28892W        W  618  43.940  44.197  13.982
28893W        W  619  35.147  23.108  14.488
28894W        W  620  41.894  42.907  10.615
28895W        W  621  18.598  43.007  11.179
28896W        W  622  34.062  40.978   0.561
28897W        W  623  30.322  24.147  10.585
28898W        W  624  25.278  29.959   1.819
28899W        W  625   4.147  14.595   3.273
28900W        W  626  21.567   2.365  11.585
28901W        W  627  31.467   9.794  12.873
28902W        W  628  14.661   3.452   2.603
28903W        W  629  14.823  26.576  13.474
28904W        W  630  42.754  27.824   3.684
28905W        W  631  11.849   9.227   3.358
28906W        W  632  40.555   7.872   2.816
28907W        W  633  13.320   0.346  10.817
28908W        W  634  16.081  34.480   4.577
28909W        W  635   2.949  27.897  11.621
28910W        W  636  31.923  39.619  12.878
28911W        W  637  42.718  25.381   2.125
28912W        W  638   2.284  40.862  13.040
28913W        W  639  27.053  26.258   2.735
28914W        W  640  24.683  26.927  11.524
28915W        W  641  28.482  23.225   0.501
28916W        W  642   2.790  13.942  13.061
28917W        W  643  12.135  37.122  10.489
28918W        W  644   1.691  40.380  12.437
28919W        W  645  36.580  38.070   2.807
28920W        W  646  11.655  40.807  11.441
28921W        W  647  43.475  24.181  13.387
28922W        W  648  17.183   4.726   4.719
28923W        W  649  15.723  19.694  10.696
28924W        W  650   0.031  37.824   3.727
28925W        W  651  41.551  31.197   3.818
28926W        W  652  28.041  27.183  12.634
28927W        W  653  14.906  22.222  10.457
28928W        W  654  29.102   5.029   2.027
28929W        W  655  38.799  34.645  14.065
28930W        W  656  21.986  43.914  10.706
28931W        W  657   1.061  16.653  14.301
28932W        W  658  17.077  29.552   3.828
28933W        W  659   4.846  34.912  11.659
28934W        W  660  11.620  43.550   1.644
28935W        W  661   9.282  32.691  10.225
28936W        W  662  39.310  39.329  11.660
28937W        W  663  44.549  25.790  11.107
28938W        W  664  29.724   7.320  14.737
28939W        W  665   3.945   5.155  14.888
28940W        W  666   3.883  37.987   1.334
28941W        W  667  11.245  44.435   1.005
28942W        W  668  39.228  26.385   2.650
28943W        W  669  37.114  38.112   2.719
28944W        W  670  40.097  13.184  13.858
28945W        W  671  15.262   9.778  10.730
28946W        W  672  12.251  23.975   1.667
28947W        W  673  14.342   9.394   5.208
28948W        W  674  24.720   3.830  14.030
28949W        W  675  26.015   2.715  12.488
28950W        W  676  10.105  32.118   3.333
28951W        W  677   1.543   5.210  10.827
28952W        W  678  38.493  14.056   3.357
28953W        W  679  33.948  18.292   1.733
28954W        W  680  20.334   3.729   1.908
28955W        W  681  25.707   7.883   2.460
28956W        W  682  29.724  37.199  12.567
28957W        W  683  38.969  22.995  12.790
28958W        W  684  40.052  34.602  11.597
28959W        W  685  38.420  23.000   0.908
28960W        W  686   7.272  43.004   0.402
28961W        W  687  44.880  15.387  10.619
28962W        W  688  21.131  29.921   0.838
28963W        W  689  13.438  39.435  11.143
28964W        W  690  23.367  33.729  11.589
28965W        W  691  43.545   6.289   1.899
28966W        W  692  38.051   2.452   3.873
28967W        W  693  31.232   9.247   4.729
28968W        W  694  37.222   4.521   3.789
28969W        W  695   3.200   9.087   0.310
28970W        W  696   4.792  30.425   0.954
28971W        W  697  23.726  31.513  12.556
28972W        W  698  15.179  20.625   0.801
28973W        W  699   0.862  40.029   3.880
28974W        W  700  37.661  23.734  12.031
28975W        W  701  20.012  23.517   3.146
28976W        W  702  31.715   6.503   2.535
28977W        W  703  34.982  17.235   3.372
28978W        W  704  38.487  16.527   2.809
28979W        W  705  38.449   0.820  10.451
28980W        W  706  35.055   6.252   4.098
28981W        W  707  16.775  22.051  12.944
28982W        W  708  43.992  15.389  14.939
28983W        W  709  11.458  23.187  13.525
28984W        W  710  16.145   0.266   0.334
28985W        W  711  33.901  13.631   4.594
28986W        W  712  29.349  10.403   1.273
28987W        W  713   0.469  25.939  13.717
28988W        W  714  23.281  10.741   3.903
28989W        W  715  33.938   3.674  13.037
28990W        W  716  33.315  44.166  11.602
28991W        W  717   9.184   3.308  10.636
28992W        W  718  33.450  31.066  11.433
28993W        W  719  11.160   4.965  11.858
28994W        W  720   1.373  16.196  12.841
28995W        W  721   7.629   6.784   0.983
28996W        W  722  26.725  21.692   3.199
28997W        W  723   4.225   8.800  12.744
28998W        W  724   4.203  18.474   4.172
28999W        W  725  39.089  42.983   0.176
29000W        W  726  15.313  17.761   0.307
29001W        W  727  42.035  37.789  14.476
29002W        W  728  17.105   7.683  14.030
29003W        W  729  41.303  34.401   0.916
29004W        W  730  16.981  28.013  14.229
29005W        W  731  25.176  19.346  11.072
29006W        W  732   5.918  33.438   4.052
29007W        W  733  43.210  19.333  11.537
29008W        W  734   9.062  13.252  14.936
29009W        W  735  44.794   5.362  10.715
29010W        W  736   5.193   4.902  13.842
29011W        W  737  32.636   4.187   0.714
29012W        W  738   0.291  23.462  12.600
29013W        W  739  24.507  20.498   0.974
29014W        W  740   4.342  30.531   3.298
29015W        W  741  16.635  22.500  10.672
29016W        W  742  36.128  27.013  12.297
29017W        W  743  36.081  40.075  11.744
29018W        W  744  36.905  27.601  13.484
29019W        W  745   7.701   1.979  12.456
29020W        W  746   5.586   2.397   1.268
29021W        W  747  43.254  18.466  12.008
29022W        W  748  15.199   3.043  11.110
29023W        W  749  13.340  39.363   1.889
29024W        W  750  27.309  25.672  10.708
29025W        W  751  11.585  24.469   4.573
29026W        W  752  23.791  41.487  14.191
29027W        W  753  14.787   5.722  10.571
29028W        W  754  30.663  10.638   4.102
29029W        W  755  28.532   9.701   0.461
29030W        W  756   0.592  22.131   1.270
29031W        W  757  20.743   9.955   3.264
29032W        W  758   2.217   8.651  13.336
29033W        W  759   8.858  32.337   3.656
29034W        W  760  39.868  12.685  14.164
29035W        W  761  30.069  40.753  13.020
29036W        W  762  17.156  23.145  10.440
29037W        W  763  24.922   8.358  12.104
29038W        W  764  42.260  15.372  13.425
29039W        W  765  35.078  20.076   2.213
29040W        W  766  31.094  31.083   2.276
29041W        W  767  25.331  15.438   2.748
29042W        W  768  29.578  23.989   2.028
29043W        W  769  26.682  28.597  13.980
29044W        W  770  34.100   9.144   1.672
29045W        W  771  25.285  44.499  12.280
29046W        W  772  36.854  33.594   4.282
29047W        W  773  25.169   9.826   3.314
29048W        W  774   1.444   3.959   4.656
29049W        W  775  28.012  11.632   4.570
29050W        W  776   1.920   0.825   2.785
29051W        W  777  33.116  30.013   0.413
29052W        W  778  14.531  23.102  13.389
29053W        W  779  36.499  37.574   0.830
29054W        W  780  27.066  25.832   5.045
29055W        W  781   6.196   1.260   2.265
29056W        W  782  12.262  24.142   3.140
29057W        W  783  20.165  35.970  14.760
29058W        W  784   0.537   6.665  11.219
29059W        W  785  38.302   0.953   3.906
29060W        W  786  36.396   0.022   1.844
29061W        W  787  43.525  36.468  14.338
29062W        W  788  41.461  34.060  14.451
29063W        W  789  28.880  26.536  11.147
29064W        W  790  31.437  41.153   5.365
29065W        W  791   1.654  32.487   4.527
29066W        W  792  44.335  41.273   4.860
29067W        W  793  34.060   9.746  13.885
29068W        W  794  39.761   1.422  11.437
29069W        W  795  30.388  39.430  13.049
29070W        W  796  22.487  29.722   2.637
29071W        W  797  25.263  12.864   2.489
29072W        W  798  29.208  38.760   4.338
29073W        W  799  14.911  30.595   3.159
29074W        W  800  33.760  25.016   4.675
29075W        W  801  21.509   2.646   4.740
29076W        W  802  15.566  23.265  14.050
29077W        W  803  35.167  10.275   3.414
29078W        W  804  44.516   9.387   0.291
29079W        W  805  31.901  27.992  14.652
29080W        W  806  29.605  37.569   4.035
29081W        W  807  17.982  24.144  10.707
29082W        W  808   7.374   3.812   3.402
29083W        W  809   0.709  44.533  14.750
29084W        W  810   4.901  15.354   0.480
29085W        W  811  16.045  14.660  14.406
29086W        W  812  31.266  42.357   3.879
29087W        W  813  14.537  35.596  11.134
29088W        W  814  23.456  14.539   0.243
29089W        W  815  27.676  43.006   0.738
29090W        W  816  31.593  44.351   1.283
29091W        W  817  18.026  17.558   2.358
29092W        W  818   9.490  12.648  13.371
29093W        W  819  18.683   6.305  11.551
29094W        W  820  35.662  27.180  14.073
29095W        W  821  14.495   7.276   0.746
29096W        W  822  12.978   8.649   4.614
29097W        W  823  13.801  33.454  13.170
29098W        W  824  24.605  24.715  12.911
29099W        W  825  32.641  38.788  11.335
29100W        W  826  35.866  16.588   4.802
29101W        W  827  44.778  16.628   4.252
29102W        W  828  28.139  22.609  11.907
29103W        W  829  30.570  44.273   0.995
29104W        W  830  27.820   1.042   1.072
29105W        W  831  42.908  23.069  12.131
29106W        W  832   1.527  15.035   4.546
29107W        W  833   8.916  14.465  11.904
29108W        W  834  27.647   9.344  11.040
29109W        W  835  31.667  33.288  11.937
29110W        W  836   1.200   2.324   3.764
29111W        W  837  30.059  38.118   0.777
29112W        W  838  19.062   9.500  14.504
29113W        W  839   9.094   4.633  11.996
29114W        W  840   3.739  30.974   1.369
29115W        W  841  22.714  30.025   4.665
29116W        W  842   7.112  18.727  10.464
29117W        W  843   9.305  27.082   4.128
29118W        W  844  13.200  29.067  14.481
29119W        W  845  11.090  30.916  14.758
29120W        W  846  41.038  36.421   0.467
29121W        W  847  33.801   6.687   4.623
29122W        W  848   8.754  21.979  10.590
29123W        W  849  35.614  15.061  14.969
29124W        W  850  41.934  17.205   4.972
29125W        W  851  20.029   0.851  12.342
29126W        W  852  27.450  24.533  11.228
29127W        W  853   6.833  10.123  10.431
29128W        W  854   9.646   1.981  11.279
29129W        W  855  15.186   8.523  11.636
29130W        W  856  24.248   5.861   3.559
29131W        W  857  37.995  34.790  13.618
29132W        W  858   8.747  22.229   2.332
29133W        W  859  27.741  43.819   1.241
29134W        W  860  26.907  34.677   4.780
29135W        W  861   8.132   3.512  11.566
29136W        W  862  43.390  34.027  13.638
29137W        W  863  40.508  19.247  12.597
29138W        W  864  13.161   2.930   0.282
29139W        W  865  10.212  13.821  12.581
29140W        W  866   5.996  26.573   3.871
29141W        W  867  15.854  32.415   1.201
29142W        W  868  35.403  30.411  13.372
29143W        W  869  23.715  16.892  11.547
29144W        W  870  19.329   6.696  12.438
29145W        W  871   0.349  42.394   2.956
29146W        W  872  24.999  31.412   0.662
29147W        W  873  31.532  18.342  12.673
29148W        W  874   9.952  20.527  12.121
29149W        W  875  27.211  26.017  14.853
29150W        W  876  11.896  14.753   2.666
29151W        W  877   6.897  10.322   4.165
29152W        W  878  38.754  10.230  12.690
29153W        W  879  28.551  32.715   3.824
29154W        W  880  34.725   6.828  11.538
29155W        W  881  29.969  41.421  14.195
29156W        W  882  29.019  26.885  13.518
29157W        W  883  43.202  41.898   2.326
29158W        W  884  44.799   2.199  14.871
29159W        W  885  16.586   3.897  12.974
29160W        W  886  14.601  14.212   2.632
29161W        W  887  35.910   9.060   4.326
29162W        W  888   5.496  43.175   2.041
29163W        W  889  12.491   9.706  13.484
29164W        W  890   5.745  36.700  13.081
29165W        W  891  10.359  24.625  10.593
29166W        W  892  19.326  14.067   1.997
29167W        W  893  44.297  28.465  11.526
29168W        W  894  21.925  31.514  13.048
29169W        W  895  41.720  43.346  12.023
29170W        W  896   7.492  27.960   1.814
29171W        W  897  24.561  33.667  11.159
29172W        W  898   1.337  19.203   0.720
29173W        W  899   4.913  23.186   0.879
29174W        W  900  24.710  22.151  10.632
29175W        W  901  36.432  32.083   1.225
29176W        W  902   9.877  42.488  11.502
29177W        W  903  30.856  42.939  11.907
29178W        W  904  10.456  11.051  11.062
29179W        W  905  16.507  25.556   3.894
29180W        W  906  16.519  29.948  13.481
29181W        W  907  35.757  35.568   3.716
29182W        W  908   6.859  13.416  10.575
29183W        W  909  20.725  22.203   4.404
29184W        W  910  31.605  43.035  14.917
29185W        W  911   8.632   3.452  13.560
29186W        W  912  10.058  27.345  13.283
29187W        W  913  44.811   1.476  13.393
29188W        W  914   3.394  34.184  14.176
29189W        W  915  12.737   2.999   2.912
29190W        W  916  42.768  20.813   1.297
29191W        W  917  13.545  32.555   3.297
29192W        W  918  37.901   6.694  11.887
29193W        W  919  22.366  36.828  14.443
29194W        W  920  40.284  28.219  13.837
29195W        W  921  26.282  29.900  11.120
29196W        W  922  33.597   0.409   3.882
29197W        W  923  26.028  13.600   1.383
29198W        W  924  29.398  39.264   0.889
29199W        W  925  34.290  26.216   1.500
29200W        W  926   8.256  18.848  11.576
29201W        W  927  12.442  29.797  13.349
29202W        W  928  31.715   7.229  14.037
29203W        W  929  33.882  40.359   2.627
29204W        W  930  40.479  13.992  13.007
29205W        W  931   4.955   8.904   2.788
29206W        W  932  20.400   1.786   0.475
29207W        W  933  11.347   0.774  10.752
29208W        W  934  36.411   9.477  14.525
29209W        W  935   9.740  23.284   5.381
29210W        W  936  10.386   2.508  12.694
29211W        W  937  26.150   7.798   3.906
29212W        W  938  28.079  33.958  11.871
29213W        W  939  13.761   9.206  14.749
29214W        W  940  34.137  32.930  14.991
29215W        W  941  43.239  28.659   4.621
29216W        W  942  31.840   2.208   4.624
29217W        W  943   1.313  35.025   4.407
29218W        W  944   9.331  25.471  10.271
29219W        W  945  21.479  23.271   1.823
29220W        W  946   6.337  34.913   0.251
29221W        W  947  38.093   6.945  13.374
29222W        W  948   3.546   4.320  11.925
29223W        W  949  37.449  23.893   0.930
29224W        W  950  22.164   7.399  12.216
29225W        W  951  22.046  40.813   0.525
29226W        W  952  14.552  33.095   3.741
29227W        W  953  11.633  15.128  14.722
29228W        W  954   3.266  23.870   0.404
29229W        W  955  17.744  43.095  13.980
29230W        W  956   4.891  39.327   2.636
29231W        W  957   6.499  23.990  14.787
29232W        W  958  13.834   4.909   4.409
29233W        W  959  34.386   8.446   0.139
29234W        W  960  25.030  42.026  10.970
29235W        W  961  35.053  13.634   4.610
29236W        W  962  20.777   8.242  14.015
29237W        W  963   7.409   9.121  14.915
29238W        W  964  41.367   4.685  12.676
29239W        W  965  26.552  14.619   4.821
29240W        W  966  11.687  22.471   2.709
29241W        W  967   8.879  42.757  12.442
29242W        W  968  35.081  16.359  13.855
29243W        W  969  36.908   3.404  14.536
29244W        W  970  44.464  17.739  12.420
29245W        W  971   0.894  12.131  12.228
29246W        W  972  42.376  37.627  13.341
29247W        W  973  10.266  40.083   4.448
29248W        W  974  24.001  14.066   9.822
29249W        W  975  26.865  33.884   0.443
29250W        W  976  11.824  17.489   2.130
29251W        W  977  15.774   4.718   4.679
29252W        W  978  17.671  21.139  11.377
29253W        W  979  16.127   4.394  14.543
29254W        W  980  14.805  29.701  10.607
29255W        W  981  36.351  16.810  13.612
29256W        W  982   0.803  30.032   3.116
29257W        W  983  38.208  20.116   2.858
29258W        W  984   3.055  10.351   2.165
29259W        W  985  23.048   7.240   4.668
29260W        W  986  11.756  41.912  14.620
29261W        W  987   8.038  30.797  14.073
29262W        W  988  12.446  22.896   0.290
29263W        W  989  16.360  44.417  13.838
29264W        W  990  21.963   0.762  12.044
29265W        W  991  21.654  23.633   0.492
29266W        W  992  14.676  16.638   0.989
29267W        W  993  41.362  37.380  10.679
29268W        W  994   2.346   3.460  14.822
29269W        W  995   8.390  26.121  13.134
29270W        W  996  34.710  19.094   4.568
29271W        W  997   7.787   7.115  14.427
29272W        W  998  38.389   7.399   1.895
29273W        W  999  18.387  30.241   3.863
29274W        W 1000   8.710   1.076  12.601
29275W        W 1001  40.567  32.580   4.599
29276W        W 1002  17.791  22.187   4.246
29277W        W 1003  27.273  14.673  12.507
29278W        W 1004   7.872  17.677  10.911
29279W        W 1005  37.343  24.658  13.160
29280W        W 1006  18.135   7.145   0.639
29281W        W 1007   9.511   0.630  14.912
29282W        W 1008  31.870  25.709  14.883
29283W        W 1009  40.907   6.705   4.567
29284W        W 1010   1.371  34.891  11.163
29285W        W 1011   6.333  11.641  11.246
29286W        W 1012  32.407   5.911   0.260
29287W        W 1013  11.164  32.853   3.285
29288W        W 1014   3.025   2.747   0.865
29289W        W 1015   9.694  23.279  11.747
29290W        W 1016  42.296   5.654  12.478
29291W        W 1017  38.304  38.546   3.808
29292W        W 1018   8.894  27.632   3.895
29293W        W 1019  28.395  44.467  13.794
29294W        W 1020   2.771  38.589   0.494
29295W        W 1021  31.014  23.618  12.886
29296W        W 1022   6.790  33.803  11.857
29297W        W 1023  44.033  10.379  11.220
29298W        W 1024  39.114  21.601   4.045
29299W        W 1025  24.532  13.847   2.759
29300W        W 1026  38.439  32.093  10.884
29301W        W 1027  14.853  36.751   1.401
29302W        W 1028  44.003  16.746   1.567
29303W        W 1029  11.561  37.455  14.372
29304W        W 1030  12.221  28.641  11.407
29305W        W 1031  27.678   9.656  14.212
29306W        W 1032  14.622  32.995   0.845
29307W        W 1033  11.710   1.473   0.787
29308W        W 1034  28.185  19.693   4.086
29309W        W 1035  15.406   5.916   3.132
29310W        W 1036   5.812   9.100   2.280
29311W        W 1037  17.105  44.534   0.328
29312W        W 1038  26.184  35.461  13.816
29313W        W 1039   5.835   1.527  13.041
29314W        W 1040   7.004  39.188   2.870
29315W        W 1041  11.196  31.650  11.424
29316W        W 1042  25.689   0.813   4.220
29317W        W 1043   2.829  20.233  13.126
29318W        W 1044  27.004  27.657   0.805
29319W        W 1045  12.879  42.778   2.133
29320W        W 1046  28.168   3.412  11.234
29321W        W 1047  43.804  18.900   0.605
29322W        W 1048  29.652  31.657  12.121
29323W        W 1049  13.363   9.987   1.319
29324W        W 1050  23.324   7.741  14.766
29325W        W 1051  32.911   6.998   2.831
29326W        W 1052  11.597  38.915  10.374
29327W        W 1053  23.776  29.155  14.342
29328W        W 1054  33.105   7.823   2.696
29329W        W 1055  32.423   6.436  13.975
29330W        W 1056  36.161   7.301  10.949
29331W        W 1057  17.582  15.030  11.551
29332W        W 1058  23.716  15.770  13.784
29333W        W 1059  30.964   1.920  14.811
29334W        W 1060  13.317  42.923  13.456
29335W        W 1061  31.878  44.482   2.261
29336W        W 1062  43.037  16.019   3.007
29337W        W 1063  16.676   0.933  14.734
29338W        W 1064  16.330  25.108  13.849
29339W        W 1065  17.804   7.986   2.702
29340W        W 1066  37.689  27.479   0.827
29341W        W 1067  26.188  37.054   0.933
29342W        W 1068  25.047   2.199   0.485
29343W        W 1069   7.153  22.814   4.080
29344W        W 1070  20.457  36.549   2.531
29345W        W 1071  35.567  32.631   3.619
29346W        W 1072  37.442  24.934  14.961
29347W        W 1073  28.190  37.095  12.905
29348W        W 1074  37.423  41.712   3.350
29349W        W 1075   2.752  13.434  13.015
29350W        W 1076  28.952  44.660  13.370
29351W        W 1077  43.580  18.323  11.637
29352W        W 1078   4.220  28.678  14.818
29353W        W 1079  24.764  23.258  14.107
29354W        W 1080  24.224  11.244  11.591
29355W        W 1081   6.345  35.861  14.249
29356W        W 1082  39.816  16.798   2.737
29357W        W 1083  38.825  44.806  10.117
29358W        W 1084  43.549  22.064   1.318
29359W        W 1085   8.889  24.674   2.877
29360W        W 1086  14.298  33.538  12.986
29361W        W 1087  18.026   8.790  14.312
29362W        W 1088  34.940  11.868  14.112
29363W        W 1089  13.738  27.178   0.730
29364W        W 1090   9.407  28.986  11.603
29365W        W 1091  28.493  36.427   1.738
29366W        W 1092   0.405   3.975   0.739
29367W        W 1093  15.688   0.018   2.759
29368W        W 1094  36.088  18.993   4.150
29369W        W 1095  19.139  31.001   3.209
29370W        W 1096  15.745  22.179   4.941
29371W        W 1097  10.825   7.090   2.756
29372W        W 1098   1.037  11.561   4.060
29373W        W 1099  21.421  43.328   1.922
29374W        W 1100  22.798   1.803  12.553
29375W        W 1101   3.848  18.654  13.799
29376W        W 1102  34.430  42.015   9.622
29377W        W 1103  34.427  28.690   0.400
29378W        W 1104   5.619   1.047  14.339
29379W        W 1105   5.096  19.257  13.382
29380W        W 1106  29.952  13.642   1.817
29381W        W 1107  10.853   0.255  12.382
29382W        W 1108   5.422  23.269   2.677
29383W        W 1109  12.117  40.092   1.301
29384W        W 1110  16.449  27.065  11.953
29385W        W 1111  29.574   2.180   4.449
29386W        W 1112  16.574  15.800   2.833
29387W        W 1113  15.717   6.874  12.854
29388W        W 1114  13.299  43.225  13.046
29389W        W 1115  23.085  27.373   4.998
29390W        W 1116  12.151  32.003  12.143
29391W        W 1117  39.432  13.399   0.903
29392W        W 1118   7.558  38.214   4.176
29393W        W 1119   5.037  14.620   1.228
29394W        W 1120  25.393  35.652   3.258
29395W        W 1121  31.191   6.821   1.736
29396W        W 1122   1.241   9.557  12.952
29397W        W 1123  38.007  35.716  12.144
29398W        W 1124  27.763  26.905   2.381
29399W        W 1125  21.352  35.207   3.172
29400W        W 1126   0.412   4.791   3.456
29401W        W 1127   3.263  14.698   4.795
29402W        W 1128   5.359  20.572   2.722
29403W        W 1129  21.313  25.110  14.421
29404W        W 1130  13.623  27.918   1.660
29405W        W 1131  38.455  25.102  12.487
29406W        W 1132  23.880  15.284  13.956
29407W        W 1133  41.566   8.522  11.635
29408W        W 1134  27.493  27.353  13.418
29409W        W 1135   5.281   6.513  11.555
29410W        W 1136  17.113  12.484   0.228
29411W        W 1137  11.658   1.375   1.649
29412W        W 1138  35.846  21.966   1.901
29413W        W 1139   8.337  13.839  11.185
29414W        W 1140   3.975  10.446  11.229
29415W        W 1141  29.363  19.952   2.797
29416W        W 1142   2.231  12.777  12.006
29417W        W 1143  28.186  35.857   2.954
29418W        W 1144  34.989  24.490  14.031
29419W        W 1145  10.929  11.367  11.189
29420W        W 1146   6.357  25.700  11.542
29421W        W 1147   4.693  19.586  13.647
29422W        W 1148  26.238  37.566   3.284
29423W        W 1149  31.949  41.117   2.218
29424W        W 1150  28.119  40.294   4.202
29425W        W 1151  25.956   6.734   4.630
29426W        W 1152  19.566  31.701   1.206
29427W        W 1153  43.741  30.837   4.738
29428W        W 1154  15.230  16.419  14.660
29429W        W 1155  35.218  13.339  11.167
29430W        W 1156  31.864   4.243  11.278
29431W        W 1157  29.496  41.460   1.239
29432W        W 1158  24.426   8.664  10.773
29433W        W 1159  17.691  12.728   1.340
29434W        W 1160  29.311  42.087  10.698
29435W        W 1161  38.980  38.567  11.110
29436W        W 1162   3.317  13.318  12.472
29437W        W 1163  24.034  29.748   0.226
29438W        W 1164  38.309   6.322   3.391
29439W        W 1165  28.771  38.387   0.070
29440W        W 1166  24.117   7.857   4.053
29441W        W 1167  22.743  15.330   4.646
29442W        W 1168   2.550  27.930  11.977
29443W        W 1169   9.288  23.280  13.953
29444W        W 1170  34.578  33.915   0.743
29445W        W 1171  40.024   5.254  14.503
29446W        W 1172  43.047   2.433  14.263
29447W        W 1173  26.423  44.068   0.874
29448W        W 1174  11.817  10.248   3.878
29449W        W 1175  32.500  21.278  12.988
29450W        W 1176   3.364  39.291  13.060
29451W        W 1177   9.727  10.687  14.404
29452W        W 1178   4.539  15.663  13.724
29453W        W 1179  10.605  12.632  14.482
29454W        W 1180  23.259  25.814   1.172
29455W        W 1181  24.289  13.557  13.494
29456W        W 1182  27.108   1.902  11.588
29457W        W 1183   7.924  18.110  12.627
29458W        W 1184  15.067  20.823  12.426
29459W        W 1185  23.792   4.461   2.403
29460W        W 1186  27.413  40.456  12.423
29461W        W 1187  28.398  27.007   4.509
29462W        W 1188   4.756  10.971  10.836
29463W        W 1189  12.063  35.782   5.064
29464W        W 1190  16.563   8.118   3.768
29465W        W 1191  44.665  31.905   3.147
29466W        W 1192  25.227  43.072   0.786
29467W        W 1193  10.904  23.792  11.469
29468W        W 1194  13.179   0.626  13.310
29469W        W 1195   8.635  38.595  11.574
29470W        W 1196  43.260   5.255  13.754
29471W        W 1197  12.646   9.926  11.873
29472W        W 1198  32.705  43.546  14.084
29473W        W 1199  44.966   3.584   2.569
29474W        W 1200  39.412  39.354   4.759
29475W        W 1201  33.119   8.726   2.267
29476W        W 1202  28.988  16.167   0.899
29477W        W 1203   6.768  20.612   4.554
29478W        W 1204   6.632   6.770   3.387
29479W        W 1205  32.313   3.344  10.766
29480W        W 1206  14.510   2.466  13.453
29481W        W 1207  30.885  23.052   4.337
29482W        W 1208  31.954  26.412  10.632
29483W        W 1209   4.226  25.526  14.840
29484W        W 1210   4.059  40.213  11.185
29485W        W 1211  42.962  23.594  11.465
29486W        W 1212  36.099  24.848   4.194
29487W        W 1213  41.479  17.970   0.874
29488W        W 1214  43.289  31.040   4.596
29489W        W 1215  24.339  20.946  11.102
29490W        W 1216  43.248  17.253   1.986
29491W        W 1217  44.425   8.003   2.181
29492W        W 1218  33.214  42.058  11.177
29493W        W 1219  37.878  14.356  10.449
29494W        W 1220   1.519   1.906   3.798
29495W        W 1221  42.112  38.550  12.052
29496W        W 1222  29.419   4.324  11.029
29497W        W 1223  41.301  15.608   0.152
29498W        W 1224  22.101  10.014   2.630
29499W        W 1225  27.710  42.285  12.902
29500W        W 1226  24.064  10.518  12.095
29501W        W 1227   2.384   0.413  14.686
29502W        W 1228   4.006  14.388  13.503
29503W        W 1229  33.774  12.342   1.741
29504W        W 1230  19.592  39.228   3.688
29505W        W 1231   2.330   6.319   3.303
29506W        W 1232  32.596  10.267  12.861
29507W        W 1233  20.451  31.855  14.540
29508W        W 1234  30.108   9.883   0.901
29509W        W 1235  43.030  24.571   1.245
29510W        W 1236  18.596  41.544   0.077
29511W        W 1237  32.442  26.911  12.377
29512W        W 1238   3.178   7.417  10.776
29513W        W 1239  12.382  10.650  11.960
29514W        W 1240   0.026  29.187   1.837
29515W        W 1241  14.723  41.730   1.633
29516W        W 1242  12.165   4.245   0.525
29517W        W 1243   4.348  27.375   4.074
29518W        W 1244  13.945  39.398  11.161
29519W        W 1245   8.114  10.661   2.858
29520W        W 1246  16.175   4.943   2.792
29521W        W 1247  20.584  41.958   3.162
29522W        W 1248  44.494  29.200  11.198
29523W        W 1249  20.677  14.654  14.599
29524W        W 1250  14.341  26.553  10.536
29525W        W 1251  34.678  42.964  12.327
29526W        W 1252  22.782  18.990  13.939
29527W        W 1253   4.796  14.524   2.587
29528W        W 1254  35.178  41.108   2.163
29529W        W 1255  22.602   6.745  13.176
29530W        W 1256  38.900  42.407  12.388
29531W        W 1257   0.717  32.611  10.962
29532W        W 1258  33.398  25.796  14.806
29533W        W 1259  42.296  37.080  14.439
29534W        W 1260   2.499  12.863  12.427
29535W        W 1261  27.655   5.807  13.587
29536W        W 1262  10.148  28.607  14.744
29537W        W 1263   1.415   7.435  12.565
29538W        W 1264   9.711  32.753  12.326
29539W        W 1265  34.892  10.227  12.995
29540W        W 1266   0.850  16.196  14.207
29541W        W 1267   9.132  20.466  12.984
29542W        W 1268  12.238  36.385   4.527
29543W        W 1269  44.349  37.036  11.572
29544W        W 1270   3.270  40.596   3.864
29545W        W 1271  32.797  33.486  13.889
29546W        W 1272   3.799  19.967  12.521
29547W        W 1273  11.006   4.831  10.376
29548W        W 1274  13.153  39.368   1.405
29549W        W 1275   3.388  30.541  12.641
29550W        W 1276  26.637  11.069   0.299
29551W        W 1277  20.087   2.021   2.382
29552W        W 1278  26.716  25.252   3.737
29553W        W 1279  38.004   2.751  12.815
29554W        W 1280   1.372  24.946   4.184
29555W        W 1281  10.296  40.526  14.170
29556W        W 1282   3.254   6.266  13.692
29557W        W 1283  26.945  36.914  10.680
29558W        W 1284  26.232   5.336  10.734
29559W        W 1285  24.641  26.410  11.348
29560W        W 1286  29.949  43.805   3.301
29561W        W 1287  16.602  19.571   3.593
29562W        W 1288   6.021  27.738   2.181
29563W        W 1289   7.141  10.188   3.732
29564W        W 1290  19.032   7.685   3.316
29565W        W 1291  11.683  26.019   4.520
29566W        W 1292  30.958  37.468   4.194
29567W        W 1293  11.916  42.984  11.592
29568W        W 1294  39.925  42.935   5.227
29569W        W 1295  39.794  22.755  14.022
29570W        W 1296   7.489  21.209   4.545
29571W        W 1297  13.517  28.096  10.567
29572W        W 1298  14.500  13.715   0.072
29573W        W 1299  41.565  38.367   1.627
29574W        W 1300   6.581  24.670   2.322
29575W        W 1301  22.548  42.279  10.764
29576W        W 1302  35.118  18.276   3.099
29577W        W 1303   8.094  23.260   4.639
29578W        W 1304   8.432  29.885   0.733
29579W        W 1305  13.129  32.960   1.291
29580W        W 1306  22.141  18.455   0.816
29581W        W 1307   1.345   2.484  11.510
29582W        W 1308  37.327  13.260  13.002
29583W        W 1309   4.196  24.403   2.250
29584W        W 1310  13.374  31.919   1.183
29585W        W 1311  37.447  41.301   0.785
29586W        W 1312  37.497  15.876   3.636
29587W        W 1313  43.771  12.265   1.816
29588W        W 1314  36.055  20.679  14.896
29589W        W 1315  32.976  19.123  14.364
29590W        W 1316  10.462   9.890  12.617
29591W        W 1317  28.340  21.848   2.458
29592W        W 1318  12.148  44.712  10.666
29593W        W 1319  24.173  24.075  13.685
29594W        W 1320  25.631  39.471  12.597
29595W        W 1321  22.658  43.897   0.244
29596W        W 1322  18.026  38.398  11.479
29597W        W 1323  30.453  21.260   4.405
29598W        W 1324  30.409  40.978   3.165
29599W        W 1325   3.989  10.744   1.342
29600W        W 1326   3.349  22.436   2.144
29601W        W 1327   5.990  11.666  12.419
29602W        W 1328   6.911  33.038  13.006
29603W        W 1329  32.169   2.273  12.208
29604W        W 1330   1.313  27.637  13.340
29605W        W 1331  44.882  43.735   1.993
29606W        W 1332  22.240  27.711   0.360
29607W        W 1333  39.394  18.392  12.315
29608W        W 1334   0.384  23.221   3.147
29609W        W 1335  33.914  13.679  13.327
29610W        W 1336  42.416  23.947   3.368
29611W        W 1337  36.456  30.837  11.513
29612W        W 1338  35.648   6.344   3.098
29613W        W 1339  29.402  31.104   0.259
29614W        W 1340  10.739  19.725   0.359
29615W        W 1341   9.802  20.212  13.975
29616W        W 1342   7.346  42.527   4.808
29617W        W 1343   1.654  30.526  13.160
29618W        W 1344  30.141   4.810   0.967
29619W        W 1345  13.614  43.832   1.959
29620W        W 1346  20.492  11.792  12.818
29621W        W 1347  35.422  11.179  14.518
29622W        W 1348  43.014   2.547  13.736
29623W        W 1349   7.720   3.436  10.737
29624W        W 1350  32.906  29.988  12.157
29625W        W 1351  30.042  11.691   4.679
29626W        W 1352   6.417  38.651  11.648
29627W        W 1353  36.565  44.955  13.220
29628W        W 1354  17.679   9.771   3.305
29629W        W 1355  13.192  42.661  11.699
29630W        W 1356  13.753   0.860   0.227
29631W        W 1357  13.590  14.270   2.908
29632W        W 1358  21.505  27.979  11.037
29633W        W 1359  38.111  10.381   0.413
29634W        W 1360   3.960   7.466  14.512
29635W        W 1361   2.807  10.682  14.910
29636W        W 1362  36.575  31.074  14.020
29637W        W 1363  22.664   3.455  10.819
29638W        W 1364  16.636   8.383  14.319
29639W        W 1365   6.728   0.082  13.477
29640W        W 1366   3.032  31.159  14.893
29641W        W 1367   5.245   0.174   3.694
29642W        W 1368  21.693  40.531   2.174
29643W        W 1369  41.856  16.741   0.006
29644W        W 1370  43.134  40.598   3.794
29645W        W 1371  22.617  35.394   0.298
29646W        W 1372  23.725  23.564   4.799
29647W        W 1373  38.337  26.567   4.177
29648W        W 1374  10.845  18.556  13.577
29649W        W 1375  42.452  36.080  14.373
29650W        W 1376   6.080  16.558  12.939
29651W        W 1377   2.911  41.694  11.127
29652W        W 1378  36.486  17.161   3.207
29653W        W 1379  30.588  42.580  10.654
29654W        W 1380  16.711  34.810  12.770
29655W        W 1381  37.274  39.300   3.297
29656W        W 1382   2.800  36.415  14.294
29657W        W 1383  22.775   9.193  12.162
29658W        W 1384  14.074  16.711   0.423
29659W        W 1385  21.544  32.443  13.127
29660W        W 1386  20.507   1.381   2.824
29661W        W 1387  43.431  39.540  14.895
29662W        W 1388   1.194  36.396   1.238
29663W        W 1389  25.567  30.210   2.869
29664W        W 1390  17.041  19.432  13.475
29665W        W 1391   1.201  43.512   3.159
29666W        W 1392  16.539  41.154  12.392
29667W        W 1393  41.839  17.690   0.376
29668W        W 1394   1.478  23.861  12.636
29669W        W 1395  38.583  23.176  10.408
29670W        W 1396  37.897  24.440   4.748
29671W        W 1397  10.245   9.689   0.755
29672W        W 1398  14.755   3.324   3.638
29673W        W 1399  30.726   5.292  13.392
29674W        W 1400   5.902  42.351   4.072
29675W        W 1401   0.694  19.541   2.210
29676W        W 1402  30.692  10.728  10.641
29677W        W 1403  33.448  12.283   2.704
29678W        W 1404   6.476  29.281  13.939
29679W        W 1405   2.500  12.754  14.522
29680W        W 1406  28.273   0.257  13.897
29681W        W 1407  43.746   0.018   1.832
29682W        W 1408  20.198  13.034   4.820
29683W        W 1409  17.165  38.949  11.428
29684W        W 1410  21.814  33.727  12.379
29685W        W 1411  27.559  36.414   3.848
29686W        W 1412  34.319   0.252   3.173
29687W        W 1413  15.534  40.879  10.597
29688W        W 1414  30.811   5.844  11.100
29689W        W 1415  32.659  27.949   2.226
29690W        W 1416  11.799   0.177   1.208
29691W        W 1417  31.541  19.978  11.600
29692W        W 1418   6.875   8.102   1.774
29693W        W 1419  29.074  35.505  12.605
29694W        W 1420  33.395   8.597  13.461
29695W        W 1421  31.486  19.579  13.332
29696W        W 1422  22.239  34.896  12.325
29697W        W 1423  13.762  20.737  13.023
29698W        W 1424   2.032   7.770  11.553
29699W        W 1425  43.909   2.268   2.906
29700W        W 1426   9.055  32.531   2.314
29701W        W 1427   9.686  10.298   4.560
29702W        W 1428   8.199  12.870   1.731
29703W        W 1429   4.762  13.051   2.671
29704W        W 1430   0.794  10.295   0.980
29705W        W 1431  38.574  25.744   2.269
29706W        W 1432  36.167   7.712   4.529
29707W        W 1433  28.216  41.037   3.751
29708W        W 1434  16.684  11.813   3.674
29709W        W 1435  15.306  18.742   3.457
29710W        W 1436   0.792  41.546   3.672
29711W        W 1437   4.905  30.231   3.862
29712W        W 1438  40.595  14.561   1.880
29713W        W 1439  43.412  35.597  11.587
29714W        W 1440  14.139  25.303   0.941
29715W        W 1441  40.017  15.456  12.833
29716W        W 1442   3.685  13.712   3.521
29717W        W 1443  41.171  31.404  11.005
29718W        W 1444  26.781  28.617   0.492
29719W        W 1445  39.526  44.482  13.373
29720W        W 1446  39.022  38.598  13.377
29721W        W 1447  13.208  10.455   3.352
29722W        W 1448  21.568  21.202   4.694
29723W        W 1449  21.631  19.739   1.810
29724W        W 1450   3.835  22.948   0.809
29725W        W 1451  31.431  26.607   3.160
29726W        W 1452  35.461  24.416   5.059
29727W        W 1453   1.883   6.187  12.904
29728W        W 1454  19.647  18.087   2.216
29729W        W 1455  11.799  18.594   4.220
29730W        W 1456  29.909  21.504  12.238
29731W        W 1457  35.636   3.465   2.567
29732W        W 1458  26.751  25.813  12.227
29733W        W 1459  27.978  29.078  13.917
29734W        W 1460  17.715  43.604  13.949
29735W        W 1461   1.926  19.911   0.808
29736W        W 1462  41.259  44.192  11.675
29737W        W 1463  16.548  22.322  11.613
29738W        W 1464  38.042  32.966  11.918
29739W        W 1465  35.366  22.631  14.275
29740W        W 1466  41.949  38.480   1.293
29741W        W 1467  33.416  37.324   2.303
29742W        W 1468   1.846  24.005   2.957
29743W        W 1469  32.654   6.708  13.242
29744W        W 1470  41.004  43.715  11.148
29745W        W 1471  42.442  31.967  14.746
29746W        W 1472  11.305   5.666  10.484
29747W        W 1473   9.707  19.402   1.718
29748W        W 1474  21.779  31.205  13.424
29749W        W 1475  42.242   3.025   3.876
29750W        W 1476  43.882  19.268   3.724
29751W        W 1477   2.312  35.649  13.845
29752W        W 1478  32.472  10.999  12.023
29753W        W 1479  24.955   0.740  14.315
29754W        W 1480   7.358  11.735  12.595
29755W        W 1481   6.846  36.861   0.901
29756W        W 1482   2.536  26.775   0.772
29757W        W 1483  30.767  10.435  11.095
29758W        W 1484  36.891  36.892   0.069
29759W        W 1485  19.970  34.065  13.833
29760W        W 1486   2.226   7.738   1.368
29761W        W 1487   9.924  15.263   1.391
29762W        W 1488  33.082  11.338   1.327
29763W        W 1489  44.320   6.472  11.635
29764W        W 1490  22.213   3.556   4.201
29765W        W 1491  37.177   9.960  12.791
29766W        W 1492   9.863  36.168   5.392
29767W        W 1493  44.782  12.202   0.190
29768W        W 1494  35.017  36.420   1.439
29769W        W 1495  41.951  39.106   1.460
29770W        W 1496  12.644  32.820  10.793
29771W        W 1497  44.515  35.470   0.714
29772W        W 1498  11.243  28.077  12.171
29773W        W 1499  14.535  26.599   5.002
29774W        W 1500   3.269  27.113  10.371
29775W        W 1501   4.000   2.336   1.599
29776W        W 1502  17.657  35.147   2.737
29777W        W 1503  12.451  14.143  13.492
29778W        W 1504  36.486   8.384   1.042
29779W        W 1505   8.781  13.303   1.266
29780W        W 1506  40.118   1.534  11.845
29781W        W 1507  42.676  33.043   1.397
29782W        W 1508  28.477  43.293   2.397
29783W        W 1509  36.978  13.304  11.747
29784W        W 1510  21.579  16.779  13.105
29785W        W 1511  30.327  18.624  14.828
29786W        W 1512   1.471  25.391   1.969
29787W        W 1513  37.948  44.150   4.466
29788W        W 1514  21.111  20.199   0.770
29789W        W 1515   5.403  18.317   0.021
29790W        W 1516  25.216   0.240   4.605
29791W        W 1517  13.284  25.246  14.573
29792W        W 1518  27.534  37.296  13.951
29793W        W 1519  20.846  42.451  14.420
29794W        W 1520   6.443  34.159  11.018
29795W        W 1521  26.740   1.299  13.107
29796W        W 1522  23.911   4.924  10.733
29797W        W 1523  15.044  12.269   0.437
29798W        W 1524  20.933  11.615   2.993
29799W        W 1525  40.186  20.046  10.554
29800W        W 1526  19.122  39.017  12.648
29801W        W 1527  40.557  10.250   0.458
29802W        W 1528   2.776  21.314   3.169
29803W        W 1529  21.959  30.241   2.166
29804W        W 1530  42.497   4.363  14.857
29805W        W 1531  38.059  33.475   0.105
29806W        W 1532  35.181  33.249  11.156
29807W        W 1533  41.559  10.582   4.083
29808W        W 1534  40.219  15.882   4.165
29809W        W 1535   4.210  32.794   3.858
29810W        W 1536  32.480  36.606   2.189
29811W        W 1537  20.306   8.157  10.815
29812W        W 1538  13.843   9.845   1.432
29813W        W 1539  20.529   3.544  12.020
29814W        W 1540  22.085  31.200   0.459
29815W        W 1541  21.965  34.428  12.902
29816W        W 1542   4.981  39.100  13.470
29817W        W 1543  41.641  21.534  12.147
29818W        W 1544  16.132  15.096   3.669
29819W        W 1545  25.870  39.843   1.493
29820W        W 1546  15.813  16.685  14.479
29821W        W 1547  12.344   5.175   0.768
29822W        W 1548  31.487  34.321  13.423
29823W        W 1549  13.330  18.967  10.916
29824W        W 1550   2.436  20.117   4.037
29825W        W 1551  35.991  25.263  11.106
29826W        W 1552  21.081  19.508   3.781
29827W        W 1553  27.396  31.502  14.186
29828W        W 1554  21.074  20.142  11.598
29829W        W 1555  43.236  24.512  14.419
29830W        W 1556  44.798  30.037   3.020
29831W        W 1557  20.034  42.339  10.591
29832W        W 1558  19.660  28.590   1.840
29833W        W 1559  36.068  25.105   3.269
29834W        W 1560  39.817  41.520   4.231
29835W        W 1561  29.277  29.488   0.272
29836W        W 1562  23.192  36.052  11.577
29837W        W 1563  13.195  24.485  13.195
29838W        W 1564  13.289  21.498   2.780
29839W        W 1565  23.530   1.321  10.989
29840W        W 1566  40.802   4.781  10.418
29841W        W 1567  43.102  32.139   4.034
29842W        W 1568  21.220  14.837   2.381
29843W        W 1569  14.342  24.607   4.795
29844W        W 1570  14.391   3.243  11.474
29845W        W 1571  18.574  21.834  14.569
29846W        W 1572  43.808  37.980  10.723
29847W        W 1573  43.541  12.170   0.061
29848W        W 1574   0.283  16.751   4.186
29849W        W 1575  15.173  23.286   3.112
29850W        W 1576   9.981  17.689   0.803
29851W        W 1577  34.370  30.710  11.513
29852W        W 1578  23.582  13.013  10.056
29853W        W 1579  22.006   3.862   3.825
29854W        W 1580  37.978  43.446  12.439
29855W        W 1581  24.713  43.312   2.708
29856W        W 1582   3.725  16.670   3.291
29857W        W 1583  37.144  32.039  14.617
29858W        W 1584   5.902  18.208  12.430
29859W        W 1585  18.818  11.160   1.011
29860W        W 1586  44.868  38.531  11.955
29861W        W 1587  14.668  11.769   3.760
29862W        W 1588  11.640  31.848  14.461
29863W        W 1589  10.186  36.513   3.992
29864W        W 1590   2.140  16.215  14.997
29865W        W 1591   5.572  11.063   1.318
29866W        W 1592  14.724  37.863  10.666
29867W        W 1593  20.133  13.369   3.344
29868W        W 1594  25.675  32.367  13.411
29869W        W 1595  21.224  35.809   4.119
29870W        W 1596   6.499  34.918   2.738
29871W        W 1597  24.245  37.047  14.059
29872W        W 1598  35.040  40.252  12.516
29873W        W 1599  31.514  31.846  12.443
29874W        W 1600  21.408  30.596   2.825
29875W        W 1601   2.468  44.277  14.844
29876W        W 1602  34.332  14.634  14.782
29877W        W 1603  25.607  29.347  14.679
29878W        W 1604   3.241  22.221   0.139
29879W        W 1605   3.944  38.262  11.945
29880W        W 1606  38.358  29.691   1.470
29881W        W 1607  42.887   8.697   0.417
29882W        W 1608  21.294  40.548   3.649
29883W        W 1609   1.017  18.073  12.602
29884W        W 1610   1.741  39.063  12.003
29885W        W 1611  26.148  19.916   2.918
29886W        W 1612  15.733   7.223   0.311
29887W        W 1613   9.844  19.497   0.680
29888W        W 1614  30.977  16.329   2.797
29889W        W 1615  32.895  20.036  10.527
29890W        W 1616  33.928  43.381   4.159
29891W        W 1617   2.544  31.155  14.834
29892W        W 1618  29.039   6.609  14.739
29893W        W 1619   0.527  18.603   4.540
29894W        W 1620  44.108  40.442  11.510
29895W        W 1621  41.046  20.712  12.905
29896W        W 1622  27.172  27.248  14.345
29897W        W 1623   0.426  29.204   2.598
29898W        W 1624  22.039  32.716  11.166
29899W        W 1625  31.174  34.585   2.431
29900W        W 1626  23.585  24.078  14.861
29901W        W 1627  34.143   0.941   0.079
29902W        W 1628  42.183  17.048   3.595
29903W        W 1629  38.332  39.909   4.607
29904W        W 1630   0.058  20.204   1.777
29905W        W 1631  24.455  44.344  14.888
29906W        W 1632   1.172  12.214   0.749
29907W        W 1633   4.930  22.652  11.075
29908W        W 1634  42.390  28.979   2.323
29909W        W 1635   5.463  42.933  14.245
29910W        W 1636  31.664  43.844   1.270
29911W        W 1637  35.173  33.379   4.130
29912W        W 1638  26.385  30.530   2.375
29913W        W 1639  40.138   8.372   4.117
29914W        W 1640  40.120  23.657   1.962
29915W        W 1641  24.091  34.884   2.941
29916W        W 1642  31.174  29.688   3.633
29917W        W 1643  25.110  44.427   2.716
29918W        W 1644   2.602  40.464   0.497
29919W        W 1645  36.836  27.427   4.091
29920W        W 1646  20.094  34.918  11.938
29921W        W 1647   6.281  38.045   0.836
29922W        W 1648  38.046  24.001   1.310
29923W        W 1649  39.886  16.696   3.734
29924W        W 1650   2.260   8.907   4.299
29925W        W 1651  43.641  30.368   0.591
29926W        W 1652  30.431  11.689  13.445
29927W        W 1653  41.959  44.275   3.690
29928W        W 1654   7.760  39.919   1.812
29929W        W 1655  15.691  18.124   0.392
29930W        W 1656  22.570   6.691   4.387
29931W        W 1657  39.057  23.176  13.765
29932W        W 1658   0.470  27.263  14.307
29933W        W 1659   4.401   3.287  13.781
29934W        W 1660   7.653  44.744  13.505
29935W        W 1661   4.891  21.443   1.369
29936W        W 1662  22.721  19.329   4.627
29937W        W 1663  30.470   5.395  11.831
29938W        W 1664  13.683  35.603  12.549
29939W        W 1665  35.532  20.018  14.017
29940W        W 1666  42.159  10.679  13.059
29941W        W 1667  23.625  15.110  11.039
29942W        W 1668   5.255  16.759  13.655
29943W        W 1669  32.521  20.221   2.813
29944W        W 1670  42.966  37.956   0.005
29945W        W 1671  11.714  44.984   1.916
29946W        W 1672  37.748  24.758  13.496
29947W        W 1673   6.649  31.602   4.175
29948W        W 1674  18.125   3.384  13.404
29949W        W 1675  12.890   9.613  14.292
29950W        W 1676  41.387   5.398   2.051
29951W        W 1677  16.311  18.788  14.944
29952W        W 1678  20.503  25.890   1.298
29953W        W 1679  16.073   6.480  12.123
29954W        W 1680  30.820  15.875  14.429
29955W        W 1681  37.773  21.038  12.484
29956W        W 1682  27.828  11.852  12.441
29957W        W 1683  32.940   0.453  12.810
29958W        W 1684   3.410  39.522  13.934
29959W        W 1685  24.247  10.470   0.418
29960W        W 1686  18.944  40.937   4.342
29961W        W 1687  30.102  19.692   0.436
29962W        W 1688  21.200   8.201  13.737
29963W        W 1689  42.479  36.110   0.804
29964W        W 1690  35.613  32.897   1.840
29965W        W 1691  43.769  15.159   4.261
29966W        W 1692  40.581  30.534   2.735
29967W        W 1693   2.299  14.828   0.879
29968W        W 1694  21.694  23.089  11.967
29969W        W 1695   6.958  19.623   0.803
29970W        W 1696  41.196  24.007   0.348
29971W        W 1697   7.238   5.167   4.552
29972W        W 1698  24.201  30.644   1.266
29973W        W 1699  28.607   3.622   1.332
29974W        W 1700   2.766  15.174  14.911
29975W        W 1701  35.995   1.402  12.862
29976W        W 1702  24.883  14.146   3.054
29977W        W 1703   1.870  41.068   2.355
29978W        W 1704  44.955  28.090  11.956
29979W        W 1705   6.287  36.252  12.521
29980W        W 1706  10.326  32.515   4.741
29981W        W 1707   0.396   2.537   4.522
29982W        W 1708  41.209  42.152  14.512
29983W        W 1709  14.281  21.931   1.233
29984W        W 1710  39.808  18.319  14.355
29985W        W 1711  22.036  42.366  10.592
29986W        W 1712  27.701   0.430   1.778
29987W        W 1713  35.160  16.578  11.556
29988W        W 1714   2.165  39.049   5.166
29989W        W 1715  20.433  37.810   0.933
29990W        W 1716  20.100  23.176   3.560
29991W        W 1717   4.913  22.682   3.617
29992W        W 1718   4.873  17.083   1.147
29993W        W 1719  26.137  29.185   1.379
29994W        W 1720  42.950  41.005  11.218
29995W        W 1721  11.398  21.107  13.926
29996W        W 1722  43.186  18.176   1.781
29997W        W 1723   1.167  15.251  11.085
29998W        W 1724  28.530  35.465   3.732
29999W        W 1725  11.683  11.886  14.984
30000W        W 1726   3.825  17.665   0.616
30001W        W 1727  35.383  21.688  12.525
30002W        W 1728  37.025  20.681   3.839
30003W        W 1729  14.115  17.284   2.183
30004W        W 1730   5.181  36.429   0.810
30005W        W 1731  37.131  23.035   3.046
30006W        W 1732   1.943  23.240  11.086
30007W        W 1733  29.051  39.368   2.590
30008W        W 1734  40.779  31.092   0.881
30009W        W 1735  20.324  21.773   3.713
30010W        W 1736  17.616  27.693  13.330
30011W        W 1737  10.282  34.039  11.633
30012W        W 1738   6.900   7.918  14.056
30013W        W 1739   9.164  32.171  11.135
30014W        W 1740  31.486  30.482   1.952
30015W        W 1741  27.118  33.899  13.911
30016W        W 1742  22.957  30.482  11.976
30017W        W 1743  21.696  31.113   3.437
30018W        W 1744   3.858  26.260  13.382
30019W        W 1745   2.581  23.157  12.007
30020W        W 1746  21.603  21.138  11.212
30021W        W 1747  44.935  41.965  12.828
30022W        W 1748  35.630  44.687  14.689
30023W        W 1749  16.845  27.165  14.952
30024W        W 1750  21.704  32.506   3.696
30025W        W 1751  35.938  27.433   4.225
30026W        W 1752   0.547   6.823  13.772
30027W        W 1753  26.736  36.572   2.948
30028W        W 1754  33.494  26.831   3.654
30029W        W 1755  25.922  43.739   3.937
30030W        W 1756  24.456  21.023  12.810
30031W        W 1757  17.204  26.030  11.062
30032W        W 1758  15.744  40.427  13.895
30033W        W 1759  44.888   2.546   3.330
30034W        W 1760  28.703  17.650  12.884
30035W        W 1761  31.616  14.982   1.867
30036W        W 1762  11.850  43.033   2.504
30037W        W 1763  26.070   9.084   4.955
30038W        W 1764  29.460  43.880   2.658
30039W        W 1765  36.422  40.360  14.351
30040W        W 1766  34.061  22.699  11.950
30041W        W 1767  16.188  32.527   1.973
30042W        W 1768  13.314  12.300  14.195
30043W        W 1769  32.151   1.060  14.959
30044W        W 1770  42.084  34.859   1.701
30045W        W 1771  29.428  42.372  11.805
30046W        W 1772  31.626  26.202   0.363
30047W        W 1773  20.555  10.894   3.144
30048W        W 1774  10.257  34.476  13.470
30049W        W 1775  27.030  23.259  10.250
30050W        W 1776  18.310  13.209  12.476
30051W        W 1777  41.281  31.801   0.372
30052W        W 1778   1.656  15.317  12.600
30053W        W 1779  38.831  26.720   0.764
30054W        W 1780   1.488  17.697  10.553
30055W        W 1781  34.930  21.271   3.555
30056W        W 1782   8.880  10.768   2.475
30057W        W 1783  19.331  25.972   2.354
30058W        W 1784  27.620  35.614   0.842
30059W        W 1785  26.955  40.264  12.191
30060W        W 1786  11.851   5.710  13.699
30061W        W 1787  31.445  42.254  11.649
30062W        W 1788  21.521  29.589   3.229
30063W        W 1789  28.111  38.219  10.508
30064W        W 1790  23.460  16.366  14.411
30065W        W 1791  11.326   2.341   4.910
30066W        W 1792  43.506  34.192  11.073
30067W        W 1793   2.879  12.150   0.931
30068W        W 1794  38.937  31.393  14.723
30069W        W 1795  12.518  35.861   0.628
30070W        W 1796   5.384   9.638   2.676
30071W        W 1797  39.302  21.711  12.493
30072W        W 1798  15.614  36.333  14.997
30073W        W 1799  26.680  31.620   0.363
30074W        W 1800   0.986  41.134   1.287
30075W        W 1801  28.864   5.174  11.863
30076W        W 1802  38.417  24.066  12.368
30077W        W 1803  30.185  25.080   4.011
30078W        W 1804  29.300  12.599   2.080
30079W        W 1805  13.210  33.305   3.521
30080W        W 1806   7.154  13.677   4.227
30081W        W 1807   1.487  42.008   0.737
30082W        W 1808  21.715  42.067   2.186
30083W        W 1809  42.474  40.171   1.828
30084W        W 1810  32.668  21.210   3.657
30085W        W 1811  36.421  13.346   3.640
30086W        W 1812  19.193   5.990  11.849
30087W        W 1813  14.051  34.323   3.657
30088W        W 1814  18.723  43.003  13.162
30089W        W 1815  31.970  28.424   1.661
30090W        W 1816  17.797  33.871   0.657
30091W        W 1817  32.603  12.067   0.142
30092W        W 1818  13.638  36.346   1.774
30093W        W 1819  19.217   4.211   1.391
30094W        W 1820  37.635  25.214   1.456
30095W        W 1821   9.298  12.617   4.713
30096W        W 1822  16.576   9.775  13.067
30097W        W 1823  16.023  38.155  14.009
30098W        W 1824  24.892  42.945   3.600
30099W        W 1825  44.721  19.061  12.899
30100W        W 1826   9.776   1.641  14.885
30101W        W 1827  26.036  21.330  14.485
30102W        W 1828   2.466  17.769   3.534
30103W        W 1829  13.864  44.292   1.943
30104W        W 1830  31.497   1.792   0.884
30105W        W 1831  24.540  33.438  13.390
30106W        W 1832  19.234  12.709  11.627
30107W        W 1833   4.784  24.404  10.858
30108W        W 1834  39.007   5.764  13.903
30109W        W 1835   6.731  13.705   2.773
30110W        W 1836   3.173  36.490   2.792
30111W        W 1837  31.409  28.840  14.743
30112W        W 1838  40.347  26.189  10.697
30113W        W 1839   1.897  14.191  13.516
30114W        W 1840  36.234  22.448   0.022
30115W        W 1841  14.396  19.466   2.826
30116W        W 1842  37.046  34.114   0.266
30117W        W 1843  15.787  22.049   2.273
30118W        W 1844  36.338   5.465   3.341
30119W        W 1845  10.248  13.389  13.299
30120W        W 1846  21.783  15.178   4.467
30121W        W 1847  14.375  38.471  12.807
30122W        W 1848  11.296  41.046   0.065
30123W        W 1849  17.779  33.438  13.844
30124W        W 1850  19.293   5.174  13.291
30125W        W 1851   4.403  16.255  11.175
30126W        W 1852  14.214  22.082  11.135
30127W        W 1853  11.685   2.924   2.727
30128W        W 1854   0.809  35.791  13.406
30129W        W 1855  30.697  17.606   1.466
30130W        W 1856  17.551   0.794   3.162
30131W        W 1857  26.996  22.597  11.507
30132W        W 1858  24.587   7.840   4.278
30133W        W 1859  23.786  44.849  12.989
30134W        W 1860  40.078  34.587   3.141
30135W        W 1861  19.056  33.563  12.422
30136W        W 1862  19.197  13.739  14.340
30137W        W 1863  22.821  11.877   4.619
30138W        W 1864  31.427  28.543   1.381
30139W        W 1865  29.214   6.869  13.954
30140W        W 1866  35.497   5.401  13.056
30141W        W 1867  16.185   5.344   1.395
30142W        W 1868  27.443   6.749  14.556
30143W        W 1869   4.319  10.825  11.144
30144W        W 1870  35.033  38.303   3.174
30145W        W 1871  17.268  42.438  14.377
30146W        W 1872  25.596  13.405  14.501
30147W        W 1873  17.315   0.957  11.643
30148W        W 1874  24.249   7.425  13.160
30149W        W 1875  27.679  17.295   4.390
30150W        W 1876  22.230  25.488   3.210
30151W        W 1877  28.033  17.254   1.803
30152W        W 1878   4.853   1.739  10.733
30153W        W 1879  35.910  22.878  14.979
30154W        W 1880   1.560  15.775   1.460
30155W        W 1881   7.923   6.691  13.398
30156W        W 1882  13.569  25.964  11.130
30157W        W 1883  30.695   9.929  11.121
30158W        W 1884  23.153  44.292   3.693
30159W        W 1885  12.633  10.246  10.494
30160W        W 1886  32.944   7.465   0.291
30161W        W 1887   9.021  21.485   0.355
30162W        W 1888  27.409  16.960   4.093
30163W        W 1889   0.033  27.680  12.565
30164W        W 1890  38.070  23.675   2.803
30165W        W 1891  31.135  10.955  11.575
30166W        W 1892  15.629  20.887  14.916
30167W        W 1893  23.600  37.617  12.181
30168W        W 1894  33.062  36.053  11.385
30169W        W 1895  24.019  29.092   2.314
30170W        W 1896  19.294   3.326  12.440
30171W        W 1897  15.296  12.572   3.661
30172W        W 1898  36.867  18.834   0.848
30173W        W 1899  17.372   1.648   1.733
30174W        W 1900  18.740  28.982  10.223
30175W        W 1901  22.977  31.172  11.402
30176W        W 1902  43.092  15.503   4.753
30177W        W 1903  35.462   8.707   2.970
30178W        W 1904  19.273  17.247   4.860
30179W        W 1905  27.649  25.363   4.579
30180W        W 1906  29.954  16.190  11.611
30181W        W 1907   5.383  32.965   0.270
30182W        W 1908  24.002   9.457  12.578
30183W        W 1909  23.841  39.008   1.009
30184W        W 1910  39.319   0.510   2.809
30185W        W 1911  38.061   5.155  10.492
30186W        W 1912   6.495   1.807   4.656
30187W        W 1913   0.481  12.873   4.175
30188W        W 1914   2.692  14.335   2.272
30189W        W 1915  36.438  43.788  13.883
30190W        W 1916  16.558  40.820  14.996
30191W        W 1917  36.078  17.719   4.537
30192W        W 1918  24.242   0.938   3.900
30193W        W 1919  22.170  40.013   4.419
30194W        W 1920   0.196  28.190   1.023
30195W        W 1921  33.413  25.678   5.076
30196W        W 1922  25.693  35.836  11.983
30197W        W 1923  22.081   0.732   3.595
30198W        W 1924  10.178  12.390   4.078
30199W        W 1925  31.065   3.407   1.038
30200W        W 1926   2.670   4.410   0.162
30201W        W 1927   7.187  24.769   3.287
30202W        W 1928  10.821  19.323  12.604
30203W        W 1929  17.274  15.752  11.347
30204W        W 1930  22.055   1.155  11.636
30205W        W 1931  13.085  17.052   1.365
30206W        W 1932   5.328  14.602  11.129
30207W        W 1933  42.188  31.187   2.774
30208W        W 1934   9.549  35.236   1.874
30209W        W 1935  27.805  36.067  12.004
30210W        W 1936  17.489   2.470   3.611
30211W        W 1937  21.964  16.978  13.691
30212W        W 1938  34.223   9.130   2.762
30213W        W 1939   1.066  25.218   2.463
30214W        W 1940  42.750  27.230   4.642
30215W        W 1941  14.801  30.593  11.415
30216W        W 1942  21.262  19.962  12.042
30217W        W 1943  40.013  13.069  14.508
30218W        W 1944  19.511  16.727   5.023
30219W        W 1945   7.192  37.887  11.228
30220W        W 1946  35.052   8.421  12.190
30221W        W 1947   5.840  23.110   2.062
30222W        W 1948   4.393  31.843  13.944
30223W        W 1949  31.904  12.887   2.491
30224W        W 1950  11.343  34.569   4.085
30225W        W 1951  25.325  33.079   2.080
30226W        W 1952  44.799  13.558  12.049
30227W        W 1953  16.775  23.045  12.048
30228W        W 1954  20.710  28.731  10.862
30229W        W 1955   7.149  26.578  12.063
30230W        W 1956  10.186  26.161   1.663
30231W        W 1957  24.027  25.747   2.751
30232W        W 1958  28.008   0.454  13.498
30233W        W 1959  12.542  44.964   4.455
30234W        W 1960  24.038  12.099  11.925
30235W        W 1961  27.518   5.938   2.327
30236W        W 1962   2.285  31.870   2.207
30237W        W 1963  42.843  32.488  11.112
30238W        W 1964  29.903   8.273  11.159
30239W        W 1965  19.865   9.023   0.465
30240W        W 1966  16.689  41.879   4.747
30241W        W 1967   8.944  36.844   3.209
30242W        W 1968  16.293  40.784   3.867
30243W        W 1969  34.320  29.590   1.393
30244W        W 1970  39.006  11.653   0.327
30245W        W 1971   5.749  38.267  12.882
30246W        W 1972  17.353  44.374  13.814
30247W        W 1973  17.118  32.702   3.754
30248W        W 1974  23.186  18.626   2.365
30249W        W 1975  38.302  19.806  14.228
30250W        W 1976  22.104  40.739  11.473
30251W        W 1977  44.086  26.963  14.925
30252W        W 1978   7.839  37.368   3.637
30253W        W 1979   0.777  39.626  12.000
30254W        W 1980  41.485  15.775   2.255
30255W        W 1981  21.959  22.687  12.505
30256W        W 1982  19.213  41.930   4.170
30257W        W 1983  22.569  31.467   4.630
30258W        W 1984   0.559  40.350   4.924
30259W        W 1985  12.558  43.397   2.823
30260W        W 1986   2.457  41.454  14.740
30261W        W 1987   1.545  23.661   1.742
30262W        W 1988  40.874  12.263  13.456
30263W        W 1989  43.157  14.549   3.765
30264W        W 1990  35.529  36.425   2.266
30265W        W 1991  17.765  42.470  10.537
30266W        W 1992  10.544  36.624   3.335
30267W        W 1993   6.872  11.779  12.397
30268W        W 1994  32.786  44.944  13.111
30269W        W 1995  35.832  28.479  12.600
30270W        W 1996  12.147  30.579  13.722
30271W        W 1997  37.310  21.085  12.224
30272W        W 1998   5.972  33.998  11.189
30273W        W 1999  44.042  37.540   2.451
30274W        W 2000   3.590   8.467  10.754
30275W        W 2001  11.856   4.501   1.712
30276W        W 2002  40.036  15.521   4.527
30277W        W 2003   2.222   9.144  11.670
30278W        W 2004   0.518  30.762  14.276
30279W        W 2005  41.943   0.463  14.878
30280W        W 2006  32.952  21.120   0.928
30281W        W 2007  30.404   4.451   2.636
30282W        W 2008  12.987  33.939   4.960
30283W        W 2009  29.365  37.604  12.500
30284W        W 2010  18.971  21.616  13.653
30285W        W 2011  37.302  30.846   1.844
30286W        W 2012  34.949  22.980  14.014
30287W        W 2013  26.444   2.211   0.550
30288W        W 2014  24.961   1.422  13.815
30289W        W 2015  23.658   1.735  13.972
30290W        W 2016   4.314  12.815   2.522
30291W        W 2017  31.917  15.805   1.698
30292W        W 2018  26.969  37.414  14.093
30293W        W 2019  32.136  21.619  14.411
30294W        W 2020  28.657  21.354   0.353
30295W        W 2021   0.248  16.293   1.397
30296W        W 2022   9.738  44.551   3.328
30297W        W 2023  33.271  19.106  11.967
30298W        W 2024  11.609  39.909   4.240
30299W        W 2025  11.563  12.157   2.682
30300W        W 2026  38.502  21.161  14.611
30301W        W 2027  37.673  11.260   4.802
30302W        W 2028   1.208  13.007  11.137
30303W        W 2029  21.167   8.627  14.861
30304W        W 2030   5.437  10.661   3.279
30305W        W 2031  43.546  34.416  12.931
30306W        W 2032  40.101   5.011   2.785
30307W        W 2033  36.305  16.145  11.847
30308W        W 2034  20.312  37.231  11.125
30309W        W 2035  32.595  37.802  11.218
30310W        W 2036  19.274  19.338   3.925
30311W        W 2037  12.176   2.360  10.731
30312W        W 2038  19.239  28.681  11.651
30313W        W 2039   4.695  44.793  14.498
30314W        W 2040  30.032   6.262  12.905
30315W        W 2041  11.147  38.880  13.480
30316W        W 2042  17.027   1.446  14.538
30317W        W 2043  22.525  33.689   4.278
30318W        W 2044   9.356  10.385   3.601
30319W        W 2045  43.848  23.999   4.671
30320W        W 2046  40.862  11.872  14.852
30321W        W 2047  29.578  30.849  14.837
30322W        W 2048  24.154  27.116   2.264
30323W        W 2049  29.931  40.956   1.868
30324W        W 2050  44.948  13.619  14.269
30325W        W 2051  34.390  10.741   2.215
30326W        W 2052  24.463  12.100  12.616
30327W        W 2053  15.262  22.051   4.722
30328W        W 2054   4.433   8.826   2.738
30329W        W 2055  24.160  42.496  11.239
30330W        W 2056  36.214   6.947   0.816
30331W        W 2057  22.779  43.713  12.416
30332W        W 2058  35.497  33.058   1.308
30333W        W 2059  30.326  35.002   3.582
30334W        W 2060  10.730  31.292   2.665
30335W        W 2061  18.759  37.543  12.543
30336W        W 2062  36.094  39.046   1.893
30337W        W 2063  30.879  18.755   4.217
30338W        W 2064   4.911  44.512   4.675
30339W        W 2065  31.344  15.740  13.041
30340W        W 2066  39.637  23.160   0.905
30341W        W 2067   0.008  27.163   4.590
30342W        W 2068   1.178  23.058   2.755
30343W        W 2069  24.158  25.978   3.219
30344W        W 2070   2.488  39.407  12.525
30345W        W 2071  16.114  14.579   3.789
30346W        W 2072  41.797   5.507   4.130
30347W        W 2073  35.081  32.431   3.610
30348W        W 2074  35.502  37.799  13.060
30349W        W 2075  28.534   3.370  10.872
30350W        W 2076   9.948   2.557   1.737
30351W        W 2077  27.359   5.284   3.724
30352W        W 2078   7.863  25.433  12.588
30353W        W 2079  29.923  28.987  12.149
30354W        W 2080  42.676  13.173  13.782
30355W        W 2081  20.237   1.314  13.129
30356W        W 2082  39.845  20.743   3.067
30357W        W 2083  41.524  19.027  12.498
30358W        W 2084   6.663  34.999   2.239
30359W        W 2085  44.514  28.956   4.680
30360W        W 2086  16.854  11.609   2.610
30361W        W 2087  38.470  38.745   2.036
30362W        W 2088  31.416   7.779  10.647
30363W        W 2089  16.133  32.336   3.700
30364W        W 2090  40.866  41.967   1.190
30365W        W 2091   8.195  33.765  12.168
30366W        W 2092  13.487   6.724   2.861
30367W        W 2093  28.754   5.267  10.521
30368W        W 2094  44.885  25.191  11.458
30369W        W 2095  44.012   9.607   2.765
30370W        W 2096   6.874  20.615   0.400
30371W        W 2097  43.658   4.384   1.459
30372W        W 2098  10.840  18.257  11.609
30373W        W 2099   3.298  11.325  12.122
30374W        W 2100  40.703   2.348  14.754
30375W        W 2101  35.550  21.065  13.685
30376W        W 2102  19.512  42.415  13.624
30377W        W 2103  31.398  21.604   3.684
30378W        W 2104  12.618  11.139  10.707
30379W        W 2105  43.258  29.528   0.325
30380W        W 2106  43.324  18.949  12.206
30381W        W 2107  30.170  42.280  10.654
30382W        W 2108   8.187  38.300  11.644
30383W        W 2109  22.832   5.705   3.844
30384W        W 2110  36.879  30.386  13.632
30385W        W 2111  36.372  23.772  14.866
30386W        W 2112  15.168  29.392   0.739
30387W        W 2113   3.157  11.978   0.223
30388W        W 2114  21.232  31.870   1.744
30389W        W 2115  11.682  37.172  14.859
30390W        W 2116  14.303  24.689  14.566
30391W        W 2117  44.068  38.849  12.857
30392W        W 2118  26.261   5.724   0.140
30393W        W 2119   9.254  19.151  13.349
30394W        W 2120   0.301  38.588  12.211
30395W        W 2121  13.618  19.543   2.270
30396W        W 2122  11.118  21.279  12.348
30397W        W 2123  30.424  44.257  10.669
30398W        W 2124  17.910  33.977  13.080
30399W        W 2125   2.752  13.826   2.371
30400W        W 2126  35.464  31.406  12.384
30401W        W 2127  21.609  16.242  13.054
30402W        W 2128  17.633  16.886   0.480
30403W        W 2129   7.871  11.081  10.944
30404W        W 2130  15.110  13.168  14.555
30405W        W 2131  35.072  16.805  12.983
30406W        W 2132   9.386  28.502   2.891
30407W        W 2133  34.603  38.614   3.206
30408W        W 2134   9.523   7.337  13.821
30409W        W 2135  18.648  13.410   3.298
30410W        W 2136  34.381  44.604  11.533
30411W        W 2137  11.271  40.117   3.676
30412W        W 2138  15.311  38.373  10.209
30413W        W 2139  36.349  39.474  11.131
30414W        W 2140  12.209  36.688   2.659
30415W        W 2141  22.265  31.877  12.910
30416W        W 2142  36.407  13.642  14.457
30417W        W 2143   6.895  18.590   2.758
30418W        W 2144  39.967  37.995  11.658
30419W        W 2145   4.498  20.806   3.214
30420W        W 2146  27.157  15.022   2.847
30421W        W 2147  18.389  43.050   1.281
30422W        W 2148  15.225  27.163   1.648
30423W        W 2149   0.884  35.628  12.910
30424W        W 2150  31.561  22.372  14.611
30425W        W 2151  36.873  10.633   0.014
30426W        W 2152   7.707  14.053   0.809
30427W        W 2153  26.775  36.830   4.282
30428W        W 2154   0.296  40.608  13.746
30429W        W 2155  29.468  21.627  13.065
30430W        W 2156  11.859   7.929   2.350
30431W        W 2157  36.237  43.996   0.047
30432W        W 2158  32.524  41.024   0.485
30433W        W 2159  37.935  28.456  13.585
30434W        W 2160   7.475   2.895   3.304
30435W        W 2161  22.503  27.124   1.362
30436W        W 2162  27.140   7.240   1.385
30437W        W 2163  37.445  44.308  14.020
30438W        W 2164  18.311  40.472   2.383
30439W        W 2165  26.895   7.997  11.984
30440W        W 2166  12.523   0.734  10.826
30441W        W 2167  36.597  32.948   2.874
30442W        W 2168  36.701  26.924   3.773
30443W        W 2169  25.145  16.830   1.366
30444W        W 2170  32.836  26.674   3.222
30445W        W 2171  34.856  22.142   3.739
30446W        W 2172  20.171  18.518   4.246
30447W        W 2173  17.706  24.979   4.183
30448W        W 2174  29.996  25.304  12.626
30449W        W 2175  43.860  18.736  13.077
30450W        W 2176  44.700  14.372  12.937
30451W        W 2177   4.540  41.096   1.124
30452W        W 2178  19.231  19.237  12.598
30453W        W 2179  29.436  34.095  10.731
30454W        W 2180  12.107  33.570  13.614
30455W        W 2181   0.681  40.320  12.490
30456W        W 2182   8.264  32.071   2.101
30457W        W 2183  23.013  28.307   4.238
30458W        W 2184  14.130  31.370  13.896
30459W        W 2185  29.699  15.049   1.855
30460W        W 2186  26.887  21.083   1.906
30461W        W 2187  31.579  43.452  10.319
30462W        W 2188   3.128   4.401   0.671
30463W        W 2189  10.153   1.996   2.660
30464W        W 2190  28.727  26.627  14.805
30465W        W 2191  39.302  29.961   2.819
30466W        W 2192  28.710  37.215  14.310
30467W        W 2193  17.090  40.822  14.877
30468W        W 2194  34.326  39.072  13.964
30469W        W 2195   1.953  30.377  11.723
30470W        W 2196  18.855   7.637   0.740
30471W        W 2197  11.903   2.655  14.809
30472W        W 2198  28.927  36.532   2.870
30473W        W 2199   1.259   2.910   0.871
30474W        W 2200  15.379  24.099  12.732
30475W        W 2201  30.393   0.324  13.530
30476W        W 2202   9.568  36.854  11.875
30477W        W 2203  44.941   0.751  13.874
30478W        W 2204  30.093   2.521   1.325
30479W        W 2205  16.201  28.796   2.474
30480W        W 2206  14.265  15.266  13.425
30481W        W 2207  24.434  17.571  11.484
30482W        W 2208  36.964  19.519   1.414
30483W        W 2209  40.010   4.316  10.708
30484W        W 2210  23.594  40.749  13.066
30485W        W 2211  27.423  31.617  10.542
30486W        W 2212   1.934   5.666  13.055
30487W        W 2213  10.531  18.567  10.837
30488W        W 2214  43.959   8.964  11.712
30489W        W 2215  34.552  39.516  12.059
30490W        W 2216  41.028  37.267   0.414
30491W        W 2217  21.951  20.685  14.005
30492W        W 2218   2.253  28.464   4.992
30493W        W 2219  41.048  21.880   0.176
30494W        W 2220  37.375  28.332  12.957
30495W        W 2221  30.443  24.382   1.494
30496W        W 2222  40.463   4.284  12.996
30497W        W 2223  22.800   6.835   0.875
30498W        W 2224  18.662  17.299  14.474
30499W        W 2225  30.691  20.190  13.496
30500W        W 2226  16.119  16.253   0.212
30501W        W 2227  41.413  34.841  13.564
30502W        W 2228  43.367  14.841   3.394
30503W        W 2229   4.936  17.644  12.451
30504W        W 2230  21.594  25.581   0.014
30505W        W 2231  16.233  44.291   2.737
30506W        W 2232  16.544  25.702   2.390
30507W        W 2233  29.671  14.797  12.891
30508W        W 2234   8.655  44.330   1.083
30509W        W 2235   0.849   5.557   1.012
30510W        W 2236  32.356  24.389  11.517
30511W        W 2237   1.776  30.235  12.255
30512W        W 2238   5.766   3.363   3.338
30513W        W 2239   1.993  27.206   4.196
30514W        W 2240  38.482  23.125   2.381
30515W        W 2241  41.764  32.514   0.078
30516W        W 2242   4.384  26.993  11.980
30517W        W 2243  16.289  10.684  13.313
30518W        W 2244  32.552  14.095   4.438
30519W        W 2245  25.217  29.944  11.109
30520W        W 2246  38.291   6.612  13.727
30521W        W 2247  20.650   8.676  14.934
30522W        W 2248  33.826  22.056   3.737
30523W        W 2249   5.989  37.496   1.354
30524W        W 2250  44.837  32.558  12.913
30525W        W 2251  15.198  26.950  11.384
30526W        W 2252   3.470   8.889  10.403
30527W        W 2253  26.650  25.085  14.196
30528W        W 2254  42.340   8.233  13.128
30529W        W 2255   2.043   7.273  11.538
30530W        W 2256  30.916  20.652   3.822
30531W        W 2257  10.233  29.884   3.844
30532W        W 2258  32.167  33.115  13.211
30533W        W 2259  37.418  12.058   3.688
30534W        W 2260  37.522   1.789   1.319
30535W        W 2261  26.768  34.932   2.544
30536W        W 2262  12.308  31.915  14.093
30537W        W 2263  38.259  20.965   2.043
30538W        W 2264  28.093  34.916   3.143
30539W        W 2265  40.069  33.691   0.496
30540W        W 2266   5.853  40.743   1.399
30541W        W 2267   3.687  12.182   4.069
30542W        W 2268  39.471  28.647  12.060
30543W        W 2269   2.896  24.948  14.468
30544W        W 2270  11.696  34.612   3.673
30545W        W 2271  39.545  28.372  11.636
30546W        W 2272  35.036   1.928  11.982
30547W        W 2273  43.074  34.650  12.901
30548W        W 2274  18.297  37.633  12.811
30549W        W 2275  17.111  20.297  12.931
30550W        W 2276   8.121   5.451  10.618
30551W        W 2277  30.120   2.873   2.350
30552W        W 2278  32.171  34.857  13.073
30553W        W 2279  37.500  26.095   4.019
30554W        W 2280  42.737  23.510  13.372
30555W        W 2281  44.029  33.358  13.797
30556W        W 2282   1.704  30.871  10.747
30557W        W 2283  17.712  12.078  11.496
30558W        W 2284   6.642   3.928  14.458
30559W        W 2285  20.225   3.370  14.894
30560W        W 2286  20.184  37.996  11.764
30561W        W 2287   1.951  23.961  13.441
30562W        W 2288  15.191  37.633  14.712
30563W        W 2289   7.060  41.317   4.252
30564W        W 2290  33.030  16.847  10.549
30565W        W 2291  37.974  35.643   4.876
30566W        W 2292  37.197   1.253  13.605
30567W        W 2293  31.111   8.068  14.860
30568W        W 2294  16.989   8.448   3.733
30569W        W 2295  38.912  17.697   1.851
30570W        W 2296  39.240  11.426  14.490
30571W        W 2297  19.577  21.217   3.194
30572W        W 2298  16.882  12.042  11.098
30573W        W 2299  38.566  29.039   2.693
30574W        W 2300  39.540  19.814  11.079
30575W        W 2301  14.601  37.966   2.876
30576W        W 2302  15.293  43.496  11.979
30577W        W 2303  13.215  31.068   3.146
30578W        W 2304  11.907   5.707  14.479
30579W        W 2305  26.432   5.078  10.224
30580W        W 2306   6.969  41.981   3.604
30581W        W 2307  16.169  31.155   1.023
30582W        W 2308  13.058  41.598   0.300
30583W        W 2309  22.009  14.259  14.070
30584W        W 2310  31.246  44.401   5.125
30585W        W 2311  18.754  22.273   3.134
30586W        W 2312  37.998  30.956   4.392
30587W        W 2313   3.483  44.924   1.408
30588W        W 2314  38.547  23.222   4.161
30589W        W 2315  40.058  28.705  14.596
30590W        W 2316  30.163  17.782   2.245
30591W        W 2317  16.383  33.938   2.335
30592W        W 2318  44.430   0.016  10.680
30593W        W 2319  38.357  33.448   1.982
30594W        W 2320  17.142   1.102   5.124
30595W        W 2321  25.098  38.193  11.275
30596W        W 2322   6.935  33.236   0.319
30597W        W 2323   5.764  25.188  13.923
30598W        W 2324  28.618  11.146   4.876
30599W        W 2325  32.153   5.669  11.102
30600W        W 2326  30.500  41.952  11.468
30601W        W 2327  28.534   3.734   4.824
30602W        W 2328   6.167  39.515  10.888
30603W        W 2329  43.229  35.324  13.401
30604W        W 2330  11.999  32.604  12.889
30605W        W 2331  16.624  22.697   2.867
30606W        W 2332  34.314   6.269   3.054
30607W        W 2333  35.437  25.074   2.416
30608W        W 2334  13.604   6.671   2.030
30609W        W 2335  13.298  28.568  10.651
30610W        W 2336  17.793  43.072   0.415
30611W        W 2337  26.277   0.570  10.184
30612W        W 2338  16.159   4.332   4.159
30613W        W 2339  31.037  37.424  10.657
30614W        W 2340  38.727   9.419   1.786
30615W        W 2341  27.970  30.397  13.531
30616W        W 2342  36.497  18.629   4.908
30617W        W 2343  28.532  20.812   2.367
30618W        W 2344  42.307  10.401   1.455
30619W        W 2345  14.933  44.183   2.480
30620W        W 2346  35.017  26.073   1.964
30621W        W 2347  43.973  14.868  14.892
30622W        W 2348   4.028  22.586  11.268
30623W        W 2349   6.239  19.302  14.972
30624W        W 2350   5.735  32.581   2.420
30625W        W 2351  42.755   0.753   0.177
30626W        W 2352  42.779  39.803  13.533
30627W        W 2353  30.432  43.939   2.730
30628W        W 2354  12.052   9.241   2.111
30629W        W 2355  33.585  25.187  10.296
30630W        W 2356  33.156   5.221   2.180
30631W        W 2357  29.536  43.402  13.116
30632W        W 2358   7.371  17.953   2.190
30633W        W 2359  26.130  20.430  13.080
30634W        W 2360  29.549  43.516   1.259
30635W        W 2361  16.205   7.612  11.203
30636W        W 2362  44.602   0.883  13.487
30637W        W 2363   6.621   4.717  14.330
30638W        W 2364   1.686  10.790  13.421
30639W        W 2365   3.776  21.478   3.271
30640W        W 2366  40.156  26.949  11.146
30641W        W 2367   3.817  31.055   4.311
30642W        W 2368  33.478  14.668  14.176
30643W        W 2369   0.256  18.700   4.064
30644W        W 2370  38.803  37.157  13.667
30645W        W 2371  14.083  21.046   0.162
30646W        W 2372  43.431  25.428   5.452
30647W        W 2373   3.787   6.261  12.840
30648W        W 2374  41.619  34.515   2.445
30649W        W 2375   9.651  16.087   1.934
30650W        W 2376  35.395  30.074   0.529
30651W        W 2377  20.167  14.972   3.364
30652W        W 2378  37.973   9.170  14.022
30653W        W 2379  19.269  20.208  11.913
30654W        W 2380  36.062   4.159  14.276
30655W        W 2381   2.381  10.223   9.809
30656W        W 2382  31.120  11.168   3.120
30657W        W 2383  17.239  17.264  13.298
30658W        W 2384  26.192  23.696  10.620
30659W        W 2385  21.731  15.718   1.701
30660W        W 2386  38.093   0.058  13.915
30661W        W 2387   8.848  14.669   0.432
30662W        W 2388  10.765  15.346   1.357
30663W        W 2389  21.790  43.710   1.808
30664W        W 2390  10.813  15.123   3.392
30665W        W 2391  31.989  12.934   0.694
30666W        W 2392  21.411  38.080  14.363
30667W        W 2393  44.676  39.470   2.252
30668W        W 2394   0.825  36.296  14.391
30669W        W 2395  37.439  26.920  13.173
30670W        W 2396  33.955   5.970   0.883
30671W        W 2397  42.538  37.000  11.207
30672W        W 2398  35.811   2.401   0.845
30673W        W 2399   8.849  40.619   4.821
30674W        W 2400  21.567  37.831  13.944
30675W        W 2401  13.332  42.551   2.272
30676W        W 2402   1.973  43.582  11.029
30677W        W 2403   5.889  16.300   2.797
30678W        W 2404  28.106   6.348  14.485
30679W        W 2405  32.144  34.456   1.179
30680W        W 2406  26.416  25.665   3.886
30681W        W 2407   0.171  44.346   2.327
30682W        W 2408   5.274  37.232   3.340
30683W        W 2409   0.217  44.679  10.582
30684W        W 2410  40.983   3.944   1.342
30685W        W 2411  30.622  41.439  13.446
30686W        W 2412  31.646  24.051   1.486
30687W        W 2413  16.985   8.856  10.298
30688W        W 2414  36.276   2.310   3.988
30689W        W 2415  28.967   2.730   2.907
30690W        W 2416  20.474  30.919   0.358
30691W        W 2417  15.233  29.929  10.816
30692W        W 2418  11.594  18.636   0.445
30693W        W 2419  21.132  28.877  12.045
30694W        W 2420   1.276  30.138  14.385
30695W        W 2421  16.387  18.670  13.574
30696W        W 2422  14.743  20.589  14.462
30697W        W 2423  36.401   0.927   4.123
30698W        W 2424   4.351  22.227  10.600
30699W        W 2425  33.988  35.369   4.074
30700W        W 2426  44.373  22.549   1.358
30701W        W 2427  41.388  23.141   4.613
30702W        W 2428  39.926   8.958   0.858
30703W        W 2429  35.975   3.878  10.812
30704W        W 2430  18.058  10.282  14.593
30705W        W 2431   2.500  17.775   0.856
30706W        W 2432   1.935  25.719  13.586
30707W        W 2433  23.972  24.518  12.073
30708W        W 2434   5.359  44.959   1.170
30709W        W 2435  29.219  41.358  14.859
30710W        W 2436  17.650  23.868  12.895
30711W        W 2437   8.366  15.550  14.479
30712W        W 2438   9.967  29.564   4.137
30713W        W 2439  22.523   1.484   0.717
30714W        W 2440   1.232  36.667  11.582
30715W        W 2441  23.517  40.256   1.237
30716W        W 2442  23.578  33.648   0.966
30717W        W 2443  27.174  30.438   1.276
30718W        W 2444  19.520  10.078  10.515
30719W        W 2445  36.382  42.017   4.251
30720W        W 2446   0.998  39.882   0.019
30721W        W 2447  15.688  40.655   4.092
30722W        W 2448  28.508   8.794   1.081
30723W        W 2449   0.727   5.184  14.458
30724W        W 2450  28.388  22.957  10.969
30725W        W 2451  18.164  40.964   2.211
30726W        W 2452  30.839  39.638  13.971
30727W        W 2453  15.773  15.628  11.618
30728W        W 2454  36.434   0.242   2.955
30729W        W 2455   0.948  30.565   2.179
30730W        W 2456  33.211  23.232  14.817
30731W        W 2457  34.763  44.749  14.362
30732W        W 2458  28.639  34.338  13.394
30733W        W 2459   2.671  38.809  14.986
30734W        W 2460  27.668   5.323   1.863
30735W        W 2461  40.321  24.988  11.269
30736W        W 2462   6.080  30.713  14.343
30737W        W 2463  30.886   7.773  10.673
30738W        W 2464   1.693  14.647  13.366
30739W        W 2465   1.464  11.398   4.304
30740W        W 2466  22.552  16.775   0.376
30741W        W 2467  34.582   7.687   5.000
30742W        W 2468  39.206  17.219  12.057
30743W        W 2469  13.335  24.346   1.752
30744W        W 2470  18.588  36.681   4.536
30745W        W 2471  30.559  35.119   0.347
30746W        W 2472  30.626  36.158  14.438
30747W        W 2473  43.924  28.807  13.041
30748W        W 2474  17.646   6.299  11.415
30749W        W 2475  22.110   9.702  13.825
30750W        W 2476  22.344  42.869   4.550
30751W        W 2477  44.619  17.704  14.758
30752W        W 2478  30.333  42.946   4.725
30753W        W 2479  30.970  12.526  13.865
30754W        W 2480   0.554  16.680   3.176
30755W        W 2481  25.635  27.906  13.556
30756W        W 2482  39.785  41.902  12.871
30757W        W 2483   1.806  34.247  14.473
30758W        W 2484   7.804  44.796   4.118
30759W        W 2485  26.051  43.005  10.254
30760W        W 2486  32.289  41.407  12.717
30761W        W 2487  42.368  20.639   3.592
30762W        W 2488  15.460  42.590  12.831
30763W        W 2489  28.564   8.570  12.635
30764W        W 2490  44.796  13.364  14.960
30765W        W 2491  23.699   6.132  13.490
30766W        W 2492  14.741  22.165   4.707
30767W        W 2493  29.996   9.636   3.227
30768W        W 2494  31.622  30.853   3.770
30769W        W 2495  41.208  34.901  13.095
30770W        W 2496  34.902  10.446  10.060
30771W        W 2497  16.145  26.441   4.348
30772W        W 2498   1.999  37.057  11.016
30773W        W 2499  34.558  30.225  14.764
30774W        W 2500  19.804  14.829   0.708
30775W        W 2501   2.865  18.856   4.417
30776W        W 2502  43.715   1.519  11.478
30777W        W 2503  36.579  42.420  12.927
30778W        W 2504   6.337  19.932   2.816
30779W        W 2505   4.256  36.244  14.910
30780W        W 2506  43.027  13.906   0.130
30781W        W 2507   6.529  27.679   2.325
30782W        W 2508  11.533  31.928   3.792
30783W        W 2509  34.996   2.562  10.895
30784W        W 2510  11.777   7.861   4.752
30785W        W 2511   9.417   4.207  11.099
30786W        W 2512  32.373  22.075  13.485
30787W        W 2513  39.992  30.238   4.915
30788W        W 2514  38.945  36.290  14.998
30789W        W 2515  31.693  17.808   0.354
30790W        W 2516  34.853  25.014   4.630
30791W        W 2517  24.714  25.998   0.913
30792W        W 2518   8.593   0.841  14.024
30793W        W 2519   5.703  24.592   3.326
30794W        W 2520   5.918  37.552  14.997
30795W        W 2521  44.992  26.455  14.710
30796W        W 2522  41.865  13.704   2.675
30797W        W 2523   6.497  24.597   4.771
30798W        W 2524  16.402  16.953   2.303
30799W        W 2525  42.371   9.404   4.438
30800W        W 2526  43.098  26.395  14.305
30801W        W 2527  27.034  43.350   1.192
30802W        W 2528  34.475   9.684  14.833
30803W        W 2529  35.796  20.913  14.480
30804W        W 2530   9.816  42.343  13.527
30805W        W 2531  38.044   8.278  13.037
30806W        W 2532  22.669  38.138  14.500
30807W        W 2533  14.814   8.876  13.417
30808W        W 2534  20.246   3.441   2.357
30809W        W 2535  38.010  35.156   0.284
30810W        W 2536  23.492  34.015   0.005
30811W        W 2537  43.885  39.508  14.287
30812W        W 2538  13.223  29.450  14.126
30813W        W 2539   0.456  12.338  10.982
30814W        W 2540  15.271  16.407  11.876
30815W        W 2541   3.431  43.234  12.433
30816W        W 2542  43.686   4.291   2.803
30817W        W 2543  41.890  10.099   1.352
30818W        W 2544  20.686  18.964  10.491
30819W        W 2545  27.628  26.725  11.422
30820W        W 2546   4.278  12.606  13.707
30821W        W 2547  37.557  26.699   4.627
30822W        W 2548  27.563  39.339   4.551
30823W        W 2549  34.601   9.127   0.899
30824W        W 2550  14.221  17.554  11.491
30825W        W 2551  20.999  36.452  11.726
30826W        W 2552  37.906  12.258  11.831
30827W        W 2553  25.793   5.213  10.490
30828W        W 2554  42.933  41.034   1.266
30829W        W 2555  43.769  15.706   1.955
30830W        W 2556  41.407  32.560  14.678
30831W        W 2557  38.115  17.059  10.795
30832W        W 2558  22.651  44.298   1.207
30833W        W 2559   6.685  28.580   1.990
30834W        W 2560  40.001   3.234   4.270
30835W        W 2561  20.497  41.520  10.325
30836W        W 2562  43.440   9.880   0.717
30837W        W 2563   3.781  23.203  13.947
30838W        W 2564  20.087  33.387   2.763
30839W        W 2565   1.867   3.049   4.044
30840W        W 2566  12.582  44.868  10.936
30841W        W 2567   7.661   7.681   0.759
30842W        W 2568  29.695  38.551   1.637
30843W        W 2569  34.444  43.998  11.573
30844W        W 2570  11.901  34.853   0.766
30845W        W 2571  38.860   7.334  11.231
30846W        W 2572  41.766  19.301  11.206
30847W        W 2573  28.299  37.803  11.626
30848W        W 2574  17.772  43.779  14.520
30849W        W 2575  22.753   6.445  10.792
30850W        W 2576  21.545  17.975   2.609
30851W        W 2577   3.717  29.042  12.670
30852W        W 2578  10.206  16.591   3.594
30853W        W 2579  16.203  32.060  11.200
30854W        W 2580  21.480   4.439   2.778
30855W        W 2581   8.387  28.281  12.945
30856W        W 2582  19.027   7.756   1.281
30857W        W 2583  22.501  36.501  10.614
30858W        W 2584  31.240  15.516  14.502
30859W        W 2585  34.871  24.254   0.876
30860W        W 2586  22.211   4.763   1.452
30861W        W 2587   1.262   6.668   1.558
30862W        W 2588  29.607  34.177  11.218
30863W        W 2589  39.293  18.033   1.793
30864W        W 2590  35.795  13.648  12.060
30865W        W 2591  39.657  44.355   0.942
30866W        W 2592  28.843  35.066   1.809
30867W        W 2593  24.828  32.979  14.264
30868W        W 2594  24.005   5.194  13.828
30869W        W 2595  15.265  12.922   4.143
30870W        W 2596   2.421  23.836   4.622
30871W        W 2597   6.702  19.577   1.247
30872W        W 2598   8.336  10.897   1.769
30873W        W 2599  20.655  19.043   2.238
30874W        W 2600  43.858  23.036   1.392
30875W        W 2601  35.010  18.718  10.962
30876W        W 2602  26.059   1.692  12.096
30877W        W 2603  14.110  42.484  13.443
30878W        W 2604  14.655  12.953  10.379
30879W        W 2605  31.275  16.999  13.761
30880W        W 2606  31.159  24.104  13.023
30881W        W 2607   7.265  11.225  12.640
30882W        W 2608  41.813  39.573  11.668
30883W        W 2609   1.135   8.837   1.661
30884W        W 2610  34.557  40.569   4.106
30885W        W 2611  11.658  42.985   2.004
30886W        W 2612  11.266  34.903   1.770
30887W        W 2613  10.375   4.184  10.432
30888W        W 2614  13.954  17.739   2.376
30889W        W 2615  42.975   1.421  13.790
30890W        W 2616  11.444  20.049   3.900
30891W        W 2617  22.064  16.864  10.968
30892W        W 2618   5.419   9.162  11.097
30893W        W 2619   7.837   3.437  12.979
30894W        W 2620  21.583  11.124   2.406
30895W        W 2621  40.355  33.424   2.425
30896W        W 2622   1.718   7.520   0.929
30897W        W 2623  44.675   3.987   2.709
30898W        W 2624   5.331   5.859  13.737
30899W        W 2625   9.167  26.543  14.449
30900W        W 2626  27.942  15.777   4.643
30901W        W 2627  13.148  35.062   4.038
30902W        W 2628  44.784  27.630   4.583
30903W        W 2629  34.704  18.277   2.226
30904W        W 2630  41.830  18.969   0.795
30905W        W 2631  15.136  11.624  12.899
30906W        W 2632  24.476  17.214   1.885
30907W        W 2633  20.081  35.977   0.768
30908W        W 2634   9.885   2.499  14.417
30909W        W 2635  19.572   9.151  10.981
30910W        W 2636  12.146  44.552   0.896
30911W        W 2637   5.863  12.794  10.207
30912W        W 2638   1.963  44.006  12.571
30913W        W 2639  31.169   8.147  13.113
30914W        W 2640  11.210   8.944  11.486
30915W        W 2641   6.726  34.120   2.390
30916W        W 2642  40.460   8.887  10.286
30917W        W 2643   4.040  23.619  11.573
30918W        W 2644   8.892   9.307  10.719
30919W        W 2645   1.394   3.460  11.631
30920W        W 2646   6.278  26.623  11.925
30921W        W 2647  11.860  22.515   1.817
30922W        W 2648   4.508  43.480  10.431
30923W        W 2649  22.446  23.484  12.119
30924W        W 2650  25.194   1.950   3.321
30925W        W 2651  29.958  18.821  13.276
30926W        W 2652  41.712  29.127  10.967
30927W        W 2653   6.523  32.138  12.499
30928W        W 2654  24.115  21.090  11.539
30929W        W 2655   4.516  12.745  11.437
30930W        W 2656  19.786  19.076   4.738
30931W        W 2657  43.749  41.855  13.528
30932W        W 2658  33.998  35.679   3.602
30933W        W 2659  32.663  26.142   4.198
30934W        W 2660  38.788  31.669  10.959
30935W        W 2661  36.015  14.017   4.531
30936W        W 2662   6.411   3.736  14.872
30937W        W 2663  27.049  36.174   3.167
30938W        W 2664  23.636  36.912   1.936
30939W        W 2665  24.411  43.215  11.894
30940W        W 2666  12.389  38.360   2.314
30941W        W 2667   6.279  12.782  14.751
30942W        W 2668  37.043  32.892  12.515
30943W        W 2669  22.336  33.183   2.298
30944W        W 2670  29.134  30.204  12.754
30945W        W 2671  17.159  11.054   1.235
30946W        W 2672  43.470  19.231   4.615
30947W        W 2673  22.245  24.675  10.665
30948W        W 2674  15.233  37.571  11.521
30949W        W 2675  33.772  19.576  10.530
30950W        W 2676  22.396   8.358  12.014
30951W        W 2677  43.541  42.833  14.564
30952W        W 2678  30.166  25.493  12.186
30953W        W 2679   5.151  33.189   2.945
30954W        W 2680  22.502   9.808  11.495
30955W        W 2681  14.578  13.074  12.646
30956W        W 2682  19.175  11.793   3.612
30957W        W 2683   2.913  42.363   1.333
30958W        W 2684   7.861  16.265  13.288
30959W        W 2685  32.179   5.124  12.501
30960W        W 2686  23.516   9.797  12.437
30961W        W 2687  29.133  18.079  10.863
30962W        W 2688  32.417   6.171  10.231
30963W        W 2689  17.109   9.310   2.703
30964W        W 2690  30.969  17.846  12.408
30965W        W 2691  26.275  18.590   4.169
30966W        W 2692  42.932  32.172  10.617
30967W        W 2693  33.505  27.927  13.518
30968W        W 2694  29.425  21.218   0.876
30969W        W 2695  43.473  42.694   3.816
30970W        W 2696  11.631  42.007  13.102
30971W        W 2697  39.466  42.799  13.899
30972W        W 2698  35.775  31.963  13.915
30973W        W 2699  42.695  39.447   2.558
30974W        W 2700   7.853  35.144   0.796
30975W        W 2701  10.873  26.752   1.581
30976W        W 2702  29.963  36.879  14.325
30977W        W 2703  13.748   8.345   4.127
30978W        W 2704  23.498  29.451   1.872
30979W        W 2705  11.906  13.704  12.053
30980W        W 2706   7.913  31.360  11.929
30981W        W 2707  14.973  44.397   0.804
30982W        W 2708  23.170  13.112  13.004
30983W        W 2709  29.802   3.751  14.223
30984W        W 2710   6.136  41.528   3.042
30985W        W 2711  25.767   6.632  14.005
30986W        W 2712  15.348  37.031  13.867
30987W        W 2713  32.985   7.349   4.114
30988W        W 2714  25.985  34.658   4.749
30989W        W 2715  44.376  37.305   2.092
30990W        W 2716  27.925  16.880   2.701
30991W        W 2717   6.672   9.879   2.271
30992W        W 2718  28.446  44.802  11.100
30993W        W 2719  23.667  30.192   2.781
30994W        W 2720  39.613  12.122  11.213
30995W        W 2721  26.489  23.326   0.008
30996W        W 2722  44.045   7.240   1.789
30997W        W 2723  21.326  14.833   5.054
30998W        W 2724  41.582  36.723   2.612
30999W        W 2725   2.768   9.462   1.431
31000W        W 2726  20.023  25.816  11.236
31001W        W 2727  28.999  34.564   1.670
31002W        W 2728  30.877  26.573  13.342
31003W        W 2729   1.473  12.687   2.737
31004W        W 2730  39.003  22.104   3.937
31005W        W 2731  23.530  22.779  10.458
31006W        W 2732  17.632  42.276   3.425
31007W        W 2733  44.248  36.811  12.873
31008W        W 2734  13.294  21.122   3.127
31009W        W 2735  27.108  21.336  11.010
31010W        W 2736  20.530   9.796  13.552
31011W        W 2737   8.151   4.568   3.226
31012W        W 2738  35.624  10.004   3.362
31013W        W 2739   9.568   6.162   0.623
31014W        W 2740  40.960  43.371  10.745
31015W        W 2741   2.172   6.751  11.507
31016W        W 2742  25.461  40.998   4.064
31017W        W 2743  39.851  42.955   3.264
31018W        W 2744  26.952   2.385   0.432
31019W        W 2745  18.048  22.019   2.403
31020W        W 2746  28.844  44.540   1.432
31021W        W 2747  27.135   2.535  10.883
31022W        W 2748  28.636  13.324  10.777
31023W        W 2749   7.461  18.955   2.288
31024W        W 2750  15.789  12.369   3.608
31025W        W 2751  37.299  14.400  12.507
31026W        W 2752  14.390   7.686   4.678
31027W        W 2753   6.075  14.417   2.997
31028W        W 2754  33.400   9.877   3.339
31029W        W 2755  27.159  37.959  14.409
31030W        W 2756   6.670  20.180  11.913
31031W        W 2757  25.436  17.866   2.287
31032W        W 2758  34.064  19.674  14.546
31033W        W 2759   3.811  30.608   4.612
31034W        W 2760  33.795  35.046  10.528
31035W        W 2761  24.874  25.090   4.361
31036W        W 2762  32.967  19.348  10.721
31037W        W 2763  17.043   8.693  11.166
31038W        W 2764  25.583   9.770   4.538
31039W        W 2765  15.814   3.804  12.482
31040W        W 2766  14.809  17.534  14.541
31041W        W 2767   0.653   0.807  12.682
31042W        W 2768  12.320   7.740   3.975
31043W        W 2769  32.853  24.460   4.637
31044W        W 2770  36.457  41.752  10.777
31045W        W 2771  25.603  23.733   0.041
31046W        W 2772  30.505  10.639  14.836
31047W        W 2773  26.630   5.396  13.779
31048W        W 2774  40.017  21.956   4.138
31049W        W 2775  26.338  18.768  11.259
31050W        W 2776  28.653  27.504  10.991
31051W        W 2777   5.561  18.927   1.163
31052W        W 2778  15.225  14.860  11.101
31053W        W 2779   9.706  37.540  10.816
31054W        W 2780   5.133  12.736   2.412
31055W        W 2781  29.568   9.650   0.189
31056W        W 2782  20.663  14.599   0.627
31057W        W 2783  22.798  39.815  11.600
31058W        W 2784  29.726  44.922   0.320
31059W        W 2785  42.617   5.468   3.763
31060W        W 2786  26.707   5.322  12.873
31061W        W 2787  33.115  14.348   2.333
31062W        W 2788   9.654  30.450   2.867
31063W        W 2789  26.922  26.034  11.687
31064W        W 2790  16.380  33.462   4.294
31065W        W 2791  37.194  16.879  13.418
31066W        W 2792  32.671  20.150   1.891
31067W        W 2793  30.912  43.704   2.821
31068W        W 2794   1.401  44.430  11.146
31069W        W 2795  38.472  30.030  14.904
31070W        W 2796  38.606  29.085  13.394
31071W        W 2797  27.441   6.598  12.504
31072W        W 2798  31.069   0.163  14.457
31073W        W 2799  20.991  12.194  13.365
31074W        W 2800  36.071  36.436   0.536
31075W        W 2801  24.064   0.262  12.464
31076W        W 2802  27.072   2.925  13.014
31077W        W 2803  44.752  26.679  10.607
31078W        W 2804   7.935  23.262  13.978
31079W        W 2805  12.043  17.581  12.442
31080W        W 2806  18.257   0.669   2.459
31081W        W 2807  26.545  43.590  10.743
31082W        W 2808  44.412  33.805   0.346
31083W        W 2809  42.263  38.014  11.960
31084W        W 2810  41.042  25.170  11.536
31085W        W 2811  22.213  16.710   1.778
31086W        W 2812  38.301  33.161  14.118
31087W        W 2813  23.648  38.466  13.625
31088W        W 2814  22.391  27.009   3.959
31089W        W 2815   1.537  18.131  12.617
31090W        W 2816  37.954  34.071  11.435
31091W        W 2817  20.302   4.774   1.291
31092W        W 2818   0.011   3.158  13.083
31093W        W 2819   8.721   8.367   0.891
31094W        W 2820  31.376  18.271  12.201
31095W        W 2821   0.407  33.778  14.624
31096W        W 2822  37.137  39.566  14.441
31097W        W 2823  28.635  32.529  13.266
31098W        W 2824  11.791  11.964  14.428
31099W        W 2825  28.564   4.656   1.259
31100W        W 2826  40.070  16.757  10.728
31101W        W 2827  26.535  33.493  10.530
31102W        W 2828  15.954  10.311   0.196
31103W        W 2829   5.875  28.488  14.362
31104W        W 2830  32.481  25.644  12.043
31105W        W 2831  39.790  36.392   0.957
31106W        W 2832  35.581  19.930  12.940
31107W        W 2833  27.165  43.058   0.782
31108W        W 2834  39.807  13.409  10.657
31109W        W 2835  32.464   3.684   1.886
31110W        W 2836  14.665  22.603  10.693
31111W        W 2837  21.168  15.338   5.099
31112W        W 2838  16.654  30.691  13.812
31113W        W 2839  26.434  38.995  14.926
31114W        W 2840  42.007  19.937   2.147
31115W        W 2841  23.759  31.520   3.260
31116W        W 2842  14.186  38.288  14.231
31117W        W 2843  30.817   5.375   0.276
31118W        W 2844  12.451  12.661  14.946
31119W        W 2845  21.582  14.086   0.903
31120W        W 2846   4.423   0.447   1.391
31121W        W 2847   8.795  43.905  14.853
31122W        W 2848  38.761  35.490   0.720
31123W        W 2849  44.718  30.966   4.417
31124W        W 2850  19.598  36.951   4.521
31125W        W 2851  39.924  29.208  13.110
31126W        W 2852  44.809  33.930   2.343
31127W        W 2853  32.057   3.199  14.496
31128W        W 2854  27.045  26.667  14.261
31129W        W 2855  10.512  21.206   4.640
31130W        W 2856  36.488   6.325  10.154
31131W        W 2857   4.861  39.353   1.128
31132W        W 2858  36.778  11.711   2.321
31133W        W 2859  16.184  17.794  13.731
31134W        W 2860  21.971  26.877  12.068
31135W        W 2861   1.237   3.615  14.293
31136W        W 2862  42.225  25.554  13.112
31137W        W 2863  10.808  26.400  13.055
31138W        W 2864  43.186  31.495  11.164
31139W        W 2865  20.586  33.590   1.895
31140W        W 2866  16.414  16.889   0.260
31141W        W 2867  25.417   6.155  10.879
31142W        W 2868  10.073   0.968  11.181
31143W        W 2869  11.350  18.065  10.610
31144W        W 2870  13.311   5.388  11.994
31145W        W 2871  28.142  27.706  10.904
31146W        W 2872  36.096  33.625  13.989
31147W        W 2873  20.336   6.210   2.385
31148W        W 2874   2.526  20.718  13.876
31149W        W 2875  36.145  31.425  14.031
31150W        W 2876  23.812   5.600   3.614
31151W        W 2877   0.279  16.108   4.774
31152W        W 2878  26.062   7.730  12.076
31153W        W 2879   7.348  26.209   0.377
31154W        W 2880  18.733   8.114  12.804
31155W        W 2881  33.378  11.889  14.510
31156W        W 2882  12.850  28.005   4.687
31157W        W 2883  10.411  33.661  12.879
31158W        W 2884   2.533  24.778   1.370
31159W        W 2885  14.072  11.269   3.677
31160W        W 2886   1.691  37.025  12.443
31161W        W 2887  21.261  11.496  12.455
31162W        W 2888  14.162  38.387   4.660
31163W        W 2889  33.828  29.080  13.917
31164W        W 2890  26.137  43.387   1.931
31165W        W 2891  21.053   2.714  14.948
31166W        W 2892  25.862  25.197  11.607
31167W        W 2893   7.694  28.416  13.290
31168W        W 2894  27.715  15.766   0.731
31169W        W 2895  39.211  44.791  11.599
31170W        W 2896  29.490  26.099  12.374
31171W        W 2897  10.223  42.330  14.436
31172W        W 2898  31.904  26.073  12.846
31173W        W 2899  16.303  18.612   3.695
31174W        W 2900  15.578  27.581   4.151
31175W        W 2901   2.758  34.741  11.819
31176W        W 2902   4.189  31.075   3.357
31177W        W 2903  27.414   0.719   4.159
31178W        W 2904  43.633  38.805   1.873
31179W        W 2905  39.300  38.478   1.169
31180W        W 2906  23.043  15.763   3.357
31181W        W 2907  35.867  10.238  12.909
31182W        W 2908  16.263  16.657  10.583
31183W        W 2909  26.942  16.316  10.532
31184W        W 2910  12.751  24.191   4.833
31185W        W 2911  34.619  20.145  14.293
31186W        W 2912  28.637   1.214   3.720
31187W        W 2913  25.631  31.136  11.451
31188W        W 2914  31.730  24.587   3.128
31189W        W 2915  22.714   8.159  10.850
31190W        W 2916  15.776  33.098  11.430
31191W        W 2917   5.169   1.341   1.777
31192W        W 2918  17.718  12.270  13.982
31193W        W 2919  20.747  20.828  12.297
31194W        W 2920  25.277   0.515  14.661
31195W        W 2921  21.618  14.748  13.013
31196W        W 2922  13.421  15.112   4.121
31197W        W 2923  42.940  38.340  13.365
31198W        W 2924   4.087   0.299  10.857
31199W        W 2925  27.526  15.321   4.089
31200W        W 2926  22.732  12.073  12.212
31201W        W 2927  27.770  26.663  14.976
31202W        W 2928  11.147  43.478   0.444
31203W        W 2929  17.387  19.542   3.267
31204W        W 2930  19.178  22.960  14.848
31205W        W 2931  24.014  18.169  11.950
31206W        W 2932  31.342   2.172   1.507
31207W        W 2933  12.341  10.522   2.170
31208W        W 2934   3.810  37.715   2.807
31209W        W 2935  20.206  24.655   4.614
31210W        W 2936  11.768  26.630   9.927
31211W        W 2937  26.064   9.865  12.991
31212W        W 2938   3.826  15.612   1.248
31213W        W 2939  16.689  39.515  11.450
31214W        W 2940   0.512  37.079  13.801
31215W        W 2941  32.632  43.940   1.111
31216W        W 2942   6.085  12.809  11.942
31217W        W 2943  37.099  44.875   4.147
31218W        W 2944  21.794  16.776   4.227
31219W        W 2945  12.932  13.884  11.267
31220W        W 2946  39.788  26.656  14.253
31221W        W 2947  12.996  41.428  11.316
31222W        W 2948  15.503   9.358  10.993
31223W        W 2949   1.933  23.648   2.155
31224W        W 2950   0.888  42.811  11.557
31225W        W 2951  28.692  12.298   0.677
31226W        W 2952  36.025  12.245  14.726
31227W        W 2953  17.081  31.013  13.879
31228W        W 2954  24.998  39.852  14.760
31229W        W 2955  43.441  40.966  13.555
31230W        W 2956  15.306  38.832   0.280
31231W        W 2957  24.757  25.673  12.421
31232W        W 2958  14.546   5.809   0.016
31233W        W 2959  20.651  40.647   0.439
31234W        W 2960  34.493   4.237   1.745
31235W        W 2961  35.873  38.828   2.315
31236W        W 2962   7.857  22.260   0.460
31237W        W 2963  13.219  13.539  12.531
31238W        W 2964  44.826  35.054  14.642
31239W        W 2965  29.245   6.931   2.255
31240W        W 2966  22.121  24.146  10.694
31241W        W 2967  35.327   7.680   4.100
31242W        W 2968  23.511  19.831  10.738
31243W        W 2969  16.502   3.033  12.174
31244W        W 2970   6.807  14.642   3.539
31245W        W 2971  33.540  11.313  12.599
31246W        W 2972   9.743   6.180   3.469
31247W        W 2973  42.162  42.544   3.365
31248W        W 2974  26.006   7.614   0.379
31249W        W 2975  26.566   1.757  10.831
31250W        W 2976  17.294  33.949  11.032
31251W        W 2977   8.430  19.099   1.304
31252W        W 2978  11.560  38.914   1.921
31253W        W 2979  17.061   5.854   3.658
31254W        W 2980  20.068   2.885   2.679
31255W        W 2981  41.846   3.437  14.917
31256W        W 2982  25.480   6.832   1.391
31257W        W 2983  28.226   0.195  11.380
31258W        W 2984  37.822   6.263  10.355
31259W        W 2985  43.932  15.813   1.466
31260W        W 2986  36.088  23.042  11.567
31261W        W 2987  40.438  28.923  14.283
31262W        W 2988  41.489   7.138   0.779
31263W        W 2989  29.109  31.067  10.559
31264W        W 2990   4.946   9.303  12.868
31265W        W 2991   8.220  15.101  11.805
31266W        W 2992  11.864  40.408  14.959
31267W        W 2993  37.091  18.295   3.809
31268W        W 2994   0.859  31.676  12.059
31269W        W 2995   7.150  23.373  14.205
31270W        W 2996  42.283  27.147   3.091
31271W        W 2997  34.118  35.533  14.201
31272W        W 2998  13.255   2.009   4.065
31273W        W 2999  21.057   2.768  10.632
31274W        W 3000  20.723  15.954  10.691
31275W        W 3001  38.026  25.463  13.011
31276W        W 3002   2.314  11.767   3.359
31277W        W 3003   8.326  35.977   2.744
31278W        W 3004  31.698  24.125   3.367
31279W        W 3005  33.548   7.836   0.928
31280W        W 3006  39.564  16.690  10.575
31281W        W 3007   2.737  35.881  11.136
31282W        W 3008   0.784   4.369   0.844
31283W        W 3009  34.816  22.320   0.550
31284W        W 3010  11.092  14.369  13.543
31285W        W 3011  31.496  22.472   3.338
31286W        W 3012  14.432  19.863   2.420
31287W        W 3013   4.363   3.788  13.926
31288W        W 3014  27.636   6.757  12.030
31289W        W 3015  14.477   2.939   4.286
31290W        W 3016   5.910   6.243   2.878
31291W        W 3017  34.639  21.453   0.433
31292W        W 3018  28.449  15.728   1.348
31293W        W 3019  23.465  32.481   1.189
31294W        W 3020  21.561  11.094  11.590
31295W        W 3021  16.147  34.871  13.348
31296W        W 3022  23.369  36.483   0.000
31297W        W 3023  16.735   5.469   0.301
31298W        W 3024   0.771  39.404   1.405
31299W        W 3025  13.727   6.335   5.028
31300W        W 3026  37.030  29.955  11.210
31301W        W 3027  42.755   6.091   1.698
31302W        W 3028   0.687   2.602  10.766
31303W        W 3029  27.484  16.393   1.999
31304W        W 3030   9.398  35.306  12.902
31305W        W 3031  42.029  33.453  14.956
31306W        W 3032  29.810  39.856  11.622
31307W        W 3033  28.993  34.059  14.614
31308W        W 3034   7.228   6.925   4.163
31309W        W 3035  20.520  35.572  14.511
31310W        W 3036  30.951  10.138   3.330
31311W        W 3037   7.958  35.544  13.960
31312W        W 3038  35.633  40.572  13.370
31313W        W 3039  20.014   1.532   1.299
31314W        W 3040  42.327  32.428  11.238
31315W        W 3041  37.834  29.050   2.208
31316W        W 3042  15.196  11.048  10.851
31317W        W 3043  33.498  40.762  14.502
31318W        W 3044  13.666  28.918   3.229
31319W        W 3045  39.080   3.735  13.459
31320W        W 3046  40.143  15.223   1.919
31321W        W 3047  44.051  14.196  11.580
31322W        W 3048  27.948  44.982  13.317
31323W        W 3049  32.682  23.195  14.798
31324W        W 3050  15.037  28.083   0.776
31325W        W 3051  43.256  26.572   2.243
31326W        W 3052   8.721   8.145  14.505
31327W        W 3053   3.761  24.404   3.875
31328W        W 3054  10.795   3.960   1.725
31329W        W 3055  42.251  14.738   1.985
31330W        W 3056  32.548   3.170   1.933
31331W        W 3057   2.661  22.615  13.813
31332W        W 3058  18.138  24.118  13.893
31333W        W 3059   7.722  41.518  14.514
31334W        W 3060  33.095  28.679   3.952
31335W        W 3061   0.424   0.144  10.548
31336W        W 3062  35.558  11.941  11.911
31337W        W 3063  36.393  20.490   2.209
31338W        W 3064  16.294  12.594  10.616
31339W        W 3065   6.798   9.963  12.881
31340W        W 3066   2.214   5.658  14.521
31341W        W 3067  18.977   7.313  11.395
31342W        W 3068  12.611  29.032  13.562
31343W        W 3069  21.524   7.628   3.115
31344W        W 3070  20.112   9.401  13.628
31345W        W 3071  36.466  11.659  12.878
31346W        W 3072   1.642   0.784   0.150
31347W        W 3073   6.076  17.638   1.191
31348W        W 3074  24.918  41.253  10.668
31349W        W 3075  26.672  32.988  13.855
31350W        W 3076  30.546  19.198   1.837
31351W        W 3077  18.556  39.834  13.852
31352W        W 3078  28.036  22.398   3.821
31353W        W 3079  13.882  14.333  13.556
31354W        W 3080  25.505  37.865  11.763
31355W        W 3081  10.253  40.378  13.144
31356W        W 3082  42.453  38.342   1.157
31357W        W 3083  34.988  35.606  13.904
31358W        W 3084   1.311  31.039  11.552
31359W        W 3085   0.862   9.193  14.044
31360W        W 3086  37.684   0.304  10.585
31361W        W 3087   4.051  27.575  13.924
31362W        W 3088  42.504  35.599   1.660
31363W        W 3089  32.957  38.770   4.901
31364W        W 3090  28.520  31.138   4.606
31365W        W 3091  39.369   4.924   4.689
31366W        W 3092   4.432  16.562   4.578
31367W        W 3093  22.852  18.225  12.511
31368W        W 3094  44.795  18.205  10.906
31369W        W 3095  15.208  13.886   1.411
31370W        W 3096   3.254  25.057  11.769
31371W        W 3097   1.386   6.088   0.777
31372W        W 3098  13.855  41.235   3.315
31373W        W 3099  21.214  24.850  11.116
31374W        W 3100  38.289  32.408   0.210
31375W        W 3101   9.130   4.518   3.288
31376W        W 3102   0.036  24.721  12.985
31377W        W 3103  23.592  31.331   4.430
31378W        W 3104  41.806  25.903   2.772
31379W        W 3105  32.411  43.482   4.274
31380W        W 3106  14.847  19.167   4.270
31381W        W 3107  17.158  14.747  11.413
31382W        W 3108   3.260  16.336  10.495
31383W        W 3109   8.349   5.398   1.701
31384W        W 3110  36.830  39.728  12.139
31385W        W 3111  43.739  42.249   3.937
31386W        W 3112  42.440   6.670  10.607
31387W        W 3113  10.195   8.981  13.339
31388W        W 3114  34.340  27.424   2.916
31389W        W 3115  18.765  37.042  12.435
31390W        W 3116  40.031  36.550  12.549
31391W        W 3117   0.010  27.133   2.680
31392W        W 3118  26.953  15.897   3.716
31393W        W 3119  24.169   8.645   3.655
31394W        W 3120  42.349  28.952  14.468
31395W        W 3121  42.094  21.995   4.162
31396W        W 3122  21.096  29.578   4.624
31397W        W 3123  22.565  24.215  11.599
31398W        W 3124  12.738   0.384   4.190
31399W        W 3125  23.689  44.330   3.738
31400W        W 3126  44.937  28.478   4.246
31401W        W 3127  40.951  19.030  14.003
31402W        W 3128  17.505   9.366   0.357
31403W        W 3129  40.047  37.343   3.762
31404W        W 3130  13.890  37.512  11.233
31405W        W 3131  43.431  20.715  11.154
31406W        W 3132   0.877   9.924  13.048
31407W        W 3133  17.841  15.614   3.303
31408W        W 3134  34.794  15.108  13.355
31409W        W 3135  27.634  11.331   4.773
31410W        W 3136  37.866  43.483  10.721
31411W        W 3137  13.327  27.306   1.027
31412W        W 3138  19.860   8.878  14.433
31413W        W 3139  14.015  32.689   3.112
31414W        W 3140  43.332  39.519  12.037
31415W        W 3141  44.396  40.102  13.651
31416W        W 3142  35.617  15.412   1.707
31417W        W 3143   4.996   4.309  11.676
31418W        W 3144  36.610  27.175  13.494
31419W        W 3145  31.481  12.747   1.658
31420W        W 3146  28.269  28.464  10.102
31421W        W 3147  31.092  38.625  11.621
31422W        W 3148  28.885  22.836  11.035
31423W        W 3149  23.464  19.579   0.895
31424W        W 3150   7.804  22.544  11.726
31425W        W 3151   1.321  33.843  10.625
31426W        W 3152  21.246  20.641  14.340
31427W        W 3153   9.655  11.386  13.931
31428W        W 3154  21.980  44.433  14.801
31429W        W 3155  13.649  24.977   2.657
31430W        W 3156  20.069  12.392   3.348
31431W        W 3157  26.569  10.170   3.532
31432W        W 3158  25.982  43.032  13.315
31433W        W 3159   4.033  18.920   2.406
31434W        W 3160  18.629  11.708   1.704
31435W        W 3161  38.806  44.480  12.335
31436W        W 3162  12.987  11.575  11.134
31437W        W 3163  30.983  42.141  11.388
31438W        W 3164  13.776  27.195  11.561
31439W        W 3165   8.388  22.116   4.170
31440W        W 3166  11.915   3.400   2.838
31441W        W 3167  21.782  17.684   4.179
31442W        W 3168  44.866  36.393  12.557
31443W        W 3169   2.985  30.606   2.234
31444W        W 3170  33.481  13.071   3.301
31445W        W 3171   8.063  15.685   2.784
31446W        W 3172  39.297  11.608  12.892
31447W        W 3173   2.747   6.318  13.502
31448W        W 3174  36.462  14.260   0.213
31449W        W 3175  18.952  43.876  11.071
31450W        W 3176  26.023   3.758  13.322
31451W        W 3177  24.964  30.866  14.970
31452W        W 3178   6.613  23.572   0.967
31453W        W 3179  44.460  22.945   0.395
31454W        W 3180  42.181  34.413  13.494
31455W        W 3181  19.759  26.115  11.555
31456W        W 3182   7.250  32.836   0.301
31457W        W 3183  23.310  14.714   4.938
31458W        W 3184  26.736  13.889  10.574
31459W        W 3185  27.025   6.484  13.427
31460W        W 3186  12.679  29.553   4.772
31461W        W 3187  30.597  17.861   1.022
31462W        W 3188  42.928  34.372   1.288
31463W        W 3189  43.394  38.374   0.760
31464W        W 3190  32.600   8.759   2.259
31465W        W 3191  22.427   0.548  11.171
31466W        W 3192  17.605  11.114   2.747
31467W        W 3193  13.674   0.718   4.690
31468W        W 3194  34.714  40.901   2.329
31469W        W 3195  12.741  14.672  11.821
31470W        W 3196  21.719  31.172   2.898
31471W        W 3197   2.767  26.479  14.417
31472W        W 3198   1.299  10.243  11.691
31473W        W 3199  40.373  28.037   1.654
31474W        W 3200  41.281  14.208  11.978
31475W        W 3201  20.264  19.164   0.412
31476W        W 3202  42.832  37.251   0.311
31477W        W 3203  22.016  41.852   3.122
31478W        W 3204   0.830  39.903  13.640
31479W        W 3205  32.366   5.617   0.686
31480W        W 3206  34.040  24.706  11.651
31481W        W 3207   3.017  36.695  12.517
31482W        W 3208  15.854  28.713   2.893
31483W        W 3209  14.272   7.150   4.636
31484W        W 3210  26.189  23.281   1.251
31485W        W 3211  26.657  12.649  14.378
31486W        W 3212  13.658  32.495  10.600
31487W        W 3213  31.147  27.367  10.578
31488W        W 3214  27.284  21.682   3.140
31489W        W 3215  22.019   7.035  12.571
31490W        W 3216  42.449  16.432  13.390
31491W        W 3217  36.280  12.246  11.478
31492W        W 3218  36.423  28.447  11.993
31493W        W 3219  33.120   0.474  13.806
31494W        W 3220   6.159  21.233   3.709
31495W        W 3221  35.816  41.490  12.604
31496W        W 3222  21.672  28.839  11.487
31497W        W 3223   4.809  40.388   2.611
31498W        W 3224  26.978  25.470   0.837
31499W        W 3225  16.116  12.583   2.766
31500W        W 3226  41.844  15.655  13.574
31501W        W 3227   2.289  23.900   1.237
31502W        W 3228  19.270  14.389  13.370
31503W        W 3229  16.083  38.971  10.986
31504W        W 3230  13.396  27.401   3.821
31505W        W 3231  42.374  30.207  14.400
31506W        W 3232  17.709  34.164   1.290
31507W        W 3233   6.627  25.456  13.856
31508W        W 3234   5.360   9.245   2.097
31509W        W 3235   9.625  26.129   2.881
31510W        W 3236  12.747  42.914   0.810
31511W        W 3237   1.996  33.603   2.712
31512W        W 3238  23.705   5.328  10.458
31513W        W 3239   9.257  29.658   2.302
31514W        W 3240  44.818  18.067   1.093
31515W        W 3241   9.651  39.015   4.669
31516W        W 3242  11.705   1.512   4.209
31517W        W 3243  25.356   4.193   1.722
31518W        W 3244  20.726  32.521  10.519
31519W        W 3245  35.575  16.330   0.615
31520W        W 3246  44.464   4.583   1.549
31521W        W 3247  34.552  14.889   4.702
31522W        W 3248  24.642  12.671   4.178
31523W        W 3249  25.372  20.164  12.517
31524W        W 3250  33.050  37.895  11.978
31525W        W 3251  16.218  43.794   2.857
31526W        W 3252  14.623  21.750  13.374
31527W        W 3253  35.873   0.702  14.526
31528W        W 3254   6.373  32.021  13.869
31529W        W 3255  40.865   3.764   3.346
31530W        W 3256  33.364   6.189  11.450
31531W        W 3257  40.883  28.530   2.729
31532W        W 3258  26.604  43.943  13.919
31533W        W 3259  22.993   6.854   4.109
31534W        W 3260   8.616  37.865  14.345
31535W        W 3261   9.263  29.121  13.871
31536W        W 3262   9.750   2.500  11.466
31537W        W 3263  39.437  15.478   0.865
31538W        W 3264   0.797  10.913  10.740
31539W        W 3265  43.277  12.951   1.770
31540W        W 3266  20.923  34.692  12.203
31541W        W 3267  40.450   9.226  13.979
31542W        W 3268  35.970  18.390  12.878
31543W        W 3269   2.263  33.891  11.600
31544W        W 3270  29.834  15.116  12.514
31545W        W 3271   8.307  21.728   2.457
31546W        W 3272  36.351  42.656  14.922
31547W        W 3273  40.800  38.420  11.276
31548W        W 3274   7.371  29.002   0.886
31549W        W 3275  24.717  36.779  11.951
31550W        W 3276  43.318  37.219  11.088
31551W        W 3277  26.136  32.608  14.274
31552W        W 3278  28.911  17.821   1.728
31553W        W 3279  32.411  43.968  13.462
31554W        W 3280  19.167   8.736  11.453
31555W        W 3281  23.581  17.656  14.003
31556W        W 3282   5.915   9.851   1.784
31557W        W 3283  19.286  35.567   3.254
31558W        W 3284  40.230  15.891  11.483
31559W        W 3285  17.813  35.318  10.560
31560W        W 3286  32.864  42.558  12.397
31561W        W 3287   3.522  26.641  12.488
31562W        W 3288   4.633  31.841  13.018
31563W        W 3289  14.604  26.981  12.110
31564W        W 3290  23.607   2.838   0.527
31565W        W 3291  43.297   0.086  14.882
31566W        W 3292  22.146  12.926   5.350
31567W        W 3293  38.861  10.689   4.153
31568W        W 3294  36.573  30.153   0.361
31569W        W 3295  24.644   1.782  14.507
31570W        W 3296  10.892  25.150   1.771
31571W        W 3297   7.457  10.258  14.577
31572W        W 3298   5.222   2.467   0.268
31573W        W 3299  17.044  27.220  13.804
31574W        W 3300  27.552  30.499   2.896
31575W        W 3301   9.769  40.532   2.490
31576W        W 3302   5.338  24.758   1.139
31577W        W 3303   8.832  31.112   0.694
31578W        W 3304   7.556  30.217   1.664
31579W        W 3305  28.036  35.427  13.541
31580W        W 3306  17.837   9.191  12.546
31581W        W 3307  29.960  24.746   4.985
31582W        W 3308  20.529  17.722   0.292
31583W        W 3309  33.646  41.750   0.001
31584W        W 3310  42.542   0.463  13.020
31585W        W 3311  16.657  14.395   1.343
31586W        W 3312  13.775  10.981  13.026
31587W        W 3313  25.140  21.913  12.901
31588W        W 3314  36.489  33.249   4.152
31589W        W 3315   4.654  22.594   4.690
31590W        W 3316   3.794  24.024   2.619
31591W        W 3317  24.073   6.997   2.436
31592W        W 3318   7.238  13.181  11.594
31593W        W 3319  20.738  40.057  11.525
31594W        W 3320   6.181  35.074   3.668
31595W        W 3321  16.557  38.158   9.812
31596W        W 3322  14.494  42.046  14.279
31597W        W 3323  14.382  32.100  11.991
31598W        W 3324  28.541   4.374   0.381
31599W        W 3325  40.683  16.614   1.282
31600W        W 3326  22.120   9.696   0.842
31601W        W 3327   9.691  30.212   4.628
31602W        W 3328  40.448  26.627   1.890
31603W        W 3329  42.834  40.857  11.711
31604W        W 3330  18.705  13.618   3.812
31605W        W 3331  39.811  21.021  10.670
31606W        W 3332  38.435  33.992   1.033
31607W        W 3333  34.169  44.490   4.168
31608W        W 3334  32.099  12.272  12.303
31609W        W 3335   4.271  19.854   0.560
31610W        W 3336  13.742   2.517   4.534
31611W        W 3337  21.263  44.975  13.265
31612W        W 3338  34.204   9.491   2.363
31613W        W 3339  16.743   6.094   2.723
31614W        W 3340  21.959   2.463  13.494
31615W        W 3341  33.452  16.575  10.283
31616W        W 3342  40.903  44.816   0.302
31617W        W 3343  30.347  25.141   2.730
31618W        W 3344  21.582  44.793   1.708
31619W        W 3345   2.871  41.870  14.527
31620W        W 3346   9.921   1.348   1.213
31621W        W 3347   3.446  20.065   3.610
31622W        W 3348  28.132  34.469  13.502
31623W        W 3349  40.523  14.778  12.062
31624W        W 3350  27.118  17.688  10.541
31625W        W 3351  26.210  12.234   1.968
31626W        W 3352  20.705  30.138  14.960
31627W        W 3353  29.439  16.669   4.670
31628W        W 3354  44.979  29.763   3.556
31629W        W 3355  11.448   5.146  10.318
31630W        W 3356  16.623  29.314   3.908
31631W        W 3357  26.083  41.156  13.443
31632W        W 3358  10.248   0.595   2.155
31633W        W 3359   5.947  20.917  10.970
31634W        W 3360  22.926   1.911   1.854
31635W        W 3361  33.626   7.289   2.632
31636W        W 3362   0.363  10.123  13.459
31637W        W 3363  12.890  13.857  14.947
31638W        W 3364  33.693  37.911   0.783
31639W        W 3365   9.648   5.806   2.314
31640W        W 3366  23.161  13.820   0.276
31641W        W 3367  10.111  22.294  11.966
31642W        W 3368  11.075  40.961  14.507
31643W        W 3369  26.367  38.917   4.982
31644W        W 3370  32.459   2.938  14.800
31645W        W 3371  36.845  30.905   3.328
31646W        W 3372  22.735   1.221  14.841
31647W        W 3373  20.135  41.887  12.509
31648W        W 3374  40.827  23.008   3.726
31649W        W 3375  27.881   2.405   2.180
31650W        W 3376  22.989   4.247  12.187
31651W        W 3377  11.634  28.445  10.688
31652W        W 3378  16.772  18.749   3.465
31653W        W 3379  39.883   3.468   2.906
31654W        W 3380  34.855  41.810  14.578
31655W        W 3381  21.942  29.557  12.858
31656W        W 3382  35.936  26.449   3.945
31657W        W 3383  27.956  43.451   4.615
31658W        W 3384  39.537  31.021   1.622
31659W        W 3385  38.951   7.793  11.493
31660W        W 3386  35.277  15.027   0.949
31661W        W 3387  41.519   9.871  10.538
31662W        W 3388  36.421   0.714  12.464
31663W        W 3389  24.898  11.910  13.940
31664W        W 3390  34.599   7.346  11.609
31665W        W 3391  20.259   9.641  12.980
31666W        W 3392  26.151  12.020   2.457
31667W        W 3393  24.946  40.018   3.370
31668W        W 3394  32.914  39.955  11.016
31669W        W 3395   2.349  40.885  10.791
31670W        W 3396  39.805  37.627  12.444
31671W        W 3397  11.222  14.711  13.964
31672W        W 3398  32.827  25.749   2.439
31673W        W 3399  38.901  32.222  12.474
31674W        W 3400  35.338  32.604   4.564
31675W        W 3401  41.073  43.046   3.823
31676W        W 3402  27.878  34.575  13.003
31677W        W 3403   7.736  19.058  14.030
31678W        W 3404  31.990  25.428   5.045
31679W        W 3405   4.761   4.390   1.410
31680W        W 3406  26.103  28.651  13.375
31681W        W 3407  40.989   5.961   1.290
31682W        W 3408  33.436  11.397   4.468
31683W        W 3409  26.661  36.403   2.485
31684W        W 3410  44.788  24.975  13.381
31685W        W 3411   2.393  30.334  14.957
31686W        W 3412  14.288  10.015   3.208
31687W        W 3413  22.498  41.230  12.971
31688W        W 3414   3.292  30.434   3.143
31689W        W 3415  31.550   4.141   1.381
31690W        W 3416  34.990   8.694  14.554
31691W        W 3417  34.828  42.301   3.836
31692W        W 3418  16.864  40.337  14.915
31693W        W 3419   6.819  16.303   0.333
31694W        W 3420  33.438  44.752   4.600
31695W        W 3421  31.948  22.760  13.937
31696W        W 3422  29.513  17.138  10.652
31697W        W 3423  11.833  40.978  14.989
31698W        W 3424  38.464  33.423   0.464
31699W        W 3425  22.714  27.997   0.350
31700W        W 3426   0.259   0.424   3.541
31701W        W 3427  26.369  25.611  11.077
31702W        W 3428  35.824   6.444  13.582
31703W        W 3429  29.063  15.088  13.064
31704W        W 3430  31.115  26.170   0.218
31705W        W 3431  18.131  36.530   4.737
31706W        W 3432   3.728  23.047  10.490
31707W        W 3433  10.536  32.330   4.243
31708W        W 3434  24.855  19.924   3.289
31709W        W 3435   3.252  26.195  12.462
31710W        W 3436  37.917  24.987  14.726
31711W        W 3437  38.172  43.278   2.821
31712W        W 3438  43.678  39.266   2.110
31713W        W 3439  12.122  19.596   4.213
31714W        W 3440  27.528  27.311  12.558
31715W        W 3441  20.105  31.169   1.250
31716W        W 3442  42.403  39.816   1.394
31717W        W 3443   7.030   6.367   0.385
31718W        W 3444   8.995  26.551  10.907
31719W        W 3445  16.710  18.538   2.508
31720W        W 3446  29.419   2.389   2.288
31721W        W 3447   3.726  33.558  12.052
31722W        W 3448  29.626  24.341  13.776
31723W        W 3449  31.315   3.478   2.130
31724W        W 3450  19.047  37.899   3.586
31725W        W 3451  16.249  26.762  10.655
31726W        W 3452  35.885  17.633   1.929
31727W        W 3453  20.666  27.624   4.543
31728W        W 3454  36.567   9.025  12.367
31729W        W 3455  38.447  34.321  11.572
31730W        W 3456  20.658  21.919  14.453
31731W        W 3457  16.132  36.256   2.587
31732W        W 3458  10.370  37.365  12.128
31733W        W 3459  12.727  18.150   3.211
31734W        W 3460   9.251  34.853  14.074
31735W        W 3461  26.124  30.613   1.487
31736W        W 3462  24.919  38.549  14.371
31737W        W 3463  44.943  36.316  13.349
31738W        W 3464  40.465  31.332   1.349
31739W        W 3465  15.278   0.782   4.384
31740W        W 3466  26.037   7.320  14.295
31741W        W 3467  17.781  31.575  13.478
31742W        W 3468  40.031   9.787  10.576
31743W        W 3469   1.774   2.370   3.801
31744W        W 3470  36.661  21.729   0.728
31745W        W 3471  29.993  29.376  12.502
31746W        W 3472  38.560  27.736  13.755
31747W        W 3473   8.234   6.815  14.051
31748W        W 3474  27.210  19.652   0.010
31749W        W 3475  25.741  44.201   3.754
31750W        W 3476   8.424  43.068   0.705
31751W        W 3477  17.125   8.455  10.716
31752W        W 3478  18.584  38.509   3.193
31753W        W 3479  18.708   4.478   0.301
31754W        W 3480  23.496  27.155   0.223
31755W        W 3481  41.095  30.413   1.915
31756W        W 3482   8.223  20.377  11.284
31757W        W 3483  12.711  37.443  13.605
31758W        W 3484  10.091  42.900   3.293
31759W        W 3485  32.037  14.668  13.867
31760W        W 3486  32.560  18.413  14.473
31761W        W 3487   9.920  42.834   0.895
31762W        W 3488   6.874  37.315   3.586
31763W        W 3489  36.633  29.402  13.230
31764W        W 3490  23.470   0.612   3.636
31765W        W 3491   1.192  41.537   2.514
31766W        W 3492  27.366  22.584  11.834
31767W        W 3493   6.637   0.787  11.819
31768W        W 3494  29.977  21.401   2.835
31769W        W 3495  17.227  39.499   4.691
31770W        W 3496  27.476  37.491  12.910
31771W        W 3497   3.273  33.802   4.220
31772W        W 3498  11.500  17.041  14.260
31773W        W 3499  36.573   7.238   1.050
31774W        W 3500   8.288  37.461  14.376
31775W        W 3501  15.170  24.318   2.322
31776W        W 3502  19.643   5.887  13.324
31777W        W 3503  10.821  44.273  10.244
31778W        W 3504   7.932   9.732  13.387
31779W        W 3505  38.208  19.187   2.465
31780W        W 3506   2.239  36.401   1.255
31781W        W 3507  34.077  26.091  14.777
31782W        W 3508  11.802  42.000   3.655
31783W        W 3509  44.698   2.309  12.568
31784W        W 3510   3.190  38.360   0.890
31785W        W 3511  38.675  12.891   0.906
31786W        W 3512  36.850  33.926  11.186
31787W        W 3513  15.650  33.093  12.871
31788W        W 3514   8.022   4.268   2.810
31789W        W 3515  12.827  28.557   3.176
31790W        W 3516   1.488  14.129  11.550
31791W        W 3517  35.871  12.112   2.890
31792W        W 3518  34.238  42.448  10.265
31793W        W 3519  24.615  23.744   1.233
31794W        W 3520  32.946   8.770   4.537
31795W        W 3521   5.699   6.791  11.367
31796W        W 3522  42.718   8.885  12.562
31797W        W 3523  18.488  27.078  10.752
31798W        W 3524  41.406  17.702   3.713
31799W        W 3525  17.772  41.254  11.605
31800W        W 3526  13.117  14.023  12.616
31801W        W 3527   6.573  19.939  11.102
31802W        W 3528  31.029  22.700  11.468
31803W        W 3529   0.533  11.143   1.366
31804W        W 3530  10.349  23.631   4.611
31805W        W 3531   3.157  16.369   3.703
31806W        W 3532  36.095  20.117   2.476
31807W        W 3533  17.467  38.740  10.587
31808W        W 3534  31.534  21.290  13.490
31809W        W 3535  17.406  21.277  13.144
31810W        W 3536  18.299  17.386  11.037
31811W        W 3537  24.926   4.350   0.524
31812W        W 3538  29.674  21.092   1.744
31813W        W 3539  17.240  19.624  12.998
31814W        W 3540  20.057  23.912  14.855
31815W        W 3541  40.774  14.299  12.113
31816W        W 3542  20.476  44.384   4.506
31817W        W 3543   8.160   5.241   2.448
31818W        W 3544  34.997  19.303  13.515
31819W        W 3545  27.637  18.265   4.620
31820W        W 3546  20.702   0.430  13.285
31821W        W 3547  21.723   6.241  13.059
31822W        W 3548  15.132  24.550  12.236
31823W        W 3549  28.983   4.748   0.065
31824W        W 3550  38.971  19.294   1.837
31825W        W 3551   5.118  18.008   4.317
31826W        W 3552  44.482  23.122   2.229
31827W        W 3553  44.699  26.093   1.660
31828W        W 3554   8.870  27.020  10.703
31829W        W 3555  42.278   2.941   4.899
31830W        W 3556   5.185  39.249   2.227
31831W        W 3557  15.683  36.509   2.643
31832W        W 3558  12.001  18.586   3.400
31833W        W 3559  14.934   2.981  10.683
31834W        W 3560  11.899  11.492  13.386
31835W        W 3561  10.219  34.561  12.926
31836W        W 3562   2.769  15.173  13.889
31837W        W 3563  12.368   8.400   4.679
31838W        W 3564  38.440   3.269  14.853
31839W        W 3565   8.767  18.275  14.453
31840W        W 3566  36.917  26.243   1.187
31841W        W 3567  38.246  32.767   3.582
31842W        W 3568   1.502  31.197  11.101
31843W        W 3569  14.597  10.506  14.580
31844W        W 3570  10.803  41.409   2.257
31845W        W 3571  22.674  17.305   1.266
31846W        W 3572   9.321  12.822  12.490
31847W        W 3573  20.002  15.784   3.660
31848W        W 3574  39.247   8.323   2.314
31849W        W 3575  25.391  38.095  13.534
31850W        W 3576  10.306   4.975  13.228
31851W        W 3577  31.156  34.127  11.226
31852W        W 3578  43.476   2.399   4.550
31853W        W 3579  33.859  12.582   3.209
31854W        W 3580  21.197  15.023  12.031
31855W        W 3581   4.349  31.662   4.183
31856W        W 3582  29.810  23.348  13.964
31857W        W 3583   8.154  19.681  11.507
31858W        W 3584  19.866  31.323   3.179
31859W        W 3585  23.429  44.717  12.522
31860W        W 3586  10.492  44.822   2.766
31861W        W 3587  21.315   6.895  13.457
31862W        W 3588  30.917  36.606  12.002
31863W        W 3589   4.278   2.259  12.831
31864W        W 3590   6.518  11.134   0.882
31865W        W 3591  27.490  15.296  13.798
31866W        W 3592  18.524  19.785   2.833
31867W        W 3593  18.427   4.504  10.120
31868W        W 3594  25.467  17.690  10.764
31869W        W 3595  13.555  13.116  12.427
31870W        W 3596  41.195  25.197   1.309
31871W        W 3597  38.045  30.951  13.027
31872W        W 3598  19.224   8.074  10.802
31873W        W 3599  39.975  23.095  12.633
31874W        W 3600  12.410  15.228  14.075
31875W        W 3601  29.376  33.407  13.188
31876W        W 3602  15.597  29.284  14.045
31877W        W 3603  39.566  36.648  14.507
31878W        W 3604   2.871  12.734  13.795
31879W        W 3605  11.864  34.649   4.169
31880W        W 3606  19.267   0.908   4.523
31881W        W 3607  44.535  24.081   2.421
31882W        W 3608  41.048  15.936   3.801
31883W        W 3609  25.397   4.346  11.942
31884W        W 3610  14.952  16.785   2.464
31885W        W 3611  30.031  29.155   2.059
31886W        W 3612  29.903  17.732   0.854
31887W        W 3613   1.599   5.231  12.105
31888W        W 3614   4.540  17.170   2.100
31889W        W 3615  18.108  42.494   3.496
31890W        W 3616  32.592  31.921  11.457
31891W        W 3617  13.129   4.231  11.592
31892W        W 3618  31.368  34.133   2.213
31893W        W 3619   4.296  27.079  11.159
31894W        W 3620  24.941  13.748  11.391
31895W        W 3621  10.449  40.711  11.603
31896W        W 3622   8.279  31.568  14.355
31897W        W 3623  36.533   3.465   2.598
31898W        W 3624   2.563  16.644   1.744
31899W        W 3625   7.474   0.483   3.714
31900W        W 3626  27.755  36.853   4.058
31901W        W 3627   7.422  15.633  11.935
31902W        W 3628  22.017   5.752  13.739
31903W        W 3629   7.679  19.769   1.290
31904W        W 3630  10.416  25.638   3.371
31905W        W 3631  41.863  12.386   1.787
31906W        W 3632   0.787  39.485  12.837
31907W        W 3633  37.082  34.909   4.793
31908W        W 3634   5.014  14.269   0.313
31909W        W 3635  31.811  22.113  11.780
31910W        W 3636   3.737  14.852   3.539
31911W        W 3637   6.214   2.836   3.672
31912W        W 3638  10.033   3.040  11.123
31913W        W 3639   4.964  38.465  14.992
31914W        W 3640  42.315  18.695   3.242
31915W        W 3641   1.751  35.610   0.467
31916W        W 3642  11.646   4.420   4.750
31917W        W 3643   0.548  25.210   4.180
31918W        W 3644  18.074  41.001   0.250
31919W        W 3645  23.132  21.070   0.411
31920W        W 3646  43.910  35.863   4.281
31921W        W 3647   7.813  19.142   3.625
31922W        W 3648   5.871  35.520  13.528
31923W        W 3649  41.548  35.504  12.421
31924W        W 3650   4.269  36.464   2.755
31925W        W 3651  16.757   7.058   0.302
31926W        W 3652  14.901  15.567   3.243
31927W        W 3653  11.741   5.456   2.584
31928W        W 3654  23.711   4.262   3.384
31929W        W 3655  34.860  15.326   0.782
31930W        W 3656  44.957  31.866  14.387
31931W        W 3657  27.662  21.806   5.054
31932W        W 3658  41.883  16.785  13.987
31933W        W 3659  23.682  13.348   1.669
31934W        W 3660  16.797  13.747   4.884
31935W        W 3661  25.232  29.421  11.179
31936W        W 3662  11.662  24.449  10.001
31937W        W 3663   1.615  42.739  12.097
31938W        W 3664   6.370   6.004  12.877
31939W        W 3665   2.298  18.817  10.719
31940W        W 3666  36.163  33.522   2.166
31941W        W 3667   9.561   9.746  14.038
31942W        W 3668  14.359  18.745   3.262
31943W        W 3669  31.898  35.123   0.924
31944W        W 3670   3.362  25.202  14.595
31945W        W 3671  44.455  29.015   0.385
31946W        W 3672  22.655  22.997  12.003
31947W        W 3673  25.789   4.180   2.600
31948W        W 3674   9.366  41.933   0.453
31949W        W 3675   4.190   9.275  11.496
31950W        W 3676   4.320  38.508   3.884
31951W        W 3677  34.944  14.634   3.311
31952W        W 3678  10.617   8.450   2.019
31953W        W 3679   1.291  43.048  14.113
31954W        W 3680  15.123   8.391   4.589
31955W        W 3681  16.109   5.549   2.736
31956W        W 3682   9.229  33.402  14.306
31957W        W 3683  35.022  33.404   3.277
31958W        W 3684   8.694  38.754  14.136
31959W        W 3685  22.057  12.807  11.186
31960W        W 3686  43.959  35.523   3.588
31961W        W 3687  21.403  22.002  11.199
31962W        W 3688  11.577  34.067   3.148
31963W        W 3689   4.602   2.357   1.496
31964W        W 3690  34.959  36.906   4.547
31965W        W 3691  11.801   5.799  10.224
31966W        W 3692  21.289   3.310  12.845
31967W        W 3693  23.164  38.781  10.655
31968W        W 3694  19.094  20.477   1.169
31969W        W 3695  40.063  22.231  11.267
31970W        W 3696  16.646  37.908   5.440
31971W        W 3697  33.414  32.029  14.695
31972W        W 3698  14.622  12.080  11.331
31973W        W 3699  12.777  11.805   1.757
31974W        W 3700   1.806  40.961  14.493
31975W        W 3701   7.982  22.229   4.525
31976W        W 3702  11.786  14.995   3.821
31977W        W 3703  22.804  41.844   1.762
31978W        W 3704   7.007   6.334   2.898
31979W        W 3705   9.038  22.999   3.710
31980W        W 3706  21.403  17.677   3.780
31981W        W 3707  27.028  35.190   2.094
31982W        W 3708  17.730   1.969  10.690
31983W        W 3709  18.217  29.354   3.416
31984W        W 3710   6.485  36.005   3.730
31985W        W 3711  23.987  35.115   3.392
31986W        W 3712  13.881  19.145   4.536
31987W        W 3713  14.155  22.601   4.972
31988W        W 3714   8.903  33.530   1.550
31989W        W 3715  13.735  30.561  14.876
31990W        W 3716  28.004   9.563  11.933
31991W        W 3717  27.242   3.976   3.368
31992W        W 3718  32.391   9.941  13.846
31993W        W 3719  26.115   9.645   1.359
31994W        W 3720  26.503  17.595   3.245
31995W        W 3721  43.059  40.448   2.480
31996W        W 3722  29.697  28.996   2.933
31997W        W 3723  43.965  14.373  10.733
31998W        W 3724  18.468   7.838  13.186
31999W        W 3725  32.647   8.315  14.347
32000W        W 3726  14.940  31.873   0.040
32001W        W 3727  35.558  26.260   0.204
32002W        W 3728  16.027  24.067  10.217
32003W        W 3729  25.571   8.501  11.043
32004W        W 3730  41.435  10.132  12.698
32005W        W 3731  34.087  17.178  13.585
32006W        W 3732  41.968   7.724  13.436
32007W        W 3733  25.300  44.787  12.737
32008W        W 3734  28.405  35.092   0.947
32009W        W 3735   2.317  41.955   4.227
32010W        W 3736  10.211  25.380  14.359
32011W        W 3737  29.486   0.944  14.074
32012W        W 3738  10.760  35.981   5.509
32013W        W 3739  22.607  16.084   0.933
32014W        W 3740  32.131  33.633   0.993
32015W        W 3741  43.426  17.283  14.998
32016W        W 3742  16.525  32.238   5.037
32017W        W 3743  27.856  29.231   5.030
32018W        W 3744  25.307   2.611   1.744
32019W        W 3745  24.180  43.302   2.445
32020W        W 3746  21.112  18.892   4.131
32021W        W 3747  42.514   1.023   2.719
32022W        W 3748  10.311   8.201   2.959
32023W        W 3749  41.059   5.121  14.464
32024W        W 3750  38.274  41.714  11.024
32025W        W 3751   8.410  31.526  11.972
32026W        W 3752  37.933  31.117   2.660
32027W        W 3753  10.319  22.953   4.181
32028W        W 3754  13.368  17.091  13.174
32029W        W 3755  30.676  29.419  10.703
32030W        W 3756   1.503  35.198  11.562
32031W        W 3757  16.369  13.920  12.021
32032W        W 3758   5.016   3.236   3.654
32033W        W 3759  20.271  39.406   2.495
32034W        W 3760  36.737  21.219   4.452
32035W        W 3761  10.914  34.060   0.014
32036W        W 3762  19.527   0.177   2.285
32037W        W 3763  21.609  19.776   4.912
32038W        W 3764   8.386  24.085   5.037
32039W        W 3765  33.599  26.252  14.956
32040W        W 3766  36.012   5.852  14.928
32041W        W 3767   0.958  43.687  12.460
32042W        W 3768  29.454  35.925   0.723
32043W        W 3769   3.926  43.541  11.552
32044W        W 3770  22.904  32.479   4.309
32045W        W 3771   9.954   2.467  10.482
32046W        W 3772  30.469  11.389   4.574
32047W        W 3773  11.134  23.969  14.860
32048W        W 3774  11.052  13.541  13.103
32049W        W 3775  38.783  10.667   2.227
32050W        W 3776  16.577   5.891  13.580
32051W        W 3777  15.160  31.494   4.601
32052W        W 3778  29.036  29.207  12.415
32053W        W 3779  12.851  26.488  12.011
32054W        W 3780  17.991   5.359  12.401
32055W        W 3781  19.284  14.614   3.402
32056W        W 3782   4.246  41.420  13.963
32057W        W 3783  31.866   3.270  10.978
32058W        W 3784  10.221  44.689   4.944
32059W        W 3785  20.998  36.107  11.172
32060W        W 3786   7.716  12.237  14.580
32061W        W 3787   6.723  20.671  11.664
32062W        W 3788   6.049  17.651   4.675
32063W        W 3789  28.947  24.692   2.900
32064W        W 3790   2.446  42.778   3.254
32065W        W 3791   4.422   2.370  12.358
32066W        W 3792  14.174  13.380   3.585
32067W        W 3793   6.768  28.640  10.565
32068W        W 3794  42.997  26.017   3.792
32069W        W 3795  24.953  39.340   4.104
32070W        W 3796  29.424  26.729   2.212
32071W        W 3797  23.351  35.391   4.249
32072W        W 3798   2.558  10.733  13.944
32073W        W 3799  14.907  28.709  10.892
32074W        W 3800  13.016  42.786   4.505
32075W        W 3801  10.036  44.837   0.947
32076W        W 3802  31.104   5.175  14.868
32077W        W 3803  29.967  17.850   4.467
32078W        W 3804  35.612  39.363  10.700
32079W        W 3805   4.702   0.889  12.345
32080W        W 3806  32.797  39.181   1.696
32081W        W 3807  15.369  20.676   1.286
32082W        W 3808  32.452  35.851  11.951
32083W        W 3809   2.721   2.513   4.724
32084W        W 3810  22.576  30.205  12.351
32085W        W 3811  14.275  22.086  13.549
32086W        W 3812  38.368  44.865   2.960
32087W        W 3813  44.908  27.371  14.924
32088W        W 3814  44.035   9.177  10.825
32089W        W 3815  33.153   9.236   4.378
32090W        W 3816   3.737   5.854  12.449
32091W        W 3817  42.432  37.622   4.274
32092W        W 3818  21.770  41.062   2.404
32093W        W 3819  30.036  36.280  12.917
32094W        W 3820   6.692  43.557  12.480
32095W        W 3821  40.055  14.710   0.997
32096W        W 3822   4.829  21.651  14.536
32097W        W 3823  35.100  26.243   2.820
32098W        W 3824  36.591  10.727  13.007
32099W        W 3825   2.918  37.847   2.660
32100W        W 3826  27.944  19.934   3.314
32101W        W 3827   6.404  17.114   2.398
32102W        W 3828   4.386  25.525   4.123
32103W        W 3829   1.491  24.870  11.954
32104W        W 3830  30.568  18.056  14.104
32105W        W 3831  34.682  14.100  10.991
32106W        W 3832  28.297  25.696  10.375
32107W        W 3833  21.025  23.065  13.088
32108W        W 3834  35.015  17.068  13.452
32109W        W 3835   2.988  23.994  12.536
32110W        W 3836  33.311  34.387   1.695
32111W        W 3837  21.960  41.899   2.622
32112W        W 3838  35.473  43.501   4.651
32113W        W 3839  35.238  34.310  13.503
32114W        W 3840  38.234  27.475  13.473
32115W        W 3841  18.143  20.991   0.214
32116W        W 3842  26.915  31.183  13.942
32117W        W 3843   8.910  33.340   4.207
32118W        W 3844   0.399  30.051   3.656
32119W        W 3845  37.520  13.725   3.187
32120W        W 3846  40.758  24.425   1.767
32121W        W 3847  24.773  33.973  11.542
32122W        W 3848   2.352   9.312   1.751
32123W        W 3849  34.126  21.494  10.972
32124W        W 3850  19.129  22.762  12.858
32125W        W 3851  31.414  14.264   0.787
32126W        W 3852  15.609  11.819  10.719
32127W        W 3853  43.498  38.979   3.416
32128W        W 3854  44.180  23.469  14.332
32129W        W 3855   5.904  18.113   4.496
32130W        W 3856  19.403   7.862  13.526
32131W        W 3857   5.973  11.893  11.929
32132W        W 3858   3.522  28.147   1.951
32133W        W 3859  42.407  15.669   1.799
32134W        W 3860  10.107  36.041   0.549
32135W        W 3861  13.612   6.116  11.625
32136W        W 3862   4.323  10.438   4.335
32137W        W 3863  29.958  10.943   3.640
32138W        W 3864  37.334  17.223  14.428
32139W        W 3865   0.536   7.731   0.577
32140W        W 3866  16.793   5.231  12.882
32141W        W 3867  39.489  35.678   1.781
32142W        W 3868   8.459  18.052  14.807
32143W        W 3869  38.728  29.616  14.554
32144W        W 3870  37.301  29.701  11.996
32145W        W 3871  33.402   5.817  12.195
32146W        W 3872  13.370  15.038  13.862
32147W        W 3873  32.875  10.200   4.059
32148W        W 3874  17.754  34.101   1.815
32149W        W 3875  13.693  33.162   2.666
32150W        W 3876  31.337  23.222   0.963
32151W        W 3877  16.930   2.266  11.231
32152W        W 3878  42.065  25.161  10.558
32153W        W 3879  24.753  39.537   3.262
32154W        W 3880  29.679  31.673   4.129
32155W        W 3881  25.652  36.378  14.012
32156W        W 3882  15.349  33.686  13.024
32157W        W 3883  18.598   1.165   1.491
32158W        W 3884  12.563  21.244  11.112
32159W        W 3885  38.494  38.768   0.756
32160W        W 3886  35.954  32.045  14.730
32161W        W 3887   3.316  30.616  10.689
32162W        W 3888  18.605  44.716   4.748
32163W        W 3889  21.258  22.731  13.513
32164W        W 3890  40.134   2.208   4.573
32165W        W 3891   4.342  19.837  12.380
32166W        W 3892   0.435  38.075   0.119
32167W        W 3893  15.802  38.204  11.967
32168W        W 3894  20.165  30.106  10.697
32169W        W 3895  24.737  14.841  12.467
32170W        W 3896   9.060  20.732  14.604
32171W        W 3897  37.010  43.577   0.044
32172W        W 3898  35.556   5.442   1.041
32173W        W 3899  21.199   4.702  12.606
32174W        W 3900  23.509  16.547   1.329
32175W        W 3901  17.092  34.975   1.812
32176W        W 3902  12.819  19.098   3.740
32177W        W 3903  43.047  26.529  12.089
32178W        W 3904  12.077  14.569   3.702
32179W        W 3905  13.377  39.787   3.186
32180W        W 3906   7.654  23.799   2.378
32181W        W 3907  36.763  10.897  14.323
32182W        W 3908  14.866  36.766  13.044
32183W        W 3909  17.154  19.388  11.210
32184W        W 3910   5.976   8.733   3.843
32185W        W 3911  11.644   2.903   0.896
32186W        W 3912   5.960  43.941   1.964
32187W        W 3913  25.501   6.443   4.641
32188W        W 3914  32.648   4.863  12.979
32189W        W 3915  41.787  14.302  11.493
32190W        W 3916  36.423  20.635  13.815
32191W        W 3917  26.297   9.066   3.190
32192W        W 3918   7.915  18.552   1.886
32193W        W 3919   7.634  26.927   1.193
32194W        W 3920  18.048  40.533   3.412
32195W        W 3921   3.208  44.930  13.264
32196W        W 3922  28.591  13.349   4.174
32197W        W 3923  21.767   3.385   2.769
32198W        W 3924  28.107  20.022   1.216
32199W        W 3925  25.720  19.336  12.351
32200W        W 3926  12.118  38.705  14.492
32201W        W 3927  19.145   5.146  11.118
32202W        W 3928  27.144  12.782   2.342
32203W        W 3929  32.498  15.890  11.555
32204W        W 3930  35.287   2.826  14.350
32205W        W 3931  30.673  15.422   0.785
32206W        W 3932   0.467   2.015   2.251
32207W        W 3933  38.072  25.521  12.503
32208W        W 3934   2.997  19.892  10.738
32209W        W 3935  44.761  11.896  10.697
32210W        W 3936  27.603  24.725   3.111
32211W        W 3937  36.482   4.751  12.999
32212W        W 3938  18.805  14.245   2.454
32213W        W 3939  16.398  28.686   2.947
32214W        W 3940  37.063  31.030   1.398
32215W        W 3941  14.776  25.530   1.943
32216W        W 3942  30.525   9.314  13.367
32217W        W 3943  22.122  41.797   0.037
32218W        W 3944  16.083  14.651   0.832
32219W        W 3945  14.563  24.625  12.306
32220W        W 3946   0.799  42.084   3.637
32221W        W 3947  42.615  10.688  14.707
32222W        W 3948   6.405  29.672   2.344
32223W        W 3949  33.026  31.684  10.969
32224W        W 3950   6.916  17.310  11.680
32225W        W 3951  30.012  38.868   2.367
32226W        W 3952  37.076  22.021  14.006
32227W        W 3953  31.106  13.732   2.790
32228W        W 3954   6.864   2.697  13.820
32229W        W 3955  20.960  38.679   0.482
32230W        W 3956  11.628  28.138  12.914
32231W        W 3957   4.256  23.661  10.535
32232W        W 3958   5.291  18.275   2.782
32233W        W 3959   1.206  39.802  11.143
32234W        W 3960   5.857   6.212   4.409
32235W        W 3961  11.117  39.284  11.576
32236W        W 3962  16.756  11.256   1.568
32237W        W 3963  19.580  13.945   3.820
32238W        W 3964  10.660  33.446  14.302
32239W        W 3965  23.268  38.859  12.622
32240W        W 3966  28.580  15.082  11.832
32241W        W 3967  27.206  19.146  11.970
32242W        W 3968  15.811   4.383  11.202
32243W        W 3969  36.605  14.929  11.085
32244W        W 3970  31.193   3.056  12.762
32245W        W 3971  37.848   9.345  13.511
32246W        W 3972  10.449  36.903  14.195
32247W        W 3973  22.620  27.414  14.424
32248W        W 3974  35.057  44.658  12.122
32249W        W 3975  28.528  15.218   1.397
32250W        W 3976   1.387  16.394   3.926
32251W        W 3977  13.649  34.070  13.939
32252W        W 3978  32.988  10.669   3.873
32253W        W 3979  35.463  26.641   4.118
32254W        W 3980   2.397  43.150  10.877
32255W        W 3981  23.972  17.109  12.956
32256W        W 3982  34.103  27.710  14.786
32257W        W 3983  42.831  30.209  11.451
32258W        W 3984  35.107  23.550  14.817
32259W        W 3985  17.258  41.472   0.293
32260W        W 3986   0.778  17.521  14.269
32261W        W 3987  35.563  41.381  14.387
32262W        W 3988  16.083   3.049   2.236
32263W        W 3989  40.676   6.029   3.781
32264W        W 3990   4.130  37.484   0.459
32265W        W 3991  23.114   2.697  11.661
32266W        W 3992  32.197  21.123   4.583
32267W        W 3993  42.175  35.654   4.548
32268W        W 3994  30.467   1.668  13.333
32269W        W 3995   4.798  16.140  10.191
32270W        W 3996  27.195   1.629   0.024
32271W        W 3997  11.339   2.778  13.684
32272W        W 3998  20.547  39.566  14.441
32273W        W 3999  37.527  15.075   2.740
32274W        W 4000  30.894  40.465  13.832
32275W        W 4001   3.506   5.821  12.914
32276W        W 4002  17.645  30.153   1.362
32277W        W 4003  27.272  42.028   0.459
32278W        W 4004  26.225  20.687  14.001
32279W        W 4005  19.431  21.990   2.821
32280W        W 4006  11.949  37.072  12.922
32281W        W 4007  18.412   1.328  14.407
32282W        W 4008   3.006  31.453  12.051
32283W        W 4009  24.191  26.521   0.861
32284W        W 4010  24.815  37.846  13.939
32285W        W 4011  32.223  30.009   0.462
32286W        W 4012   1.943  27.710  13.274
32287W        W 4013  11.785  21.241  11.542
32288W        W 4014  37.911  23.587  10.702
32289W        W 4015   1.451   4.417   4.308
32290W        W 4016  25.207  11.458   1.708
32291W        W 4017   9.397   8.275  10.683
32292W        W 4018   6.199  14.088   5.152
32293W        W 4019  15.111  20.249   0.333
32294W        W 4020  24.454  18.679   0.021
32295W        W 4021  41.906  21.155   1.427
32296W        W 4022   4.692  34.098   0.926
32297W        W 4023   2.287  16.206  12.006
32298W        W 4024   9.780  29.169   0.623
32299W        W 4025  13.695   0.338  14.376
32300W        W 4026  24.189  13.316  13.033
32301W        W 4027  24.135  19.597  14.058
32302W        W 4028   4.770   3.898  11.290
32303W        W 4029  33.641  31.995   0.151
32304W        W 4030  27.727  23.020  10.671
32305W        W 4031  27.617   3.030   1.801
32306W        W 4032   2.631  18.590   4.010
32307W        W 4033  34.365   5.075  12.125
32308W        W 4034  32.910   5.488   4.194
32309W        W 4035  30.094   0.278  14.000
32310W        W 4036  19.219  37.262   4.741
32311W        W 4037  28.462  16.315  11.954
32312W        W 4038  28.178   2.949  11.956
32313W        W 4039  44.363  15.629   4.149
32314W        W 4040  32.391  20.094  12.876
32315W        W 4041  19.117  40.942   2.988
32316W        W 4042  15.898  30.308  14.498
32317W        W 4043  16.100  10.216   2.936
32318W        W 4044  25.793   6.367   0.796
32319W        W 4045  21.127   2.379  12.931
32320W        W 4046  23.658   4.339   3.911
32321W        W 4047   6.323  19.284  14.479
32322W        W 4048   7.873  42.737   0.492
32323W        W 4049  16.484  43.524  14.987
32324W        W 4050   9.524  16.689   4.840
32325W        W 4051  29.500   4.095  14.489
32326W        W 4052  40.297  35.450  13.077
32327W        W 4053  41.444  17.812  14.980
32328W        W 4054  25.685  10.641  14.870
32329W        W 4055  30.980  15.178   2.352
32330W        W 4056  32.598  21.003  11.634
32331W        W 4057   9.344   8.610   1.069
32332W        W 4058   4.748  16.258   3.166
32333W        W 4059  10.369  32.452  14.761
32334W        W 4060   9.027   6.227  10.206
32335W        W 4061   5.686  37.110   4.223
32336W        W 4062   0.076   9.373   1.429
32337W        W 4063   3.767  30.626   1.766
32338W        W 4064  27.190   2.442   3.114
32339W        W 4065  21.324   4.257  12.858
32340W        W 4066  24.866  33.452  10.789
32341W        W 4067  23.597   8.436  13.843
32342W        W 4068  28.063  41.893  11.979
32343W        W 4069  28.254   6.674  13.883
32344W        W 4070  10.285  35.830   1.392
32345W        W 4071  19.745   7.046  14.490
32346W        W 4072   3.288  29.933  13.901
32347W        W 4073  21.642  17.376   1.274
32348W        W 4074  28.374  17.794   0.726
32349W        W 4075  29.082   8.569   0.296
32350W        W 4076  30.981  29.440  12.733
32351W        W 4077   8.129  41.320   0.261
32352W        W 4078  16.579  43.320  14.046
32353W        W 4079  20.713   2.566  11.743
32354W        W 4080  10.401  20.001   3.890
32355W        W 4081  31.011  18.758  11.568
32356W        W 4082  14.798   5.734  12.123
32357W        W 4083  24.847  13.578   4.238
32358W        W 4084   8.915   9.454  12.004
32359W        W 4085  30.039  25.428  11.040
32360W        W 4086  16.808  26.380   1.803
32361W        W 4087  37.103  17.315   1.714
32362W        W 4088  32.370  31.947   4.618
32363W        W 4089  23.646  31.980  14.277
32364W        W 4090  14.572  34.877   4.565
32365W        W 4091   1.812  32.597  12.805
32366W        W 4092  34.172   1.107   1.539
32367W        W 4093  34.792  23.934  11.069
32368W        W 4094  25.039   8.214  11.615
32369W        W 4095  25.707  38.382   0.063
32370W        W 4096   5.942  38.420  11.371
32371W        W 4097  34.124  17.084  14.821
32372W        W 4098  14.188   2.703   1.651
32373W        W 4099  18.756  22.919  10.374
32374W        W 4100  39.865  31.727  13.331
32375W        W 4101  30.081  23.723  13.400
32376W        W 4102  25.638  37.279  10.715
32377W        W 4103  10.887  19.526   1.723
32378W        W 4104  33.100  12.668   2.843
32379W        W 4105  23.654  19.141   4.295
32380W        W 4106   2.800   5.269   1.775
32381W        W 4107  13.822  31.006  14.610
32382W        W 4108  30.577  35.497   1.791
32383W        W 4109  43.713  29.958   4.131
32384W        W 4110  38.967  14.988   1.244
32385W        W 4111  14.216  29.729  13.373
32386W        W 4112  44.847  24.938   1.027
32387W        W 4113  14.688  34.103   3.708
32388W        W 4114  34.001  12.383  11.123
32389W        W 4115  33.967   5.636   1.284
32390W        W 4116   8.034  29.843   2.640
32391W        W 4117  11.131  18.682  13.132
32392W        W 4118   0.441  16.746   1.254
32393W        W 4119  33.987   9.289   3.199
32394W        W 4120  20.926  33.904   4.900
32395W        W 4121   4.876  28.420   4.153
32396W        W 4122  29.001   6.147  10.843
32397W        W 4123  23.808  14.857  14.422
32398W        W 4124  20.088   2.960  13.473
32399W        W 4125  13.636  34.716   0.947
32400W        W 4126  34.121  28.090  10.620
32401W        W 4127  20.845  33.380   2.287
32402W        W 4128  38.930  13.787   4.628
32403W        W 4129  24.130  17.613  14.757
32404W        W 4130  30.235  44.877  10.140
32405W        W 4131  12.170  32.604  10.990
32406W        W 4132  41.732  33.469   3.091
32407W        W 4133  14.574  34.797  14.895
32408W        W 4134   7.679  31.166  12.944
32409W        W 4135  30.439  43.748  10.653
32410W        W 4136   3.024  10.504   3.213
32411W        W 4137  26.516  24.427  12.403
32412W        W 4138  23.487  10.442  13.038
32413W        W 4139  23.091  31.154  14.916
32414W        W 4140  30.209  31.480   1.979
32415W        W 4141  38.426  36.167  14.772
32416W        W 4142  11.097  26.273  11.677
32417W        W 4143  15.608   6.256  12.031
32418W        W 4144  14.861  31.957   0.760
32419W        W 4145  34.376   3.753  12.559
32420W        W 4146  39.550  11.666  10.896
32421W        W 4147  36.088  43.048   4.932
32422W        W 4148   3.767  34.702  10.073
32423W        W 4149  22.762  26.606   2.175
32424W        W 4150  13.357  22.606  12.093
32425W        W 4151  17.055  12.542   2.849
32426W        W 4152  16.727  39.956  10.965
32427W        W 4153   0.237  41.920  10.579
32428W        W 4154  27.365  44.911   0.895
32429W        W 4155  24.723  20.621  10.390
32430W        W 4156  44.993  11.718   2.839
32431W        W 4157  39.390  18.990   2.624
32432W        W 4158  34.574  16.297   1.872
32433W        W 4159  23.763   0.244   1.438
32434W        W 4160   5.241  42.820   3.372
32435W        W 4161  18.761  25.479  12.995
32436W        W 4162  20.616  34.651   2.764
32437W        W 4163  41.899   3.334   4.587
32438W        W 4164  34.800  11.374   3.414
32439W        W 4165  22.264  42.536   0.283
32440W        W 4166  37.527  14.235  12.076
32441W        W 4167  20.577  23.533  11.152
32442W        W 4168  14.188  28.631   4.762
32443W        W 4169  20.638  30.062  13.499
32444W        W 4170  20.977  26.963   5.062
32445W        W 4171  32.251  19.244  11.469
32446W        W 4172  35.162  40.934   0.502
32447W        W 4173   3.970  32.047  10.729
32448W        W 4174  21.391  12.720  10.192
32449W        W 4175  26.072  19.549   1.380
32450W        W 4176   2.350  30.790   4.223
32451W        W 4177  17.556  37.294  10.635
32452W        W 4178  19.273  14.187   4.664
32453W        W 4179  29.706  22.101   3.822
32454W        W 4180  24.248   3.966   0.266
32455W        W 4181  24.983   2.487   1.315
32456W        W 4182  37.454  14.247  11.197
32457W        W 4183  17.418  31.322   4.268
32458W        W 4184   8.380  34.072   1.738
32459W        W 4185   6.829  35.919  13.354
32460W        W 4186  26.370   2.658   4.994
32461W        W 4187  18.607   5.114  11.050
32462W        W 4188   0.714  21.705   2.760
32463W        W 4189   2.300   2.649  14.394
32464W        W 4190  11.950  12.077   0.901
32465W        W 4191   1.784  31.050  13.873
32466W        W 4192   3.521  37.407  10.934
32467W        W 4193  14.701  28.710  13.099
32468W        W 4194  41.597  42.713   2.112
32469W        W 4195  32.353  26.492   3.172
32470W        W 4196   4.320  13.848   2.794
32471W        W 4197   9.004  28.664  13.877
32472W        W 4198  13.065  24.985   4.614
32473W        W 4199   0.813  33.531   4.916
32474W        W 4200   7.104  24.660   2.281
32475W        W 4201   3.853   4.964  13.509
32476W        W 4202  18.804  14.177  13.484
32477W        W 4203   7.263  40.212  14.280
32478W        W 4204  15.226   4.169   0.924
32479W        W 4205  40.016   3.236  12.925
32480W        W 4206  17.977  32.336   2.251
32481W        W 4207  25.632  35.592  13.206
32482W        W 4208  37.046  27.956   1.902
32483W        W 4209  19.977  14.403  10.252
32484W        W 4210  16.185   9.994   4.654
32485W        W 4211  42.465   8.489  11.671
32486W        W 4212  28.799   0.910   4.094
32487W        W 4213  25.247  32.119  13.424
32488W        W 4214   5.714   4.137   0.470
32489W        W 4215  27.967   5.155   4.575
32490W        W 4216  10.386  23.670  11.702
32491W        W 4217  39.794  35.479  13.220
32492W        W 4218  24.484  38.430   4.216
32493W        W 4219  27.728   6.169  13.210
32494W        W 4220  15.053   6.284  14.401
32495W        W 4221   6.241   5.870   2.789
32496W        W 4222  19.642   6.820  10.702
32497W        W 4223  36.609  27.771  14.425
32498W        W 4224   5.125   4.004  14.328
32499W        W 4225  40.052  42.895  12.379
32500W        W 4226  35.760  38.510  12.989
32501W        W 4227  13.545  12.758   2.372
32502W        W 4228  33.684  34.342   1.321
32503W        W 4229  37.955  33.472  13.915
32504W        W 4230  29.372  33.418  14.764
32505W        W 4231  17.225  39.000   4.646
32506W        W 4232  44.206  39.841   4.315
32507W        W 4233  22.200  42.182   1.894
32508W        W 4234  40.099  43.129  11.936
32509W        W 4235  40.865   8.989  13.776
32510W        W 4236  31.025  32.605  11.043
32511W        W 4237  42.438  42.016  12.951
32512W        W 4238  12.757  38.069   2.877
32513W        W 4239  14.982  18.179  12.450
32514W        W 4240  41.780   9.297   2.651
32515W        W 4241  31.905   3.383  13.917
32516W        W 4242  25.839  13.330   4.013
32517W        W 4243  11.735  19.189  12.853
32518W        W 4244  39.918  44.348  11.435
32519W        W 4245  10.244  41.960  13.866
32520W        W 4246  35.570  22.718   3.717
32521W        W 4247  12.799  39.280   4.074
32522W        W 4248  30.622  33.843  11.176
32523W        W 4249   0.219  24.387   0.240
32524W        W 4250  43.161  18.059   2.825
32525W        W 4251   5.816  38.623  12.498
32526W        W 4252  19.446  24.613  13.445
32527W        W 4253   5.012  38.529  14.456
32528W        W 4254  37.318  21.526  13.868
32529W        W 4255  20.530  32.568   4.744
32530W        W 4256  16.027  22.785  12.974
32531W        W 4257   2.405  31.679  10.634
32532W        W 4258  13.509  23.457   1.852
32533W        W 4259  23.996   5.605   0.834
32534W        W 4260  13.158  16.274  12.898
32535W        W 4261  27.621   0.985   2.782
32536W        W 4262  40.400  31.914   4.963
32537W        W 4263  12.625   1.290  10.644
32538W        W 4264   1.824  17.691  12.179
32539W        W 4265  39.826   7.815  14.773
32540W        W 4266   2.139  38.556   2.760
32541W        W 4267  13.282   5.663  13.759
32542W        W 4268   3.329  16.148   2.915
32543W        W 4269  17.212  33.214  14.393
32544W        W 4270  22.227   5.167  12.140
32545W        W 4271  35.186  36.750  11.182
32546W        W 4272  25.074   2.802   2.155
32547W        W 4273  13.654  10.587   0.911
32548W        W 4274  30.855  24.519  12.806
32549W        W 4275  24.303  32.900  11.457
32550W        W 4276  10.777  24.555   4.971
32551W        W 4277   5.831   0.428   2.959
32552W        W 4278  34.142   4.140  13.068
32553W        W 4279  31.945   2.534   0.906
32554W        W 4280  40.215   3.209  14.842
32555W        W 4281  39.945   0.414  11.278
32556W        W 4282  31.038  31.584   2.410
32557W        W 4283   8.235   4.043   3.234
32558W        W 4284  34.798  36.136   0.697
32559W        W 4285  31.463   9.414   4.243
32560W        W 4286  42.925   0.390   1.900
32561W        W 4287  23.441  39.758   1.378
32562W        W 4288   6.431  14.572   4.526
32563W        W 4289  44.889  22.697   0.257
32564W        W 4290   2.975  30.994  13.067
32565W        W 4291  15.584  28.117   4.209
32566W        W 4292  31.963  17.826   3.934
32567W        W 4293  34.152  27.455  13.100
32568W        W 4294  20.068   1.826   0.875
32569W        W 4295   3.035  29.605   5.088
32570W        W 4296   9.649  39.128   2.323
32571W        W 4297  22.537  20.544   3.364
32572W        W 4298   6.788  22.258   2.855
32573W        W 4299  21.453  32.027  14.629
32574W        W 4300  13.816  30.024  11.470
32575W        W 4301  26.195  26.203   1.844
32576W        W 4302   3.715  19.239  12.963
32577W        W 4303  11.052  23.291   0.514
32578W        W 4304  43.869  25.979   4.223
32579W        W 4305   7.652  36.923   0.363
32580W        W 4306  34.591  16.793  14.389
32581W        W 4307  37.014  30.670  13.138
32582W        W 4308  14.332   3.231  14.237
32583W        W 4309   7.753  17.256   2.696
32584W        W 4310  39.026   4.399  11.464
32585W        W 4311  36.062  26.272  11.021
32586W        W 4312  18.982  19.381   2.215
32587W        W 4313  19.401   4.355  11.112
32588W        W 4314  16.829  22.839  13.374
32589W        W 4315  27.209  13.738  10.784
32590W        W 4316  30.059  39.992  14.219
32591W        W 4317  19.122  12.055  14.337
32592W        W 4318   0.679  22.506  12.068
32593W        W 4319  43.738   2.415   1.908
32594W        W 4320  20.134  13.296  11.949
32595W        W 4321  35.477  26.012  14.488
32596W        W 4322  14.047   9.719  12.078
32597W        W 4323  31.603  43.119   0.866
32598W        W 4324  26.718  22.109   3.584
32599W        W 4325  34.474  30.397  11.914
32600W        W 4326   8.925  19.671  11.049
32601W        W 4327  40.834  30.119   0.532
32602W        W 4328  37.580  35.866  12.428
32603W        W 4329  42.078  34.002  12.456
32604W        W 4330  15.158  44.250  13.359
32605W        W 4331  38.467  37.551  10.743
32606W        W 4332  38.556  29.282   4.372
32607W        W 4333  41.748  13.606   4.298
32608W        W 4334  28.794  33.093  14.358
32609W        W 4335  25.487  34.415   2.794
32610W        W 4336   6.937  35.449   4.396
32611W        W 4337   6.758  21.328   0.762
32612W        W 4338  17.666  23.465  14.796
32613W        W 4339  19.128   4.210  13.923
32614W        W 4340  32.694   0.076  14.987
32615W        W 4341   2.249  28.709   2.031
32616W        W 4342  14.870   3.726   0.272
32617W        W 4343   7.638  29.181   1.937
32618W        W 4344  37.127   6.957   1.874
32619W        W 4345  11.460   0.764   2.748
32620W        W 4346  40.776  42.400   2.249
32621W        W 4347  19.085  35.996  12.010
32622W        W 4348  22.067  18.350  13.929
32623W        W 4349  19.230   9.845   3.086
32624W        W 4350   9.194   7.290  13.403
32625W        W 4351  36.428  33.585   1.714
32626W        W 4352  32.111  15.801   2.886
32627W        W 4353   4.745   5.490  14.311
32628W        W 4354  27.505  36.484  12.840
32629W        W 4355  12.829   4.358   4.777
32630W        W 4356  14.863   6.834   2.617
32631W        W 4357  20.692  28.249   2.312
32632W        W 4358   6.658  41.479   2.398
32633W        W 4359  38.332  12.687  12.937
32634W        W 4360  42.935   2.809   0.284
32635W        W 4361  19.769  28.050   4.362
32636W        W 4362  15.563  30.464  12.111
32637W        W 4363  21.310   4.263   0.437
32638W        W 4364  23.509  16.116  11.969
32639W        W 4365  20.154  11.801   3.244
32640W        W 4366  41.937  15.658  12.187
32641W        W 4367  24.191  41.725  14.509
32642W        W 4368  21.380  12.515  13.364
32643W        W 4369  31.485   6.414   1.094
32644W        W 4370  21.938  24.869   1.535
32645W        W 4371  40.472  11.108  12.476
32646W        W 4372  13.659  25.694   1.135
32647W        W 4373  44.357  35.680  10.142
32648W        W 4374  30.251  40.454   3.313
32649W        W 4375  10.367  40.988   3.124
32650W        W 4376  33.025  10.049   1.697
32651W        W 4377  35.442  33.043   3.281
32652W        W 4378  31.656  39.924  13.842
32653W        W 4379  34.867   0.230  14.419
32654W        W 4380  13.029  43.737   1.237
32655W        W 4381  37.555   2.886  14.893
32656W        W 4382  38.939  23.563  10.463
32657W        W 4383   1.711  17.208   2.786
32658W        W 4384  14.132  10.465  11.530
32659W        W 4385  15.922   7.434   0.760
32660W        W 4386  19.528  42.399  10.574
32661W        W 4387  18.233  43.113  11.945
32662W        W 4388  42.824  44.200   4.211
32663W        W 4389  15.574  27.108   2.987
32664W        W 4390  33.145  35.716   4.069
32665W        W 4391  42.862  19.251   2.939
32666W        W 4392  24.050  21.186  10.740
32667W        W 4393  38.921  27.989  10.625
32668W        W 4394  22.276  13.181   1.718
32669W        W 4395  28.076  42.631   4.964
32670W        W 4396  35.286   7.250  14.412
32671W        W 4397  35.275  37.477  12.101
32672W        W 4398  11.358  17.104   4.209
32673W        W 4399   1.906   3.879   0.649
32674W        W 4400   2.321  38.930  13.610
32675W        W 4401  34.107  17.867  13.001
32676W        W 4402  28.765  22.995   1.407
32677W        W 4403  22.216  43.791  12.988
32678W        W 4404  16.704  11.372  12.881
32679W        W 4405  17.174   9.846   3.180
32680W        W 4406  11.828   9.865  13.509
32681W        W 4407  32.120  19.404   2.584
32682W        W 4408  39.551  10.720  10.924
32683W        W 4409   0.971  22.544   3.294
32684W        W 4410  39.266   0.845  13.984
32685W        W 4411  17.504  20.073  10.723
32686W        W 4412  43.412  20.140   3.916
32687W        W 4413  42.777   7.370   0.544
32688W        W 4414  17.282  43.291   1.043
32689W        W 4415  16.723  10.546   1.859
32690W        W 4416  18.217  43.534  14.614
32691W        W 4417  39.869  14.862   2.303
32692W        W 4418  12.733   5.148  10.616
32693W        W 4419  43.931  15.145   2.418
32694W        W 4420   5.991  43.006   2.077
32695W        W 4421  24.531  44.891   0.480
32696W        W 4422  16.526  33.067   0.889
32697W        W 4423   5.430  42.889  14.765
32698W        W 4424   6.382  15.032   1.424
32699W        W 4425  44.774  27.030  11.564
32700W        W 4426  34.042  16.626   4.128
32701W        W 4427  19.919  36.482   3.388
32702W        W 4428  32.205  36.403  14.063
32703W        W 4429  32.560  37.888  14.012
32704W        W 4430   2.982  42.993  14.046
32705W        W 4431  30.935  38.649  11.134
32706W        W 4432  42.565  10.815   1.710
32707W        W 4433  37.979   0.758  11.909
32708W        W 4434  18.130   5.937   3.598
32709W        W 4435  17.153  22.242  14.747
32710W        W 4436  27.390   0.775   3.186
32711W        W 4437  26.482   3.303  11.223
32712W        W 4438  41.290  37.471  14.950
32713W        W 4439  17.570  41.774   1.357
32714W        W 4440  34.316   6.375   0.905
32715W        W 4441  15.310   8.347  12.259
32716W        W 4442  28.245   4.700   3.822
32717W        W 4443   2.426  17.182  13.198
32718W        W 4444  23.206   1.457   2.756
32719W        W 4445  31.552  14.111  13.357
32720W        W 4446  11.963  32.096   4.729
32721W        W 4447  13.933  30.464   4.771
32722W        W 4448  25.398  25.128   2.320
32723W        W 4449  15.689  20.581   4.732
32724W        W 4450  27.651   6.899  11.037
32725W        W 4451   6.405  40.947   2.249
32726W        W 4452   2.578   5.796  14.176
32727W        W 4453  43.270  24.739   4.039
32728W        W 4454  13.584  26.556   2.937
32729W        W 4455   7.632  15.573   0.730
32730W        W 4456  13.676  21.837   2.746
32731W        W 4457  17.119  40.502   3.531
32732W        W 4458   2.448   0.105   2.933
32733W        W 4459  37.485  34.451   3.319
32734W        W 4460  11.939  12.603  11.851
32735W        W 4461   5.249   0.822  11.467
32736W        W 4462  26.279  26.742  13.063
32737W        W 4463  12.991   0.830   4.999
32738W        W 4464   6.169  27.134   0.299
32739W        W 4465  31.389   9.827   3.278
32740W        W 4466  13.763   1.391  11.643
32741W        W 4467   2.443  29.509  12.539
32742W        W 4468   1.874  25.985   4.688
32743W        W 4469   8.872   3.915  10.637
32744W        W 4470  42.683  24.587  13.104
32745W        W 4471  15.245   0.538  10.526
32746W        W 4472   6.368  13.088  13.474
32747W        W 4473  16.606  24.535  10.587
32748W        W 4474  17.084  35.498   0.691
32749W        W 4475   4.871  19.684   4.521
32750W        W 4476  28.476  25.767  13.562
32751W        W 4477   8.681  26.145   0.083
32752W        W 4478  21.774   1.697  14.754
32753W        W 4479  31.895  28.897  14.812
32754W        W 4480  19.502  35.872  11.767
32755W        W 4481  12.075  11.421   2.341
32756W        W 4482   6.631  14.225   2.277
32757W        W 4483  23.527  16.892   0.390
32758W        W 4484  26.097  19.294   0.252
32759W        W 4485  27.264  33.354   4.061
32760W        W 4486   6.773  21.652   4.617
32761W        W 4487   9.641   7.179  11.650
32762W        W 4488  21.680  30.567   1.394
32763W        W 4489  39.947  21.511  10.812
32764W        W 4490   4.892  33.568  14.947
32765W        W 4491  44.328   2.108   0.932
32766W        W 4492   7.304  26.941   2.645
32767W        W 4493  11.250  25.522   1.782
32768W        W 4494  35.996   8.873  10.561
32769W        W 4495   2.120  36.540   5.053
32770W        W 4496  26.290  32.881   1.779
32771W        W 4497  44.910  22.516   2.260
32772W        W 4498  18.172  13.201   1.856
32773W        W 4499  35.460  12.692   0.754
32774W        W 4500  28.514  34.588  11.659
32775W        W 4501  18.729  20.010  13.903
32776W        W 4502   4.451  29.172  14.869
32777W        W 4503  15.601  32.091  11.448
32778W        W 4504  14.514  15.665   0.007
32779W        W 4505  28.023  33.465   0.696
32780W        W 4506   2.700  20.701  13.328
32781W        W 4507  22.575  44.488  11.982
32782W        W 4508  28.490  35.973   0.750
32783W        W 4509  12.658  37.046  11.729
32784W        W 4510  24.253  12.271   9.585
32785W        W 4511  14.434   7.894  10.654
32786W        W 4512  18.342  30.851   1.288
32787W        W 4513   9.060  25.116  11.448
32788W        W 4514  26.024  26.246   2.739
32789W        W 4515  23.770  11.669   3.571
32790W        W 4516  19.938  22.711  12.350
32791W        W 4517  38.770  26.661   2.629
32792W        W 4518  18.175  39.457   4.356
32793W        W 4519   1.806  13.956  10.725
32794W        W 4520   7.643  31.728  11.636
32795W        W 4521  10.297  25.963   4.985
32796W        W 4522  17.051   6.465  13.302
32797W        W 4523  35.462  16.942  12.002
32798W        W 4524  15.850  23.256  13.098
32799W        W 4525  21.978  40.339  14.827
32800W        W 4526   4.735  19.873   4.064
32801W        W 4527   1.875  24.115   2.451
32802W        W 4528  34.471  38.577   3.718
32803W        W 4529  38.879  33.413  14.798
32804W        W 4530   4.800  21.163   3.690
32805W        W 4531  28.076   0.664   0.660
32806W        W 4532  12.599  32.996   0.026
32807W        W 4533  33.893   2.225   3.691
32808W        W 4534   5.444   4.462  11.468
32809W        W 4535  21.874  19.611   3.194
32810W        W 4536  21.954  24.076   4.541
32811W        W 4537  39.583  20.590  14.854
32812W        W 4538  41.071   0.782   4.123
32813W        W 4539  30.432  24.311   2.110
32814W        W 4540   2.253  32.583   3.900
32815W        W 4541   1.912   8.676  14.528
32816W        W 4542  24.265  26.633  10.066
32817W        W 4543   2.202  18.942  14.444
32818W        W 4544  11.292  11.583  12.569
32819W        W 4545  10.516   9.779   4.816
32820W        W 4546  36.537  31.883   2.257
32821W        W 4547  17.130  43.574   4.160
32822W        W 4548  18.974  12.761  12.069
32823W        W 4549  43.833  13.594  13.452
32824W        W 4550   7.272  14.628  13.830
32825W        W 4551  13.806  14.263   0.066
32826W        W 4552  28.202   7.674   3.629
32827W        W 4553   9.905  18.646  12.023
32828W        W 4554  28.894  34.814  10.921
32829W        W 4555  44.411  23.943   0.196
32830W        W 4556  21.381   2.279   3.308
32831W        W 4557   1.490  10.903   0.831
32832W        W 4558  34.149  15.213   2.371
32833W        W 4559  43.855  17.651   4.432
32834W        W 4560  43.433  17.912   4.227
32835W        W 4561  12.214  15.225   1.976
32836W        W 4562   6.981   7.683  10.188
32837W        W 4563  14.137  12.175  13.414
32838W        W 4564   8.119   9.237   3.288
32839W        W 4565  26.897  30.514   2.190
32840W        W 4566   9.462  13.594   3.806
32841W        W 4567  24.414  35.616  13.892
32842W        W 4568   6.730  27.544   0.763
32843W        W 4569  32.616  16.717  11.384
32844W        W 4570  21.491  43.353  11.806
32845W        W 4571   5.489  39.869  10.436
32846W        W 4572   3.351   1.925   3.168
32847W        W 4573  44.844  43.551   3.452
32848W        W 4574   5.002  38.513  11.057
32849W        W 4575  43.934  33.099  12.986
32850W        W 4576  23.961  39.860   3.377
32851W        W 4577  36.955   4.765   3.385
32852W        W 4578  10.727  27.884   0.775
32853W        W 4579  31.017   9.633  11.946
32854W        W 4580  19.419  42.404  13.112
32855W        W 4581  30.526  18.899  14.445
32856W        W 4582  16.009   8.984  14.519
32857W        W 4583  11.802  28.880  14.346
32858W        W 4584   5.920  24.675   4.273
32859W        W 4585  40.808  15.284   2.730
32860W        W 4586  15.440  33.439   5.046
32861W        W 4587   9.767  18.086   4.414
32862W        W 4588   8.293  28.799  14.696
32863W        W 4589  43.063  18.750  11.136
32864W        W 4590  40.847   5.239  14.947
32865W        W 4591  16.824  22.409   0.568
32866W        W 4592  42.050  39.941   0.695
32867W        W 4593   9.865  20.607   2.385
32868W        W 4594  21.751  37.540  13.573
32869W        W 4595  38.462  15.031   2.932
32870W        W 4596  37.824  26.476   4.240
32871W        W 4597  27.155  27.705   3.944
32872W        W 4598   9.839  23.815  14.961
32873W        W 4599  29.071  39.894   2.636
32874W        W 4600  40.882  24.234   1.301
32875W        W 4601  43.507  39.882  13.092
32876W        W 4602  39.535  15.638   4.752
32877W        W 4603  29.553  26.009   3.350
32878W        W 4604   8.062   0.919  10.439
32879W        W 4605   9.361  27.200  10.595
32880W        W 4606  33.450  44.487  12.730
32881W        W 4607  13.323  37.616  11.050
32882W        W 4608  43.769  14.171  14.472
32883W        W 4609  18.367   4.168  13.533
32884W        W 4610  42.169  22.037   3.647
32885W        W 4611  14.276  33.599  12.078
32886W        W 4612  10.236   4.787   1.287
32887W        W 4613  13.165  13.829  14.483
32888W        W 4614  42.911  16.983  12.961
32889W        W 4615  41.892  17.486   3.660
32890W        W 4616   0.902   9.732  12.168
32891W        W 4617  11.365  31.172  11.237
32892W        W 4618  20.058   4.303  13.787
32893W        W 4619  11.590   2.692   4.620
32894W        W 4620  39.891  42.287  11.608
32895W        W 4621  27.544   9.190   4.536
32896W        W 4622  38.120  14.038  11.304
32897W        W 4623  11.226  26.430   4.908
32898W        W 4624  28.044  14.272   4.592
32899W        W 4625  38.071  37.945  11.229
32900W        W 4626  17.073  38.488  11.642
32901W        W 4627   2.519  17.727   1.641
32902W        W 4628  27.146  21.703   1.288
32903W        W 4629  16.073  21.128   2.270
32904W        W 4630   5.393  31.340  13.950
32905W        W 4631  42.324  24.731  11.600
32906W        W 4632  25.502  15.545   4.602
32907W        W 4633  28.044  44.050   1.896
32908W        W 4634  39.124   6.967   2.717
32909W        W 4635  38.633   5.294   1.288
32910W        W 4636   3.223  21.745  12.517
32911W        W 4637  21.035  37.360  13.978
32912W        W 4638  26.061  16.280  14.490
32913W        W 4639   3.217  13.692   4.463
32914W        W 4640  41.089   9.669   0.695
32915W        W 4641  39.429  37.812  11.045
32916W        W 4642  17.570  22.737   2.318
32917W        W 4643   5.014   8.873   1.891
32918W        W 4644   9.830  12.932  12.544
32919W        W 4645  28.604  39.481  10.370
32920W        W 4646  19.608  15.082  13.480
32921W        W 4647  32.163  14.317   3.195
32922W        W 4648   7.237  30.849   4.207
32923W        W 4649  25.951  25.598   0.146
32924W        W 4650   4.823  34.008   3.082
32925W        W 4651  22.578  42.318   3.702
32926W        W 4652   6.353  44.374   4.265
32927W        W 4653  37.046   7.169   0.823
32928W        W 4654  42.010  17.084   0.770
32929W        W 4655  31.344  16.745   3.293
32930W        W 4656  29.607  14.303   4.691
32931W        W 4657  29.646  34.500   2.403
32932W        W 4658  10.773  10.382  14.804
32933W        W 4659  42.411  40.878   1.464
32934W        W 4660  25.931  16.907   3.742
32935W        W 4661  12.927   0.827  14.538
32936W        W 4662  30.627  31.651  12.980
32937W        W 4663  11.211  13.152  12.068
32938W        W 4664  24.522  23.722   2.714
32939W        W 4665  41.831  25.617   2.350
32940W        W 4666  44.322  13.567   0.022
32941W        W 4667   4.868   8.615   0.483
32942W        W 4668  39.406  35.431  14.128
32943W        W 4669   8.169  23.869   0.631
32944W        W 4670  33.298  38.384  11.084
32945W        W 4671  43.846  41.809   2.894
32946W        W 4672  28.929  26.981  10.876
32947W        W 4673   6.490  41.991  12.609
32948W        W 4674  44.732  26.498  13.879
32949W        W 4675   9.771  12.457   2.933
32950W        W 4676  40.030   6.260  13.189
32951W        W 4677  29.567  27.147  11.909
32952W        W 4678   9.437  23.811  12.897
32953W        W 4679  16.277  23.507   1.601
32954W        W 4680   0.830   6.883   2.870
32955W        W 4681  41.761  24.601   2.002
32956W        W 4682  22.244  11.015   1.791
32957W        W 4683  31.770   2.779   3.230
32958W        W 4684  30.693   1.494   1.303
32959W        W 4685  13.249  22.101  12.366
32960W        W 4686   2.375  42.464  12.919
32961W        W 4687   0.623  34.894  14.157
32962W        W 4688  16.841  34.535   2.850
32963W        W 4689  11.684  27.107  10.113
32964W        W 4690   8.032  37.022  14.485
32965W        W 4691  15.386  30.003   3.545
32966W        W 4692  41.826  40.341   4.307
32967W        W 4693  39.342  35.982   2.238
32968W        W 4694  38.351   1.860   0.045
32969W        W 4695  29.002  15.289   0.896
32970W        W 4696  29.032  30.337   2.859
32971W        W 4697  22.695  22.224  14.225
32972W        W 4698  15.223  40.070   1.941
32973W        W 4699  24.212   1.010   3.373
32974W        W 4700  13.408  15.081   1.846
32975W        W 4701  43.210   8.977  11.881
32976W        W 4702  23.133  38.722   1.745
32977W        W 4703  30.892  21.501   3.726
32978W        W 4704   1.234  18.129   0.495
32979W        W 4705  39.346  41.885   0.750
32980W        W 4706   5.430   6.078   4.163
32981W        W 4707  30.069  38.015   3.496
32982W        W 4708  24.162   2.487   4.204
32983W        W 4709  16.539  40.754  13.237
32984W        W 4710  22.379  18.831   2.218
32985W        W 4711  40.404   2.744   0.032
32986W        W 4712  28.417   1.332   4.676
32987W        W 4713   2.431  19.469   1.340
32988W        W 4714  30.851  32.683   0.247
32989W        W 4715  17.664   5.545  12.048
32990W        W 4716  24.175  36.946   3.749
32991W        W 4717  16.348  14.720   0.370
32992W        W 4718  42.197  41.880  14.831
32993W        W 4719  38.825  22.569  11.501
32994W        W 4720  23.602   8.889  11.999
32995W        W 4721  37.009  30.532   3.665
32996W        W 4722  27.209  23.657   0.428
32997W        W 4723  30.984  31.743   0.446
32998W        W 4724   7.318  21.948  11.897
32999W        W 4725  17.233  29.585  12.715
33000W        W 4726  17.049   1.762  11.194
33001W        W 4727   7.416  12.641  12.442
33002W        W 4728   9.142   8.713   4.593
33003W        W 4729  32.684   8.951   0.863
33004W        W 4730  17.706  34.301   4.771
33005W        W 4731   0.926  16.039   2.628
33006W        W 4732  30.380  23.197   4.541
33007W        W 4733  41.536  30.489   2.890
33008W        W 4734  19.594  33.527   2.686
33009W        W 4735  43.854  23.409   0.442
33010W        W 4736  30.046   5.215   0.662
33011W        W 4737  17.505   9.138   3.641
33012W        W 4738  28.689  12.663   4.715
33013W        W 4739  13.551  23.349  13.500
33014W        W 4740  17.909  34.152   3.257
33015W        W 4741   9.322  15.115   3.082
33016W        W 4742  32.932  17.342  10.351
33017W        W 4743  12.691  44.721  12.393
33018W        W 4744  16.182  23.984  11.189
33019W        W 4745  38.376   2.396  10.748
33020W        W 4746  19.168  33.363   0.258
33021W        W 4747  36.486  19.156  12.111
33022W        W 4748  18.105   2.451  14.945
33023W        W 4749  33.515  31.634   4.464
33024W        W 4750  10.872  24.539  14.491
33025W        W 4751   0.467  27.667   4.906
33026W        W 4752  21.748  38.622   3.758
33027W        W 4753  10.192   6.927   4.530
33028W        W 4754  35.407  29.031   1.679
33029W        W 4755  40.280  37.189  10.919
33030W        W 4756  16.799   8.331   4.196
33031W        W 4757  24.512  31.021   3.856
33032W        W 4758   3.298  19.175  13.695
33033W        W 4759   1.809   5.138  12.975
33034W        W 4760   1.405  43.237  13.196
33035W        W 4761  17.261  15.629   0.195
33036W        W 4762  40.101  38.587  12.458
33037W        W 4763   7.172   3.135   1.001
33038W        W 4764  28.710  18.305  10.680
33039W        W 4765  30.190  35.872   1.443
33040W        W 4766  24.259  34.324  12.554
33041W        W 4767  23.554  14.272   0.699
33042W        W 4768  32.093  40.416   5.158
33043W        W 4769  35.628  33.358  11.604
33044W        W 4770   3.942   7.116  12.299
33045W        W 4771  25.665   9.964  12.570
33046W        W 4772   3.278  25.196  10.773
33047W        W 4773  25.954  27.049   4.029
33048W        W 4774  40.966   0.600  12.083
33049W        W 4775  10.620  14.071   4.396
33050W        W 4776  17.018   2.064  10.777
33051W        W 4777  10.033  39.451  10.398
33052W        W 4778  10.722  30.638   1.409
33053W        W 4779  36.853   9.345  12.040
33054W        W 4780  19.095  34.046   4.007
33055W        W 4781  15.038  33.986  13.314
33056W        W 4782  16.041  23.383   3.230
33057W        W 4783  37.765  41.938  10.404
33058W        W 4784  43.200  33.917   0.909
33059W        W 4785  16.354   8.812   2.690
33060W        W 4786  43.854  20.583   1.402
33061W        W 4787   0.998  29.015  11.596
33062W        W 4788   7.317  10.942   1.884
33063W        W 4789  24.295   0.382  14.965
33064W        W 4790   7.071   4.634   0.821
33065W        W 4791  38.813  23.911   4.521
33066W        W 4792  11.229  30.138  10.808
33067W        W 4793  39.403  31.739  13.945
33068W        W 4794  28.784   0.292   0.738
33069W        W 4795  37.554  22.311  11.324
33070W        W 4796  30.092  36.841   0.417
33071W        W 4797  37.117   9.067   2.212
33072W        W 4798   3.857  40.494   2.120
33073W        W 4799  39.001   8.705  14.159
33074W        W 4800   8.038  13.828  11.612
33075W        W 4801  11.687  12.878   4.757
33076W        W 4802  41.796   1.245   2.187
33077W        W 4803  37.125   8.737   0.038
33078W        W 4804  34.441   7.185   2.363
33079W        W 4805  27.587  11.185   1.688
33080W        W 4806  25.055  22.946  12.870
33081W        W 4807  29.244  27.509  14.790
33082W        W 4808  21.595  12.778   2.785
33083W        W 4809  15.595  34.196  11.590
33084W        W 4810  32.634  18.478   3.746
33085W        W 4811  23.612   6.413  12.515
33086W        W 4812  18.150  19.939  13.341
33087W        W 4813   1.043  31.906  14.757
33088W        W 4814   5.228  30.075  10.720
33089W        W 4815  38.990  11.343   4.601
33090W        W 4816   4.571  41.503  10.276
33091W        W 4817  32.059  17.166  11.891
33092W        W 4818  27.974   4.477  12.094
33093W        W 4819  25.022  39.354  14.875
33094W        W 4820  18.130  37.684   4.204
33095W        W 4821  19.734   2.012  13.418
33096W        W 4822  30.099  13.778  13.015
33097W        W 4823  26.247   1.086  10.226
33098W        W 4824  37.083  41.495   3.715
33099W        W 4825  20.739   0.641  12.687
33100W        W 4826  28.109  23.494  13.384
33101W        W 4827  12.782  17.027   2.280
33102W        W 4828  12.321  21.836  12.423
33103W        W 4829  11.479  28.104   1.210
33104W        W 4830  25.545   5.010   1.274
33105W        W 4831  44.412  21.364   1.873
33106W        W 4832  43.914   0.399   2.171
33107W        W 4833  10.838   8.316   3.553
33108W        W 4834  16.605   2.767   3.687
33109W        W 4835   6.119  19.625   3.637
33110W        W 4836  14.504  28.444  14.075
33111W        W 4837  20.513  44.286   0.848
33112W        W 4838  23.677  16.191   2.424
33113W        W 4839   5.476  23.044  12.367
33114W        W 4840  25.728  31.579  12.794
33115W        W 4841   5.236  42.875   3.889
33116W        W 4842  44.232  11.146  14.409
33117W        W 4843  42.850  21.699   3.176
33118W        W 4844  41.255  40.512  12.087
33119W        W 4845   4.110  34.051  14.028
33120W        W 4846   6.126  33.344  10.733
33121W        W 4847   1.517   7.336  14.403
33122W        W 4848   2.761  22.484   2.740
33123W        W 4849  44.906  21.193  12.499
33124W        W 4850  28.744   1.861   0.813
33125W        W 4851  16.347   1.814   3.165
33126W        W 4852  30.947  17.416   0.151
33127W        W 4853   8.628  40.274  13.811
33128W        W 4854   8.236  40.033   1.444
33129W        W 4855  34.005  41.362   2.896
33130W        W 4856  10.348  13.511   3.641
33131W        W 4857  44.873   6.314  14.763
33132W        W 4858   1.513   4.353  11.230
33133W        W 4859  13.767   9.368  13.730
33134W        W 4860  33.413  11.297   3.569
33135W        W 4861  41.960  34.568   2.943
33136W        W 4862  41.074  19.865   2.584
33137W        W 4863   7.101  34.896   1.987
33138W        W 4864  35.018  33.014  12.994
33139W        W 4865  27.362   1.983   2.881
33140W        W 4866   5.472  25.590   0.531
33141W        W 4867  40.008  27.626  13.896
33142W        W 4868  13.533  14.565   1.889
33143W        W 4869  24.209  29.660   1.153
33144W        W 4870   7.150  12.920  12.019
33145W        W 4871   8.569  24.598  12.253
33146W        W 4872  31.497  27.049   3.460
33147W        W 4873  31.117  29.738   2.729
33148W        W 4874  40.717  40.476  13.816
33149W        W 4875  29.988  10.887  13.449
33150W        W 4876  28.330  42.596   3.243
33151W        W 4877  23.352   0.789   3.176
33152W        W 4878  10.284  36.905   0.633
33153W        W 4879   5.520  21.151  11.626
33154W        W 4880  15.703  24.156   4.169
33155W        W 4881  37.579  17.550   1.797
33156W        W 4882   6.834  33.397   0.804
33157W        W 4883  15.826   7.221  11.655
33158W        W 4884  30.133   9.934  14.474
33159W        W 4885  30.893  43.511  13.060
33160W        W 4886  34.785  14.724  12.017
33161W        W 4887  27.004   4.339   4.161
33162W        W 4888   2.461  31.567   1.284
33163W        W 4889   8.921  20.331  13.489
33164W        W 4890  37.447  35.263   4.720
33165W        W 4891  40.870  34.328   4.274
33166W        W 4892  22.081   9.875   3.731
33167W        W 4893   8.153  35.810  11.157
33168W        W 4894  40.460  20.948   1.309
33169W        W 4895  22.590  35.227   3.217
33170W        W 4896  13.585  38.546   1.717
33171W        W 4897  17.211  40.956   3.226
33172W        W 4898  34.691  14.746   2.736
33173W        W 4899  29.922   6.666   4.193
33174W        W 4900   9.127   6.730  14.565
33175W        W 4901  36.600  28.237   4.085
33176W        W 4902   2.311   5.930   1.491
33177W        W 4903  13.309  26.158  12.015
33178W        W 4904  31.852   8.262   3.820
33179W        W 4905  18.196  39.927   4.146
33180W        W 4906  32.153  36.611   3.722
33181W        W 4907  11.878  16.306  11.560
33182W        W 4908  12.605  17.061  13.462
33183W        W 4909   4.362  27.656  14.868
33184W        W 4910  28.475  11.240   0.187
33185W        W 4911  39.468  18.527  11.528
33186W        W 4912  39.873   1.967   1.816
33187W        W 4913  24.119  31.728  11.535
33188W        W 4914   9.647  10.237   1.969
33189W        W 4915   9.208  14.667  14.901
33190W        W 4916   1.229  24.096  11.553
33191W        W 4917  32.683  36.355  13.863
33192W        W 4918  41.907  10.060   4.626
33193W        W 4919  18.162  24.628  10.618
33194W        W 4920  37.006   9.848  13.281
33195W        W 4921  17.336  23.215  11.385
33196W        W 4922  26.708  16.818  14.972
33197W        W 4923  38.914  16.773  12.009
33198W        W 4924  20.268   3.508  10.290
33199W        W 4925   8.365   4.958   1.416
33200W        W 4926  15.717  22.115  11.567
33201W        W 4927   9.684   0.972  12.456
33202W        W 4928  10.606  18.721   3.683
33203W        W 4929  33.072  40.004  14.724
33204W        W 4930   0.465  14.704  13.994
33205W        W 4931  21.710  38.624   0.919
33206W        W 4932   5.350  39.371  12.328
33207W        W 4933  20.669  44.846  11.970
33208W        W 4934  26.734   1.711  14.816
33209W        W 4935  28.030   6.924  14.722
33210W        W 4936  38.056  16.335   2.624
33211W        W 4937  37.588  18.117  14.364
33212W        W 4938  24.321  27.212  14.774
33213W        W 4939  23.229  11.820  10.661
33214W        W 4940  28.107  41.515   3.904
33215W        W 4941   9.575  41.202  11.168
33216W        W 4942  29.129   8.971  11.151
33217W        W 4943   2.763  30.409   4.582
33218W        W 4944   9.243  41.250   2.411
33219W        W 4945  17.217  31.150   2.462
33220W        W 4946  11.300  16.504   4.005
33221W        W 4947  27.004  24.443  12.619
33222W        W 4948  31.894  35.086  14.517
33223W        W 4949   9.409   2.548   0.328
33224W        W 4950  14.236  30.461   0.007
33225W        W 4951  17.810   3.725  10.727
33226W        W 4952  17.017  11.345  13.681
33227W        W 4953  19.853   3.469   4.587
33228W        W 4954  41.878  24.261   2.380
33229W        W 4955  10.295  26.516   0.904
33230W        W 4956  35.483   4.083  11.874
33231W        W 4957  23.161  11.399  14.940
33232W        W 4958  17.916  24.797  11.058
33233W        W 4959  15.194  27.592  13.485
33234W        W 4960  38.541  29.521   3.314
33235W        W 4961  17.479  29.233   3.701
33236W        W 4962  11.925  31.111   0.800
33237W        W 4963  38.886   1.441  14.570
33238W        W 4964  21.355  21.237   2.562
33239W        W 4965  22.324   4.220  14.023
33240W        W 4966   6.258  38.538   2.155
33241W        W 4967  30.097  11.280   2.789
33242W        W 4968  35.489  33.860   0.749
33243W        W 4969  39.346   2.378  11.038
33244W        W 4970  29.501  31.329  11.731
33245W        W 4971  13.665   4.261  11.449
33246W        W 4972   8.388   8.265   2.694
33247W        W 4973  34.836  26.930  11.030
33248W        W 4974   5.522  13.864   3.377
33249W        W 4975  20.764  32.141  11.970
33250W        W 4976  43.557  21.744  11.458
33251W        W 4977  17.255   7.285   0.330
33252W        W 4978   0.660  21.154  14.366
33253W        W 4979  13.379  38.019  13.318
33254W        W 4980  27.958  42.261  10.729
33255W        W 4981  20.749  44.184   3.562
33256W        W 4982  37.874   6.386   3.700
33257W        W 4983  33.254  43.017   3.219
33258W        W 4984   5.319  30.074   0.523
33259W        W 4985   3.950  24.649  11.987
33260W        W 4986  23.013  11.894   5.088
33261W        W 4987  32.849  13.807  12.099
33262W        W 4988  18.725  31.574   4.474
33263W        W 4989  17.166   6.242   0.192
33264W        W 4990   0.094  18.737  12.100
33265W        W 4991  11.202  15.403   0.621
33266W        W 4992   8.195  43.576  14.497
33267W        W 4993  29.733  43.437  11.261
33268W        W 4994  30.046  31.351  14.457
33269W        W 4995   1.471  24.763  14.458
33270W        W 4996  19.655   4.692  13.769
33271W        W 4997   9.027  23.535   2.891
33272W        W 4998   5.078  43.279   0.467
33273W        W 4999   4.274  26.007   3.826
33274W        W 5000  24.268  34.501   0.353
33275W        W 5001  25.468  33.835   0.266
33276W        W 5002   9.681  42.187  12.120
33277W        W 5003  13.845  29.702  12.995
33278W        W 5004  36.998  27.424  12.627
33279W        W 5005   3.718  11.347  12.449
33280W        W 5006  42.869  35.108  13.032
33281W        W 5007  15.215  37.305   2.776
33282W        W 5008  24.037   9.204   1.934
33283W        W 5009  30.190  23.953   5.403
33284W        W 5010  22.687  30.379  13.943
33285W        W 5011   7.166  32.012  12.344
33286W        W 5012   4.375  16.146  13.546
33287W        W 5013   2.926   0.723   1.986
33288W        W 5014  41.870  29.230  14.359
33289W        W 5015  17.511  33.469  11.060
33290W        W 5016  12.939  22.325  12.028
33291W        W 5017  12.213  18.795   2.653
33292W        W 5018  36.523  16.376   0.505
33293W        W 5019   4.806  19.574  11.181
33294W        W 5020  35.097  10.741  13.994
33295W        W 5021  32.445  38.209   0.333
33296W        W 5022  35.371  27.000  10.974
33297W        W 5023  25.461   2.802  11.831
33298W        W 5024   1.020  23.776   1.521
33299W        W 5025   4.878  18.674   2.430
33300W        W 5026  32.459   0.379   2.407
33301W        W 5027   6.203  40.988  12.695
33302W        W 5028  37.911  14.875  11.817
33303W        W 5029  13.776  38.862  12.622
33304W        W 5030  23.595  22.094   4.274
33305W        W 5031  43.958  15.868  10.701
33306W        W 5032  13.277  12.125  13.710
33307W        W 5033  41.642   9.081   3.267
33308W        W 5034   2.474  43.908   2.282
33309W        W 5035  25.918  41.048   3.177
33310W        W 5036  44.545  27.528  10.352
33311W        W 5037  44.679  27.977  11.517
33312W        W 5038  43.501   1.793   4.736
33313W        W 5039  14.114  20.554   1.940
33314W        W 5040  18.807  43.898   0.261
33315W        W 5041  17.052  16.271   1.281
33316W        W 5042  28.943  15.285   2.203
33317W        W 5043  39.575  39.202  11.213
33318W        W 5044  43.912  37.013  14.836
33319W        W 5045  36.885   3.289  11.062
33320W        W 5046  32.039   8.971  14.980
33321W        W 5047   0.023  36.156  12.103
33322W        W 5048  17.282  32.526   0.863
33323W        W 5049   7.530  13.600   1.432
33324W        W 5050  14.291  37.105  10.493
33325W        W 5051  25.010  26.070  12.025
33326W        W 5052   2.944   8.650   2.804
33327W        W 5053  18.180  21.560  14.342
33328W        W 5054  19.261  11.871   4.589
33329W        W 5055  14.576  38.420   4.313
33330W        W 5056  19.221   2.492   0.526
33331W        W 5057  33.767   7.748  12.571
33332W        W 5058  23.775   9.114   2.806
33333W        W 5059  40.852  41.754  14.366
33334W        W 5060  27.980   4.639   0.990
33335W        W 5061   4.844  43.749   2.634
33336W        W 5062   9.569  18.845  13.928
33337W        W 5063  42.026  41.691   0.300
33338W        W 5064  18.278   6.053   2.212
33339W        W 5065   5.688  28.606   4.536
33340W        W 5066  14.192  16.197   0.620
33341W        W 5067  32.630  44.970   5.602
33342W        W 5068  20.568  15.731   2.691
33343W        W 5069   1.516   4.001   4.016
33344W        W 5070  42.855  40.364  11.959
33345W        W 5071   1.212  23.433   4.128
33346W        W 5072   9.213  17.339   0.320
33347W        W 5073  35.855   6.755   4.122
33348W        W 5074  27.655  15.155   3.593
33349W        W 5075   1.938  39.071  14.841
33350W        W 5076  27.526   4.094   0.306
33351W        W 5077  31.567  15.323  13.778
33352W        W 5078  31.325  34.115   4.108
33353W        W 5079  24.673  27.130   2.439
33354W        W 5080  15.203  17.774  13.340
33355W        W 5081  16.695  31.369   4.788
33356W        W 5082  41.795   4.662   0.898
33357W        W 5083   0.520   3.628  11.566
33358W        W 5084  12.727   8.838   0.206
33359W        W 5085  20.132   4.428  14.797
33360W        W 5086  43.656  23.463  14.315
33361W        W 5087  37.307   9.851   1.703
33362W        W 5088   9.901  40.873   0.298
33363W        W 5089  16.869  23.191   3.685
33364W        W 5090  18.004  19.465  13.464
33365W        W 5091  33.182  33.267   2.671
33366W        W 5092  32.078  12.051  10.586
33367W        W 5093  10.292  44.183   1.713
33368W        W 5094  42.786  25.218  14.890
33369W        W 5095  15.189  35.502  14.911
33370W        W 5096  17.739  28.927  12.956
33371W        W 5097  44.272  44.378  14.387
33372W        W 5098  42.104  10.109  14.419
33373W        W 5099  37.063  13.424  12.237
33374W        W 5100  32.197   0.111   0.763
33375W        W 5101  17.302  39.438   2.261
33376W        W 5102  39.311  41.594   2.973
33377W        W 5103  23.029  18.109  12.989
33378W        W 5104  41.557   0.806   2.331
33379W        W 5105  36.275  18.848   1.484
33380W        W 5106   4.689   9.281  14.466
33381W        W 5107  14.340  19.555  14.889
33382W        W 5108  20.267  20.997   3.108
33383W        W 5109  27.050  19.767  11.215
33384W        W 5110  18.584   4.059   2.328
33385W        W 5111  27.559  15.851  14.790
33386W        W 5112  14.664  27.260   0.353
33387W        W 5113  36.953  44.753  11.025
33388W        W 5114  31.685  34.248  12.414
33389W        W 5115  23.143  39.786   0.949
33390W        W 5116  23.995  11.202   1.619
33391W        W 5117  43.997  15.563  12.430
33392W        W 5118  11.672  38.042  12.894
33393W        W 5119   1.711  12.912  12.072
33394W        W 5120   9.142  40.432  13.871
33395W        W 5121   9.796  13.132   1.270
33396W        W 5122  22.310  39.188  12.794
33397W        W 5123   7.159  32.232   1.472
33398W        W 5124   9.388   8.871  11.856
33399W        W 5125  42.522  38.468   0.657
33400W        W 5126  25.171  38.313   0.677
33401W        W 5127  30.132  43.638  11.042
33402W        W 5128  24.619  39.381  13.539
33403W        W 5129  13.802   9.174  14.225
33404W        W 5130  12.234  44.986  14.952
33405W        W 5131  28.568  34.988   3.968
33406W        W 5132   9.270  15.086  14.573
33407W        W 5133   2.334  35.345   3.692
33408W        W 5134  37.750   0.353   1.766
33409W        W 5135  35.792  12.049  11.462
33410W        W 5136  33.963   0.777  12.431
33411W        W 5137   2.373  33.156   2.684
33412W        W 5138   5.223  33.951  10.736
33413W        W 5139  20.561   0.757   1.330
33414W        W 5140   1.495   7.513  11.127
33415W        W 5141  35.861  27.657  13.570
33416W        W 5142  15.674  12.804   1.870
33417W        W 5143  44.788  36.441   4.176
33418W        W 5144  36.999  15.021  13.307
33419W        W 5145   5.958  30.371  11.476
33420W        W 5146   7.336  40.956  12.533
33421W        W 5147  24.715   1.426  12.794
33422W        W 5148  22.157  18.493   1.883
33423W        W 5149   5.375  34.364   2.297
33424W        W 5150  20.085  39.821  12.537
33425W        W 5151  12.842  29.444  13.305
33426W        W 5152  41.538  28.007   4.752
33427W        W 5153  14.143  33.097   4.542
33428W        W 5154  20.679  33.562   2.759
33429W        W 5155  13.069   4.922  14.694
33430W        W 5156  30.745  32.451  12.571
33431W        W 5157  18.403  30.934   4.897
33432W        W 5158  22.687  43.552   3.228
33433W        W 5159   4.635  39.056   5.264
33434W        W 5160  17.051  39.085   3.401
33435W        W 5161  37.509  12.568  10.743
33436W        W 5162  22.113  44.290   2.244
33437W        W 5163  15.237   1.789   0.955
33438W        W 5164  43.922  17.173  13.725
33439W        W 5165  15.879  40.024   3.292
33440W        W 5166  29.802  26.117  13.587
33441W        W 5167  32.577  23.647  12.585
33442W        W 5168  10.179   4.403  11.629
33443W        W 5169  42.999  37.894  11.174
33444W        W 5170  17.725  27.427   3.172
33445W        W 5171  16.773  23.560  11.896
33446W        W 5172  21.775  34.669   1.730
33447W        W 5173  37.876   3.733   0.912
33448W        W 5174   4.387   1.948  14.105
33449W        W 5175  38.334  36.413  14.218
33450W        W 5176  14.375  27.985  11.156
33451W        W 5177   9.264  26.404  12.482
33452W        W 5178   4.829  38.474   3.720
33453W        W 5179  41.282  35.458  11.983
33454W        W 5180  39.419   1.384  14.722
33455W        W 5181   0.956  35.652   5.014
33456W        W 5182  31.160  11.198  12.445
33457W        W 5183   3.343  30.392   4.500
33458W        W 5184  43.287   2.862   2.811
33459W        W 5185  20.124   7.651  10.767
33460W        W 5186  34.933   1.700   3.326
33461W        W 5187   3.416  41.354   0.945
33462W        W 5188  10.392  31.225  11.561
33463W        W 5189  44.772  21.515  14.381
33464W        W 5190  34.274  35.869  14.593
33465W        W 5191  26.160  37.653   1.606
33466W        W 5192  19.013   6.388   3.936
33467W        W 5193  12.390  33.662   3.198
33468W        W 5194  31.275  11.255  14.582
33469W        W 5195  35.055  29.517  14.805
33470W        W 5196  41.906  32.503   4.386
33471W        W 5197  10.739  44.852   3.685
33472W        W 5198  30.948  14.147   4.888
33473W        W 5199  37.439  29.329  12.914
33474W        W 5200   0.476  40.535   3.373
33475W        W 5201  33.601   0.405   4.451
33476W        W 5202   5.291  38.847  12.482
33477W        W 5203   9.378  20.168   1.421
33478W        W 5204   7.262  36.380  11.306
33479W        W 5205   6.612  41.084  10.584
33480W        W 5206   8.763  21.819   4.395
33481W        W 5207  43.481  44.715   0.829
33482W        W 5208  34.494   0.541   0.338
33483W        W 5209   6.198  15.037   3.770
33484W        W 5210  38.286  25.251   0.078
33485W        W 5211  41.037  11.778  13.526
33486W        W 5212  20.954  14.072  14.235
33487W        W 5213  43.200   4.922  13.086
33488W        W 5214   3.197   9.256  12.233
33489W        W 5215  33.035  42.759  14.945
33490W        W 5216   4.248  32.903  13.663
33491W        W 5217  30.991  10.406  13.131
33492W        W 5218   6.369   6.189  11.187
33493W        W 5219  27.700  23.922   1.160
33494W        W 5220  33.331  29.494  13.114
33495W        W 5221  14.543   9.792  13.874
33496W        W 5222  21.875   2.166   3.136
33497W        W 5223  28.982  36.658  14.868
33498W        W 5224  43.667  29.519   4.547
33499W        W 5225  41.988  33.430   4.046
33500W        W 5226   6.953   0.916   3.184
33501W        W 5227  44.244   6.652  10.837
33502W        W 5228  40.742   4.029   2.338
33503W        W 5229  10.284  34.620   1.793
33504W        W 5230  21.721  33.423  10.673
33505W        W 5231  30.373  25.747  11.257
33506W        W 5232  12.758  35.414   0.435
33507W        W 5233   6.691  29.994   4.696
33508W        W 5234  11.257  15.172   3.128
33509W        W 5235  22.063  26.595   1.398
33510W        W 5236  17.813   2.434  11.059
33511W        W 5237   7.521   4.775  13.982
33512W        W 5238  44.877   9.359  10.580
33513W        W 5239  26.640   0.852  10.891
33514W        W 5240  25.620  37.592  13.421
33515W        W 5241  36.854  43.666   1.871
33516W        W 5242  24.152   2.482   3.311
33517W        W 5243   1.827  18.947  12.061
33518W        W 5244  17.564  11.765   4.156
33519W        W 5245   9.198  23.838  10.595
33520W        W 5246  30.609   1.796  13.834
33521W        W 5247   7.324  10.697   1.377
33522W        W 5248   6.153  19.216  14.009
33523W        W 5249  33.024  44.327  10.893
33524W        W 5250   9.255  30.524   3.288
33525W        W 5251  12.819  42.419   0.211
33526W        W 5252  19.539   6.828  12.877
33527W        W 5253  19.739  12.844  11.605
33528W        W 5254  18.054  44.771  13.441
33529W        W 5255   6.113   5.186   1.435
33530W        W 5256   0.518   5.726  13.072
33531W        W 5257   3.186  44.272  12.506
33532W        W 5258   9.363   1.479  13.796
33533W        W 5259  26.107  16.258  12.618
33534W        W 5260  10.433  42.524   0.019
33535W        W 5261  20.363  15.279   2.505
33536W        W 5262  37.947  19.165   1.455
33537W        W 5263  27.161  40.437   0.071
33538W        W 5264  44.367  24.524  12.517
33539W        W 5265   9.321  33.776   5.054
33540W        W 5266  41.858  44.453  14.829
33541W        W 5267  29.466  33.362   4.220
33542W        W 5268   2.279  44.379  11.520
33543W        W 5269  15.126   4.379  10.514
33544W        W 5270  29.574  42.370   2.600
33545W        W 5271   1.257  20.686   0.002
33546W        W 5272  37.461  13.375   1.876
33547W        W 5273  23.555  15.807   3.224
33548W        W 5274  43.465  13.356  14.447
33549W        W 5275   6.838   8.368  12.850
33550W        W 5276  35.758  16.662  12.351
33551W        W 5277  15.795  37.240   5.718
33552W        W 5278   7.137   0.534  11.712
33553W        W 5279   7.813  23.653  11.263
33554W        W 5280   6.361  23.748   1.941
33555W        W 5281  27.104  26.084  12.607
33556W        W 5282  35.872  16.642  13.513
33557W        W 5283   0.895   1.991   1.867
33558W        W 5284  30.553  37.948  12.066
33559W        W 5285  18.414  10.848   3.668
33560W        W 5286   0.754  37.132   1.394
33561W        W 5287  30.415  36.053  13.991
33562W        W 5288   2.843  37.404   1.746
33563W        W 5289   9.726  26.137   3.416
33564W        W 5290  27.081   8.823  10.552
33565W        W 5291   2.550  28.987  12.639
33566W        W 5292  33.787  32.344  14.403
33567W        W 5293  31.449  43.809   0.422
33568W        W 5294   6.696  24.993   1.515
33569W        W 5295   0.674   2.969   2.271
33570W        W 5296  35.494  11.741  14.306
33571W        W 5297  30.896  16.796  14.572
33572W        W 5298  29.004  40.855  14.386
33573W        W 5299   2.369  27.925  10.665
33574W        W 5300  30.902  11.140  11.999
33575W        W 5301  24.726  20.366  13.319
33576W        W 5302  16.616  40.558  11.693
33577W        W 5303   2.402  21.597   3.401
33578W        W 5304  26.640  24.122  12.807
33579W        W 5305   5.562  17.832  11.657
33580W        W 5306  19.796  34.964  13.362
33581W        W 5307  21.764   1.469   1.402
33582W        W 5308  10.467  29.131  11.533
33583W        W 5309  26.123  19.599   2.039
33584W        W 5310  38.065  39.842  11.233
33585W        W 5311  19.507  25.045  12.587
33586W        W 5312  32.890  25.987  12.069
33587W        W 5313  40.851  27.915  12.254
33588W        W 5314  38.879  24.693   0.678
33589W        W 5315  37.241   4.320  12.563
33590W        W 5316  41.354  24.145   4.566
33591W        W 5317  24.259  41.259  14.289
33592W        W 5318   7.588  31.858   3.238
33593W        W 5319  20.268  13.325  13.586
33594W        W 5320  22.131  30.634  11.623
33595W        W 5321   6.203  30.175   4.676
33596W        W 5322  11.170   7.050  14.592
33597W        W 5323  24.968  35.264  12.109
33598W        W 5324  44.807  17.710  10.761
33599W        W 5325  26.438  18.654  10.768
33600W        W 5326  36.715  40.003   4.464
33601W        W 5327  17.064  19.110   4.619
33602W        W 5328  37.950  38.423   4.197
33603W        W 5329  32.852  28.706   4.829
33604W        W 5330   0.463  44.928   3.308
33605W        W 5331   5.651  19.287  13.420
33606W        W 5332   3.593   5.686   0.429
33607W        W 5333   8.183  27.678   0.828
33608W        W 5334   0.500  29.080   1.145
33609W        W 5335   1.389  10.397   4.603
33610W        W 5336  40.009  37.473   1.181
33611W        W 5337  44.356  31.906   2.725
33612W        W 5338  38.837  24.117  12.769
33613W        W 5339  13.217  37.472   2.806
33614W        W 5340  12.899  41.278  13.368
33615W        W 5341  33.094  15.761  11.079
33616W        W 5342  13.168  31.575  14.935
33617W        W 5343  10.967  21.040   4.845
33618W        W 5344   1.703  25.796   3.257
33619W        W 5345  19.313  12.297  10.469
33620W        W 5346  30.645  29.528   4.316
33621W        W 5347  18.775   5.290   1.904
33622W        W 5348  24.217  44.294   3.703
33623W        W 5349  16.880  15.815  14.902
33624W        W 5350  27.204  24.002   2.399
33625W        W 5351  19.019  40.964  12.127
33626W        W 5352  39.812  20.542  12.432
33627W        W 5353  21.828   1.417   3.629
33628W        W 5354   4.612   8.260  10.512
33629W        W 5355  17.519  30.758  14.000
33630W        W 5356   5.780  15.616  12.819
33631W        W 5357  41.837  37.818   3.240
33632W        W 5358  15.145   1.732   1.455
33633W        W 5359  31.353   7.858   1.165
33634W        W 5360  42.267   3.550  14.633
33635W        W 5361  29.055  42.706   3.479
33636W        W 5362  29.628  36.316   4.614
33637W        W 5363  30.999  23.843   4.965
33638W        W 5364   8.464  24.080  11.088
33639W        W 5365  35.857  11.326  14.304
33640W        W 5366  30.455   5.478  11.330
33641W        W 5367   9.272   9.469  14.404
33642W        W 5368  27.367  14.791   1.331
33643W        W 5369  17.091  26.078   0.357
33644W        W 5370  11.425  21.628  12.579
33645W        W 5371  17.920   6.895  13.073
33646W        W 5372   5.822  42.764  10.653
33647W        W 5373   3.474  36.029  13.354
33648W        W 5374  44.769  17.638  12.846
33649W        W 5375  26.117  24.736  11.597
33650W        W 5376  18.353  32.015  12.908
33651W        W 5377  43.086  21.675   3.714
33652W        W 5378  37.698  35.556   3.079
33653W        W 5379  41.229   5.644  13.022
33654W        W 5380   7.693   5.189  14.863
33655W        W 5381  15.795   2.984  11.530
33656W        W 5382  28.900  17.710   4.634
33657W        W 5383  36.531   8.454  14.418
33658W        W 5384  41.557  39.518  13.798
33659W        W 5385  28.166  29.243  11.062
33660W        W 5386  25.755  31.642   4.665
33661W        W 5387  21.415  23.628  11.914
33662W        W 5388  34.283  41.963   4.652
33663W        W 5389  35.885   9.165  14.784
33664W        W 5390   1.711   2.583  13.321
33665W        W 5391  35.495  26.681   0.526
33666W        W 5392  36.446   6.368   1.580
33667W        W 5393  14.087  42.480  12.609
33668W        W 5394   4.794  16.144  14.884
33669W        W 5395  36.976  16.372  11.069
33670W        W 5396  30.027   8.685  13.009
33671W        W 5397  40.843  10.610   4.538
33672W        W 5398  36.813  23.154   3.861
33673W        W 5399  25.117  18.832  11.101
33674W        W 5400  22.436  29.875  11.428
33675W        W 5401   3.298  34.333   2.804
33676W        W 5402  19.726  38.946   0.866
33677W        W 5403  34.118   4.657   1.206
33678W        W 5404  40.210  35.013  11.938
33679W        W 5405  25.340  14.147  14.015
33680W        W 5406  43.315  35.038  12.098
33681W        W 5407   2.787  31.121   2.945
33682W        W 5408  17.018  31.867  11.649
33683W        W 5409  44.063  16.073   0.332
33684W        W 5410  31.058  35.486  14.048
33685W        W 5411  19.578   9.786  13.132
33686W        W 5412  23.976  13.079  14.423
33687W        W 5413  37.307  26.441  13.356
33688W        W 5414  33.670  26.072  14.448
33689W        W 5415  31.031   7.302   2.629
33690W        W 5416  40.500  43.262   3.804
33691W        W 5417   1.678  14.672   1.441
33692W        W 5418  44.222  15.300   3.319
33693W        W 5419   7.222  39.890  14.980
33694W        W 5420   1.248   7.897   4.164
33695W        W 5421  43.431   7.140  10.557
33696W        W 5422   2.679  13.798   0.940
33697W        W 5423  29.981  26.869   2.217
33698W        W 5424  23.161  25.085   5.112
33699W        W 5425  15.120  26.722  12.334
33700W        W 5426   3.305  42.645   2.904
33701W        W 5427  20.537  22.605  13.311
33702W        W 5428   8.258  41.516   2.929
33703W        W 5429  31.575   0.911  12.009
33704W        W 5430  34.350  22.442  11.598
33705W        W 5431  25.704  17.762   2.756
33706W        W 5432  43.924  20.659   3.910
33707W        W 5433  36.061   9.020  11.486
33708W        W 5434   2.628  21.214  13.960
33709W        W 5435  10.599  20.781  14.042
33710W        W 5436  16.212  40.090   1.780
33711W        W 5437  22.420  37.537   4.191
33712W        W 5438  24.048  14.677   0.770
33713W        W 5439  44.365  23.977  11.669
33714W        W 5440  43.760  16.124   3.867
33715W        W 5441  14.625  36.395  12.786
33716W        W 5442  34.315   3.763  14.361
33717W        W 5443  27.551  12.220  11.074
33718W        W 5444   1.474   6.430  11.693
33719W        W 5445   0.418  21.086   1.820
33720W        W 5446  41.609  21.541  13.050
33721W        W 5447  39.994  11.643  10.656
33722W        W 5448  44.508  10.782  14.084
33723W        W 5449  29.735  17.151  13.846
33724W        W 5450  11.517  28.105   4.956
33725W        W 5451  37.081   2.222   1.709
33726W        W 5452  10.621   2.443  11.736
33727W        W 5453  26.568  44.719   1.326
33728W        W 5454  39.911  43.334  11.517
33729W        W 5455  30.436  10.355   4.488
33730W        W 5456  29.495  41.914   3.343
33731W        W 5457  25.973   6.165   3.403
33732W        W 5458  38.605  39.467  14.975
33733W        W 5459  17.500  19.777  11.154
33734W        W 5460  20.765  14.342  12.812
33735W        W 5461  41.100  44.218   2.218
33736W        W 5462   6.878  34.040  13.919
33737W        W 5463  17.828   2.896   2.440
33738W        W 5464  23.425  44.801  13.856
33739W        W 5465  35.479   2.046  14.177
33740W        W 5466  23.450  35.576   0.816
33741W        W 5467  12.777  27.682  13.727
33742W        W 5468  28.255   5.100  14.856
33743W        W 5469  18.061  12.401   3.730
33744W        W 5470  39.036  24.487   3.771
33745W        W 5471  43.024  14.383  12.238
33746W        W 5472   1.069  22.153   0.277
33747W        W 5473   4.806   2.414  11.456
33748W        W 5474  30.730  40.849  14.809
33749W        W 5475  29.761  27.520  14.678
33750W        W 5476  33.133  27.081   4.124
33751W        W 5477  16.259   5.197   1.925
33752W        W 5478  30.941  41.094   0.481
33753W        W 5479   4.518   3.413  10.056
33754W        W 5480  26.861  24.194   4.201
33755W        W 5481  21.626  42.679  11.890
33756W        W 5482   3.241  19.315  12.773
33757W        W 5483  20.285  33.972  12.476
33758W        W 5484  36.893  14.668  13.974
33759W        W 5485   7.304  37.390   2.450
33760W        W 5486  21.208  36.861  13.980
33761W        W 5487  18.821  29.728   2.845
33762W        W 5488  38.508  29.887   3.678
33763W        W 5489  38.085   9.276  11.431
33764W        W 5490  41.508  15.809   3.616
33765W        W 5491   1.471   3.351   2.305
33766W        W 5492   4.459  44.563   1.810
33767W        W 5493   4.764  29.030   1.059
33768W        W 5494  24.891  12.644  11.510
33769W        W 5495   5.300  24.635  13.378
33770W        W 5496  35.131  14.353  11.135
33771W        W 5497   9.471  43.734   0.736
33772W        W 5498  36.611   8.584   3.295
33773W        W 5499  15.439  16.153  10.921
33774W        W 5500   5.397  42.355   3.610
33775W        W 5501   9.299  11.607   3.790
33776W        W 5502  23.436  37.209   3.958
33777W        W 5503  33.194  36.285  13.813
33778W        W 5504  35.287  28.501  13.358
33779W        W 5505  38.873  18.295   0.510
33780W        W 5506  13.644  37.806   2.669
33781W        W 5507  31.033  17.575   9.988
33782W        W 5508  37.005  13.630   1.229
33783W        W 5509  36.920  28.265   3.696
33784W        W 5510  18.783  32.845  11.780
33785W        W 5511  36.420  18.714   0.522
33786W        W 5512  20.172  22.107  10.676
33787W        W 5513   7.447  27.875   3.547
33788W        W 5514  43.742  24.496   4.046
33789W        W 5515  23.156  32.937   3.397
33790W        W 5516  32.193   2.488   1.372
33791W        W 5517   6.845  19.280  11.551
33792W        W 5518   7.136   4.777  10.362
33793W        W 5519  41.783  35.988   1.318
33794W        W 5520  36.595  25.837   1.079
33795W        W 5521  11.876  28.113   2.180
33796W        W 5522  23.456  13.724   1.980
33797W        W 5523  19.721  13.402  12.769
33798W        W 5524   3.266   0.194  14.244
33799W        W 5525  10.761   6.296   3.650
33800W        W 5526  22.071  22.798  11.738
33801W        W 5527  10.708  23.690   0.519
33802W        W 5528   9.746  39.152   3.118
33803W        W 5529  26.570  28.030   1.729
33804W        W 5530   4.341   7.891  10.257
33805W        W 5531  38.730   0.691  11.432
33806W        W 5532   3.145  15.615  10.117
33807W        W 5533   0.876  12.732  14.545
33808W        W 5534  14.371  40.509   4.120
33809W        W 5535  22.621  14.712   4.541
33810W        W 5536  16.297   1.771  12.699
33811W        W 5537  32.242  17.564  13.446
33812W        W 5538  32.925  23.508   2.920
33813W        W 5539  12.392  29.195  13.124
33814W        W 5540  34.540  20.040  13.431
33815W        W 5541  10.573  32.415  12.186
33816W        W 5542   6.196  15.050  11.351
33817W        W 5543   4.709  24.402   2.141
33818W        W 5544  17.707   0.143   1.864
33819W        W 5545  32.200  36.589   2.764
33820W        W 5546   8.293  25.590  14.499
33821W        W 5547   5.596  23.475   3.787
33822W        W 5548  28.708  41.293  11.498
33823W        W 5549  44.231  25.934   0.885
33824W        W 5550  15.549  20.739  10.019
33825W        W 5551   0.998  11.719  14.363
33826W        W 5552  18.183  15.701   3.673
33827W        W 5553  30.712   2.708   1.712
33828W        W 5554   3.839  34.153   3.518
33829W        W 5555  22.159  15.811   0.915
33830W        W 5556  11.231   6.088   3.647
33831W        W 5557  27.576  21.043   4.777
33832W        W 5558  28.352  13.683  10.527
33833W        W 5559  25.963  13.031  10.786
33834W        W 5560  19.879  24.467   1.354
33835W        W 5561   2.012  43.075  12.000
33836W        W 5562  14.081   5.868   3.745
33837W        W 5563   4.174  25.603  11.560
33838W        W 5564   7.185  15.380   3.713
33839W        W 5565  10.365  22.645   3.762
33840W        W 5566  22.600  21.891  12.412
33841W        W 5567  28.699   7.394   0.842
33842W        W 5568  32.499  36.034  14.260
33843W        W 5569  43.798   7.265  13.067
33844W        W 5570  14.191  32.120  14.442
33845W        W 5571  41.337   2.241   2.168
33846W        W 5572  23.382  16.764   4.073
33847W        W 5573  36.143  17.284  13.695
33848W        W 5574  38.459   5.359   4.381
33849W        W 5575  12.014  33.901   4.581
33850W        W 5576   8.826  26.973  14.461
33851W        W 5577   3.961  30.224   0.910
33852W        W 5578   3.858  29.510  10.819
33853W        W 5579  17.009  26.093  14.047
33854W        W 5580  31.951  16.235  11.460
33855W        W 5581   9.763  12.371   4.689
33856W        W 5582   9.861  17.447   3.729
33857W        W 5583  10.665  20.857   1.955
33858W        W 5584  10.277   5.597   3.675
33859W        W 5585  35.602   7.882  14.877
33860W        W 5586  33.593  13.162   0.547
33861W        W 5587  15.721   8.765   0.848
33862W        W 5588  32.587   4.448   2.427
33863W        W 5589  35.566  22.949   1.458
33864W        W 5590   9.518   0.588  11.127
33865W        W 5591  10.264  38.744  11.649
33866W        W 5592  12.279  12.794  12.199
33867W        W 5593  28.200  40.576  12.964
33868W        W 5594  13.224  10.783   0.703
33869W        W 5595  11.016  15.257  12.552
33870W        W 5596  38.902  27.406   3.561
33871W        W 5597  21.077  25.134   4.913
33872W        W 5598  11.346   4.254   2.395
33873W        W 5599  14.380  35.077  10.637
33874W        W 5600  25.630  21.237  14.185
33875W        W 5601  15.888  14.679  11.488
33876W        W 5602  29.330  22.761  14.001
33877W        W 5603  24.220  20.163   1.294
33878W        W 5604  17.310  16.315  12.984
33879W        W 5605  43.624  26.015  11.074
33880W        W 5606  15.701  44.438  11.170
33881W        W 5607  33.356   9.093  13.753
33882W        W 5608  32.120  19.935  12.479
33883W        W 5609  31.800  21.566  12.179
33884W        W 5610   2.751  28.472   0.445
33885W        W 5611  15.041  11.062   1.827
33886W        W 5612  19.368  41.360  11.618
33887W        W 5613  34.339   3.915   2.183
33888W        W 5614   6.479  17.898  14.923
33889W        W 5615  33.813   9.788   0.612
33890W        W 5616  18.295  11.867  14.298
33891W        W 5617  30.634  21.955  12.678
33892W        W 5618  42.585   2.836  11.925
33893W        W 5619  25.942  28.949   0.954
33894W        W 5620  28.038  37.833   1.241
33895W        W 5621  35.618  12.926   2.236
33896W        W 5622  20.230  24.179  11.663
33897W        W 5623   3.423  14.618  13.076
33898W        W 5624   2.541  15.805   5.068
33899W        W 5625  26.436  19.189  10.635
33900W        W 5626  44.777  29.541  12.461
33901W        W 5627  10.989  11.837  12.001
33902W        W 5628  37.542  19.005  11.151
33903W        W 5629  38.508  40.033   1.324
33904W        W 5630   9.902  35.347  10.709
33905W        W 5631  33.361  23.724   3.152
33906W        W 5632   4.037  33.593   9.818
33907W        W 5633  17.350  43.818  12.552
33908W        W 5634  33.513  36.156   4.436
33909W        W 5635  11.326  36.970  11.405
33910W        W 5636  12.554  13.652   3.222
33911W        W 5637  39.729  38.805  12.156
33912W        W 5638  11.923   0.345   3.454
33913W        W 5639  20.079  17.577  11.204
33914W        W 5640  19.198  18.769  14.722
33915W        W 5641   5.864  23.963  11.644
33916W        W 5642  11.697  32.090  14.932
33917W        W 5643   5.389   9.657  14.416
33918W        W 5644  25.247  37.361   1.146
33919W        W 5645  12.057   2.346  12.113
33920W        W 5646  35.396  36.318  12.491
33921W        W 5647  22.754  28.459   0.054
33922W        W 5648  20.595  14.249  13.838
33923W        W 5649  28.136  15.784  13.939
33924W        W 5650  37.706  19.192   2.284
33925W        W 5651  11.307  21.275   2.144
33926W        W 5652  14.376  22.037  12.634
33927W        W 5653   9.380  33.746   1.681
33928W        W 5654   6.379  27.395   3.694
33929W        W 5655  40.044   3.484   3.822
33930W        W 5656  28.118   4.307   1.969
33931W        W 5657  35.586  11.611   2.726
33932W        W 5658  26.685  32.570  10.447
33933W        W 5659  16.879  29.936  14.321
33934W        W 5660  32.842   6.543   1.919
33935W        W 5661  30.380  26.487   4.160
33936W        W 5662  23.951   9.603   2.749
33937W        W 5663   7.919  18.418   4.119
33938W        W 5664  30.373  40.310  12.949
33939W        W 5665   8.377  29.912  11.535
33940W        W 5666  25.643   4.834   0.219
33941W        W 5667   1.842   8.721  14.012
33942W        W 5668  19.637  30.907  11.810
33943W        W 5669  21.083  25.895   0.558
33944W        W 5670  22.926  35.462   0.730
33945W        W 5671   3.658  37.962  14.983
33946W        W 5672   1.800   2.701  12.354
33947W        W 5673  30.638  15.269   1.799
33948W        W 5674  42.569  36.629  14.471
33949W        W 5675  25.319  26.479  13.174
33950W        W 5676   7.351   8.847  14.330
33951W        W 5677   7.484   0.193   4.118
33952W        W 5678  39.986  36.337  14.604
33953W        W 5679  25.122  22.273   0.819
33954W        W 5680   6.443  39.397   2.730
33955W        W 5681   3.312   3.965  14.720
33956W        W 5682  37.100  33.268  14.954
33957W        W 5683  38.885   0.977  14.310
33958W        W 5684   0.756  17.619   1.343
33959W        W 5685  28.578   1.806   4.818
33960W        W 5686   8.521  11.367   1.833
33961W        W 5687   9.097  20.542   1.157
33962W        W 5688  27.386   7.401   4.547
33963W        W 5689  42.087  15.253  11.621
33964W        W 5690  37.868  34.815  12.197
33965W        W 5691   7.374  11.871   3.906
33966W        W 5692  15.520  39.714   2.168
33967W        W 5693  15.032  20.581  12.899
33968W        W 5694  33.130  26.104   2.214
33969W        W 5695  19.335  35.831  12.423
33970W        W 5696  43.346  23.264  11.290
33971W        W 5697  17.854  14.862  14.323
33972W        W 5698   8.736  24.361   1.163
33973W        W 5699  22.305  19.142  12.420
33974W        W 5700   6.036   8.754   1.726
33975W        W 5701  43.587   0.941  14.540
33976W        W 5702  31.781  27.415  13.230
33977W        W 5703  24.124  44.865  13.375
33978W        W 5704  36.943   8.649   2.767
33979W        W 5705  19.251  33.152  14.766
33980W        W 5706  24.194  16.504   3.628
33981W        W 5707  14.534  44.017   4.867
33982W        W 5708  17.281   6.674  11.488
33983W        W 5709  25.160   3.295   3.754
33984W        W 5710  42.074  13.905  14.253
33985W        W 5711   3.200  36.925   1.339
33986W        W 5712  29.762  35.481  13.345
33987W        W 5713  39.271  27.522   1.693
33988W        W 5714  16.747  13.543  14.530
33989W        W 5715  21.384   4.680   0.133
33990W        W 5716  39.316  23.567   0.894
33991W        W 5717   7.544   6.264  12.903
33992W        W 5718  16.740   5.415   1.953
33993W        W 5719  16.486   3.847  10.755
33994W        W 5720  19.347  28.611  13.536
33995W        W 5721   7.031  27.507   4.211
33996W        W 5722   3.881   6.058   0.647
33997W        W 5723  27.178  32.550  12.531
33998W        W 5724  28.261  43.112   3.343
33999W        W 5725  13.736  31.850   1.975
34000W        W 5726   6.593  10.654   0.191
34001W        W 5727  20.222  22.628   5.308
34002W        W 5728  19.695  19.796   1.600
34003W        W 5729  40.881  12.768  13.381
34004W        W 5730   2.218  19.677   3.803
34005W        W 5731  37.532  34.036  12.676
34006W        W 5732   9.188  21.631  11.887
34007W        W 5733  17.271  43.783  12.040
34008W        W 5734  17.098   1.813   1.302
34009W        W 5735   0.404  24.238   3.096
34010W        W 5736   7.249   3.874   3.893
34011W        W 5737  15.800  43.443   1.249
34012W        W 5738  21.308  19.044  14.474
34013W        W 5739  23.503  21.232  13.001
34014W        W 5740  14.399   4.374   3.711
34015W        W 5741  20.113  28.746   4.608
34016W        W 5742  27.980  28.019   1.431
34017W        W 5743  21.701  30.203   3.763
34018W        W 5744  15.689   0.032  13.390
34019W        W 5745  22.019  18.511   4.595
34020W        W 5746  19.208  44.730  10.758
34021W        W 5747  38.823  36.707   4.179
34022W        W 5748  28.744   6.874   3.910
34023W        W 5749   5.780  34.928  13.349
34024W        W 5750  27.724   6.205  12.707
34025W        W 5751  15.236  15.517   2.332
34026W        W 5752  32.390   3.181  10.290
34027W        W 5753  36.487  41.767   0.089
34028W        W 5754   1.480  36.049   3.303
34029W        W 5755  11.121  27.306  14.085
34030W        W 5756  14.627  36.524  10.992
34031W        W 5757   4.702  34.424   2.763
34032W        W 5758  20.035  14.804   4.869
34033W        W 5759  29.469  18.727  12.810
34034W        W 5760  44.503   0.990   0.844
34035W        W 5761  22.856  37.157  13.827
34036W        W 5762  33.031  18.597   1.029
34037W        W 5763  26.808  32.600  11.313
34038W        W 5764  40.015   5.745   0.969
34039W        W 5765  24.578   3.199   2.116
34040W        W 5766  39.842   9.903  13.583
34041W        W 5767  13.879  20.950   2.241
34042W        W 5768  22.482  21.175  13.007
34043W        W 5769   5.955  41.996  14.485
34044W        W 5770  38.460   5.022   2.409
34045W        W 5771   5.270  43.065   1.384
34046W        W 5772   6.147  43.454  13.859
34047W        W 5773  40.423   9.264   4.592
34048W        W 5774   4.881  27.265  13.127
34049W        W 5775  23.654  35.850  14.270
34050W        W 5776  15.403  30.444   4.750
34051W        W 5777  15.601  22.028   1.358
34052W        W 5778  37.328  17.145  12.988
34053W        W 5779  16.069  41.412  11.192
34054W        W 5780  12.093   2.932  11.184
34055W        W 5781  31.547   5.747  12.331
34056W        W 5782  24.753   1.976   4.728
34057W        W 5783  43.266  16.028   3.480
34058W        W 5784  20.985  25.738  12.001
34059W        W 5785  31.895  36.327  14.918
34060W        W 5786   6.445   8.733  12.052
34061W        W 5787  19.077   7.264   1.133
34062W        W 5788  16.717  38.627   5.131
34063W        W 5789  15.272  11.833   4.135
34064W        W 5790  13.676  33.593   3.335
34065W        W 5791   9.369  16.729  10.651
34066W        W 5792   3.709  11.191   0.416
34067W        W 5793  32.406  15.621   3.339
34068W        W 5794  32.805   6.715  14.956
34069W        W 5795  44.731   5.383  11.590
34070W        W 5796  38.417  16.328   4.580
34071W        W 5797   4.432  15.644   4.616
34072W        W 5798  11.297  44.315  10.589
34073W        W 5799  22.625   4.191  14.999
34074W        W 5800  23.436  10.169  11.650
34075W        W 5801  19.517  22.813  12.091
34076W        W 5802  29.509  24.486   1.901
34077W        W 5803  29.697  42.031   3.801
34078W        W 5804  41.593  42.504  14.972
34079W        W 5805  25.647  34.185   1.310
34080W        W 5806  42.378  19.670  12.796
34081W        W 5807  15.442   7.585  11.647
34082W        W 5808  32.865  13.604  10.759
34083W        W 5809   9.853  34.264   1.787
34084W        W 5810  15.558   4.807   4.222
34085W        W 5811  28.351  29.674   0.284
34086W        W 5812  19.213  12.626  14.273
34087W        W 5813  29.944  11.306  11.843
34088W        W 5814   7.215  27.040   4.120
34089W        W 5815  18.717  16.222  13.780
34090W        W 5816  44.781  24.965  10.995
34091W        W 5817  18.580  42.108  12.235
34092W        W 5818  36.873  42.999  10.886
34093W        W 5819   0.076   5.801   0.569
34094W        W 5820  18.201  36.597  12.981
34095W        W 5821   8.332  38.558  11.140
34096W        W 5822  21.563  32.437   1.448
34097W        W 5823  25.521  36.032   4.599
34098W        W 5824  40.350  26.086  14.468
34099W        W 5825  31.282  33.352   4.504
34100W        W 5826  20.329  38.370  13.431
34101W        W 5827  16.019  18.740  12.228
34102W        W 5828  11.779   2.533   0.339
34103W        W 5829  26.930   3.750  11.702
34104W        W 5830  26.518   6.159   4.996
34105W        W 5831  26.470  13.775   2.783
34106W        W 5832   2.009  33.481   3.593
34107W        W 5833  34.074  31.131   1.244
34108W        W 5834  28.372   8.691   4.831
34109W        W 5835   9.356  13.641   4.625
34110W        W 5836  10.765  33.136  13.908
34111W        W 5837   0.110  26.989  14.570
34112W        W 5838  42.857  15.799  11.611
34113W        W 5839  26.020  28.897   4.064
34114W        W 5840  19.110  39.751  13.552
34115W        W 5841  16.140   2.069  10.811
34116W        W 5842  39.002  17.720   5.110
34117W        W 5843   4.849  27.233   0.934
34118W        W 5844   4.058  39.978  10.584
34119W        W 5845  10.093  40.655  10.881
34120W        W 5846  23.405  10.889   0.503
34121W        W 5847  40.812  25.732   0.799
34122W        W 5848  23.631  25.270   5.026
34123W        W 5849  34.952  32.886   3.247
34124W        W 5850  26.678  32.740  12.547
34125W        W 5851  40.791  37.054  10.504
34126W        W 5852  18.352  22.823  14.942
34127W        W 5853  43.075  17.148  12.516
34128W        W 5854  39.818  21.120  11.990
34129W        W 5855   2.904  39.253  12.826
34130W        W 5856  28.535  20.575   2.841
34131W        W 5857  15.772  41.764   3.882
34132W        W 5858  38.312  36.841  12.968
34133W        W 5859  11.352  12.608   2.440
34134W        W 5860   4.562   7.993   3.560
34135W        W 5861  38.796   1.936  14.801
34136W        W 5862  41.070  18.751  12.464
34137W        W 5863  17.257  26.094   3.387
34138W        W 5864   6.655   4.504  10.970
34139W        W 5865  40.323   5.889  12.045
34140W        W 5866  19.695  23.281  12.961
34141W        W 5867  19.756  26.919  13.001
34142W        W 5868  13.960  19.056  13.506
34143W        W 5869  25.252  38.939  14.561
34144W        W 5870   9.932  13.355   3.920
34145W        W 5871  36.573   7.392   1.522
34146W        W 5872  38.318  43.889  13.473
34147W        W 5873  14.639  42.510  13.461
34148W        W 5874  20.148   5.753  13.437
34149W        W 5875  14.406  25.498   2.746
34150W        W 5876  17.813  30.624  12.378
34151W        W 5877  28.597  21.729  12.107
34152W        W 5878  31.495  25.419   1.799
34153W        W 5879  30.003  42.891  11.626
34154W        W 5880  28.207  19.509   4.564
34155W        W 5881  37.535  30.542   0.885
34156W        W 5882  43.827  40.717   0.926
34157W        W 5883  29.350   0.024  12.111
34158W        W 5884   8.776  17.087   4.551
34159W        W 5885   4.747  15.885  11.067
34160W        W 5886  42.908  44.417   2.781
34161W        W 5887  10.748  11.303  13.142
34162W        W 5888  43.279   8.821   3.547
34163W        W 5889  32.663  13.015   4.888
34164W        W 5890   5.217   7.023  11.535
34165W        W 5891   6.492  41.071  14.769
34166W        W 5892  13.096   8.163   0.415
34167W        W 5893   8.462  39.647   3.563
34168W        W 5894  17.242   5.162   4.199
34169W        W 5895  37.662  12.119  14.875
34170W        W 5896  18.264  39.440  14.027
34171W        W 5897  36.922  42.759  14.740
34172W        W 5898  41.944   4.237  13.211
34173W        W 5899  32.681   1.814   1.752
34174W        W 5900  40.390  43.153   5.002
34175W        W 5901  30.533   5.422   0.719
34176W        W 5902  32.617  21.615  13.465
34177W        W 5903  26.645   4.461  14.728
34178W        W 5904  31.049  31.337   0.952
34179W        W 5905  14.271   8.901   2.823
34180W        W 5906  35.594  22.016   3.233
34181W        W 5907   6.495  24.749  14.378
34182W        W 5908  34.167  42.470  11.982
34183W        W 5909   3.499   4.014   0.812
34184W        W 5910  28.506  15.317  14.996
34185W        W 5911  14.567  23.704  12.280
34186W        W 5912   9.198  25.593   5.616
34187W        W 5913   4.194  20.455   4.446
34188W        W 5914  37.894   4.954   0.733
34189W        W 5915  15.307  27.115  10.904
34190W        W 5916  23.455  27.988  13.681
34191W        W 5917  10.420   1.818   3.652
34192W        W 5918  42.560  33.511  11.555
34193W        W 5919  38.266  21.793  11.077
34194W        W 5920  42.779   0.114  12.099
34195W        W 5921  39.882  35.093  11.544
34196W        W 5922   5.030  21.104  10.119
34197W        W 5923  37.974  27.113   0.538
34198W        W 5924  23.488  21.586   4.260
34199W        W 5925   7.428  13.345  12.051
34200W        W 5926   5.437  11.730   2.282
34201W        W 5927  26.072  13.623   4.580
34202W        W 5928  20.137  32.758   2.880
34203W        W 5929  30.032   4.860  10.622
34204W        W 5930  17.901  10.316  11.982
34205W        W 5931   1.487  29.015  10.793
34206W        W 5932  41.573  31.058  11.935
34207W        W 5933  18.811  36.643   1.238
34208W        W 5934   5.941  19.057   0.312
34209W        W 5935   5.260  40.915  14.427
34210W        W 5936  20.083   4.897   3.735
34211W        W 5937  42.245  39.576  12.694
34212W        W 5938  24.326   3.398   4.059
34213W        W 5939  38.267   4.393  11.119
34214W        W 5940   2.445   7.030   0.811
34215W        W 5941  38.648  37.298   3.238
34216W        W 5942  36.081   9.122  12.530
34217W        W 5943  15.706  41.796   1.228
34218W        W 5944  27.030  36.296   0.408
34219W        W 5945  20.711  42.472  12.978
34220W        W 5946  22.089  23.143   4.833
34221W        W 5947  40.873  41.398   4.115
34222W        W 5948   6.018  26.684  14.322
34223W        W 5949  40.303  21.226   1.804
34224W        W 5950  15.584  23.090   1.319
34225W        W 5951  35.869  38.562   4.939
34226W        W 5952  14.481  28.617   1.229
34227W        W 5953  14.293   0.831  13.920
34228W        W 5954  26.955  21.042  12.427
34229W        W 5955   1.261  26.268   4.987
34230W        W 5956  44.504  16.678   0.802
34231W        W 5957  22.463  42.865   2.771
34232W        W 5958  19.322  11.184  14.595
34233W        W 5959  15.371  43.489  12.909
34234W        W 5960  43.525   6.822   2.153
34235W        W 5961  40.778  29.591   2.643
34236W        W 5962  16.374   4.362   0.469
34237W        W 5963  37.560  33.004  12.265
34238W        W 5964   9.117   1.125  10.304
34239W        W 5965  11.742   9.984  11.923
34240W        W 5966  12.202  12.161   4.136
34241W        W 5967  30.615  37.435  11.991
34242W        W 5968   6.157  31.833  10.846
34243W        W 5969  40.519  34.393   3.715
34244W        W 5970  31.686  19.708  12.645
34245W        W 5971   0.366  27.658   3.932
34246W        W 5972  38.882  38.265  10.705
34247W        W 5973   5.245   7.312  14.246
34248W        W 5974  31.123  30.728   3.716
34249W        W 5975  32.636  21.753   0.256
34250W        W 5976  35.626   3.760   3.095
34251W        W 5977  31.047  19.802  11.601
34252W        W 5978   0.990  43.107   3.714
34253W        W 5979  31.303  25.417  10.636
34254W        W 5980  36.014  10.370   1.905
34255W        W 5981  20.053  41.097  13.995
34256W        W 5982  18.879  27.096  13.769
34257W        W 5983   6.074   4.066  10.671
34258W        W 5984  35.798  12.570   2.636
34259W        W 5985  39.976  41.440  14.301
34260W        W 5986  22.740   8.741   2.226
34261W        W 5987  40.301  17.952   4.055
34262W        W 5988  34.963  34.372  14.428
34263W        W 5989  24.030  30.492  11.947
34264W        W 5990  17.695  33.694   3.156
34265W        W 5991  15.363  44.445   2.457
34266W        W 5992   9.071  24.665  12.358
34267W        W 5993   5.959  28.082  10.647
34268W        W 5994   0.962  31.944  13.956
34269W        W 5995  10.956  31.073  12.379
34270W        W 5996   0.750  15.773   3.931
34271W        W 5997  28.669  32.173  11.992
34272W        W 5998  19.046   6.744   0.942
34273W        W 5999  11.326  11.852   4.038
34274W        W 6000  11.171  22.071   1.252
34275W        W 6001  11.623  18.732  14.065
34276W        W 6002  42.500  19.534  13.302
34277W        W 6003   7.779   3.518   2.202
34278W        W 6004  40.016  24.757  13.953
34279W        W 6005  28.510  11.707   3.078
34280W        W 6006  25.023  15.346   4.592
34281W        W 6007  19.624  40.504  10.659
34282W        W 6008  28.996  44.946  14.920
34283W        W 6009   8.340  32.304   3.778
34284W        W 6010  37.549  28.169  12.411
34285W        W 6011   6.806  26.280   2.695
34286W        W 6012  18.872   1.678  12.649
34287W        W 6013  27.991  35.564  12.856
34288W        W 6014  44.732   4.255  12.506
34289W        W 6015   8.270   2.517  13.977
34290W        W 6016  22.247   1.556   1.166
34291W        W 6017  35.002  14.249  12.069
34292W        W 6018  16.745  13.373   2.769
34293W        W 6019  23.182  30.591   3.518
34294W        W 6020   1.828  22.271   0.715
34295W        W 6021   7.428  18.599  14.233
34296W        W 6022  17.268  13.075  13.002
34297W        W 6023  20.614  17.139   2.435
34298W        W 6024  22.595  15.795  10.403
34299W        W 6025  44.512  17.269   0.024
34300W        W 6026  17.722  41.531   3.921
34301W        W 6027  14.890  25.925   1.614
34302W        W 6028   3.070  32.162   4.610
34303W        W 6029  32.098  27.949  11.549
34304W        W 6030   8.652  39.162  11.586
34305W        W 6031  15.381  44.867   1.891
34306W        W 6032  28.679  21.695   3.758
34307W        W 6033  35.049  33.733  12.074
34308W        W 6034   3.752  13.745  11.352
34309W        W 6035  27.386  40.756  11.998
34310W        W 6036  31.803  41.969  12.773
34311W        W 6037  17.070  15.564   5.035
34312W        W 6038  11.461  26.410   2.873
34313W        W 6039  27.688  17.706  13.053
34314W        W 6040  33.140  24.712   3.205
34315W        W 6041  38.373  41.691   3.202
34316W        W 6042   0.358  39.441   3.620
34317W        W 6043  30.356  33.632  11.552
34318W        W 6044  33.294   0.014   3.672
34319W        W 6045  43.199  33.716   3.253
34320W        W 6046  41.998  29.087  12.814
34321W        W 6047  37.152  25.788   2.256
34322W        W 6048  16.516  17.837   2.400
34323W        W 6049  34.278  22.992   3.592
34324W        W 6050  31.566  25.031  11.559
34325W        W 6051  38.120  21.280   2.444
34326W        W 6052  10.852   7.902   2.196
34327W        W 6053  37.533   9.630  12.593
34328W        W 6054  29.050   3.516   1.620
34329W        W 6055  19.869   7.621  13.617
34330W        W 6056  32.490  23.069   4.641
34331W        W 6057  35.818  26.267   1.367
34332W        W 6058   0.467   3.364   3.256
34333W        W 6059  37.565  39.039   3.656
34334W        W 6060  21.660  21.741  11.940
34335W        W 6061   6.396  11.869   0.487
34336W        W 6062  23.956   1.145   4.318
34337W        W 6063  32.868  17.335  12.991
34338W        W 6064   4.386   7.500  13.049
34339W        W 6065   4.393   3.045   0.592
34340W        W 6066  22.040  38.573   4.904
34341W        W 6067  44.901   8.763   2.416
34342W        W 6068  32.962  37.956   1.683
34343W        W 6069  42.053   4.244  14.549
34344W        W 6070   5.075  30.596  14.963
34345W        W 6071   1.349  28.025  11.642
34346W        W 6072   8.148  43.359   1.909
34347W        W 6073  11.884  18.464  14.426
34348W        W 6074  35.486  16.237  12.490
34349W        W 6075  38.327   9.723  11.549
34350W        W 6076  11.878  10.423  13.461
34351W        W 6077  40.453  30.298  12.070
34352W        W 6078  10.213  26.021   0.774
34353W        W 6079  19.804   3.389  12.512
34354W        W 6080  29.295   1.493  12.851
34355W        W 6081  16.498  33.561  11.173
34356W        W 6082  16.280  22.497   2.540
34357W        W 6083  30.029  14.487  12.010
34358W        W 6084  25.436  41.823  10.710
34359W        W 6085   0.733   5.421   2.860
34360W        W 6086  10.150  16.239  14.759
34361W        W 6087  38.500   2.966   3.315
34362W        W 6088   2.767  29.659   0.082
34363W        W 6089  22.214  35.412  12.088
34364W        W 6090  22.318   3.008  11.747
34365W        W 6091   6.404   7.200  13.120
34366W        W 6092  28.544  21.853   0.338
34367W        W 6093  18.090  19.052   1.842
34368W        W 6094  43.033  25.616   0.217
34369W        W 6095  18.687   7.861   0.308
34370W        W 6096  43.464  31.764  10.797
34371W        W 6097  29.280  22.966   1.367
34372W        W 6098  30.678   6.830   3.905
34373W        W 6099  29.785  36.004   1.822
34374W        W 6100  33.398  16.832  13.439
34375W        W 6101  36.170  21.670  13.064
34376W        W 6102  10.794  40.766   3.353
34377W        W 6103  13.806  31.048  11.540
34378W        W 6104  37.152  19.372  14.799
34379W        W 6105  16.507  34.388  11.124
34380W        W 6106  21.687   4.489  10.478
34381W        W 6107  41.644  36.517  14.060
34382W        W 6108  42.344   9.937   1.148
34383W        W 6109  24.216  24.987  14.962
34384W        W 6110  15.359  36.366  13.444
34385W        W 6111   9.522  24.806  10.686
34386W        W 6112  11.323  29.772  11.595
34387W        W 6113   4.829  32.825   1.306
34388W        W 6114  13.334  30.155  11.688
34389W        W 6115  35.902  41.385   2.829
34390W        W 6116  22.911  14.016  12.960
34391W        W 6117  10.424  38.067  10.854
34392W        W 6118  29.285  21.109  13.027
34393W        W 6119  34.298  39.996   0.862
34394W        W 6120  23.534   3.851  12.726
34395W        W 6121  15.380  14.596  11.523
34396W        W 6122  15.084   4.696  11.451
34397W        W 6123   7.416  15.315   2.397
34398W        W 6124  17.796  19.068  10.609
34399W        W 6125  25.939  25.044   1.386
34400W        W 6126  41.730  39.902  10.157
34401W        W 6127  42.268  16.621  11.527
34402W        W 6128  40.089  21.294   1.331
34403W        W 6129  15.708  32.674  13.874
34404W        W 6130   9.955   4.231  13.786
34405W        W 6131  24.137  37.837   0.297
34406W        W 6132  44.642  42.011  13.242
34407W        W 6133  20.054  22.070   0.655
34408W        W 6134  43.694  27.513   2.780
34409W        W 6135  23.508  30.108  14.485
34410W        W 6136  23.164  37.174   3.135
34411W        W 6137  35.529   5.278  12.535
34412W        W 6138  20.128  23.290  11.238
34413W        W 6139  34.109   7.799  14.401
34414W        W 6140   0.288  18.612  13.505
34415W        W 6141  17.808  33.156   3.070
34416W        W 6142  37.284  44.435   1.358
34417W        W 6143  38.535   4.137  14.310
34418W        W 6144  18.765   4.742   4.076
34419W        W 6145  27.634  37.004   3.229
34420W        W 6146  36.280  28.977   3.764
34421W        W 6147   9.842  34.356   2.708
34422W        W 6148  39.355   3.201  14.710
34423W        W 6149  21.720  30.903  10.630
34424W        W 6150  27.850  18.810  14.882
34425W        W 6151  33.867  25.390  11.080
34426W        W 6152  15.242   7.818  13.143
34427W        W 6153  39.989  38.797  11.262
34428W        W 6154  23.651  42.316  12.421
34429W        W 6155  42.865  40.318  12.921
34430W        W 6156   7.119  16.594   2.221
34431W        W 6157  33.087  32.348   0.918
34432W        W 6158  22.282   2.898  14.812
34433W        W 6159   8.254  21.999  11.445
34434W        W 6160  28.530  43.556  13.960
34435W        W 6161  37.944  28.831  11.101
34436W        W 6162  23.175  22.014  13.451
34437W        W 6163   6.230   7.651   1.220
34438W        W 6164  30.172  16.319  12.091
34439W        W 6165  15.825  36.877   1.149
34440W        W 6166   4.498  42.104  14.660
34441W        W 6167  21.802  26.985  12.706
34442W        W 6168  19.266   9.204  12.618
34443W        W 6169  25.675  16.148  11.065
34444W        W 6170  34.378  35.358   3.756
34445W        W 6171  26.015  22.029   2.115
34446W        W 6172  24.578   8.378  14.878
34447W        W 6173  44.310  15.412   0.367
34448W        W 6174  22.603  19.774   1.816
34449W        W 6175  16.950  28.581  13.976
34450W        W 6176   4.209  42.324  14.278
34451W        W 6177  31.631  15.861  10.410
34452W        W 6178  16.229   4.827  14.255
34453W        W 6179  10.850   6.236   0.786
34454W        W 6180  33.440  30.243   1.384
34455W        W 6181  25.980  39.656  11.783
34456W        W 6182  39.875   8.384   3.086
34457W        W 6183  30.676  14.413  11.456
34458W        W 6184  43.799  20.274   2.773
34459W        W 6185  41.427   0.477  13.053
34460W        W 6186  22.623  31.206   4.099
34461W        W 6187  37.528  19.752  13.250
34462W        W 6188  37.616  29.110  13.357
34463W        W 6189  16.700  44.403  11.673
34464W        W 6190  35.398  26.921  11.926
34465W        W 6191  20.612  36.091  13.784
34466W        W 6192  31.001  40.776  13.063
34467W        W 6193  32.903   5.900   0.113
34468W        W 6194  34.494   9.438  12.588
34469W        W 6195  44.429  28.513   0.186
34470W        W 6196  38.012   8.208   1.634
34471W        W 6197  37.519  28.658   0.369
34472W        W 6198   6.420  32.043   2.624
34473W        W 6199  27.925  26.481  14.435
34474W        W 6200  13.893  40.733  14.264
34475W        W 6201  44.591   9.507  13.470
34476W        W 6202   2.552  21.631   0.370
34477W        W 6203  31.633   4.313  13.062
34478W        W 6204  36.483  29.546  14.225
34479W        W 6205   9.919  35.847  10.870
34480W        W 6206   2.686   8.736  12.464
34481W        W 6207   3.346  26.687   3.683
34482W        W 6208  20.461   2.781  12.305
34483W        W 6209  37.582  39.384   1.280
34484W        W 6210  16.663  42.251  14.783
34485W        W 6211   5.269  44.789  13.485
34486W        W 6212  32.124  40.362   0.871
34487W        W 6213  36.755  42.642   4.161
34488W        W 6214  19.189  17.807  12.044
34489W        W 6215  27.776   4.745  11.162
34490W        W 6216   0.449  21.957  13.864
34491W        W 6217  16.064  26.532  12.864
34492W        W 6218  18.909  42.552   2.815
34493W        W 6219  26.526  17.991  12.411
34494W        W 6220  18.338  22.756   4.965
34495W        W 6221  37.574  19.677  14.721
34496W        W 6222   1.118  23.904  12.229
34497W        W 6223   4.669  18.794   1.917
34498W        W 6224  12.357  14.134  10.811
34499W        W 6225  34.865  19.121   1.983
34500W        W 6226   1.191   8.655   2.888
34501W        W 6227  28.717  31.520  13.061
34502W        W 6228  21.293  37.571  14.378
34503W        W 6229  42.651  29.389  14.391
34504W        W 6230  16.167  44.503   2.186
34505W        W 6231  10.921  37.477   1.762
34506W        W 6232  28.101  16.494  10.784
34507W        W 6233   0.784  24.270   4.366
34508W        W 6234   2.214   1.811   4.589
34509W        W 6235  10.083  24.953   4.621
34510W        W 6236   9.859  30.685   4.788
34511W        W 6237  41.525   4.432  11.926
34512W        W 6238  35.009  26.161   3.683
34513W        W 6239  31.123  16.099  10.409
34514W        W 6240   9.906  39.412   4.902
34515W        W 6241  33.511  44.947  11.052
34516W        W 6242   9.709  18.053  14.368
34517W        W 6243  14.125  39.609   0.554
34518W        W 6244  44.422  18.072   1.420
34519W        W 6245  32.656  18.349  10.590
34520W        W 6246  44.446  36.559   2.695
34521W        W 6247  41.492  18.937   2.698
34522W        W 6248   1.949  29.595  13.891
34523W        W 6249  31.545  31.460   3.153
34524W        W 6250  28.157  12.172   1.606
34525W        W 6251  18.559  41.156  12.074
34526W        W 6252  37.041   2.343  11.148
34527W        W 6253   4.748  15.407  10.840
34528W        W 6254   4.833  15.831   0.290
34529W        W 6255  28.199  28.000  12.506
34530W        W 6256  35.596  13.733  12.512
34531W        W 6257  27.765  40.653   4.284
34532W        W 6258   8.464  24.397   2.816
34533W        W 6259  24.538  15.686  14.935
34534W        W 6260   0.716  28.473   3.632
34535W        W 6261  13.738   5.294   4.746
34536W        W 6262   1.569  44.571  10.222
34537W        W 6263  10.087   9.836  14.725
34538W        W 6264  21.152  15.762  10.904
34539W        W 6265  16.164  22.207   4.634
34540W        W 6266  17.674  19.299   2.911
34541W        W 6267  29.190   6.195   2.719
34542W        W 6268  12.451  15.326  11.212
34543W        W 6269  22.932  38.686   3.065
34544W        W 6270   1.677  36.489   2.203
34545W        W 6271  39.319  34.514  13.400
34546W        W 6272  28.311   9.351  13.074
34547W        W 6273   3.319  22.722   0.889
34548W        W 6274  27.229  18.291   3.219
34549W        W 6275  32.163  23.140  13.046
34550W        W 6276   4.788  33.623   1.706
34551W        W 6277  27.784   8.381  11.048
34552W        W 6278   5.012   6.797  14.773
34553W        W 6279  21.574  35.438  10.757
34554W        W 6280  13.370  40.763   1.607
34555W        W 6281  23.031   1.189  10.738
34556W        W 6282  44.037  35.401   4.076
34557W        W 6283   0.055  12.690   1.489
34558W        W 6284  24.148   4.768   4.538
34559W        W 6285  41.952   4.800   1.790
34560W        W 6286  29.511  41.876   1.702
34561W        W 6287  40.446  33.140  14.267
34562W        W 6288   6.716   0.326   4.625
34563W        W 6289  39.588  39.609   4.320
34564W        W 6290  13.768   4.166  14.981
34565W        W 6291  35.300  17.189   2.192
34566W        W 6292  13.201  15.396  11.575
34567W        W 6293  23.986  13.232   4.242
34568W        W 6294  42.870   0.592  14.506
34569W        W 6295   9.422   4.346  12.974
34570W        W 6296   4.242  17.669   0.294
34571W        W 6297  38.635  44.972  14.043
34572W        W 6298  34.488   5.822   4.495
34573W        W 6299  35.437  31.145   2.708
34574W        W 6300  18.807  13.353   2.325
34575W        W 6301  33.293   6.216   1.176
34576W        W 6302   7.740  12.652  11.145
34577W        W 6303  40.874   7.644  10.445
34578W        W 6304  17.819  43.367  11.429
34579W        W 6305  29.955   6.998   1.885
34580W        W 6306  19.248  30.026   2.731
34581W        W 6307  26.755  18.428   4.048
34582W        W 6308  42.086   4.734  13.443
34583W        W 6309  32.101  43.832   0.259
34584W        W 6310  30.074  16.999   0.992
34585W        W 6311  30.531  33.608  10.574
34586W        W 6312  18.871  19.671   1.145
34587W        W 6313   4.871  20.487  13.824
34588W        W 6314  13.800  21.659  14.041
34589W        W 6315  11.101   6.388  13.596
34590W        W 6316  20.093  28.176   0.362
34591W        W 6317   4.870  25.811  14.088
34592W        W 6318  23.988   2.806  12.062
34593W        W 6319   2.839  29.716   3.875
34594W        W 6320  17.041  38.062  14.111
34595W        W 6321  38.122  18.317   3.846
34596W        W 6322  41.436  10.128   2.334
34597W        W 6323  35.529  19.545  13.738
34598W        W 6324  31.334  43.012   0.381
34599W        W 6325   9.199  20.069   3.254
34600W        W 6326   0.973  35.330  11.479
34601W        W 6327  12.137  20.056  15.000
34602W        W 6328  16.774   1.182   0.937
34603W        W 6329  42.822  14.558   4.171
34604W        W 6330  24.679   0.920   3.574
34605W        W 6331   4.258   5.874  13.520
34606W        W 6332   8.118  12.831   0.192
34607W        W 6333  14.466   2.574   2.801
34608W        W 6334  28.505  34.406   1.289
34609W        W 6335   8.363  16.674  12.478
34610W        W 6336  17.110   0.267   0.761
34611W        W 6337   3.824  29.093   9.937
34612W        W 6338  29.190  28.868   2.780
34613W        W 6339  38.584  16.269  12.546
34614W        W 6340  42.915  41.802   0.867
34615W        W 6341   0.399  23.150   3.665
34616W        W 6342  40.704  18.487  11.999
34617W        W 6343  32.312  12.748   4.127
34618W        W 6344  20.198  28.904  14.715
34619W        W 6345  17.649  33.088   1.747
34620W        W 6346  10.837  41.824  12.112
34621W        W 6347   0.426  15.442  12.894
34622W        W 6348  15.692  29.076   3.576
34623W        W 6349  36.073   5.399  11.031
34624W        W 6350   7.672   2.366   0.426
34625W        W 6351  38.334  42.530  13.765
34626W        W 6352  14.022  13.890  12.921
34627W        W 6353  29.437  20.474  12.491
34628W        W 6354   5.832  29.522   2.617
34629W        W 6355  29.672  17.847   4.012
34630W        W 6356  24.689  39.490   2.398
34631W        W 6357   4.521   6.227  12.457
34632W        W 6358  25.449  17.758  11.634
34633W        W 6359  30.246  44.215   5.073
34634W        W 6360   0.447  30.681  12.081
34635W        W 6361   0.688   9.145   1.742
34636W        W 6362  23.581  29.170   3.204
34637W        W 6363  22.428  18.255   3.340
34638W        W 6364  25.049   7.848   3.610
34639W        W 6365  40.442  35.512  11.639
34640W        W 6366  16.281  23.132  12.645
34641W        W 6367  23.607  44.836   4.063
34642W        W 6368  43.747   2.954   0.307
34643W        W 6369  39.833  38.365   3.750
34644W        W 6370  28.313  40.188   3.740
34645W        W 6371  31.068  22.612  13.586
34646W        W 6372  25.109  39.317   0.908
34647W        W 6373  39.076  33.607  11.866
34648W        W 6374  41.831  40.325   0.251
34649W        W 6375   2.995   2.348  10.942
34650W        W 6376  13.849  17.580   2.868
34651W        W 6377  26.762  35.126  12.809
34652W        W 6378  43.042  19.277  11.056
34653W        W 6379  22.261  37.053   4.857
34654W        W 6380  40.598  25.545  11.908
34655W        W 6381   6.818  29.050   3.997
34656W        W 6382  14.208  35.827   2.263
34657W        W 6383  36.069  22.613  11.249
34658W        W 6384  31.408   5.301  14.020
34659W        W 6385  41.945  25.054   0.813
34660W        W 6386  23.254  31.470   3.353
34661W        W 6387  39.636  30.208   2.117
34662W        W 6388  31.502  12.133   3.819
34663W        W 6389  24.930  26.574   3.204
34664W        W 6390  23.612  37.432   2.974
34665W        W 6391  32.386  41.513   0.360
34666W        W 6392  35.399   4.405  14.861
34667W        W 6393  39.719  33.972  11.117
34668W        W 6394  21.327   6.802   1.042
34669W        W 6395  33.170  17.979   4.304
34670W        W 6396  44.235  34.947   4.221
34671W        W 6397  39.475  17.847   0.474
34672W        W 6398  18.172  21.183   0.715
34673W        W 6399  44.018  41.452  11.704
34674W        W 6400  35.606  36.766   3.674
34675W        W 6401  35.998  22.184  11.610
34676W        W 6402  12.323   0.096  11.595
34677W        W 6403   7.320  27.402   3.741
34678W        W 6404  28.189   8.883  12.505
34679W        W 6405   2.471  33.383   0.190
34680W        W 6406  33.093  24.181  14.855
34681W        W 6407  13.352   2.897   1.203
34682W        W 6408   8.252  38.383   3.307
34683W        W 6409  28.819  21.866   3.290
34684W        W 6410  10.547  30.648   4.680
34685W        W 6411  11.920  33.017  12.083
34686W        W 6412  43.282  33.673  11.061
34687W        W 6413  39.037  16.342   1.709
34688W        W 6414  29.583  41.220  11.051
34689W        W 6415  39.233  32.136  14.402
34690W        W 6416  37.365  31.490  13.548
34691W        W 6417  23.722  24.996  12.387
34692W        W 6418  15.819  42.940   0.693
34693W        W 6419  26.268  17.208   3.509
34694W        W 6420  32.930  28.382   2.358
34695W        W 6421   9.997  40.523  11.525
34696W        W 6422  26.094  19.524   2.552
34697W        W 6423  24.139  28.179  14.320
34698W        W 6424  11.907  31.411  14.497
34699W        W 6425  25.434  40.759  10.791
34700W        W 6426  26.523   9.186   4.727
34701W        W 6427  32.933  35.336   4.334
34702W        W 6428  19.251   8.148  12.400
34703W        W 6429   0.959   4.816  11.637
34704W        W 6430  15.058  33.064   0.007
34705W        W 6431  22.446  29.042   1.204
34706W        W 6432  18.832  32.216   1.423
34707W        W 6433  36.825  38.359   3.615
34708W        W 6434  34.627  43.844  13.857
34709W        W 6435  14.267  20.054   1.914
34710W        W 6436  41.528  21.055  10.377
34711W        W 6437  17.196   5.253   4.720
34712W        W 6438  38.961  20.802  14.611
34713W        W 6439  33.587  10.423   2.817
34714W        W 6440  41.564  32.696   0.535
34715W        W 6441  22.630  42.534  10.322
34716W        W 6442  35.973  40.364  10.702
34717W        W 6443  19.545  26.614   0.087
34718W        W 6444   4.860   6.222   2.866
34719W        W 6445  44.839   3.808   1.340
34720W        W 6446  34.003   7.480   2.334
34721W        W 6447  27.031   3.783   4.775
34722W        W 6448   7.460  40.298   0.714
34723W        W 6449   0.525   9.260  13.561
34724W        W 6450  25.385   0.583   0.953
34725W        W 6451  42.096   8.757  13.081
34726W        W 6452  30.532  41.382   4.578
34727W        W 6453   1.633   3.048  13.519
34728W        W 6454  23.549  20.485  13.577
34729W        W 6455   8.324  38.003  10.639
34730W        W 6456  32.393  11.970   3.288
34731W        W 6457  36.375  41.382  13.452
34732W        W 6458  31.402  28.473  13.970
34733W        W 6459  13.064  20.500   1.852
34734W        W 6460  14.311  18.806   1.503
34735W        W 6461  26.211  43.838  12.901
34736W        W 6462   3.254  27.915   0.524
34737W        W 6463  14.087  26.575   4.667
34738W        W 6464   9.151  12.354   1.759
34739W        W 6465  41.485  26.267  13.533
34740W        W 6466  25.160  37.796   3.369
34741W        W 6467   4.043  34.488  14.979
34742W        W 6468  23.509   9.319  13.482
34743W        W 6469   1.184  35.432  11.934
34744W        W 6470  44.729  33.561  13.435
34745W        W 6471  38.560  31.170   2.480
34746W        W 6472  15.736  10.883  12.066
34747W        W 6473  44.761  40.306  14.460
34748W        W 6474  16.054  41.546  12.150
34749W        W 6475  28.663  33.143   4.113
34750W        W 6476  38.293   2.214   4.236
34751W        W 6477   2.397  26.961  12.953
34752W        W 6478   2.472  36.944  12.134
34753W        W 6479   9.928  37.338   1.968
34754W        W 6480   3.935  13.793  10.058
34755W        W 6481  25.515  21.550  12.562
34756W        W 6482   6.881  42.556   3.237
34757W        W 6483  28.211  25.735  10.905
34758W        W 6484   4.695  38.325  14.002
34759W        W 6485   1.891  44.447   4.116
34760W        W 6486  44.570  23.706  12.133
34761W        W 6487   1.227  17.151  13.620
34762W        W 6488   2.732   3.204  10.190
34763W        W 6489  11.480  43.345   4.107
34764W        W 6490  13.750  37.491   4.958
34765W        W 6491  16.862  22.712   4.155
34766W        W 6492  20.634  29.876   0.421
34767W        W 6493  31.870  44.170   0.624
34768W        W 6494  19.880  26.482   4.573
34769W        W 6495  40.667  18.107  11.602
34770W        W 6496  36.393  24.784  12.098
34771W        W 6497  39.586  31.990   2.587
34772W        W 6498  20.087  40.567  13.965
34773W        W 6499  12.404  28.494   4.031
34774W        W 6500   0.777  13.364  13.230
34775W        W 6501   3.193  19.431   2.243
34776W        W 6502   3.068   4.233  12.851
34777W        W 6503  18.552  16.823   3.193
34778W        W 6504  19.592   7.815  14.049
34779W        W 6505  39.398  36.371  13.618
34780W        W 6506  10.355  32.147   2.487
34781W        W 6507  22.033  10.267  14.487
34782W        W 6508  19.084  20.711  11.954
34783W        W 6509  28.993   6.309   1.373
34784W        W 6510  25.629   4.507  14.798
34785W        W 6511  14.295  44.910   0.597
34786W        W 6512   7.976  39.297  12.969
34787W        W 6513  14.655  21.365  10.326
34788W        W 6514  13.665  23.098  11.405
34789W        W 6515   4.709  10.966  11.468
34790W        W 6516   4.538   8.511   3.509
34791W        W 6517  31.044   7.620   3.097
34792W        W 6518  40.526  42.063   1.918
34793W        W 6519  37.265  37.662  13.003
34794W        W 6520  20.590  11.603   3.714
34795W        W 6521  10.822   1.521   2.572
34796W        W 6522  25.598  31.217  14.357
34797W        W 6523   5.038  36.136  13.605
34798W        W 6524   2.747   9.912  11.576
34799W        W 6525  32.494  15.237  13.329
34800W        W 6526   8.731  19.115  12.924
34801W        W 6527  19.185   0.895  12.109
34802W        W 6528   6.423  27.998  11.646
34803W        W 6529  32.416   1.344  13.635
34804W        W 6530  10.375  20.672   0.274
34805W        W 6531   2.562  41.962  11.474
34806W        W 6532   5.834  32.379   4.081
34807W        W 6533   9.786  44.037  12.933
34808W        W 6534  13.153  32.494   1.011
34809W        W 6535  38.971  18.357  13.150
34810W        W 6536  41.464  11.514  13.524
34811W        W 6537  23.466  23.564  13.882
34812W        W 6538  23.734   0.592   1.852
34813W        W 6539  28.663   1.239   1.484
34814W        W 6540  29.403   6.422  13.763
34815W        W 6541  17.699  24.340  11.166
34816W        W 6542  33.298  11.550   4.001
34817W        W 6543  10.313   5.160   0.381
34818W        W 6544  31.482   1.802   2.272
34819W        W 6545  38.325  29.946  11.672
34820W        W 6546  10.151   4.552   4.139
34821W        W 6547  22.369  38.027  12.003
34822W        W 6548  33.962  25.012   0.708
34823W        W 6549  10.764   1.925  13.096
34824W        W 6550  42.532  39.926   0.874
34825W        W 6551  43.984  21.951   0.415
34826W        W 6552  22.599  17.017  10.663
34827W        W 6553  10.866  22.513   1.128
34828W        W 6554  12.597  16.730   4.609
34829W        W 6555   1.227  27.247  10.505
34830W        W 6556  33.030  42.251   3.025
34831W        W 6557  33.699   8.814   0.340
34832W        W 6558  30.409  14.093   2.621
34833W        W 6559  30.250  26.705  12.537
34834W        W 6560  15.250  35.706   3.088
34835W        W 6561   7.756  13.621   1.914
34836W        W 6562  40.037  29.391  10.580
34837W        W 6563  24.208  12.174   4.291
34838W        W 6564  23.423  33.626  12.529
34839W        W 6565  41.498  41.270   3.768
34840W        W 6566  19.273  18.975  10.676
34841W        W 6567  41.901  30.087   2.822
34842W        W 6568  13.374  13.230  12.913
34843W        W 6569  11.874  20.646  10.370
34844W        W 6570  13.349  37.293   3.276
34845W        W 6571  24.003  41.384  10.695
34846W        W 6572  34.884  32.165   1.965
34847W        W 6573  36.979   0.901   3.139
34848W        W 6574  24.398  43.735   2.685
34849W        W 6575  26.710   5.489  11.588
34850W        W 6576  11.877  31.061   2.973
34851W        W 6577  26.485   6.843   3.678
34852W        W 6578  30.511  42.749   2.801
34853W        W 6579  43.288  19.564  12.937
34854W        W 6580  40.636   9.314   3.308
34855W        W 6581  41.973  12.396  11.575
34856W        W 6582  12.400   4.371  12.996
34857W        W 6583   8.411  13.582  14.758
34858W        W 6584  39.101  11.653  10.620
34859W        W 6585   9.172  23.259   0.326
34860W        W 6586  23.110  38.397   1.289
34861W        W 6587   0.732  25.397  14.282
34862W        W 6588  38.085  30.624   2.665
34863W        W 6589  38.012  25.776  11.558
34864W        W 6590   2.849  43.081  12.519
34865W        W 6591  15.498  21.325   1.790
34866W        W 6592  26.527  44.462   1.781
34867W        W 6593  14.866   4.899   0.025
34868W        W 6594   1.914  34.962   2.662
34869W        W 6595   8.092   2.990  11.623
34870W        W 6596  41.495  37.381   4.551
34871W        W 6597  24.921  23.784   4.102
34872W        W 6598  16.515  44.839  11.924
34873W        W 6599  34.050  23.207  11.984
34874W        W 6600  31.985  34.644  12.237
34875W        W 6601   2.112  14.398   4.342
34876W        W 6602  37.428  29.991  12.397
34877W        W 6603  24.111   9.448   1.032
34878W        W 6604  17.781   6.011   3.234
34879W        W 6605  25.440  31.651   0.294
34880W        W 6606  29.479  27.730  13.554
34881W        W 6607  26.701  25.602  11.511
34882W        W 6608  41.015  44.228   0.821
34883W        W 6609   4.688  33.482   4.729
34884W        W 6610   1.361  41.491  11.119
34885W        W 6611  44.422  38.544   4.575
34886W        W 6612  11.588   5.955  11.757
34887W        W 6613  41.615   8.332   0.947
34888W        W 6614  35.441  17.499  11.109
34889W        W 6615  15.762  39.854   0.445
34890W        W 6616  15.915  33.655   0.454
34891W        W 6617  24.619  34.096   2.732
34892W        W 6618  17.987   5.931   4.076
34893W        W 6619  33.432  20.202   3.408
34894W        W 6620  44.504   3.410  13.983
34895W        W 6621  42.264  18.324   3.728
34896W        W 6622  13.795  28.236   4.036
34897W        W 6623   8.069  13.549  14.380
34898W        W 6624  14.747   9.354  11.481
34899W        W 6625  13.812  11.183  13.512
34900W        W 6626   6.912  39.495   3.628
34901W        W 6627   9.272  23.968   4.142
34902W        W 6628  18.277  38.700  10.187
34903W        W 6629  28.391  12.697  12.054
34904W        W 6630  25.021  14.234  13.274
34905W        W 6631   3.925  13.288   0.744
34906W        W 6632  29.065  21.252   0.042
34907W        W 6633  38.638   1.194  13.449
34908W        W 6634   6.562  14.613   3.060
34909W        W 6635  13.427  13.627   1.906
34910W        W 6636  14.774  28.111   2.582
34911W        W 6637  24.263   1.790   3.585
34912W        W 6638   0.996  42.156   1.450
34913W        W 6639   2.731  18.095  10.445
34914W        W 6640  30.131  21.788   2.168
34915W        W 6641   1.319   0.762  13.430
34916W        W 6642  43.375  28.236  14.508
34917W        W 6643  26.902  39.992   2.709
34918W        W 6644   5.468   2.894  10.860
34919W        W 6645  31.199  37.379   4.673
34920W        W 6646  19.138   6.751  14.192
34921W        W 6647   5.902  25.082   3.273
34922W        W 6648  33.807  36.384  12.454
34923W        W 6649  25.369  24.590   1.880
34924W        W 6650  19.483  25.273   0.442
34925W        W 6651  13.271  41.938   4.149
34926W        W 6652  36.884  37.836   1.281
34927W        W 6653  31.172   8.858  11.451
34928W        W 6654  32.376  10.237   3.861
34929W        W 6655   0.505  26.270   4.537
34930W        W 6656  19.188  32.614  12.014
34931W        W 6657  31.125  14.254   2.926
34932W        W 6658  44.404  28.589   4.248
34933W        W 6659  40.098  23.927   4.081
34934W        W 6660  35.630  38.452  10.757
34935W        W 6661  12.896  12.432  13.882
34936W        W 6662  25.935  36.624  14.413
34937W        W 6663  34.086  33.535   2.119
34938W        W 6664   3.979   8.682   2.952
34939W        W 6665   7.814   9.068  11.159
34940W        W 6666  38.042  24.133   4.118
34941W        W 6667  34.921  18.875  12.036
34942W        W 6668   2.040   9.683   0.402
34943W        W 6669  39.843  40.888  11.902
34944W        W 6670  18.008  22.859  13.887
34945W        W 6671  18.519  13.623   0.850
34946W        W 6672   1.155  37.238  12.122
34947W        W 6673  39.076  20.455  14.979
34948W        W 6674  20.908  27.743  14.901
34949W        W 6675  27.872   3.811   0.654
34950W        W 6676  27.183  24.510   3.301
34951W        W 6677  40.326  36.206   4.054
34952W        W 6678  38.312  13.664   2.197
34953W        W 6679   3.857  33.169   3.399
34954W        W 6680  28.732  36.293   4.627
34955W        W 6681   8.038  29.962   1.702
34956W        W 6682   9.707  29.017  14.850
34957W        W 6683  12.630  30.645  14.374
34958W        W 6684  24.226  20.600  14.016
34959W        W 6685   6.831  41.088   1.471
34960W        W 6686   8.756  38.054  13.348
34961W        W 6687   0.667  24.344   2.657
34962W        W 6688  19.801  31.594   2.626
34963W        W 6689  26.140  18.623   0.910
34964W        W 6690   5.845  21.499   4.653
34965W        W 6691  20.620   1.889  14.329
34966W        W 6692   2.458   1.851  10.683
34967W        W 6693  36.674  18.341   0.242
34968W        W 6694  36.817  30.169   3.358
34969W        W 6695   4.293   9.365  13.510
34970W        W 6696   9.193  10.163   4.609
34971W        W 6697  17.832  25.537   4.809
34972W        W 6698  22.573  40.724   2.918
34973W        W 6699  26.130  14.456   5.067
34974W        W 6700  18.696  41.354   3.280
34975W        W 6701  31.913  28.462  10.763
34976W        W 6702  35.311  22.668  13.746
34977W        W 6703  22.696   6.742   1.384
34978W        W 6704  37.829  43.848  11.105
34979W        W 6705  24.666  41.476  12.628
34980W        W 6706  24.948  15.214   3.234
34981W        W 6707  28.581  14.204  11.850
34982W        W 6708  42.246   9.296   0.042
34983W        W 6709   6.676  38.004   4.702
34984W        W 6710  18.966  19.743  11.975
34985W        W 6711  29.005   1.891  11.553
34986W        W 6712   2.678   3.051  12.609
34987W        W 6713  27.528  15.298   0.724
34988W        W 6714  27.534  10.404  12.257
34989W        W 6715  10.735  44.489  13.964
34990W        W 6716  22.011  41.394  13.049
34991W        W 6717   9.604   8.233  12.998
34992W        W 6718   9.284  34.029  10.691
34993W        W 6719   1.235  29.588  13.473
34994W        W 6720  43.302  36.257  14.821
34995W        W 6721  42.863  11.854   3.612
34996W        W 6722  21.726  16.844  11.684
34997W        W 6723  13.041  37.539  14.030
34998W        W 6724  32.236  27.568  14.573
34999W        W 6725  25.199  14.700  14.095
35000W        W 6726  38.769  31.205  12.516
35001W        W 6727  40.228  13.721  10.610
35002W        W 6728  30.975  28.307   1.524
35003W        W 6729  42.846  31.837   5.007
35004W        W 6730  44.372   2.353  10.559
35005W        W 6731  25.009   5.638  14.349
35006W        W 6732   8.640  30.561   1.992
35007W        W 6733  33.120  25.712  13.888
35008W        W 6734   1.867   0.981   4.749
35009W        W 6735  16.839  20.933   3.271
35010W        W 6736  20.720  28.477  14.131
35011W        W 6737  41.521   1.271  13.974
35012W        W 6738  25.230  21.016  12.369
35013W        W 6739  35.415  44.864   3.648
35014W        W 6740  43.798  39.088  12.480
35015W        W 6741  11.085  24.546   2.711
35016W        W 6742  30.167  10.675   4.043
35017W        W 6743  36.957  35.949  14.497
35018W        W 6744  21.170  32.199   4.228
35019W        W 6745  40.970  13.225   0.497
35020W        W 6746  16.358  42.209   1.894
35021W        W 6747  32.902  26.534  14.474
35022W        W 6748  37.302   3.951   4.162
35023W        W 6749   9.187   2.836  14.198
35024W        W 6750  36.933  39.360   1.949
35025W        W 6751  20.718   3.892  13.400
35026W        W 6752  18.501   2.088  12.972
35027W        W 6753  12.332  38.478  12.888
35028W        W 6754  18.128  14.848  12.515
35029W        W 6755  25.140  41.044  11.138
35030W        W 6756  43.680   0.994  11.432
35031W        W 6757  16.199  42.082  13.027
35032W        W 6758  36.296   0.878  11.639
35033W        W 6759  36.868  22.677  10.793
35034W        W 6760  28.806   7.147   1.743
35035W        W 6761  21.338   5.215  11.821
35036W        W 6762  20.608  20.659   0.095
35037W        W 6763  34.841  36.081  13.370
35038W        W 6764  26.249  13.673   2.315
35039W        W 6765  26.201  21.497  12.022
35040W        W 6766  31.234  18.315   2.464
35041W        W 6767   0.519  28.589   0.990
35042W        W 6768   9.640   0.550  14.409
35043W        W 6769  23.581  27.167  12.006
35044W        W 6770  40.500  16.031  13.930
35045W        W 6771  43.552   8.866   4.568
35046W        W 6772   6.730  28.173   3.999
35047W        W 6773  30.500  32.997   0.473
35048W        W 6774  31.216  19.530  14.154
35049W        W 6775  15.677  34.926   0.430
35050W        W 6776  39.029  44.229  11.956
35051W        W 6777  15.533  10.206  10.783
35052W        W 6778   1.805  44.742  14.275
35053W        W 6779  10.392  15.341  11.534
35054W        W 6780  24.060   2.791  13.520
35055W        W 6781  43.524  27.580   1.854
35056W        W 6782  24.850  21.341   1.155
35057W        W 6783  35.027  26.618  13.122
35058W        W 6784  36.625   9.072  11.232
35059W        W 6785  34.073  19.190  10.696
35060W        W 6786  44.474  22.886  10.677
35061W        W 6787  21.805  40.564   3.736
35062W        W 6788   4.749   2.360   4.010
35063W        W 6789  13.377  12.939  13.366
35064W        W 6790  34.423  36.608   3.284
35065W        W 6791  26.683  27.721   1.316
35066W        W 6792  38.916   1.558   0.854
35067W        W 6793  44.996  41.941   4.178
35068W        W 6794  42.391   2.030  11.724
35069W        W 6795  16.137  11.125   2.812
35070W        W 6796  15.878  39.859   4.540
35071W        W 6797  26.077  29.544  10.795
35072W        W 6798  13.529   2.407   0.972
35073W        W 6799  22.020  21.019  10.282
35074W        W 6800   1.237   3.902  10.455
35075W        W 6801  10.690  10.641   3.901
35076W        W 6802   3.207   8.312  13.241
35077W        W 6803  36.490  43.601  11.845
35078W        W 6804  10.397  16.804   4.101
35079W        W 6805  27.165  31.393  14.641
35080W        W 6806  40.514  30.264  14.740
35081W        W 6807  44.689  13.624   0.402
35082W        W 6808  14.180  43.960  12.522
35083W        W 6809  12.795  21.284   0.868
35084W        W 6810  44.739  12.074   3.714
35085W        W 6811  36.871  12.203  11.671
35086W        W 6812  39.031  30.707  11.591
35087W        W 6813  30.926   8.389  11.386
35088W        W 6814  28.620  36.877   0.874
35089W        W 6815  16.661  33.829   1.205
35090W        W 6816   9.415  15.397   2.628
35091W        W 6817  43.769  41.211   0.776
35092W        W 6818  15.133  17.805   3.742
35093W        W 6819  41.020  24.051  13.366
35094W        W 6820  22.606  42.873  14.326
35095W        W 6821   3.135  35.555   2.791
35096W        W 6822   2.831  35.809   2.129
35097W        W 6823  40.411   7.700   2.351
35098W        W 6824  35.903   2.813  11.959
35099W        W 6825   1.242  38.873  14.776
35100W        W 6826  32.124  23.231   2.367
35101W        W 6827  18.377  27.060  13.848
35102W        W 6828  15.096   6.285  10.720
35103W        W 6829   1.572  14.222   4.368
35104W        W 6830  17.064   5.675   2.308
35105W        W 6831   8.468  18.817   2.136
35106W        W 6832  30.429  14.073   4.093
35107W        W 6833  21.680  18.181   0.851
35108W        W 6834  26.653  30.983   0.737
35109W        W 6835  18.127  23.624   0.847
35110W        W 6836  18.749  31.483   3.958
35111W        W 6837  25.563   7.023  13.001
35112W        W 6838  37.052  20.282  11.162
35113W        W 6839  32.860  11.314   0.586
35114W        W 6840  30.596  27.357  14.836
35115W        W 6841  11.240  41.761   1.494
35116W        W 6842   9.662  42.994   3.571
35117W        W 6843  36.421  12.870   3.368
35118W        W 6844  14.677  35.920  12.992
35119W        W 6845   0.790  31.500  14.943
35120W        W 6846  27.013   9.923  12.106
35121W        W 6847   5.322  41.972  11.711
35122W        W 6848  22.026  38.323  10.617
35123W        W 6849  16.734  37.236   1.175
35124W        W 6850  10.147  27.734   4.212
35125W        W 6851   6.894  36.133  11.014
35126W        W 6852   0.824  23.298  11.162
35127W        W 6853   1.357   9.416  14.042
35128W        W 6854   7.729   4.439  12.734
35129W        W 6855  25.707   2.913  11.370
35130W        W 6856  15.689  29.475  13.292
35131W        W 6857   7.197  39.915   0.484
35132W        W 6858   7.625  34.369   3.800
35133W        W 6859  17.098  31.487  10.133
35134W        W 6860  19.725   1.447   3.725
35135W        W 6861  18.571  38.911  14.951
35136W        W 6862   2.482   6.474   1.623
35137W        W 6863  29.158   6.009  13.982
35138W        W 6864  13.611   9.315   2.292
35139W        W 6865  28.198  16.807  13.489
35140W        W 6866  15.579  23.607   3.336
35141W        W 6867  34.155  37.265   3.648
35142W        W 6868  44.462  25.994   0.359
35143W        W 6869  32.527  15.604  12.363
35144W        W 6870   4.426  43.045  14.178
35145W        W 6871  10.347  38.378  11.239
35146W        W 6872   4.277  33.664  10.315
35147W        W 6873  44.942  44.729  14.368
35148W        W 6874   8.683  43.776  11.556
35149W        W 6875  22.411   8.865  11.354
35150W        W 6876  17.139  21.528   4.090
35151W        W 6877  27.000  37.445  13.545
35152W        W 6878  16.861  33.944  14.928
35153W        W 6879  30.080  19.597   3.491
35154W        W 6880  17.048   0.835  11.203
35155W        W 6881  24.722  36.421  11.385
35156W        W 6882  15.686   4.486  14.305
35157W        W 6883  37.398   6.649   0.775
35158W        W 6884  43.242  11.744   0.286
35159W        W 6885  20.481  16.728   4.132
35160W        W 6886  10.211  17.330   4.862
35161W        W 6887  14.206  11.180  10.622
35162W        W 6888  29.596  34.407  14.961
35163W        W 6889  43.758  44.509   3.264
35164W        W 6890  21.062  18.257   3.337
35165W        W 6891  34.610  41.611  14.995
35166W        W 6892  11.240  31.063   3.762
35167W        W 6893  19.374  16.614   1.269
35168W        W 6894  21.223  20.729   0.772
35169W        W 6895   3.368   5.916  14.087
35170W        W 6896  14.050  42.748  14.759
35171W        W 6897  32.392  32.370  12.855
35172W        W 6898   7.131  17.145   1.841
35173W        W 6899  21.533  42.973   3.163
35174W        W 6900  19.034  36.362  13.883
35175W        W 6901  42.020   9.815   1.791
35176W        W 6902  25.438  34.027  14.216
35177W        W 6903  38.315  17.859   3.170
35178W        W 6904  24.052  16.562  11.796
35179W        W 6905  44.469  23.727   0.681
35180W        W 6906   1.006  21.785  11.449
35181W        W 6907   4.737  26.991   0.314
35182W        W 6908  28.907  23.969   2.755
35183W        W 6909  37.810   6.299   2.666
35184W        W 6910  41.060  10.817   4.074
35185W        W 6911  14.436   5.904   2.793
35186W        W 6912  39.200  41.852  14.871
35187W        W 6913  16.691  16.289   2.880
35188W        W 6914  10.167  38.945   4.682
35189W        W 6915  23.064   2.154   4.109
35190W        W 6916  37.453  33.169   5.086
35191W        W 6917  44.442  21.534  11.683
35192W        W 6918  29.307  40.868   0.979
35193W        W 6919  13.137  25.049   1.440
35194W        W 6920  14.649  35.351   1.778
35195W        W 6921  33.858  21.092   5.021
35196W        W 6922  40.295  16.671  11.534
35197W        W 6923  16.314  16.913   4.022
35198W        W 6924  26.509  18.820   5.002
35199W        W 6925   3.456  36.847   0.786
35200W        W 6926  15.727   9.846   0.277
35201W        W 6927   7.645   4.388   4.822
35202W        W 6928   6.913   9.599   1.870
35203W        W 6929  18.565  11.242  12.962
35204W        W 6930  28.717  40.406   3.993
35205W        W 6931   0.689  12.114   0.962
35206W        W 6932  18.776  27.406   2.379
35207W        W 6933  13.360   2.417   3.759
35208W        W 6934  19.170  39.505   3.986
35209W        W 6935  16.303  30.039   1.170
35210W        W 6936  28.776   9.841  12.342
35211W        W 6937  24.232  21.505  13.995
35212W        W 6938  18.040  18.674  12.216
35213W        W 6939  44.845  20.193  10.807
35214W        W 6940   6.955  11.672   1.249
35215W        W 6941  42.144  43.086  13.805
35216W        W 6942  12.838  26.149  13.882
35217W        W 6943   7.717  10.345   4.601
35218W        W 6944  18.708   3.417   2.322
35219W        W 6945  29.908   0.643  12.828
35220W        W 6946   4.934  15.561  12.505
35221W        W 6947  42.495  27.482   0.495
35222W        W 6948  22.748  27.043  12.879
35223W        W 6949  41.170  13.197  11.146
35224W        W 6950   8.281   9.273  14.047
35225W        W 6951  23.788  29.881   1.873
35226W        W 6952  33.105   7.313   2.436
35227W        W 6953  41.284   6.556  12.934
35228W        W 6954  12.215  10.160  11.997
35229W        W 6955  29.995  22.984  12.009
35230W        W 6956  18.843  12.612  13.850
35231W        W 6957  44.141  22.146   2.284
35232W        W 6958  32.555  27.726   2.697
35233W        W 6959  44.762  23.997   1.491
35234W        W 6960  32.964   7.824   2.213
35235W        W 6961  12.138  35.435  13.794
35236W        W 6962  42.407  10.851   1.208
35237W        W 6963  22.135   3.221  12.455
35238W        W 6964  21.471   6.467   0.653
35239W        W 6965  34.993  23.769   0.730
35240W        W 6966  27.849  23.432  12.916
35241W        W 6967  16.596  19.335   4.642
35242W        W 6968  10.182   7.174   0.431
35243W        W 6969   8.309  26.509   1.801
35244W        W 6970  14.129  20.903   2.723
35245W        W 6971  39.451   9.326   2.261
35246W        W 6972  41.161  38.788  12.833
35247W        W 6973   4.504  18.148   0.847
35248W        W 6974  41.956  43.508  13.454
35249W        W 6975  20.989   0.976   3.495
35250W        W 6976   9.733  34.920  12.005
35251W        W 6977  28.979  21.540   0.795
35252W        W 6978   9.785  39.384  13.396
35253W        W 6979  18.503  39.954  12.431
35254W        W 6980  14.710  44.701  14.898
35255W        W 6981  44.098  28.109   4.716
35256W        W 6982   2.651  14.625   3.645
35257W        W 6983  44.518  18.613   0.837
35258W        W 6984  21.161  13.270   3.320
35259W        W 6985   8.820  19.483  10.592
35260W        W 6986  27.132  11.947  11.236
35261W        W 6987  43.881  36.336   3.367
35262W        W 6988  26.310  28.483   0.288
35263W        W 6989  19.547  10.435   1.645
35264W        W 6990  11.477  35.301  13.992
35265W        W 6991  43.739   9.871   0.239
35266W        W 6992   3.440  29.847  14.408
35267W        W 6993  23.962  40.295  12.460
35268W        W 6994  23.590  22.969  13.452
35269W        W 6995  23.425   6.342   2.407
35270W        W 6996  10.616   2.208   1.316
35271W        W 6997   5.139  34.345   4.007
35272W        W 6998  26.996  18.448   0.869
35273W        W 6999   2.029  20.247   2.522
35274W        W 7000  19.555  10.147   1.218
35275W        W 7001  18.277  26.351   0.925
35276W        W 7002  44.282   2.833  10.755
35277W        W 7003  10.930  37.978   1.914
35278W        W 7004  13.334  42.301  12.969
35279W        W 7005  42.242  33.505  12.524
35280W        W 7006  35.683  12.411   2.113
35281W        W 7007   1.898  19.317  14.243
35282W        W 7008  28.010   6.021  11.109
35283W        W 7009  24.105  22.710  11.578
35284W        W 7010  18.339  31.446  12.624
35285W        W 7011  42.981  37.322   2.447
35286W        W 7012  29.720  15.347   0.357
35287W        W 7013  11.258  11.270  12.999
35288W        W 7014   9.238   3.107   3.231
35289W        W 7015  40.251  30.355   3.593
35290W        W 7016  18.178  21.029   3.123
35291W        W 7017  29.168   3.643   0.286
35292W        W 7018  35.001   5.309  10.793
35293W        W 7019   6.976  10.282   0.931
35294W        W 7020  37.912   4.360   2.662
35295W        W 7021  39.536   2.792  11.621
35296W        W 7022   3.334  37.923   5.142
35297W        W 7023  35.547   3.163  11.732
35298W        W 7024  39.299  41.108  12.465
35299W        W 7025  23.617  15.114   1.855
35300W        W 7026  28.039   2.755  13.340
35301W        W 7027  30.631  21.703  10.715
35302W        W 7028  11.676  39.212   3.808
35303W        W 7029   0.796  35.880  12.467
35304W        W 7030  15.204  38.640  10.655
35305W        W 7031  18.741  42.676  10.401
35306W        W 7032  44.736  11.099  14.489
35307W        W 7033  26.905  42.312  11.404
35308W        W 7034   4.584  14.435   2.107
35309W        W 7035  36.608  15.212   1.161
35310W        W 7036  41.597  19.225   2.276
35311W        W 7037  33.369  16.771   2.939
35312W        W 7038  20.540   1.825   3.248
35313W        W 7039   2.315  38.771  10.633
35314W        W 7040  33.113  18.284   0.339
35315W        W 7041  20.269  33.380   0.329
35316W        W 7042  34.838  12.261   4.654
35317W        W 7043   2.724  38.114  13.349
35318W        W 7044   9.258  23.369  10.837
35319W        W 7045  12.453  39.476  12.927
35320W        W 7046   2.908  28.470   1.302
35321W        W 7047  37.371  13.124   2.358
35322W        W 7048   8.585  41.542  12.304
35323W        W 7049   8.134   9.573   4.137
35324W        W 7050   7.334  39.754  12.224
35325W        W 7051  11.844  33.634   1.876
35326W        W 7052  33.068   5.981   4.238
35327W        W 7053  17.345  10.968  14.398
35328W        W 7054   3.451  38.754  11.502
35329W        W 7055  19.282  27.463   1.346
35330W        W 7056  11.888   2.747  11.737
35331W        W 7057  20.582  29.567   1.796
35332W        W 7058  12.827  19.722  11.665
35333W        W 7059  21.230  21.100  13.428
35334W        W 7060  21.126  42.037  13.514
35335W        W 7061  11.346  29.406  10.646
35336W        W 7062  29.929   0.845   0.123
35337W        W 7063  23.272  13.692   4.354
35338W        W 7064  31.581   6.194   4.644
35339W        W 7065   8.926  10.812  12.210
35340W        W 7066  21.477  44.562  12.315
35341W        W 7067  23.043   7.693   4.946
35342W        W 7068   7.967  22.749   2.226
35343W        W 7069  44.378  30.943  11.753
35344W        W 7070  14.157  22.004   0.379
35345W        W 7071  24.660   1.962   2.593
35346W        W 7072  14.065  25.543   2.361
35347W        W 7073  27.882  38.032  12.591
35348W        W 7074  15.178  18.282   0.434
35349W        W 7075  32.935  36.884   0.281
35350W        W 7076  13.855   1.933   3.239
35351W        W 7077  34.452  43.593   0.320
35352W        W 7078  22.979  26.674  14.811
35353W        W 7079  15.254   0.720   2.928
35354W        W 7080  19.741  23.465  10.960
35355W        W 7081  27.540  32.375  13.913
35356W        W 7082   6.891  18.260  12.056
35357W        W 7083   8.231  39.343  14.272
35358W        W 7084   9.675  10.939   0.957
35359W        W 7085  42.790  42.993  14.499
35360W        W 7086  19.027  17.561   4.179
35361W        W 7087  29.263  13.242   0.776
35362W        W 7088  24.053  40.772   0.438
35363W        W 7089  36.840  35.784   3.296
35364W        W 7090  26.492  19.505   2.890
35365W        W 7091  43.327  42.263   4.675
35366W        W 7092  10.600  28.937   0.962
35367W        W 7093   9.282  11.686  10.051
35368W        W 7094  17.388  26.198   1.148
35369W        W 7095  39.040   9.293   3.303
35370W        W 7096  14.388  40.879  12.033
35371W        W 7097   6.863  14.880   1.153
35372W        W 7098  37.891   4.355   2.144
35373W        W 7099  37.858  31.746  12.494
35374W        W 7100  39.874  23.609  10.902
35375W        W 7101   2.582  44.364   1.632
35376W        W 7102  35.933  32.100   3.412
35377W        W 7103  22.772  23.250  12.481
35378W        W 7104  33.302  15.546  11.878
35379W        W 7105   0.219  21.781   2.699
35380W        W 7106  44.236  16.345   4.683
35381W        W 7107  26.121  14.217   4.225
35382W        W 7108  10.612  41.287   4.817
35383W        W 7109  36.356   8.858   4.219
35384W        W 7110  12.605  18.969  14.569
35385W        W 7111  28.655   8.345  10.695
35386W        W 7112  19.113  10.847   3.310
35387W        W 7113  13.428  18.768   1.192
35388W        W 7114   1.339   5.643  11.935
35389W        W 7115  40.223  25.150  14.800
35390W        W 7116  18.077   0.260  13.710
35391W        W 7117  40.369  43.009   1.750
35392W        W 7118  40.194  43.339   3.373
35393W        W 7119   1.454  39.612   2.017
35394W        W 7120  24.487   2.292  12.734
35395W        W 7121   2.683  32.445   4.820
35396W        W 7122  14.746  14.779   1.947
35397W        W 7123   0.010  39.090   2.261
35398W        W 7124  31.614  30.183  14.797
35399W        W 7125  22.326   9.377  11.129
35400W        W 7126  42.248  37.422  11.104
35401W        W 7127  31.101   7.812   4.100
35402W        W 7128  28.649   7.531   3.918
35403W        W 7129  23.135  11.867   0.371
35404W        W 7130  14.668   0.374  14.344
35405W        W 7131  39.071  34.604   2.265
35406W        W 7132  11.604  31.494   0.833
35407W        W 7133  44.202  12.579   1.801
35408W        W 7134  20.412   0.425   3.429
35409W        W 7135  38.025  26.514   1.319
35410W        W 7136  21.898  36.931  13.745
35411W        W 7137  43.997  15.249   0.839
35412W        W 7138  20.830  18.087   0.534
35413W        W 7139  36.792  29.385   4.679
35414W        W 7140  44.443  29.296  14.405
35415W        W 7141  15.963   6.791   3.102
35416W        W 7142  22.388   4.185   3.614
35417W        W 7143  20.558  39.828   4.658
35418W        W 7144   6.818  39.900  14.321
35419W        W 7145   4.322   0.275   4.651
35420W        W 7146  34.316  13.608   2.810
35421W        W 7147  11.638  14.373   0.935
35422W        W 7148   3.298  38.585  10.676
35423W        W 7149  36.176  27.044  10.634
35424W        W 7150   8.406   8.195  10.765
35425W        W 7151  11.889  12.527   3.938
35426W        W 7152  35.772   5.459   2.759
35427W        W 7153  19.679   1.209   3.244
35428W        W 7154  21.717  13.837   1.378
35429W        W 7155   7.907  30.542  10.776
35430W        W 7156  21.159  37.483  10.670
35431W        W 7157   5.271  22.156  10.644
35432W        W 7158  24.647  37.931   2.353
35433W        W 7159  22.515   1.287  10.720
35434W        W 7160  12.602  14.818  11.344
35435W        W 7161  16.757  37.072  12.133
35436W        W 7162  19.838  41.572  12.870
35437W        W 7163  31.097  22.617   3.622
35438W        W 7164  28.210   5.518  14.143
35439W        W 7165  14.608   9.284  10.472
35440W        W 7166  11.833  17.743   0.742
35441W        W 7167   4.397   2.537  14.799
35442W        W 7168   4.321  17.661   0.827
35443W        W 7169   1.192  11.284   4.733
35444W        W 7170  22.265  31.219   1.353
35445W        W 7171   7.254  39.964   1.976
35446W        W 7172  23.930   1.710  12.887
35447W        W 7173  31.912  15.324  11.202
35448W        W 7174  43.635  26.725   1.318
35449W        W 7175   6.689   1.496  14.923
35450W        W 7176  40.906  34.938  10.624
35451W        W 7177  37.037  27.140   1.487
35452W        W 7178  17.064   1.219  13.085
35453W        W 7179  23.860  22.276  14.071
35454W        W 7180  35.710  28.886  13.367
35455W        W 7181  34.667  22.583  12.540
35456W        W 7182  41.145  38.729  11.070
35457W        W 7183  12.583  10.098  10.999
35458W        W 7184  37.373  39.647   0.863
35459W        W 7185  12.383  20.689  13.630
35460W        W 7186  25.644  37.432  11.520
35461W        W 7187   4.145  41.830   3.618
35462W        W 7188  29.077  38.242   3.645
35463W        W 7189  36.350   6.928  12.044
35464W        W 7190  41.929  15.722  11.692
35465W        W 7191   6.901  19.309   4.641
35466W        W 7192  40.097  42.495   3.317
35467W        W 7193  30.538  24.296  11.035
35468W        W 7194   8.540  25.624  11.248
35469W        W 7195  30.193  18.950   0.999
35470W        W 7196  18.749  11.385   3.177
35471W        W 7197   9.920  44.456  11.581
35472W        W 7198  13.885   9.686  11.517
35473W        W 7199  12.381   0.726   1.840
35474W        W 7200   4.990  30.173  11.151
35475W        W 7201  41.040  12.267   2.263
35476W        W 7202  23.385  13.661   0.753
35477W        W 7203  44.929   0.441   1.461
35478W        W 7204  30.840  41.754   9.718
35479W        W 7205  41.987   4.331   4.346
35480W        W 7206  31.467  11.968   9.973
35481W        W 7207  33.199  12.676  10.516
35482W        W 7208  13.793  12.125  13.787
35483W        W 7209   0.027  35.360  11.626
35484W        W 7210  15.811  44.370  13.035
35485W        W 7211  13.881   4.288  10.576
35486W        W 7212   0.359   8.600   4.782
35487W        W 7213  26.589  34.983  10.616
35488W        W 7214  39.061  22.202  10.137
35489W        W 7215   8.117  11.170   1.290
35490W        W 7216  20.150  43.553   0.327
35491W        W 7217   5.833  20.333   1.672
35492W        W 7218  13.609  16.465   0.335
35493W        W 7219   0.230  44.890   4.262
35494W        W 7220   1.785  44.091  12.068
35495W        W 7221  41.405   0.041  14.445
35496W        W 7222  23.718  23.432  12.551
35497W        W 7223  29.842  37.491  11.538
35498W        W 7224  18.612  27.022   2.676
35499W        W 7225  43.734  32.619  13.031
35500W        W 7226   4.420  33.719   2.863
35501W        W 7227  16.314  11.051  12.849
35502W        W 7228   5.559  39.381  11.850
35503W        W 7229  18.802  32.933   3.142
35504W        W 7230  33.435  44.322   2.898
35505W        W 7231  43.047  33.870  12.529
35506W        W 7232  11.640   2.988  14.496
35507W        W 7233  37.556  26.698   2.361
35508W        W 7234   6.405  27.325  13.996
35509W        W 7235   7.954  44.509   3.716
35510W        W 7236   6.155  31.991  10.352
35511W        W 7237   1.909  15.826  10.805
35512W        W 7238  14.744  26.975   0.780
35513W        W 7239  41.950  11.089   3.148
35514W        W 7240  27.433   5.100  14.545
35515W        W 7241  12.382  29.613   0.231
35516W        W 7242  26.142  41.878   0.610
35517W        W 7243  34.445  13.568  13.536
35518W        W 7244   4.372  31.884   4.957
35519W        W 7245  10.585  18.529   0.759
35520W        W 7246  43.518  32.054   4.427
35521W        W 7247   6.836  10.177  10.936
35522W        W 7248  31.544  35.922  11.165
35523W        W 7249  12.551   1.662  12.462
35524W        W 7250  19.203  27.444  10.784
35525W        W 7251  29.364   9.635   0.653
35526W        W 7252  18.807  16.189  11.014
35527W        W 7253  23.200  44.342   2.358
35528W        W 7254  33.386   5.823  10.231
35529W        W 7255  12.181  31.633  11.325
35530W        W 7256   9.257   6.206  13.855
35531W        W 7257  15.697  13.326   0.895
35532W        W 7258  31.027  15.994  13.481
35533W        W 7259   4.495  40.930   0.244
35534W        W 7260   1.060  34.460   0.084
35535W        W 7261   2.691  25.495   2.218
35536W        W 7262   8.958  10.672  13.979
35537W        W 7263  44.463  10.656   4.866
35538W        W 7264  23.796  11.294  12.462
35539W        W 7265  15.457  25.653  11.618
35540W        W 7266  17.250  27.814  11.526
35541W        W 7267  22.232  25.150   0.699
35542W        W 7268  43.020  26.733   3.244
35543W        W 7269  10.727  20.786  12.645
35544W        W 7270  22.643  16.124   4.064
35545W        W 7271   7.731  24.661   3.282
35546W        W 7272  30.311  44.815   2.341
35547W        W 7273  41.588   4.520  14.080
35548W        W 7274   6.041  16.677   9.628
35549W        W 7275   1.917  39.051  13.325
35550W        W 7276  17.581  40.880   3.596
35551W        W 7277  30.165  36.310  10.767
35552W        W 7278  38.266   1.071   1.264
35553W        W 7279   9.245  22.359  13.150
35554W        W 7280  19.261   3.895   3.289
35555W        W 7281   8.285   5.914   1.948
35556W        W 7282  18.265  11.555   3.259
35557W        W 7283  39.869  16.702   0.230
35558W        W 7284  14.214  18.724   3.774
35559W        W 7285  43.782  17.360  10.496
35560W        W 7286   2.834  26.676  13.066
35561W        W 7287   9.529  44.974  12.146
35562W        W 7288  13.277  20.060   0.753
35563W        W 7289  42.849  43.256  12.590
35564W        W 7290  30.632   0.998   1.347
35565W        W 7291  38.456  24.581   2.470
35566W        W 7292  21.991  41.595   1.287
35567W        W 7293   6.790  41.866  14.529
35568W        W 7294  23.055  33.620  12.002
35569W        W 7295  19.086  43.580   2.613
35570W        W 7296  19.624  26.102   1.388
35571W        W 7297  26.841  36.454  13.407
35572W        W 7298  42.834  24.926  13.472
35573W        W 7299  35.626  24.965  11.541
35574W        W 7300  18.675  33.329  11.667
35575W        W 7301  43.946   6.115  14.391
35576W        W 7302  12.524  25.232  10.685
35577W        W 7303   3.218  22.289   2.618
35578W        W 7304  14.219  32.562   4.430
35579W        W 7305  30.805   7.769   5.001
35580W        W 7306   9.598  14.079  12.838
35581W        W 7307   8.476  41.825   3.997
35582W        W 7308   0.082  33.491   4.814
35583W        W 7309  42.758   4.976   1.161
35584W        W 7310  12.134  33.124   2.353
35585W        W 7311   9.681  35.789   2.614
35586W        W 7312   8.087  17.744  12.960
35587W        W 7313  21.125   2.700  13.941
35588W        W 7314  29.047  25.635  11.115
35589W        W 7315  32.418  24.909   0.805
35590W        W 7316  12.872  36.408  11.194
35591W        W 7317  20.857  16.126   1.739
35592W        W 7318  31.899   1.786   3.593
35593W        W 7319  43.218  44.830   2.682
35594W        W 7320  15.358  39.850  12.032
35595W        W 7321  30.700  26.643   3.767
35596W        W 7322  14.142  25.515  13.985
35597W        W 7323  27.955   6.302   1.249
35598W        W 7324  44.847   6.780   4.792
35599W        W 7325   3.217  43.501  14.995
35600W        W 7326   7.640   5.867   0.702
35601W        W 7327  39.283  26.250  12.539
35602W        W 7328  16.294  26.661  14.404
35603W        W 7329  29.361  28.145   1.469
35604W        W 7330  40.042  33.531  13.389
35605W        W 7331  28.961  42.187   1.699
35606W        W 7332  10.095   9.880  13.888
35607W        W 7333  21.317  29.588   5.098
35608W        W 7334  24.078  42.517   2.626
35609W        W 7335  28.385  15.292  13.802
35610W        W 7336  28.924  31.602   3.362
35611W        W 7337  15.695  11.503  14.624
35612W        W 7338  11.800   2.432  11.066
35613W        W 7339   6.909  32.102   0.800
35614W        W 7340  16.402   8.826  14.204
35615W        W 7341  17.141  17.046   4.594
35616W        W 7342   3.628  17.139  10.607
35617W        W 7343  23.202   0.325  13.769
35618W        W 7344   3.573  32.197  12.012
35619W        W 7345   5.243   4.336   3.115
35620W        W 7346  27.887  27.665  10.435
35621W        W 7347  32.659  35.611  12.491
35622W        W 7348  30.607  39.536  13.512
35623W        W 7349  15.027  15.865  11.048
35624W        W 7350   8.541  23.035   3.551
35625W        W 7351  32.144   6.275   4.620
35626W        W 7352  40.330  44.364  11.738
35627W        W 7353  34.961  18.127   1.239
35628W        W 7354  15.738  25.962  12.036
35629W        W 7355  25.793  41.947  13.989
35630W        W 7356   7.153  38.729   3.040
35631W        W 7357  37.023  25.002   1.799
35632W        W 7358  30.764  42.030  14.149
35633W        W 7359  26.983  40.906   0.286
35634W        W 7360  27.710  19.669   4.356
35635W        W 7361  43.433  12.246   2.776
35636W        W 7362  38.086  21.482   1.978
35637W        W 7363  29.973   8.677  10.847
35638W        W 7364  44.529   5.264  12.060
35639W        W 7365   9.069  24.036   0.856
35640W        W 7366  44.758  12.221  12.532
35641W        W 7367  25.674  28.867  10.790
35642W        W 7368  28.722  29.028   2.576
35643W        W 7369  43.319  37.015  11.593
35644W        W 7370  25.190  24.342  10.828
35645W        W 7371  44.961  42.310   2.401
35646W        W 7372  18.739   7.631   2.899
35647W        W 7373   5.202  19.272   2.936
35648W        W 7374  10.050  39.397   0.430
35649W        W 7375  28.998  44.641   3.713
35650W        W 7376  33.303  36.482  12.541
35651W        W 7377  10.284  25.058   1.385
35652W        W 7378  32.053   0.772  12.298
35653W        W 7379  10.187  41.128  14.928
35654W        W 7380  24.386  18.075   2.676
35655W        W 7381  36.854  21.752  12.365
35656W        W 7382  33.712  39.887  12.024
35657W        W 7383   0.719  44.735  10.642
35658W        W 7384  35.150   8.662   4.953
35659W        W 7385  16.293   5.823  11.929
35660W        W 7386  29.640  37.267  14.765
35661W        W 7387   6.681  33.545   2.867
35662W        W 7388  10.890  32.026   1.746
35663W        W 7389  24.746   6.673   0.789
35664W        W 7390  10.754  23.944  10.983
35665W        W 7391  38.856  25.531   2.648
35666W        W 7392  35.629  19.182   4.858
35667W        W 7393  12.379  21.208  12.887
35668W        W 7394   1.244  33.113  12.813
35669W        W 7395  29.584  38.740   2.101
35670W        W 7396   5.402   1.546   1.340
35671W        W 7397  23.499  29.973   1.418
35672W        W 7398  19.972  30.151  11.171
35673W        W 7399  18.807  13.125  10.667
35674W        W 7400  22.749   0.760   1.844
35675W        W 7401  41.795  32.101   3.592
35676W        W 7402   4.312  35.751  14.928
35677W        W 7403   7.730  33.481   0.938
35678W        W 7404   1.253  26.040  14.755
35679W        W 7405  44.755   8.123  14.171
35680W        W 7406  34.948  29.938  14.499
35681W        W 7407  13.360   9.803  10.534
35682W        W 7408  33.867  35.875  10.515
35683W        W 7409  35.718   4.470   4.136
35684W        W 7410  13.599  14.793  11.833
35685W        W 7411  36.945   5.693  12.042
35686W        W 7412  24.422   3.805   3.766
35687W        W 7413  19.014  25.003   2.637
35688W        W 7414  18.677  33.582   4.669
35689W        W 7415  12.628  12.397  11.344
35690W        W 7416   1.451  43.953  12.497
35691W        W 7417   4.363  34.323  13.518
35692W        W 7418  32.002  21.451   2.869
35693W        W 7419   0.108  33.737   3.185
35694W        W 7420  22.618  43.551   2.444
35695W        W 7421  23.534   5.798  12.914
35696W        W 7422  14.964  34.384  11.443
35697W        W 7423  42.870  21.107   9.991
35698W        W 7424  23.115  18.089   2.278
35699W        W 7425  15.626  13.290  13.815
35700W        W 7426  18.756   5.811  10.774
35701W        W 7427  16.965  39.617  14.002
35702W        W 7428  36.532   5.547   1.007
35703W        W 7429  28.202  35.552   4.922
35704W        W 7430  20.318  38.425  11.136
35705W        W 7431  38.321  25.766  10.372
35706W        W 7432  23.504  37.615   4.270
35707W        W 7433  12.605  27.103  10.669
35708W        W 7434  26.171  19.856  14.412
35709W        W 7435  30.435  40.972   1.791
35710W        W 7436  44.282  40.859   3.682
35711W        W 7437  34.888   2.782   2.583
35712W        W 7438  13.343  44.832   3.827
35713W        W 7439  16.891  38.743   4.278
35714W        W 7440  19.023  23.285  12.362
35715W        W 7441   0.222  28.928   0.727
35716W        W 7442   0.570  31.030   0.141
35717W        W 7443  32.002  13.835  11.556
35718W        W 7444  32.382  27.497   2.257
35719W        W 7445  23.685  32.040  10.640
35720W        W 7446  17.614  37.422   4.900
35721W        W 7447  11.633  22.563   4.550
35722W        W 7448  37.288   0.868  11.526
35723W        W 7449  12.790  29.422   1.853
35724W        W 7450  31.397  23.195  10.444
35725W        W 7451  11.835  10.554   1.743
35726W        W 7452  38.613  21.079  14.107
35727W        W 7453  43.861   5.709  14.730
35728W        W 7454  25.596  26.665   4.054
35729W        W 7455  21.952  44.796  14.017
35730W        W 7456  16.752  30.569  14.983
35731W        W 7457  25.744   8.575  13.791
35732W        W 7458  37.480  10.169   1.309
35733W        W 7459   2.790  21.404  12.587
35734W        W 7460   1.359  17.710  12.400
35735W        W 7461   8.323  23.148   2.412
35736W        W 7462  38.386  28.579  14.224
35737W        W 7463  37.595  43.392  11.158
35738W        W 7464  22.558  16.989   4.169
35739W        W 7465  29.186  29.767  11.138
35740W        W 7466  39.884   2.682   1.357
35741W        W 7467  17.450  32.297  13.523
35742W        W 7468  36.406   4.068  11.091
35743W        W 7469   7.301  36.844   1.728
35744W        W 7470  44.537  10.799   3.491
35745W        W 7471  18.156  36.854  12.551
35746W        W 7472  39.305   0.305  14.330
35747W        W 7473  11.708  27.496  11.717
35748W        W 7474  25.399  11.975  12.165
35749W        W 7475  43.931  20.129  13.066
35750W        W 7476   8.289  19.124   2.764
35751W        W 7477  22.569   2.004   4.281
35752W        W 7478  30.104  13.255   0.454
35753W        W 7479  41.441   4.981   3.305
35754W        W 7480  15.817  18.913   0.771
35755W        W 7481  29.395  30.383  11.954
35756W        W 7482  25.577  10.931  11.109
35757W        W 7483  20.736  30.023  12.456
35758W        W 7484   2.866   0.019  12.844
35759W        W 7485   7.944  31.465   1.687
35760W        W 7486  41.319   4.069   0.370
35761W        W 7487   0.714   4.808  10.211
35762W        W 7488   9.419  13.098  10.732
35763W        W 7489  38.067  20.319  11.985
35764W        W 7490  34.935  43.304  12.640
35765W        W 7491   7.336  22.116  14.701
35766W        W 7492   8.149  14.211   0.549
35767W        W 7493  14.643   5.337   2.994
35768W        W 7494   7.650  14.565   0.780
35769W        W 7495   5.884  18.747  13.957
35770W        W 7496   6.151  22.769   1.177
35771W        W 7497   7.921  20.302  13.448
35772W        W 7498  39.924  42.035   4.235
35773W        W 7499  12.459  43.537  12.859
35774W        W 7500  17.603  23.297   1.255
35775W        W 7501   0.680  15.558   2.498
35776W        W 7502  29.652  21.744  10.993
35777W        W 7503  23.416  13.164  12.136
35778W        W 7504  24.424  23.807   4.027
35779W        W 7505  43.811  33.085   0.100
35780W        W 7506  35.388  34.835   3.886
35781W        W 7507   6.144  16.576  12.048
35782W        W 7508  40.602  23.624   2.756
35783W        W 7509  28.614   8.315   1.232
35784W        W 7510  10.269  26.173  14.825
35785W        W 7511  13.288  12.647  12.464
35786W        W 7512  10.843   9.644  10.532
35787W        W 7513   5.499   9.383   4.846
35788W        W 7514  10.352  22.554   1.150
35789W        W 7515  10.862   0.958  10.786
35790W        W 7516  24.217   8.350  14.044
35791W        W 7517  10.921  17.232   1.956
35792W        W 7518  11.835  31.657  13.402
35793W        W 7519  20.382  40.780   2.408
35794W        W 7520  26.490  35.973  10.735
35795W        W 7521  37.577  18.259  13.453
35796W        W 7522  40.011  17.647   3.750
35797W        W 7523  44.728  10.877   4.475
35798W        W 7524  40.088  24.126   3.197
35799W        W 7525   0.415   4.672   4.900
35800W        W 7526  23.229  44.904  11.060
35801W        W 7527  14.757   5.984   2.359
35802W        W 7528  34.494  35.674  13.222
35803W        W 7529  31.431   6.383  14.168
35804W        W 7530  37.119   3.002   3.713
35805W        W 7531  12.647  21.169  13.737
35806W        W 7532  14.536   9.605  12.902
35807W        W 7533  24.559  26.032  14.149
35808W        W 7534  19.497  15.059  14.470
35809W        W 7535  43.500  41.291   3.042
35810W        W 7536  40.414  23.138   2.855
35811W        W 7537  25.727  11.722  11.499
35812W        W 7538  43.798  25.051  11.111
35813W        W 7539  38.115  29.050   1.745
35814W        W 7540  25.729   2.250  13.056
35815W        W 7541  18.752  37.993  14.851
35816W        W 7542  43.522  31.927  11.341
35817W        W 7543  35.772  22.627  11.687
35818W        W 7544  24.514  19.286  13.883
35819W        W 7545  20.742   6.833   1.742
35820W        W 7546  38.010  41.987   1.814
35821W        W 7547  21.664  20.375  11.252
35822W        W 7548  40.598  14.270   5.331
35823W        W 7549  38.250   9.374   4.599
35824W        W 7550  26.733   9.363   2.352
35825W        W 7551   7.891   4.685  11.625
35826W        W 7552  28.448   4.008  12.956
35827W        W 7553  32.350   2.946  13.230
35828W        W 7554  39.944  28.623   4.213
35829W        W 7555  19.621  11.412   2.694
35830W        W 7556   5.351  18.775  13.880
35831W        W 7557  38.435   5.087  11.236
35832W        W 7558  27.630   9.641   1.389
35833W        W 7559  24.567   4.462   4.940
35834W        W 7560   2.011  26.853   0.817
35835W        W 7561  30.941   1.680  14.324
35836W        W 7562  16.680  25.808   0.205
35837W        W 7563  40.069  13.855   2.735
35838W        W 7564  41.998  20.232  11.951
35839W        W 7565   7.548  12.369   0.869
35840W        W 7566  31.723   0.006  10.217
35841W        W 7567  32.945  41.749   4.928
35842W        W 7568  38.412  35.412  11.736
35843W        W 7569  30.898  42.030   2.170
35844W        W 7570  27.292  10.705   4.620
35845W        W 7571  26.970   2.694  12.552
35846W        W 7572  25.941  24.873  10.715
35847W        W 7573   8.730  16.610   4.806
35848W        W 7574  42.897   0.589  11.007
35849W        W 7575  15.110  31.364  12.367
35850W        W 7576  29.158  15.226  13.581
35851W        W 7577  25.922  18.251  13.451
35852W        W 7578  33.164  21.734   0.306
35853W        W 7579   1.814  31.991  14.660
35854W        W 7580   7.614  28.969   2.419
35855W        W 7581  24.601   0.953  13.363
35856W        W 7582  37.052  40.942   4.956
35857W        W 7583  44.784  38.014  11.711
35858W        W 7584  35.970  39.726  12.777
35859W        W 7585  25.955  26.538   3.164
35860W        W 7586  40.460  44.434  14.271
35861W        W 7587  35.051  32.030  10.761
35862W        W 7588  15.685  31.438   0.355
35863W        W 7589  31.281  39.476  11.939
35864W        W 7590  43.582  25.164  11.634
35865W        W 7591  20.011  12.606  10.285
35866W        W 7592  24.260   1.519  12.530
35867W        W 7593  41.275   3.837  12.896
35868W        W 7594  18.053   4.469  14.508
35869W        W 7595  10.782  35.575   2.232
35870W        W 7596  27.408  36.891  12.189
35871W        W 7597  42.664  33.159   0.396
35872W        W 7598  10.203  18.074  14.871
35873W        W 7599  21.918  21.887   0.837
35874W        W 7600   5.310   6.307   0.977
35875W        W 7601  34.568  19.170  13.012
35876W        W 7602  22.856  25.694   1.864
35877W        W 7603  26.037  37.306  10.362
35878W        W 7604  35.357   0.554   0.928
35879W        W 7605   2.260  20.558  11.296
35880W        W 7606  36.369   4.273  14.745
35881W        W 7607  35.095  24.011   3.266
35882W        W 7608   9.199  14.588   0.809
35883W        W 7609   3.188  29.467  13.652
35884W        W 7610  41.508  19.996   4.848
35885W        W 7611  20.328  33.625  10.701
35886W        W 7612  38.801  15.749  11.092
35887W        W 7613  40.893  29.874   1.764
35888W        W 7614  20.200  36.645   3.798
35889W        W 7615   9.092  11.356  11.104
35890W        W 7616   3.621  21.721   4.214
35891W        W 7617  18.654  18.303   1.226
35892W        W 7618  44.975  13.175   0.427
35893W        W 7619   3.950  19.484   0.812
35894W        W 7620  18.901  38.282  12.667
35895W        W 7621   4.908  22.914   0.442
35896W        W 7622  36.913  16.271   2.467
35897W        W 7623  19.721  26.439   0.973
35898W        W 7624   3.245  41.788  13.119
35899W        W 7625  28.051  37.541   0.815
35900W        W 7626  28.522  27.657  10.509
35901W        W 7627  22.477  24.554  12.923
35902W        W 7628   5.651   1.959   2.307
35903W        W 7629  43.947  25.130   1.964
35904W        W 7630  28.210  23.587  10.273
35905W        W 7631  40.834  19.793   0.392
35906W        W 7632  11.163  12.653  12.937
35907W        W 7633   6.354  21.476  13.065
35908W        W 7634  43.241  13.266   1.344
35909W        W 7635   1.845   9.257   1.897
35910W        W 7636  40.826  35.705  11.921
35911W        W 7637   7.099  17.719   1.332
35912W        W 7638   1.403  38.424   1.181
35913W        W 7639  15.292  28.970  13.765
35914W        W 7640  19.771  42.584   2.644
35915W        W 7641  27.696  30.508   1.197
35916W        W 7642  13.676  41.067   1.319
35917W        W 7643  34.499   8.113   2.053
35918W        W 7644  17.315  42.865  14.108
35919W        W 7645  44.435  35.452   1.715
35920W        W 7646  43.829  43.520   3.806
35921W        W 7647  12.353  16.150   1.926
35922W        W 7648   1.418  19.866  10.546
35923W        W 7649  30.059  27.614   0.470
35924W        W 7650   5.396  27.192  13.063
35925W        W 7651  42.761  21.654  12.558
35926W        W 7652   3.651  22.056  12.554
35927W        W 7653   5.367   1.910  10.774
35928W        W 7654  35.088  40.118   2.381
35929W        W 7655  12.262  34.082  13.545
35930W        W 7656  24.625  29.469   3.372
35931W        W 7657   4.151  22.289   0.684
35932W        W 7658  24.687  10.360  11.317
35933W        W 7659   1.519   7.804  11.563
35934W        W 7660   6.749  14.730   2.167
35935W        W 7661  23.801  21.143   4.232
35936W        W 7662  12.611  28.464   2.726
35937W        W 7663   9.167  37.717   2.194
35938W        W 7664  25.148  43.340   5.122
35939W        W 7665  15.551  43.439   4.118
35940W        W 7666  22.886  33.502  10.109
35941W        W 7667   6.771   7.321   4.609
35942W        W 7668  42.097  20.210  11.046
35943W        W 7669   6.349   5.667   1.312
35944W        W 7670   3.737  33.941  11.707
35945W        W 7671   4.210  15.642   4.167
35946W        W 7672   1.209  11.603   2.139
35947W        W 7673  10.729  39.416  14.431
35948W        W 7674   1.966  23.350  14.663
35949W        W 7675  26.229  30.179  11.874
35950W        W 7676  30.055  32.685  10.631
35951W        W 7677  38.847  24.906  14.781
35952W        W 7678  28.112  37.885  12.121
35953W        W 7679   6.661  11.010  11.887
35954W        W 7680  28.181  39.465   2.826
35955W        W 7681   7.700  38.982  11.567
35956W        W 7682  12.113   8.923  12.596
35957W        W 7683   1.744  27.725   0.334
35958W        W 7684  29.950  33.543   4.222
35959W        W 7685  10.884  36.005  10.114
35960W        W 7686   4.188   5.618   1.405
35961W        W 7687  26.613  36.351   3.373
35962W        W 7688  38.439  11.109   3.766
35963W        W 7689  40.937  18.349   3.350
35964W        W 7690  24.924   0.530   3.286
35965W        W 7691  39.539  19.045  11.571
35966W        W 7692  23.743  40.520   3.580
35967W        W 7693  21.601  25.616   5.347
35968W        W 7694   3.260  26.641  10.622
35969W        W 7695  19.768  13.631   2.734
35970W        W 7696  44.514  20.571  13.758
35971W        W 7697  15.148  25.903  14.265
35972W        W 7698  14.729  15.854   2.341
35973W        W 7699   4.858  35.110  13.355
35974W        W 7700  33.127  22.572  12.200
35975W        W 7701  33.662  24.520  11.985
35976W        W 7702  30.719   5.156   1.841
35977W        W 7703  13.806  35.957   3.220
35978W        W 7704   8.637   8.729   2.798
35979W        W 7705  41.659  35.401  14.313
35980W        W 7706  26.708  24.071  12.107
35981W        W 7707  44.509  12.624   0.521
35982W        W 7708  26.054   6.883   2.190
35983W        W 7709  10.854  39.466   0.772
35984W        W 7710   2.739  30.900  11.212
35985W        W 7711  35.251  21.313  12.860
35986W        W 7712  43.914  35.959  12.461
35987W        W 7713  20.021   0.519   2.511
35988W        W 7714  16.613  21.266   4.010
35989W        W 7715   9.356  23.453  12.092
35990W        W 7716  31.116  23.900   2.787
35991W        W 7717  26.505   8.218  13.557
35992W        W 7718  20.195  43.316  10.937
35993W        W 7719  18.830  26.016   2.419
35994W        W 7720  16.441  39.498  13.940
35995W        W 7721  36.137  29.051   0.880
35996W        W 7722  10.631  10.145  13.056
35997W        W 7723   1.274   8.747   3.797
35998W        W 7724  34.060   5.352   2.713
35999W        W 7725   5.125  22.416   4.002
36000W        W 7726  44.511  33.168  12.395
36001W        W 7727   8.291  16.742  14.181
36002W        W 7728  34.954  39.091  13.043
36003W        W 7729  26.935  17.988  13.987
36004W        W 7730   6.648  21.496  13.491
36005W        W 7731  23.074   9.745   0.015
36006W        W 7732  13.619  24.404  14.910
36007W        W 7733  31.557  31.970  14.363
36008W        W 7734  31.498   8.793   4.820
36009W        W 7735  34.465  15.207   1.953
36010W        W 7736   0.041   4.762   3.103
36011W        W 7737  21.586  34.130  13.841
36012W        W 7738  33.601   1.866   4.560
36013W        W 7739  26.234  44.253   1.401
36014W        W 7740  20.538  22.825  14.232
36015W        W 7741  36.832  14.267  10.287
36016W        W 7742   6.222  20.029   0.361
36017W        W 7743  10.843  36.317   0.428
36018W        W 7744  10.709  22.599  11.157
36019W        W 7745  41.821  20.762  10.850
36020W        W 7746   2.304   5.268  13.003
36021W        W 7747  21.478   3.046   2.171
36022W        W 7748  42.791  15.713  10.589
36023W        W 7749   1.314  43.575   0.091
36024W        W 7750  35.109  37.863  14.818
36025W        W 7751  18.038   3.668   3.690
36026W        W 7752  20.133  19.635  14.405
36027W        W 7753  27.731  14.432   1.468
36028W        W 7754  39.201  43.651   3.650
36029W        W 7755  28.144   4.535  10.105
36030W        W 7756  44.585   3.608  13.521
36031W        W 7757   1.472  23.502   3.674
36032W        W 7758  11.117  36.250   5.767
36033W        W 7759  25.154  33.147  13.480
36034W        W 7760  22.658  19.965  13.824
36035W        W 7761  15.397  38.407   2.080
36036W        W 7762  25.308  31.725  14.796
36037W        W 7763  41.592  21.200   4.597
36038W        W 7764  25.373  35.988  13.819
36039W        W 7765  23.158   5.419   3.384
36040W        W 7766  14.466  24.540  10.659
36041W        W 7767  15.072  23.735  12.538
36042W        W 7768  31.148  10.639   2.191
36043W        W 7769  18.086  33.421   3.426
36044W        W 7770  33.129  27.565  14.927
36045W        W 7771  20.796   7.183  11.281
36046W        W 7772  44.225  37.922  11.890
36047W        W 7773  42.365  36.434   2.712
36048W        W 7774  37.175   1.973   3.694
36049W        W 7775  18.109  35.512   4.425
36050W        W 7776  18.220  12.607   1.343
36051W        W 7777  36.338  30.128   3.147
36052W        W 7778  38.578  44.330  13.597
36053W        W 7779  39.802  14.661   3.175
36054W        W 7780   3.683  14.238   0.824
36055W        W 7781   9.217  41.038   1.108
36056W        W 7782  24.601   9.894   4.012
36057W        W 7783  32.504  30.827  12.875
36058W        W 7784  39.043  37.411   0.324
36059W        W 7785   4.680   7.013   3.294
36060W        W 7786   1.190  11.260  14.530
36061W        W 7787   6.852  44.296  11.648
36062W        W 7788   4.599  18.057  13.478
36063W        W 7789  16.884  25.914   4.251
36064W        W 7790  44.181   5.398  11.543
36065W        W 7791  36.070  31.390  13.128
36066W        W 7792   8.354  16.679   1.661
36067W        W 7793  13.588  13.597  14.275
36068W        W 7794  44.255  12.339  12.508
36069W        W 7795  42.853  42.020   4.667
36070W        W 7796  10.441  35.357   1.397
36071W        W 7797  40.005   2.501   2.654
36072W        W 7798  37.601  43.988   1.299
36073W        W 7799  28.828  19.773   0.527
36074W        W 7800   7.286   1.362   3.278
36075W        W 7801   5.732   5.108   0.892
36076W        W 7802   3.370  20.542   4.445
36077W        W 7803  25.181  34.570  12.596
36078W        W 7804  31.415   9.698  11.545
36079W        W 7805  33.305  38.325   1.870
36080W        W 7806  11.039  21.662   2.366
36081W        W 7807  35.740   3.562   0.507
36082W        W 7808  20.595  24.301   4.760
36083W        W 7809  36.701  25.515  12.944
36084W        W 7810  18.132  31.467   1.288
36085W        W 7811  41.246  40.485  13.846
36086W        W 7812  35.662  19.338   0.798
36087W        W 7813   5.670  34.588  11.981
36088W        W 7814  10.247  37.834   1.407
36089W        W 7815  32.116  31.191  10.669
36090W        W 7816  12.348  18.212   4.593
36091W        W 7817  31.670   4.185  12.026
36092W        W 7818   2.374  43.163  12.746
36093W        W 7819  42.912   5.329  13.386
36094W        W 7820  29.596  40.511   4.517
36095W        W 7821  22.513  14.054   5.185
36096W        W 7822  34.411   5.026   0.830
36097W        W 7823  15.348  18.706  13.428
36098W        W 7824  43.492  41.140   2.173
36099W        W 7825  24.342  13.368   2.656
36100W        W 7826  44.140  19.551   4.947
36101W        W 7827  40.949  13.772  14.707
36102W        W 7828  33.348   8.238   2.850
36103W        W 7829  21.245  16.600  11.128
36104W        W 7830  42.224  27.061   0.340
36105W        W 7831  34.344   1.451  14.437
36106W        W 7832  41.471  13.464   0.812
36107W        W 7833  19.091  16.195   1.332
36108W        W 7834   0.546  41.359  10.768
36109W        W 7835  17.233   9.259  14.372
36110W        W 7836   8.778   0.965   2.472
36111W        W 7837   0.236   7.684  12.001
36112W        W 7838  24.257  17.098   0.552
36113W        W 7839  33.029  29.501  14.354
36114W        W 7840   1.709  34.515   0.271
36115W        W 7841   0.495   0.904   3.618
36116W        W 7842  17.890  19.618   3.272
36117W        W 7843  39.846  25.124   0.410
36118W        W 7844   6.675  25.188  12.045
36119W        W 7845   6.907  22.181   4.636
36120W        W 7846  12.861  11.357  14.909
36121W        W 7847  22.964  26.571   4.220
36122W        W 7848  27.599   4.881   2.175
36123W        W 7849  21.667  26.627   1.063
36124W        W 7850  25.153  28.868   4.755
36125W        W 7851  35.562   2.490   3.332
36126W        W 7852  35.527   1.046   4.520
36127W        W 7853   7.213   2.237   2.211
36128W        W 7854  11.304  21.566  14.946
36129W        W 7855   4.440   5.165  11.398
36130W        W 7856   3.825  36.270   4.053
36131W        W 7857  20.423   2.346   3.399
36132W        W 7858  23.574  27.037  11.172
36133W        W 7859   0.897  15.637   2.946
36134W        W 7860  42.499  40.014  12.191
36135W        W 7861  21.463  34.242   1.789
36136W        W 7862  44.303   5.001   1.847
36137W        W 7863  26.428  31.778  14.396
36138W        W 7864  31.102  25.005  11.337
36139W        W 7865  14.266  38.658  10.751
36140W        W 7866   2.697  32.055   2.473
36141W        W 7867  33.577  10.909   4.524
36142W        W 7868  19.627  42.354   1.448
36143W        W 7869  38.122  22.812  12.075
36144W        W 7870  43.420  36.571   1.730
36145W        W 7871  21.482  14.553   5.465
36146W        W 7872  16.232  20.044   4.712
36147W        W 7873  29.162  35.054   2.843
36148W        W 7874  23.745  24.511   3.352
36149W        W 7875  39.622  33.828  13.467
36150W        W 7876  34.026  30.121  13.018
36151W        W 7877  23.097  20.711   4.092
36152W        W 7878   5.031  39.478  11.933
36153W        W 7879  35.577  33.609   4.321
36154W        W 7880  15.140  37.551   4.108
36155W        W 7881  41.943  39.784   0.217
36156W        W 7882   7.289  39.315  14.197
36157W        W 7883   9.408  35.484   3.202
36158W        W 7884  41.610  42.426  11.128
36159W        W 7885  10.913  14.521  14.342
36160W        W 7886   8.430  15.601   0.393
36161W        W 7887   2.941  10.581  14.417
36162W        W 7888  41.296  14.466   0.426
36163W        W 7889  32.663   2.462  14.846
36164W        W 7890  26.636  11.807   3.110
36165W        W 7891   3.913   6.389   2.418
36166W        W 7892  43.427  40.742  11.128
36167W        W 7893  24.644  37.130  14.389
36168W        W 7894  43.301  15.977   4.782
36169W        W 7895  28.394  15.116   3.075
36170W        W 7896  10.159  31.742   3.744
36171W        W 7897  26.466   5.244   3.080
36172W        W 7898  15.871  24.658   4.292
36173W        W 7899  16.101  18.516  14.441
36174W        W 7900  41.331  32.000  13.162
36175W        W 7901  33.422  10.107   0.425
36176W        W 7902  24.937  35.465   3.145
36177W        W 7903  11.693  37.517   1.184
36178W        W 7904  20.740  33.458  11.518
36179W        W 7905  13.766  25.087   4.088
36180W        W 7906  25.086  44.528  11.447
36181W        W 7907  35.885  35.827   2.345
36182W        W 7908  37.889   4.617   3.149
36183W        W 7909  40.529   0.284   3.203
36184W        W 7910  11.702   5.311  13.377
36185W        W 7911  17.237  34.454  11.126
36186W        W 7912   5.191  33.430  11.969
36187W        W 7913  12.704  32.677  14.130
36188W        W 7914   4.407  43.018  10.635
36189W        W 7915  44.817  37.576  14.812
36190W        W 7916  44.397  38.938  14.472
36191W        W 7917   0.722   2.991  14.471
36192W        W 7918   5.600   5.211  14.006
36193W        W 7919  33.649  32.446   2.262
36194W        W 7920  20.742  12.084  10.681
36195W        W 7921  33.155  17.359   0.869
36196W        W 7922  14.465  16.602   0.045
36197W        W 7923  10.956  35.361   1.296
36198W        W 7924   0.057  12.653   2.513
36199W        W 7925   8.751  42.968  13.405
36200W        W 7926   4.760  15.724   1.913
36201W        W 7927   5.020  25.137  11.555
36202W        W 7928   2.373  15.774   2.015
36203W        W 7929  16.387  20.804   4.179
36204W        W 7930   0.951  17.864  12.132
36205W        W 7931   4.423  13.874  12.420
36206W        W 7932  25.140  42.290  12.960
36207W        W 7933   8.312  22.012   0.348
36208W        W 7934  17.692  20.671  14.447
36209W        W 7935  27.020   8.761   0.924
36210W        W 7936   2.660   1.443   3.181
36211W        W 7937  17.808  33.901  11.121
36212W        W 7938   6.148  26.972  11.174
36213W        W 7939   2.334  14.901   0.022
36214W        W 7940  40.703  13.848  10.442
36215W        W 7941  27.935  12.663  12.898
36216W        W 7942  22.204   0.387  14.886
36217W        W 7943  36.928  23.798  14.315
36218W        W 7944  41.877  36.415   2.892
36219W        W 7945  38.801  30.695  12.493
36220W        W 7946  29.733  25.624  13.799
36221W        W 7947  30.990  37.383   1.696
36222W        W 7948  27.770   1.938   4.993
36223W        W 7949   6.374  37.575  14.439
36224W        W 7950  16.640  20.157  11.556
36225W        W 7951  32.095  21.955   3.549
36226W        W 7952   4.370  43.300  11.449
36227W        W 7953  27.243  21.633  13.916
36228W        W 7954  12.218  17.430   3.898
36229W        W 7955   7.345  17.127   4.630
36230W        W 7956  36.879  31.100  11.436
36231W        W 7957   5.762  40.184  12.004
36232W        W 7958  29.587   4.346  13.568
36233W        W 7959   4.196  33.749  11.906
36234W        W 7960  21.583  38.123  10.905
36235W        W 7961  42.038  20.844  10.379
36236W        W 7962  44.495  22.765   0.886
36237W        W 7963  12.546   7.885  14.487
36238W        W 7964  18.903  37.139  11.526
36239W        W 7965  31.890   4.261   2.871
36240W        W 7966  13.229  39.572   4.052
36241W        W 7967  42.891  33.038  14.939
36242W        W 7968  15.271   3.119   0.881
36243W        W 7969  21.681   4.438  11.887
36244W        W 7970  17.649  30.111  11.560
36245W        W 7971  26.403  40.882  13.164
36246W        W 7972  36.648  40.212  12.583
36247W        W 7973  22.560   6.651   2.376
36248W        W 7974  32.561  18.682  14.921
36249W        W 7975  40.915  19.512  12.059
36250W        W 7976  16.495  24.513  11.444
36251W        W 7977  40.315   9.939  11.865
36252W        W 7978   6.221  35.431  11.416
36253W        W 7979   5.827  14.896  13.884
36254W        W 7980  10.802  13.181   4.068
36255W        W 7981  23.701  13.058  10.959
36256W        W 7982  26.100  14.550  14.024
36257W        W 7983  12.121  41.887   4.822
36258W        W 7984  10.158  38.902  11.167
36259W        W 7985  19.597  12.318  11.454
36260W        W 7986   0.443  35.594   1.657
36261W        W 7987  27.090  39.839  10.924
36262W        W 7988  16.670   8.575   0.780
36263W        W 7989  39.494  21.076  11.574
36264W        W 7990  14.040  15.080  12.569
36265W        W 7991  33.955  20.603   2.160
36266W        W 7992  43.008  11.215   2.755
36267W        W 7993   6.842   4.521   9.717
36268W        W 7994   3.947  20.095  14.613
36269W        W 7995  37.802  24.570  11.957
36270W        W 7996   6.896  27.973   4.450
36271W        W 7997  20.952  10.600   3.784
36272W        W 7998  26.678   3.492   3.183
36273W        W 7999   2.922  43.915  13.336
36274W        W 8000  17.251   8.859  14.005
36275W        W 8001  33.918  31.425   1.871
36276W        W 8002   8.644  19.272   4.172
36277W        W 8003  30.542  30.586   1.006
36278W        W 8004  12.081   0.194  13.555
36279W        W 8005  24.250  12.425   4.775
36280W        W 8006  40.235  14.239   3.681
36281W        W 8007  11.836  18.806  11.932
36282W        W 8008  15.256  12.061   0.896
36283W        W 8009  20.221  12.832  10.707
36284W        W 8010   6.126  28.872   4.406
36285W        W 8011  13.969  35.314  12.868
36286W        W 8012  35.336   1.921  10.641
36287W        W 8013  33.135  12.110   0.818
36288W        W 8014  21.144  27.616  11.736
36289W        W 8015  29.348  25.282  13.921
36290W        W 8016   2.348   3.944   0.991
36291W        W 8017   2.311  43.593   0.448
36292W        W 8018   8.252  17.664  14.497
36293W        W 8019  35.781  23.129   0.427
36294W        W 8020  28.404   6.902  14.325
36295W        W 8021  25.032  40.787   2.753
36296W        W 8022   2.289   3.782   4.606
36297W        W 8023  10.267  17.810   3.037
36298W        W 8024  22.142  14.109   1.371
36299W        W 8025  13.071  43.419   0.386
36300W        W 8026  21.711  16.540  12.615
36301W        W 8027  31.927  21.905   4.620
36302W        W 8028  33.087  39.127   2.215
36303W        W 8029   6.302  10.425   4.310
36304W        W 8030   4.322  15.658   5.125
36305W        W 8031   0.327  29.601  13.613
36306W        W 8032  40.867  17.566  12.111
36307W        W 8033  26.113  10.573  14.586
36308W        W 8034  30.974  36.982  13.929
36309W        W 8035  26.991   7.676   1.630
36310W        W 8036  23.637  30.519  14.109
36311W        W 8037  38.124  41.007   2.720
36312W        W 8038  30.644  22.476  11.205
36313W        W 8039  39.050  21.224   4.582
36314W        W 8040  25.376  43.197  11.632
36315W        W 8041  25.594  16.276  12.852
36316W        W 8042  37.152  39.845  13.991
36317W        W 8043  17.611  24.568   3.743
36318W        W 8044  28.718  14.167   2.385
36319W        W 8045  26.669  14.682  14.379
36320W        W 8046  28.480  28.993   3.939
36321W        W 8047  24.211   1.733   2.831
36322W        W 8048   2.347  24.871   4.677
36323W        W 8049  16.139  39.857   4.114
36324W        W 8050  34.402   2.367   3.767
36325W        W 8051  17.239  13.847   3.193
36326W        W 8052  20.898   1.045   1.033
36327W        W 8053  15.265  31.947  11.960
36328W        W 8054  28.660  24.691  14.997
36329W        W 8055  18.435   2.900   0.727
36330W        W 8056  15.728  25.670  11.175
36331W        W 8057  15.186   2.615   0.762
36332W        W 8058   8.655  35.862  10.521
36333W        W 8059  10.107   7.578   3.308
36334W        W 8060  34.294  38.541   1.835
36335W        W 8061  29.845  10.915  12.543
36336W        W 8062  17.040  12.781   0.688
36337W        W 8063  42.911  37.393   1.945
36338W        W 8064  26.499  12.795   4.985
36339W        W 8065  30.554  44.930  13.028
36340W        W 8066   7.658  10.875   3.745
36341W        W 8067  19.530  44.782  11.613
36342W        W 8068   8.408  40.310   2.386
36343W        W 8069   3.889   2.856   3.218
36344W        W 8070  13.390  21.692  14.978
36345W        W 8071  25.055  19.785  12.598
36346W        W 8072  27.730  28.215  12.575
36347W        W 8073  17.715   3.727   4.145
36348W        W 8074  29.401  35.922  11.284
36349W        W 8075  40.494  20.293  10.897
36350W        W 8076   0.602   8.331  13.626
36351W        W 8077  15.993  31.401   1.441
36352W        W 8078  12.800  25.281  14.768
36353W        W 8079  42.936  20.946   2.769
36354W        W 8080  17.071   1.380  10.345
36355W        W 8081   3.023  26.709  11.064
36356W        W 8082  24.352  37.593  12.781
36357W        W 8083   4.367   3.842   3.648
36358W        W 8084  27.089  41.975  13.558
36359W        W 8085  44.778  25.887   4.173
36360W        W 8086  25.546  16.673   3.454
36361W        W 8087  27.204  19.189  11.061
36362W        W 8088  32.971  23.353  12.401
36363W        W 8089  14.163   3.527   2.896
36364W        W 8090  44.463  14.599  14.926
36365W        W 8091  38.574   7.163  10.355
36366W        W 8092  29.821  11.629   0.379
36367W        W 8093   7.889  39.029   3.203
36368W        W 8094  10.203  21.825  14.114
36369W        W 8095  13.119  25.065   3.220
36370W        W 8096   1.736   7.714  10.701
36371W        W 8097   3.833  11.342  13.401
36372W        W 8098  23.358  20.296  14.826
36373W        W 8099  26.500  35.452   4.837
36374W        W 8100  12.175  44.028   0.914
36375W        W 8101  34.450  33.345   2.456
36376W        W 8102  44.237  39.336   0.461
36377W        W 8103  44.083  18.180  13.112
36378W        W 8104  16.317  13.777   0.320
36379W        W 8105  36.308  26.983  14.947
36380W        W 8106   0.377  23.272   1.776
36381W        W 8107  30.939  26.284   3.299
36382W        W 8108  16.888  31.204   1.220
36383W        W 8109   6.789   1.671  11.678
36384W        W 8110  11.166   0.275   0.416
36385W        W 8111  38.425  18.762  14.273
36386W        W 8112  35.175  43.308   1.900
36387W        W 8113  23.459  43.890   3.886
36388W        W 8114  21.243  26.395  14.188
36389W        W 8115  38.584  33.397   4.407
36390W        W 8116   0.083  22.195  12.977
36391W        W 8117  34.592   9.132  11.606
36392W        W 8118   6.778  17.249  11.198
36393W        W 8119  36.813   9.836   0.327
36394W        W 8120  29.544  11.488  10.924
36395W        W 8121  16.431  16.594   3.628
36396W        W 8122   6.842  10.283  11.449
36397W        W 8123  40.325  19.165   4.696
36398W        W 8124  23.437  33.126  14.871
36399W        W 8125   3.944   6.663   2.840
36400W        W 8126  15.600   5.939   0.542
36401W        W 8127  19.663  30.923   1.328
36402W        W 8128   5.364  13.778   4.293
36403W        W 8129  23.034   6.725   4.619
36404W        W 8130   2.884  41.212  12.012
36405W        W 8131  22.218  35.289  14.328
36406W        W 8132  15.317  33.657   3.200
36407W        W 8133  17.162  30.242   2.913
36408W        W 8134   9.328  25.198   2.648
36409W        W 8135  18.617  19.221   1.025
36410W        W 8136   2.931  16.540  14.646
36411W        W 8137   6.316  22.015  13.902
36412W        W 8138  35.917  37.005  10.798
36413W        W 8139   3.444  16.305  12.701
36414W        W 8140  11.090  15.060  14.706
36415W        W 8141  33.641  24.704   2.547
36416W        W 8142   7.811  30.671  12.993
36417W        W 8143  36.006  12.815  12.452
36418W        W 8144   3.828   2.304  14.645
36419W        W 8145  21.177  17.571   1.373
36420W        W 8146  29.201  42.505   0.395
36421W        W 8147  14.680  28.736   4.179
36422W        W 8148   1.409   2.937  10.709
36423W        W 8149  12.786   9.199   3.552
36424W        W 8150  28.786  25.586   0.475
36425W        W 8151  16.748  15.619   1.876
36426W        W 8152  28.559  22.749  14.276
36427W        W 8153   8.467   4.721  10.486
36428W        W 8154   5.949  13.887   3.067
36429W        W 8155  26.110   3.162  11.594
36430W        W 8156   9.659  42.072   2.841
36431W        W 8157  10.128  44.057  13.980
36432W        W 8158  40.073  38.945   3.627
36433W        W 8159  43.673  44.970   4.066
36434W        W 8160  44.944  15.323   0.997
36435W        W 8161  25.781  16.586  14.926
36436W        W 8162  10.877   1.049   0.331
36437W        W 8163  32.396  41.504  12.239
36438W        W 8164  17.682  19.262  11.123
36439W        W 8165  32.600  36.141  11.553
36440W        W 8166  10.217   7.774   2.692
36441W        W 8167  13.076   1.973  11.113
36442W        W 8168  43.685  21.636   2.965
36443W        W 8169  11.675  16.585  11.127
36444W        W 8170  18.849  30.268  14.156
36445W        W 8171   9.641  10.179  12.818
36446W        W 8172   4.525  15.564  11.954
36447W        W 8173   8.446  37.409  14.898
36448W        W 8174   4.199  43.155   3.718
36449W        W 8175   0.827  12.742   3.389
36450W        W 8176  21.085  16.138   0.292
36451W        W 8177  21.350  37.188   1.943
36452W        W 8178   6.431   5.117   5.045
36453W        W 8179  11.432   3.172   4.648
36454W        W 8180  44.042  15.281   1.934
36455W        W 8181  16.542  12.663   4.251
36456W        W 8182  34.844  42.474  13.804
36457W        W 8183   8.337  10.986   0.847
36458W        W 8184  26.068  11.161  11.225
36459W        W 8185  41.025  37.352   1.379
36460W        W 8186  34.601  44.699  10.573
36461W        W 8187  35.075  37.960  12.789
36462W        W 8188   2.339  23.238  10.184
36463W        W 8189  20.509  30.550   3.285
36464W        W 8190   5.992   5.691   9.889
36465W        W 8191  44.011  38.370  11.974
36466W        W 8192   4.469  29.629  11.576
36467W        W 8193  42.063  22.656   5.157
36468W        W 8194  11.767   9.476  11.919
36469W        W 8195   2.694  11.948  10.740
36470W        W 8196  15.883  44.256  12.200
36471W        W 8197  36.872  43.855   2.715
36472W        W 8198  35.842  14.159  14.424
36473W        W 8199  43.853  23.566   4.167
36474W        W 8200  43.290  14.604   2.403
36475W        W 8201  37.389  31.362   0.341
36476W        W 8202  30.921  21.206   0.360
36477W        W 8203  12.073  20.598   1.883
36478W        W 8204  36.393  35.863  11.452
36479W        W 8205  11.181  11.382   0.958
36480W        W 8206  18.101  33.144   0.949
36481W        W 8207  23.688  30.195  13.156
36482W        W 8208   7.018  17.563   2.209
36483W        W 8209  17.033  15.506   3.665
36484W        W 8210   3.335  31.951   1.294
36485W        W 8211  36.845  13.132  13.080
36486W        W 8212   0.246  25.043  12.625
36487W        W 8213  14.262  30.469   0.930
36488W        W 8214  12.270  19.725  14.243
36489W        W 8215  15.531  38.392   0.492
36490W        W 8216  16.191  24.657   4.740
36491W        W 8217  40.825   4.831  12.921
36492W        W 8218   5.091  18.096  10.294
36493W        W 8219  15.136  25.598  14.708
36494W        W 8220  34.977  34.345   0.374
36495W        W 8221  43.081  31.506   4.682
36496W        W 8222  42.339   8.903   4.658
36497W        W 8223   0.939  22.034   4.609
36498W        W 8224  42.367  23.238  11.164
36499W        W 8225  41.467  10.791  14.585
36500W        W 8226  30.278  30.084   2.201
36501W        W 8227  40.717   3.215   0.008
36502W        W 8228  30.612  41.905   5.296
36503W        W 8229  22.057   8.307   4.230
36504W        W 8230  41.146   6.284  11.764
36505W        W 8231  14.728  10.327  12.482
36506W        W 8232  10.207  15.751  14.069
36507W        W 8233  16.353  10.784  10.555
36508W        W 8234  30.087  37.516   4.234
36509W        W 8235  23.507   6.776  14.750
36510W        W 8236   7.254  15.705   1.702
36511W        W 8237   3.351  16.264   2.415
36512W        W 8238  27.481   5.620  14.484
36513W        W 8239  31.148  23.484  14.848
36514W        W 8240  11.812  31.356  11.045
36515W        W 8241   8.890  25.172   3.075
36516W        W 8242  13.555  33.709   4.742
36517W        W 8243  31.873  15.161  11.708
36518W        W 8244  34.547  32.669  14.795
36519W        W 8245  17.491  36.888  11.562
36520W        W 8246  37.498   2.870  10.697
36521W        W 8247  10.858  27.452  11.199
36522W        W 8248  27.988  30.634   3.296
36523W        W 8249  36.799   2.973   1.269
36524W        W 8250  24.571   4.457  12.872
36525W        W 8251  29.905  42.204   4.250
36526W        W 8252  36.640  31.598  13.997
36527W        W 8253   3.302   3.301  10.954
36528W        W 8254  10.151   0.921  13.982
36529W        W 8255  42.439  40.960   4.185
36530W        W 8256  16.115  23.131  11.274
36531W        W 8257  26.994  18.199  13.092
36532W        W 8258  35.323  39.470   0.321
36533W        W 8259   2.877  11.524   0.362
36534W        W 8260  16.615  39.622  14.439
36535W        W 8261  11.903  27.956   0.435
36536W        W 8262   1.429  18.026  10.986
36537W        W 8263  40.032  35.363   1.810
36538W        W 8264   4.521  22.071   4.792
36539W        W 8265  32.557  18.320   3.235
36540W        W 8266  21.652  11.172  12.367
36541W        W 8267  26.015  27.076  13.424
36542W        W 8268  26.066  30.197   1.178
36543W        W 8269   8.724  28.639  11.001
36544W        W 8270  35.333  26.041  11.133
36545W        W 8271  36.777  16.971   1.287
36546W        W 8272  44.901  43.412   4.494
36547W        W 8273  26.170  32.663  10.501
36548W        W 8274  10.144   4.769  14.229
36549W        W 8275   1.506  26.205   3.740
36550W        W 8276   1.236  22.565  13.278
36551W        W 8277  37.407   3.947  11.882
36552W        W 8278   5.327  13.497   1.666
36553W        W 8279  23.839   2.498  10.791
36554W        W 8280  17.175  32.952   1.162
36555W        W 8281  39.285   2.444  12.840
36556W        W 8282  27.132  26.811   0.519
36557W        W 8283   3.154  20.995   2.274
36558W        W 8284  18.603  35.133   2.037
36559W        W 8285  21.548  16.136   4.668
36560W        W 8286  21.782   0.236  13.825
36561W        W 8287   0.195  16.395  13.546
36562W        W 8288  32.765  30.638   0.096
36563W        W 8289   9.277  16.029  14.839
36564W        W 8290  38.024   9.392   1.378
36565W        W 8291  39.427  43.387   2.199
36566W        W 8292   2.519  30.440   3.475
36567W        W 8293   2.701   0.870  13.420
36568W        W 8294  18.207   0.514   4.326
36569W        W 8295   2.325  20.563   4.358
36570W        W 8296   2.261   4.441   3.023
36571W        W 8297  22.028  30.523  13.947
36572W        W 8298   4.140  10.367  14.739
36573W        W 8299  38.507  43.040  11.379
36574W        W 8300  28.551   1.746  11.902
36575W        W 8301  39.162  44.887  14.054
36576W        W 8302   8.864  16.084  14.100
36577W        W 8303  44.248   8.957  11.277
36578W        W 8304  26.199  11.327   0.139
36579W        W 8305  38.789  15.174   2.064
36580W        W 8306  42.744  25.022   1.302
36581W        W 8307   6.704   1.380   2.241
36582W        W 8308  33.789  26.575  10.475
36583W        W 8309  22.249   0.026   1.517
36584W        W 8310  15.869  33.766  10.698
36585W        W 8311  29.730  39.101  11.012
36586W        W 8312  40.319  37.934   2.202
36587W        W 8313   8.878  36.342   0.388
36588W        W 8314  14.484  22.226   2.883
36589W        W 8315   7.316  41.104   1.797
36590W        W 8316  41.404  38.223  14.268
36591W        W 8317  38.615  22.335  10.395
36592W        W 8318  34.926   1.471  14.670
36593W        W 8319  15.030  24.689  14.054
36594W        W 8320  33.400  21.531   1.759
36595W        W 8321   6.319  13.558   4.547
36596W        W 8322  39.787   5.214  12.043
36597W        W 8323  28.829  27.213  13.876
36598W        W 8324   8.214  29.466   0.499
36599W        W 8325  29.145  44.917   0.803
36600W        W 8326  35.995  20.079   1.965
36601W        W 8327  32.165   8.665   0.380
36602W        W 8328   0.308  40.491   2.854
36603W        W 8329  21.802  19.870  11.457
36604W        W 8330  18.800  30.119   2.432
36605W        W 8331  38.829  37.242  11.574
36606W        W 8332  37.589  37.006  13.957
36607W        W 8333  43.385   8.439   4.298
36608W        W 8334   0.921  24.703   2.295
36609W        W 8335  14.374  18.529   0.751
36610W        W 8336  37.220  24.449   1.672
36611W        W 8337  19.667   4.737   4.276
36612W        W 8338  20.990  10.883   4.788
36613W        W 8339   4.480  43.775   1.256
36614W        W 8340  14.126  13.569  14.733
36615W        W 8341  16.282  34.511   0.088
36616W        W 8342  36.405  37.457  12.346
36617W        W 8343  24.846  33.090   1.873
36618W        W 8344   6.850  18.403   4.873
36619W        W 8345  25.522  36.322   1.860
36620W        W 8346   9.230   7.117  11.113
36621W        W 8347  14.108   1.452   2.246
36622W        W 8348  23.208  10.885   2.807
36623W        W 8349  16.626  15.852   4.989
36624W        W 8350  11.814   9.780   2.430
36625W        W 8351   8.891  33.531  10.288
36626W        W 8352  36.830  15.069  11.532
36627W        W 8353  32.363   2.467   3.392
36628W        W 8354  10.708  38.411  10.578
36629W        W 8355  15.535  27.458   1.255
36630W        W 8356  35.507  41.930  13.508
36631W        W 8357  36.526  16.660  10.691
36632W        W 8358  27.843  10.180  10.681
36633W        W 8359  40.793  35.038   0.423
36634W        W 8360  33.006  17.863  12.178
36635W        W 8361   9.371   0.910   1.831
36636W        W 8362  10.257  19.220   0.891
36637W        W 8363  24.857  25.557   4.137
36638W        W 8364  23.526  24.925  13.377
36639W        W 8365  10.884  31.171   2.177
36640W        W 8366  22.750   1.777   2.783
36641W        W 8367  44.225  42.588   4.906
36642W        W 8368  22.547  18.236  11.198
36643W        W 8369  40.968   1.275  13.328
36644W        W 8370  20.964  19.486   1.183
36645W        W 8371  42.979   7.126   1.782
36646W        W 8372   1.707  39.566  12.196
36647W        W 8373  19.127  25.607  14.399
36648W        W 8374  35.750  42.236  14.302
36649W        W 8375  42.597  41.491   2.737
36650W        W 8376  38.013   3.475   0.177
36651W        W 8377  23.284  28.499  14.972
36652W        W 8378  44.007  31.049  10.939
36653W        W 8379  17.846  13.763   3.600
36654W        W 8380  43.653  28.239   3.400
36655W        W 8381  12.400  27.626  13.330
36656W        W 8382   8.120  29.988  14.785
36657W        W 8383   6.924  34.094  13.001
36658W        W 8384  25.554  41.899  14.441
36659W        W 8385  21.456   7.738  12.630
36660W        W 8386  23.302  39.900   4.533
36661W        W 8387  33.174  42.863   1.668
36662W        W 8388  38.512  21.307   3.679
36663W        W 8389   5.848  17.136  12.451
36664W        W 8390  12.309  24.977  12.416
36665W        W 8391  35.325   1.007   2.716
36666W        W 8392   9.671  36.124   2.188
36667W        W 8393  12.989  13.710  13.001
36668W        W 8394  16.601  42.293   0.711
36669W        W 8395   6.803  42.294   0.767
36670W        W 8396  41.005  31.931  10.782
36671W        W 8397  25.923  23.497   4.197
36672W        W 8398  16.980   6.743   3.226
36673W        W 8399  16.399  30.046   2.514
36674W        W 8400  14.749  44.818   1.031
36675W        W 8401  16.349   3.526  13.791
36676W        W 8402  10.407  31.311  10.821
36677W        W 8403   3.202  41.523   4.345
36678W        W 8404  43.987  20.134   4.030
36679W        W 8405  30.472  37.372   1.882
36680W        W 8406  30.098  24.676   0.269
36681W        W 8407  40.343   7.870   4.177
36682W        W 8408  21.753  17.204   3.143
36683W        W 8409   2.072  16.277  12.483
36684W        W 8410  21.480  28.746   4.408
36685W        W 8411  15.621  36.791  10.747
36686W        W 8412  21.215  41.775  10.482
36687W        W 8413  18.573  25.359  14.477
36688W        W 8414  27.805   9.454  13.038
36689W        W 8415  40.551  35.742  14.266
36690W        W 8416  41.459   6.417  14.027
36691W        W 8417  44.058  30.535   2.394
36692W        W 8418  40.821  32.955   3.615
36693W        W 8419  13.603  23.764  11.971
36694W        W 8420  25.436  14.321   0.857
36695W        W 8421   2.742  44.714   3.170
36696W        W 8422  34.862  35.919  12.881
36697W        W 8423  39.391  11.431  13.539
36698W        W 8424  20.740  42.277   2.328
36699W        W 8425  17.141  32.041  12.647
36700W        W 8426  14.269   4.198   1.948
36701W        W 8427  31.050  10.057  14.943
36702W        W 8428  22.635  25.125   5.171
36703W        W 8429  18.304  17.623  11.501
36704W        W 8430  18.345  43.577   1.275
36705W        W 8431  26.089  40.149  11.852
36706W        W 8432  29.098   2.771  12.525
36707W        W 8433  20.769  33.399   0.475
36708W        W 8434   7.189  29.661  13.242
36709W        W 8435  15.341   3.414  13.618
36710W        W 8436  15.664  15.040   1.521
36711W        W 8437  16.553  17.270  11.104
36712W        W 8438   0.244  30.000  10.714
36713W        W 8439  30.991  20.217   1.242
36714W        W 8440  32.638  32.530   3.786
36715W        W 8441   6.247  31.502   1.229
36716W        W 8442  15.533   6.872  13.622
36717W        W 8443  42.994  36.533  11.648
36718W        W 8444   9.186   3.267  10.116
36719W        W 8445  15.757  39.573  11.276
36720W        W 8446  33.125  37.023   1.725
36721W        W 8447   6.161  18.078  10.513
36722W        W 8448  42.436  16.972  13.389
36723W        W 8449  42.394  44.874   1.395
36724W        W 8450  44.092  19.428  13.555
36725W        W 8451   9.860  32.596   3.381
36726W        W 8452  34.829  13.587  10.864
36727W        W 8453  28.564  42.427   1.909
36728W        W 8454  26.416  19.277   1.717
36729W        W 8455  22.849  34.688   1.637
36730W        W 8456   0.814  14.792  14.444
36731W        W 8457  32.965  11.740  10.957
36732W        W 8458  34.194  21.455  10.465
36733W        W 8459   1.933  18.111  11.023
36734W        W 8460  39.011   8.839   3.628
36735W        W 8461   8.667  21.182  13.899
36736W        W 8462  18.410   8.811  12.990
36737W        W 8463  43.039  43.815   2.317
36738W        W 8464  10.922  10.265   0.298
36739W        W 8465  32.066  26.485  11.123
36740W        W 8466  40.115  23.206   3.271
36741W        W 8467  28.489  23.468   4.611
36742W        W 8468  32.925  31.266  11.230
36743W        W 8469  34.506   7.515   2.907
36744W        W 8470  25.052   4.644  12.906
36745W        W 8471  10.453   6.401   4.096
36746W        W 8472   4.475  39.060   1.327
36747W        W 8473  31.002   2.017   2.289
36748W        W 8474  23.239  39.226   1.812
36749W        W 8475  34.946  29.472  13.110
36750W        W 8476  38.451  11.305   2.722
36751W        W 8477  25.028   0.706   5.028
36752W        W 8478  27.993  32.030   2.139
36753W        W 8479  32.544  42.985  10.659
36754W        W 8480  12.769   0.466   1.341
36755W        W 8481  15.681  12.638   4.031
36756W        W 8482  12.639  29.430  11.956
36757W        W 8483   1.632  17.727   3.838
36758W        W 8484  13.831  29.913   2.821
36759W        W 8485  38.665  31.636   1.798
36760W        W 8486  19.706  35.698  10.538
36761W        W 8487  18.132  12.354  14.304
36762W        W 8488  36.488  12.636  12.646
36763W        W 8489  42.522  34.634   0.472
36764W        W 8490  17.241   4.268   5.075
36765W        W 8491   7.828  18.567   0.902
36766W        W 8492   6.780  23.589  14.956
36767W        W 8493  11.800  14.251   3.411
36768W        W 8494  11.279  27.035   1.781
36769W        W 8495   2.522  12.877   4.589
36770W        W 8496  17.745  41.409   0.023
36771W        W 8497  19.302  36.822   1.318
36772W        W 8498   7.317  21.229  12.527
36773W        W 8499  10.493  27.680  11.578
36774W        W 8500   6.666  10.272   5.114
36775W        W 8501   6.452  39.469  10.473
36776W        W 8502  24.471  37.010   3.316
36777W        W 8503  14.864   7.328   2.792
36778W        W 8504  29.139  19.410   4.195
36779W        W 8505  30.872  42.717  13.315
36780W        W 8506   8.895  41.115  11.078
36781W        W 8507   7.567  14.440   3.998
36782W        W 8508   3.218  13.078  14.521
36783W        W 8509  33.737   2.691  14.285
36784W        W 8510   2.941  37.184  10.998
36785W        W 8511  29.580  36.885   3.043
36786W        W 8512  35.990  28.182   2.842
36787W        W 8513  39.439  18.106  11.880
36788W        W 8514   6.399  36.199  13.416
36789W        W 8515  30.122  19.262   2.227
36790W        W 8516  24.056  36.850  11.168
36791W        W 8517  43.129  25.717  11.070
36792W        W 8518  31.548  33.647   3.155
36793W        W 8519  24.048   7.584   3.611
36794W        W 8520   8.964  27.111  13.944
36795W        W 8521  20.462  10.089  13.972
36796W        W 8522   7.898   9.424   2.858
36797W        W 8523  35.397   2.445  12.961
36798W        W 8524  41.576  14.379   3.187
36799W        W 8525  23.987  26.425   1.336
36800W        W 8526  32.029  25.399   4.171
36801W        W 8527   3.852  42.662   3.155
36802W        W 8528  34.409   9.477   3.455
36803W        W 8529  39.954   5.768  10.441
36804W        W 8530  13.700  10.387  10.328
36805W        W 8531   7.334  17.638   1.791
36806W        W 8532   6.470  32.980   0.306
36807W        W 8533  10.433   6.395  12.916
36808W        W 8534  15.720  19.751  12.219
36809W        W 8535   0.259  12.918   4.665
36810W        W 8536  24.088  28.549   2.238
36811W        W 8537  29.625  24.463   0.467
36812W        W 8538  38.182   4.595  11.966
36813W        W 8539  25.514  41.570   4.639
36814W        W 8540  21.628  26.958  14.224
36815W        W 8541  19.779  20.668  12.623
36816W        W 8542  18.814   1.914  13.954
36817W        W 8543  22.190  38.421  12.287
36818W        W 8544  31.420  10.218  10.370
36819W        W 8545  17.628  39.791   0.213
36820W        W 8546  17.141  28.952  14.291
36821W        W 8547  31.038  27.678  14.056
36822W        W 8548  28.862  12.017   0.267
36823W        W 8549  11.878   7.202  14.967
36824W        W 8550  12.505  31.639   1.233
36825W        W 8551   8.368  39.819   0.961
36826W        W 8552   6.130   7.159   5.415
36827W        W 8553  20.277  11.368   1.407
36828W        W 8554  15.337  42.090  14.014
36829W        W 8555  18.637  26.802  13.399
36830W        W 8556  43.514  29.007  10.755
36831W        W 8557  31.414   0.297  14.886
36832W        W 8558   2.185  14.913  14.539
36833W        W 8559  34.350  27.894   3.696
36834W        W 8560  40.865   3.551   2.445
36835W        W 8561  35.135   2.008   3.725
36836W        W 8562  29.476  32.975  12.565
36837W        W 8563  11.392   5.140  14.870
36838W        W 8564  32.514  15.978   0.842
36839W        W 8565  39.334   4.935  14.960
36840W        W 8566  25.124  32.655  12.423
36841W        W 8567  32.487   5.852  11.931
36842W        W 8568  43.824  44.178   4.466
36843W        W 8569  32.185   6.794   1.404
36844W        W 8570  42.769  28.642   3.924
36845W        W 8571   8.010  29.523  14.081
36846W        W 8572  40.260  10.608   3.653
36847W        W 8573   7.776   7.940  13.976
36848W        W 8574   7.605  43.706   3.312
36849W        W 8575  14.114  21.688  11.546
36850W        W 8576  43.587  27.071  13.122
36851W        W 8577   1.376  38.110   1.928
36852W        W 8578  31.158  38.571  13.142
36853W        W 8579  19.584  44.014   3.675
36854W        W 8580  31.025  38.146  11.843
36855W        W 8581  37.719  40.528   3.823
36856W        W 8582   5.650  16.683  14.031
36857W        W 8583   5.125   7.587  10.213
36858W        W 8584  30.557  32.006  14.865
36859W        W 8585  22.158  17.139   1.188
36860W        W 8586  13.925   2.879  10.762
36861W        W 8587  39.048  10.889   2.889
36862W        W 8588  16.057   5.733  14.770
36863W        W 8589  16.558  30.349  12.517
36864W        W 8590  38.517  16.025   2.776
36865W        W 8591  24.224  17.735   1.192
36866W        W 8592   4.878  36.075   1.939
36867W        W 8593  12.829  42.787  13.475
36868W        W 8594  36.385   7.277   3.771
36869W        W 8595  19.454  17.517   4.459
36870W        W 8596   7.881  23.171   1.659
36871W        W 8597   8.769  37.933   4.768
36872W        W 8598  18.681   7.549  13.561
36873W        W 8599   8.117  11.474   3.563
36874W        W 8600  21.013  26.433   0.274
36875W        W 8601   8.594  33.547   5.158
36876W        W 8602   5.281   4.513   4.115
36877W        W 8603   7.723  38.288   3.687
36878W        W 8604   8.203  13.657  12.065
36879W        W 8605  10.910   2.922   1.996
36880W        W 8606  38.539  40.336   3.681
36881W        W 8607  25.914  19.627  14.042
36882W        W 8608  13.199   7.244   4.996
36883W        W 8609  42.349  39.219  13.567
36884W        W 8610  28.664   6.243  10.463
36885W        W 8611   1.381   6.328   0.315
36886W        W 8612  30.301  29.589   1.890
36887W        W 8613  14.288  21.429   1.380
36888W        W 8614   2.174  24.591  12.387
36889W        W 8615  11.765  29.935  14.914
36890W        W 8616  11.196  39.027   2.817
36891W        W 8617  27.598   9.901   4.101
36892W        W 8618  11.527   8.598   1.721
36893W        W 8619  23.030  12.878   3.263
36894W        W 8620  14.095   4.180   3.331
36895W        W 8621   6.949  28.079   3.534
36896W        W 8622  27.536   3.208   2.277
36897W        W 8623   3.415  25.597   4.580
36898W        W 8624  33.211  35.636   1.669
36899W        W 8625  41.402   0.524   0.361
36900W        W 8626  31.458  42.596  14.672
36901W        W 8627  29.001   1.724   1.252
36902W        W 8628  16.743   6.529   0.330
36903W        W 8629  26.634  24.978   0.260
36904W        W 8630  43.569  18.604  14.355
36905W        W 8631  40.953  11.356  14.914
36906W        W 8632  28.688   0.758  11.097
36907W        W 8633  19.578  12.114   1.301
36908W        W 8634   6.854  29.493   0.515
36909W        W 8635  12.115  32.423  12.422
36910W        W 8636   9.354  40.609  13.347
36911W        W 8637  31.110  18.398   5.079
36912W        W 8638   0.910  40.497   3.093
36913W        W 8639  17.247  15.783  12.370
36914W        W 8640  13.767  36.995  12.069
36915W        W 8641   4.891  40.873   2.364
36916W        W 8642  44.837  41.575   4.679
36917W        W 8643  42.687   4.276   2.804
36918W        W 8644  13.567   1.991  13.325
36919W        W 8645  41.215  17.550  10.614
36920W        W 8646  27.479  42.700  11.997
36921W        W 8647   8.223   0.270  13.453
36922W        W 8648   8.272  22.866  13.924
36923W        W 8649  15.834   6.011   2.828
36924W        W 8650  15.059  27.036   3.823
36925W        W 8651  42.438  30.720  12.429
36926W        W 8652  27.881  17.245   2.329
36927W        W 8653  42.775   3.425  13.451
36928W        W 8654  36.515   9.825   1.360
36929W        W 8655  32.963  23.561  11.541
36930W        W 8656  18.274   5.926   3.111
36931W        W 8657   2.837  33.586   1.789
36932W        W 8658  26.515  24.074   4.567
36933W        W 8659  19.759  41.785  11.524
36934W        W 8660   1.068  40.709   2.649
36935W        W 8661  21.870  32.505  12.699
36936W        W 8662  12.666  23.919  11.175
36937W        W 8663  41.779   3.776  13.028
36938W        W 8664  15.645  10.270   5.246
36939W        W 8665  38.849   3.353   2.135
36940W        W 8666  39.780  15.620   4.077
36941W        W 8667  38.954  11.221   1.484
36942W        W 8668  17.777  18.802   3.725
36943W        W 8669  18.773  41.477   4.599
36944W        W 8670   3.204   1.783   4.611
36945W        W 8671   0.759  38.981  11.074
36946W        W 8672  25.242   9.873  14.042
36947W        W 8673  32.699   7.914   0.686
36948W        W 8674  41.408  32.883  12.518
36949W        W 8675  40.469  11.153  11.145
36950W        W 8676  20.112  25.186   1.696
36951W        W 8677  36.082  36.525  12.090
36952W        W 8678   3.418   7.116   4.726
36953W        W 8679  10.654   1.940   2.833
36954W        W 8680  37.989  25.553   4.814
36955W        W 8681  26.715  21.060   4.212
36956W        W 8682  30.346  44.905  14.402
36957W        W 8683  29.650  38.478   3.085
36958W        W 8684  23.489  34.697   0.631
36959W        W 8685  26.474   3.190  12.111
36960W        W 8686  15.700  16.337  14.912
36961W        W 8687   1.984  26.376  11.223
36962W        W 8688  27.265  13.389   3.687
36963W        W 8689  15.349   9.680  12.408
36964W        W 8690   9.138   7.772   2.172
36965W        W 8691  17.296   3.878  11.428
36966W        W 8692  22.288  32.832  12.526
36967W        W 8693  40.797  21.022   0.012
36968W        W 8694  20.027  10.178   0.938
36969W        W 8695   2.868   8.181   1.660
36970W        W 8696  37.826  17.839   3.809
36971W        W 8697  14.538  29.091   2.812
36972W        W 8698  15.380  34.438   1.235
36973W        W 8699  14.665   7.941  11.118
36974W        W 8700  16.554   6.740   4.162
36975W        W 8701  16.202  21.222   2.787
36976W        W 8702  27.446  42.829   4.321
36977W        W 8703   6.350   2.242  13.179
36978W        W 8704  32.606  22.175  13.019
36979W        W 8705  34.398  14.836   0.262
36980W        W 8706  30.508   0.882   0.423
36981W        W 8707  14.637  17.754   4.568
36982W        W 8708  18.009  39.019   3.625
36983W        W 8709  13.825  38.511  12.024
36984W        W 8710  24.271  26.620   3.613
36985W        W 8711   9.440  39.936   1.871
36986W        W 8712  19.136  29.871   1.652
36987W        W 8713  36.634  24.106  10.767
36988W        W 8714  41.933  22.107  13.025
36989W        W 8715  43.986   4.263  11.959
36990W        W 8716   5.515  32.220   3.648
36991W        W 8717  30.904  17.659   4.449
36992W        W 8718  42.666  27.340   3.878
36993W        W 8719  26.651  16.598  12.523
36994W        W 8720  29.963  21.255   4.596
36995W        W 8721   2.511  31.922   2.931
36996W        W 8722  23.774  32.289  12.030
36997W        W 8723  44.982  23.655   0.733
36998W        W 8724  13.185  11.144  11.558
36999W        W 8725  29.213  13.746  10.960
37000W        W 8726  39.886  41.957  12.368
37001W        W 8727  27.127  11.375   1.885
37002W        W 8728  10.079   1.440   3.687
37003W        W 8729  28.223  30.682  10.973
37004W        W 8730  34.017   5.868   3.379
37005W        W 8731   4.764  42.911   3.669
37006W        W 8732  26.401  32.558  13.757
37007W        W 8733   4.790   4.527   2.243
37008W        W 8734  21.682  20.554  13.043
37009W        W 8735  38.136  27.920  10.262
37010W        W 8736  33.587  34.836   1.292
37011W        W 8737   4.975  20.714  12.436
37012W        W 8738  29.776  31.504  13.029
37013W        W 8739  23.480   5.439   4.577
37014W        W 8740   4.901  24.427   0.382
37015W        W 8741   9.803  27.709  12.484
37016W        W 8742   2.414  41.306  10.332
37017W        W 8743  28.640  33.234   0.006
37018W        W 8744  15.632   0.044  12.532
37019W        W 8745  21.906  18.823  11.137
37020W        W 8746  36.482  35.521   1.630
37021W        W 8747  42.999  35.952  13.303
37022W        W 8748  17.189   7.163   1.674
37023W        W 8749  41.966  20.948   0.940
37024W        W 8750  12.474   8.860   3.313
37025W        W 8751   2.362  34.824   3.615
37026W        W 8752   4.754  41.792  12.028
37027W        W 8753  26.852  24.574  14.385
37028W        W 8754  32.289   4.167   1.915
37029W        W 8755   8.508  24.886  14.001
37030W        W 8756  25.026  29.756   3.625
37031W        W 8757  24.835  18.356  11.113
37032W        W 8758  13.400  12.821   0.969
37033W        W 8759  13.669   5.452   2.716
37034W        W 8760   9.777  44.279   2.865
37035W        W 8761  17.294  23.058  12.315
37036W        W 8762  30.782  44.728   1.104
37037W        W 8763   9.319  13.118   0.389
37038W        W 8764  36.352  10.875   4.087
37039W        W 8765  40.425   2.441  14.292
37040W        W 8766  27.147  24.097   1.831
37041W        W 8767   4.658  25.730  13.620
37042W        W 8768  32.575  30.871  11.928
37043W        W 8769  19.634  27.423  12.389
37044W        W 8770  12.735  37.032  11.226
37045W        W 8771  24.580  22.561   1.920
37046W        W 8772   1.870   7.401  13.369
37047W        W 8773  22.929  34.170   1.789
37048W        W 8774  13.851   1.926  11.036
37049W        W 8775  41.422  21.533  10.629
37050W        W 8776  15.431  35.624   0.409
37051W        W 8777  35.029  39.936   1.464
37052W        W 8778  42.094  26.451   0.853
37053W        W 8779   9.687  18.899   1.655
37054W        W 8780  33.419  21.511  12.993
37055W        W 8781  43.546  44.465  13.026
37056W        W 8782  29.156  39.353  14.784
37057W        W 8783  42.493  37.615   0.234
37058W        W 8784   9.500   9.932  14.528
37059W        W 8785   9.778  21.283  12.420
37060W        W 8786  33.447  12.886   4.597
37061W        W 8787   6.657  18.062  14.455
37062W        W 8788  42.222   6.579   4.722
37063W        W 8789  14.550  42.746  14.883
37064W        W 8790  11.236  38.145  10.707
37065W        W 8791  41.846  30.876   4.444
37066W        W 8792   0.960  10.671   4.565
37067W        W 8793  26.542  31.024   4.697
37068W        W 8794  21.778  27.969  14.361
37069W        W 8795   9.567  31.391  14.784
37070W        W 8796  14.162  34.892  11.511
37071W        W 8797  25.812  27.150  12.930
37072W        W 8798  41.529  30.904   1.410
37073W        W 8799   9.772  26.907   0.332
37074W        W 8800  22.250  35.890  11.897
37075W        W 8801  25.652  11.372   1.961
37076W        W 8802  31.469  17.553  14.956
37077W        W 8803  38.393  23.509   0.892
37078W        W 8804   2.251   5.079  10.008
37079W        W 8805  24.908  29.963  11.536
37080W        W 8806  17.512  17.633   2.360
37081W        W 8807   4.458  40.075   1.482
37082W        W 8808  19.306   9.447   2.742
37083W        W 8809   9.620   1.493   4.639
37084W        W 8810  22.781  17.166   5.117
37085W        W 8811  40.516   0.391  11.888
37086W        W 8812  20.326  23.621  10.287
37087W        W 8813  42.244  43.707   2.664
37088W        W 8814  31.983  17.139  10.360
37089W        W 8815  20.997  10.609  11.176
37090W        W 8816  10.355  32.553   3.491
37091W        W 8817  39.337  33.280  11.571
37092W        W 8818  14.230  18.234   0.337
37093W        W 8819  44.006  30.927   1.717
37094W        W 8820   1.792  10.386   2.821
37095W        W 8821  35.821  20.188   2.897
37096W        W 8822  42.014   3.265   0.736
37097W        W 8823   4.613  15.215  14.490
37098W        W 8824  26.695  11.839   0.757
37099W        W 8825  34.126   2.422  13.360
37100W        W 8826  19.571  38.378   4.642
37101W        W 8827  10.603  32.182   3.095
37102W        W 8828   3.650  27.714  12.066
37103W        W 8829  43.275  11.513   3.742
37104W        W 8830  22.079  15.897  11.850
37105W        W 8831   0.370   2.879  14.078
37106W        W 8832  34.094  20.232  11.852
37107W        W 8833  25.708  28.054   1.330
37108W        W 8834   8.673   7.453   3.367
37109W        W 8835  42.866  19.370   1.857
37110W        W 8836  27.073   1.311  10.052
37111W        W 8837  10.818  24.058   5.107
37112W        W 8838  33.042  32.179  11.655
37113W        W 8839   1.546  30.491   3.272
37114W        W 8840  38.403  18.169   0.329
37115W        W 8841  20.676  21.386  14.479
37116W        W 8842  42.250  19.751  11.473
37117W        W 8843   1.246  20.125   3.195
37118W        W 8844  26.206   4.252  10.586
37119W        W 8845   0.274   1.801  14.252
37120W        W 8846  14.171  38.742  13.299
37121W        W 8847  13.862  41.927   1.852
37122W        W 8848  10.357  32.164  11.225
37123W        W 8849   5.823   6.195   9.969
37124W        W 8850  27.144  27.426   1.292
37125W        W 8851  11.762   4.418   3.297
37126W        W 8852  44.255  36.399  13.199
37127W        W 8853   0.247  19.175   0.495
37128W        W 8854  24.890  38.316   4.532
37129W        W 8855  16.677  28.732  11.626
37130W        W 8856  20.714  44.931  14.964
37131W        W 8857  44.007   9.424   0.416
37132W        W 8858  27.297  26.467   0.129
37133W        W 8859  26.133  10.402   4.323
37134W        W 8860  27.482  15.489  12.261
37135W        W 8861   7.848   8.958   4.556
37136W        W 8862  10.763  21.063  10.841
37137W        W 8863  25.764  14.247  12.936
37138W        W 8864   2.043  22.953  13.346
37139W        W 8865  27.142  34.784   4.330
37140W        W 8866   9.597  38.711   0.003
37141W        W 8867  18.044  27.449  13.215
37142W        W 8868  16.740  42.730  11.246
37143W        W 8869  25.853   2.047  14.427
37144W        W 8870  19.230  26.216  11.711
37145W        W 8871  26.015   6.966   3.868
37146W        W 8872  10.193  23.183  11.641
37147W        W 8873  24.813  32.186  14.349
37148W        W 8874  44.759  39.366   0.439
37149W        W 8875  13.216  26.921  14.033
37150W        W 8876  44.756  42.765   0.327
37151W        W 8877  12.406  42.350   1.334
37152W        W 8878  33.627   3.889   4.289
37153W        W 8879  42.304   7.314  14.719
37154W        W 8880  32.905  25.570   5.018
37155W        W 8881  36.755  17.358   4.999
37156W        W 8882   4.657  13.942   2.286
37157W        W 8883   6.801  42.875  11.535
37158W        W 8884  28.140  12.900  12.488
37159W        W 8885   7.162  13.677  11.730
37160W        W 8886  18.487  44.214  14.980
37161W        W 8887  19.019  41.915   2.838
37162W        W 8888  44.929  20.614  11.499
37163W        W 8889  12.541  36.826  14.833
37164W        W 8890   8.286  32.127   3.296
37165W        W 8891   8.601   5.172  10.715
37166W        W 8892  36.520  42.859  12.605
37167W        W 8893  31.347  38.790   1.271
37168W        W 8894  34.127  24.982   3.887
37169W        W 8895  27.146  23.569   4.804
37170W        W 8896   0.733  14.097  11.989
37171W        W 8897  41.241  38.410   1.242
37172W        W 8898   8.747  17.412  11.405
37173W        W 8899  12.136  38.900   0.555
37174W        W 8900   7.326  40.808   4.743
37175W        W 8901   1.864   6.149  14.474
37176W        W 8902  17.734  37.378   4.366
37177W        W 8903   7.294  26.613  12.913
37178W        W 8904  30.546  15.660   3.811
37179W        W 8905  24.276   8.883  10.318
37180W        W 8906   2.489  17.190   4.137
37181W        W 8907  26.734  42.166   4.288
37182W        W 8908  18.985   1.159  11.670
37183W        W 8909   6.619  37.232  12.817
37184W        W 8910  21.905  14.568   4.191
37185W        W 8911  38.370  41.135   2.261
37186W        W 8912  33.788  33.524  12.897
37187W        W 8913  39.484   6.669   1.939
37188W        W 8914   5.238  40.316  10.579
37189W        W 8915   5.668  21.784   1.439
37190W        W 8916  23.170  14.845  13.231
37191W        W 8917  43.332  29.911  13.332
37192W        W 8918   0.952  38.630   0.508
37193W        W 8919  44.088   7.677  12.856
37194W        W 8920   4.006  36.162  12.032
37195W        W 8921  35.365   9.254   2.354
37196W        W 8922  29.451   0.274   1.509
37197W        W 8923  35.335  23.605   2.717
37198W        W 8924   3.315  11.639   2.275
37199W        W 8925  13.593  10.221  12.824
37200W        W 8926  12.767   7.446  13.545
37201W        W 8927  14.116  22.648   4.437
37202W        W 8928  28.434   6.246  14.087
37203W        W 8929  21.974  28.907   2.190
37204W        W 8930  19.214  13.590   3.920
37205W        W 8931  10.355   5.641   5.023
37206W        W 8932  18.573  42.576   1.343
37207W        W 8933  29.130  31.379   1.470
37208W        W 8934  38.360  29.970  14.406
37209W        W 8935  37.002  25.126   2.996
37210W        W 8936  37.902   3.248  12.912
37211W        W 8937   7.116  41.900  13.921
37212W        W 8938   4.285   3.349  11.164
37213W        W 8939  19.079  20.581  10.771
37214W        W 8940  19.962   7.318   0.798
37215W        W 8941  37.616  15.648  10.694
37216W        W 8942   1.953  35.182   4.965
37217W        W 8943   6.890  23.886  11.166
37218W        W 8944  11.121  22.316  11.010
37219W        W 8945  38.387  21.994  13.500
37220W        W 8946  17.372  23.674   4.974
37221W        W 8947  40.050  34.719   4.792
37222W        W 8948  23.508   0.783   4.492
37223W        W 8949  20.626  34.100   2.767
37224W        W 8950  24.674   6.989  12.946
37225W        W 8951   7.343  37.078   3.831
37226W        W 8952  40.008   0.072  10.854
37227W        W 8953   0.027  20.241   0.790
37228W        W 8954  11.520  15.837   3.314
37229W        W 8955  17.326  26.739  12.955
37230W        W 8956  24.030  33.979  14.438
37231W        W 8957   6.866  11.268   1.874
37232W        W 8958   9.749   6.289   2.962
37233W        W 8959  39.073  17.749  11.968
37234W        W 8960   0.395   6.420   4.266
37235W        W 8961  43.452  31.206  13.877
37236W        W 8962   4.806  38.874   1.914
37237W        W 8963  11.938  23.033   4.302
37238W        W 8964  18.261  16.402  14.496
37239W        W 8965  22.486   9.217  13.407
37240W        W 8966  36.942   8.582  11.609
37241W        W 8967  44.149  27.502  12.893
37242W        W 8968  37.534  10.104  11.850
37243W        W 8969  36.024  35.122   3.307
37244W        W 8970   9.853  15.705   2.706
37245W        W 8971  33.962  39.365  14.922
37246W        W 8972  24.723   0.749  12.018
37247W        W 8973  18.976  21.447  10.619
37248W        W 8974  36.895  42.669  11.260
37249W        W 8975   6.313  26.072   0.278
37250W        W 8976   6.672  11.746   1.696
37251W        W 8977  41.019   3.483  11.643
37252W        W 8978  30.584  29.669  13.079
37253W        W 8979  29.833  38.917   3.388
37254W        W 8980   0.766  10.832   0.201
37255W        W 8981  11.178   8.258  13.026
37256W        W 8982  33.945  41.027   1.898
37257W        W 8983  17.880  12.307   3.209
37258W        W 8984   0.024  16.758  12.944
37259W        W 8985  25.024  14.767   9.609
37260W        W 8986  12.250  44.872   1.306
37261W        W 8987  35.204   9.787   2.188
37262W        W 8988   8.626   7.841   2.969
37263W        W 8989  28.381  14.208   0.968
37264W        W 8990  21.083  13.910   4.914
37265W        W 8991  27.589  15.065   0.285
37266W        W 8992  19.759  21.123  10.955
37267W        W 8993  42.032   1.683  10.057
37268W        W 8994  24.446  11.796   1.962
37269W        W 8995   3.882  44.859   0.016
37270W        W 8996   1.832  18.520   2.238
37271W        W 8997  16.671  29.932  11.695
37272W        W 8998  39.437  30.937  13.364
37273W        W 8999  17.135  21.023  13.501
37274W        W 9000  41.010  27.976  13.429
37275W        W 9001   9.140  14.109   4.660
37276W        W 9002  25.736  42.850  10.713
37277W        W 9003   7.128  29.596  14.581
37278W        W 9004  20.711  34.377  14.242
37279W        W 9005  18.125  25.464  10.450
37280W        W 9006  12.290  38.793   1.445
37281W        W 9007  32.467  15.640   2.558
37282W        W 9008  28.192   2.772  14.614
37283W        W 9009  22.256  18.006  11.556
37284W        W 9010  23.128   6.111   3.828
37285W        W 9011  38.550  29.579  13.547
37286W        W 9012  13.249  17.285   4.618
37287W        W 9013  23.595  18.740  12.512
37288W        W 9014  14.748   0.218  14.834
37289W        W 9015  14.875   1.879   2.152
37290W        W 9016  28.650  33.850  11.121
37291W        W 9017  32.446   1.504  10.776
37292W        W 9018  13.339  27.652  14.887
37293W        W 9019  17.754   9.148  11.609
37294W        W 9020  14.312  39.519   3.668
37295W        W 9021  30.601  25.406   4.135
37296W        W 9022  14.796   0.558   2.687
37297W        W 9023  34.279  40.554   0.353
37298W        W 9024  44.341   6.761  13.081
37299W        W 9025  25.104  30.511  14.456
37300W        W 9026   7.131  21.417  11.042
37301W        W 9027  27.534  38.365  11.862
37302W        W 9028  24.053  31.924   0.720
37303W        W 9029  27.540   5.281  11.971
37304W        W 9030   2.557  14.300   3.246
37305W        W 9031   8.007  11.416   1.755
37306W        W 9032  29.164   4.334  11.504
37307W        W 9033  18.346  41.333  12.530
37308W        W 9034   0.681  18.239  14.923
37309W        W 9035  22.111  20.131  10.528
37310W        W 9036  24.584   9.325  13.934
37311W        W 9037   3.040  28.012   4.123
37312W        W 9038   5.739  12.271   1.855
37313W        W 9039  40.067  32.996  13.427
37314W        W 9040  16.143  32.915  13.932
37315W        W 9041  38.031  44.887   1.679
37316W        W 9042   8.472  13.701  13.567
37317W        W 9043   6.824  31.192   2.751
37318W        W 9044  36.693  20.470  12.456
37319W        W 9045  20.399   9.166  14.874
37320W        W 9046  24.492  26.038   2.673
37321W        W 9047  16.167  36.059  10.730
37322W        W 9048  43.772   7.678   1.864
37323W        W 9049  32.036   6.088   2.354
37324W        W 9050  40.976  24.416   0.572
37325W        W 9051   7.949  11.405   0.819
37326W        W 9052  44.266  42.881   0.437
37327W        W 9053  30.635  15.575  14.826
37328W        W 9054  15.519  13.811   0.915
37329W        W 9055  42.627  11.549  11.864
37330W        W 9056   9.180  27.309  11.057
37331W        W 9057   3.036  20.727  11.731
37332W        W 9058  37.365   0.326   2.128
37333W        W 9059  13.611  14.845  12.832
37334W        W 9060   3.931   5.416  12.641
37335W        W 9061  29.147   2.935  11.139
37336W        W 9062  35.664  29.229   0.846
37337W        W 9063  15.629  16.987   4.829
37338W        W 9064  23.537  26.978  12.481
37339W        W 9065   4.840  36.945  14.530
37340W        W 9066  15.273   6.121  12.412
37341W        W 9067  23.061  35.217  10.438
37342W        W 9068   8.819  35.026   2.168
37343W        W 9069  15.317  10.174   3.256
37344W        W 9070  33.007  36.058  11.878
37345W        W 9071  42.026   7.345   4.889
37346W        W 9072  16.561   5.775  14.834
37347W        W 9073  29.750  22.613   0.205
37348W        W 9074  42.471  28.294  11.028
37349W        W 9075  15.724  11.130  11.182
37350W        W 9076   0.063   6.802   4.305
37351W        W 9077   0.451  11.694   3.479
37352W        W 9078  39.014  21.283  10.340
37353W        W 9079  31.937   4.703   3.108
37354W        W 9080   7.417   5.707   4.491
37355W        W 9081   3.997  38.828  14.337
37356W        W 9082  17.984   9.597   0.342
37357W        W 9083  27.150  24.445   5.002
37358W        W 9084   2.810   1.894  13.612
37359W        W 9085  39.057  31.940  12.051
37360W        W 9086  10.767  16.407   4.236
37361W        W 9087  32.086  32.984  12.154
37362W        W 9088  14.702  40.802  12.970
37363W        W 9089  44.378  26.200   4.181
37364W        W 9090  11.311  26.977  13.096
37365W        W 9091   4.624  26.787   1.823
37366W        W 9092  41.373  10.900   0.456
37367W        W 9093  27.565  23.716   3.201
37368W        W 9094  10.640  22.066   1.264
37369W        W 9095   9.182   8.761   4.081
37370W        W 9096  34.556   2.766   0.934
37371W        W 9097   1.874   4.035   4.414
37372W        W 9098   6.183  12.110   2.675
37373W        W 9099  14.807   7.116   1.617
37374W        W 9100  42.211  37.963   1.883
37375W        W 9101  34.450  34.585   2.966
37376W        W 9102  44.056  24.037   3.225
37377W        W 9103   6.447  37.535  12.362
37378W        W 9104  19.534  21.318  14.821
37379W        W 9105  43.943  16.622   3.765
37380W        W 9106  22.542  11.413  12.950
37381W        W 9107  33.502   4.388   0.824
37382W        W 9108  42.041  29.363   3.263
37383W        W 9109   8.278  14.093   2.920
37384W        W 9110   5.692  36.310  11.484
37385W        W 9111  38.660  23.056  11.529
37386W        W 9112  26.719  31.898   0.825
37387W        W 9113  32.077  10.338  13.968
37388W        W 9114  35.498  18.837   0.864
37389W        W 9115  40.101  23.758   0.376
37390W        W 9116  43.849  40.432  11.075
37391W        W 9117  14.597  16.659   3.748
37392W        W 9118  24.552  19.797  13.822
37393W        W 9119  34.860  30.068   2.870
37394W        W 9120  34.066   9.898  11.332
37395W        W 9121  11.300  31.908   3.317
37396W        W 9122  18.262  43.587   4.266
37397W        W 9123  10.891  12.729   0.770
37398W        W 9124   1.365  13.550  14.388
37399W        W 9125   9.082  38.226   2.096
37400W        W 9126  30.320  23.818  10.175
37401W        W 9127  37.860  21.543  12.461
37402W        W 9128  39.109  22.955  14.260
37403W        W 9129  39.085   8.443   1.782
37404W        W 9130  34.512  30.663   0.532
37405W        W 9131  40.131  24.617  13.457
37406W        W 9132  19.751  25.605   1.687
37407W        W 9133  17.576  18.384   4.588
37408W        W 9134  10.859  32.526   3.548
37409W        W 9135   6.297  35.973  10.310
37410W        W 9136   9.984   6.839  11.490
37411W        W 9137  42.254   7.336  11.149
37412W        W 9138  32.546  12.253   2.286
37413W        W 9139  13.091  35.942   3.829
37414W        W 9140   7.883  14.653  11.079
37415W        W 9141  42.770   6.508   1.292
37416W        W 9142  34.110   7.989  13.464
37417W        W 9143  44.297  19.753   0.400
37418W        W 9144   7.117  25.564  13.948
37419W        W 9145  24.678   2.223  13.201
37420W        W 9146  11.179  11.863   3.556
37421W        W 9147  27.708  43.866   3.258
37422W        W 9148  17.366  29.825  14.419
37423W        W 9149  17.104  25.187   4.997
37424W        W 9150  15.747   7.312  10.720
37425W        W 9151  24.528  11.639  10.698
37426W        W 9152  35.303   5.972  11.441
37427W        W 9153  10.331   2.186  13.082
37428W        W 9154  22.508  21.134  13.965
37429W        W 9155   0.043  11.368  13.023
37430W        W 9156  18.297  30.625  12.158
37431W        W 9157  24.300   8.690  13.357
37432W        W 9158  13.191  10.416   1.062
37433W        W 9159   4.722  30.893  13.364
37434W        W 9160   3.760  28.605  13.547
37435W        W 9161   2.917  37.730   4.846
37436W        W 9162   8.181  26.032   0.844
37437W        W 9163  36.299  35.984   0.368
37438W        W 9164  18.211  19.221   4.729
37439W        W 9165  12.360  14.608   2.832
37440W        W 9166  26.114   3.499   3.821
37441W        W 9167  19.781  10.782  14.300
37442W        W 9168  15.184  41.764  13.597
37443W        W 9169  35.892  25.310   2.259
37444W        W 9170  10.821  32.556   1.685
37445W        W 9171  27.454  43.444  13.930
37446W        W 9172  26.905   1.353  13.921
37447W        W 9173   3.333  40.877   1.692
37448W        W 9174  32.254  42.609   1.280
37449W        W 9175  42.021   0.939  11.168
37450W        W 9176  19.992  19.695  12.070
37451W        W 9177  20.739  26.981   0.255
37452W        W 9178  30.837  42.916   1.354
37453W        W 9179  38.836  36.521  14.307
37454W        W 9180  15.769  32.161  12.474
37455W        W 9181  21.187  40.486   1.949
37456W        W 9182  44.865  27.189  10.617
37457W        W 9183  14.706  39.537  14.359
37458W        W 9184  30.695  18.369   1.101
37459W        W 9185  32.052  21.515  14.909
37460W        W 9186  39.866  42.854  12.835
37461W        W 9187  27.569  21.704  13.479
37462W        W 9188  43.739  30.643  11.127
37463W        W 9189  39.571  23.968  14.518
37464W        W 9190   0.735  23.403  14.516
37465W        W 9191  30.155  41.287  11.515
37466W        W 9192   9.659  24.684  14.652
37467W        W 9193  16.112  28.143   4.181
37468W        W 9194  36.845  41.383  12.011
37469W        W 9195   0.055  39.932   1.149
37470W        W 9196   7.759  33.028   2.371
37471W        W 9197  17.117  13.072  12.054
37472W        W 9198  25.071  39.369   1.991
37473W        W 9199  40.653  14.509  11.649
37474W        W 9200  16.589   4.234   2.468
37475W        W 9201   4.304  38.642   2.240
37476W        W 9202  10.877  43.074   1.333
37477W        W 9203  10.171  27.676  12.904
37478W        W 9204   9.135  11.107   4.735
37479W        W 9205  12.885   4.805  11.548
37480W        W 9206  20.338  15.489   1.284
37481W        W 9207  11.705  10.814  14.378
37482W        W 9208  19.124  39.760  14.509
37483W        W 9209  41.291  25.104  10.947
37484W        W 9210  11.152  25.973   4.689
37485W        W 9211  44.766  33.179  14.307
37486W        W 9212   9.372  37.093   0.681
37487W        W 9213  37.916   6.692  12.395
37488W        W 9214  28.028  23.871   3.386
37489W        W 9215   4.366   0.469   3.382
37490W        W 9216  24.176  39.009   2.905
37491W        W 9217  20.182  39.330   3.495
37492W        W 9218  19.729   8.258   3.637
37493W        W 9219  30.024  33.404   0.413
37494W        W 9220  34.494  29.180  12.421
37495W        W 9221  44.280  27.769  12.095
37496W        W 9222  27.982  43.502  13.884
37497W        W 9223  24.685   8.655   0.324
37498W        W 9224  33.887  30.046   2.847
37499W        W 9225  36.184  20.499  12.523
37500W        W 9226  23.227  22.221   1.197
37501W        W 9227  37.443  30.458  10.563
37502W        W 9228  40.916  39.503  10.640
37503W        W 9229   7.504  27.070  13.026
37504W        W 9230  24.554  18.708   0.668
37505W        W 9231  39.174  37.089   4.109
37506W        W 9232  36.036  37.878  14.242
37507W        W 9233   1.791  42.307   0.416
37508W        W 9234   8.354  15.021   3.171
37509W        W 9235  17.391  16.386  14.499
37510W        W 9236  17.891  30.148   3.933
37511W        W 9237  24.081   4.411   1.498
37512W        W 9238  37.248  42.859   2.789
37513W        W 9239  10.092  13.742   2.321
37514W        W 9240   3.072  34.671   3.139
37515W        W 9241  29.455  27.431   3.253
37516W        W 9242  17.084  42.003   0.282
37517W        W 9243  31.445  39.809   1.207
37518W        W 9244  11.012  37.641  13.779
37519W        W 9245  13.549   1.862  12.417
37520W        W 9246  44.268  35.152  13.936
37521W        W 9247   6.893  23.766  14.469
37522W        W 9248  33.864  41.233  11.700
37523W        W 9249  30.876  13.949  12.281
37524W        W 9250  26.459  11.289  13.385
37525W        W 9251  35.002   9.936   4.209
37526W        W 9252  38.866  35.201  12.989
37527W        W 9253  34.425  31.596   0.302
37528W        W 9254  28.591  22.856   4.071
37529W        W 9255   5.948   9.836  13.620
37530W        W 9256  31.434   8.218  11.354
37531W        W 9257  20.743  40.929  14.799
37532W        W 9258  13.152  43.108   5.058
37533W        W 9259  42.810  11.607   1.824
37534W        W 9260  28.845   4.313   2.699
37535W        W 9261  41.430  11.581   1.539
37536W        W 9262   8.029  34.635  13.986
37537W        W 9263  11.105  14.227   1.571
37538W        W 9264   5.402   3.804  14.725
37539W        W 9265  42.866  30.018  12.517
37540W        W 9266  17.794  40.379   2.279
37541W        W 9267  21.728  20.771   2.739
37542W        W 9268  15.628   7.518  14.249
37543W        W 9269  14.870  16.657  10.661
37544W        W 9270   8.646  36.492   0.856
37545W        W 9271  22.681   7.101  11.095
37546W        W 9272  34.123   8.248  11.418
37547W        W 9273  20.377   4.613   0.288
37548W        W 9274   0.197  23.359   2.691
37549W        W 9275  26.241  32.067  11.846
37550W        W 9276  14.088  34.015   1.396
37551W        W 9277  16.905  12.395   1.557
37552W        W 9278  36.788   5.303   4.216
37553W        W 9279   9.732  17.679  11.959
37554W        W 9280  18.039  27.137   0.349
37555W        W 9281  23.554  41.339  14.991
37556W        W 9282  23.352  31.103   0.421
37557W        W 9283  42.420   0.671  14.791
37558W        W 9284  44.771   0.987   1.726
37559W        W 9285  13.251  27.991   0.289
37560W        W 9286  20.587  22.670   4.607
37561W        W 9287  43.733   3.468   0.258
37562W        W 9288  35.430  26.524   3.221
37563W        W 9289  34.091  14.240   1.174
37564W        W 9290   1.287  27.068  13.261
37565W        W 9291  14.750   6.339   2.753
37566W        W 9292  26.893  13.769   4.961
37567W        W 9293  44.873  35.223  13.261
37568W        W 9294  17.199  22.424   1.606
37569W        W 9295  15.054  13.254   0.076
37570W        W 9296  23.724   0.224  11.497
37571W        W 9297  28.729  33.714   0.488
37572W        W 9298  22.631  15.212   1.152
37573W        W 9299  36.220  19.571  14.303
37574W        W 9300  44.301  39.052  12.415
37575W        W 9301  31.076   1.378   4.071
37576W        W 9302  41.945   1.100  13.447
37577W        W 9303   6.154  37.173  14.754
37578W        W 9304  36.022  34.443  11.252
37579W        W 9305  14.955  14.132  13.639
37580W        W 9306  30.541  33.083   1.526
37581W        W 9307  17.727  17.117  13.372
37582W        W 9308  44.541  41.842  11.930
37583W        W 9309   1.468  33.168   2.375
37584W        W 9310  43.485  30.016   4.660
37585W        W 9311  25.698  41.448   4.171
37586W        W 9312  38.325  16.565  14.120
37587W        W 9313   2.511  26.872   2.097
37588W        W 9314  25.935  15.220   3.245
37589W        W 9315  11.696  29.710   1.752
37590W        W 9316  36.235   4.681  13.512
37591W        W 9317  10.475  13.564   4.596
37592W        W 9318  18.262  31.393   2.369
37593W        W 9319   3.733   0.775  10.789
37594W        W 9320  12.342   5.818  12.879
37595W        W 9321  13.256  20.895  14.301
37596W        W 9322   0.363   9.838   2.646
37597W        W 9323  20.640  27.005  10.281
37598W        W 9324  15.867   5.678  10.894
37599W        W 9325  22.849  12.799  13.330
37600W        W 9326  41.295   3.957   3.114
37601W        W 9327  30.490  17.848   3.282
37602W        W 9328   5.421  37.537   4.396
37603W        W 9329   1.304  21.662   1.864
37604W        W 9330   2.155   2.335   2.229
37605W        W 9331  34.788  38.397   1.854
37606W        W 9332  13.912  37.105  12.560
37607W        W 9333  20.910  22.056  12.032
37608W        W 9334  24.494   9.672  13.548
37609W        W 9335   8.697   7.832   2.454
37610W        W 9336  34.568   7.370  12.484
37611W        W 9337  22.185   7.539  11.707
37612W        W 9338  36.079  42.067  14.926
37613W        W 9339  17.679  18.749  13.039
37614W        W 9340  38.528  37.999   2.685
37615W        W 9341  43.980   8.438  14.471
37616W        W 9342  39.344   7.963  11.111
37617W        W 9343  23.015  36.018  11.094
37618W        W 9344  20.024  38.343  12.102
37619W        W 9345  24.610  42.503   1.430
37620W        W 9346  25.104  42.523  11.013
37621W        W 9347  21.540  21.245  10.198
37622W        W 9348  34.496  30.019  12.842
37623W        W 9349  11.993  41.027  14.313
37624W        W 9350  21.662  22.460  11.175
37625W        W 9351   6.207  21.172  13.493
37626W        W 9352  32.620   8.367   4.334
37627W        W 9353  43.537  12.035  14.037
37628W        W 9354   3.711  21.873  14.459
37629W        W 9355  41.849   9.630   4.352
37630W        W 9356  17.679  15.395  11.189
37631W        W 9357  37.591  42.027  13.618
37632W        W 9358  12.782  26.951   2.750
37633W        W 9359  32.177  44.952  14.827
37634W        W 9360   1.463  21.159   1.378
37635W        W 9361  44.629   9.169  11.025
37636W        W 9362   5.636  12.828  11.055
37637W        W 9363  17.111   9.145   1.310
37638W        W 9364  12.092   0.548  11.579
37639W        W 9365  36.771  12.810  12.212
37640W        W 9366  12.249  26.179   2.213
37641W        W 9367  29.969  10.354  14.147
37642W        W 9368  15.882  21.625  11.465
37643W        W 9369   5.732  37.036  12.079
37644W        W 9370  32.331  16.338  14.498
37645W        W 9371  15.733   4.444   3.897
37646W        W 9372   6.121  42.740  10.241
37647W        W 9373   4.723  32.276   0.428
37648W        W 9374  36.364  21.939  12.462
37649W        W 9375  18.180  38.670   0.763
37650W        W 9376  44.959  12.691  11.648
37651W        W 9377   2.191  26.713   4.251
37652W        W 9378  39.451  33.895  10.631
37653W        W 9379  40.367  11.721  14.917
37654W        W 9380  34.999  24.908   2.174
37655W        W 9381  17.852  21.661   3.454
37656W        W 9382   3.635  39.160  11.919
37657W        W 9383  11.326  29.225   0.043
37658W        W 9384  18.148  20.812  10.684
37659W        W 9385  25.051  21.203  10.403
37660W        W 9386   0.144  43.477  13.903
37661W        W 9387  33.362  25.165   3.804
37662W        W 9388  34.356  20.768   4.185
37663W        W 9389   0.740  18.265  13.581
37664W        W 9390  41.865  15.762  14.594
37665W        W 9391  43.341   4.402  14.728
37666W        W 9392  27.359  36.487  13.321
37667W        W 9393  24.055  14.133  11.179
37668W        W 9394   1.221  41.707  12.544
37669W        W 9395  34.496  25.673   2.295
37670W        W 9396   6.036  36.671  14.835
37671W        W 9397  33.579  23.764  12.461
37672W        W 9398  36.510  30.249   1.206
37673W        W 9399  19.190   7.692   4.137
37674W        W 9400  41.476  36.411  12.357
37675W        W 9401  22.679  30.965   4.614
37676W        W 9402  40.055   2.954  11.532
37677W        W 9403  30.163  25.969   2.285
37678W        W 9404  20.715  16.600   1.879
37679W        W 9405  40.782   3.281  10.777
37680W        W 9406   5.738  19.984   1.265
37681W        W 9407   9.145  10.717  10.541
37682W        W 9408  21.582   1.794   3.342
37683W        W 9409  17.205  12.214  12.375
37684W        W 9410  25.493  27.941  10.742
37685W        W 9411   7.030   1.840   0.798
37686W        W 9412  36.973   3.601  12.782
37687W        W 9413  11.674  28.978  12.563
37688W        W 9414  30.654  23.300  13.088
37689W        W 9415  24.311   6.995   0.971
37690W        W 9416  35.829   1.939  10.800
37691W        W 9417  38.719   4.715   9.885
37692W        W 9418  29.590  36.914  13.292
37693W        W 9419  11.883  37.850  12.446
37694W        W 9420  19.969  31.760  12.120
37695W        W 9421  40.041  18.711   3.746
37696W        W 9422   0.635   8.901  13.171
37697W        W 9423  18.679  25.423  12.052
37698W        W 9424  11.723   7.671  13.503
37699W        W 9425   9.785  30.977   3.597
37700W        W 9426  21.553   3.272  14.886
37701W        W 9427  34.406   4.788   2.202
37702W        W 9428  38.030  25.074   1.744
37703W        W 9429  18.108  37.277   3.899
37704W        W 9430  35.631   2.912  13.118
37705W        W 9431  24.909  44.927   1.245
37706W        W 9432  31.940  23.310   5.050
37707W        W 9433   4.387   2.754   4.038
37708W        W 9434  25.467  35.764   0.513
37709W        W 9435  39.774  11.520  14.857
37710W        W 9436   8.763  43.563   4.135
37711W        W 9437  30.127  19.213   4.196
37712W        W 9438   2.335  32.917  14.428
37713W        W 9439  37.078  32.676   4.166
37714W        W 9440  42.972  38.333  11.503
37715W        W 9441  19.292  21.666  11.510
37716W        W 9442  34.274   5.412   3.237
37717W        W 9443  25.058  41.396  13.340
37718W        W 9444  32.490  13.940   2.940
37719W        W 9445   6.298  39.439   1.227
37720W        W 9446  13.257  42.149  11.681
37721W        W 9447   5.149  23.505  11.182
37722W        W 9448  18.646  32.625   3.840
37723W        W 9449  15.208  14.051  11.559
37724W        W 9450  30.290   5.907  11.119
37725W        W 9451  17.605  17.157   9.994
37726W        W 9452  11.343   1.276  10.740
37727W        W 9453   6.411  25.950   4.670
37728W        W 9454   4.310   6.977  11.387
37729W        W 9455   3.754  35.496   3.632
37730W        W 9456   4.781  35.513   2.742
37731W        W 9457  38.652  41.523   0.319
37732W        W 9458  42.253  21.693  14.482
37733W        W 9459  28.322  33.265  11.214
37734W        W 9460  28.284  14.586  12.561
37735W        W 9461  40.071  28.075  11.242
37736W        W 9462  34.413  15.548  14.960
37737W        W 9463  29.677  12.199   4.091
37738W        W 9464  23.147  36.941   4.836
37739W        W 9465  33.465  15.089   0.488
37740W        W 9466  31.568  31.476   2.276
37741W        W 9467  29.433   2.745  10.732
37742W        W 9468   7.435  14.058   2.528
37743W        W 9469  14.384  42.902   0.352
37744W        W 9470   0.349  14.014   3.380
37745W        W 9471  43.922  27.237   3.191
37746W        W 9472   3.353  32.427  10.648
37747W        W 9473  21.540  41.250  13.161
37748W        W 9474   0.915   2.737   4.505
37749W        W 9475   1.262  23.577  11.226
37750W        W 9476  24.160   0.370   0.491
37751W        W 9477   7.884  44.030  13.810
37752W        W 9478  18.737  30.302  11.979
37753W        W 9479  22.789  33.819  14.318
37754W        W 9480  29.712  24.956   4.217
37755W        W 9481   5.170   2.051   0.719
37756W        W 9482  30.267  44.996   0.286
37757W        W 9483  24.265  38.702   0.871
37758W        W 9484  29.928  17.727   0.323
37759W        W 9485  18.254  27.612  11.524
37760W        W 9486  24.261   0.832  13.764
37761W        W 9487  26.724   4.716   1.440
37762W        W 9488  36.448   2.258   4.498
37763W        W 9489  33.533  21.479  14.974
37764W        W 9490  15.507  41.967  10.625
37765W        W 9491  39.406  19.244   0.242
37766W        W 9492  24.200  28.634   3.207
37767W        W 9493  37.933  40.034   3.862
37768W        W 9494  26.977  23.197  13.119
37769W        W 9495  38.032  29.134  11.509
37770W        W 9496  18.361  23.306  12.368
37771W        W 9497   0.774   1.491  14.498
37772W        W 9498  16.456  26.244   0.014
37773W        W 9499   0.904   7.202   4.130
37774W        W 9500  11.181  24.157   4.747
37775W        W 9501  30.729  25.449   3.257
37776W        W 9502  32.987  29.417  14.861
37777W        W 9503  12.443  41.828   2.016
37778W        W 9504   6.581  28.390   4.445
37779W        W 9505  20.133  25.069   3.125
37780W        W 9506   3.667  29.999  10.751
37781W        W 9507  22.150  14.591   1.576
37782W        W 9508  34.812   9.825   3.289
37783W        W 9509  33.935  14.323   0.290
37784W        W 9510  39.774  34.599  14.089
37785W        W 9511  21.786  22.756  13.536
37786W        W 9512   3.829  18.315   4.500
37787W        W 9513  21.238  43.818   2.779
37788W        W 9514  17.267  42.384   3.831
37789W        W 9515  22.909   7.416  12.300
37790W        W 9516   4.524  37.665   1.364
37791W        W 9517  11.062   1.317  14.251
37792W        W 9518  30.897  19.619   4.541
37793W        W 9519  23.886  35.579  13.886
37794W        W 9520  22.650  37.995   4.048
37795W        W 9521   4.688  16.313   0.812
37796W        W 9522  41.569  42.505   0.897
37797W        W 9523  15.862  33.478   4.108
37798W        W 9524  32.964  25.490   3.631
37799W        W 9525  34.158  27.101  13.553
37800W        W 9526  33.597   3.736   0.022
37801W        W 9527   1.933  26.761  10.389
37802W        W 9528   5.817  30.141  14.740
37803W        W 9529  25.787  17.102  10.677
37804W        W 9530  16.283  10.814   4.201
37805W        W 9531  24.377  38.219   1.064
37806W        W 9532   8.859  16.037  12.924
37807W        W 9533  20.061  30.382   4.265
37808W        W 9534   9.187  11.312  12.220
37809W        W 9535  19.497  16.235   4.784
37810W        W 9536  27.758  43.381  14.357
37811W        W 9537  32.286  29.041  10.687
37812W        W 9538  20.223  26.896   4.373
37813W        W 9539  16.167   1.021  10.702
37814W        W 9540  12.304  35.159   0.552
37815W        W 9541  40.467  27.221  10.725
37816W        W 9542  11.662   0.423   0.458
37817W        W 9543  17.689  22.159   1.595
37818W        W 9544  18.299  29.179   2.235
37819W        W 9545  34.374  37.138   3.218
37820W        W 9546  41.698  18.050  12.531
37821W        W 9547  20.198   6.219  10.765
37822W        W 9548   5.455  33.394   2.258
37823W        W 9549   5.292  34.312  13.544
37824W        W 9550  19.223   9.709   3.620
37825W        W 9551   2.643  43.443  14.866
37826W        W 9552  14.837  38.435   5.311
37827W        W 9553  21.068  21.595   2.343
37828W        W 9554   9.906  22.835   2.419
37829W        W 9555  33.471  35.998  12.602
37830W        W 9556  15.710  31.428   3.737
37831W        W 9557  12.626  18.141  12.593
37832W        W 9558  38.868   0.422   4.583
37833W        W 9559   3.350  13.837   3.124
37834W        W 9560  10.694  35.186  14.974
37835W        W 9561  14.621  37.524   4.109
37836W        W 9562   1.293  20.501  11.944
37837W        W 9563   5.760  32.300  12.527
37838W        W 9564  13.873  44.430   4.188
37839W        W 9565  41.601  28.612   2.022
37840W        W 9566  30.584  27.113   4.969
37841W        W 9567  43.876  28.668   2.068
37842W        W 9568   4.491  44.867  14.982
37843W        W 9569   9.398  20.431  14.338
37844W        W 9570  38.235  34.878  11.852
37845W        W 9571  24.556  31.674   0.214
37846W        W 9572   5.397  13.405  14.020
37847W        W 9573  15.270  16.604  13.699
37848W        W 9574   9.390  29.517   0.762
37849W        W 9575  16.021  18.559  10.255
37850W        W 9576  36.908   3.720  11.796
37851W        W 9577  33.217  28.140  13.134
37852W        W 9578  32.561  32.991   3.598
37853W        W 9579  15.282   5.777  10.695
37854W        W 9580  36.525  14.719   2.951
37855W        W 9581  15.654  10.645  12.520
37856W        W 9582  35.370  30.633   2.747
37857W        W 9583  30.083  28.493  11.374
37858W        W 9584  26.253  28.518  11.540
37859W        W 9585  11.197  13.624   2.346
37860W        W 9586  36.408  36.654  10.675
37861W        W 9587  22.834   1.385   4.495
37862W        W 9588   5.534  22.549  12.441
37863W        W 9589  18.162   9.609  10.923
37864W        W 9590  22.491  38.534  11.822
37865W        W 9591  20.182   6.781   2.729
37866W        W 9592  27.124  30.927  14.901
37867W        W 9593  19.599  23.970   2.220
37868W        W 9594   3.510  16.845  11.591
37869W        W 9595  40.092  23.643   3.654
37870W        W 9596  21.267   3.327   3.912
37871W        W 9597   0.498  35.145  11.549
37872W        W 9598   5.136   8.112   0.920
37873W        W 9599  30.192  38.584   4.251
37874W        W 9600   3.384  26.184   3.705
37875W        W 9601  17.513  16.197   2.215
37876W        W 9602  28.235  37.454  14.690
37877W        W 9603   7.704  43.392  12.444
37878W        W 9604  30.917  32.523   3.125
37879W        W 9605  31.837  29.488  12.606
37880W        W 9606   7.966   2.795   3.246
37881W        W 9607  11.572  12.693   1.299
37882W        W 9608   3.253  43.157   1.344
37883W        W 9609   0.159  31.902  11.551
37884W        W 9610  31.669  40.439  11.589
37885W        W 9611  27.189  35.345   2.561
37886W        W 9612   0.356  41.497  11.224
37887W        W 9613   1.505  19.066   3.080
37888W        W 9614   9.941  10.663  13.026
37889W        W 9615  36.554  41.817   1.118
37890W        W 9616  33.550  14.521  13.659
37891W        W 9617   4.355  13.760   4.138
37892W        W 9618   6.317  29.389   2.780
37893W        W 9619  22.758  12.302  11.607
37894W        W 9620  21.809  14.220   1.815
37895W        W 9621   3.927   4.797   0.490
37896W        W 9622  13.025  37.940   1.315
37897W        W 9623   9.349   6.760   0.558
37898W        W 9624  35.959   4.237   1.411
37899W        W 9625  35.195  41.382   0.812
37900W        W 9626  22.522  36.026   2.831
37901W        W 9627  22.206  35.397  12.977
37902W        W 9628  11.765  23.872  11.863
37903W        W 9629  38.050  26.764  13.471
37904W        W 9630   1.499  31.123  13.414
37905W        W 9631  18.597  16.642   0.241
37906W        W 9632  38.809  35.802  14.814
37907W        W 9633  27.626   4.394   3.275
37908W        W 9634  34.920  24.472   3.439
37909W        W 9635   8.629  34.865   0.591
37910W        W 9636  30.564   1.818  10.813
37911W        W 9637  32.918  37.887   1.152
37912W        W 9638   8.392   8.222  13.229
37913W        W 9639  15.833  35.405   1.349
37914W        W 9640  39.273  11.645   2.511
37915W        W 9641   6.658  13.669  12.461
37916W        W 9642  19.797  32.149   9.954
37917W        W 9643  10.149  41.294   0.473
37918W        W 9644  29.532   3.426   3.257
37919W        W 9645  42.578  37.006  14.882
37920W        W 9646  23.735   7.208   3.309
37921W        W 9647  13.988   3.396  12.366
37922W        W 9648  28.487  32.728   1.703
37923W        W 9649  34.669  19.336  11.967
37924W        W 9650  34.835  34.621  13.525
37925W        W 9651  28.291  30.521  10.489
37926W        W 9652  27.386  24.112   4.128
37927W        W 9653  42.526  24.552   1.343
37928W        W 9654  43.185  33.012   4.059
37929W        W 9655  43.412  39.535   0.753
37930W        W 9656   0.530   2.360  13.996
37931W        W 9657  41.946  25.781   1.892
37932W        W 9658   5.411  17.828   3.940
37933W        W 9659  34.353   9.939   3.685
37934W        W 9660  12.907  26.691  10.722
37935W        W 9661  39.969  10.906   1.205
37936W        W 9662   3.171  27.530   2.279
37937W        W 9663  15.634   3.539  14.530
37938W        W 9664  41.993  25.629  11.368
37939W        W 9665   2.839  32.965  14.258
37940W        W 9666  13.495  30.776  11.069
37941W        W 9667   1.168  24.476   4.076
37942W        W 9668  21.520  12.766   4.641
37943W        W 9669  38.194  40.274  12.903
37944W        W 9670  21.322  11.363   2.796
37945W        W 9671   5.169  27.757  13.028
37946W        W 9672  17.421  29.527   4.633
37947W        W 9673   2.160  41.565  13.426
37948W        W 9674  20.687  13.155   4.988
37949W        W 9675  34.226  41.056   2.311
37950W        W 9676   3.070  12.906  10.692
37951W        W 9677  18.262   2.834  10.640
37952W        W 9678  13.318  21.639  12.130
37953W        W 9679   7.736  43.560  12.938
37954W        W 9680  30.559  36.431   1.914
37955W        W 9681  27.669  34.020   2.694
37956W        W 9682  26.697  33.098   0.036
37957W        W 9683  18.498  13.233   4.068
37958W        W 9684  21.113  25.818  12.872
37959W        W 9685  22.109   6.832   4.578
37960W        W 9686  10.308  18.275  13.715
37961W        W 9687  35.857  27.181   2.791
37962W        W 9688  41.526  15.397  13.937
37963W        W 9689  34.829  29.019  11.632
37964W        W 9690   2.471  23.090  14.019
37965W        W 9691  26.628  18.612   1.207
37966W        W 9692   5.478   2.769  11.337
37967W        W 9693  25.618  12.400   1.056
37968W        W 9694  37.127  42.604  14.106
37969W        W 9695  12.302   3.849   0.210
37970W        W 9696  19.248  13.205  10.909
37971W        W 9697   3.030  32.950  10.821
37972W        W 9698  27.489   8.387   2.590
37973W        W 9699  32.470  12.918   0.428
37974W        W 9700   4.019  33.944   2.191
37975W        W 9701  32.409  11.497   5.121
37976W        W 9702  41.321  32.848   0.955
37977W        W 9703  10.132  37.462  13.546
37978W        W 9704  35.401  37.262  14.377
37979W        W 9705  19.109  37.768   1.194
37980W        W 9706  33.663   7.917  11.311
37981W        W 9707   5.343  10.357   9.911
37982W        W 9708  32.522   8.448  12.637
37983W        W 9709  18.834   0.210   1.296
37984W        W 9710   8.209  30.449   0.036
37985W        W 9711  36.904   3.921   3.821
37986W        W 9712  44.454   7.727  14.035
37987W        W 9713  34.688   9.824   2.157
37988W        W 9714  27.466  38.934  12.997
37989W        W 9715  26.674   2.360  10.719
37990W        W 9716  13.244   1.302  11.731
37991W        W 9717  30.440  32.184  11.174
37992W        W 9718   0.880  28.377   4.500
37993W        W 9719  14.717  40.012   2.772
37994W        W 9720  28.330   2.976   4.128
37995W        W 9721  35.868  32.707   3.228
37996W        W 9722  26.984  28.681  13.486
37997W        W 9723   6.258   1.210  14.867
37998W        W 9724   0.848  21.565  12.913
37999W        W 9725  38.370   0.603   2.356
38000W        W 9726  16.847  16.605   4.561
38001W        W 9727  32.668  22.288  14.880
38002W        W 9728   4.705   7.166  12.026
38003W        W 9729  35.302  20.540   0.866
38004W        W 9730   7.384  24.460  14.969
38005W        W 9731   5.379   4.229  12.028
38006W        W 9732  38.396   5.177   1.758
38007W        W 9733  29.383  23.642   4.624
38008W        W 9734  13.990  32.579   1.296
38009W        W 9735  13.803  33.462   4.341
38010W        W 9736  30.494  23.845   2.327
38011W        W 9737  32.518  11.618   4.636
38012W        W 9738  30.988  41.466   5.339
38013W        W 9739  17.021  27.707   3.709
38014W        W 9740  42.922  17.242  11.380
38015W        W 9741   8.706  15.218  10.781
38016W        W 9742  37.216  24.496  12.415
38017W        W 9743  19.466  22.226   3.692
38018W        W 9744  30.947  30.473  14.539
38019W        W 9745  29.671  34.617   1.544
38020W        W 9746  26.075  41.295   4.523
38021W        W 9747  31.613   0.068  11.627
38022W        W 9748   9.769  42.676  12.000
38023W        W 9749   6.160  43.202  10.492
38024W        W 9750  11.617  28.010   3.716
38025W        W 9751  19.274  42.320   0.462
38026W        W 9752  26.693  41.080  14.079
38027W        W 9753  18.165   6.420  10.700
38028W        W 9754  30.426  31.889   1.598
38029W        W 9755   2.667   8.628   3.264
38030W        W 9756  33.419   8.945  13.054
38031W        W 9757  43.488  32.631  13.527
38032W        W 9758  12.585  16.631   2.600
38033W        W 9759  16.602   5.117   1.542
38034W        W 9760  26.011  40.294   4.266
38035W        W 9761  43.140   1.812   4.086
38036W        W 9762  42.349  40.902   0.948
38037W        W 9763   7.903   8.869   5.062
38038W        W 9764  44.185  31.932   2.218
38039W        W 9765  19.547  39.041  12.310
38040W        W 9766  35.377  38.920  14.593
38041W        W 9767  18.701  15.764  11.894
38042W        W 9768  16.758   7.558   3.723
38043W        W 9769  33.425   9.072  14.343
38044W        W 9770   0.505  24.144   2.154
38045W        W 9771   7.583  13.459  14.541
38046W        W 9772   3.433  40.906   0.264
38047W        W 9773   4.169  34.605  11.995
38048W        W 9774  26.968  16.282  12.089
38049W        W 9775   9.689  23.058  10.796
38050W        W 9776  34.106   4.886  14.018
38051W        W 9777  37.446  32.114   4.671
38052W        W 9778  16.013  42.962   1.397
38053W        W 9779  15.723  31.941  14.434
38054W        W 9780  15.847  38.089  12.900
38055W        W 9781  16.319  28.876   1.744
38056W        W 9782  10.332  42.957  13.291
38057W        W 9783  34.391  18.319   2.641
38058W        W 9784   7.916  14.243  12.844
38059W        W 9785  17.344  32.691  11.494
38060W        W 9786  17.170   9.557   3.591
38061W        W 9787   6.890  39.007   0.762
38062W        W 9788  35.091  39.459   1.222
38063W        W 9789  12.243  35.121   3.324
38064W        W 9790  15.287  30.622  13.361
38065W        W 9791  37.443   0.531  11.111
38066W        W 9792  12.157   5.975  10.572
38067W        W 9793  18.358   4.401   4.065
38068W        W 9794  29.093   3.723   2.156
38069W        W 9795  32.466  35.037   4.256
38070W        W 9796  40.099  22.730   3.668
38071W        W 9797   9.841  11.719   3.695
38072W        W 9798   6.317  39.900   1.001
38073W        W 9799   9.268   8.191  13.849
38074W        W 9800   1.672  38.983  10.971
38075W        W 9801  42.444  21.595  13.450
38076W        W 9802  44.962  23.154  12.813
38077W        W 9803  38.353  29.234  13.880
38078W        W 9804  41.005  16.561  11.941
38079W        W 9805  36.596  36.393   2.244
38080W        W 9806   0.370   7.746   2.600
38081W        W 9807  44.054   2.793   4.055
38082W        W 9808  32.252  38.355   1.667
38083W        W 9809  38.282   5.986  13.361
38084W        W 9810  13.323  41.529  12.631
38085W        W 9811  28.975   1.941   4.015
38086W        W 9812  36.064  36.996  13.849
38087W        W 9813  44.908  14.304   3.193
38088W        W 9814  13.273  25.114   2.336
38089W        W 9815  15.331  17.971  11.085
38090W        W 9816   8.320  12.673  14.758
38091W        W 9817  27.185   0.277   9.946
38092W        W 9818  12.852  35.472  14.927
38093W        W 9819  33.687  43.684   9.648
38094W        W 9820   9.722  40.326   4.435
38095W        W 9821  11.588  43.792  14.281
38096W        W 9822  32.446  31.822   0.683
38097W        W 9823  12.539   3.733  12.488
38098W        W 9824  25.248   3.446   4.741
38099W        W 9825   4.864   0.664   5.082
38100W        W 9826  14.675   8.326  13.496
38101W        W 9827   5.105   4.516   1.803
38102W        W 9828  17.821  18.895  13.546
38103W        W 9829  19.029  26.059  13.862
38104W        W 9830   9.183  38.321   0.843
38105W        W 9831  31.328  15.722  14.032
38106W        W 9832  30.194  37.966   3.982
38107W        W 9833  24.016  31.179   3.655
38108W        W 9834  22.653  20.720  12.108
38109W        W 9835  32.203  40.344  13.412
38110W        W 9836  24.042  19.379   0.314
38111W        W 9837   4.316  44.996  13.609
38112W        W 9838  22.369  22.055  13.830
38113W        W 9839  43.218  25.817   4.729
38114W        W 9840  27.114  21.559   0.773
38115W        W 9841  37.448   1.674   2.372
38116W        W 9842  26.003  30.394   4.179
38117W        W 9843  38.537  42.866   2.984
38118W        W 9844  39.372  16.463  11.530
38119W        W 9845  40.255  38.719  14.810
38120W        W 9846   5.109  39.422   3.132
38121W        W 9847  17.289  22.960  12.825
38122W        W 9848   2.471  44.603  11.116
38123W        W 9849   3.773   2.267  14.135
38124W        W 9850   3.730   3.916  13.467
38125W        W 9851  14.711  41.089  13.426
38126W        W 9852   5.997   1.945   3.236
38127W        W 9853   6.475   1.976   0.720
38128W        W 9854  27.680   4.942   3.186
38129W        W 9855  16.801  11.646   3.151
38130W        W 9856  26.748  29.568  11.236
38131W        W 9857   8.342  13.430   3.672
38132W        W 9858  40.896  27.439   2.828
38133W        W 9859  14.341  28.542   0.213
38134W        W 9860  37.095  42.235  11.088
38135W        W 9861   4.375  36.880  14.166
38136W        W 9862  28.941  32.130  12.437
38137W        W 9863  39.782  23.391   0.141
38138W        W 9864   1.334  12.056   3.657
38139W        W 9865  42.317  24.697   3.673
38140W        W 9866  44.323  26.608  11.258
38141W        W 9867   2.488  44.061   0.374
38142W        W 9868   3.266   6.542   4.984
38143W        W 9869  10.921  35.641  11.876
38144W        W 9870   6.407  42.292   1.526
38145W        W 9871  27.647  19.008  13.013
38146W        W 9872  18.295  43.961   0.374
38147W        W 9873  38.521  14.549   3.204
38148W        W 9874   1.541  14.708   0.296
38149W        W 9875  10.172  31.775  11.630
38150W        W 9876  13.041  43.613  14.519
38151W        W 9877  37.522  37.892  14.852
38152W        W 9878   3.733  42.362  14.060
38153W        W 9879  11.636   4.955  11.630
38154W        W 9880  26.996  11.387  13.510
38155W        W 9881  40.507  35.064  14.974
38156W        W 9882  43.962  34.011   2.719
38157W        W 9883  22.501  32.499   4.642
38158W        W 9884  20.194  18.829   2.400
38159W        W 9885  39.833   1.870  14.920
38160W        W 9886  21.224  39.047   2.775
38161W        W 9887  26.426  34.047   2.356
38162W        W 9888  39.491  11.190   4.582
38163W        W 9889  29.631   2.842   2.196
38164W        W 9890  27.472  44.983   2.700
38165W        W 9891  16.562  32.612  12.942
38166W        W 9892  23.595   1.913  13.460
38167W        W 9893  18.964   6.284   4.449
38168W        W 9894  15.094   2.705   2.261
38169W        W 9895   2.690  39.566   4.149
38170W        W 9896  15.145  18.249   2.799
38171W        W 9897  28.762  24.466   2.459
38172W        W 9898  21.061  37.900  13.958
38173W        W 9899   9.575   0.333   1.423
38174W        W 9900   4.197   2.372   3.174
38175W        W 9901  16.593  19.750  10.977
38176W        W 9902   2.945   2.759  13.818
38177W        W 9903   0.990   8.109  12.148
38178W        W 9904  30.372  43.739   4.052
38179W        W 9905  34.939  37.024   0.187
38180W        W 9906   4.826  44.058   4.447
38181W        W 9907  23.373  31.860  13.841
38182W        W 9908  14.123  42.392   2.023
38183W        W 9909  35.046  17.617  10.799
38184W        W 9910  35.933  23.699   3.480
38185W        W 9911  18.742  37.642  11.589
38186W        W 9912   7.308   3.990   1.284
38187W        W 9913  43.176   3.415  12.945
38188W        W 9914  30.889   1.422   4.546
38189W        W 9915   6.236  44.394  14.627
38190W        W 9916  42.269  33.366  11.142
38191W        W 9917  28.198  43.973   1.404
38192W        W 9918  40.118  33.635  11.832
38193W        W 9919  14.785  43.683  14.815
38194W        W 9920   7.087  25.262  12.889
38195W        W 9921  42.108  11.253  10.661
38196W        W 9922  19.710   3.998  11.321
38197W        W 9923  14.328  41.501   0.171
38198W        W 9924  19.553  34.515  13.379
38199W        W 9925  34.998  38.283  13.486
38200W        W 9926   9.393   6.000   2.729
38201W        W 9927   8.513   5.988  11.159
38202W        W 9928   3.030  29.171  12.458
38203W        W 9929  41.970  29.448   4.223
38204W        W 9930  22.983   2.231  10.758
38205W        W 9931  14.169   5.410   2.811
38206W        W 9932  26.042   1.789   4.853
38207W        W 9933  14.367  14.261  10.786
38208W        W 9934  12.626  12.756   2.791
38209W        W 9935   5.364  22.110   4.357
38210W        W 9936  35.072  41.393  14.852
38211W        W 9937  20.002  37.125  12.877
38212W        W 9938  13.314  26.607   0.345
38213W        W 9939  41.987  21.122  12.173
38214W        W 9940  41.749  26.072   1.039
38215W        W 9941  34.487   3.677   4.140
38216W        W 9942  21.302  44.473   0.456
38217W        W 9943   7.304  29.926  10.550
38218W        W 9944  27.462  29.623   0.771
38219W        W 9945   3.014  29.569  11.211
38220W        W 9946  21.064   0.792  10.646
38221W        W 9947  34.019  23.388  11.487
38222W        W 9948   8.800  43.309   4.824
38223W        W 9949  30.104  20.548   3.093
38224W        W 9950  25.057  23.729   2.768
38225W        W 9951  36.592  26.951  10.915
38226W        W 9952  27.231  19.483   4.480
38227W        W 9953  28.522  31.407   2.280
38228W        W 9954   2.839  31.224  12.609
38229W        W 9955  24.717  33.141   2.776
38230W        W 9956  21.492  29.737   3.708
38231W        W 9957  38.951  40.793   1.348
38232W        W 9958  41.244  30.912   1.870
38233W        W 9959  18.656  23.493   3.190
38234W        W 9960  15.516  11.322   1.863
38235W        W 9961  40.543  39.907   0.425
38236W        W 9962  31.527  14.609   2.862
38237W        W 9963  33.505  35.208   4.301
38238W        W 9964   0.519  25.445  11.555
38239W        W 9965  23.764  25.045  12.909
38240W        W 9966   1.150  19.482  12.362
38241W        W 9967  41.540  15.886  12.388
38242W        W 9968  40.456  20.106  13.718
38243W        W 9969  11.686  13.460   2.386
38244W        W 9970   7.660  35.978  12.410
38245W        W 9971  23.590  32.405   4.907
38246W        W 9972  38.422  38.522  10.707
38247W        W 9973  36.517  37.327   4.559
38248W        W 9974  24.164   7.791  14.900
38249W        W 9975  29.403   3.015  13.974
38250W        W 9976  30.415  33.566  12.404
38251W        W 9977  12.349  27.404  13.786
38252W        W 9978  28.566  12.176  14.279
38253W        W 9979  29.322  14.227  13.534
38254W        W 9980   0.686  18.166   0.467
38255W        W 9981  17.034  16.486   0.771
38256W        W 9982  44.827  24.774  12.521
38257W        W 9983  39.967  29.445   0.889
38258W        W 9984  27.887   4.421   5.091
38259W        W 9985   0.053  16.284   2.957
38260W        W 9986  28.487  18.396  11.568
38261W        W 9987   6.427   4.949   3.077
38262W        W 9988  17.757  34.071   2.754
38263W        W 9989   5.390  27.951   0.815
38264W        W 9990  30.064  40.331  10.761
38265W        W 9991   5.796  26.292   3.209
38266W        W 9992  26.472  43.174  13.830
38267W        W 9993  14.733  25.851  13.531
38268W        W 9994   6.806   1.567   4.169
38269W        W 9995  16.380  16.690  13.093
38270W        W 9996  26.531  37.115  12.366
38271W        W 9997  27.132  24.804   3.886
38272W        W 9998  19.521  22.795  13.209
38273W        W 9999  28.874   4.709  12.092
38274W        W10000  20.283  27.098   0.505
38275W        W10001   4.639  24.937  10.732
38276W        W10002  21.200  34.901   0.731
38277W        W10003  17.683   6.011   4.905
38278W        W10004   9.450  15.158   1.281
38279W        W10005  29.124   3.439  13.859
38280W        W10006  32.584  16.716  12.921
38281W        W10007  41.036  36.649  11.104
38282W        W10008  39.983   1.057  11.973
38283W        W10009  23.381  14.199   5.037
38284W        W10010  14.812  32.042   5.090
38285W        W10011  17.103  37.095   2.268
38286W        W10012  17.219   6.209  11.153
38287W        W10013  43.479  26.964   3.302
38288W        W10014  28.634  37.727  14.244
38289W        W10015  43.099  24.577  11.277
38290W        W10016  19.234  15.119   3.403
38291W        W10017   4.477  43.757   2.255
38292W        W10018  32.549  43.749   3.279
38293W        W10019   2.228  24.666   1.789
38294W        W10020   7.676  43.540   1.766
38295W        W10021   6.401   8.238   1.548
38296W        W10022   9.746  37.686   5.027
38297W        W10023   3.496  15.433  13.814
38298W        W10024  37.178  42.484   0.976
38299W        W10025  27.166   5.199  11.599
38300W        W10026  35.338  32.523   4.052
38301W        W10027  35.138  44.205   0.468
38302W        W10028  12.785  28.349   1.287
38303W        W10029  32.969  24.802  14.351
38304W        W10030  38.794  43.992  11.175
38305W        W10031  34.557   0.236  13.541
38306W        W10032   8.298   9.869  10.590
38307W        W10033   6.731  32.454   0.458
38308W        W10034  41.016  42.201  13.714
38309W        W10035  40.602  15.766   2.909
38310W        W10036  42.897  23.058   0.390
38311W        W10037  12.327   3.187   1.514
38312W        W10038   7.792  30.448   4.517
38313W        W10039  15.115  32.272  11.578
38314W        W10040   0.926  31.438  10.675
38315W        W10041  18.511  35.080  11.132
38316W        W10042  24.560  30.509  13.621
38317W        W10043  32.907  24.960   3.616
38318W        W10044  22.148  39.938   1.715
38319W        W10045  14.280  37.506  13.269
38320W        W10046  23.408  39.026   2.289
38321W        W10047  17.832  27.573   0.560
38322W        W10048   7.458  32.783  13.016
38323W        W10049  25.141  40.440   0.241
38324W        W10050   8.404  38.793   4.116
38325W        W10051  17.775  39.983  11.051
38326W        W10052  16.503   0.516  14.982
38327W        W10053  40.930  28.666  11.668
38328W        W10054  16.170   2.407  10.427
38329W        W10055   5.022  31.494   2.079
38330W        W10056  29.939  27.104   0.387
38331W        W10057  18.549   0.870   5.097
38332W        W10058  12.282   9.314   1.664
38333W        W10059  38.656  11.624  14.422
38334W        W10060  15.192  39.468   3.398
38335W        W10061  12.248  22.525   1.209
38336W        W10062   5.235  22.094   0.384
38337W        W10063  16.860  26.965  14.432
38338W        W10064  20.231  16.370   0.494
38339W        W10065  22.312  41.706   1.692
38340W        W10066  24.486  11.436  14.837
38341W        W10067  24.261  19.627  13.013
38342W        W10068   6.757  17.710  13.279
38343W        W10069  12.417  20.950   0.913
38344W        W10070  12.725  43.273   3.383
38345W        W10071  11.394  10.831   1.890
38346W        W10072  18.766   8.620   3.206
38347W        W10073  24.867   1.238   5.162
38348W        W10074  30.185  35.607   0.958
38349W        W10075  13.060  35.227   2.905
38350W        W10076  34.407  33.993  14.791
38351W        W10077  30.186  10.488  13.163
38352W        W10078  41.466  18.718  11.648
38353W        W10079  30.660   5.413  12.355
38354W        W10080   6.958   5.262  13.286
38355W        W10081  15.022   6.211  12.882
38356W        W10082  34.879  16.216   3.230
38357W        W10083  44.779  15.261   0.520
38358W        W10084   9.444  13.800   1.480
38359W        W10085  35.136  35.739  14.834
38360W        W10086  33.920  33.108   3.323
38361W        W10087  17.576  20.335  13.195
38362W        W10088  44.528  30.840   1.799
38363W        W10089   5.244  30.470   3.152
38364W        W10090  32.461   0.385   0.406
38365W        W10091  26.428  14.599   1.108
38366W        W10092  20.166   8.883   1.200
38367W        W10093  40.098  40.787   2.733
38368W        W10094  24.990  28.043   3.602
38369W        W10095  15.340  18.694   0.750
38370W        W10096  38.909  40.973   3.286
38371W        W10097  40.833   3.953  11.606
38372W        W10098  21.548  24.497   0.820
38373W        W10099  29.910  16.810   1.809
38374W        W10100  28.947   0.329   1.408
38375W        W10101  22.052   0.266  14.301
38376W        W10102  36.595  13.585  12.376
38377W        W10103   4.473  15.599   3.201
38378W        W10104  33.656  18.578  10.663
38379W        W10105  22.506   0.103   0.848
38380W        W10106   3.242  34.848  12.511
38381W        W10107  13.406  43.872   0.458
38382W        W10108  44.466  10.822  13.574
38383W        W10109  18.799  24.007   1.846
38384W        W10110   8.195  16.143   4.169
38385W        W10111   3.811   6.654  12.058
38386W        W10112  17.830   4.299   0.751
38387W        W10113   1.889   3.461  13.359
38388W        W10114  33.998  39.261  11.443
38389W        W10115   6.110   9.471  12.453
38390W        W10116  20.507  20.218   1.507
38391W        W10117  30.518  15.531  12.201
38392W        W10118   4.229  28.365   4.593
38393W        W10119   4.624  13.137   1.286
38394W        W10120  33.436  42.543  10.629
38395W        W10121  40.636  13.884   2.772
38396W        W10122   3.747  25.407  10.664
38397W        W10123  42.581  23.705   3.830
38398W        W10124  26.316  43.921  12.013
38399W        W10125  17.105  26.087   2.892
38400W        W10126  44.733  37.904   1.510
38401W        W10127  38.382  34.278  14.103
38402W        W10128   1.787  25.954  12.606
38403W        W10129  13.923  17.986  11.473
38404W        W10130  34.901   0.605  12.389
38405W        W10131  28.754  25.713  14.546
38406W        W10132  22.591  40.411   1.647
38407W        W10133  22.826  43.262  13.501
38408W        W10134  36.068   6.124  10.451
38409W        W10135  36.590  12.329   3.350
38410W        W10136  25.272  42.839   5.312
38411W        W10137  35.122   2.656  12.539
38412W        W10138  27.924  22.564  12.835
38413W        W10139  43.746  19.643   0.441
38414W        W10140   9.345  27.974  12.558
38415W        W10141  35.219  25.149   1.206
38416W        W10142   6.304  34.979  10.662
38417W        W10143  23.306  38.313   3.623
38418W        W10144  37.532   2.137  13.850
38419W        W10145   3.125  34.476  12.849
38420W        W10146   7.378  41.509   2.682
38421W        W10147   7.780   1.485  12.533
38422W        W10148  27.215  31.734   1.699
38423W        W10149   3.978   5.152  12.184
38424W        W10150  44.521  22.042  13.911
38425W        W10151  32.667   4.954  11.914
38426W        W10152   8.380  21.307   1.136
38427W        W10153   0.227   8.716   1.364
38428W        W10154  27.349   3.438  12.186
38429W        W10155   8.331  27.236   2.132
38430W        W10156  43.567   8.594   1.367
38431W        W10157   7.149   1.715   1.306
38432W        W10158  29.568  42.740   0.709
38433W        W10159  38.115   1.011   3.414
38434W        W10160  42.393  27.383  14.456
38435W        W10161  40.907   2.009   1.939
38436W        W10162   1.919  12.238   1.336
38437W        W10163   4.487   3.824   4.188
38438W        W10164  14.065   1.904  12.509
38439W        W10165   4.490  35.038   0.623
38440W        W10166  38.147   2.949  10.448
38441W        W10167  17.769  42.767  14.399
38442W        W10168   1.217  29.246  14.868
38443W        W10169  38.025   2.070  11.510
38444W        W10170  24.164  44.513  11.477
38445W        W10171  44.577  30.552   3.243
38446W        W10172  18.086  25.951  12.650
38447W        W10173  15.607  23.581   2.390
38448W        W10174  11.899  26.777  12.123
38449W        W10175  23.076  41.455   2.822
38450W        W10176   9.816  19.760  12.501
38451W        W10177  37.977  42.968  10.582
38452W        W10178   4.184  14.371   0.783
38453W        W10179  18.088  16.338   1.323
38454W        W10180  43.789   6.111  12.945
38455W        W10181  39.458  33.421   3.462
38456W        W10182   3.171   4.305   0.152
38457W        W10183  40.870  33.583  12.430
38458W        W10184  13.602  21.027   2.688
38459W        W10185  36.383  34.846  11.241
38460W        W10186  15.104  30.380   1.792
38461W        W10187  16.791  19.895  12.887
38462W        W10188  20.600  28.448   0.528
38463W        W10189  36.189  41.952   1.566
38464W        W10190  37.930  24.590   1.854
38465W        W10191   4.202  39.690  12.911
38466W        W10192  13.378  11.106  12.712
38467W        W10193   2.829  11.144   4.865
38468W        W10194  15.575   6.844  10.851
38469W        W10195  17.331  22.984   4.282
38470W        W10196  11.061  10.850   3.613
38471W        W10197  24.754  36.174   1.196
38472W        W10198  22.120   2.990   4.252
38473W        W10199  43.089  12.713   2.189
38474W        W10200  41.494  36.383   4.696
38475W        W10201   9.218   9.958   2.232
38476W        W10202  29.051  30.288  11.127
38477W        W10203  36.851  38.008  10.988
38478W        W10204  43.824  18.790  10.712
38479W        W10205  38.876  43.842   1.004
38480W        W10206  39.522  21.721   1.885
38481W        W10207  25.012   8.915  12.134
38482W        W10208  21.546   0.096   4.184
38483W        W10209  35.849  43.842   1.904
38484W        W10210  17.606   6.448   0.374
38485W        W10211  38.615   3.462   3.448
38486W        W10212  37.843  22.423   2.336
38487W        W10213  34.321  15.708   4.113
38488W        W10214   9.158  15.827  13.315
38489W        W10215  23.812   7.716  14.526
38490W        W10216  37.961  44.228  11.963
38491W        W10217   2.642   4.874   0.981
38492W        W10218   1.742  11.443   1.789
38493W        W10219  16.215   9.255   1.351
38494W        W10220  35.151  25.680   2.907
38495W        W10221  26.021  20.508  10.668
38496W        W10222  30.518  16.640   4.542
38497W        W10223   5.415   1.921   1.744
38498W        W10224  35.808   1.751  13.356
38499W        W10225  15.109  14.973  14.055
38500W        W10226  10.191   0.905   1.120
38501W        W10227  41.679  30.168  13.755
38502W        W10228  36.411   6.662   4.043
38503W        W10229  15.218   0.153   0.445
38504W        W10230   3.763  23.073   2.216
38505W        W10231   2.029   3.003   0.711
38506W        W10232  10.169  12.143   2.700
38507W        W10233  14.333  39.514  10.474
38508W        W10234   5.004  40.539  14.946
38509W        W10235  33.316  25.597   2.271
38510W        W10236  22.490  20.571   0.503
38511W        W10237  25.478   8.113  10.704
38512W        W10238  32.475  34.567   2.627
38513W        W10239  12.399   3.357  11.156
38514W        W10240  26.452  29.200  10.539
38515W        W10241  13.236   5.177  11.532
38516W        W10242  14.802  25.754   4.529
38517W        W10243  16.704  28.168   1.347
38518W        W10244  23.260   8.892  11.047
38519W        W10245   2.038   9.300  12.150
38520W        W10246  26.642  28.981   2.847
38521W        W10247  16.743  17.011   3.694
38522W        W10248  10.228  15.335  14.387
38523W        W10249  34.966  41.680   1.352
38524W        W10250  32.375  20.806  11.206
38525W        W10251  30.988  20.180   0.330
38526W        W10252  15.847  21.332  14.687
38527W        W10253  34.662  15.383   3.264
38528W        W10254  22.115   2.318   2.015
38529W        W10255  37.509  32.065  12.790
38530W        W10256  42.000   5.697  14.455
38531W        W10257   9.635   8.640   5.125
38532W        W10258  34.786  40.979   3.128
38533W        W10259   3.228  38.064  10.755
38534W        W10260   1.675  29.496  11.564
38535W        W10261  28.702  14.865  13.874
38536W        W10262  28.487  31.407  12.602
38537W        W10263  16.055  43.817  12.450
38538W        W10264   1.861  43.579  11.980
38539W        W10265   0.560  37.165   5.086
38540W        W10266   1.850  31.548  14.993
38541W        W10267  11.912  31.028  13.880
38542W        W10268  37.140  11.140  12.529
38543W        W10269  28.884  40.439  11.341
38544W        W10270   6.407  36.475   2.590
38545W        W10271  40.645   5.915  14.447
38546W        W10272  29.720  26.671  10.686
38547W        W10273  12.819  16.769   4.104
38548W        W10274   6.165   7.778   0.234
38549W        W10275  25.647  43.858  14.576
38550W        W10276   0.366   2.554  12.655
38551W        W10277  10.889   4.362   3.736
38552W        W10278  31.793  31.479  11.858
38553W        W10279  23.063  37.526  14.104
38554W        W10280   9.262  19.667   1.559
38555W        W10281  27.563  25.649  12.079
38556W        W10282  15.569  32.376  11.907
38557W        W10283  13.454  22.105  11.886
38558W        W10284  36.524  30.590   9.833
38559W        W10285  42.491  43.210   3.781
38560W        W10286  44.927   1.258   3.277
38561W        W10287   8.404  41.618   2.443
38562W        W10288   5.598   2.355  14.104
38563W        W10289  29.715   1.992  10.333
38564W        W10290  24.630  44.247  11.505
38565W        W10291  41.659   7.050   5.056
38566W        W10292  14.786  36.463  11.576
38567W        W10293  29.001  29.627   2.212
38568W        W10294  39.141  37.945  12.884
38569W        W10295   1.757  30.037  10.439
38570W        W10296  17.530  22.580  14.849
38571W        W10297   1.993  23.769  14.312
38572W        W10298  10.408  10.273   0.412
38573W        W10299   2.341  25.071  12.553
38574W        W10300  12.203  36.590  14.482
38575W        W10301  32.407  30.730   1.832
38576W        W10302  19.080  21.582   2.758
38577W        W10303  27.913  23.072  11.149
38578W        W10304  14.275  44.801  11.119
38579W        W10305  20.065  26.039   0.784
38580W        W10306   1.090   9.384   3.122
38581W        W10307   5.292  38.019  12.900
38582W        W10308  32.634  31.551  14.712
38583W        W10309  26.667  39.235   4.639
38584W        W10310   6.398  24.087  13.872
38585W        W10311  12.093   9.384   1.156
38586W        W10312  15.128  30.669  12.878
38587W        W10313   7.312  42.870  10.192
38588W        W10314  15.679  32.662  12.346
38589W        W10315  23.497  15.910  10.670
38590W        W10316  37.888  17.686   1.362
38591W        W10317  10.832  34.379  10.133
38592W        W10318  29.358  34.322  12.017
38593W        W10319  10.898  41.364  11.241
38594W        W10320  16.761  16.549  10.465
38595W        W10321  16.216  29.714   2.155
38596W        W10322   2.227  22.048   3.174
38597W        W10323  31.465  26.178   4.933
38598W        W10324   7.251   0.353   0.953
38599W        W10325  42.105  22.890   4.157
38600W        W10326  13.792  18.821  11.089
38601W        W10327  30.901   0.418  14.915
38602W        W10328  42.693  37.870   1.862
38603W        W10329   8.135  24.546  10.063
38604W        W10330  15.760  36.550  11.396
38605W        W10331   0.486  35.315   0.260
38606W        W10332   3.976  22.591  10.604
38607W        W10333  15.158  43.399  11.472
38608W        W10334   6.930   6.314  10.372
38609W        W10335   1.998  24.088  11.173
38610W        W10336  28.858  21.996   4.235
38611W        W10337   8.391  28.098   1.102
38612W        W10338  18.253  24.508  14.270
38613W        W10339  41.268  27.661   1.920
38614W        W10340  16.113  37.543  10.632
38615W        W10341  20.686  19.867   0.898
38616W        W10342   8.835  12.938   3.026
38617W        W10343   7.826  25.705   1.771
38618W        W10344  39.020  24.425  12.415
38619W        W10345  19.432  44.245   4.403
38620W        W10346  12.183   6.255   0.376
38621W        W10347   5.728   1.477   3.202
38622W        W10348  35.776   4.923   2.063
38623W        W10349  41.315  35.787  13.199
38624W        W10350  17.714   7.823  14.542
38625W        W10351   1.267  12.910   4.199
38626W        W10352  37.208  42.336  14.519
38627W        W10353  13.314   9.257  11.228
38628W        W10354  35.956  23.010   2.848
38629W        W10355  23.621  16.698   3.587
38630W        W10356  18.182  17.224   1.418
38631W        W10357   5.790   1.634  10.580
38632W        W10358   4.727   5.995  14.466
38633W        W10359  24.017  29.641  14.310
38634W        W10360   8.845  29.395   2.916
38635W        W10361  26.014   0.270  11.930
38636W        W10362  32.376  18.465   2.271
38637W        W10363   8.746  32.247  10.832
38638W        W10364   6.880   1.881   2.992
38639W        W10365  29.575  34.925   3.139
38640W        W10366  11.253  21.065  10.566
38641W        W10367  28.673  28.138   3.105
38642W        W10368  16.064   5.833   4.492
38643W        W10369  14.510  33.506  11.640
38644W        W10370  44.355  20.890   3.642
38645W        W10371  25.198   9.086  14.533
38646W        W10372  15.145  20.525   2.752
38647W        W10373   5.700   8.589   4.266
38648W        W10374  28.665  43.462   3.213
38649W        W10375  27.814  37.300  13.255
38650W        W10376  43.291   3.194   0.237
38651W        W10377   3.232  23.145   3.855
38652W        W10378  37.029  40.557  11.605
38653W        W10379  33.445   4.863   2.447
38654W        W10380  29.628  24.093   4.604
38655W        W10381  13.079   4.718   5.119
38656W        W10382  34.115  20.656  12.573
38657W        W10383  44.299   7.960   0.405
38658W        W10384  23.400  13.135   2.991
38659W        W10385  29.516  32.442   3.340
38660W        W10386  22.233   7.759   0.766
38661W        W10387  24.230  34.412  10.755
38662W        W10388  44.018  32.459  12.594
38663W        W10389  13.664  41.095   4.514
38664W        W10390  42.250  10.771   2.699
38665W        W10391  12.385  17.890   3.762
38666W        W10392   9.445   3.572  13.054
38667W        W10393  27.804  32.068  10.668
38668W        W10394  30.407   3.150   3.114
38669W        W10395  17.835  43.072   1.835
38670W        W10396  29.285  42.443  13.487
38671W        W10397   1.520  40.598   1.713
38672W        W10398   2.512  28.274   2.199
38673W        W10399   9.199  10.167  14.930
38674W        W10400  25.022   5.259   0.463
38675W        W10401   8.776  27.587  13.392
38676W        W10402  39.577  12.598   0.955
38677W        W10403  28.092  16.816  13.982
38678W        W10404  20.360  13.155   0.791
38679W        W10405  13.235  42.102   0.246
38680W        W10406  19.754   2.879  11.616
38681W        W10407  12.211   8.834   0.400
38682W        W10408  29.135  22.448  14.393
38683W        W10409   8.148  32.845   0.248
38684W        W10410  28.429  23.999  14.831
38685W        W10411  28.210  25.734   1.352
38686W        W10412  25.759  33.986  13.721
38687W        W10413  33.929  17.811  12.391
38688W        W10414  29.927  32.532  14.844
38689W        W10415  10.130  24.638  14.461
38690W        W10416  26.756  35.941   5.100
38691W        W10417  30.660  18.371  14.508
38692W        W10418  29.524  41.733  11.002
38693W        W10419   1.486  19.719   1.415
38694W        W10420  19.995  27.923   3.423
38695W        W10421  22.525   6.677   2.883
38696W        W10422  42.576  10.355   1.921
38697W        W10423  34.442  25.157   0.557
38698W        W10424   3.697  14.299   2.396
38699W        W10425  44.823  42.848  13.346
38700W        W10426  27.565  19.285  14.930
38701W        W10427  39.116  21.656  12.019
38702W        W10428   0.188  35.625  12.019
38703W        W10429  17.867   5.234  10.637
38704W        W10430  19.519   8.203   0.743
38705W        W10431  44.148  28.155  13.888
38706W        W10432  40.747  16.899  11.614
38707W        W10433  17.953  26.810  11.119
38708W        W10434  42.046   3.285   9.512
38709W        W10435   4.253  19.188   2.813
38710W        W10436  16.157   6.598   1.341
38711W        W10437  40.556   0.296   2.443
38712W        W10438  42.405  14.201  14.514
38713W        W10439  10.905  34.729   3.218
38714W        W10440  40.615  20.782  11.071
38715W        W10441  16.725  29.442  14.865
38716W        W10442  41.988   7.769  12.492
38717W        W10443  10.201  26.915  14.438
38718W        W10444  27.963  36.054   0.834
38719W        W10445   9.004  22.586   9.833
38720W        W10446   0.493   1.159   4.276
38721W        W10447  13.079  30.683   1.828
38722W        W10448   1.294  32.092   2.484
38723W        W10449   1.018  30.563  10.492
38724W        W10450   6.926   0.333   2.359
38725W        W10451   0.239  15.181   3.217
38726W        W10452  44.235  18.888   5.134
38727W        W10453   9.626  16.257   1.063
38728W        W10454  14.117  24.107   2.979
38729W        W10455  41.356  27.198   2.794
38730W        W10456  26.206   1.264   5.482
38731W        W10457  26.406  10.707  11.258
38732W        W10458  43.509  17.003  10.190
38733W        W10459  12.349  10.697   1.662
38734W        W10460  16.348  27.644  11.067
38735W        W10461  43.837  29.614   1.439
38736W        W10462  42.278  38.415  14.801
38737W        W10463  28.636  36.983  11.053
38738W        W10464  38.657   7.006   2.099
38739W        W10465  35.901  10.795   4.354
38740W        W10466  19.889  14.666  13.310
38741W        W10467   7.943   0.055  13.825
38742W        W10468   8.929   6.855   1.258
38743W        W10469   9.335  40.808  10.408
38744W        W10470  17.132  35.887   1.415
38745W        W10471  11.276  15.815  10.725
38746W        W10472  24.951   4.175   4.297
38747W        W10473  32.138  24.092   1.614
38748W        W10474  34.426  21.779   2.933
38749W        W10475   7.640  39.443   1.016
38750W        W10476  14.980  30.678  10.913
38751W        W10477  18.455  14.802   1.193
38752W        W10478  40.559  43.697   3.505
38753W        W10479  41.587  32.230   1.657
38754W        W10480  19.252   2.440   2.142
38755W        W10481   4.909  38.684   4.595
38756W        W10482  39.010  24.606  14.379
38757W        W10483  15.652  40.878   0.353
38758W        W10484  22.710  27.686   1.829
38759W        W10485   8.381   1.194  11.654
38760W        W10486  23.425  31.512  12.149
38761W        W10487   8.264   0.578  14.522
38762W        W10488  36.281  31.681  14.814
38763W        W10489   6.230  28.438  11.417
38764W        W10490  13.860  14.237   0.585
38765W        W10491  43.358  20.044  10.786
38766W        W10492   7.286  42.749   1.760
38767W        W10493   3.466   1.978  10.634
38768W        W10494  13.912  13.243   3.147
38769W        W10495  32.879  12.599   1.702
38770W        W10496  14.912  23.137   3.853
38771W        W10497  19.237  40.423   1.709
38772W        W10498  42.822  33.017  14.033
38773W        W10499  20.258  22.815   2.616
38774W        W10500  44.654  25.710  12.919
38775W        W10501  43.494  13.829   3.280
38776W        W10502  11.048  38.823   1.798
38777W        W10503  18.347  20.589  13.060
38778W        W10504  38.277  25.467   1.950
38779W        W10505  40.257  39.977   3.654
38780W        W10506   0.868  13.580   0.960
38781W        W10507   1.307  21.878  13.838
38782W        W10508  39.016  24.065  10.630
38783W        W10509  39.839  38.077   2.380
38784W        W10510  29.948  39.003  12.594
38785W        W10511  36.334  19.283   3.656
38786W        W10512  28.076  14.408  14.210
38787W        W10513  36.482  28.475  13.027
38788W        W10514  28.073  13.754   4.621
38789W        W10515  42.686  33.038   2.128
38790W        W10516  33.828  20.209  11.397
38791W        W10517  22.435   8.074   3.255
38792W        W10518  22.703  11.047   1.151
38793W        W10519   6.920  21.984   1.464
38794W        W10520  11.443   1.538   3.780
38795W        W10521  37.048  28.206  10.660
38796W        W10522   5.650  32.976   4.127
38797W        W10523  19.238  18.412   2.343
38798W        W10524  42.421  20.968  11.124
38799W        W10525  39.393   7.358  13.575
38800W        W10526  27.139  12.061   0.894
38801W        W10527  34.026  31.780   4.364
38802W        W10528  41.321  15.340   0.901
38803W        W10529  10.342  23.494   0.858
38804W        W10530  11.152  39.475  14.748
38805W        W10531   5.906   6.117  13.135
38806W        W10532   4.160  35.286   3.271
38807W        W10533  18.037  11.204  13.033
38808W        W10534  32.490  18.974   1.507
38809W        W10535  39.919  30.465  11.637
38810W        W10536  16.639   6.142   3.658
38811W        W10537  20.800  24.697  10.632
38812W        W10538  19.941  34.115   3.302
38813W        W10539  32.098  22.201  12.883
38814W        W10540  42.303  38.648   4.170
38815W        W10541  19.679  30.584  11.053
38816W        W10542  22.824  19.523   1.396
38817W        W10543  32.024   6.573  12.368
38818W        W10544  41.274  13.528  13.519
38819W        W10545   6.779  31.353  13.104
38820W        W10546  44.204  25.440   1.048
38821W        W10547   5.929  16.819   5.636
38822W        W10548  44.192  40.885   3.132
38823W        W10549  43.316  39.710  12.646
38824W        W10550  34.643   9.761  13.984
38825W        W10551  40.310   1.965   1.026
38826W        W10552  24.534  21.972   2.228
38827W        W10553   5.468  39.224   1.783
38828W        W10554  13.588   5.219  14.501
38829W        W10555  29.033   3.873   1.213
38830W        W10556  32.410  20.801  12.102
38831W        W10557  39.131  34.030  13.563
38832W        W10558   9.410  26.601   4.273
38833W        W10559  13.922   0.834  12.054
38834W        W10560  24.828  24.268   3.447
38835W        W10561   6.613  18.859  10.633
38836W        W10562  11.914  40.441   2.261
38837W        W10563   2.804  27.703  11.146
38838W        W10564  32.444  14.779   3.189
38839W        W10565  20.601  11.355   0.290
38840W        W10566   8.610  14.648  14.009
38841W        W10567  43.057  17.678  11.674
38842W        W10568   4.753  25.774  12.046
38843W        W10569   5.859  26.472  13.482
38844W        W10570  24.400  20.671   3.303
38845W        W10571  21.047   3.787   3.818
38846W        W10572  19.887  18.193   1.749
38847W        W10573  40.937   9.781   4.039
38848W        W10574  44.377  21.444   4.089
38849W        W10575  39.777  22.410   4.001
38850W        W10576  31.810  42.216   9.875
38851W        W10577   6.750  13.888  11.996
38852W        W10578  12.522  31.140   1.452
38853W        W10579   2.884  25.040   2.514
38854W        W10580  23.028  24.810  13.452
38855W        W10581  12.926  40.868  11.135
38856W        W10582  11.896  38.554   3.285
38857W        W10583   2.660   9.885  14.504
38858W        W10584  31.960   4.192  12.697
38859W        W10585   9.728   8.769   1.916
38860W        W10586  20.964  39.237   4.141
38861W        W10587  10.890   5.408  12.913
38862W        W10588  41.655  44.773   0.748
38863W        W10589  36.144  26.005  10.593
38864W        W10590   0.234  40.129   4.576
38865W        W10591   6.749  19.065  14.250
38866W        W10592  44.304  33.618   2.767
38867W        W10593  27.052  25.772   2.919
38868W        W10594   0.362   3.845  10.681
38869W        W10595  30.979   0.170   1.222
38870W        W10596  11.624  44.404   3.741
38871W        W10597  35.609  28.412  11.654
38872W        W10598   6.702  31.167   0.955
38873W        W10599  13.570  42.466  13.434
38874W        W10600  37.843  43.969  14.866
38875W        W10601  44.242  12.065   3.480
38876W        W10602  33.466  37.532  10.767
38877W        W10603  17.254  31.527  12.529
38878W        W10604  32.181  38.823   4.970
38879W        W10605  31.776  12.547   1.264
38880W        W10606  15.233  26.764   0.470
38881W        W10607   8.298   7.189   4.677
38882W        W10608  31.983  32.689  12.983
38883W        W10609  29.048  18.277   2.867
38884W        W10610  43.758  10.883   1.321
38885W        W10611  11.662   1.254   3.297
38886W        W10612  16.567  14.125   4.608
38887W        W10613  28.283   4.775  11.114
38888W        W10614  36.787   0.755  11.594
38889W        W10615  32.758  21.979   2.115
38890W        W10616   1.573  16.265  12.368
38891W        W10617  34.157   7.178  13.897
38892W        W10618  36.002   6.652  14.488
38893W        W10619  35.659  16.294  14.612
38894W        W10620   0.674  41.984   3.150
38895W        W10621  34.327   5.815  11.617
38896W        W10622  24.913  21.633  11.632
38897W        W10623  25.347  42.513   2.444
38898W        W10624   2.671  42.057  10.697
38899W        W10625  38.785  18.792   4.199
38900W        W10626   5.230  30.693   2.244
38901W        W10627  12.822  35.458  10.739
38902W        W10628  22.635  12.160   0.114
38903W        W10629   2.294  18.322   2.353
38904W        W10630  44.970  35.491  14.871
38905W        W10631  11.244   4.894   2.303
38906W        W10632  15.849  33.049   4.677
38907W        W10633   8.504  40.093  11.605
38908W        W10634   5.129  10.694  14.795
38909W        W10635  22.695  36.109  13.052
38910W        W10636  42.112  21.040   4.567
38911W        W10637   8.485  21.518   0.250
38912W        W10638  29.538  25.042  12.613
38913W        W10639  36.885  35.098   1.697
38914W        W10640  35.340   4.940   3.379
38915W        W10641  13.340  17.440  13.953
38916W        W10642  15.026  22.289   4.296
38917W        W10643   2.229  36.533  12.920
38918W        W10644  30.393  18.784   2.899
38919W        W10645  23.934  32.118   1.225
38920W        W10646   0.788  11.213   0.922
38921W        W10647   3.149  20.525   3.546
38922W        W10648  35.001   5.787   0.837
38923W        W10649   9.338  21.149  14.825
38924W        W10650   0.511  29.096  12.329
38925W        W10651  42.693  18.290   2.859
38926W        W10652  43.002  16.813   1.946
38927W        W10653  28.581  31.480   0.658
38928W        W10654  41.382  34.926  10.365
38929W        W10655   6.923  24.602   2.770
38930W        W10656   8.402  34.363   1.240
38931W        W10657  44.821  38.855  13.472
38932W        W10658  25.901  41.548  10.696
38933W        W10659  10.219  32.100   0.557
38934W        W10660  37.811  20.459   2.822
38935W        W10661   0.356  10.775  12.878
38936W        W10662  11.711  13.464  14.348
38937W        W10663  27.892  41.429  11.697
38938W        W10664  30.993  16.670  14.085
38939W        W10665  44.192  20.366   5.340
38940W        W10666  16.188  18.520   1.704
38941W        W10667  13.645   1.400   1.985
38942W        W10668  14.528  11.757  13.417
38943W        W10669  30.610   8.052  14.755
38944W        W10670  17.990  32.465  13.797
38945W        W10671  35.668  43.456   3.691
38946W        W10672   8.590  30.195  14.742
38947W        W10673   2.589   9.899   1.214
38948W        W10674   6.116   2.784   2.726
38949W        W10675  35.355  29.999   4.159
38950W        W10676  19.778   3.769   4.176
38951W        W10677  17.240  24.734   3.154
38952W        W10678   1.397  36.657   4.128
38953W        W10679  17.340  30.047  12.447
38954W        W10680   9.450  39.874   4.393
38955W        W10681  25.724   0.245  14.802
38956W        W10682   3.461  36.006  14.400
38957W        W10683  34.989  13.303  12.941
38958W        W10684  14.701  29.341  14.544
38959W        W10685   8.800  18.282  11.561
38960W        W10686  36.601  21.987   4.160
38961W        W10687  16.698  43.768   3.046
38962W        W10688  42.502  11.724  14.038
38963W        W10689   0.497  12.656  11.460
38964W        W10690  37.523  14.545  11.666
38965W        W10691  19.809  29.469   4.142
38966W        W10692  11.862  11.876   1.388
38967W        W10693  23.624  12.869   4.139
38968W        W10694   6.256  25.117   0.383
38969W        W10695  44.733   8.178   2.657
38970W        W10696  15.535  21.834   1.844
38971W        W10697   0.261  40.904  10.676
38972W        W10698  44.950   4.666   0.382
38973W        W10699  37.018  40.529  12.414
38974W        W10700  18.733  35.525  13.539
38975W        W10701  38.005  29.651   0.511
38976W        W10702  19.864  33.920   4.592
38977W        W10703  38.846  15.027  11.462
38978W        W10704  15.476  33.964  12.589
38979W        W10705   8.995  25.476  13.542
38980W        W10706  11.770  10.770  13.854
38981W        W10707  34.021  15.044   4.575
38982W        W10708   3.936   4.856   2.389
38983W        W10709  39.226  28.154  12.959
38984W        W10710  23.893  34.486  14.409
38985W        W10711  27.991  37.288   0.371
38986W        W10712  34.102  13.927   1.900
38987W        W10713  27.736   0.397  13.070
38988W        W10714  10.870  10.252  12.605
38989W        W10715  24.447  18.221  13.040
38990W        W10716  33.045  18.783   3.832
38991W        W10717  30.173   0.941   2.374
38992W        W10718  16.843  30.422  11.323
38993W        W10719  12.815  10.746  10.399
38994W        W10720  41.798   7.128  11.694
38995W        W10721   9.843   3.358   0.398
38996W        W10722  38.929  25.142  14.333
38997W        W10723  33.785  28.130  14.889
38998W        W10724  43.366   2.041   1.840
38999W        W10725  14.035  17.717  11.048
39000W        W10726  10.442   8.308  13.556
39001W        W10727   6.780  14.741  13.971
39002W        W10728  15.073  23.292  14.222
39003W        W10729  29.574  23.329   4.986
39004W        W10730  13.249  42.973   2.773
39005W        W10731  20.634  38.069   3.373
39006W        W10732  22.609  10.202  10.511
39007W        W10733  28.075   9.896   2.362
39008W        W10734  12.103  32.058  13.620
39009W        W10735  12.240  12.707   3.619
39010W        W10736   9.175  42.879   1.954
39011W        W10737   6.172  37.492  12.814
39012W        W10738   3.507  24.055  14.957
39013W        W10739   2.188  25.705   3.174
39014W        W10740  31.209  37.287  14.367
39015W        W10741  28.608   8.534   3.854
39016W        W10742  23.155  18.379  14.975
39017W        W10743  11.185  14.131  14.553
39018W        W10744  26.174  27.535   3.901
39019W        W10745  26.931  14.069   1.746
39020W        W10746   1.384  39.065   1.872
39021W        W10747  15.121  20.565   1.733
39022W        W10748  18.079  26.703  14.522
39023W        W10749  16.232  11.878  11.304
39024W        W10750  11.873  37.662  14.763
39025W        W10751  36.387  11.913   9.681
39026W        W10752  15.557   0.700  11.609
39027W        W10753  28.508   6.793   0.401
39028W        W10754  39.824   0.989   3.568
39029W        W10755  29.260  41.024  12.513
39030W        W10756  13.673  24.588   4.059
39031W        W10757  40.004  28.582  11.600
39032W        W10758   7.805  10.299  13.868
39033W        W10759  10.695  24.628  14.983
39034W        W10760  35.426  18.019   4.211
39035W        W10761  42.930  38.926  12.448
39036W        W10762  28.698   8.787  10.441
39037W        W10763  30.943  11.864   0.410
39038W        W10764  25.167   8.938  12.825
39039W        W10765  40.963   2.952  11.149
39040W        W10766   6.804  36.108   0.320
39041W        W10767  37.593  42.737   4.485
39042W        W10768  17.825  25.885   1.310
39043W        W10769  29.601  32.696  11.060
39044W        W10770   2.376  13.995  14.242
39045W        W10771   7.313  39.034   1.552
39046W        W10772  38.132   2.249   4.752
39047W        W10773  41.369  14.716  12.840
39048W        W10774  30.979  20.581   3.320
39049W        W10775  35.330  43.861  11.057
39050W        W10776  33.541   4.483  11.946
39051W        W10777  16.592  24.896  12.586
39052W        W10778  13.129  10.169  12.061
39053W        W10779  14.841  24.145   3.708
39054W        W10780  29.793  11.297  11.330
39055W        W10781  15.122  43.169   4.135
39056W        W10782  29.469  23.007  11.543
39057W        W10783   0.402  28.645   4.035
39058W        W10784  41.275  42.312   2.084
39059W        W10785  12.158  34.370  11.624
39060W        W10786  19.140  21.730   2.203
39061W        W10787  22.217  34.643  10.589
39062W        W10788  44.264  30.346  14.776
39063W        W10789  35.110  15.391  11.999
39064W        W10790  37.590   2.712   4.263
39065W        W10791  12.963  37.626  11.461
39066W        W10792  32.434  39.255   0.224
39067W        W10793  34.172  18.648   0.444
39068W        W10794  15.878  19.723  12.733
39069W        W10795  43.918  28.233   0.232
39070W        W10796   1.866  13.644  12.692
39071W        W10797  44.642  35.962   4.985
39072W        W10798  35.875  10.143  11.641
39073W        W10799  22.038  13.856  11.925
39074W        W10800  25.005  34.769   4.828
39075W        W10801  26.306  17.537  13.042
39076W        W10802  33.880  22.571   4.246
39077W        W10803  19.098  30.872  12.570
39078W        W10804  28.155  30.543   4.997
39079W        W10805  43.439  21.529   1.546
39080W        W10806  36.474  32.446  11.643
39081W        W10807  16.618   1.561   2.779
39082W        W10808   7.112  33.428  10.672
39083W        W10809  24.284  40.924  14.980
39084W        W10810   2.901  31.474  13.574
39085W        W10811  23.257   5.925   1.303
39086W        W10812  30.446  35.470  12.947
39087W        W10813  42.077   1.041   4.121
39088W        W10814  31.892  29.438   1.389
39089W        W10815  41.242  21.280   5.037
39090W        W10816  35.620   2.224  13.503
39091W        W10817  26.339  39.819   3.860
39092W        W10818   7.996   9.838   0.378
39093W        W10819  35.141  39.377   4.129
39094W        W10820  41.283  10.232  14.856
39095W        W10821  15.574  20.120  12.584
39096W        W10822  39.324  28.395  12.495
39097W        W10823  38.058  25.996  12.958
39098W        W10824  42.806  14.722  14.073
39099W        W10825  26.415   6.210  11.157
39100W        W10826  24.528  25.941  11.176
39101W        W10827  14.620  38.215  13.957
39102W        W10828  25.015  30.133   2.690
39103W        W10829  23.178  13.993  10.162
39104W        W10830  16.094  31.672   2.815
39105W        W10831  39.748   2.710  13.008
39106W        W10832  30.458  20.549   2.119
39107W        W10833  10.867  24.999   5.307
39108W        W10834   0.214  12.683  14.311
39109W        W10835   7.258  14.170  10.428
39110W        W10836  12.378  19.660  14.775
39111W        W10837  34.886  22.749   1.032
39112W        W10838  30.950  23.111   0.152
39113W        W10839  28.359  12.201   2.960
39114W        W10840  41.908  18.267  14.219
39115W        W10841   8.698  25.131  14.438
39116W        W10842  24.063  10.756  13.427
39117W        W10843   7.246  38.160  13.427
39118W        W10844  13.066  29.308  12.290
39119W        W10845  21.055  43.111  11.931
39120W        W10846  15.010  35.794  11.147
39121W        W10847  12.133  26.014  14.387
39122W        W10848  31.114  28.275  10.266
39123W        W10849   4.266   1.417  13.000
39124W        W10850  43.561  33.862   4.135
39125W        W10851  23.048  18.549  14.039
39126W        W10852   0.717  22.160   2.507
39127W        W10853  18.618  20.063   4.426
39128W        W10854  31.301  31.202   4.082
39129W        W10855  33.465  31.629   2.746
39130W        W10856  18.753  24.502   4.973
39131W        W10857  15.616  11.311  10.725
39132W        W10858   3.995   5.333   0.370
39133W        W10859  37.389  12.747   3.286
39134W        W10860   4.422  41.026  10.750
39135W        W10861  26.343  42.855   4.085
39136W        W10862   7.106  35.909   3.226
39137W        W10863  44.597  40.158   3.865
39138W        W10864   8.981  34.080  10.275
39139W        W10865  32.407  26.105  12.964
39140W        W10866   7.186  40.547  13.883
39141W        W10867   1.710  41.516   2.615
39142W        W10868  31.688  18.197   4.183
39143W        W10869  38.832  24.161   1.876
39144W        W10870  31.883  25.458   0.343
39145W        W10871  17.110  31.252  11.056
39146W        W10872  22.656   2.438   3.131
39147W        W10873  24.480  33.652  12.925
39148W        W10874  16.265   4.924  11.819
39149W        W10875  36.143  40.482  13.410
39150W        W10876  19.051  28.498   0.598
39151W        W10877  12.567  30.676   1.208
39152W        W10878   6.050  34.389   4.455
39153W        W10879  40.908  12.706   2.946
39154W        W10880  20.320  32.080   4.654
39155W        W10881  21.692   7.684  11.699
39156W        W10882  18.247  40.098   2.749
39157W        W10883   0.811  19.576   0.736
39158W        W10884  24.707  24.134   2.472
39159W        W10885  10.713  27.900  14.991
39160W        W10886  29.685  16.275  13.042
39161W        W10887  20.673  37.847  13.136
39162W        W10888  24.628   8.173  14.336
39163W        W10889  39.894   6.256  11.209
39164W        W10890  24.808  41.414   3.739
39165W        W10891   8.279  28.553   0.923
39166W        W10892   5.135  19.958  11.152
39167W        W10893   8.184   2.028  11.585
39168W        W10894  22.850  29.679  13.385
39169W        W10895  41.865  29.020  11.441
39170W        W10896   7.643   4.280  10.046
39171W        W10897  21.773  29.902  14.031
39172W        W10898  20.004  12.307  11.138
39173W        W10899  21.322  26.002   2.274
39174W        W10900  32.001   9.201   4.261
39175W        W10901   1.998   6.184   2.339
39176W        W10902  42.051  36.341   0.257
39177W        W10903  16.646  12.369   0.463
39178W        W10904  15.214  34.167   3.112
39179W        W10905  29.081  26.517   3.165
39180W        W10906  20.751  34.775  11.135
39181W        W10907  38.909  42.956   3.325
39182W        W10908  39.370   0.088  12.531
39183W        W10909  43.397  17.079  10.702
39184W        W10910  40.696   8.120  11.241
39185W        W10911  27.954  19.939  13.250
39186W        W10912  27.144  13.990  11.969
39187W        W10913   5.695  20.704  11.358
39188W        W10914  27.620  44.481   0.722
39189W        W10915  36.153  29.060  13.590
39190W        W10916   6.032   1.285   3.606
39191W        W10917  24.618   3.790   4.251
39192W        W10918  44.389   8.816  14.034
39193W        W10919   8.969  19.615  13.857
39194W        W10920  42.894  30.683   4.899
39195W        W10921  40.920  37.047  11.909
39196W        W10922  12.883  33.900  12.002
39197W        W10923  27.831   5.844   2.720
39198W        W10924  24.573  19.724  14.347
39199W        W10925   2.245  28.488   4.470
39200W        W10926  35.032  36.396   2.388
39201W        W10927  25.118  44.959   4.186
39202W        W10928  44.033  20.600   0.286
39203W        W10929  35.628  23.648  12.456
39204W        W10930  13.625  30.138  14.473
39205W        W10931  42.980  20.652   2.350
39206W        W10932  32.644  42.610   4.762
39207W        W10933  18.530  17.297   0.474
39208W        W10934   7.288  28.118  11.970
39209W        W10935  25.203  13.513  12.800
39210W        W10936  10.589   7.846  11.017
39211W        W10937  28.168  12.509   4.056
39212W        W10938   4.423  44.327  12.544
39213W        W10939   4.348  30.073  14.579
39214W        W10940  36.101   6.905  13.379
39215W        W10941  40.128  44.860  11.329
39216W        W10942  13.182   4.603   3.043
39217W        W10943  24.477  39.803  14.841
39218W        W10944  41.568  34.036   2.200
39219W        W10945   0.192  32.876  14.489
39220W        W10946   2.305  23.179   4.309
39221W        W10947  33.248  15.917  11.551
39222W        W10948   8.510  24.881  10.187
39223W        W10949  43.960  11.657  13.930
39224W        W10950   0.945  43.796   4.805
39225W        W10951   8.687   8.177   1.886
39226W        W10952  26.875  44.468   4.185
39227W        W10953  41.327  38.630  13.322
39228W        W10954  26.408  26.743  13.559
39229W        W10955   4.170  37.995  10.682
39230W        W10956   5.703  26.695  11.264
39231W        W10957  24.674  10.609  14.261
39232W        W10958  44.392   2.170  14.537
39233W        W10959  23.160   8.711   0.818
39234W        W10960   0.088  30.967   4.054
39235W        W10961   8.344   2.964   4.124
39236W        W10962   2.746  25.132   4.041
39237W        W10963  14.983  30.722  14.508
39238W        W10964  22.576   9.623  10.241
39239W        W10965  11.317   9.562  10.724
39240W        W10966  41.525  16.377  12.471
39241W        W10967   6.835  10.120   1.800
39242W        W10968   8.890   8.785  13.933
39243W        W10969  24.152  15.210   4.294
39244W        W10970   7.437  31.500  12.046
39245W        W10971  20.325  20.485  11.338
39246W        W10972  17.170  41.261  14.301
39247W        W10973  42.929   2.938  13.388
39248W        W10974  38.882  25.355  11.588
39249W        W10975  17.003  34.576  12.415
39250W        W10976  26.778  29.506   5.204
39251W        W10977  35.526   5.412  14.439
39252W        W10978   3.709  36.124  13.799
39253W        W10979  41.450  44.969   1.222
39254W        W10980  21.119  12.841   1.949
39255W        W10981  17.559   5.941   0.403
39256W        W10982   9.889   2.349   4.297
39257W        W10983  13.175  40.569   4.180
39258W        W10984  39.528  14.110  12.409
39259W        W10985  15.870  29.150   1.726
39260W        W10986   1.655  44.854  11.327
39261W        W10987  43.639  16.833  14.895
39262W        W10988  22.638  40.728  12.963
39263W        W10989  35.522  39.830  13.005
39264W        W10990   6.497  44.887   0.433
39265W        W10991  25.236   2.600   2.642
39266W        W10992  43.634  41.183  11.875
39267W        W10993  27.672  30.039  13.763
39268W        W10994  21.605  16.330   0.330
39269W        W10995  42.009   2.261   4.564
39270W        W10996  27.078  11.312  14.498
39271W        W10997   3.887   3.621   3.721
39272W        W10998  19.172  40.877  13.055
39273W        W10999   2.662  27.001  13.418
39274W        W11000  35.751  17.521   1.441
39275W        W11001  11.403   5.710   0.927
39276W        W11002  41.064  32.465  13.208
39277W        W11003  15.511   5.137  13.777
39278W        W11004  42.379  32.512   4.157
39279W        W11005  12.080   9.945  11.131
39280W        W11006  28.217  21.971   1.837
39281W        W11007  31.200  42.158  14.415
39282W        W11008   6.204   2.696   4.558
39283W        W11009  11.745  41.146  13.268
39284W        W11010  28.949   6.176  11.337
39285W        W11011  18.545   7.256   0.943
39286W        W11012  21.098  14.775   3.264
39287W        W11013  13.847  18.748   3.327
39288W        W11014  10.608  38.790   3.670
39289W        W11015  31.918   4.859   4.530
39290W        W11016  44.954  43.305   2.255
39291W        W11017  44.069  35.580   0.476
39292W        W11018  20.993  36.091  12.105
39293W        W11019   5.396  30.434  13.789
39294W        W11020   1.331  13.616  10.363
39295W        W11021  24.472  27.614  11.948
39296W        W11022  32.936  23.680   2.451
39297W        W11023   0.645  35.168  12.817
39298W        W11024  36.779  31.771  14.909
39299W        W11025   2.882  15.369   1.257
39300W        W11026   8.240   3.815   2.297
39301W        W11027  21.010  37.962   3.729
39302W        W11028  15.096   1.250   0.272
39303W        W11029  11.124   1.912   4.686
39304W        W11030  40.957  13.378  14.345
39305W        W11031  44.400  16.115   2.419
39306W        W11032   6.226  20.027   3.328
39307W        W11033  35.445  25.544   2.155
39308W        W11034  10.591  38.059   2.384
39309W        W11035   2.358  44.499  12.921
39310W        W11036  12.588  35.901   3.823
39311W        W11037  29.367  29.951   4.763
39312W        W11038  36.771  37.282  10.331
39313W        W11039   1.639  38.434   2.625
39314W        W11040   3.230  35.213  13.908
39315W        W11041  38.553  19.272   3.329
39316W        W11042  22.708  37.097   4.103
39317W        W11043  18.334   8.105  12.473
39318W        W11044  32.577   7.136   0.197
39319W        W11045   4.349  29.486  14.431
39320W        W11046   7.744  32.949   0.898
39321W        W11047  44.529  20.027   1.706
39322W        W11048   8.626  16.564  11.160
39323W        W11049  42.371   4.803   2.454
39324W        W11050  21.500   5.783   3.596
39325W        W11051   9.104  30.583  12.537
39326W        W11052   0.779  25.100  12.880
39327W        W11053  25.880  38.943  13.834
39328W        W11054   8.296  16.339   4.652
39329W        W11055  37.241  14.307  13.946
39330W        W11056  28.953   0.226  11.855
39331W        W11057  21.328  14.110   4.091
39332W        W11058  21.266  43.797   1.702
39333W        W11059   1.684  28.632  11.604
39334W        W11060  39.017  39.478   1.749
39335W        W11061   1.796   4.287  14.881
39336W        W11062   4.707  43.561   4.485
39337W        W11063  16.047  26.086  13.844
39338W        W11064  32.313  33.563   2.781
39339W        W11065   5.840  17.180  14.815
39340W        W11066  12.635   1.467   3.228
39341W        W11067  20.219  37.279   0.696
39342W        W11068  31.046   4.678   3.088
39343W        W11069  30.586   2.646   0.906
39344W        W11070  13.589  34.005   1.460
39345W        W11071  11.589   5.920   4.575
39346W        W11072  40.780  34.018   1.970
39347W        W11073  40.307   4.482   3.366
39348W        W11074  41.903  29.137   0.359
39349W        W11075   8.849  12.281  14.490
39350W        W11076  44.860  23.668   0.208
39351W        W11077  24.630  14.498  13.458
39352W        W11078   2.012  43.935  11.627
39353W        W11079  19.042  36.279  12.923
39354W        W11080  43.702  23.035   4.717
39355W        W11081  23.019  22.662  10.514
39356W        W11082  14.605  25.209   3.191
39357W        W11083   7.903  23.040  13.484
39358W        W11084  30.650  23.730   5.309
39359W        W11085   9.748  28.428   3.799
39360W        W11086   3.726  43.441  12.036
39361W        W11087   5.627  32.113   2.969
39362W        W11088  40.489  17.326   4.712
39363W        W11089  16.749   8.424   3.261
39364W        W11090  38.506   5.604  11.179
39365W        W11091  30.309  12.113  11.253
39366W        W11092  27.171   3.373   3.087
39367W        W11093  22.001  21.747  13.585
39368W        W11094   0.089  12.570   4.314
39369W        W11095  39.050   2.434   2.522
39370W        W11096  23.820  28.958   4.179
39371W        W11097  13.784  40.941   0.284
39372W        W11098  40.329  20.252   1.923
39373W        W11099  36.420   6.447   3.548
39374W        W11100  27.201  22.352  10.807
39375W        W11101  25.702  38.607   0.951
39376W        W11102   1.432  26.463   1.566
39377W        W11103  34.511   5.535   1.484
39378W        W11104  39.370   4.199  12.465
39379W        W11105  43.535  23.073   4.042
39380W        W11106  32.395  35.439   5.011
39381W        W11107   4.196   0.260   0.217
39382W        W11108  18.432  24.024  14.306
39383W        W11109  20.563  11.295  12.905
39384W        W11110  32.881  40.440   3.833
39385W        W11111  34.285   7.306  14.386
39386W        W11112  36.550  26.038   1.590
39387W        W11113  10.628   7.140   1.256
39388W        W11114   8.956  41.014   0.640
39389W        W11115  37.567  22.007  13.834
39390W        W11116  19.975  34.591  14.591
39391W        W11117  14.119  40.567   2.243
39392W        W11118  14.609  31.939   4.138
39393W        W11119  33.329   6.793  12.593
39394W        W11120  22.468  34.565   2.592
39395W        W11121  18.754  42.859   1.723
39396W        W11122  42.330   0.383   4.019
39397W        W11123  20.478  12.170  13.373
39398W        W11124  22.547  32.538  11.934
39399W        W11125  41.357  44.759   2.260
39400W        W11126  31.132  35.942   3.164
39401W        W11127  20.786  35.977  11.636
39402W        W11128  22.054  10.173  11.756
39403W        W11129  36.412  25.125   0.556
39404W        W11130  29.882  43.053   5.075
39405W        W11131  30.973   9.944  11.558
39406W        W11132  39.781  33.596   3.119
39407W        W11133  14.087  36.127  11.952
39408W        W11134  32.817   5.269   3.154
39409W        W11135  39.886  31.376  10.761
39410W        W11136  12.532  33.384  13.248
39411W        W11137   0.838  32.932  11.503
39412W        W11138  26.713  41.504   2.015
39413W        W11139  36.611  24.780   2.764
39414W        W11140  35.376  17.661  14.130
39415W        W11141  18.958  27.226   1.873
39416W        W11142  36.076  12.723  14.109
39417W        W11143   3.847  15.003   5.520
39418W        W11144  21.180  18.573   1.577
39419W        W11145  32.096  18.599   3.162
39420W        W11146  28.086  35.419  10.613
39421W        W11147  24.707  21.230   3.757
39422W        W11148  27.632  24.587   5.080
39423W        W11149  17.196  16.602  10.739
39424W        W11150  13.826  13.863   4.625
39425W        W11151  25.298  29.720   2.821
39426W        W11152  21.110  17.632   4.489
39427W        W11153  41.615   0.509  14.494
39428W        W11154   1.176  18.341  14.826
39429W        W11155  35.297  43.035   2.883
39430W        W11156  24.483  18.045  13.526
39431W        W11157  30.706  13.426   3.647
39432W        W11158   4.770  41.936  10.037
39433W        W11159  41.483  20.058  12.414
39434W        W11160   8.237  14.372   1.938
39435W        W11161  40.481  36.701   4.180
39436W        W11162  38.816  10.360  12.205
39437W        W11163   5.350   2.955   4.232
39438W        W11164  10.177   2.899  14.255
39439W        W11165   4.700   5.953  10.339
39440W        W11166  29.523  27.725   3.683
39441W        W11167  33.334  35.033   5.205
39442W        W11168   3.259  25.716   5.064
39443W        W11169  33.662  33.312   4.208
39444W        W11170   8.669   7.364  13.582
39445W        W11171  21.189   5.621  14.370
39446W        W11172  28.738   6.815   2.432
39447W        W11173  40.548  32.243  12.066
39448W        W11174  40.769  10.187  12.070
39449W        W11175  27.040  28.133  12.396
39450W        W11176   8.150  35.009   2.904
39451W        W11177  33.704   2.417   3.235
39452W        W11178  40.096  41.520  12.520
39453W        W11179  12.068  25.580   0.691
39454W        W11180   3.316  24.098  14.014
39455W        W11181  22.099  13.910   2.275
39456W        W11182   2.311   3.967  11.146
39457W        W11183   0.345  41.675   3.402
39458W        W11184  34.868  43.757  14.513
39459W        W11185  25.287  43.753   4.553
39460W        W11186  25.152  29.905  14.842
39461W        W11187   3.129   5.378   2.145
39462W        W11188  42.436  23.262  14.386
39463W        W11189   3.220  16.680  12.441
39464W        W11190  34.435  16.107   1.395
39465W        W11191  12.111  31.606  10.271
39466W        W11192   2.161  16.134   1.027
39467W        W11193  37.991  19.268  11.115
39468W        W11194  28.668   3.477   3.318
39469W        W11195  33.175  24.032   5.499
39470W        W11196  38.472   1.508   0.463
39471W        W11197  26.242   8.706   4.640
39472W        W11198  36.451   7.937  14.274
39473W        W11199  32.037  37.830  13.920
39474W        W11200  13.103  38.108  14.787
39475W        W11201   0.863  38.384  14.473
39476W        W11202  18.811  35.302   1.015
39477W        W11203  25.583  16.678   0.436
39478W        W11204  44.296  15.608  12.956
39479W        W11205  23.570  15.083  11.942
39480W        W11206   8.247  18.680  10.643
39481W        W11207  38.372  37.855   0.820
39482W        W11208  38.950  21.628  11.539
39483W        W11209   0.475  13.105  11.755
39484W        W11210  34.759  33.201   3.895
39485W        W11211  11.123  41.095  10.830
39486W        W11212  41.899  23.242   4.480
39487W        W11213   1.734  39.023  13.814
39488W        W11214  35.435  10.337  14.030
39489W        W11215  21.429  28.268   4.624
39490W        W11216  13.759  31.422   1.676
39491W        W11217  35.034  32.900   4.238
39492W        W11218  30.726  39.001   2.650
39493W        W11219  42.054  28.073  11.279
39494W        W11220  40.791  14.038   4.160
39495W        W11221  16.144  30.224  11.100
39496W        W11222  31.342  25.661   2.217
39497W        W11223   8.388  33.406  10.467
39498W        W11224  20.283  36.160   5.079
39499W        W11225  38.999  10.737  10.598
39500W        W11226  32.878  41.474   4.508
39501W        W11227  11.205   3.841   0.932
39502W        W11228   0.442   7.353   3.917
39503W        W11229  27.745  37.009  11.696
39504W        W11230  17.746  27.602   1.624
39505W        W11231  18.996   2.772   3.829
39506W        W11232   2.051  29.165   0.289
39507W        W11233  21.304   5.116  14.327
39508W        W11234  40.998  19.815   4.818
39509W        W11235   2.840   7.717   4.684
39510W        W11236  37.634  25.093  13.103
39511W        W11237   2.778   7.950   0.015
39512W        W11238  43.080  42.528   3.243
39513W        W11239   4.137  11.440   0.797
39514W        W11240   2.996  28.133   1.904
39515W        W11241  22.970  10.285  13.983
39516W        W11242  18.876  11.516   4.506
39517W        W11243  25.938  15.413   0.400
39518W        W11244  42.506  28.479   3.272
39519W        W11245   3.433  36.391  12.575
39520W        W11246   1.794   8.123   2.181
39521W        W11247  21.346  25.921   3.282
39522W        W11248   1.684   4.721   0.744
39523W        W11249  30.197  16.166   1.157
39524W        W11250  16.795  12.139  14.984
39525W        W11251  32.584   4.421  13.265
39526W        W11252   0.227  31.916  14.908
39527W        W11253  24.484  26.223   0.499
39528W        W11254  10.413  25.417   0.503
39529W        W11255   7.345  16.094  11.669
39530W        W11256   5.151  41.770   4.452
39531W        W11257  40.491  28.430   2.422
39532W        W11258  26.265  13.483   3.183
39533W        W11259   6.488  35.011  12.127
39534W        W11260  31.102  33.050  11.978
39535W        W11261  21.265  14.004  13.397
39536W        W11262  34.903  39.905  14.881
39537W        W11263  12.525  33.927   2.225
39538W        W11264  33.452  43.977  12.563
39539W        W11265   2.356  28.091  11.532
39540W        W11266  14.182  12.834   1.132
39541W        W11267   5.588  24.758  12.954
39542W        W11268  15.658  39.280   3.656
39543W        W11269  18.183  44.279   0.755
39544W        W11270   5.952  36.774   1.794
39545W        W11271  41.591  39.874  12.166
39546W        W11272  22.097  18.686   4.090
39547W        W11273  10.374  39.283   3.595
39548W        W11274   0.624  24.050   5.067
39549W        W11275  44.512  42.095  11.114
39550W        W11276  24.162  33.039   0.324
39551W        W11277  24.620   0.362  11.687
39552W        W11278  37.028  26.833  11.127
39553W        W11279   9.311  27.068  14.360
39554W        W11280  34.471  25.986  14.466
39555W        W11281  39.799  14.952  10.743
39556W        W11282  30.846  43.742   3.706
39557W        W11283  42.684  10.296  11.723
39558W        W11284  20.992  21.733  10.677
39559W        W11285   8.801  14.584  13.062
39560W        W11286   9.863  15.217   2.873
39561W        W11287  15.188  36.653  12.651
39562W        W11288   1.340  37.152  11.596
39563W        W11289  15.389   3.492   4.760
39564W        W11290  24.771  30.117  13.909
39565W        W11291  26.639  20.583  13.284
39566W        W11292  38.306  21.110  12.473
39567W        W11293  12.715   6.138   4.872
39568W        W11294  43.264  32.370  13.099
39569W        W11295  38.680   7.853  13.972
39570W        W11296  26.248  12.860  12.111
39571W        W11297  15.163  35.496  13.936
39572W        W11298  12.561  25.728  14.742
39573W        W11299  12.152   4.440   0.012
39574W        W11300  15.188  31.519  10.546
39575W        W11301  15.871  14.348  10.634
39576W        W11302  41.658  37.453  11.125
39577W        W11303  29.658  30.968   0.777
39578W        W11304  33.480  18.833  12.540
39579W        W11305  37.354  11.358  12.946
39580W        W11306  29.923  18.587   0.730
39581W        W11307  11.323   8.337   3.435
39582W        W11308  43.240  21.618  10.531
39583W        W11309  43.156  25.575   2.329
39584W        W11310  18.289  18.599  13.638
39585W        W11311  16.015   3.198  10.765
39586W        W11312  23.118  15.893  13.416
39587W        W11313   3.178  11.092  12.579
39588W        W11314  30.026  33.729  10.729
39589W        W11315   8.104  30.077  11.950
39590W        W11316  22.448  41.324  14.509
39591W        W11317   9.146  26.200  13.396
39592W        W11318   7.385  39.452   1.960
39593W        W11319  26.535  44.077  10.625
39594W        W11320  10.611  11.255  13.644
39595W        W11321   8.772  14.729  10.940
39596W        W11322   6.345  41.961   2.768
39597W        W11323  21.149  11.856   0.905
39598W        W11324   8.790   6.510  13.812
39599W        W11325   0.652  12.256  12.656
39600W        W11326  25.971  32.135  10.474
39601W        W11327   3.374   8.196   1.404
39602W        W11328  35.415  35.604  14.336
39603W        W11329  15.340  13.855  14.454
39604W        W11330  23.059  25.519   0.191
39605W        W11331  35.270  37.471  13.936
39606W        W11332   9.656  24.167  14.541
39607W        W11333  17.053  12.712   4.907
39608W        W11334  20.048  29.419   1.959
39609W        W11335  32.571  16.682  10.357
39610W        W11336  36.037  18.462  14.169
39611W        W11337  11.043  20.337  13.412
39612W        W11338  44.423  40.587   0.839
39613W        W11339   3.395   4.291   4.432
39614W        W11340  13.794   3.272   3.620
39615W        W11341  21.636  16.650  10.757
39616W        W11342  10.621  40.287   4.784
39617W        W11343  18.193   7.811   1.502
39618W        W11344  35.891  30.086  14.644
39619W        W11345   4.517  25.125  12.403
39620W        W11346  27.005  24.784  11.259
39621W        W11347  38.402  22.503   0.835
39622W        W11348  22.059  27.276  14.092
39623W        W11349  40.917   4.310  10.686
39624W        W11350  40.745  19.002   2.073
39625W        W11351  28.405  44.451  10.691
39626W        W11352  24.897   3.564   5.127
39627W        W11353   5.947  20.288  11.570
39628W        W11354  16.337  28.243   3.725
39629W        W11355   0.401  26.469   1.316
39630W        W11356   6.137   6.814  12.395
39631W        W11357   2.557   9.372   4.287
39632W        W11358  31.866  14.196  12.946
39633W        W11359  26.053   3.797   2.353
39634W        W11360  40.327  39.016  14.399
39635W        W11361   2.322  37.468  14.040
39636W        W11362  27.965  21.306  11.550
39637W        W11363  37.609   2.904  13.133
39638W        W11364  13.047  16.180   3.157
39639W        W11365   6.643   1.472  13.436
39640W        W11366  20.470  27.721   3.561
39641W        W11367  28.708  26.027   0.739
39642W        W11368  16.718   7.219  11.987
39643W        W11369   5.785  22.741  13.880
39644W        W11370   0.247   9.850   3.888
39645W        W11371  27.710  10.843  12.919
39646W        W11372  18.620   9.985   1.619
39647W        W11373  27.057  20.107  14.851
39648W        W11374  20.740  27.037  14.734
39649W        W11375  34.559  23.783   0.462
39650W        W11376  41.023  32.178  14.812
39651W        W11377   2.241  30.357   0.973
39652W        W11378  14.862  30.398   2.256
39653W        W11379  43.223  38.285   4.534
39654W        W11380  28.940  14.051   0.238
39655W        W11381   7.790  10.367   2.584
39656W        W11382  38.096  23.293   3.249
39657W        W11383  35.571  20.731   3.673
39658W        W11384   2.903  23.546   3.709
39659W        W11385  35.972  18.944  11.992
39660W        W11386  41.531  35.362  10.631
39661W        W11387  32.471  10.624   1.684
39662W        W11388   6.931  12.800   3.682
39663W        W11389   8.886  40.332  12.410
39664W        W11390  23.666   2.573   4.812
39665W        W11391  28.958  15.273  14.063
39666W        W11392   0.217  19.829  11.378
39667W        W11393  31.850  34.219  13.831
39668W        W11394  13.893  28.139  11.181
39669W        W11395  13.607  32.081  12.342
39670W        W11396   4.706  18.348   4.265
39671W        W11397  20.119  26.563   3.987
39672W        W11398  27.374  36.286  14.206
39673W        W11399   1.518  16.747  11.478
39674W        W11400   1.298   0.731   2.305
39675W        W11401  16.439   7.901   4.564
39676W        W11402  35.251  12.031  13.332
39677W        W11403  13.922  26.412  13.586
39678W        W11404  36.374  17.717  13.542
39679W        W11405  22.515  13.263  12.504
39680W        W11406  34.608  23.577  11.411
39681W        W11407  13.763   2.424  14.189
39682W        W11408  11.269  42.722   2.217
39683W        W11409   3.719  15.942   1.642
39684W        W11410  18.463  12.276   0.557
39685W        W11411  43.399  30.400  13.131
39686W        W11412  34.548  36.956  11.092
39687W        W11413  21.693  34.002   0.051
39688W        W11414   7.374  34.290   5.061
39689W        W11415   6.941  25.481  13.415
39690W        W11416  37.607  24.635   2.659
39691W        W11417   3.476   5.955  14.983
39692W        W11418   8.460  28.640  13.806
39693W        W11419  31.660  11.456  14.329
39694W        W11420  23.255   3.636   1.871
39695W        W11421  33.097  44.749  14.930
39696W        W11422  18.703  41.186   2.781
39697W        W11423  20.891  14.958  10.652
39698W        W11424  25.850   1.257  10.495
39699W        W11425   1.833  34.481  14.000
39700W        W11426   4.220   5.204   3.486
39701W        W11427  41.558   1.260  14.886
39702W        W11428  25.843  25.784  11.183
39703W        W11429  27.564   3.390  10.632
39704W        W11430  24.142  42.407  10.731
39705W        W11431  27.388  39.977   1.221
39706W        W11432   4.406  38.124   2.152
39707W        W11433  15.696   4.994   0.560
39708W        W11434  44.071  43.341  12.210
39709W        W11435  21.636   5.945  10.732
39710W        W11436   9.258  32.598  12.498
39711W        W11437  30.992   7.109  11.066
39712W        W11438  33.470  38.800   5.057
39713W        W11439   8.853  37.928   0.870
39714W        W11440  24.431  21.189   3.317
39715W        W11441  41.322  16.281   4.715
39716W        W11442  28.838  16.647  11.632
39717W        W11443   4.643  37.864   2.924
39718W        W11444  37.488  14.674   0.967
39719W        W11445  11.730   1.665   0.023
39720W        W11446  23.186  30.532  13.846
39721W        W11447  11.616  38.363   0.836
39722W        W11448  40.305  14.651   3.214
39723W        W11449  30.965   7.211   3.642
39724W        W11450   1.023  18.854   1.867
39725W        W11451  16.568   2.187  14.911
39726W        W11452   9.091   9.220   3.302
39727W        W11453  30.156  32.100  13.364
39728W        W11454   8.852  32.138   0.506
39729W        W11455  10.150  27.217   4.158
39730W        W11456  24.404  35.895   1.479
39731W        W11457  26.249   6.368  13.992
39732W        W11458   8.636   0.514  13.190
39733W        W11459   9.042  29.302   1.955
39734W        W11460   0.924  12.319  10.697
39735W        W11461  41.277  31.150  12.626
39736W        W11462   7.760  11.652  13.343
39737W        W11463  22.656  32.525  13.985
39738W        W11464   2.895  14.130  11.394
39739W        W11465  19.014  24.011   3.401
39740W        W11466  20.177  42.190  13.343
39741W        W11467  20.591  26.124   0.829
39742W        W11468  32.797  37.800   0.367
39743W        W11469  21.511   3.004  14.112
39744W        W11470  32.126  13.217  14.367
39745W        W11471   1.847   0.394  14.855
39746W        W11472   8.274  23.452  13.429
39747W        W11473  11.775   7.808   1.859
39748W        W11474   5.561  20.055  13.002
39749W        W11475   3.861  21.531   2.721
39750W        W11476  30.440   5.975   4.337
39751W        W11477   0.847   5.797   1.471
39752W        W11478  43.554  32.487  11.632
39753W        W11479  41.938   8.312   4.160
39754W        W11480  10.581   2.306  14.972
39755W        W11481   4.832  10.863   1.842
39756W        W11482  25.453  14.243   1.977
39757W        W11483  15.336   2.560   4.895
39758W        W11484  39.253  22.681  12.214
39759W        W11485  16.680   4.995  14.461
39760W        W11486   7.907  12.775   4.722
39761W        W11487  10.939  24.134   2.007
39762W        W11488   5.638  21.737   3.281
39763W        W11489  16.888   8.560  11.696
39764W        W11490  39.506  40.099   0.449
39765W        W11491  10.327  17.301   0.333
39766W        W11492   0.329  36.775  10.735
39767W        W11493  32.085   0.226  11.485
39768W        W11494  35.202  26.542   1.797
39769W        W11495  27.907  11.658  11.955
39770W        W11496   3.866  41.948   2.407
39771W        W11497  26.142  33.364   1.664
39772W        W11498   2.745  25.608  12.988
39773W        W11499   0.569  32.123  12.104
39774W        W11500   3.686   5.467   1.283
39775W        W11501  43.419  20.413   2.446
39776W        W11502  30.001  12.746  13.822
39777W        W11503  10.785  29.986  14.461
39778W        W11504  17.001  14.403  14.760
39779W        W11505  36.312   2.452   1.030
39780W        W11506   8.557  21.400   4.696
39781W        W11507   5.281   3.336   0.837
39782W        W11508  22.289  36.834  12.114
39783W        W11509  34.786  43.284  10.030
39784W        W11510  35.899  20.209  13.389
39785W        W11511  33.505  32.959  14.710
39786W        W11512  32.540   5.713  11.458
39787W        W11513  21.010  12.667  13.026
39788W        W11514  37.312  39.813   1.887
39789W        W11515  31.765  10.177   0.463
39790W        W11516  25.989   0.749   0.278
39791W        W11517  23.966  30.839   0.831
39792W        W11518  12.296  27.082  12.444
39793W        W11519  35.928   9.649   2.572
39794W        W11520  18.782  19.250   3.000
39795W        W11521  33.910  18.597   3.337
39796W        W11522   3.809   4.185  13.936
39797W        W11523  17.535  31.757   1.564
39798W        W11524   3.173  44.659  11.655
39799W        W11525  15.754  10.706  11.498
39800W        W11526  21.153   5.194   1.491
39801W        W11527  27.775   3.421   3.262
39802W        W11528   5.473  20.731  12.545
39803W        W11529   2.943  26.026  13.656
39804W        W11530   8.743  44.555  12.176
39805W        W11531   5.270  38.829  11.359
39806W        W11532  44.031  39.708   0.806
39807W        W11533  37.229  44.279   2.667
39808W        W11534   5.248   2.509  10.600
39809W        W11535  24.093  11.700  14.588
39810W        W11536  35.339  37.789   0.479
39811W        W11537   4.447  32.148   4.127
39812W        W11538  32.064  18.144   0.517
39813W        W11539  23.570  25.513   3.847
39814W        W11540  13.171  11.300   4.162
39815W        W11541  22.750  15.138  14.739
39816W        W11542  18.592  34.342   0.861
39817W        W11543  13.543  17.567  13.484
39818W        W11544  31.517  37.991  12.929
39819W        W11545  10.161   5.007  12.735
39820W        W11546   1.365  30.130  13.326
39821W        W11547  14.054  39.479  14.735
39822W        W11548   6.665  34.153  14.862
39823W        W11549  41.872   1.222  10.579
39824W        W11550  17.296  37.916  11.867
39825W        W11551  39.649  26.984   4.209
39826W        W11552  27.762  22.268  11.797
39827W        W11553  43.470  40.626   2.171
39828W        W11554  25.455   9.140   0.826
39829W        W11555  17.787  43.268  14.478
39830W        W11556  18.328  22.704  11.531
39831W        W11557  13.319  23.938   2.112
39832W        W11558  29.318   7.448  12.510
39833W        W11559  10.397  32.383  14.069
39834W        W11560  19.488  32.482  11.105
39835W        W11561  22.328  29.149   0.513
39836W        W11562  19.721  24.885  11.710
39837W        W11563  21.039  18.727   2.376
39838W        W11564   2.944   3.669  13.956
39839W        W11565  19.334  28.102  13.962
39840W        W11566  32.281   6.230  10.713
39841W        W11567  31.858  26.122   1.240
39842W        W11568  21.976  40.007  11.028
39843W        W11569   3.286  28.659  13.791
39844W        W11570  40.269  38.591   3.969
39845W        W11571  14.747  25.220  11.154
39846W        W11572   9.856  36.134   4.105
39847W        W11573   3.489  28.167   4.388
39848W        W11574  33.594  16.292   2.828
39849W        W11575  10.262  10.837   4.133
39850W        W11576   6.953  14.295  14.123
39851W        W11577  19.362  15.382  12.908
39852W        W11578  19.370  22.018  11.132
39853W        W11579  26.025  14.122  12.532
39854W        W11580  17.143  42.228   0.956
39855W        W11581  21.690  35.568   1.456
39856W        W11582   4.340   7.409  10.526
39857W        W11583   1.427   5.614  14.861
39858W        W11584  37.362  13.691   3.699
39859W        W11585  26.096  12.350   0.328
39860W        W11586  18.982   6.860  12.919
39861W        W11587  38.369   0.492  12.084
39862W        W11588   9.027  32.814   1.883
39863W        W11589  23.507   6.200  11.020
39864W        W11590  14.565  26.692   4.490
39865W        W11591  43.070  36.447   4.631
39866W        W11592   5.016   6.181  12.556
39867W        W11593   5.738  38.010   0.122
39868W        W11594  10.840  23.630  14.493
39869W        W11595  15.577   4.711   2.157
39870W        W11596  12.203  40.909  13.312
39871W        W11597  36.782  19.717   1.847
39872W        W11598   2.852  10.331   2.725
39873W        W11599  35.235  18.405   0.663
39874W        W11600  40.750  21.600  11.252
39875W        W11601  30.269  12.877   2.235
39876W        W11602   2.366   6.336   0.204
39877W        W11603  26.884  23.125   3.289
39878W        W11604  41.952  10.690   0.392
39879W        W11605   4.082  24.434   0.672
39880W        W11606  29.645  32.034  12.939
39881W        W11607  38.541  20.577  13.282
39882W        W11608  23.793   6.510  13.836
39883W        W11609  22.994  15.179  11.552
39884W        W11610  16.211   7.427  13.081
39885W        W11611   3.819  11.253   1.831
39886W        W11612  26.781   3.400  10.838
39887W        W11613  19.040  40.028  13.991
39888W        W11614  24.747  26.035   3.126
39889W        W11615  44.794  10.240   2.441
39890W        W11616   3.224  12.556   0.786
39891W        W11617  23.322  36.422  11.208
39892W        W11618  11.798  10.176   4.890
39893W        W11619  14.645  34.715  12.205
39894W        W11620   1.473  28.746   2.394
39895W        W11621   1.261  42.898  13.560
39896W        W11622  16.769  26.148  10.657
39897W        W11623  31.166  22.281  11.219
39898W        W11624  16.623  18.757   0.399
39899W        W11625  24.137  36.591  13.767
39900W        W11626  43.987  24.198  13.440
39901W        W11627  12.177  16.221  10.733
39902W        W11628   1.478  19.544  13.344
39903W        W11629   3.688  43.914  11.290
39904W        W11630  14.758  15.632  13.041
39905W        W11631  33.646  11.377   0.839
39906W        W11632  31.225  21.129  11.640
39907W        W11633  41.017  20.054  12.172
39908W        W11634  43.806  14.897   1.231
39909W        W11635  18.656  30.999   2.315
39910W        W11636  17.567  39.854   1.425
39911W        W11637  21.186  22.118   4.131
39912W        W11638   6.406  27.606   0.352
39913W        W11639  40.557  35.902   0.980
39914W        W11640  15.296  21.013  12.873
39915W        W11641  43.265  32.921   3.421
39916W        W11642  36.034  25.489  10.619
39917W        W11643  14.768   2.395   3.181
39918W        W11644  16.605  16.111   1.869
39919W        W11645   9.727  40.934  13.076
39920W        W11646   6.780  25.341  10.683
39921W        W11647   8.877  22.820  10.283
39922W        W11648  26.982  35.690   3.352
39923W        W11649  33.028  33.541   4.847
39924W        W11650  21.097  39.759   0.417
39925W        W11651  23.966  15.292  13.110
39926W        W11652  42.486  19.591  14.575
39927W        W11653  10.683  14.073  13.792
39928W        W11654  44.325  34.021  10.712
39929W        W11655  20.542  27.755  13.445
39930W        W11656   7.307  22.831  11.486
39931W        W11657  17.155  30.191  10.934
39932W        W11658  32.255  36.631   0.757
39933W        W11659   3.792   9.748  10.693
39934W        W11660  11.627  38.743   2.885
39935W        W11661  26.649  15.720  10.763
39936W        W11662  29.733  19.971  11.719
39937W        W11663  34.351  35.419   3.003
39938W        W11664  40.359  20.592   2.895
39939W        W11665   7.109  33.565  12.586
39940W        W11666   4.351  14.852   0.751
39941W        W11667  24.343   1.378  13.187
39942W        W11668   1.124  25.728   0.564
39943W        W11669   2.201  44.141   3.190
39944W        W11670   6.573  37.147  10.156
39945W        W11671  14.915  21.417  12.133
39946W        W11672  10.377  29.553   2.839
39947W        W11673  44.349  43.035  13.373
39948W        W11674  17.634  35.729   4.582
39949W        W11675   2.645  33.125   3.277
39950W        W11676  32.535  29.039  12.959
39951W        W11677  41.267   3.842   2.245
39952W        W11678  21.548  26.750  13.452
39953W        W11679  24.104  12.365  10.526
39954W        W11680  42.994  22.033  12.257
39955W        W11681  13.915  39.986   1.472
39956W        W11682  41.928  31.389   1.756
39957W        W11683   9.822   0.469  13.055
39958W        W11684   3.582  19.054   2.231
39959W        W11685  28.246  26.436  14.874
39960W        W11686   4.316  13.196   4.971
39961W        W11687  43.383  18.585  14.840
39962W        W11688  24.063  37.375   5.140
39963W        W11689  17.077  39.398   0.868
39964W        W11690  43.573  42.428   3.043
39965W        W11691  40.341  11.767   4.043
39966W        W11692  19.033   0.848  10.732
39967W        W11693  30.946   4.483  13.300
39968W        W11694  44.978  11.489   3.320
39969W        W11695   5.215  42.382   3.135
39970W        W11696  15.170  29.978   2.198
39971W        W11697  43.589  23.679  11.098
39972W        W11698   8.704  19.634  12.956
39973W        W11699   0.045  39.997  14.145
39974W        W11700  30.183   8.545  12.167
39975W        W11701  44.456   2.391  14.073
39976W        W11702  26.583   6.190   2.284
39977W        W11703  37.379  21.617  11.049
39978W        W11704  40.494  37.499   1.386
39979W        W11705  16.099   1.558  13.121
39980W        W11706  30.547  37.954  13.048
39981W        W11707   4.352   8.008   3.062
39982W        W11708  15.589  37.312  14.841
39983W        W11709  32.114  40.310  14.937
39984W        W11710  44.560  39.161  11.970
39985W        W11711   5.139  10.690  10.372
39986W        W11712  36.123   6.515  12.329
39987W        W11713  21.484  14.299   5.011
39988W        W11714  32.448  31.440   3.935
39989W        W11715  22.731   6.895  12.222
39990W        W11716  22.144  15.678   3.322
39991W        W11717  20.488  42.340  14.782
39992W        W11718  29.581  26.534   3.269
39993W        W11719  26.650  23.232   1.706
39994W        W11720  38.914  38.992   1.913
39995W        W11721   1.364  14.379   3.924
39996W        W11722   3.319  17.674   4.623
39997W        W11723   3.204  30.432   0.327
39998W        W11724   1.766  31.918   2.314
39999W        W11725   4.618  42.635  14.447
40000W        W11726  21.522  16.718   3.266
40001W        W11727   6.313  12.117  13.627
40002W        W11728  25.134  31.993   2.848
40003W        W11729  19.304  30.428   0.606
40004W        W11730  12.873  43.246   2.381
40005W        W11731  24.494  23.588  10.668
40006W        W11732   0.629  23.704  12.320
40007W        W11733   8.281  25.065  12.572
40008W        W11734  30.061  21.101   3.222
40009W        W11735  23.739  12.556  13.621
40010W        W11736  30.518  28.625  11.635
40011W        W11737  17.486  40.605   4.232
40012W        W11738  41.506  39.977   0.018
40013W        W11739   9.293  13.792   2.886
40014W        W11740  25.221  24.528   3.678
40015W        W11741  10.489  13.060  12.360
40016W        W11742  33.414  29.990   3.212
40017W        W11743   0.495  19.577  13.011
40018W        W11744   2.231  39.532   1.549
40019W        W11745   3.992  37.200  11.139
40020W        W11746  30.453  28.871   2.211
40021W        W11747  41.776   9.144   0.146
40022W        W11748  23.937  24.630   2.793
40023W        W11749  12.110  14.518  13.366
40024W        W11750  28.717  23.710   2.333
40025W        W11751  20.476   4.408  11.921
40026W        W11752  12.025  44.702   9.997
40027W        W11753  38.855  25.941  10.368
40028W        W11754  10.250  38.528  14.365
40029W        W11755  41.574   7.073   9.979
40030W        W11756  39.027   8.488  10.803
40031W        W11757  15.083  36.290  13.013
40032W        W11758  39.464  25.898  14.418
40033W        W11759  14.256  38.796  12.396
40034W        W11760  39.651   0.495  12.431
40035W        W11761  21.264  24.480  10.730
40036W        W11762   7.370   2.939  10.608
40037W        W11763   1.384  40.621  11.245
40038W        W11764  38.845  31.908   0.942
40039W        W11765  27.450  30.566   0.744
40040W        W11766   0.389   9.800  12.888
40041W        W11767  18.614   0.754  12.650
40042W        W11768  15.643  42.124   4.226
40043W        W11769  27.467   0.986   3.668
40044W        W11770  30.798  39.353  12.098
40045W        W11771  29.650  33.691  11.092
40046W        W11772   7.909  14.736  13.114
40047W        W11773  17.168  10.877   4.309
40048W        W11774   5.369  20.484  14.540
40049W        W11775  13.672  24.601  13.899
40050W        W11776  18.133  20.265   4.254
40051W        W11777  33.973  38.830   0.812
40052W        W11778  31.058  43.939   5.027
40053W        W11779  41.934   3.439   1.376
40054W        W11780  35.459   6.593   0.177
40055W        W11781  29.438  32.114  12.418
40056W        W11782  22.148  33.737  14.944
40057W        W11783  17.017  15.960  14.433
40058W        W11784   7.297  18.758  13.742
40059W        W11785   2.312  32.997  13.267
40060W        W11786  43.792  25.427  14.495
40061W        W11787   6.486  25.583   0.393
40062W        W11788  38.881  37.251  10.666
40063W        W11789  25.469  12.144  13.983
40064W        W11790  24.008  30.526  12.895
40065W        W11791  16.069  39.928  13.970
40066W        W11792  14.790  33.061  11.139
40067W        W11793  35.190  36.253  14.993
40068W        W11794  20.758  25.770   3.216
40069W        W11795  42.893  31.084  14.983
40070W        W11796  19.721  24.722   3.147
40071W        W11797  35.942  42.216  13.292
40072W        W11798  13.438   7.742   2.749
40073W        W11799  17.346   3.248  12.133
40074W        W11800  13.656  28.518   3.587
40075W        W11801   5.817  14.609   3.792
40076W        W11802  44.143  23.672  13.456
40077W        W11803  12.153  32.618   2.298
40078W        W11804  30.171  32.947  12.975
40079W        W11805  35.908  24.141  14.945
40080W        W11806  39.285  31.931  11.523
40081W        W11807  19.341  12.739   4.002
40082W        W11808  16.262  17.248   2.745
40083W        W11809  26.247   7.771  13.557
40084W        W11810  35.075   9.277   2.809
40085W        W11811  15.589   1.338   2.253
40086W        W11812  20.273  41.927  10.793
40087W        W11813  34.579  29.487  10.587
40088W        W11814  25.797  24.239   1.190
40089W        W11815  41.858  29.828   4.735
40090W        W11816  31.472  20.755   3.222
40091W        W11817  25.407  26.238  12.310
40092W        W11818  18.556   7.120   2.859
40093W        W11819  41.713  11.864   4.187
40094W        W11820  21.614   3.596   4.575
40095W        W11821   2.452  25.917  13.530
40096W        W11822   3.562  25.369   4.125
40097W        W11823   5.127  20.660   0.701
40098W        W11824  14.312  13.542  12.170
40099W        W11825  37.786  40.898  12.429
40100W        W11826   1.013  15.782  13.365
40101W        W11827  19.249  20.710  12.765
40102W        W11828   4.245  11.632  13.260
40103W        W11829  29.123   9.843  11.495
40104W        W11830  17.766  24.628   4.564
40105W        W11831  33.539  36.654  10.453
40106W        W11832  21.788  12.295  13.110
40107W        W11833  27.567  31.087  12.589
40108W        W11834  16.876  21.112   1.482
40109W        W11835  44.507  23.640   1.178
40110W        W11836   6.354  40.508  14.029
40111W        W11837  37.826   5.872  13.532
40112W        W11838   2.293  17.177  11.143
40113W        W11839  34.757   9.637   3.817
40114W        W11840   6.458  40.322   3.580
40115W        W11841  29.201  43.987  10.779
40116W        W11842  27.482  26.889   1.818
40117W        W11843  11.401  13.635  12.057
40118W        W11844  15.654  35.447  12.006
40119W        W11845  42.236  12.774  12.661
40120W        W11846  38.320  20.198  11.470
40121W        W11847  35.862  13.287   0.938
40122W        W11848  14.733   8.253   2.400
40123W        W11849  36.138  18.004   2.247
40124W        W11850  13.317  33.884   2.756
40125W        W11851   4.381   5.649   3.277
40126W        W11852  37.872  41.263  13.974
40127W        W11853   3.426  29.933   3.140
40128W        W11854   5.911   1.402   1.366
40129W        W11855  17.743  38.379   1.736
40130W        W11856  18.118  26.252  13.046
40131W        W11857   3.989   2.815  11.705
40132W        W11858   4.718   1.195   4.109
40133W        W11859  19.652  38.347   4.081
40134W        W11860  14.788  12.330  10.926
40135W        W11861  13.835  26.965   1.693
40136W        W11862  29.961  39.969  13.708
40137W        W11863  39.293  38.645  12.946
40138W        W11864  39.924  11.372   1.480
40139W        W11865   1.964   4.735   1.207
40140W        W11866  15.108  34.038   3.998
40141W        W11867   1.371   8.497  12.265
40142W        W11868   1.567  44.993   1.847
40143W        W11869  16.731  42.363   2.187
40144W        W11870  31.007  30.033   4.674
40145W        W11871  41.949  33.681   3.559
40146W        W11872   1.029  28.079   4.906
40147W        W11873  40.369   3.110  10.520
40148W        W11874  24.594  12.277  14.123
40149W        W11875  18.620  35.433   0.528
40150W        W11876   6.920  29.503  11.043
40151W        W11877  14.667  28.474   2.245
40152W        W11878   7.126  40.671   1.467
40153W        W11879  40.549  11.326   2.338
40154W        W11880   4.024  29.530  13.388
40155W        W11881  40.953  18.254   2.350
40156W        W11882   7.626  14.127   4.872
40157W        W11883  43.788   3.798   2.446
40158W        W11884  19.189  26.517  13.764
40159W        W11885   2.136  41.845  12.433
40160W        W11886  26.556  40.437  11.904
40161W        W11887  41.993  17.026  11.262
40162W        W11888  18.031  42.249   2.501
40163W        W11889  14.813   1.770  14.736
40164W        W11890  19.093  36.936   0.792
40165W        W11891  20.061   0.871  10.588
40166W        W11892  21.259  43.979  14.632
40167W        W11893  38.694  30.514  14.816
40168W        W11894   8.685  29.742  12.492
40169W        W11895   1.390  17.609   0.317
40170W        W11896  10.826   6.939  11.198
40171W        W11897  22.318  14.868  10.028
40172W        W11898  15.653  36.581  11.947
40173W        W11899  14.466  10.758  11.224
40174W        W11900  14.854  21.534   1.346
40175W        W11901  32.451   1.300   2.478
40176W        W11902  17.791  18.086   4.233
40177W        W11903   4.998  26.767  11.171
40178W        W11904  25.872  35.884   1.875
40179W        W11905  11.294   8.943  14.811
40180W        W11906  12.117  15.194   2.483
40181W        W11907  42.901  42.505   4.836
40182W        W11908   8.180  21.438   3.718
40183W        W11909  32.443  28.577  11.504
40184W        W11910   9.379   6.700   1.451
40185W        W11911  10.017  31.322  11.230
40186W        W11912  35.936  23.972  12.753
40187W        W11913   3.813  19.988   0.745
40188W        W11914  10.293  40.003  14.394
40189W        W11915  39.760  20.302   2.778
40190W        W11916  40.786   2.745  10.712
40191W        W11917  36.886  16.174  12.975
40192W        W11918  42.731  34.042  10.674
40193W        W11919  17.814  14.775   2.703
40194W        W11920  37.929  36.902   5.049
40195W        W11921  44.447  23.920  14.328
40196W        W11922  17.711   8.563   2.336
40197W        W11923  38.759  10.334  13.612
40198W        W11924  24.743  15.919   4.177
40199W        W11925  42.529  11.164  13.951
40200W        W11926  38.819  38.552  14.742
40201W        W11927  19.278  38.888  10.495
40202W        W11928   7.801  38.424   1.005
40203W        W11929   4.292  14.730  12.993
40204W        W11930  30.488  21.198   3.879
40205W        W11931  28.460  15.504   3.446
40206W        W11932  17.314   1.709   0.221
40207W        W11933   2.657  13.321   4.809
40208W        W11934  31.993  36.978  12.440
40209W        W11935  12.088  42.712   1.838
40210W        W11936  31.024   8.414   1.873
40211W        W11937   7.862  18.819   1.384
40212W        W11938  12.844  36.993  12.184
40213W        W11939  34.079  19.779  13.520
40214W        W11940   4.414  20.706  13.746
40215W        W11941   5.752  19.461  10.850
40216W        W11942   8.752  44.145  12.670
40217W        W11943  41.464  41.343   1.522
40218W        W11944  19.953  12.252   3.835
40219W        W11945  21.695   2.924  11.806
40220W        W11946  20.586  43.226  11.699
40221W        W11947  38.930   9.905   3.666
40222W        W11948   8.761  44.556  10.835
40223W        W11949   5.152   7.802   9.715
40224W        W11950  14.167  28.406  12.924
40225W        W11951  29.112   2.766   1.338
40226W        W11952   3.666  24.278  11.699
40227W        W11953  36.067  41.494  14.930
40228W        W11954  15.860  34.968   0.922
40229W        W11955  33.062   4.523   4.195
40230W        W11956  10.860  13.852   0.825
40231W        W11957  22.360  17.509  11.506
40232W        W11958  33.256   8.949  12.066
40233W        W11959  30.349   9.666  13.737
40234W        W11960  41.399  21.118  11.396
40235W        W11961   9.474  30.887  10.759
40236W        W11962  33.339   3.831  14.557
40237W        W11963  40.775   3.733   0.681
40238W        W11964  41.450  28.506   4.512
40239W        W11965  25.144  26.744   2.741
40240W        W11966  10.363  25.671   1.528
40241W        W11967  30.194  36.490   3.910
40242W        W11968   8.196   1.559   3.173
40243W        W11969   0.771  38.799   3.212
40244W        W11970   6.199  20.752  11.556
40245W        W11971  41.827  40.770  10.641
40246W        W11972  34.182  24.558   0.768
40247W        W11973   4.800   7.723   4.498
40248W        W11974  23.723  21.546  11.180
40249W        W11975   4.251  21.261  10.550
40250W        W11976   8.401  29.482  10.561
40251W        W11977  36.881  28.905   4.509
40252W        W11978  28.376  35.450  13.154
40253W        W11979  20.329  32.012  11.669
40254W        W11980  30.376   6.391   4.040
40255W        W11981  19.486  41.045   0.423
40256W        W11982  30.127   0.226  13.087
40257W        W11983   1.715  10.185  12.539
40258W        W11984  39.946   8.166  14.368
40259W        W11985  17.996  34.550  13.530
40260W        W11986  25.717  23.155   2.587
40261W        W11987   9.963  36.503   0.325
40262W        W11988  34.619  34.399   0.977
40263W        W11989  20.169  26.652   2.624
40264W        W11990  32.493  41.818   2.469
40265W        W11991  23.153  15.413  11.109
40266W        W11992   1.803  37.324  14.277
40267W        W11993  24.570  29.177   2.252
40268W        W11994  11.191  15.196   2.617
40269W        W11995  43.222  17.672  14.731
40270W        W11996  32.653  21.688  14.354
40271W        W11997  39.693  44.953  14.111
40272W        W11998  25.451  12.621  13.824
40273W        W11999  43.986   3.430  13.970
40274W        W12000   0.407  38.456  10.701
40275W        W12001  36.993  37.096  11.119
40276W        W12002  34.961   0.765   0.231
40277W        W12003  17.865  35.079   0.931
40278W        W12004  38.913   6.484  13.346
40279W        W12005  17.331   6.110  14.709
40280W        W12006  35.452  32.079   3.607
40281W        W12007  28.969  14.782   0.873
40282W        W12008  30.243  22.498   0.173
40283W        W12009   0.252  26.120  11.850
40284W        W12010  41.275  18.112   1.788
40285W        W12011  44.043  13.500  14.417
40286W        W12012  35.596  24.439   1.205
40287W        W12013  18.135   9.226  11.280
40288W        W12014  17.375   6.876   3.878
40289W        W12015  23.787  27.150   2.626
40290W        W12016  25.484  38.512   1.760
40291W        W12017  16.398  15.670   4.504
40292W        W12018  27.946  25.071   4.981
40293W        W12019  34.381  19.215   2.158
40294W        W12020  37.499  13.255   3.943
40295W        W12021  43.708   8.993   1.855
40296W        W12022  31.374  32.928   2.111
40297W        W12023  17.970  23.127   0.728
40298W        W12024   3.222   2.797  11.143
40299W        W12025  30.283  35.887  11.091
40300W        W12026  34.331  43.694   1.803
40301W        W12027   3.342  26.877   4.179
40302W        W12028  21.119  33.165   3.744
40303W        W12029  38.072  25.471   1.366
40304W        W12030  38.083  41.331   1.422
40305W        W12031  28.455   7.899   3.233
40306W        W12032  22.983  28.548   1.373
40307W        W12033  27.156   6.960  12.057
40308W        W12034   0.976  19.704   1.775
40309W        W12035   2.982  25.944   3.922
40310W        W12036  30.764  41.368   1.666
40311W        W12037  32.965  36.813  14.419
40312W        W12038  40.496  16.778  13.792
40313W        W12039   4.938   7.490   1.870
40314W        W12040  11.786  20.629  12.444
40315W        W12041  28.667   5.213   0.774
40316W        W12042  43.281  14.380  14.472
40317W        W12043  21.616  19.141  14.050
40318W        W12044  14.589  18.680   4.155
40319W        W12045  23.906   8.956  12.439
40320W        W12046  16.061  23.366   2.593
40321W        W12047  11.464  17.144   2.779
40322W        W12048  15.192   3.998  10.902
40323W        W12049   2.498  16.140   1.459
40324W        W12050  17.231  20.348   2.437
40325W        W12051  25.501  32.130  10.220
40326W        W12052  22.068  21.235  11.405
40327W        W12053  34.455  43.049   1.432
40328W        W12054   3.280  17.213  13.597
40329W        W12055  21.803  30.559   5.022
40330W        W12056  22.728  16.820   4.642
40331W        W12057  31.452  25.097  13.882
40332W        W12058  29.414   1.490   2.718
40333W        W12059  40.299  44.942  14.313
40334W        W12060  34.436  20.539   2.919
40335W        W12061  14.271  20.069  13.043
40336W        W12062  35.829   3.998   2.697
40337W        W12063  12.809  38.300  13.395
40338W        W12064   5.298  44.248   0.547
40339W        W12065  24.103  41.019  12.982
40340W        W12066  19.770  25.535  13.290
40341W        W12067  39.963  30.108  12.045
40342W        W12068  38.859   7.342   4.013
40343W        W12069  25.365   9.317   4.312
40344W        W12070  12.752  20.753  11.150
40345W        W12071  39.518  17.647  14.989
40346W        W12072  32.586  31.920   0.176
40347W        W12073  23.069  37.439  14.616
40348W        W12074   1.325  22.029   0.718
40349W        W12075  15.462  22.659  12.484
40350W        W12076  27.664  32.910  13.818
40351W        W12077  25.469  26.602   2.280
40352W        W12078  19.426  30.340  13.929
40353W        W12079  22.282  18.133   4.337
40354W        W12080  44.421  32.383   2.029
40355W        W12081  16.536  16.216  12.316
40356W        W12082   4.707  27.150   3.716
40357W        W12083   0.999  33.428  11.518
40358W        W12084  35.335  31.600   3.856
40359W        W12085  13.437  42.468   1.438
40360W        W12086  35.578  12.266  13.724
40361W        W12087  22.101  38.493  13.868
40362W        W12088  39.981  19.755   3.266
40363W        W12089  16.738  33.663  12.001
40364W        W12090  24.676  27.495  11.509
40365W        W12091  23.569  41.102  14.485
40366W        W12092  21.161  40.248   1.496
40367W        W12093  36.507  31.262  12.357
40368W        W12094  40.032   0.550   4.244
40369W        W12095  10.790   4.603  11.668
40370W        W12096  44.771   7.485  12.795
40371W        W12097  38.024  12.628  11.478
40372W        W12098  17.842  22.975  14.799
40373W        W12099  25.707  23.725   9.936
40374W        W12100  38.428  15.536   1.907
40375W        W12101   5.346  21.603  14.250
40376W        W12102  15.479  43.255   3.053
40377W        W12103  12.805  30.216  11.616
40378W        W12104  21.575  39.449  11.270
40379W        W12105  23.120  11.470   4.793
40380W        W12106  34.834   7.358   3.643
40381W        W12107  20.619  42.561  12.453
40382W        W12108  36.090  27.684  11.053
40383W        W12109  22.328  24.876   2.172
40384W        W12110  41.844  21.221   4.141
40385W        W12111  37.578  35.105   2.823
40386W        W12112   2.735  20.013  11.170
40387W        W12113  36.780  13.190   1.459
40388W        W12114  14.270   8.066   1.334
40389W        W12115  41.626   0.992   2.827
40390W        W12116  17.980  25.612   3.720
40391W        W12117  35.791  36.513  13.810
40392W        W12118  15.813   8.409  13.046
40393W        W12119   5.123  10.923  13.684
40394W        W12120  18.081  12.150  12.832
40395W        W12121  27.904  22.663  14.902
40396W        W12122  29.082  23.568   5.029
40397W        W12123  11.901  30.171   2.766
40398W        W12124  40.831  33.076   0.907
40399W        W12125  38.271  16.767  11.171
40400W        W12126   0.783  33.019  13.088
40401W        W12127  44.652  35.361   2.696
40402W        W12128  11.592  39.777   2.769
40403W        W12129  44.881  11.629  11.268
40404W        W12130   2.449   9.414  13.786
40405W        W12131   2.021  43.793   1.353
40406W        W12132  40.030  19.805  11.647
40407W        W12133  15.760  11.576   4.148
40408W        W12134   4.445  29.865   4.247
40409W        W12135   4.498   6.013   9.851
40410W        W12136  13.340  17.024   4.157
40411W        W12137  33.680  27.033   2.273
40412W        W12138  22.663  29.353  10.641
40413W        W12139  29.098  35.577   2.819
40414W        W12140  43.011  28.695   2.400
40415W        W12141  27.020  23.680   1.518
40416W        W12142  27.562  20.945   1.271
40417W        W12143   3.381   7.899  10.773
40418W        W12144   4.582  29.670  14.903
40419W        W12145  22.475  23.072  14.780
40420W        W12146   2.236   1.781   2.261
40421W        W12147  24.553  15.995  13.502
40422W        W12148   7.847  12.336  10.672
40423W        W12149   2.151  22.139   1.100
40424W        W12150  32.608  29.100  13.494
40425W        W12151  20.084  43.448   3.289
40426W        W12152  31.839   0.782   3.789
40427W        W12153   8.384  35.355   3.207
40428W        W12154  40.788  13.516   4.173
40429W        W12155   3.813  15.128   1.466
40430W        W12156  25.692  40.450  11.645
40431W        W12157  11.703  32.591  14.730
40432W        W12158  23.604  32.635   2.632
40433W        W12159  10.430  21.437  14.967
40434W        W12160  35.287  12.774  12.258
40435W        W12161  33.340  12.286  14.167
40436W        W12162  31.614   7.322  10.882
40437W        W12163  14.253  28.108  14.369
40438W        W12164   0.963  44.261  10.750
40439W        W12165  30.861  39.744   3.240
40440W        W12166  28.883   1.284  12.398
40441W        W12167  38.192  25.477  10.810
40442W        W12168  13.556   8.386  12.093
40443W        W12169  14.289   5.909  13.011
40444W        W12170  32.429  18.147  11.463
40445W        W12171  31.411  34.286  12.856
40446W        W12172  44.213  14.354  13.540
40447W        W12173  40.308  30.328   2.344
40448W        W12174  15.705  14.943  14.777
40449W        W12175  15.032  21.059  13.555
40450W        W12176  33.339  28.036   0.834
40451W        W12177  28.206   4.266  13.843
40452W        W12178  26.263  35.009  11.948
40453W        W12179  32.090  32.233   1.423
40454W        W12180  30.719  38.808   3.587
40455W        W12181  19.940   5.187  10.823
40456W        W12182   1.868  37.125   1.082
40457W        W12183  18.555  35.394   3.654
40458W        W12184   0.778   4.170  10.685
40459W        W12185  35.042   4.411  10.698
40460W        W12186   3.235   5.404  13.010
40461W        W12187   8.850  17.244  11.887
40462W        W12188  30.124  41.382   3.750
40463W        W12189  28.102  25.964  14.317
40464W        W12190  35.522  13.658   4.837
40465W        W12191  24.588  18.474  14.409
40466W        W12192  30.968  43.985  13.859
40467W        W12193  32.256  37.730   0.372
40468W        W12194  17.147  43.229  10.211
40469W        W12195  28.783  42.977  12.562
40470W        W12196  41.108  36.579   1.798
40471W        W12197   1.218  15.111   0.344
40472W        W12198  19.504  30.835   0.297
40473W        W12199   5.940   4.255  13.888
40474W        W12200  25.889  39.801   3.583
40475W        W12201  17.117  19.944  14.563
40476W        W12202  10.687  17.514  14.430
40477W        W12203  44.192   5.766  12.866
40478W        W12204  34.517   1.849   0.799
40479W        W12205   2.681  15.689  14.585
40480W        W12206  19.285  25.611   4.794
40481W        W12207   8.180   1.033  14.321
40482W        W12208  26.023   4.308  11.056
40483W        W12209  26.758  30.545  14.878
40484W        W12210  38.916  20.323   5.000
40485W        W12211  37.987   2.213  13.556
40486W        W12212   4.650  43.452  13.302
40487W        W12213   3.141  18.645   3.994
40488W        W12214  13.640  20.130   2.738
40489W        W12215  37.507  14.750  12.133
40490W        W12216  30.733  20.642   0.888
40491W        W12217  35.853   7.452   2.819
40492W        W12218   7.497   4.665  14.903
40493W        W12219  17.843   4.754   3.277
40494W        W12220   3.164  25.223   4.854
40495W        W12221  19.693   9.328  12.933
40496W        W12222   6.723  26.170  14.973
40497W        W12223  25.958   4.759   1.944
40498W        W12224  15.957  35.004  11.969
40499W        W12225  37.746  27.628  13.600
40500W        W12226  42.467   0.624   0.830
40501W        W12227  17.984   2.424   2.776
40502W        W12228  24.334  34.629  12.132
40503W        W12229  35.924  34.978   3.821
40504W        W12230   3.420  23.272  10.949
40505W        W12231  40.494   4.624  12.157
40506W        W12232  31.431  38.259  14.384
40507W        W12233  20.195   4.677   4.193
40508W        W12234  32.629  27.643  13.070
40509W        W12235  26.541   1.282  10.613
40510W        W12236  37.386  12.075   0.383
40511W        W12237   1.314   1.979  12.577
40512W        W12238  33.709  15.640  10.290
40513W        W12239  23.835  19.547   1.459
40514W        W12240  36.901  25.393  12.497
40515W        W12241   1.251  28.414   2.781
40516W        W12242  42.042  15.280  13.883
40517W        W12243  33.881  27.535   2.419
40518W        W12244  23.996  16.466  13.301
40519W        W12245  38.347  31.817  14.520
40520W        W12246   5.917  42.815  14.498
40521W        W12247  23.620   6.852   2.686
40522W        W12248  24.530  26.746  14.886
40523W        W12249  19.716  32.921  12.466
40524W        W12250  36.657  27.104  14.428
40525W        W12251  25.101   6.111  14.167
40526W        W12252  27.639  37.361   3.602
40527W        W12253  11.765  11.386   0.117
40528W        W12254   2.526  43.582   4.209
40529W        W12255  21.651  26.103  14.273
40530W        W12256  35.365  17.953  14.937
40531W        W12257  26.512   9.280  13.377
40532W        W12258  20.716  40.104   0.370
40533W        W12259  16.064   1.043   2.210
40534W        W12260  29.950   7.223  13.260
40535W        W12261  43.923   1.190  11.837
40536W        W12262   0.923  23.553   3.255
40537W        W12263  21.209  10.171   2.261
40538W        W12264   2.804  24.382   2.813
40539W        W12265  38.783  15.631  10.192
40540W        W12266  41.727  43.195   2.279
40541W        W12267  29.954  40.858   0.388
40542W        W12268  33.473  10.303  13.397
40543W        W12269   8.429  27.553  14.339
40544W        W12270  35.623   3.610   4.972
40545W        W12271  26.211  25.242   0.426
40546W        W12272  35.912  13.405   3.770
40547W        W12273  26.467  35.909  12.387
40548W        W12274   8.178  31.931  12.950
40549W        W12275  18.967   5.242   4.694
40550W        W12276  22.785  14.818   0.384
40551W        W12277  37.889  25.557   2.941
40552W        W12278  35.577   1.850   2.816
40553W        W12279   6.537  32.317  14.718
40554W        W12280  32.340  43.976   3.682
40555W        W12281  24.702   5.483   4.162
40556W        W12282  24.275  18.684  13.201
40557W        W12283  10.212   5.399   0.827
40558W        W12284   8.655   7.768  13.970
40559W        W12285  41.909  41.861  10.600
40560W        W12286  10.428  10.685   0.072
40561W        W12287   2.778  30.230  11.710
40562W        W12288  35.973  21.652   4.402
40563W        W12289   5.900  43.324   0.261
40564W        W12290   8.433  36.688  14.528
40565W        W12291  27.738   3.280  13.916
40566W        W12292  19.748  42.420   4.512
40567W        W12293   1.763  43.752   0.884
40568W        W12294  18.942  10.242  12.575
40569W        W12295  34.672  27.380  12.316
40570W        W12296   4.759   7.911  12.987
40571W        W12297  34.607  11.849   3.747
40572W        W12298  19.202  34.480   4.320
40573W        W12299  27.522  34.452   1.794
40574W        W12300  14.739  37.295  13.073
40575W        W12301  18.183  10.318   0.140
40576W        W12302  30.006  21.119   9.995
40577W        W12303  24.523  17.292  12.993
40578W        W12304  21.950  36.407   0.445
40579W        W12305  25.952  43.405   2.965
40580W        W12306  14.204  23.726   1.889
40581W        W12307  12.359  14.144   3.554
40582W        W12308  43.960  23.243   3.753
40583W        W12309  17.741  24.766   3.280
40584W        W12310  17.010  42.453  12.861
40585W        W12311  13.274  37.775   3.398
40586W        W12312  30.919  37.173   2.696
40587W        W12313   8.483  21.698   3.374
40588W        W12314  23.527   1.705  14.507
40589W        W12315  12.870  41.937   3.614
40590W        W12316  40.520  10.205  13.618
40591W        W12317  29.273  24.948   1.688
40592W        W12318  29.980  43.772  14.999
40593W        W12319  22.496  24.465  14.930
40594W        W12320  37.210  28.996  13.666
40595W        W12321  35.632  37.185  13.065
40596W        W12322  19.022  24.203   1.391
40597W        W12323  28.943   1.402   4.664
40598W        W12324  24.662  41.476  14.509
40599W        W12325  39.263   2.732   1.599
40600W        W12326  33.445  31.574  10.144
40601W        W12327  16.206  28.435  14.766
40602W        W12328  37.339  31.598  10.502
40603W        W12329  12.351  35.417   3.882
40604W        W12330  34.819   1.387   1.998
40605W        W12331  36.877   4.937   0.428
40606W        W12332   2.930   3.190  11.309
40607W        W12333  27.458  15.358  13.269
40608W        W12334  27.223   8.306   0.823
40609W        W12335  17.763  26.178  13.414
40610W        W12336  42.192   2.090  13.530
40611W        W12337  17.484  34.588  13.390
40612W        W12338  27.941  11.336  11.565
40613W        W12339  33.026  35.047   0.449
40614W        W12340   2.278  44.963  13.113
40615W        W12341  19.585  10.907  11.548
40616W        W12342   5.081   2.511   1.366
40617W        W12343  12.691  38.453   4.368
40618W        W12344  44.932  33.190  14.805
40619W        W12345  42.415  30.397   2.330
40620W        W12346  22.724  25.924   4.503
40621W        W12347  19.079  44.037   1.695
40622W        W12348  19.545  33.421  11.144
40623W        W12349  31.691  29.186  13.345
40624W        W12350   1.874   0.607  10.699
40625W        W12351  20.756  25.358   4.585
40626W        W12352   1.856  29.088  14.029
40627W        W12353   8.224  24.855   5.005
40628W        W12354   2.270  41.321  13.871
40629W        W12355  10.521  16.843  10.041
40630W        W12356  44.833  14.988  13.580
40631W        W12357   5.386  44.856  12.046
40632W        W12358   0.792  29.041  10.078
40633W        W12359  11.817  24.293   4.125
40634W        W12360  38.515  30.672  12.937
40635W        W12361  17.596  35.552  12.636
40636W        W12362  36.941  21.546   2.691
40637W        W12363  15.731  29.250   5.033
40638W        W12364  34.039  34.603   4.781
40639W        W12365  25.561  30.949  13.882
40640W        W12366  22.119  37.662  12.390
40641W        W12367  26.521  22.726  12.864
40642W        W12368  37.764  39.468  12.789
40643W        W12369  26.478   3.424  13.996
40644W        W12370  25.182  33.881   2.561
40645W        W12371  23.293   1.905   0.945
40646W        W12372  31.786  14.427  10.333
40647W        W12373  42.966  19.480  14.792
40648W        W12374  20.348  33.935  11.505
40649W        W12375  25.787   7.480  12.886
40650W        W12376  41.490   8.324  10.722
40651W        W12377  24.832  43.572  10.059
40652W        W12378  37.070  28.636   2.341
40653W        W12379  42.526   9.196   3.664
40654W        W12380  32.606   8.718  14.012
40655W        W12381  34.645   7.900  14.476
40656W        W12382  17.055  24.136   0.421
40657W        W12383  37.987  10.850  12.559
40658W        W12384  17.071  23.031   2.758
40659W        W12385  33.638  38.554  14.466
40660W        W12386  11.234  44.098  14.040
40661W        W12387   4.462  37.466   0.010
40662W        W12388  20.858  42.849  11.492
40663W        W12389  42.430  43.641  10.475
40664W        W12390  20.782  12.044  13.829
40665W        W12391  28.940  10.350   4.882
40666W        W12392  21.714  25.968   2.658
40667W        W12393   9.331   3.781  11.385
40668W        W12394  23.316  29.194   4.101
40669W        W12395  39.800  35.482  14.468
40670W        W12396  38.889   4.693  12.962
40671W        W12397  24.627  16.777  13.956
40672W        W12398   6.943  35.796   3.704
40673W        W12399  25.251  34.328  10.735
40674W        W12400  38.561  36.918   0.986
40675W        W12401  13.174  25.326   1.894
40676W        W12402  21.093   9.775   2.902
40677W        W12403  42.277  40.926   0.028
40678W        W12404  27.090   6.901  14.915
40679W        W12405  35.282   8.649   1.098
40680W        W12406  16.730  19.081  11.231
40681W        W12407  13.402  40.418   2.764
40682W        W12408  30.045  17.251   2.256
40683W        W12409  19.544  23.214   0.880
40684W        W12410  40.032  18.055  13.978
40685W        W12411  43.882  26.467  11.039
40686W        W12412  41.237  20.523   2.628
40687W        W12413  29.466  36.813   4.546
40688W        W12414  27.393   3.313   1.048
40689W        W12415  41.114  40.172   2.800
40690W        W12416  19.570   6.739   0.994
40691W        W12417  33.627  23.278   2.365
40692W        W12418   9.515  31.217  11.169
40693W        W12419  26.467   5.232  14.772
40694W        W12420  14.800  10.913   2.807
40695W        W12421  28.011  26.228  11.701
40696W        W12422  23.653   0.065   0.502
40697W        W12423  26.143  19.118   0.741
40698W        W12424  10.373  33.593   2.709
40699W        W12425  26.679  29.558   1.744
40700W        W12426   1.474   5.991  13.091
40701W        W12427  11.174  35.565  11.242
40702W        W12428  24.155  31.651   1.156
40703W        W12429  17.361  32.458   4.143
40704W        W12430  16.578  34.900   4.030
40705W        W12431   3.382  31.634   0.882
40706W        W12432  44.794   4.391   3.737
40707W        W12433   0.011  11.330   4.188
40708W        W12434  28.557  27.075  12.004
40709W        W12435  26.119  21.604   2.404
40710W        W12436  17.466  13.176   4.287
40711W        W12437  24.455  12.343   2.857
40712W        W12438  12.987   7.427  11.482
40713W        W12439  32.933  29.263   0.812
40714W        W12440  35.909  34.198  12.146
40715W        W12441   8.777  39.724   3.160
40716W        W12442  16.884  10.177   2.199
40717W        W12443   0.990  29.968  12.502
40718W        W12444   1.782   8.958  14.955
40719W        W12445  44.373  13.201   1.229
40720W        W12446  42.878  10.809   2.270
40721W        W12447  44.888  34.608  12.798
40722W        W12448  37.860  17.833   2.860
40723W        W12449  37.475  16.806  12.614
40724W        W12450  10.528  44.369   9.737
40725W        W12451   4.843   6.368   1.192
40726W        W12452  25.544  25.681   1.444
40727W        W12453  36.104  40.267   1.075
40728W        W12454  39.837  44.074   1.955
40729W        W12455  11.378   7.402  14.921
40730W        W12456  42.708  17.753  10.830
40731W        W12457  36.759  26.087  11.694
40732W        W12458  16.071   8.132   1.293
40733W        W12459  40.420  44.884  11.743
40734W        W12460  29.111  42.571  12.488
40735W        W12461   9.332   6.870   2.413
40736W        W12462   0.063  40.378  13.331
40737W        W12463  39.538   1.513   1.919
40738W        W12464  28.087   7.301   5.095
40739W        W12465  42.652   6.771   0.857
40740W        W12466   7.525   0.873   4.603
40741W        W12467  32.037   9.672   4.883
40742W        W12468  41.979  40.076   1.712
40743W        W12469  32.349  13.124   2.648
40744W        W12470  33.396  19.980  12.941
40745W        W12471  16.821  38.343  12.466
40746W        W12472  44.389  24.966  10.662
40747W        W12473  38.526  30.710   2.277
40748W        W12474  24.890  44.404   5.094
40749W        W12475  29.216   9.483  11.096
40750W        W12476  40.572  19.615   1.357
40751W        W12477  39.451  22.577   4.564
40752W        W12478  22.096  23.764  14.235
40753W        W12479  42.017  40.012   2.701
40754W        W12480  12.328  13.185   3.415
40755W        W12481  27.203  34.849   0.303
40756W        W12482  11.228  23.742   1.730
40757W        W12483  44.768  26.041  14.953
40758W        W12484  14.130  38.162   4.212
40759W        W12485  19.029  15.097   0.445
40760W        W12486  31.654   1.547   0.433
40761W        W12487  44.910  13.180  12.779
40762W        W12488  34.959  33.652   3.728
40763W        W12489   8.150  21.312  12.051
40764W        W12490   0.776   0.690   2.329
40765W        W12491  41.046  32.368  12.014
40766W        W12492  43.856  33.873   1.325
40767W        W12493  15.686  38.768   1.445
40768W        W12494  39.957  26.458   3.021
40769W        W12495  14.632  26.505  12.358
40770W        W12496  24.416  39.307   4.119
40771W        W12497  28.187  30.858  13.505
40772W        W12498  19.014  23.884   2.449
40773W        W12499  25.168  16.041  11.217
40774W        W12500  16.580  26.500  12.820
40775W        W12501  26.596  42.599  10.720
40776W        W12502  37.090  14.114   1.927
40777W        W12503  41.335  13.039  13.356
40778W        W12504   8.465  24.218  11.879
40779W        W12505  44.900  36.338   4.683
40780W        W12506  34.413  21.234   4.003
40781W        W12507  42.804  32.594   2.388
40782W        W12508   3.683  31.002   3.259
40783W        W12509  24.979  26.252   2.713
40784W        W12510  42.517  20.815  12.080
40785W        W12511  43.462  19.554  11.137
40786W        W12512  26.105  37.021  13.369
40787W        W12513  30.918  19.637  13.293
40788W        W12514  42.795  29.004  14.803
40789W        W12515  22.138  44.523  13.457
40790W        W12516   6.154  29.880   0.916
40791W        W12517   5.123  26.240  14.279
40792W        W12518  11.191  23.267  10.379
40793W        W12519  44.906   2.702  12.864
40794W        W12520  31.554  19.156   1.882
40795W        W12521  24.744  22.234   4.174
40796W        W12522  44.711  23.257  10.352
40797W        W12523   6.170  16.154   4.908
40798W        W12524  12.255  24.031  11.993
40799W        W12525   5.017  27.953   2.450
40800W        W12526  27.521  30.106   1.491
40801W        W12527  16.056  33.240  14.743
40802W        W12528  10.341  27.622  10.545
40803W        W12529  17.918  14.341  10.830
40804W        W12530  32.680  41.599   9.781
40805W        W12531  39.669  16.840   4.189
40806W        W12532  15.896  32.367  13.512
40807W        W12533  39.595  39.323  14.902
40808W        W12534  10.662  16.814   2.828
40809W        W12535  33.247  43.394   2.408
40810W        W12536   5.395  19.261  12.370
40811W        W12537  24.160  25.273  10.327
40812W        W12538  17.997  19.477  12.336
40813W        W12539   6.404  21.946   2.685
40814W        W12540  18.446   9.379   4.727
40815W        W12541   2.566  37.643   1.359
40816W        W12542  42.413  27.426  12.604
40817W        W12543  15.222  26.674  13.795
40818W        W12544  16.539  40.273   5.159
40819W        W12545  32.162  43.027  13.767
40820W        W12546  41.407  20.107  10.526
40821W        W12547  11.627  25.291  12.979
40822W        W12548  27.701  42.440   4.057
40823W        W12549  13.610  12.188   3.660
40824W        W12550   3.314  18.585   3.512
40825W        W12551  10.944  20.380  12.391
40826W        W12552  40.691  14.295  13.374
40827W        W12553   3.182   8.240  14.215
40828W        W12554   6.357  43.900  14.079
40829W        W12555  33.708   1.773  12.955
40830W        W12556   6.899  29.200  14.837
40831W        W12557  25.503  19.666  10.703
40832W        W12558  17.359  43.710  10.291
40833W        W12559  37.896  24.524   1.338
40834W        W12560  42.409  22.364   0.878
40835W        W12561  13.652  16.039  14.949
40836W        W12562  42.368  12.771  14.977
40837W        W12563  27.325   5.684   2.802
40838W        W12564  40.780  24.123  14.271
40839W        W12565  41.846  29.980   1.800
40840W        W12566  35.398  16.851   2.723
40841W        W12567  16.320  39.370   4.348
40842W        W12568  29.592   0.286  13.061
40843W        W12569  11.904  32.035   0.983
40844W        W12570   1.929  42.416   0.944
40845W        W12571  12.396  43.637   1.199
40846W        W12572  39.582   0.347  10.762
40847W        W12573   6.294  33.591  11.148
40848W        W12574  11.880  23.418  11.532
40849W        W12575  14.413  43.447   0.856
40850W        W12576  33.340   7.918   4.254
40851W        W12577  15.890  31.148   4.468
40852W        W12578  12.506  27.576   3.872
40853W        W12579   8.982   1.844  13.655
40854W        W12580  25.819  31.141   3.038
40855W        W12581   0.753  41.830  10.603
40856W        W12582  10.172  28.441   4.620
40857W        W12583  29.388  32.126   4.139
40858W        W12584  32.956   1.757   1.278
40859W        W12585  18.781  41.887   3.308
40860W        W12586  26.698   4.332   2.104
40861W        W12587  23.123  25.583   4.193
40862W        W12588   0.724  16.746  12.353
40863W        W12589  31.073  11.235  13.352
40864W        W12590  40.827  18.255  13.560
40865W        W12591  21.612   3.311  13.355
40866W        W12592  34.510   5.712  13.478
40867W        W12593  39.331   5.605  12.175
40868W        W12594  22.133   1.173  14.343
40869W        W12595  17.152  44.453  14.335
40870W        W12596   7.870   4.284   0.940
40871W        W12597  37.816  21.707   2.369
40872W        W12598  26.614  30.485   2.847
40873W        W12599  15.981  11.093  13.283
40874W        W12600  13.195  29.033   4.179
40875W        W12601  42.162  32.675  10.822
40876W        W12602  42.946  35.548  12.513
40877W        W12603   2.415  37.112   1.833
40878W        W12604  43.738  23.656   2.348
40879W        W12605  11.881   2.256   4.595
40880W        W12606  10.456  26.653  14.800
40881W        W12607  19.237  10.809   0.904
40882W        W12608  44.567  35.330  11.076
40883W        W12609  20.226  43.569  13.920
40884W        W12610  25.078   7.223   4.830
40885W        W12611   5.251  18.783  12.477
40886W        W12612  26.157  38.326   0.808
40887W        W12613  30.599  36.597   1.413
40888W        W12614  16.698  25.136  14.320
40889W        W12615   4.372  39.306  12.589
40890W        W12616  42.981  29.935   1.779
40891W        W12617  20.774   1.899   3.697
40892W        W12618  35.056  13.663   0.959
40893W        W12619  27.207  32.313   1.533
40894W        W12620  38.092  11.098  13.965
40895W        W12621   4.142  43.384  14.481
40896W        W12622  44.852  32.162   4.392
40897W        W12623   4.577  13.284   4.508
40898W        W12624  43.104  37.859  12.512
40899W        W12625  10.990  36.615   0.020
40900W        W12626   2.197  38.452   4.012
40901W        W12627  19.558  34.360  11.494
40902W        W12628  13.415  33.330  14.513
40903W        W12629  43.034   1.096  11.028
40904W        W12630   8.098  15.702  10.442
40905W        W12631  40.014   3.727   3.352
40906W        W12632   4.901   6.227   4.809
40907W        W12633   8.827  43.113  12.904
40908W        W12634  21.310  35.874  10.797
40909W        W12635  10.633  38.751  10.979
40910W        W12636  40.865   5.721  10.861
40911W        W12637   1.705  27.215   0.458
40912W        W12638  11.137   7.454   2.381
40913W        W12639   0.420  24.900  10.667
40914W        W12640   2.033  11.944  12.181
40915W        W12641  37.548  21.967   0.214
40916W        W12642   8.566  36.489  14.032
40917W        W12643  39.901  29.478   3.738
40918W        W12644  33.049   3.163  13.535
40919W        W12645  24.416  44.473  11.911
40920W        W12646  16.503   8.268   1.923
40921W        W12647  44.940  37.891  12.532
40922W        W12648  30.681  41.553  10.574
40923W        W12649  21.111  42.885   1.744
40924W        W12650  24.220  21.194  12.401
40925W        W12651  35.536   7.317  13.977
40926W        W12652  28.272  27.971   2.198
40927W        W12653  30.691  12.540   2.301
40928W        W12654  39.351  27.026  14.781
40929W        W12655  19.767   0.748  11.452
40930W        W12656   5.495  40.790  13.922
40931W        W12657  24.737  30.876  14.493
40932W        W12658  26.650  19.662  12.471
40933W        W12659  31.050  29.054   4.463
40934W        W12660   6.999  10.300   2.286
40935W        W12661  30.649  23.685   2.796
40936W        W12662   5.255  20.564   2.206
40937W        W12663  16.359  43.889  12.057
40938W        W12664  36.038  43.260  11.054
40939W        W12665  12.165  23.894  11.048
40940W        W12666  34.234   8.885  11.965
40941W        W12667  12.116   8.173   3.768
40942W        W12668  26.720   4.288   1.129
40943W        W12669  30.996  36.984   4.356
40944W        W12670  38.422  40.683   3.278
40945W        W12671   7.647  29.161  13.868
40946W        W12672   5.401  27.956  13.448
40947W        W12673   3.206  16.265   4.536
40948W        W12674  11.718  12.957  13.367
40949W        W12675  22.089   0.048  13.450
40950W        W12676  30.711  14.333   1.368
40951W        W12677  28.672  36.705  14.420
40952W        W12678  39.584  24.073   3.231
40953W        W12679   8.841   7.192  11.928
40954W        W12680   4.760  44.244   0.345
40955W        W12681   0.812  41.405  13.627
40956W        W12682   4.784  11.487  10.735
40957W        W12683  35.505   7.204  12.470
40958W        W12684  31.509  27.531   2.688
40959W        W12685  25.627  22.565   0.934
40960W        W12686  23.834  13.087  11.841
40961W        W12687  24.964  33.083  14.729
40962W        W12688  43.467  10.876   1.832
40963W        W12689   8.853   3.184   1.415
40964W        W12690  14.496  14.031  12.082
40965W        W12691   1.979   9.443  14.927
40966W        W12692   3.769  40.797   3.884
40967W        W12693  21.951  37.366   4.302
40968W        W12694   0.468  35.398  12.397
40969W        W12695  11.309  43.366  14.399
40970W        W12696  13.872  21.232  11.490
40971W        W12697   2.376   9.112  10.704
40972W        W12698  37.419   3.831   0.260
40973W        W12699   3.433  43.270  11.618
40974W        W12700  43.536  13.666  13.901
40975W        W12701  29.716  38.788   4.145
40976W        W12702  18.741   8.358   0.399
40977W        W12703  37.150  37.762  12.197
40978W        W12704   9.648  10.344  10.235
40979W        W12705  24.909  33.432   4.287
40980W        W12706   4.521  35.995  14.513
40981W        W12707  22.909  23.100  11.129
40982W        W12708  42.578  30.589  11.957
40983W        W12709  27.759   6.188   3.612
40984W        W12710  41.063  41.262  12.192
40985W        W12711  13.098   9.218   2.286
40986W        W12712  37.574   9.398   2.218
40987W        W12713  44.492   3.430   0.704
40988W        W12714   4.687   2.702   3.599
40989W        W12715   5.530   0.905  11.884
40990W        W12716  43.941  35.435  12.323
40991W        W12717   4.363  17.399   3.255
40992W        W12718  31.946  39.373  14.979
40993W        W12719  24.306  43.749  10.903
40994W        W12720   7.147  20.783   0.907
40995W        W12721  27.398  34.010  12.075
40996W        W12722  17.046  38.417  14.495
40997W        W12723   0.935  26.538   4.692
40998W        W12724  41.461  32.070  14.476
40999W        W12725  19.069   0.774  12.990
41000W        W12726  35.549  22.132   0.917
41001W        W12727  40.449  28.324  11.646
41002W        W12728  25.739   7.300   1.385
41003W        W12729   7.647  28.842   4.204
41004W        W12730   1.772  17.758   4.331
41005W        W12731   1.684  41.368   4.162
41006W        W12732   7.017  32.570  12.851
41007W        W12733   5.193  19.163  14.857
41008W        W12734   2.928  13.624   4.000
41009W        W12735  24.034  22.025  11.988
41010W        W12736   1.990  41.844   1.267
41011W        W12737  10.351  25.391  12.511
41012W        W12738  36.908  32.266   0.033
41013W        W12739  11.219  37.295   5.040
41014W        W12740  12.614  23.743  14.919
41015W        W12741   7.864  18.123   2.247
41016W        W12742   2.755  16.160  13.896
41017W        W12743  43.391  41.331  12.314
41018W        W12744  13.084  31.434  12.993
41019W        W12745  40.374   5.815  11.530
41020W        W12746   0.173  21.029  12.080
41021W        W12747  13.834  39.230   2.379
41022W        W12748   0.071  38.861  13.023
41023W        W12749   7.537  37.910  12.474
41024W        W12750  20.246   1.871  12.558
41025W        W12751  19.219  18.565  13.385
41026W        W12752  29.486  13.885   1.733
41027W        W12753  34.484  41.072   0.043
41028W        W12754  43.009  44.556   3.578
41029W        W12755  15.774  31.919  12.016
41030W        W12756  30.892  39.058   1.342
41031W        W12757   7.824  23.256   2.350
41032W        W12758  40.829   9.500   2.532
41033W        W12759  38.960  33.939  14.848
41034W        W12760  32.528  39.718   1.165
41035W        W12761  35.140  33.652   4.597
41036W        W12762  41.475  14.417  12.394
41037W        W12763  29.910  33.531  12.490
41038W        W12764   7.948  28.197   1.822
41039W        W12765  42.293  25.075  14.842
41040W        W12766  19.859  17.530  14.487
41041W        W12767  21.381   9.373  14.976
41042W        W12768  30.826   5.806  13.570
41043W        W12769   3.796  34.923   2.367
41044W        W12770   5.785  10.634   0.345
41045W        W12771  10.208  18.824  13.007
41046W        W12772  18.186  33.838  12.354
41047W        W12773  35.568  38.505  14.844
41048W        W12774  35.185   8.398   4.035
41049W        W12775   8.130  16.600  13.606
41050W        W12776  27.630  12.501   4.081
41051W        W12777   3.681  44.845   3.627
41052W        W12778  32.426  35.647  10.693
41053W        W12779  14.022  13.307   0.409
41054W        W12780  41.965   0.433  12.936
41055W        W12781  21.471  35.957   3.645
41056W        W12782  34.761  16.157   3.749
41057W        W12783  10.067  16.069  11.271
41058W        W12784   6.344  43.789   3.095
41059W        W12785  43.224  28.443   3.174
41060W        W12786  28.331  36.949   3.609
41061W        W12787   6.237  16.206   9.564
41062W        W12788  35.817  29.398   2.631
41063W        W12789  29.909  22.129   0.352
41064W        W12790  20.937  37.086  13.547
41065W        W12791  11.105  10.103  13.893
41066W        W12792  10.834  34.851  10.653
41067W        W12793  42.481  12.597   3.781
41068W        W12794  11.862  18.873   9.871
41069W        W12795  29.120  22.848   1.864
41070W        W12796   1.848  15.701   1.028
41071W        W12797   0.043   6.306   4.943
41072W        W12798   8.134  14.322   4.685
41073W        W12799  44.538  42.410  12.036
41074W        W12800   0.975  19.760   4.207
41075W        W12801   4.271  23.038  14.056
41076W        W12802  41.600  14.335   2.674
41077W        W12803  21.617  22.983   0.818
41078W        W12804  13.287  35.845  13.968
41079W        W12805  42.521   8.243   2.351
41080W        W12806  13.245  32.689   4.190
41081W        W12807  41.406  25.140  12.990
41082W        W12808  33.921  34.322   2.318
41083W        W12809  28.457  35.102  11.637
41084W        W12810  17.103  42.883   3.795
41085W        W12811  38.350  11.227  10.984
41086W        W12812  13.657  28.449   1.632
41087W        W12813  36.557   9.578  13.286
41088W        W12814  15.767  34.789   3.776
41089W        W12815  16.465  35.960   1.720
41090W        W12816   2.739  12.233   1.885
41091W        W12817  33.883   0.200  11.331
41092W        W12818  28.810  13.170  12.834
41093W        W12819  29.409  37.355   0.791
41094W        W12820  44.258  22.388   1.831
41095W        W12821  25.228  23.180  14.432
41096W        W12822  43.262  15.203  13.431
41097W        W12823  35.270  40.796   3.090
41098W        W12824  35.400  16.077   3.140
41099W        W12825  12.298  39.542   2.122
41100W        W12826  38.365  44.795  13.543
41101W        W12827  35.542  13.105  14.372
41102W        W12828   8.452  10.766  13.056
41103W        W12829  26.741  33.381   0.533
41104W        W12830  13.660  14.029  10.716
41105W        W12831   6.199  23.962   2.545
41106W        W12832  39.535  38.528  13.393
41107W        W12833  18.690   0.955  12.176
41108W        W12834  41.480  10.886  12.094
41109W        W12835  30.431  34.354   4.355
41110W        W12836  21.024  38.423   1.475
41111W        W12837  32.998   3.369  14.025
41112W        W12838  40.792  42.958  14.920
41113W        W12839  13.145  17.691  11.905
41114W        W12840  44.730  35.870   0.953
41115W        W12841  33.399  23.062   3.695
41116W        W12842  23.982  44.407  11.011
41117W        W12843  43.469  13.691   2.388
41118W        W12844  42.664   5.799  13.477
41119W        W12845  15.878   9.288  11.336
41120W        W12846  42.022   8.814   4.240
41121W        W12847  37.096  30.061   0.372
41122W        W12848  11.014   3.185  14.532
41123W        W12849  41.971  35.013   3.268
41124W        W12850  23.697   8.181  11.262
41125W        W12851  35.513   8.206   3.149
41126W        W12852   2.787  42.984  13.052
41127W        W12853  44.455  40.568  10.484
41128W        W12854  41.366   4.695  14.509
41129W        W12855  31.979  28.036   0.153
41130W        W12856  26.469  24.443  14.079
41131W        W12857   4.131  40.048  13.934
41132W        W12858  15.785  40.024  13.550
41133W        W12859  20.651  42.393   3.459
41134W        W12860   1.552  39.911   1.308
41135W        W12861  21.328  21.122   4.048
41136W        W12862  31.434  44.563   2.813
41137W        W12863  26.472  42.528  14.508
41138W        W12864  13.800  30.556  10.725
41139W        W12865  11.250   0.069  11.101
41140W        W12866   3.020   5.396  11.722
41141W        W12867  12.627  32.568   0.967
41142W        W12868   1.515  40.559  13.962
41143W        W12869  13.805  20.769  11.067
41144W        W12870   1.247   6.400   2.004
41145W        W12871  39.946   6.714  11.882
41146W        W12872  24.039  41.805  11.541
41147W        W12873  12.117   2.004  11.160
41148W        W12874  39.355  26.499  14.483
41149W        W12875  15.501   2.072   4.934
41150W        W12876   8.328  32.590  11.546
41151W        W12877  23.542  44.715   5.013
41152W        W12878  10.836  13.646   4.249
41153W        W12879  21.647  24.948  11.970
41154W        W12880   8.518  35.150   2.577
41155W        W12881   0.802  42.236   2.724
41156W        W12882   3.837   0.381  14.861
41157W        W12883   1.762  22.181  13.934
41158W        W12884  21.362  23.561   2.800
41159W        W12885  26.441  18.236  11.983
41160W        W12886  22.500  25.151  14.286
41161W        W12887  41.150  17.288  12.512
41162W        W12888  30.984  12.700   0.788
41163W        W12889  43.564  21.003  13.761
41164W        W12890  12.771  31.114   3.418
41165W        W12891  29.639   5.464   0.860
41166W        W12892  15.917   5.692   4.978
41167W        W12893  34.143   7.845   1.269
41168W        W12894   6.235   3.767   5.524
41169W        W12895   0.430  25.817  14.200
41170W        W12896   4.748  17.080   3.098
41171W        W12897  15.282  16.769  14.273
41172W        W12898  28.333  12.797   5.093
41173W        W12899  39.496  12.153   1.231
41174W        W12900  43.795  16.848  11.874
41175W        W12901  18.708  38.814   0.462
41176W        W12902   2.002  40.484  12.814
41177W        W12903  28.852  22.984  13.871
41178W        W12904   5.949  12.794   1.914
41179W        W12905  35.861  30.437   1.795
41180W        W12906  36.646  26.568  14.333
41181W        W12907  19.763  15.584  13.812
41182W        W12908  31.095  17.620   3.649
41183W        W12909  10.258  18.348  12.727
41184W        W12910  41.877  12.565   3.106
41185W        W12911  14.169  31.428  11.646
41186W        W12912  28.401  26.490  10.986
41187W        W12913   3.677   8.805   2.301
41188W        W12914  34.741   1.950  13.286
41189W        W12915  25.770  29.158  12.032
41190W        W12916   8.173   4.212  11.601
41191W        W12917  31.091  24.964   0.054
41192W        W12918   5.242  37.748   1.042
41193W        W12919  24.660  40.352  10.986
41194W        W12920  23.524  16.107   0.839
41195W        W12921  36.477  16.647   3.174
41196W        W12922  30.753  40.405   3.167
41197W        W12923  37.726   1.411   4.284
41198W        W12924  28.983  21.502  12.864
41199W        W12925  39.520  10.825   0.413
41200W        W12926  42.202  30.189  13.892
41201W        W12927   5.268  26.653  14.765
41202W        W12928  13.418  31.282   3.748
41203W        W12929   4.888  42.282  12.103
41204W        W12930  43.789  13.098  13.474
41205W        W12931   7.441  24.093  12.095
41206W        W12932  22.686  15.469  12.474
41207W        W12933  31.849  36.543  13.146
41208W        W12934  39.984  21.026   0.428
41209W        W12935  20.588  11.831   2.145
41210W        W12936  35.567  16.725   1.392
41211W        W12937  31.647  43.231  11.551
41212W        W12938  20.173  12.029   4.619
41213W        W12939  19.047  28.955  14.184
41214W        W12940  39.835  37.381  14.860
41215W        W12941  39.340   4.751  10.590
41216W        W12942  37.066   2.797  12.363
41217W        W12943   5.766  29.902   4.569
41218W        W12944   2.862  31.681   0.959
41219W        W12945  18.398  28.171   4.838
41220W        W12946  30.886  42.492   1.940
41221W        W12947   3.774  17.085  12.872
41222W        W12948  33.353  16.870   0.808
41223W        W12949  31.215  28.061   3.320
41224W        W12950  31.627   7.415   2.347
41225W        W12951  19.090  13.718  12.636
41226W        W12952   0.800   6.296   4.562
41227W        W12953   2.699  44.900   0.863
41228W        W12954  14.284  41.069   0.501
41229W        W12955  38.432  13.044  11.681
41230W        W12956  26.517   4.737  12.034
41231W        W12957   1.978  16.815  11.682
41232W        W12958  25.563   4.495   2.184
41233W        W12959  39.064  34.985  11.280
41234W        W12960   7.716  40.551   3.200
41235W        W12961  11.794  29.242  13.794
41236W        W12962   0.887   1.403   2.839
41237W        W12963   1.645  40.365   0.312
41238W        W12964   8.413  33.005   4.649
41239W        W12965  12.063  27.509   1.612
41240W        W12966  12.085  38.906   1.914
41241W        W12967   1.032  21.646   2.355
41242W        W12968  22.534   7.119   4.705
41243W        W12969  37.764  29.473  12.032
41244W        W12970  16.507  28.302  14.001
41245W        W12971  44.336  22.484   4.197
41246W        W12972   2.721  23.537  13.875
41247W        W12973  10.806   2.325   4.243
41248W        W12974   8.409  23.674   4.616
41249W        W12975  19.039  29.127   2.825
41250W        W12976  37.896   4.226   4.366
41251W        W12977   2.527  28.114   4.687
41252W        W12978  16.892   5.269   3.665
41253W        W12979  22.554  43.503  11.974
41254W        W12980  44.318   3.929   0.734
41255W        W12981  30.400  14.874   3.242
41256W        W12982  35.952  38.338   3.929
41257W        W12983  17.607   3.269  13.451
41258W        W12984  18.447  10.134  12.679
41259W        W12985   6.428  15.793  14.972
41260W        W12986  32.681   9.381   1.162
41261W        W12987  16.086  29.575  12.365
41262W        W12988  27.029   0.221   2.854
41263W        W12989  12.857  26.708   3.954
41264W        W12990   8.894  31.133   1.247
41265W        W12991  35.892  39.555   3.363
41266W        W12992  41.810  28.405  13.879
41267W        W12993   1.369  10.339  13.433
41268W        W12994  39.860  15.758  11.160
41269W        W12995  23.231  24.101   2.736
41270W        W12996  22.577  23.966   4.101
41271W        W12997  38.437  15.494  12.127
41272W        W12998  12.240  11.993  12.600
41273W        W12999  12.688   6.116  10.436
41274W        W13000  44.938  11.888  13.809
41275W        W13001  41.440  34.128  11.909
41276W        W13002  37.473   8.293   1.514
41277W        W13003  16.003  16.359  12.991
41278W        W13004  40.874  31.851  11.934
41279W        W13005  38.331  36.087   4.158
41280W        W13006   8.947  37.998  10.442
41281W        W13007  25.017  40.588  12.468
41282W        W13008  35.790  42.792   1.210
41283W        W13009  35.914   4.254   3.704
41284W        W13010  34.106  33.521  11.463
41285W        W13011  23.335  19.639   4.170
41286W        W13012  23.006  30.495   3.037
41287W        W13013  16.693  18.336  13.122
41288W        W13014  36.964  41.441   2.765
41289W        W13015  44.265  32.396   3.890
41290W        W13016  38.495  32.607   4.280
41291W        W13017  40.685  31.650  11.088
41292W        W13018   1.385   4.749   2.493
41293W        W13019  21.183  39.799   3.258
41294W        W13020  32.915  29.620  13.446
41295W        W13021   7.378  21.220  10.599
41296W        W13022  18.553  32.218  13.486
41297W        W13023  43.812  29.157   1.204
41298W        W13024  22.297  16.542   4.141
41299W        W13025   5.137   1.550  11.112
41300W        W13026   6.674  26.248   3.223
41301W        W13027  44.349   7.269  13.003
41302W        W13028   2.049  22.370   0.266
41303W        W13029  15.231   2.726   3.172
41304W        W13030  35.347  11.333   4.550
41305W        W13031   8.465  43.881   0.872
41306W        W13032  14.551  10.254  10.435
41307W        W13033   4.917   0.236  10.196
41308W        W13034  27.731  34.186   0.705
41309W        W13035  33.892  32.681  12.998
41310W        W13036  10.324  39.449   2.179
41311W        W13037  19.485  16.678   4.485
41312W        W13038  36.598  21.260   0.483
41313W        W13039  35.640  19.334  12.076
41314W        W13040   2.825   6.467  11.980
41315W        W13041  39.974  32.938  12.160
41316W        W13042  14.736  35.846   2.188
41317W        W13043  44.798  41.450   4.179
41318W        W13044   8.614  44.473   4.965
41319W        W13045  28.188   5.291   3.299
41320W        W13046  37.295   1.184  14.926
41321W        W13047  12.991   5.474   4.111
41322W        W13048  35.830  14.225  13.316
41323W        W13049   6.045   9.932   2.350
41324W        W13050  29.238  29.196   0.705
41325W        W13051   7.101   0.455   3.373
41326W        W13052  14.370  11.097   1.288
41327W        W13053  18.048  43.512   0.417
41328W        W13054  24.191   9.240  14.786
41329W        W13055   1.469  19.167   3.586
41330W        W13056  15.143  28.368  12.977
41331W        W13057  16.580  27.876   4.177
41332W        W13058  33.161  17.571   2.245
41333W        W13059  35.412  42.327   1.764
41334W        W13060  18.684  30.772   3.053
41335W        W13061  32.804  35.077   3.887
41336W        W13062   4.753  22.893  14.255
41337W        W13063   8.492  11.708   2.197
41338W        W13064  29.509   8.613  11.061
41339W        W13065   0.361  35.033  13.249
41340W        W13066  37.488  42.756  10.720
41341W        W13067  10.738  36.043  11.541
41342W        W13068  12.825  12.417   0.460
41343W        W13069  39.479  27.022  13.343
41344W        W13070  27.405  30.904  13.055
41345W        W13071  28.041  34.404   2.755
41346W        W13072  37.497  18.613   4.609
41347W        W13073  20.098  11.822   5.082
41348W        W13074  18.835  16.484   3.592
41349W        W13075   2.632  26.529   3.310
41350W        W13076  33.306   5.659   0.300
41351W        W13077  12.429   3.256   0.957
41352W        W13078  43.149   5.687   4.438
41353W        W13079  21.181  26.239  12.536
41354W        W13080  10.648  30.642  14.842
41355W        W13081  42.782  29.836   0.317
41356W        W13082  10.917  41.506  12.943
41357W        W13083  43.524  41.823  11.106
41358W        W13084  28.232  23.519  12.537
41359W        W13085  19.571   0.932   3.666
41360W        W13086  25.997  43.422   0.005
41361W        W13087   8.624   2.579   0.718
41362W        W13088  34.959   6.837   0.905
41363W        W13089  32.421   3.460   1.413
41364W        W13090   5.788  21.678  13.891
41365W        W13091  26.262  29.936   4.159
41366W        W13092  38.556  16.675  13.649
41367W        W13093  39.080  26.016  13.804
41368W        W13094   3.770  43.719   1.863
41369W        W13095  39.419  38.473   4.530
41370W        W13096  31.818  32.482   3.351
41371W        W13097  27.069  24.106   0.213
41372W        W13098   3.209   8.753   3.261
41373W        W13099  18.196  16.322  13.409
41374W        W13100  39.588  32.182  14.789
41375W        W13101  36.589  17.267   1.692
41376W        W13102   3.959  25.669   0.356
41377W        W13103  41.412  12.378  10.792
41378W        W13104  29.782  42.481  13.339
41379W        W13105  26.940  41.255  10.723
41380W        W13106   3.862  26.442  10.259
41381W        W13107  33.606  23.415  10.227
41382W        W13108  30.622  21.656   4.117
41383W        W13109   8.591  42.938   4.546
41384W        W13110   0.515  21.685   2.286
41385W        W13111  13.238  39.980  11.044
41386W        W13112  30.894  11.103   2.194
41387W        W13113  21.681   3.473  11.053
41388W        W13114  19.616   7.317  10.630
41389W        W13115  41.260  29.393   0.284
41390W        W13116   5.383  17.383  12.399
41391W        W13117  14.842  38.257   1.359
41392W        W13118  35.629  13.618  13.870
41393W        W13119  32.433  21.143  13.488
41394W        W13120   7.672  26.087   0.771
41395W        W13121  26.020  28.894  12.394
41396W        W13122  18.252   0.444  14.716
41397W        W13123  34.134  17.850   4.418
41398W        W13124  24.008  16.675   0.349
41399W        W13125  10.907   3.450   2.745
41400W        W13126  24.123  25.998  12.980
41401W        W13127  38.303  23.686   4.093
41402W        W13128   4.217   1.206  14.401
41403W        W13129  12.079  18.549  10.684
41404W        W13130  37.450  20.513   4.650
41405W        W13131  37.464  10.064  10.985
41406W        W13132  19.480  22.535  12.558
41407W        W13133  25.475  26.690  12.097
41408W        W13134  27.772  16.810   0.002
41409W        W13135  27.784  21.827  11.536
41410W        W13136   5.276  30.933   4.375
41411W        W13137  29.492  10.262  12.614
41412W        W13138  27.599   2.754  11.731
41413W        W13139  40.940  15.988  13.014
41414W        W13140  24.010  23.738   2.650
41415W        W13141   6.576  38.004   2.873
41416W        W13142  30.012   3.037   1.443
41417W        W13143  35.774  15.149  12.988
41418W        W13144   6.197  41.416   0.106
41419W        W13145   5.309  31.912  10.840
41420W        W13146  17.179   6.190  11.654
41421W        W13147  44.283   9.399   4.923
41422W        W13148  42.801   8.490   2.737
41423W        W13149  33.062  32.587   1.408
41424W        W13150  19.630  33.238   3.369
41425W        W13151  11.026  26.814  11.683
41426W        W13152  24.108  27.969   2.002
41427W        W13153   2.140  37.818  12.018
41428W        W13154   5.651   9.348   1.244
41429W        W13155  30.087  42.792  10.714
41430W        W13156  29.169  18.099  13.493
41431W        W13157  10.804  43.078   0.370
41432W        W13158  14.241  34.119  12.069
41433W        W13159   7.913  24.585  10.555
41434W        W13160  44.948   0.856   3.605
41435W        W13161  13.636  36.762  13.472
41436W        W13162  30.595   1.116   3.242
41437W        W13163  34.341  37.765  11.260
41438W        W13164  11.397   2.749  11.585
41439W        W13165  21.625   8.232   1.428
41440W        W13166  16.875  14.248  10.723
41441W        W13167  42.295  15.281   0.389
41442W        W13168   3.506   2.390  10.945
41443W        W13169  42.255  37.841  11.478
41444W        W13170   7.207  18.527   3.170
41445W        W13171  33.746  30.162  10.735
41446W        W13172  15.180   0.886  12.382
41447W        W13173  37.023  17.675   2.588
41448W        W13174  21.012  21.818   1.889
41449W        W13175   4.835  43.244   2.724
41450W        W13176  15.124   2.666   3.683
41451W        W13177  20.239  27.747   4.818
41452W        W13178  36.445   3.360  12.332
41453W        W13179   7.954   9.140  12.191
41454W        W13180   7.351   2.416  10.674
41455W        W13181   2.696   5.914  12.513
41456W        W13182  28.592  30.970   0.818
41457W        W13183  34.441   5.768  12.805
41458W        W13184  16.076  17.755  10.533
41459W        W13185  25.570  31.614  10.411
41460W        W13186  26.114  33.669   3.705
41461W        W13187  38.559   0.552  14.787
41462W        W13188  31.074  11.969   4.060
41463W        W13189  40.081  16.375  11.159
41464W        W13190   0.997  12.802  11.568
41465W        W13191  40.927  39.471  14.584
41466W        W13192  24.738  32.199  11.122
41467W        W13193  33.738  12.488  12.020
41468W        W13194  21.525  18.461   4.421
41469W        W13195  40.400  30.782   4.984
41470W        W13196  18.193  41.504   3.189
41471W        W13197   2.450  40.222  14.720
41472W        W13198  26.417  23.775  12.485
41473W        W13199  15.837  44.124   9.790
41474W        W13200   3.225  29.630  12.220
41475W        W13201  27.959  27.139   1.005
41476W        W13202   2.582  37.952  12.823
41477W        W13203  22.748  40.564  12.143
41478W        W13204  27.563  37.699  10.423
41479W        W13205  16.861  32.885  11.559
41480W        W13206  16.239  43.291   2.745
41481W        W13207  25.985  28.532  11.057
41482W        W13208  14.606  37.774   1.330
41483W        W13209  10.163  12.412   1.712
41484W        W13210  41.506  16.181   0.245
41485W        W13211  33.951  10.759   3.637
41486W        W13212  21.640   9.703  14.693
41487W        W13213  18.111  42.666   0.135
41488W        W13214  32.146  19.986  10.773
41489W        W13215  25.625   9.624   1.548
41490W        W13216   3.634  44.831  12.420
41491W        W13217  29.026  30.238  13.531
41492W        W13218  18.546  31.838  11.237
41493W        W13219  38.540  16.768  14.987
41494W        W13220  31.589  22.172   2.805
41495W        W13221   1.669  39.721   3.989
41496W        W13222   0.797  42.190  14.480
41497W        W13223  27.619   1.190  13.412
41498W        W13224  43.101  22.714   3.117
41499W        W13225  27.616  20.062  14.440
41500W        W13226  41.876  30.873  12.916
41501W        W13227   3.328   9.311  12.733
41502W        W13228  26.668   0.828  10.397
41503W        W13229  11.762   9.331   4.336
41504W        W13230   0.955  17.005   3.249
41505W        W13231  37.361   0.286   2.741
41506W        W13232  21.587  17.002  11.159
41507W        W13233  44.708  12.699  14.460
41508W        W13234  34.134   5.898   1.687
41509W        W13235  22.188  44.325   3.880
41510W        W13236  23.555   4.900   2.183
41511W        W13237  14.337  20.656   0.427
41512W        W13238  34.835   4.653   1.847
41513W        W13239  32.472   8.654  14.951
41514W        W13240  28.994   9.385  12.436
41515W        W13241  21.275   3.485   2.855
41516W        W13242  13.211  17.324   1.822
41517W        W13243  35.912  44.733   0.934
41518W        W13244  37.914  32.953  14.943
41519W        W13245   3.472  35.954   2.851
41520W        W13246  31.073   6.033   4.638
41521W        W13247  37.819  19.827   4.309
41522W        W13248  34.833  32.388   3.160
41523W        W13249  14.516  41.788  12.029
41524W        W13250   7.890  13.191   3.615
41525W        W13251  12.204   8.021   0.775
41526W        W13252  32.054  12.041  13.330
41527W        W13253  18.578   0.868   0.532
41528W        W13254   3.874  12.665  12.126
41529W        W13255  16.880   3.987  11.100
41530W        W13256  28.690  21.322   4.153
41531W        W13257  29.251  24.599   3.301
41532W        W13258  33.734  27.157   1.225
41533W        W13259  22.030   0.280  12.964
41534W        W13260   5.452   8.417  11.672
41535W        W13261  25.659   5.752   3.267
41536W        W13262   3.539  42.319  12.506
41537W        W13263  12.145  33.497   0.926
41538W        W13264  36.098  28.926  14.952
41539W        W13265   8.214  29.984  10.423
41540W        W13266  26.954  44.355   3.164
41541W        W13267  36.877  16.816   1.770
41542W        W13268  11.597  23.917   3.847
41543W        W13269  14.342  19.650  14.102
41544W        W13270   1.755  13.725   4.134
41545W        W13271   2.356   0.360  11.579
41546W        W13272  24.628  27.655  13.285
41547W        W13273  36.928  36.781  11.533
41548W        W13274  35.190  42.554  11.999
41549W        W13275   0.435   3.121   3.716
41550W        W13276   1.159   8.462  11.039
41551W        W13277  19.212   8.617   0.912
41552W        W13278  29.401  33.921  14.944
41553W        W13279  17.310  12.265   2.475
41554W        W13280  29.781  25.451   2.224
41555W        W13281  30.197   2.737   1.849
41556W        W13282  35.432  40.097  13.439
41557W        W13283  40.161  22.523   2.853
41558W        W13284  38.124  23.560   1.604
41559W        W13285   0.206  44.405  14.993
41560W        W13286   5.342   8.379   0.507
41561W        W13287  21.268  17.733  14.787
41562W        W13288  33.864  31.701  10.435
41563W        W13289  33.343  11.679   3.197
41564W        W13290  30.980   5.897   1.303
41565W        W13291  37.762  16.069  14.232
41566W        W13292   8.089  29.009   4.437
41567W        W13293  40.983  18.247  14.514
41568W        W13294  19.040  26.932   2.338
41569W        W13295  17.258   3.923  13.771
41570W        W13296  32.537  13.403  12.102
41571W        W13297  32.582  36.362  12.023
41572W        W13298   9.233  19.145   1.755
41573W        W13299   1.264  16.243   1.495
41574W        W13300  31.981  25.688   4.602
41575W        W13301  33.901   4.954   0.819
41576W        W13302  26.478  29.821  12.138
41577W        W13303  17.989  12.512  13.603
41578W        W13304  15.375  21.564   1.231
41579W        W13305  17.151  15.634   0.695
41580W        W13306  13.915  39.730   3.254
41581W        W13307  39.535  30.103  11.140
41582W        W13308  10.590   6.952   1.788
41583W        W13309  37.902  29.911  11.158
41584W        W13310   8.138  27.701   3.338
41585W        W13311  26.094   9.659  12.435
41586W        W13312  26.907  33.854   2.261
41587W        W13313   8.760  24.187  14.470
41588W        W13314  33.146  12.590  14.927
41589W        W13315   5.320  16.595   4.508
41590W        W13316   9.481   4.161  13.924
41591W        W13317  34.295   3.067  10.833
41592W        W13318   4.939  16.900   5.428
41593W        W13319  21.689   4.937   2.682
41594W        W13320  38.001  43.447  14.876
41595W        W13321   0.309  31.873   4.502
41596W        W13322  26.582  33.375  14.203
41597W        W13323  39.581  17.055  14.556
41598W        W13324  25.554   5.247   3.157
41599W        W13325  14.234  41.099  11.070
41600W        W13326  13.816  29.398  13.461
41601W        W13327   4.476  12.828   3.056
41602W        W13328  12.189  32.059  10.988
41603W        W13329   6.698  18.876   5.009
41604W        W13330  44.723  18.551   1.308
41605W        W13331  26.830   7.639   4.411
41606W        W13332   1.413   9.732   3.709
41607W        W13333  16.685   3.306  11.454
41608W        W13334  31.674  41.217   9.887
41609W        W13335  24.962  43.475  11.592
41610W        W13336   3.887  21.697   1.330
41611W        W13337   2.302   6.847   0.295
41612W        W13338  19.805  13.154  14.952
41613W        W13339  30.874  37.372  11.541
41614W        W13340  42.902  20.556  14.762
41615W        W13341  18.148   8.861   2.239
41616W        W13342  23.027   6.801  14.943
41617W        W13343  25.086  25.647   1.213
41618W        W13344  18.311  12.758   4.067
41619W        W13345  40.795  28.797   3.169
41620W        W13346   9.697  22.686  14.804
41621W        W13347  33.051  43.334  10.548
41622W        W13348  31.627  44.991   4.719
41623W        W13349  27.925  17.655   3.057
41624W        W13350  36.186  35.025  13.974
41625W        W13351  11.676  19.786   0.294
41626W        W13352  17.600  14.118   3.906
41627W        W13353  19.322  14.611  11.155
41628W        W13354  29.539   8.340  11.521
41629W        W13355  26.680  11.310  12.458
41630W        W13356  18.248  39.044   0.364
41631W        W13357  29.425  35.871  13.900
41632W        W13358  34.942  20.182   3.230
41633W        W13359  22.249  25.298   4.143
41634W        W13360   0.682  23.171  11.653
41635W        W13361  16.595  37.559  11.231
41636W        W13362   4.811  10.581  11.171
41637W        W13363  11.915  44.036   0.068
41638W        W13364  35.317  42.775   3.350
41639W        W13365  13.678   3.370   1.138
41640W        W13366  25.379  32.131   4.170
41641W        W13367   0.779  32.266   1.608
41642W        W13368  28.034  32.607  14.019
41643W        W13369  32.963  19.138  12.395
41644W        W13370  40.129  31.299   1.771
41645W        W13371  14.481  38.490   0.252
41646W        W13372  18.070  44.238  13.271
41647W        W13373  10.359  32.548   1.239
41648W        W13374  13.843  42.927  13.447
41649W        W13375   4.976  33.557   3.303
41650W        W13376  21.166   3.739  14.241
41651W        W13377  18.059  42.703   0.701
41652W        W13378  38.898  39.988  11.113
41653W        W13379  28.719  34.584  14.337
41654W        W13380  23.070  24.203  11.720
41655W        W13381  27.024  29.931  10.670
41656W        W13382  24.518  11.162   3.420
41657W        W13383  33.699   2.195  14.674
41658W        W13384  14.563  18.263   3.225
41659W        W13385  43.368  22.624   4.927
41660W        W13386  20.246   5.663   1.178
41661W        W13387  40.806  28.342  14.051
41662W        W13388  23.051  27.087  12.027
41663W        W13389   4.980  30.023  12.871
41664W        W13390  12.752  28.422   1.795
41665W        W13391  11.772   3.999  11.240
41666W        W13392  37.564  10.647  12.319
41667W        W13393  40.431  43.694  12.947
41668W        W13394  41.310  33.714  12.206
41669W        W13395   9.836  22.067  14.554
41670W        W13396  10.320  34.354  13.968
41671W        W13397   9.069  11.365   3.394
41672W        W13398  18.861  35.143  14.594
41673W        W13399   9.233  42.469  14.283
41674W        W13400  38.290  26.478  13.068
41675W        W13401  18.559  25.654   0.416
41676W        W13402  41.249  27.666   4.359
41677W        W13403   9.557  24.030   3.705
41678W        W13404  24.627   4.928   4.739
41679W        W13405  21.223  41.304   2.349
41680W        W13406  37.221   4.726  13.393
41681W        W13407  12.677  26.510  11.144
41682W        W13408  24.445  17.865  11.892
41683W        W13409  23.250  19.753   2.266
41684W        W13410  26.747  29.457  14.315
41685W        W13411  19.606   1.733   3.250
41686W        W13412  28.048  16.817  11.168
41687W        W13413  24.259  33.867  13.413
41688W        W13414  30.032  14.679  14.528
41689W        W13415  22.461  30.625  12.053
41690W        W13416  15.673  12.920   3.586
41691W        W13417  24.932  26.454  14.014
41692W        W13418  35.261   2.942  10.663
41693W        W13419  38.013  21.211   4.573
41694W        W13420  30.362  15.589  14.248
41695W        W13421   8.751   0.269   1.653
41696W        W13422  21.513  32.741   1.877
41697W        W13423  10.567  10.836   1.365
41698W        W13424  10.356   5.368  14.905
41699W        W13425   6.338   7.418  14.347
41700W        W13426  10.302  22.722   4.639
41701W        W13427  17.710  36.653   4.431
41702W        W13428   1.188  32.100   0.845
41703W        W13429   9.821  33.750  11.480
41704W        W13430   7.837  33.688  14.833
41705W        W13431  25.728   4.508  13.905
41706W        W13432  21.942   7.740   2.807
41707W        W13433  30.556  15.793   1.756
41708W        W13434  10.817  27.168  13.291
41709W        W13435  16.923   0.197   3.750
41710W        W13436  15.067  37.670  12.978
41711W        W13437   7.227  31.499  14.619
41712W        W13438  23.671  10.517   1.587
41713W        W13439   8.287  38.594   1.660
41714W        W13440   5.949  23.063   2.560
41715W        W13441   1.092  22.012  13.022
41716W        W13442   6.691   6.990   0.707
41717W        W13443  17.656  21.514  10.545
41718W        W13444  24.662  44.687  13.352
41719W        W13445  44.249  24.761   1.731
41720W        W13446   3.978  37.117  13.863
41721W        W13447  28.185  12.813  13.370
41722W        W13448   0.783  14.228  10.723
41723W        W13449   5.892  14.831   0.781
41724W        W13450  41.022  22.036  11.276
41725W        W13451  13.548  41.919  13.879
41726W        W13452  27.143  39.329  12.497
41727W        W13453   1.719  39.829  11.348
41728W        W13454   0.333  20.002   0.215
41729W        W13455  25.004  30.889  12.863
41730W        W13456  34.144  40.624  11.075
41731W        W13457  28.589  40.017   2.174
41732W        W13458  16.177  10.195  12.553
41733W        W13459  18.104  35.967   4.737
41734W        W13460  36.537  14.654   3.453
41735W        W13461  18.036   6.710  12.089
41736W        W13462  39.498  28.911   1.199
41737W        W13463  24.929  26.740  11.098
41738W        W13464  31.566  35.063  10.680
41739W        W13465  34.618  19.476   1.005
41740W        W13466  35.613  21.756   0.565
41741W        W13467  15.648  22.238   0.884
41742W        W13468  29.352  33.875   2.353
41743W        W13469  15.368   3.861   0.372
41744W        W13470  33.984  12.826  10.801
41745W        W13471  37.781  13.812  14.315
41746W        W13472  10.518  10.836  10.564
41747W        W13473  28.238  22.446   5.174
41748W        W13474  34.142  27.621   1.985
41749W        W13475  11.549  21.720   4.283
41750W        W13476  10.117  39.495  14.443
41751W        W13477   9.580  44.430   1.273
41752W        W13478  19.728  38.964  10.717
41753W        W13479  17.677   1.079   2.740
41754W        W13480  17.856   1.982  14.907
41755W        W13481   5.773  38.987  12.118
41756W        W13482  30.678  29.668  13.581
41757W        W13483  14.623  43.401   0.261
41758W        W13484  31.596  39.588   0.737
41759W        W13485   8.828   2.544   2.168
41760W        W13486  19.068  34.482   2.125
41761W        W13487  21.269  17.368   0.894
41762W        W13488  34.028  10.918   4.120
41763W        W13489  35.392  24.849  10.447
41764W        W13490   9.305  15.522  14.835
41765W        W13491   5.447  42.001  14.555
41766W        W13492  24.827  37.092   1.273
41767W        W13493   7.792  10.808   3.263
41768W        W13494  44.552   2.915   3.123
41769W        W13495  39.482  28.294   3.218
41770W        W13496   8.249   8.413  14.450
41771W        W13497   5.802  26.599  14.778
41772W        W13498  37.068  38.782   1.001
41773W        W13499  36.542  36.453   0.256
41774W        W13500   1.499  36.383  12.484
41775W        W13501  38.651  41.018   2.675
41776W        W13502  20.157  39.664   3.867
41777W        W13503   1.301  43.598  12.860
41778W        W13504   8.923   0.611  10.947
41779W        W13505  11.479  30.780  13.054
41780W        W13506  42.291   3.940  11.575
41781W        W13507  26.253  15.751  12.018
41782W        W13508   3.521   6.871   3.717
41783W        W13509   8.059  18.127  11.200
41784W        W13510  10.394   5.991  13.285
41785W        W13511  22.503  33.434   1.821
41786W        W13512  33.010  13.086   3.757
41787W        W13513  18.121   2.811   4.271
41788W        W13514  23.019   0.530  10.087
41789W        W13515  18.539  32.652   1.392
41790W        W13516  35.948  32.343   0.291
41791W        W13517  27.105  25.212  13.902
41792W        W13518  22.746  13.321  10.753
41793W        W13519  38.486  18.343   2.318
41794W        W13520  33.517   3.250  13.311
41795W        W13521  26.585   7.802   0.909
41796W        W13522  18.764  34.940  12.447
41797W        W13523  23.714   9.144  11.169
41798W        W13524  38.981  30.096   1.220
41799W        W13525  39.046  40.565   4.242
41800W        W13526  21.845   0.217   2.910
41801W        W13527  36.558  26.072  12.151
41802W        W13528  31.594  19.271   4.178
41803W        W13529  33.638  36.050   3.443
41804W        W13530  36.041  32.594  12.561
41805W        W13531   1.001  31.051   0.876
41806W        W13532   0.581   2.349  13.081
41807W        W13533   8.855  36.900  11.451
41808W        W13534  16.159  37.756  10.170
41809W        W13535  42.225   5.774  14.916
41810W        W13536  22.282  11.306   1.295
41811W        W13537   3.387   7.901  12.922
41812W        W13538  37.902  41.526  10.705
41813W        W13539  11.848  29.587  10.592
41814W        W13540  24.015  12.854   0.793
41815W        W13541  28.165  17.622  12.872
41816W        W13542  13.740  10.211   4.624
41817W        W13543  36.822  39.539   4.639
41818W        W13544  26.480   2.223  11.168
41819W        W13545  41.536  10.458  11.757
41820W        W13546  39.774  21.068  14.957
41821W        W13547  20.203  12.870  13.349
41822W        W13548  36.913  21.564   4.025
41823W        W13549   1.579  25.612   0.971
41824W        W13550  17.147  30.028  11.447
41825W        W13551  34.943   7.817   2.755
41826W        W13552  11.341  28.956   2.574
41827W        W13553  17.603  35.080   1.857
41828W        W13554  15.246  17.530   1.958
41829W        W13555  25.610  14.794  14.759
41830W        W13556  43.813  13.294   3.136
41831W        W13557  24.930   2.746  11.847
41832W        W13558  13.203  41.541  13.991
41833W        W13559  23.655  17.169  14.792
41834W        W13560  44.137  26.172  13.589
41835W        W13561  18.358  24.568   4.622
41836W        W13562  21.007  11.363  10.728
41837W        W13563  38.178  34.488   1.809
41838W        W13564  23.562  16.377   0.375
41839W        W13565  28.424   0.167  13.369
41840W        W13566  13.781  18.485   0.345
41841W        W13567  37.675   1.807   3.568
41842W        W13568   7.825  13.832   2.796
41843W        W13569  19.054  33.555   0.723
41844W        W13570   5.143  36.909   2.357
41845W        W13571  30.548  26.895  13.956
41846W        W13572  11.232  37.191  13.995
41847W        W13573   5.471  16.248   1.271
41848W        W13574   6.257  19.495   1.907
41849W        W13575  41.118   7.317   3.242
41850W        W13576  43.457   7.566   4.207
41851W        W13577  40.058   9.696   3.697
41852W        W13578  43.966   4.436   4.070
41853W        W13579  11.553  17.495  12.557
41854W        W13580   1.277   4.488  12.726
41855W        W13581  30.422  37.391   2.895
41856W        W13582  37.601  12.654  14.910
41857W        W13583  33.192  18.161   0.828
41858W        W13584  27.077  27.828   4.499
41859W        W13585  41.987  15.154   1.265
41860W        W13586  22.104  27.440  10.143
41861W        W13587  34.480  13.051  11.637
41862W        W13588  26.185  31.462   1.264
41863W        W13589  31.986  39.337  10.343
41864W        W13590  16.123  40.424   3.054
41865W        W13591  42.966   5.875  10.687
41866W        W13592  21.774   6.919   1.800
41867W        W13593  26.383  35.216  13.165
41868W        W13594  29.780  24.224  10.530
41869W        W13595   0.377  35.876  11.007
41870W        W13596  42.842   1.747  14.278
41871W        W13597  36.860  25.445   3.564
41872W        W13598  14.874  12.637   0.803
41873W        W13599  37.573  30.613   4.362
41874W        W13600  19.168  34.981   4.557
41875W        W13601  41.439  10.327   3.297
41876W        W13602  38.482  23.689  13.293
41877W        W13603  21.967  38.502  14.799
41878W        W13604  36.934  30.539   0.379
41879W        W13605  20.093   8.973  11.101
41880W        W13606  23.186  32.932   4.302
41881W        W13607  27.775  37.457  14.417
41882W        W13608   8.760   1.914   2.613
41883W        W13609   9.417  25.833   3.729
41884W        W13610   3.930   1.288  10.695
41885W        W13611  42.118  32.672  14.717
41886W        W13612  33.299  19.734  10.575
41887W        W13613  12.080   5.642  10.981
41888W        W13614  43.533  25.047   0.700
41889W        W13615  21.418   4.806   4.123
41890W        W13616   4.161   5.308   2.240
41891W        W13617   5.513  36.318  13.414
41892W        W13618  43.769   5.262  10.522
41893W        W13619  20.887  42.839  14.916
41894W        W13620   0.940  37.382   1.943
41895W        W13621  20.888  16.213   3.420
41896W        W13622   2.495  32.995  12.355
41897W        W13623  23.684  37.840  10.997
41898W        W13624  29.911  44.916   3.553
41899W        W13625  38.462  32.381   2.895
41900W        W13626   4.619  39.250   3.056
41901W        W13627  28.375   1.211  11.136
41902W        W13628  15.249  25.753  12.079
41903W        W13629  11.665   4.019   1.843
41904W        W13630  37.122  40.035  12.425
41905W        W13631  34.779  33.616   4.985
41906W        W13632  18.029  16.153   2.223
41907W        W13633  14.288  14.194   2.220
41908W        W13634  16.132   7.517   2.246
41909W        W13635  35.521  27.086   3.205
41910W        W13636  35.005  18.678  14.272
41911W        W13637  22.043  17.047  14.735
41912W        W13638  28.505   9.373   4.151
41913W        W13639  27.940  41.588   4.425
41914W        W13640  16.817  35.988  12.429
41915W        W13641   8.209  21.963   3.711
41916W        W13642  36.477   8.169   0.328
41917W        W13643  41.041  43.896   4.622
41918W        W13644  15.129   7.955  12.659
41919W        W13645  27.459  33.941   3.734
41920W        W13646  23.570  13.133   0.703
41921W        W13647   2.271  11.798   9.867
41922W        W13648   3.084   8.084   0.422
41923W        W13649  21.012   2.000   2.381
41924W        W13650   6.626  17.822  10.383
41925W        W13651  16.132  20.844  14.811
41926W        W13652  21.659   6.700  11.375
41927W        W13653  29.009   1.480  11.914
41928W        W13654   1.686  14.168   2.968
41929W        W13655   5.405  22.232   1.237
41930W        W13656   5.705  43.698  12.051
41931W        W13657  40.303  20.130  14.220
41932W        W13658  42.925  19.264   2.384
41933W        W13659   0.875  36.136   0.288
41934W        W13660   6.004  35.450   0.439
41935W        W13661   2.052  44.920   1.655
41936W        W13662  17.470  41.709   2.216
41937W        W13663  28.330  30.068  11.920
41938W        W13664  39.331  30.101  10.677
41939W        W13665  41.365   0.006   0.376
41940W        W13666  42.029   1.488  14.817
41941W        W13667  28.880   9.177   1.166
41942W        W13668  24.549  14.913   2.594
41943W        W13669  23.644  23.952  12.433
41944W        W13670  13.884  28.070  12.613
41945W        W13671  15.052  31.883   2.646
41946W        W13672  15.021  31.084  13.189
41947W        W13673  29.860   0.335   3.846
41948W        W13674  40.088   8.246  14.882
41949W        W13675  42.442  42.969   4.252
41950W        W13676  28.748  39.898  14.359
41951W        W13677  10.096  25.691   2.523
41952W        W13678  16.181  27.489   0.396
41953W        W13679  37.524  15.107  13.280
41954W        W13680  32.124  11.297  10.193
41955W        W13681  29.783  36.012   1.126
41956W        W13682  14.223   0.549  12.383
41957W        W13683  28.658  14.639   3.162
41958W        W13684  32.104  41.802  11.073
41959W        W13685   6.544  17.523   4.638
41960W        W13686  20.868   2.663  12.580
41961W        W13687  13.863  13.367  13.001
41962W        W13688  25.296  38.405  13.108
41963W        W13689  41.844  41.881   2.682
41964W        W13690   1.163  10.889  12.433
41965W        W13691  37.417  44.974  11.839
41966W        W13692  15.181   7.176  10.913
41967W        W13693  15.339   2.225   1.658
41968W        W13694  34.590  13.527  12.626
41969W        W13695  27.977  11.678  13.723
41970W        W13696  22.519  38.058  12.513
41971W        W13697  34.427  14.954  14.338
41972W        W13698  33.916  38.798  11.649
41973W        W13699  22.099  19.645   5.006
41974W        W13700  23.098  14.620   1.258
41975W        W13701  33.014   6.842  14.481
41976W        W13702   3.837  14.431  10.667
41977W        W13703  35.544  38.423   2.213
41978W        W13704  20.466  14.576   5.005
41979W        W13705   9.937  42.402  14.890
41980W        W13706  42.477   3.749  13.879
41981W        W13707   4.943  22.254  14.992
41982W        W13708   2.214  13.860  14.812
41983W        W13709  19.095  35.983   2.993
41984W        W13710  33.386  22.757   2.669
41985W        W13711  27.181  20.200   1.350
41986W        W13712  20.261  29.881  14.839
41987W        W13713   7.390  20.744   3.248
41988W        W13714  37.555  38.101   4.030
41989W        W13715   2.370  16.583   1.232
41990W        W13716  40.142  23.360   0.812
41991W        W13717  33.580  42.059   0.410
41992W        W13718  21.172  12.092   4.246
41993W        W13719  30.991   6.229  10.717
41994W        W13720   2.782   8.202   2.547
41995W        W13721  12.049   7.753  11.191
41996W        W13722  40.386  29.235   4.970
41997W        W13723   0.258  39.066  14.595
41998W        W13724  28.843  15.370  14.573
41999W        W13725  16.302  42.668  11.608
42000W        W13726   4.268   0.652  14.337
42001W        W13727   2.292   8.838   1.127
42002W        W13728  37.383  18.661   4.100
42003W        W13729  30.894   3.310  14.263
42004W        W13730   9.645   1.113  14.849
42005W        W13731  21.960  18.845  13.721
42006W        W13732   9.302  42.716  14.743
42007W        W13733   3.506   1.916  11.660
42008W        W13734  40.772  39.032   0.343
42009W        W13735  30.567  23.824  13.120
42010W        W13736  17.256  43.157   5.054
42011W        W13737  35.287  28.334  11.250
42012W        W13738   5.216   0.430  11.817
42013W        W13739  16.712   4.724   2.469
42014W        W13740  16.874  38.472   1.397
42015W        W13741  43.039  14.369  11.711
42016W        W13742  22.953  34.590  11.202
42017W        W13743  12.939  42.812   1.569
42018W        W13744  20.325  42.814   4.750
42019W        W13745   0.684   7.216   5.101
42020W        W13746  25.616  44.932  14.390
42021W        W13747  35.129   8.861  14.059
42022W        W13748   2.890  30.690  12.613
42023W        W13749  13.305  28.474  12.162
42024W        W13750  35.143  21.674  10.758
42025W        W13751  32.198  24.445  10.696
42026W        W13752  36.263  29.931   3.766
42027W        W13753  18.078  28.008  10.574
42028W        W13754  31.822  33.714   3.657
42029W        W13755  22.472  16.285  13.022
42030W        W13756  13.584   5.446  10.434
42031W        W13757  10.794   3.152  14.034
42032W        W13758   8.431  43.238  11.125
42033W        W13759  36.351  23.088  12.448
42034W        W13760  33.823  20.165   1.251
42035W        W13761  22.293  32.475  13.639
42036W        W13762  17.092   3.855   2.829
42037W        W13763  43.237  10.154   3.229
42038W        W13764  21.187   7.735   1.020
42039W        W13765  13.770  19.792  12.333
42040W        W13766  16.067  39.507   3.358
42041W        W13767  20.274  40.559  12.700
42042W        W13768  42.802  25.539   3.893
42043W        W13769  40.461  22.467  12.934
42044W        W13770  20.951   4.613   4.177
42045W        W13771  37.365   2.326   3.349
42046W        W13772  33.819   3.814  14.393
42047W        W13773  13.698  38.407  13.998
42048W        W13774  18.648  42.967  11.667
42049W        W13775   5.435   8.281   3.754
42050W        W13776  18.654  10.264  10.741
42051W        W13777  31.363  17.427   0.444
42052W        W13778  21.013  31.542  13.308
42053W        W13779  39.998  40.828   4.028
42054W        W13780  10.964   4.632  12.531
42055W        W13781  12.891  37.769   1.846
42056W        W13782   3.428  12.087   0.848
42057W        W13783  41.049  36.817   2.741
42058W        W13784  33.915  18.819   4.245
42059W        W13785   4.087   8.203   3.491
42060W        W13786  23.220  35.098  14.950
42061W        W13787  22.201  28.470  10.989
42062W        W13788  21.539  39.485  11.800
42063W        W13789  16.526  30.995   3.835
42064W        W13790  43.967   6.174  14.940
42065W        W13791  24.931  40.862  12.904
42066W        W13792   1.201  43.262  11.539
42067W        W13793   5.133  23.955  14.062
42068W        W13794  32.409  44.427  10.608
42069W        W13795   0.990   2.500   1.862
42070W        W13796  37.307  32.912   2.194
42071W        W13797   0.553   4.722  14.740
42072W        W13798  28.279   0.842   1.950
42073W        W13799  23.313   7.820  12.967
42074W        W13800  44.002   9.092  12.514
42075W        W13801  13.407  43.960  14.391
42076W        W13802   1.364  26.571   2.925
42077W        W13803  32.615  23.570  13.995
42078W        W13804   2.819   6.150   0.425
42079W        W13805  35.015  10.557   5.094
42080W        W13806  12.099  35.400   2.796
42081W        W13807  35.173  20.467  14.904
42082W        W13808  24.657   5.843   4.646
42083W        W13809  25.936  25.333  10.958
42084W        W13810  27.379   7.182   2.758
42085W        W13811  28.657   1.272  14.567
42086W        W13812  30.735   5.772  14.453
42087W        W13813  40.863  44.961  11.515
42088W        W13814  36.090  22.204   0.947
42089W        W13815   8.400  15.295   2.704
42090W        W13816  22.997  26.421  10.711
42091W        W13817  40.912  44.519  14.890
42092W        W13818  28.688  17.507  13.939
42093W        W13819   2.285   6.192  10.298
42094W        W13820  17.203   7.423   2.670
42095W        W13821  19.216  32.338  10.620
42096W        W13822  26.572   8.901  12.357
42097W        W13823  12.257   1.464  11.261
42098W        W13824  33.332   2.455   4.399
42099W        W13825  20.956  17.626  11.053
42100W        W13826   8.971  35.651   1.229
42101W        W13827  10.280   8.217  12.567
42102W        W13828  32.777   7.826  14.472
42103W        W13829  21.679   4.367   4.201
42104W        W13830  26.051  24.221   4.728
42105W        W13831  40.611  23.593  12.650
42106W        W13832   9.488  25.719   9.842
42107W        W13833   0.341  38.489   3.246
42108W        W13834  18.111  27.612  14.702
42109W        W13835   9.722  13.811  12.410
42110W        W13836  43.314  41.461   0.794
42111W        W13837  40.742  15.058  14.744
42112W        W13838  40.907  36.112  10.968
42113W        W13839  44.794  44.323   0.986
42114W        W13840  34.961  34.883  14.431
42115W        W13841  19.183  14.591  10.650
42116W        W13842  33.536  40.131  12.454
42117W        W13843  25.906   2.983  12.028
42118W        W13844  43.798  25.660   3.385
42119W        W13845   8.521  29.058   4.114
42120W        W13846  38.570  40.798   4.239
42121W        W13847  21.560  10.448  14.626
42122W        W13848  34.571  24.028   3.216
42123W        W13849  43.824  39.373   3.563
42124W        W13850  26.086  43.911  14.344
42125W        W13851  16.772  36.861  13.980
42126W        W13852   7.253  42.443   1.272
42127W        W13853   2.136  37.367   1.484
42128W        W13854  20.780   6.968  12.538
42129W        W13855  30.541  39.892   1.438
42130W        W13856  10.861  28.479  11.374
42131W        W13857  16.339   6.840   1.774
42132W        W13858  38.349  11.598   2.268
42133W        W13859   2.940   4.870   4.636
42134W        W13860  36.021  38.302  14.910
42135W        W13861  26.181  10.339  11.635
42136W        W13862  23.076  33.468   3.429
42137W        W13863  31.387  44.322  10.590
42138W        W13864   8.391  22.946   4.328
42139W        W13865   9.801  19.574   2.256
42140W        W13866  15.432   2.865   0.393
42141W        W13867  40.257  41.676  11.093
42142W        W13868  19.009  11.346   0.564
42143W        W13869  22.225  43.368   3.402
42144W        W13870  29.714  16.066   1.377
42145W        W13871   1.942  36.322   3.157
42146W        W13872  34.020  22.272   3.321
42147W        W13873  44.220  41.019   1.743
42148W        W13874   9.628  38.155  13.002
42149W        W13875  39.307  44.248  14.305
42150W        W13876  23.839  12.601   0.294
42151W        W13877  22.977   0.719   1.350
42152W        W13878  34.619  10.316   0.896
42153W        W13879  23.858   6.656   3.981
42154W        W13880  18.778  22.608  11.301
42155W        W13881  14.400  37.174  12.317
42156W        W13882   5.745   0.412  13.057
42157W        W13883  35.887   8.812   3.841
42158W        W13884   5.946  33.589   2.361
42159W        W13885  21.711  31.537  13.849
42160W        W13886  10.721  41.856  11.143
42161W        W13887  34.007  29.415  14.260
42162W        W13888  35.419  34.932  12.652
42163W        W13889  42.943   1.959   0.758
42164W        W13890  22.166  39.592  12.523
42165W        W13891  33.744   6.946   4.134
42166W        W13892  41.008  37.520   4.535
42167W        W13893  41.574  34.999  12.424
42168W        W13894   4.089  30.612  12.784
42169W        W13895  42.415  17.278  11.041
42170W        W13896   5.253  29.460  14.513
42171W        W13897  39.825  14.111  14.849
42172W        W13898  28.772  24.234  13.482
42173W        W13899  10.350  11.812   2.311
42174W        W13900  25.557   5.029   2.129
42175W        W13901   6.729  40.967  14.262
42176W        W13902  38.548  13.882  13.880
42177W        W13903  43.449  42.471  12.354
42178W        W13904   2.637   0.580  11.216
42179W        W13905   1.556  10.198   4.172
42180W        W13906  18.398  26.982   3.938
42181W        W13907   5.641  44.273   3.920
42182W        W13908  11.068  16.138  11.945
42183W        W13909  19.595  20.198   2.853
42184W        W13910  26.598   8.212   2.241
42185W        W13911  32.421  38.758  12.806
42186W        W13912  30.157  37.038  12.351
42187W        W13913   0.132  16.827  11.163
42188W        W13914  26.031  35.175  11.400
42189W        W13915  32.661  20.864  10.785
42190W        W13916  37.630  40.567  14.655
42191W        W13917  18.168  35.110   2.334
42192W        W13918   6.698  15.899   2.934
42193W        W13919  30.950   5.667   4.312
42194W        W13920  14.212  37.149   4.173
42195W        W13921  29.390  33.383  13.711
42196W        W13922   9.141  25.472   1.786
42197W        W13923   5.022  38.447   1.680
42198W        W13924  19.291  42.803   3.125
42199W        W13925  15.768  26.564   1.156
42200W        W13926  17.353  11.685  12.350
42201W        W13927  34.075  42.313  14.439
42202W        W13928  18.836  36.913  14.479
42203W        W13929  28.324  32.939  10.807
42204W        W13930  31.858  27.016   1.712
42205W        W13931   5.297  34.010   0.441
42206W        W13932  27.884   9.158  12.209
42207W        W13933  32.517  31.603   1.907
42208W        W13934  14.626  13.316   4.824
42209W        W13935   1.131  34.987   1.184
42210W        W13936  20.435  43.344   1.847
42211W        W13937   3.318  32.648  13.304
42212W        W13938  12.728  19.146   1.887
42213W        W13939  12.861   8.273  14.615
42214W        W13940  11.736  33.863   0.373
42215W        W13941  21.979  44.745  10.679
42216W        W13942  11.950  18.978   1.468
42217W        W13943   0.544  33.009   1.959
42218W        W13944  26.731  43.573  13.542
42219W        W13945  22.940  10.328   3.933
42220W        W13946  29.545  13.230  13.576
42221W        W13947  32.135  21.647   4.236
42222W        W13948   8.543  42.465  13.242
42223W        W13949  37.543  28.283  14.421
42224W        W13950  21.079  25.426  13.194
42225W        W13951   9.546  28.941  13.494
42226W        W13952  26.181  27.749  14.639
42227W        W13953  17.344  15.316  12.967
42228W        W13954  30.651  35.624  13.768
42229W        W13955   6.896  35.536  14.042
42230W        W13956  35.143   2.455  13.415
42231W        W13957  19.734  33.387   2.213
42232W        W13958  11.801  33.589  14.062
42233W        W13959  13.185  14.005   3.229
42234W        W13960  22.632  18.510   0.508
42235W        W13961  26.047   5.759   4.238
42236W        W13962  12.509  23.699  10.722
42237W        W13963  39.964  34.678   0.482
42238W        W13964  41.824  33.159  12.635
42239W        W13965  24.552  30.556  10.943
42240W        W13966  27.747   3.899   3.434
42241W        W13967  36.008   3.151  11.025
42242W        W13968  27.194  18.765   3.429
42243W        W13969   8.206   8.356   0.739
42244W        W13970   0.996   9.088   5.056
42245W        W13971  15.800  40.948   0.864
42246W        W13972  31.325  43.752  10.689
42247W        W13973  35.901  38.648   0.319
42248W        W13974  30.700  23.152   3.598
42249W        W13975   7.353   8.734  11.920
42250W        W13976  43.039  22.248   1.281
42251W        W13977   2.352  12.715  13.546
42252W        W13978  25.661  21.748  14.020
42253W        W13979   8.315   7.923  11.930
42254W        W13980   2.827  20.801   3.249
42255W        W13981  12.489  35.719  12.938
42256W        W13982  43.331  33.161  14.266
42257W        W13983   8.228  28.157   3.118
42258W        W13984  18.695  24.332  13.967
42259W        W13985  23.142  35.075  13.331
42260W        W13986  18.754  32.540   1.866
42261W        W13987  10.079  13.600   0.363
42262W        W13988  17.053   1.357   2.541
42263W        W13989   4.195  35.902   4.164
42264W        W13990   1.215  31.562   0.802
42265W        W13991  10.730   8.077   2.681
42266W        W13992  36.248  28.279   4.888
42267W        W13993  33.701  15.873  13.428
42268W        W13994  18.139  42.931  11.477
42269W        W13995  43.985   7.752   2.328
42270W        W13996  12.341  31.690   0.323
42271W        W13997  13.142  10.283  11.087
42272W        W13998   3.349  41.058   3.612
42273W        W13999  42.421  39.560   4.554
42274W        W14000  14.841  42.292  14.919
42275W        W14001  26.267  44.454  12.537
42276W        W14002   8.145  34.350  13.557
42277W        W14003  10.683  42.602   2.338
42278W        W14004  43.013  33.915   2.068
42279W        W14005   7.302  43.004  11.553
42280W        W14006   9.877  13.650  13.967
42281W        W14007  36.610  20.908  10.824
42282W        W14008  44.581  18.674   2.669
42283W        W14009  33.208  40.899  13.994
42284W        W14010  41.622  27.681   0.165
42285W        W14011   0.362  20.470   4.249
42286W        W14012  12.222  11.507  10.670
42287W        W14013  23.806  13.327   2.685
42288W        W14014  40.374  42.479  12.487
42289W        W14015  10.185  26.158  10.881
42290W        W14016  23.500  13.747  14.852
42291W        W14017  22.163  11.060   0.852
42292W        W14018  19.591  12.438  12.465
42293W        W14019  38.665  26.760  11.438
42294W        W14020  32.119   7.436  14.915
42295W        W14021   2.642   6.508   2.909
42296W        W14022  42.831  27.799   1.823
42297W        W14023   2.347   2.133   0.459
42298W        W14024  23.594  38.874   4.712
42299W        W14025  26.491  23.559   0.907
42300W        W14026  28.485  27.127   1.099
42301W        W14027   4.231  31.695  13.479
42302W        W14028  12.523  30.050   0.561
42303W        W14029  36.017  19.332  13.864
42304W        W14030  38.580  26.484  12.633
42305W        W14031  11.321  41.993   3.360
42306W        W14032  22.159   7.946   3.758
42307W        W14033  43.821   3.813  11.532
42308W        W14034   6.007  16.163   1.264
42309W        W14035  15.770   6.038  13.103
42310W        W14036  11.373  23.682  10.110
42311W        W14037  28.857  43.209   2.769
42312W        W14038   6.404  33.100  13.103
42313W        W14039  31.823   4.767  10.951
42314W        W14040  31.928  32.533  10.608
42315W        W14041  20.239  22.550  13.749
42316W        W14042  37.727  28.369  11.107
42317W        W14043  22.532  31.076   2.523
42318W        W14044  26.533  39.054  13.086
42319W        W14045  37.377  38.118   0.638
42320W        W14046  41.067  26.827  12.498
42321W        W14047   6.878  32.143   3.478
42322W        W14048  32.875  26.312  12.916
42323W        W14049   9.798  24.189   4.996
42324W        W14050  32.487  16.145  12.537
42325W        W14051  14.349  18.002   0.809
42326W        W14052   3.473  34.611   4.647
42327W        W14053  24.588  39.183   2.000
42328W        W14054  24.428  32.588   4.790
42329W        W14055   5.330   1.081  11.040
42330W        W14056  41.848  27.464   2.781
42331W        W14057   9.325  19.878  12.462
42332W        W14058   0.407   6.484  12.505
42333W        W14059   8.191  19.861  13.305
42334W        W14060  38.755   4.495   0.262
42335W        W14061  17.565  11.327   3.203
42336W        W14062  31.485  44.329   4.106
42337W        W14063  28.633  44.554   2.324
42338W        W14064  14.322  14.613  13.944
42339W        W14065  13.355   7.042  12.908
42340W        W14066  24.157  41.746   1.310
42341W        W14067   9.934  23.404  14.236
42342W        W14068  38.460  14.086  14.554
42343W        W14069   9.716   2.844  10.747
42344W        W14070  31.452  42.757  11.586
42345W        W14071  15.456  34.963   2.866
42346W        W14072  12.381   2.768  11.611
42347W        W14073  39.824  38.296  11.269
42348W        W14074   4.246   7.363   1.288
42349W        W14075  37.375   2.879   2.216
42350W        W14076  23.510  42.101  13.412
42351W        W14077  21.389   2.811   1.205
42352W        W14078  39.064  21.663   3.156
42353W        W14079  42.869   4.376  14.465
42354W        W14080  13.404   4.890  11.970
42355W        W14081   6.891  41.236  13.054
42356W        W14082  22.957  21.999   3.596
42357W        W14083  12.236  28.050  12.531
42358W        W14084  25.369  26.133   4.526
42359W        W14085  26.551   6.684   3.176
42360W        W14086  10.137   7.141   1.447
42361W        W14087  21.492  15.826   0.340
42362W        W14088  18.990  38.800  13.104
42363W        W14089  43.965  10.117   2.756
42364W        W14090  39.244  34.842  10.768
42365W        W14091  13.620  14.877  12.327
42366W        W14092  30.341   3.346  14.889
42367W        W14093  31.615   1.924  13.993
42368W        W14094  15.128   0.500   3.558
42369W        W14095  32.573  12.220  10.403
42370W        W14096  35.440  21.114  12.423
42371W        W14097   7.460  35.801   0.294
42372W        W14098  29.550  17.749  11.067
42373W        W14099  44.729  30.562  13.449
42374W        W14100  22.075  30.428   1.718
42375W        W14101  41.204   1.433   1.230
42376W        W14102  43.567  27.631   1.232
42377W        W14103  35.060  15.664  14.484
42378W        W14104  26.669   4.264   0.580
42379W        W14105  16.619  14.289   0.471
42380W        W14106  24.197  28.485  13.852
42381W        W14107   5.665  29.761   0.765
42382W        W14108  43.815  31.983  12.520
42383W        W14109   8.818   5.891  13.303
42384W        W14110   5.949  15.764   3.420
42385W        W14111   4.654  17.599  11.872
42386W        W14112  31.606  29.440   3.751
42387W        W14113  11.369   8.122   1.793
42388W        W14114  39.501   5.445   0.203
42389W        W14115  27.077  37.066   1.820
42390W        W14116  39.843  10.954   3.679
42391W        W14117  11.925  21.188  14.332
42392W        W14118  10.539  16.826   4.979
42393W        W14119   6.340  21.073   4.152
42394W        W14120  37.369  21.792  12.901
42395W        W14121  14.080  35.564   3.020
42396W        W14122   7.022  44.888  10.466
42397W        W14123   6.960  10.788  11.498
42398W        W14124   4.111  26.263  14.468
42399W        W14125  39.023  18.169  14.624
42400W        W14126  15.393   2.215  13.223
42401W        W14127   3.692  41.481  12.275
42402W        W14128   1.148   3.466  11.188
42403W        W14129  38.991  10.194  13.147
42404W        W14130   5.669  22.212   3.055
42405W        W14131  37.874  13.146   4.751
42406W        W14132  24.037   2.992   4.183
42407W        W14133  14.629   3.807   1.928
42408W        W14134   6.645   7.323   1.155
42409W        W14135   6.368   7.685   5.060
42410W        W14136  19.998  44.869   0.286
42411W        W14137  21.808  32.046  11.983
42412W        W14138  23.244  34.255   0.409
42413W        W14139  22.293  44.373   2.712
42414W        W14140  12.123  11.383   0.495
42415W        W14141  12.265  35.953   4.220
42416W        W14142  25.838  28.381   0.474
42417W        W14143  36.852   4.537   1.347
42418W        W14144  41.931  32.585  13.417
42419W        W14145  34.535  43.787   3.636
42420W        W14146  19.577  36.973   2.746
42421W        W14147  26.692  41.046   0.691
42422W        W14148  28.166  19.296  13.198
42423W        W14149   6.788  44.979   2.862
42424W        W14150  15.576  20.640  12.386
42425W        W14151  25.909  36.669   0.738
42426W        W14152  29.428  26.437   5.031
42427W        W14153   9.407   7.509   0.680
42428W        W14154  44.450  35.472  14.652
42429W        W14155  21.459  26.149   0.332
42430W        W14156   5.494  15.149   4.165
42431W        W14157  41.388   6.380   4.194
42432W        W14158  22.223   7.883  13.404
42433W        W14159  36.564  41.310   1.017
42434W        W14160   8.793   9.755   2.510
42435W        W14161  23.708  20.765  11.624
42436W        W14162  26.640  31.915  12.941
42437W        W14163  29.915  15.347  11.167
42438W        W14164  43.079  15.687  13.370
42439W        W14165   9.362  14.502   4.953
42440W        W14166   3.683  24.813  11.559
42441W        W14167  25.606  37.288   0.198
42442W        W14168  10.540  40.061  14.888
42443W        W14169  11.145  43.728   4.047
42444W        W14170   3.279  22.163   1.154
42445W        W14171   8.691  20.083   4.641
42446W        W14172  23.947  21.761   1.718
42447W        W14173  10.590  16.305  12.468
42448W        W14174  34.525  21.125   0.045
42449W        W14175  28.696  18.074  11.156
42450W        W14176  11.699  21.220   3.334
42451W        W14177  43.733   2.825   3.636
42452W        W14178  22.001  19.186  12.015
42453W        W14179  26.879   7.625  11.517
42454W        W14180   7.295   9.820  12.901
42455W        W14181   3.943   6.538   0.453
42456W        W14182  21.041  11.079   3.981
42457W        W14183  33.903  14.398  10.813
42458W        W14184  40.615  27.857   3.626
42459W        W14185  24.490  13.162  14.388
42460W        W14186   2.716  29.711  11.625
42461W        W14187  39.915  33.826  12.611
42462W        W14188   9.505  34.642   3.348
42463W        W14189   2.286  10.181   2.702
42464W        W14190  24.190  13.027  14.884
42465W        W14191  12.013  26.635   0.794
42466W        W14192  23.478  31.052   2.845
42467W        W14193  12.130  36.482   1.338
42468W        W14194  19.824   6.784   1.437
42469W        W14195  32.590  13.835   3.430
42470W        W14196   9.534  36.435  13.951
42471W        W14197  28.458  12.109   3.835
42472W        W14198  41.270  22.480  11.285
42473W        W14199  16.147  10.542   3.764
42474W        W14200  30.980  41.575  12.640
42475W        W14201   8.769   4.187   1.544
42476W        W14202  39.441  17.231   4.645
42477W        W14203  10.628  30.511  12.519
42478W        W14204   3.980  38.893  13.515
42479W        W14205  31.199  39.975  11.549
42480W        W14206  44.436  27.863   3.530
42481W        W14207  13.537  43.308   1.824
42482W        W14208  17.688  16.176  13.328
42483W        W14209  25.740  10.670   1.433
42484W        W14210  12.747   2.827  13.984
42485W        W14211  12.670   3.874  12.977
42486W        W14212  31.374  23.234   4.570
42487W        W14213  13.343  32.491  14.135
42488W        W14214  10.610  43.986   2.561
42489W        W14215  43.429  17.215   0.502
42490W        W14216  24.249   9.955   1.036
42491W        W14217  15.333  16.608  10.417
42492W        W14218  16.327  36.434   4.726
42493W        W14219  13.845  11.612   0.804
42494W        W14220   8.679  44.683  12.663
42495W        W14221   7.382  25.130  11.958
42496W        W14222   6.647  32.580  11.061
42497W        W14223  34.106  10.316   3.423
42498W        W14224  39.836  28.457  13.542
42499W        W14225  34.295  16.923  12.724
42500W        W14226  35.864  44.021  10.703
42501W        W14227  15.148   4.670   1.806
42502W        W14228   9.459  42.061   4.152
42503W        W14229  40.539   1.829  12.002
42504W        W14230  13.979   3.894  11.617
42505W        W14231   3.737   6.803   4.973
42506W        W14232  26.745   2.109  12.789
42507W        W14233  43.763   1.026   3.201
42508W        W14234  17.630   9.620  14.085
42509W        W14235  31.084   0.830  12.359
42510W        W14236  35.728  18.163  11.458
42511W        W14237  14.212  40.027  11.082
42512W        W14238  28.458   9.784  11.936
42513W        W14239  34.543  12.753   4.726
42514W        W14240   0.291  31.849   2.751
42515W        W14241  12.927  32.332  13.816
42516W        W14242  35.863  15.360  12.509
42517W        W14243  24.819  14.477   5.135
42518W        W14244  27.663  18.074  13.457
42519W        W14245  22.040  43.341  14.033
42520W        W14246  15.828  38.274   1.446
42521W        W14247  16.162  25.986   0.397
42522W        W14248  39.345  22.570  12.695
42523W        W14249  20.699  28.146   4.099
42524W        W14250  40.458  12.509   2.788
42525W        W14251  24.647  16.991  14.431
42526W        W14252  17.616  23.725  14.337
42527W        W14253  34.563  16.525  13.931
42528W        W14254  27.606  22.616   3.680
42529W        W14255   2.790  33.696   0.443
42530W        W14256   6.653  16.650   2.426
42531W        W14257   7.294   5.099  11.139
42532W        W14258  17.317   1.870   0.792
42533W        W14259  44.415   2.370   4.149
42534W        W14260  37.064  11.134  13.847
42535W        W14261   2.538  10.316  11.107
42536W        W14262  16.324  44.917  14.525
42537W        W14263   7.327  41.064  13.429
42538W        W14264  36.308  38.487   2.697
42539W        W14265  21.638  12.733   1.843
42540W        W14266  36.008   5.751   0.923
42541W        W14267  37.215  11.493   4.561
42542W        W14268  16.278  40.776  10.251
42543W        W14269   3.187  31.894  11.885
42544W        W14270  44.582   2.360  11.460
42545W        W14271   1.253  34.005  14.914
42546W        W14272  29.016   2.399  12.888
42547W        W14273  28.715  10.701   4.573
42548W        W14274   7.766  30.427   2.382
42549W        W14275  33.415  43.908  14.394
42550W        W14276  10.630  30.409   0.898
42551W        W14277   4.716  39.478  11.023
42552W        W14278  19.999  40.832   1.426
42553W        W14279   4.706  21.620   0.931
42554W        W14280  42.933  36.431  10.753
42555W        W14281  14.657   3.834  14.778
42556W        W14282  33.309  40.004  10.672
42557W        W14283  19.142   8.821   4.355
42558W        W14284  24.513   7.208   3.676
42559W        W14285  14.605  42.771  11.981
42560W        W14286   9.118  19.895   3.803
42561W        W14287   3.467  12.702   2.814
42562W        W14288  28.069  41.731   1.789
42563W        W14289  31.401  14.063  14.237
42564W        W14290   9.346   6.157  12.440
42565W        W14291  16.631  28.393   4.163
42566W        W14292  13.286  35.120   1.805
42567W        W14293  20.620  33.230  12.828
42568W        W14294  44.066  40.222   0.922
42569W        W14295  28.635  28.740  13.897
42570W        W14296  18.211  41.471   3.723
42571W        W14297  16.271  23.714  11.975
42572W        W14298  24.035  39.414  13.895
42573W        W14299   8.385   8.751  14.062
42574W        W14300  23.499  38.340  14.105
42575W        W14301  44.003  29.054  10.940
42576W        W14302  28.069   0.019   1.901
42577W        W14303  35.904  39.614   0.022
42578W        W14304  14.132  17.047   4.605
42579W        W14305   5.723   1.089  10.712
42580W        W14306  20.351  16.234   1.830
42581W        W14307  34.889  29.534   3.648
42582W        W14308   6.732  17.270   2.740
42583W        W14309  12.098  32.623   3.163
42584W        W14310  41.973  38.044   2.801
42585W        W14311   6.862   4.940   4.310
42586W        W14312  33.532   1.517   3.274
42587W        W14313  10.582  35.106  14.080
42588W        W14314  12.904  24.276  13.594
42589W        W14315  15.459   7.752  10.793
42590W        W14316  30.947  40.588  14.349
42591W        W14317   4.669   9.794   2.235
42592W        W14318  12.799  25.219   0.297
42593W        W14319   5.340   8.931  10.644
42594W        W14320  44.640  43.359  13.730
42595W        W14321  25.784  38.761  11.288
42596W        W14322  20.724  36.097   4.113
42597W        W14323  42.333  14.689  14.287
42598W        W14324  37.811  19.256  13.326
42599W        W14325  29.837  28.726  14.250
42600W        W14326  18.138  42.205  10.983
42601W        W14327  10.817   1.220  13.784
42602W        W14328  16.639  32.501   3.735
42603W        W14329  17.991  36.867  11.701
42604W        W14330  27.038  14.360   4.098
42605W        W14331   3.235   3.674  11.640
42606W        W14332  27.552  16.526   2.718
42607W        W14333  17.279   7.435  12.179
42608W        W14334  38.889  44.933  12.602
42609W        W14335   3.679  37.094   1.434
42610W        W14336  19.285  18.696   2.811
42611W        W14337  25.588   3.186   1.729
42612W        W14338  14.458   7.637  11.511
42613W        W14339  30.360  16.167   3.723
42614W        W14340   5.832   2.397   4.379
42615W        W14341  10.059  44.334   3.669
42616W        W14342   7.855  32.548  11.286
42617W        W14343  20.173   4.674  10.725
42618W        W14344   8.881  41.566  10.693
42619W        W14345   8.305  33.489  14.524
42620W        W14346   8.664  20.127  11.205
42621W        W14347  36.632   5.851  11.125
42622W        W14348  25.721  43.669   5.490
42623W        W14349  26.062  20.004  12.812
42624W        W14350   1.226  10.645   1.791
42625W        W14351  13.334  15.196  14.559
42626W        W14352  15.097   0.866  11.458
42627W        W14353   0.437   6.280   0.518
42628W        W14354  33.648  43.416   3.339
42629W        W14355  29.941  14.124  10.677
42630W        W14356  26.642  29.079  12.045
42631W        W14357  43.712  33.139   2.391
42632W        W14358  31.918  13.177   2.922
42633W        W14359  29.568  21.256   3.124
42634W        W14360   3.692  33.468  11.153
42635W        W14361   4.383  12.645  12.311
42636W        W14362  34.072  13.740   1.400
42637W        W14363   8.192  12.160  12.127
42638W        W14364   5.440  29.582  12.649
42639W        W14365  12.826  39.364   1.806
42640W        W14366  44.307  12.358  13.460
42641W        W14367  42.272  22.501   2.214
42642W        W14368  12.691   5.709  14.889
42643W        W14369  26.068   2.206  13.928
42644W        W14370   3.759   0.686  11.510
42645W        W14371  37.930  27.676  13.125
42646W        W14372  32.014   8.048  12.037
42647W        W14373  21.188  44.767   4.380
42648W        W14374  28.845  12.556  11.208
42649W        W14375  37.781  38.959  13.448
42650W        W14376  14.216   6.332  13.509
42651W        W14377  11.090  36.181  12.408
42652W        W14378   5.242   3.439   0.300
42653W        W14379  15.143  10.016   0.103
42654W        W14380  39.641  17.332  13.571
42655W        W14381  35.660  16.672  11.599
42656W        W14382   5.177  14.484   0.767
42657W        W14383   8.431  42.800  10.864
42658W        W14384  24.044  19.868  12.442
42659W        W14385   4.818  14.618   1.683
42660W        W14386   4.183   7.946   3.929
42661W        W14387  33.448  32.842   0.222
42662W        W14388   4.475  16.654   1.892
42663W        W14389  22.985  12.049   3.667
42664W        W14390  21.681  12.543   2.336
42665W        W14391  22.556  44.598   0.800
42666W        W14392  12.776  43.927   1.932
42667W        W14393   0.521   8.749   0.874
42668W        W14394   8.933  21.683  12.381
42669W        W14395  30.802   9.092   2.384
42670W        W14396  25.725  25.184   0.757
42671W        W14397  39.843  38.813   0.502
42672W        W14398  40.836  13.258  10.736
42673W        W14399  27.420   2.841   0.448
42674W        W14400  41.547  35.425  11.534
42675W        W14401   5.319   5.315  13.017
42676W        W14402  38.633  43.052  13.902
42677W        W14403  41.998  33.923   0.309
42678W        W14404  18.802  29.633   1.277
42679W        W14405   9.462  42.803   5.141
42680W        W14406  20.059   7.718   4.238
42681W        W14407  10.602  30.998   1.789
42682W        W14408  38.083  25.991  12.021
42683W        W14409  35.428  29.462   3.706
42684W        W14410  23.051  31.591  10.491
42685W        W14411   4.939  34.300   4.799
42686W        W14412   9.715  38.053   4.626
42687W        W14413  27.073  21.835  10.818
42688W        W14414  26.631  38.495   1.358
42689W        W14415  31.209  40.857   0.866
42690W        W14416  18.851  30.583  10.557
42691W        W14417  19.751  16.603  12.338
42692W        W14418  36.175  41.126  12.540
42693W        W14419  18.042  32.861   1.413
42694W        W14420  37.643  38.812   1.959
42695W        W14421  34.020  13.071  12.076
42696W        W14422  40.473  39.264  13.727
42697W        W14423  38.669   3.508   3.953
42698W        W14424  30.947  40.874   1.736
42699W        W14425  13.567  24.657  12.857
42700W        W14426  37.853   8.793  13.083
42701W        W14427   2.223  10.359   0.878
42702W        W14428  44.858  33.267  10.671
42703W        W14429   2.641  27.114  12.527
42704W        W14430  34.664   8.027  12.422
42705W        W14431  40.069  34.611   1.404
42706W        W14432  10.829   7.257   4.023
42707W        W14433  38.533  20.162   0.183
42708W        W14434  34.867   2.442   0.673
42709W        W14435  14.045  42.834  10.650
42710W        W14436  24.977  21.653   3.697
42711W        W14437  13.700  39.357   4.902
42712W        W14438  29.708  42.043   4.867
42713W        W14439  23.788  32.687  11.429
42714W        W14440  43.698  43.317   4.648
42715W        W14441  38.801   6.207  14.144
42716W        W14442  20.102   2.301  13.878
42717W        W14443  29.660  25.568   5.037
42718W        W14444   7.610  31.091  14.101
42719W        W14445  28.366  20.710  11.073
42720W        W14446   0.478  12.048   1.438
42721W        W14447   3.930  22.991  12.628
42722W        W14448  16.769   1.944  14.488
42723W        W14449  22.106  40.916  12.830
42724W        W14450  42.705   5.169  12.129
42725W        W14451   1.518  16.608  10.982
42726W        W14452  24.019   1.113  10.572
42727W        W14453  22.456  33.521   2.699
42728W        W14454  34.988  35.086  11.718
42729W        W14455   9.318  41.845  10.773
42730W        W14456   1.408  23.788   0.338
42731W        W14457  34.022  15.299  14.430
42732W        W14458  25.929  36.430  11.181
42733W        W14459  37.563  13.538   2.680
42734W        W14460  20.996  33.500   0.941
42735W        W14461  11.722  41.760  11.148
42736W        W14462  43.275   7.280  12.943
42737W        W14463  42.948   9.279   1.338
42738W        W14464  13.124  25.309   0.978
42739W        W14465  16.793  15.956  11.369
42740W        W14466  13.335  11.685   3.875
42741W        W14467  34.058  26.871   0.889
42742W        W14468  10.344   9.194  12.510
42743W        W14469  30.738  35.998  11.605
42744W        W14470  27.407  32.660   0.874
42745W        W14471  20.556  28.607   4.881
42746W        W14472  14.663  41.891   0.232
42747W        W14473   0.268  16.068   1.856
42748W        W14474  10.885  27.955  11.442
42749W        W14475  34.447  18.041   1.212
42750W        W14476  14.127  16.118  12.981
42751W        W14477  11.010  28.772   0.038
42752W        W14478   1.715   5.460  13.943
42753W        W14479  17.388  36.430  10.433
42754W        W14480  37.385   8.786   1.704
42755W        W14481  16.320  15.110   0.936
42756W        W14482   2.288  17.668  14.480
42757W        W14483  37.573  36.491  14.874
42758W        W14484  27.110  21.194   1.411
42759W        W14485  22.978  34.598   0.683
42760W        W14486  15.516  40.129   5.426
42761W        W14487  41.801  25.527   1.012
42762W        W14488  18.538  18.172   3.731
42763W        W14489  24.126  22.638   1.256
42764W        W14490  14.311  26.002  13.047
42765W        W14491  34.614  40.734  10.732
42766W        W14492  11.874   5.214  12.013
42767W        W14493  25.204  17.768  14.528
42768W        W14494  41.339   9.193  12.121
42769W        W14495  17.849   3.332  11.092
42770W        W14496  24.402  22.481   4.463
42771W        W14497   3.432  22.253  13.395
42772W        W14498   7.618  38.414  12.335
42773W        W14499  25.019  29.939   1.196
42774W        W14500  13.692  15.099   1.393
42775W        W14501  12.647  24.615   2.016
42776W        W14502  40.523  14.677   3.681
42777W        W14503  19.654  23.735   1.753
42778W        W14504  18.597  33.351   2.122
42779W        W14505  10.819  33.635  13.762
42780W        W14506  29.203   5.864   3.684
42781W        W14507  43.992  21.205  14.962
42782W        W14508  23.184   3.841   1.383
42783W        W14509  15.832  42.513   4.512
42784W        W14510  14.718  26.005   0.851
42785W        W14511  38.789  42.841   4.585
42786W        W14512   2.857  30.447  13.495
42787W        W14513  14.355  10.412  13.078
42788W        W14514  40.296  24.151   0.065
42789W        W14515   6.010  36.813  10.686
42790W        W14516   0.982  44.538   1.071
42791W        W14517  11.092  33.611   0.982
42792W        W14518  17.833  16.260  12.855
42793W        W14519  26.718   4.863   3.343
42794W        W14520  23.284  24.517   1.324
42795W        W14521  38.453   7.324  13.132
42796W        W14522  44.676   7.067  12.131
42797W        W14523  30.918  39.589   0.498
42798W        W14524  35.268   7.982  13.081
42799W        W14525  31.161   1.772   0.462
42800W        W14526  13.640  25.771  12.252
42801W        W14527   9.162  28.763   4.582
42802W        W14528  17.056  41.888   1.371
42803W        W14529  21.280  14.402  10.152
42804W        W14530  13.215  33.491  10.527
42805W        W14531  42.787   2.970  11.452
42806W        W14532  29.477  13.092   2.162
42807W        W14533  28.658   5.149   2.641
42808W        W14534  37.191  13.791  11.045
42809W        W14535  43.227   0.169   0.933
42810W        W14536  27.309  33.030  10.547
42811W        W14537   4.361   0.393   2.871
42812W        W14538  28.611  12.153   2.388
42813W        W14539  30.017   0.544   2.762
42814W        W14540  13.323  26.017  14.999
42815W        W14541  19.639  27.150  13.440
42816W        W14542   0.925  18.206   3.814
42817W        W14543  43.465  30.006   1.411
42818W        W14544  26.847  40.921   4.129
42819W        W14545  34.540  38.526  12.447
42820W        W14546  11.354   8.269   1.289
42821W        W14547   9.174  25.420  11.826
42822W        W14548  28.100  18.081   4.806
42823W        W14549  17.066  37.374  13.341
42824W        W14550  34.823  25.490   0.355
42825W        W14551  40.353  24.092   2.750
42826W        W14552  42.895  10.332   0.012
42827W        W14553   6.890  30.557  13.960
42828W        W14554  15.561   8.140   4.657
42829W        W14555  29.776  19.493  11.523
42830W        W14556   7.250  29.363  12.330
42831W        W14557  40.280  11.796   2.341
42832W        W14558  28.003   4.274   0.384
42833W        W14559  25.969   4.004   3.830
42834W        W14560  22.438  33.075  11.165
42835W        W14561  27.616  20.316  13.399
42836W        W14562   8.321  27.527   4.703
42837W        W14563  14.055  35.890  11.474
42838W        W14564  36.548  27.439   4.513
42839W        W14565   2.519  43.041  11.391
42840W        W14566   5.898  38.878   3.413
42841W        W14567  41.086   3.619  13.853
42842W        W14568  11.797  21.477   0.779
42843W        W14569  23.159   4.370   1.374
42844W        W14570  27.058   9.593  14.897
42845W        W14571  29.535  33.582  10.599
42846W        W14572  42.227  10.596   3.787
42847W        W14573  36.507  35.606  14.733
42848W        W14574  29.515   6.148  12.963
42849W        W14575  36.055  22.840  12.072
42850W        W14576  31.472   1.188  12.439
42851W        W14577   1.861  15.653   1.898
42852W        W14578   4.647  29.228  10.765
42853W        W14579  10.407  14.448  12.455
42854W        W14580   0.328  15.134  10.762
42855W        W14581  22.750  11.085  11.063
42856W        W14582  24.810   0.500  13.487
42857W        W14583  29.603  28.668   3.674
42858W        W14584  20.352  21.596  13.806
42859W        W14585  38.993   7.354  14.886
42860W        W14586  28.148  31.608  13.856
42861W        W14587   7.664  28.969   1.352
42862W        W14588   3.710  36.768   2.394
42863W        W14589  37.128   8.562   2.260
42864W        W14590   5.361  21.638  14.753
42865W        W14591  29.206  23.506   4.174
42866W        W14592  32.991   7.779   3.220
42867W        W14593  13.691  36.589   0.835
42868W        W14594  21.760  26.590   0.529
42869W        W14595   6.201  44.918  14.555
42870W        W14596  34.527   0.817   0.827
42871W        W14597  42.362   7.135  13.400
42872W        W14598  40.328  24.015  14.020
42873W        W14599  44.191  16.621  13.827
42874W        W14600  26.451  15.741   9.984
42875W        W14601   6.681  21.191   3.756
42876W        W14602  41.315  35.078   4.546
42877W        W14603   1.302   1.848  13.611
42878W        W14604  18.250   8.178   3.129
42879W        W14605  15.714  16.738  11.677
42880W        W14606  25.160  33.946   4.953
42881W        W14607  41.327  28.840  14.372
42882W        W14608  39.025  41.781   2.214
42883W        W14609  27.499  37.459   4.753
42884W        W14610   1.701  13.170  12.565
42885W        W14611   2.889  27.237   2.869
42886W        W14612  24.643  37.342  12.167
42887W        W14613  14.148  30.861   2.736
42888W        W14614  10.442  21.671  10.389
42889W        W14615  29.946  17.176   1.456
42890W        W14616   7.216   9.329   0.369
42891W        W14617  21.141  26.451   4.139
42892W        W14618  28.040  37.386  11.488
42893W        W14619   3.291  14.599  10.069
42894W        W14620  14.329   6.612  11.158
42895W        W14621  16.702  12.162  12.532
42896W        W14622   5.058  40.448   2.133
42897W        W14623  26.576  43.269   4.527
42898W        W14624   5.814  31.624  14.095
42899W        W14625  17.238  33.560  10.632
42900W        W14626  17.322  12.942  13.957
42901W        W14627   0.041  19.323  11.528
42902W        W14628  40.887  21.831  11.725
42903W        W14629  21.076   7.375  13.470
42904W        W14630  12.213  19.183   1.880
42905W        W14631  36.921  17.844   3.575
42906W        W14632  26.411   3.050   3.159
42907W        W14633  43.099  25.035   2.289
42908W        W14634  16.195  39.445   3.852
42909W        W14635  12.305  22.122   2.013
42910W        W14636  21.772  22.240  13.510
42911W        W14637  10.874  28.240   1.789
42912W        W14638  11.326  21.260   2.660
42913W        W14639  12.295  25.159   0.525
42914W        W14640  25.589   2.777   0.537
42915W        W14641   7.678  15.761   2.358
42916W        W14642  29.495  42.409   4.572
42917W        W14643  29.923  38.771  12.149
42918W        W14644  42.455  36.902  13.986
42919W        W14645   9.929  28.674  12.121
42920W        W14646  37.462  33.963  10.439
42921W        W14647  22.571   6.700  14.742
42922W        W14648  38.898  31.636   0.518
42923W        W14649  13.348   0.432   2.045
42924W        W14650   4.202  39.521   0.384
42925W        W14651  38.535  39.218  12.997
42926W        W14652   0.037  36.277   3.695
42927W        W14653  26.185  15.064  11.606
42928W        W14654  41.037   2.433   1.245
42929W        W14655   2.976  26.963   3.362
42930W        W14656  42.470  36.026   2.418
42931W        W14657   9.937  32.003   4.689
42932W        W14658  27.028  20.867   3.146
42933W        W14659   3.930  12.386  11.452
42934W        W14660  37.013  30.662   0.950
42935W        W14661  31.649  13.361  11.646
42936W        W14662  17.252   4.416  10.607
42937W        W14663  19.916   7.037  10.306
42938W        W14664   2.825   0.570   1.471
42939W        W14665  11.393   5.953  13.615
42940W        W14666  28.988  35.097  12.309
42941W        W14667  35.551   3.823   0.913
42942W        W14668  39.376  16.792   1.397
42943W        W14669  21.320  24.080   1.310
42944W        W14670  28.103  41.786   0.384
42945W        W14671  34.593  13.811   3.252
42946W        W14672  42.635   4.779  10.704
42947W        W14673  43.524  24.510  14.848
42948W        W14674  16.192  33.576  10.335
42949W        W14675  14.247  36.580  10.597
42950W        W14676   4.777  27.936   3.323
42951W        W14677  28.726  20.775   1.863
42952W        W14678  26.844  17.788   2.717
42953W        W14679  18.247  34.927  12.554
42954W        W14680   8.284  14.912  10.905
42955W        W14681  35.515   0.657  14.918
42956W        W14682   7.267   9.303  11.205
42957W        W14683  14.716  34.878  13.348
42958W        W14684  20.218  24.540   3.186
42959W        W14685   2.618  38.428  12.472
42960W        W14686  17.391   8.490   5.051
42961W        W14687  36.853  22.118   1.946
42962W        W14688  18.461  18.912   2.204
42963W        W14689  39.455   7.346   2.621
42964W        W14690  40.920  28.860  14.031
42965W        W14691  24.059  33.012   0.838
42966W        W14692  18.107   7.274   4.116
42967W        W14693  39.295   1.232  11.574
42968W        W14694  36.032  13.822  13.565
42969W        W14695  26.921   6.740   1.915
42970W        W14696  29.117   2.027  10.973
42971W        W14697  41.846  22.839  12.580
42972W        W14698  29.412  23.799   3.797
42973W        W14699  35.211   6.796   5.012
42974W        W14700  17.166  18.344  12.451
42975W        W14701   5.703  40.627  10.458
42976W        W14702  42.072   9.116   1.449
42977W        W14703  30.265  43.322   1.927
42978W        W14704  27.656  37.505   3.096
42979W        W14705  38.228  36.104   1.145
42980W        W14706  23.005  34.518  12.117
42981W        W14707   8.002  40.366   2.028
42982W        W14708  38.432  19.008  11.168
42983W        W14709   0.004  20.725  11.001
42984W        W14710   6.716  21.175  12.126
42985W        W14711  35.791  35.954  13.499
42986W        W14712  11.688   8.353  13.918
42987W        W14713  36.464  13.770  13.232
42988W        W14714  24.065  33.847  11.135
42989W        W14715  24.131  14.024   4.096
42990W        W14716  26.040  21.408   4.566
42991W        W14717  23.896  41.555   0.845
42992W        W14718  20.475  20.083  13.065
42993W        W14719  19.141  28.199  12.471
42994W        W14720  31.921   9.828  11.542
42995W        W14721   5.283  17.772   2.936
42996W        W14722  10.871  17.145  10.292
42997W        W14723   2.265  12.379   0.944
42998W        W14724   1.997  12.588  11.590
42999W        W14725  23.039  21.549   4.523
43000W        W14726  26.124  18.937  11.715
43001W        W14727  29.151  18.225   0.826
43002W        W14728   1.904   6.692   4.712
43003W        W14729  21.203  42.321  13.085
43004W        W14730  27.164   1.008   4.851
43005W        W14731  14.764  11.589  11.494
43006W        W14732   6.728   9.314  11.122
43007W        W14733  20.725  35.110   4.404
43008W        W14734  11.381  24.202  14.471
43009W        W14735  11.564  26.551   0.483
43010W        W14736  28.021  25.461   0.926
43011W        W14737  23.160   9.154   2.374
43012W        W14738  26.650  30.523  10.346
43013W        W14739  19.224  29.710  10.892
43014W        W14740  16.076  17.112   3.626
43015W        W14741  39.039  42.368  10.752
43016W        W14742  19.202   3.467  11.954
43017W        W14743  35.367  35.967  12.109
43018W        W14744  13.228  14.500   3.278
43019W        W14745   6.749   6.395  12.917
43020W        W14746  35.396   9.808  11.077
43021W        W14747  34.507  17.761   4.753
43022W        W14748  25.738  16.275   1.735
43023W        W14749   7.358   0.926  11.467
43024W        W14750  21.203  11.089  13.509
43025W        W14751  35.592  40.586  14.803
43026W        W14752  40.273  42.609  11.167
43027W        W14753   3.447  20.915  12.731
43028W        W14754   6.923   9.554  11.672
43029W        W14755  33.416  21.315   4.251
43030W        W14756  26.454  12.575   4.500
43031W        W14757  12.567  33.656  12.789
43032W        W14758   2.245  26.156  12.531
43033W        W14759  31.011  35.794   3.660
43034W        W14760  19.558   0.007   4.661
43035W        W14761  10.554   7.404  10.734
43036W        W14762  12.083  24.626  13.676
43037W        W14763  16.169  42.537  11.126
43038W        W14764   8.820  24.395  10.185
43039W        W14765  43.073  27.506   1.334
43040W        W14766  30.972  34.352  14.914
43041W        W14767  29.332  41.460   4.360
43042W        W14768  42.647  27.403   2.175
43043W        W14769  23.581  39.746  10.774
43044W        W14770  15.775  18.251   4.899
43045W        W14771  33.523  29.209   0.454
43046W        W14772  41.850   9.263  12.105
43047W        W14773   7.783  19.573  13.917
43048W        W14774  28.733   2.826   1.719
43049W        W14775   9.385   9.354   3.737
43050W        W14776  33.379  13.910   3.893
43051W        W14777  19.184   1.445   3.258
43052W        W14778   3.826  38.399  13.418
43053W        W14779   7.712  27.032  12.031
43054W        W14780  43.793  12.710  10.813
43055W        W14781   7.915  21.186  11.240
43056W        W14782  33.851  22.504  11.529
43057W        W14783  42.780  25.930  10.745
43058W        W14784   0.419  32.774   1.010
43059W        W14785  33.875  39.082   0.371
43060W        W14786   4.342  18.816  11.550
43061W        W14787  41.610  33.836  13.996
43062W        W14788  15.015  36.901  11.529
43063W        W14789   3.662  34.072   0.863
43064W        W14790  13.691  22.303   4.081
43065W        W14791   0.882  44.579  11.164
43066W        W14792   9.229  21.720  14.886
43067W        W14793   6.156  30.983   1.936
43068W        W14794   8.360  43.736  11.127
43069W        W14795  21.245  13.400   4.996
43070W        W14796   1.891  32.881  11.399
43071W        W14797  28.142   0.816  14.059
43072W        W14798  40.417  21.925   1.371
43073W        W14799  34.052  10.536   0.051
43074W        W14800  43.114  24.128   1.844
43075W        W14801  13.249  26.430   4.137
43076W        W14802  27.632  17.767   1.386
43077W        W14803  37.295   1.808   3.221
43078W        W14804  13.463  30.419   4.516
43079W        W14805  36.080  31.812   1.498
43080W        W14806  24.093  24.726  14.502
43081W        W14807   6.327  23.015  11.157
43082W        W14808   3.306  17.549   0.923
43083W        W14809  31.606  15.316  13.237
43084W        W14810  40.635  37.465  12.712
43085W        W14811  26.402   7.343   2.643
43086W        W14812  12.296  31.165  11.156
43087W        W14813  31.855   4.913   5.032
43088W        W14814  44.858  10.115  10.328
43089W        W14815  21.544  13.838   0.460
43090W        W14816  10.783   0.551   2.263
43091W        W14817  17.527   8.163   1.814
43092W        W14818   1.279  24.730  13.653
43093W        W14819  19.506  24.232   3.395
43094W        W14820  15.213  21.645   0.271
43095W        W14821  37.803  11.651  11.124
43096W        W14822  19.162  25.503  11.886
43097W        W14823  22.778  16.345  12.624
43098W        W14824  21.660   4.442  14.583
43099W        W14825   7.426  20.168  10.673
43100W        W14826   4.540  35.944  13.409
43101W        W14827  20.196  18.651   3.311
43102W        W14828  28.514  37.321   4.620
43103W        W14829  30.948  22.525   0.849
43104W        W14830  20.861  15.223  11.673
43105W        W14831  15.308  37.372   1.232
43106W        W14832  26.951  24.331   3.725
43107W        W14833   4.811  43.067   3.191
43108W        W14834   9.205  10.446  14.486
43109W        W14835  30.330  10.766  12.458
43110W        W14836  34.440  33.650   2.886
43111W        W14837  33.355  17.467   0.208
43112W        W14838  39.210   5.252  10.609
43113W        W14839  13.739  14.190   3.985
43114W        W14840  20.293   1.162  11.351
43115W        W14841  11.350  32.378   3.524
43116W        W14842  10.365  39.136  14.744
43117W        W14843   2.304  23.843  13.860
43118W        W14844  42.015  37.435   4.510
43119W        W14845   0.951   7.157   1.156
43120W        W14846  41.381   6.844   2.363
43121W        W14847   1.709  33.427  13.898
43122W        W14848   1.589  33.015   0.905
43123W        W14849  12.772  28.915   1.908
43124W        W14850  23.977  33.501   0.575
43125W        W14851  18.637  29.599  13.685
43126W        W14852  38.368  20.294  10.637
43127W        W14853  30.065  24.282  10.106
43128W        W14854  33.914   2.033   2.371
43129W        W14855  20.110  39.306   1.560
43130W        W14856  26.552  22.818   1.354
43131W        W14857  11.085   6.005   4.574
43132W        W14858  16.057  29.106   3.201
43133W        W14859  38.003  13.008  11.077
43134W        W14860  37.607  36.115   3.702
43135W        W14861  26.291   1.778  14.406
43136W        W14862  42.946  18.466   0.941
43137W        W14863  25.739   5.243   4.179
43138W        W14864  42.862  41.312  12.279
43139W        W14865  34.817  12.707  11.133
43140W        W14866  38.384   8.635  11.457
43141W        W14867  20.462  22.268   2.758
43142W        W14868  13.865  16.583  10.725
43143W        W14869  13.422   9.519   1.546
43144W        W14870  22.075  16.890   3.793
43145W        W14871   8.833  36.333  12.306
43146W        W14872  40.352  38.636  10.572
43147W        W14873  27.817  25.680  10.577
43148W        W14874  20.444  32.649   3.869
43149W        W14875  38.411  29.350  12.625
43150W        W14876   6.250  41.436  10.431
43151W        W14877  12.417  25.888  13.982
43152W        W14878  25.690  43.882  12.918
43153W        W14879   0.930   7.619   3.837
43154W        W14880  38.389  42.668   3.459
43155W        W14881   4.559  17.923   3.221
43156W        W14882  44.394  16.722  12.088
43157W        W14883  16.600   4.446  14.369
43158W        W14884   1.094  39.046  12.974
43159W        W14885  41.831  14.519  12.753
43160W        W14886  35.860   4.130  14.803
43161W        W14887  29.631   2.823   1.143
43162W        W14888  15.858  10.236   0.703
43163W        W14889  41.445   1.474   4.853
43164W        W14890  21.038  33.962   4.402
43165W        W14891   2.593  18.301   2.786
43166W        W14892   3.846  14.846  13.331
43167W        W14893  40.981  23.941   0.842
43168W        W14894   2.814  35.369   2.402
43169W        W14895  19.594  38.462  10.604
43170W        W14896  19.729  24.522  11.299
43171W        W14897  37.419  35.998  13.731
43172W        W14898  38.201  31.406  14.994
43173W        W14899  38.047  10.675   2.679
43174W        W14900  29.389  42.821   3.844
43175W        W14901  32.932  22.739  14.838
43176W        W14902   3.373  21.933  12.990
43177W        W14903  43.677  32.725  10.789
43178W        W14904  33.104  40.446  14.431
43179W        W14905  15.924  16.609   3.762
43180W        W14906  17.241  32.307  11.824
43181W        W14907  35.408   8.589  12.593
43182W        W14908  19.782  33.103  13.021
43183W        W14909  12.528  37.099   2.605
43184W        W14910   3.135  43.388   0.860
43185W        W14911  41.994   0.479   0.741
43186W        W14912  26.195  16.942   4.434
43187W        W14913   3.926   6.674  11.555
43188W        W14914  25.915  14.735   4.084
43189W        W14915  29.331  21.381  11.175
43190W        W14916  39.667  25.009  11.930
43191W        W14917  30.716   5.788   2.492
43192W        W14918  27.086   1.225   1.826
43193W        W14919   8.039  34.046   0.334
43194W        W14920  33.799  42.408  11.631
43195W        W14921  29.677  22.546   1.633
43196W        W14922  16.548  44.025  12.523
43197W        W14923   0.269  34.323  12.519
43198W        W14924   1.751  44.026  11.190
43199W        W14925  43.880   1.437   0.284
43200W        W14926  35.544  10.346  11.157
43201W        W14927   1.756  41.298  13.272
43202W        W14928  12.287  12.008  10.637
43203W        W14929   0.758   4.474   0.169
43204W        W14930  41.358  19.682   4.464
43205W        W14931  31.628  23.157  12.999
43206W        W14932   9.298   6.327   2.279
43207W        W14933  34.543  40.328  12.911
43208W        W14934  18.001   1.967  11.132
43209W        W14935  36.079  22.693   0.434
43210W        W14936   2.936  40.293  13.493
43211W        W14937  23.572  27.291   1.145
43212W        W14938  22.500  13.113  14.324
43213W        W14939  34.385  14.375  10.663
43214W        W14940  41.448   7.224  12.990
43215W        W14941   4.839   5.987   0.828
43216W        W14942  10.526   4.192   4.244
43217W        W14943  28.060  31.427  14.811
43218W        W14944   1.476  36.172   4.364
43219W        W14945  23.115  44.689  10.597
43220W        W14946  38.350   4.166   0.157
43221W        W14947  39.357  25.642   3.332
43222W        W14948   7.945  29.721   0.853
43223W        W14949   1.867  13.625   0.708
43224W        W14950  34.368  42.294   0.880
43225W        W14951   0.838  44.489  12.107
43226W        W14952  20.858  18.050  12.464
43227W        W14953  17.548  22.504  13.925
43228W        W14954   2.078  17.571  13.928
43229W        W14955  33.647  41.438   1.836
43230W        W14956  42.830   4.456   3.699
43231W        W14957  43.798  26.021   0.009
43232W        W14958  35.023  24.366   2.251
43233W        W14959  39.023   0.003  10.588
43234W        W14960  22.063  27.045   1.093
43235W        W14961  13.854  18.758  14.860
43236W        W14962  23.227   6.528  11.391
43237W        W14963  36.052  30.176   2.262
43238W        W14964  27.801  26.654  11.880
43239W        W14965  12.680   7.798  12.909
43240W        W14966  15.518  30.239  13.610
43241W        W14967  44.731  42.860  12.414
43242W        W14968  23.426   7.452  12.370
43243W        W14969  12.405   1.401   4.640
43244W        W14970  41.028  31.404   2.717
43245W        W14971  35.973  21.526  11.160
43246W        W14972  42.064   1.774  12.025
43247W        W14973  29.837  34.035   2.268
43248W        W14974   0.261  19.816   2.321
43249W        W14975   3.748  26.980   3.782
43250W        W14976  38.901   5.293  11.029
43251W        W14977  21.709  27.728   0.216
43252W        W14978  20.632  25.977  13.002
43253W        W14979  31.606  18.794  11.049
43254W        W14980  19.041   4.081  12.878
43255W        W14981  24.799   3.426   0.714
43256W        W14982  34.219  12.331  12.013
43257W        W14983  30.050  15.191  10.701
43258W        W14984  31.511   8.435   0.463
43259W        W14985  27.068  16.799   2.888
43260W        W14986  40.260  40.219  12.056
43261W        W14987  31.030  11.473  12.860
43262W        W14988  30.698  34.830  10.924
43263W        W14989  44.047  16.791   1.035
43264W        W14990  33.283  33.440  11.241
43265W        W14991   6.877  43.906   0.790
43266W        W14992   1.492   6.067   2.328
43267W        W14993  32.465  37.947  12.794
43268W        W14994  17.316   5.174  14.785
43269W        W14995   1.684  29.549  10.643
43270W        W14996  24.957   3.935   2.912
43271W        W14997   4.409   4.209  11.523
43272W        W14998  12.252   1.339   1.312
43273W        W14999   4.049  15.141   4.656
43274W        W15000   6.832  38.448   2.780
43275W        W15001  30.494  10.497   3.131
43276W        W15002  31.756  25.564  12.613
43277W        W15003  21.921   6.897  13.465
43278W        W15004  33.968   8.798   3.396
43279W        W15005  29.521  40.055   1.589
43280W        W15006  10.125   0.318  14.359
43281W        W15007   8.476  10.167   1.249
43282W        W15008  34.540  42.492  14.493
43283W        W15009  23.315  38.823  13.989
43284W        W15010  36.132  20.937   2.248
43285W        W15011  16.774  36.798  11.010
43286W        W15012  10.212  37.032  14.627
43287W        W15013   4.215  34.157   2.676
43288W        W15014  24.756  34.464   1.732
43289W        W15015   5.496  36.624   2.629
43290W        W15016  10.197  14.106   1.250
43291W        W15017  31.965  27.041   3.712
43292W        W15018   0.574  33.162   4.089
43293W        W15019  19.559  10.686  13.449
43294W        W15020  12.620  37.899   2.297
43295W        W15021  11.369  39.435   0.640
43296W        W15022  39.412  18.543   1.857
43297W        W15023  12.841  41.724   2.320
43298W        W15024   0.461  14.812  11.968
43299W        W15025  21.688  35.358  13.241
43300W        W15026  34.464  30.193   0.282
43301W        W15027  35.925  12.330   4.667
43302W        W15028  40.560  15.747   3.765
43303W        W15029  29.820  42.639   1.416
43304W        W15030  24.131  41.834   3.364
43305W        W15031  12.783  31.079   2.892
43306W        W15032   1.325  33.125  13.841
43307W        W15033   0.959  30.610  11.959
43308W        W15034  26.790   6.135   0.785
43309W        W15035  12.759  24.704   3.036
43310W        W15036  43.452  13.562  14.956
43311W        W15037  28.884  14.026  14.708
43312W        W15038   1.723  12.631   4.271
43313W        W15039  32.602  16.558  13.836
43314W        W15040  24.268  12.688  10.150
43315W        W15041   4.860  28.894   1.557
43316W        W15042  22.309  23.766  11.689
43317W        W15043  43.793  35.573  12.797
43318W        W15044  17.714   7.891  11.120
43319W        W15045  31.824  21.275   0.314
43320W        W15046  44.338  41.432   1.434
43321W        W15047  12.693  16.534  13.481
43322W        W15048  23.978  40.986   3.654
43323W        W15049  13.795  15.181   0.871
43324W        W15050  40.800  21.170   1.949
43325W        W15051  22.433  34.592  14.848
43326W        W15052  12.113  23.502   1.858
43327W        W15053  12.580  40.571   3.698
43328W        W15054  19.781  28.644   0.308
43329W        W15055  21.448  38.278   1.850
43330W        W15056  32.963  11.304   4.702
43331W        W15057  33.070  30.990  12.166
43332W        W15058  24.677  31.037   2.374
43333W        W15059  37.055   3.112  10.617
43334W        W15060   6.771  39.589  13.896
43335W        W15061  21.495  43.546  14.374
43336W        W15062  11.595  29.529  12.408
43337W        W15063  40.908  41.142   0.784
43338W        W15064  12.213   8.101  14.868
43339W        W15065  18.481  22.147  14.982
43340W        W15066   8.599  35.135  11.051
43341W        W15067  43.192  19.683   4.554
43342W        W15068  15.802  23.913  11.991
43343W        W15069  34.311  15.377   0.926
43344W        W15070   2.898   1.295   2.720
43345W        W15071  23.160  30.874   2.224
43346W        W15072  42.795  18.601  10.717
43347W        W15073   3.660  30.634   5.115
43348W        W15074  12.239   7.492   3.508
43349W        W15075  39.838   4.269   0.799
43350W        W15076  14.365  42.284  13.843
43351W        W15077  23.140  43.256   2.402
43352W        W15078   0.272  26.502   4.058
43353W        W15079  29.095  28.686   0.652
43354W        W15080   8.235  21.474  13.843
43355W        W15081  38.908  42.034   1.007
43356W        W15082  19.073  37.005  11.057
43357W        W15083  21.741  14.348  11.546
43358W        W15084  44.727  17.119  11.999
43359W        W15085   8.589   6.876   3.164
43360W        W15086  10.667  41.734   1.000
43361W        W15087  26.867  37.964  12.524
43362W        W15088  16.695  42.533  12.467
43363W        W15089  27.922   2.925   0.422
43364W        W15090  25.620  27.523  11.096
43365W        W15091   0.795   9.849  14.533
43366W        W15092   7.254  30.697   4.723
43367W        W15093  34.643  25.724  13.513
43368W        W15094  24.330  18.241  11.033
43369W        W15095  21.272  29.947  10.757
43370W        W15096  43.509  25.416  10.304
43371W        W15097   7.930  10.124  14.342
43372W        W15098  29.569  37.058   4.098
43373W        W15099  40.570  41.912  12.900
43374W        W15100  44.256  29.921  11.636
43375W        W15101  20.761   8.769   4.310
43376W        W15102  40.295  13.241  10.821
43377W        W15103  42.794  21.147  12.421
43378W        W15104  35.187  24.024  12.047
43379W        W15105   1.449  11.123  13.090
43380W        W15106  24.437  14.420  11.002
43381W        W15107   0.905  42.996   1.211
43382W        W15108   2.742  38.835   1.848
43383W        W15109  23.497  43.297   1.195
43384W        W15110  18.295  17.614  14.308
43385W        W15111  24.097  10.675   1.847
43386W        W15112   6.226  11.120  11.541
43387W        W15113  12.187  30.958  12.423
43388W        W15114  17.272   2.325  14.466
43389W        W15115  15.471  24.425  11.390
43390W        W15116  24.284  20.613  11.524
43391W        W15117   7.808  19.611   4.531
43392W        W15118   3.661  38.893  14.738
43393W        W15119  16.173   8.261  10.613
43394W        W15120  44.795  42.072  11.532
43395W        W15121   5.733  20.963   4.638
43396W        W15122  20.324  27.204  14.012
43397W        W15123  13.867   0.087   2.770
43398W        W15124   8.957  18.758  14.303
43399W        W15125  41.084  13.637   2.910
43400W        W15126  35.510  10.371   0.801
43401W        W15127  44.746   7.101  10.884
43402W        W15128  23.754   3.738   2.027
43403W        W15129  37.425  43.803  10.792
43404W        W15130  38.609  22.069  12.372
43405W        W15131  20.199  18.498   2.808
43406W        W15132  24.451  25.099  14.465
43407W        W15133   1.490  25.294   3.191
43408W        W15134  19.192  28.669   4.575
43409W        W15135  26.776   8.734   4.677
43410W        W15136   5.335  43.801  13.815
43411W        W15137  34.519  13.040  13.524
43412W        W15138   4.973  16.556   1.809
43413W        W15139  12.621   1.390   0.427
43414W        W15140  27.242   6.076   3.621
43415W        W15141  43.769   6.198  12.448
43416W        W15142   9.764  27.980   4.578
43417W        W15143   4.295  30.199   2.854
43418W        W15144  12.573  37.573   1.449
43419W        W15145  30.741  29.101  11.875
43420W        W15146  39.145  31.439   0.928
43421W        W15147  36.522  29.561  14.808
43422W        W15148  33.483  20.054   0.840
43423W        W15149  18.524  36.753   0.345
43424W        W15150  26.177  31.273   2.677
43425W        W15151  13.828  33.977  11.199
43426W        W15152   8.161   2.479   0.520
43427W        W15153  36.149  27.977  10.627
43428W        W15154   2.913  44.487   3.668
43429W        W15155  36.355  27.404  11.715
43430W        W15156  25.692  40.832  13.382
43431W        W15157  15.073  21.046   2.699
43432W        W15158  31.352   5.058  11.913
43433W        W15159  33.572   3.899   1.033
43434W        W15160  38.355  20.728   2.714
43435W        W15161  17.242  28.059  13.310
43436W        W15162  14.715  16.134   0.764
43437W        W15163  35.895  41.823   4.181
43438W        W15164  27.732   4.508  12.919
43439W        W15165  41.520  29.876  12.915
43440W        W15166  22.902   9.299   3.658
43441W        W15167  40.086  36.887  12.965
43442W        W15168  12.058  14.248   4.775
43443W        W15169  44.900   1.492  11.620
43444W        W15170  38.388  41.967   1.425
43445W        W15171   9.470  27.984   1.523
43446W        W15172   9.413  18.822  10.662
43447W        W15173   2.096  26.725   2.372
43448W        W15174  11.198  41.603   4.549
43449W        W15175  40.887  25.036   4.166
43450W        W15176  23.199  16.141  13.992
43451W        W15177  14.309  10.816   3.669
43452W        W15178  29.583  12.241  13.385
43453W        W15179  18.538   1.334  11.888
43454W        W15180  21.824  21.313   1.860
43455W        W15181   5.134  27.099  12.625
43456W        W15182   2.383  22.213   2.145
43457W        W15183  29.583  44.225   5.049
43458W        W15184   8.674  34.081   3.232
43459W        W15185  13.388   4.999   2.640
43460W        W15186  35.107   1.324  11.353
43461W        W15187  44.277  11.158   0.923
43462W        W15188  19.302  20.721   1.900
43463W        W15189  17.465  39.458   5.444
43464W        W15190  32.386  29.358  11.071
43465W        W15191  26.859   4.933  13.935
43466W        W15192  39.125  38.736  13.863
43467W        W15193  37.590  21.704  14.263
43468W        W15194  33.612   5.106   2.863
43469W        W15195  33.079  36.500  10.678
43470W        W15196   0.521  29.374   1.906
43471W        W15197  19.350  18.047   4.138
43472W        W15198  38.536  15.232  14.044
43473W        W15199  29.961  18.842   2.495
43474W        W15200  17.455  38.631   9.749
43475W        W15201   7.307  32.786   2.315
43476W        W15202  28.590  28.533   3.728
43477W        W15203  33.803  11.192  11.708
43478W        W15204  43.784   3.779   4.588
43479W        W15205  17.739  29.686  14.785
43480W        W15206  44.286   2.167   0.424
43481W        W15207  18.712  44.321   1.430
43482W        W15208  18.696  33.520   4.136
43483W        W15209  12.287  24.737  11.338
43484W        W15210  20.462  35.929   3.707
43485W        W15211  39.074   4.167   0.534
43486W        W15212  31.439  20.932  14.500
43487W        W15213  39.052   5.325  13.435
43488W        W15214  44.229   5.753  11.951
43489W        W15215   9.646  14.702  12.497
43490W        W15216  41.624  21.454   3.687
43491W        W15217  17.853  40.623  13.443
43492W        W15218  27.227   0.437  13.022
43493W        W15219  24.516   5.947   0.005
43494W        W15220  37.775  36.880  10.482
43495W        W15221  26.132  18.678  12.845
43496W        W15222   1.658   1.985   4.676
43497W        W15223  27.086  25.241   2.929
43498W        W15224  43.811  34.398   0.857
43499W        W15225  26.574   6.962  14.920
43500W        W15226  14.526  11.154  11.606
43501W        W15227  28.093  36.238  12.431
43502W        W15228  29.202  40.070  12.399
43503W        W15229  36.679  27.188   2.284
43504W        W15230  34.221  42.794   4.974
43505W        W15231  34.114  14.031  11.610
43506W        W15232  17.897  13.544  11.698
43507W        W15233  21.063  27.273   4.644
43508W        W15234   6.195  22.259  13.454
43509W        W15235  15.808   4.808  14.674
43510W        W15236  42.109  42.241  11.155
43511W        W15237   0.904   4.160   2.965
43512W        W15238  20.583  29.344  14.571
43513W        W15239  44.803   8.976   1.213
43514W        W15240  35.922  34.988  14.984
43515W        W15241  29.735  41.583   4.066
43516W        W15242  12.797   9.302  14.724
43517W        W15243  44.375  33.059   0.790
43518W        W15244   3.713  28.646   4.328
43519W        W15245   1.749   1.028  13.249
43520W        W15246  21.232  23.473   2.262
43521W        W15247   3.026  40.769   2.649
43522W        W15248  41.888  42.847  11.945
43523W        W15249   3.797  17.113   2.444
43524W        W15250  24.500  43.723   4.097
43525W        W15251  28.973  20.505   2.219
43526W        W15252  41.044  35.467   0.289
43527W        W15253   7.408  17.191  11.602
43528W        W15254  27.050  18.913   1.078
43529W        W15255  34.902  21.162  12.455
43530W        W15256   7.308   8.817   1.925
43531W        W15257  36.691   2.285   2.045
43532W        W15258  10.295   2.077  11.922
43533W        W15259  21.521  41.386   3.689
43534W        W15260   7.851  44.776   0.264
43535W        W15261  37.936  26.245   1.781
43536W        W15262  18.765   7.802  10.482
43537W        W15263  43.350  14.328   3.296
43538W        W15264   2.592   0.297   2.439
43539W        W15265  28.554   3.318   1.743
43540W        W15266  10.762  42.682   3.679
43541W        W15267  12.580  37.372  10.590
43542W        W15268   5.865  11.768  14.912
43543W        W15269  31.817  17.272   1.880
43544W        W15270  25.009  20.050  13.843
43545W        W15271  41.766  11.365  12.375
43546W        W15272  41.525  26.024   4.625
43547W        W15273  36.047  26.427   3.455
43548W        W15274  40.712  38.961  11.973
43549W        W15275  18.801  20.184  11.135
43550W        W15276  24.325  21.289   1.200
43551W        W15277  31.615  26.432   0.855
43552W        W15278  13.620   6.383   1.229
43553W        W15279  35.459  43.006   3.823
43554W        W15280  25.362   8.335   1.010
43555W        W15281  35.412  13.053   0.373
43556W        W15282  31.653   1.447  12.009
43557W        W15283  35.048   3.361  10.438
43558W        W15284   2.229  27.498  12.001
43559W        W15285  26.305  38.777   2.688
43560W        W15286  24.003   4.162  11.151
43561W        W15287  10.195  16.464   3.088
43562W        W15288  11.514  26.498  13.745
43563W        W15289  15.710  11.556   5.029
43564W        W15290  35.641   6.255   4.997
43565W        W15291  40.317   4.378   4.491
43566W        W15292  41.985  28.630   0.284
43567W        W15293  16.717  14.817  14.935
43568W        W15294  15.385  14.195  10.696
43569W        W15295  35.887  28.054  13.938
43570W        W15296  25.472  36.309  12.058
43571W        W15297  14.314  12.072   4.932
43572W        W15298  35.825  42.257  13.796
43573W        W15299  13.760  23.302  11.866
43574W        W15300   9.955   4.945   0.756
43575W        W15301  10.798  30.089  13.305
43576W        W15302   4.641  22.278   3.881
43577W        W15303  36.400  39.848  10.772
43578W        W15304  14.640  27.202   1.239
43579W        W15305   3.411   1.930   1.783
43580W        W15306  13.680  10.307  14.285
43581W        W15307  11.197   8.206  13.902
43582W        W15308  36.820  18.724   3.637
43583W        W15309  34.978  43.928  11.474
43584W        W15310  19.807  43.728  11.558
43585W        W15311  17.755   8.326   1.349
43586W        W15312  23.762  33.140  13.480
43587W        W15313  34.872   5.941   1.341
43588W        W15314  35.778  22.122   2.768
43589W        W15315  40.541  27.872   4.534
43590W        W15316  43.751  24.160   3.644
43591W        W15317  34.374  37.874  10.734
43592W        W15318  40.829   5.685  11.369
43593W        W15319  17.929  15.253   5.171
43594W        W15320  24.624   6.240  12.440
43595W        W15321  43.869  32.907   1.044
43596W        W15322   9.988  35.761   5.059
43597W        W15323  28.322  35.880  10.428
43598W        W15324  15.073  39.052  13.903
43599W        W15325  33.705  43.078  13.337
43600W        W15326  15.878  42.347   1.900
43601W        W15327   1.227  44.389   3.334
43602W        W15328   8.775  44.372  11.621
43603W        W15329  26.863  16.836  12.916
43604W        W15330  29.458  15.538   4.197
43605W        W15331  42.949  36.445   0.814
43606W        W15332  23.475   6.749   4.311
43607W        W15333   3.595  36.721   0.265
43608W        W15334   5.175  28.455   4.607
43609W        W15335  43.041  32.051   0.896
43610W        W15336  25.000   0.299  12.029
43611W        W15337  32.358  16.729   3.052
43612W        W15338  31.693  28.416  14.873
43613W        W15339  24.961  30.859  11.071
43614W        W15340  31.645  28.041   1.470
43615W        W15341  18.263  15.827  11.622
43616W        W15342  16.981   5.597   4.088
43617W        W15343  37.344  43.364  11.622
43618W        W15344  34.161  29.574  11.469
43619W        W15345  26.988  40.549   4.897
43620W        W15346   4.641  36.508  10.599
43621W        W15347   3.125  40.869  14.805
43622W        W15348  15.115   6.162  11.896
43623W        W15349  18.254  35.009   4.188
43624W        W15350  32.470  28.598  13.633
43625W        W15351   0.241  16.385   3.437
43626W        W15352  26.580   1.217   4.447
43627W        W15353  10.768   6.432   2.220
43628W        W15354   5.940   8.597   2.197
43629W        W15355  10.650  29.678   0.367
43630W        W15356   9.925  22.192  11.071
43631W        W15357  16.316  22.057   2.242
43632W        W15358   1.549  37.314  11.158
43633W        W15359   2.717   7.311  10.593
43634W        W15360  13.938   0.233  12.080
43635W        W15361  27.514  16.700   3.620
43636W        W15362  16.860  33.076   4.517
43637W        W15363  29.559  10.865   1.832
43638W        W15364  10.885  27.522   3.639
43639W        W15365  13.150  26.312   0.883
43640W        W15366   6.857  25.149   1.055
43641W        W15367   5.126   4.008  13.469
43642W        W15368  44.278   4.396  14.767
43643W        W15369   9.951  15.585  10.710
43644W        W15370  25.101   5.892   1.284
43645W        W15371  44.591   6.439   1.903
43646W        W15372  32.978  22.126  10.819
43647W        W15373  28.039  28.740  11.055
43648W        W15374  19.145  26.132   4.801
43649W        W15375  40.278   7.821  11.031
43650W        W15376  19.609  10.426   0.751
43651W        W15377  20.283   0.226   4.391
43652W        W15378  38.694  10.800   1.263
43653W        W15379   3.864  10.005   0.685
43654W        W15380  13.774  18.113   2.700
43655W        W15381   2.290  30.803   0.152
43656W        W15382   0.994  19.619  10.289
43657W        W15383  24.425  33.041  14.587
43658W        W15384  40.507  26.505   2.432
43659W        W15385   6.393  20.912   2.431
43660W        W15386  25.227  13.669   2.120
43661W        W15387   3.191  13.040   0.969
43662W        W15388  14.045  17.910  12.571
43663W        W15389  44.578  43.769  11.959
43664W        W15390  12.158  34.494  10.718
43665W        W15391  21.009  28.042  14.034
43666W        W15392   4.702   7.960   1.788
43667W        W15393  37.545  36.831  12.654
43668W        W15394  42.503  12.675  13.917
43669W        W15395  22.479  35.676  10.038
43670W        W15396   0.035  27.833   2.400
43671W        W15397  27.198   5.347  13.855
43672W        W15398  31.933   3.813   3.634
43673W        W15399  29.207   5.390   1.673
43674W        W15400  24.077  25.192   1.894
43675W        W15401  10.755   8.651   1.189
43676W        W15402   5.011   5.300  12.580
43677W        W15403  40.431   8.656   0.039
43678W        W15404  28.384   3.497  10.376
43679W        W15405  23.653   9.479  13.978
43680W        W15406  38.247  38.271  12.177
43681W        W15407  33.646  26.464  12.502
43682W        W15408  14.397  39.831  13.428
43683W        W15409  43.405  16.817  12.804
43684W        W15410  33.385  39.469  12.073
43685W        W15411  22.162   8.347   4.751
43686W        W15412   3.337   0.441   4.178
43687W        W15413  32.188  38.283   3.346
43688W        W15414  30.926  40.999  13.537
43689W        W15415  39.386   9.945   4.924
43690W        W15416  34.037  12.667  12.434
43691W        W15417  32.155  37.604   1.991
43692W        W15418  11.796  43.773   4.755
43693W        W15419   0.959  21.040  14.777
43694W        W15420  35.260  17.901  12.001
43695W        W15421  14.388   4.098  13.020
43696W        W15422  37.865  24.141  12.242
43697W        W15423  25.180  42.628   0.538
43698W        W15424  40.452   3.492   3.220
43699W        W15425  18.742  19.829  14.403
43700W        W15426  31.565   1.099   2.843
43701W        W15427   1.589   2.479   1.343
43702W        W15428  26.704   7.798  13.779
43703W        W15429  30.892  22.215   0.237
43704W        W15430  25.125  41.545  11.917
43705W        W15431  11.591   9.032   1.969
43706W        W15432  27.518  25.529  13.869
43707W        W15433   6.685  34.609  11.887
43708W        W15434   1.049  19.415  14.241
43709W        W15435  40.884  15.602   4.151
43710W        W15436  38.036  36.654   2.195
43711W        W15437   3.949  37.616  12.822
43712W        W15438   4.631  11.797  13.581
43713W        W15439  22.716  30.601   2.348
43714W        W15440  27.236   1.307  12.882
43715W        W15441  42.340   0.941   0.450
43716W        W15442  28.648  44.167  13.437
43717W        W15443  26.277  40.463   2.335
43718W        W15444  41.413  36.932   4.284
43719W        W15445  10.366   8.667  12.900
43720W        W15446  30.356  30.979   2.050
43721W        W15447  33.580  44.059   5.028
43722W        W15448  42.278   7.223   2.333
43723W        W15449   8.548  17.192  12.295
43724W        W15450   8.230  34.549   0.364
43725W        W15451  41.099   7.332  14.980
43726W        W15452  11.780  12.960  14.413
43727W        W15453  10.942  13.793   2.865
43728W        W15454  10.873  36.829  13.879
43729W        W15455   4.471   8.892  13.676
43730W        W15456  30.791   8.230   3.673
43731W        W15457   3.961   6.003   1.158
43732W        W15458  20.691  11.236  13.409
43733W        W15459  33.334   2.506   0.957
43734W        W15460  18.806  14.812   1.596
43735W        W15461  38.048  32.468   4.564
43736W        W15462  26.906  42.220  10.898
43737W        W15463  32.054  11.163   3.167
43738W        W15464  12.572  32.119   0.017
43739W        W15465  30.549   0.021  13.949
43740W        W15466   7.824  33.681   3.309
43741W        W15467  27.824  35.403   3.118
43742W        W15468   2.627  35.767   5.099
43743W        W15469  24.523  21.657   3.100
43744W        W15470   4.984  11.877  11.640
43745W        W15471  24.380  41.379   0.806
43746W        W15472  24.584  33.152  12.863
43747W        W15473  16.721  20.101   0.445
43748W        W15474  32.878  12.383   1.240
43749W        W15475  36.788   2.981  13.664
43750W        W15476  25.526  17.717   4.901
43751W        W15477  44.575  35.300   4.079
43752W        W15478  33.925   4.237  10.712
43753W        W15479   1.369  38.928   0.287
43754W        W15480  16.229   1.357   0.931
43755W        W15481  20.929  21.681  14.840
43756W        W15482  44.808   7.834  13.586
43757W        W15483  31.127   2.969   2.085
43758W        W15484  21.609   3.987  12.126
43759W        W15485   0.875  43.303  14.331
43760W        W15486  26.609   8.621  12.793
43761W        W15487  41.346  23.069   0.270
43762W        W15488   2.917   4.509  10.760
43763W        W15489  33.010  25.284  14.192
43764W        W15490  23.140  39.458   2.313
43765W        W15491  22.953  17.101   0.364
43766W        W15492   4.987  11.653   4.530
43767W        W15493  18.841  40.468   2.226
43768W        W15494  20.395   1.175  13.595
43769W        W15495  21.314  10.392   1.045
43770W        W15496  21.222  34.343  12.447
43771W        W15497   9.245   5.868   1.992
43772W        W15498  34.680  42.553  11.969
43773W        W15499  33.110  36.171  12.944
43774W        W15500  42.001   6.448  10.750
43775W        W15501  43.387  32.300   1.209
43776W        W15502  44.378  31.451   2.340
43777W        W15503  14.807  29.678  11.491
43778W        W15504  20.799  25.627   2.699
43779W        W15505  10.634  35.515   0.930
43780W        W15506  29.514   0.970   0.461
43781W        W15507  35.900  19.120   1.207
43782W        W15508  16.265  37.475   5.532
43783W        W15509  25.262  39.393  11.884
43784W        W15510  11.665  41.834   4.576
43785W        W15511  20.487  12.509   1.313
43786W        W15512  16.264  26.068  11.979
43787W        W15513  24.622  17.362  11.936
43788W        W15514  36.305  25.701  11.010
43789W        W15515  11.083  25.290   3.310
43790W        W15516  44.953   6.244  11.135
43791W        W15517  18.502  11.079  11.144
43792W        W15518  17.062  23.515   0.070
43793W        W15519  20.968  22.696  12.505
43794W        W15520  24.528  24.167  14.959
43795W        W15521   9.671  37.787  13.434
43796W        W15522  19.645  44.764  14.112
43797W        W15523   8.396  14.615  14.484
43798W        W15524  31.374  24.122  14.328
43799W        W15525  35.506  34.372   0.774
43800W        W15526  11.833  42.840  13.509
43801W        W15527  33.874  22.054   0.359
43802W        W15528   6.391  11.588   3.414
43803W        W15529   0.019  38.315  14.393
43804W        W15530   9.591   7.953  12.048
43805W        W15531   1.633  32.059   3.319
43806W        W15532  19.634   2.101   1.685
43807W        W15533  28.021  37.361  13.714
43808W        W15534  13.863   9.907   2.293
43809W        W15535   5.171  10.743   2.788
43810W        W15536  20.100  26.896  13.401
43811W        W15537  37.619  41.756  11.651
43812W        W15538  39.437   4.361  14.314
43813W        W15539  44.035   0.187  11.951
43814W        W15540  31.711  31.609  14.785
43815W        W15541  13.561  13.177  11.645
43816W        W15542  17.808   0.324   4.610
43817W        W15543  43.343  17.266  13.045
43818W        W15544  28.619  22.589   3.168
43819W        W15545  44.400  35.769   4.159
43820W        W15546  42.118  21.619  12.977
43821W        W15547  23.204  36.472   1.685
43822W        W15548  35.849  36.073   3.209
43823W        W15549  41.266  36.733   3.376
43824W        W15550  35.859  44.512   3.239
43825W        W15551  24.778  42.968   1.736
43826W        W15552  33.491  43.065  10.623
43827W        W15553   7.558  17.616  12.869
43828W        W15554  33.958   7.218   3.615
43829W        W15555   3.217  24.997  14.071
43830W        W15556  39.095  26.082  11.893
43831W        W15557   5.372  42.822   0.809
43832W        W15558  31.502  34.408  10.970
43833W        W15559  11.160  20.218   4.800
43834W        W15560  37.767  29.545   2.786
43835W        W15561  40.283  30.883   4.267
43836W        W15562   0.866  27.643  14.078
43837W        W15563  29.101  25.489   3.833
43838W        W15564  16.088   7.787  12.637
43839W        W15565  25.578   0.838  10.677
43840W        W15566  12.198  21.343   3.621
43841W        W15567  27.563  27.666  14.206
43842W        W15568  39.804  19.505  12.020
43843W        W15569  44.488   5.828  11.505
43844W        W15570   9.413  31.212   1.293
43845W        W15571  39.751  44.310  12.541
43846W        W15572  16.763  36.560  13.046
43847W        W15573  18.368  13.653  11.219
43848W        W15574  43.786  38.686  13.827
43849W        W15575  17.012  36.821   0.933
43850W        W15576  44.777  20.725   2.332
43851W        W15577  26.711  26.941  14.534
43852W        W15578  34.615  40.077  13.352
43853W        W15579  39.017  41.066   4.167
43854W        W15580  23.236  27.585   1.424
43855W        W15581  44.016  41.769   2.386
43856W        W15582   5.719  35.916  11.847
43857W        W15583  24.148  43.795   1.660
43858W        W15584  34.518  37.646  13.408
43859W        W15585   6.677  19.100  11.990
43860W        W15586   3.426  27.430  11.685
43861W        W15587  13.774  36.324   2.819
43862W        W15588  16.823  18.570  11.195
43863W        W15589  34.327   5.190   3.720
43864W        W15590  41.359  16.326  11.592
43865W        W15591  41.460  19.707  14.426
43866W        W15592  23.524  40.805   0.400
43867W        W15593  25.574  43.761  13.878
43868W        W15594  19.577  14.806   5.121
43869W        W15595  26.901  29.217   0.256
43870W        W15596   4.409   2.838   3.193
43871W        W15597   5.972   3.275  12.526
43872W        W15598   9.760  22.310  11.529
43873W        W15599  19.499  12.214  13.362
43874W        W15600  29.524   6.667   1.896
43875W        W15601  40.617   7.218   3.304
43876W        W15602  15.711   9.796   3.794
43877W        W15603  38.154   3.770  14.325
43878W        W15604  30.880  23.467  11.930
43879W        W15605  15.768  19.606   2.763
43880W        W15606  24.587  38.004   1.469
43881W        W15607  11.369  34.071   0.850
43882W        W15608   7.645  24.102  10.728
43883W        W15609  35.859  32.604  10.649
43884W        W15610  26.381  32.286  12.711
43885W        W15611  12.826  15.843   4.547
43886W        W15612  18.642   0.507   4.019
43887W        W15613  42.125  22.483  11.858
43888W        W15614  42.761  34.948  10.518
43889W        W15615  10.289  41.985   1.839
43890W        W15616  16.241   3.466   0.766
43891W        W15617  13.740  18.040   3.765
43892W        W15618  20.252   5.770   4.198
43893W        W15619  43.873   9.814   3.901
43894W        W15620  33.450  31.041  10.904
43895W        W15621  32.516  34.627  13.552
43896W        W15622   3.851  31.705   4.940
43897W        W15623  36.383  27.641  13.555
43898W        W15624  41.061   9.772   2.158
43899W        W15625   6.490  30.674   1.111
43900W        W15626  17.842   0.011  12.867
43901W        W15627   3.810  31.558   4.438
43902W        W15628  43.725   4.436  13.891
43903W        W15629  18.520  24.790   3.755
43904W        W15630  26.212   8.854  13.042
43905W        W15631  18.013   7.690  13.514
43906W        W15632  24.511  32.140   0.564
43907W        W15633  10.189  40.348   5.103
43908W        W15634   5.278  40.836  12.946
43909W        W15635  32.452   8.461  10.715
43910W        W15636  41.940  14.283   5.000
43911W        W15637   3.694  37.080  14.862
43912W        W15638  37.642  36.266  13.348
43913W        W15639  20.483  20.525  11.888
43914W        W15640  12.336   8.314   1.426
43915W        W15641  16.510   9.604  13.876
43916W        W15642   8.728  11.257  11.995
43917W        W15643  17.493   8.059  14.097
43918W        W15644   1.457  13.584   2.879
43919W        W15645  34.018   7.985   2.254
43920W        W15646   7.504  36.175  11.955
43921W        W15647  16.877  32.641   4.222
43922W        W15648  14.224  23.491   0.476
43923W        W15649   2.279   3.972  13.431
43924W        W15650  43.759  27.429  14.826
43925W        W15651  15.267  32.469   4.631
43926W        W15652  28.118  36.915  11.305
43927W        W15653  22.068  40.268  11.683
43928W        W15654  22.046  31.695   2.335
43929W        W15655  41.825  25.065  11.003
43930W        W15656  35.569  31.582   4.340
43931W        W15657  38.119  11.292   3.397
43932W        W15658   4.894   0.267  13.025
43933W        W15659  17.562  42.611   0.326
43934W        W15660  23.263  43.762  12.311
43935W        W15661  18.023  10.526  12.436
43936W        W15662  30.592  36.421   0.762
43937W        W15663   9.302  10.649   4.473
43938W        W15664  36.455  18.184   4.128
43939W        W15665  37.108   5.957   3.651
43940W        W15666  17.591  38.659   0.783
43941W        W15667  41.806  13.675  12.707
43942W        W15668   1.954  30.011   3.587
43943W        W15669  22.294  44.250  11.488
43944W        W15670  13.380  30.227   2.810
43945W        W15671  39.842  31.135   4.309
43946W        W15672  23.039   2.390   3.637
43947W        W15673  13.963   9.299   2.680
43948W        W15674  25.119  10.023   5.188
43949W        W15675   8.868  38.855   5.026
43950W        W15676  20.976   4.359   2.925
43951W        W15677  17.874  32.264   0.030
43952W        W15678  16.267  38.453  11.996
43953W        W15679  10.156  20.051  12.178
43954W        W15680   3.315  17.300   2.322
43955W        W15681  14.369  40.590   3.606
43956W        W15682  24.947  37.825   5.029
43957W        W15683  44.794  18.737  10.813
43958W        W15684  33.899  17.564  11.450
43959W        W15685  37.584  40.906   0.468
43960W        W15686  34.839   2.906  13.481
43961W        W15687  11.697   2.693   1.371
43962W        W15688  43.946  40.903   4.052
43963W        W15689  29.501   5.933   3.207
43964W        W15690  31.663  36.034  13.053
43965W        W15691  21.019  33.883   1.862
43966W        W15692  27.542  27.978   3.725
43967W        W15693   5.203  34.943  13.749
43968W        W15694  33.088  19.642   2.393
43969W        W15695  22.147  24.833   0.073
43970W        W15696  22.106  29.370   2.717
43971W        W15697   9.421   3.454   1.915
43972W        W15698  26.660  17.785  13.364
43973W        W15699  40.507   8.338   1.860
43974W        W15700   1.593  25.513  12.787
43975W        W15701  29.877   7.451  12.443
43976W        W15702  35.230  12.669   2.010
43977W        W15703   2.960  41.763   0.418
43978W        W15704  22.307   8.416   3.640
43979W        W15705  31.376  10.407   4.104
43980W        W15706   5.312  26.939  10.773
43981W        W15707  22.675   8.470  13.884
43982W        W15708  43.191  34.473   3.685
43983W        W15709  23.422  34.651   0.101
43984W        W15710  17.028  16.151   4.794
43985W        W15711  30.408  11.186   3.813
43986W        W15712  14.599  36.075  11.304
43987W        W15713   4.122   4.938  12.640
43988W        W15714  19.158  23.507   3.431
43989W        W15715  18.442  11.785   0.718
43990W        W15716  23.332   9.883  13.975
43991W        W15717  11.662   4.211  10.550
43992W        W15718  11.219  37.081  12.407
43993W        W15719  43.597  19.488  13.399
43994W        W15720  35.174  39.296   2.846
43995W        W15721  18.027  23.477  13.134
43996W        W15722  14.753  15.664   0.460
43997W        W15723   8.574  15.781   2.666
43998W        W15724  21.272  16.347   0.733
43999W        W15725  42.963  23.994   4.202
44000W        W15726  43.269  41.089   2.621
44001W        W15727   9.810  20.536  10.782
44002W        W15728  35.877  19.684  14.664
44003W        W15729  32.750  11.451  11.516
44004W        W15730   2.962  20.127   4.784
44005W        W15731  31.045  37.878   4.977
44006W        W15732  30.317   1.684  14.908
44007W        W15733  25.059  42.323   2.826
44008W        W15734  13.740  12.976  10.700
44009W        W15735  32.952  42.078  13.260
44010W        W15736  32.890  28.040  14.970
44011W        W15737  27.034  30.673  11.915
44012W        W15738   4.290  37.879   3.629
44013W        W15739  29.050  26.654   1.833
44014W        W15740  16.081   3.932  12.889
44015W        W15741  35.548   3.949   2.251
44016W        W15742   5.349  26.879  12.196
44017W        W15743  16.654  26.286  13.650
44018W        W15744   1.512  43.106   0.309
44019W        W15745  23.622   6.298   1.897
44020W        W15746   2.020  20.975   3.627
44021W        W15747  18.279   1.774   3.399
44022W        W15748  15.240  28.515   0.544
44023W        W15749  36.935  41.489  13.338
44024W        W15750   9.671  35.957  13.828
44025W        W15751  43.310  30.261  12.223
44026W        W15752   7.704  31.194  12.434
44027W        W15753  26.076  29.209  14.466
44028W        W15754   3.064  39.053   1.435
44029W        W15755  14.721  19.782  11.415
44030W        W15756   4.669   8.341  14.344
44031W        W15757  23.291  31.069  11.901
44032W        W15758  20.776  15.055   0.421
44033W        W15759  16.490  22.077   4.258
44034W        W15760  19.670   4.814  13.275
44035W        W15761  32.004  41.493   4.623
44036W        W15762  21.321   1.411   1.764
44037W        W15763   7.408  39.518   2.817
44038W        W15764  27.653  42.429   4.615
44039W        W15765  16.080   7.905  12.102
44040W        W15766  38.819  13.205  12.004
44041W        W15767  18.126  42.757  13.976
44042W        W15768   4.655  43.447  11.853
44043W        W15769  10.135  32.606  11.913
44044W        W15770  26.176  11.759   0.708
44045W        W15771  24.639  31.490   1.231
44046W        W15772  20.270  29.696   2.353
44047W        W15773  42.906  11.048  10.965
44048W        W15774   9.191  28.404   1.404
44049W        W15775  14.800  38.262  13.022
44050W        W15776  14.119  20.485  12.746
44051W        W15777   2.925  39.103   2.860
44052W        W15778  14.716  11.253  10.717
44053W        W15779   3.327  36.616  12.123
44054W        W15780  23.643  39.014   4.213
44055W        W15781  35.619  26.752   1.428
44056W        W15782  38.547  11.108   4.798
44057W        W15783  20.600  15.980   0.477
44058W        W15784   9.549  25.003  11.593
44059W        W15785  43.405   0.444   0.247
44060W        W15786  43.676  32.227  10.657
44061W        W15787   3.390  33.623  14.326
44062W        W15788  28.885   4.939   4.140
44063W        W15789   7.774  13.733  12.931
44064W        W15790  39.411  12.161   0.729
44065W        W15791  32.415  28.501   1.394
44066W        W15792  25.505   6.062   3.667
44067W        W15793  43.516  33.571  10.565
44068W        W15794  26.589  25.519   2.828
44069W        W15795   2.294  27.675   4.816
44070W        W15796   7.640  24.031   2.854
44071W        W15797  41.826  33.250  14.025
44072W        W15798  26.908  25.739   3.803
44073W        W15799   7.844  29.584  14.572
44074W        W15800  12.424  17.694  14.736
44075W        W15801  31.369  22.818  14.873
44076W        W15802  17.384  32.137   1.234
44077W        W15803   3.248   1.764   2.645
44078W        W15804  28.487  19.071   4.668
44079W        W15805  13.118  37.997  12.825
44080W        W15806  40.876   3.795   0.185
44081W        W15807   9.417  17.275   2.415
44082W        W15808  25.934  39.975  14.305
44083W        W15809  22.977  43.720   3.747
44084W        W15810  31.505  29.138   2.350
44085W        W15811  14.038  34.366  10.967
44086W        W15812  16.293   0.244   2.675
44087W        W15813  39.218  12.599   0.487
44088W        W15814   5.014   2.170  13.434
44089W        W15815  13.856  42.349  13.882
44090W        W15816  17.258  36.564   4.718
44091W        W15817  23.998   8.652   0.422
44092W        W15818   6.099   4.500   2.785
44093W        W15819  36.865  36.868   4.276
44094W        W15820  10.425   3.333   4.567
44095W        W15821  31.610   3.066   3.657
44096W        W15822   9.680   9.884   0.041
44097W        W15823  35.551  24.243   3.449
44098W        W15824  36.463   8.863   0.752
44099W        W15825  16.590  24.333   0.594
44100W        W15826  44.390  36.376   1.718
44101W        W15827  19.757   5.219   2.004
44102W        W15828  37.911   0.750  11.121
44103W        W15829  11.686   6.049   0.361
44104W        W15830  10.197  43.785  13.093
44105W        W15831   2.698  25.026  12.988
44106W        W15832  14.086   3.942   3.786
44107W        W15833   6.098  43.876  11.128
44108W        W15834   5.444  36.593   1.333
44109W        W15835  17.294  32.940  14.824
44110W        W15836  43.284  20.875   1.251
44111W        W15837   3.460  17.707  13.459
44112W        W15838  41.793  37.945   4.584
44113W        W15839  16.156  32.944   0.148
44114W        W15840  10.320  10.463  13.316
44115W        W15841  21.967   7.581  12.652
44116W        W15842   4.605  42.774   2.787
44117W        W15843  41.899  33.021   1.818
44118W        W15844  13.738  27.059  14.299
44119W        W15845  38.300  34.815   1.423
44120W        W15846  36.745  40.248  10.891
44121W        W15847  35.812  32.301   3.912
44122W        W15848  43.498  10.372  10.797
44123W        W15849  38.786  44.821  13.117
44124W        W15850  16.871  17.869  14.383
44125W        W15851  11.397  38.824   4.172
44126W        W15852  32.907  38.772   4.386
44127W        W15853  34.413  22.035   0.309
44128W        W15854   5.925  24.388   1.829
44129W        W15855  34.519  19.505  13.430
44130W        W15856  20.165   9.191   4.906
44131W        W15857  41.465  32.538   2.525
44132W        W15858  13.646  14.147   3.407
44133W        W15859  24.289  30.508  12.461
44134W        W15860  40.525   6.850   4.982
44135W        W15861  13.611  42.513  10.726
44136W        W15862  44.008  19.592   1.692
44137W        W15863  17.170  29.235   4.998
44138W        W15864  33.125  35.658  12.832
44139W        W15865  15.343  17.031  13.385
44140W        W15866  30.627  26.492  14.692
44141W        W15867  20.058   7.410   2.708
44142W        W15868  16.312  15.638  10.727
44143W        W15869  17.594  14.686   0.994
44144W        W15870  34.302   8.901  13.377
44145W        W15871  38.612  38.448  14.268
44146W        W15872  26.389  35.967   1.766
44147W        W15873  16.293  12.543  11.826
44148W        W15874   2.196  39.982  12.939
44149W        W15875  15.097   9.720   3.361
44150W        W15876   7.412  27.622  12.619
44151W        W15877  34.835  39.361  12.609
44152W        W15878   6.847  10.773  13.268
44153W        W15879  37.305  17.827   3.929
44154W        W15880   9.181  27.166   3.221
44155W        W15881  16.536  20.813   2.873
44156W        W15882  26.377   4.122  14.419
44157W        W15883  20.592   2.270   4.374
44158W        W15884  17.787  20.316  11.960
44159W        W15885  17.907  18.184  10.508
44160W        W15886  13.942  15.693  13.845
44161W        W15887  12.529  37.897  11.440
44162W        W15888  31.026  35.867   1.139
44163W        W15889  39.110   3.964   2.898
44164W        W15890  38.437   7.086  11.348
44165W        W15891  33.818  24.044  14.347
44166W        W15892  33.808  43.728  10.900
44167W        W15893   9.345  39.409   0.791
44168W        W15894  22.880  36.578  14.949
44169W        W15895  15.775  37.368  14.019
44170W        W15896  36.484  20.178  14.046
44171W        W15897   7.906  19.587  14.905
44172W        W15898  42.071  38.766  11.136
44173W        W15899  23.486  28.611   1.400
44174W        W15900  35.984  35.311   2.360
44175W        W15901  15.505  27.589   0.342
44176W        W15902   0.450  33.412  12.427
44177W        W15903  37.834   3.700  12.039
44178W        W15904  24.607  23.222  13.072
44179W        W15905  26.407   9.232  14.399
44180W        W15906  41.503  10.339   0.861
44181W        W15907  22.726  18.979   4.245
44182W        W15908  38.831  20.265   1.729
44183W        W15909  11.961  20.719   0.340
44184W        W15910  24.348  10.437   9.941
44185W        W15911  20.543  39.222  11.988
44186W        W15912  29.355  23.676   0.762
44187W        W15913  23.264  42.271   2.421
44188W        W15914  30.563  19.283  12.143
44189W        W15915  37.924  13.730   4.438
44190W        W15916  15.280  41.456   2.849
44191W        W15917  23.833  35.579  11.245
44192W        W15918  20.298  36.233  12.602
44193W        W15919  35.930  13.342  12.578
44194W        W15920   6.378  35.312   1.930
44195W        W15921  37.900  13.094   4.224
44196W        W15922  16.573  14.302   2.837
44197W        W15923  29.446   7.213  12.065
44198W        W15924  29.940  13.138   1.925
44199W        W15925  43.033  10.053   4.099
44200W        W15926  37.985   1.839   2.674
44201W        W15927  42.735   3.673   3.350
44202W        W15928  14.542  21.447   0.923
44203W        W15929  43.578  16.669  11.001
44204W        W15930  23.176  19.208  13.311
44205W        W15931  30.670  12.196  10.871
44206W        W15932  11.453  28.449  12.534
44207W        W15933  15.272  42.115  12.965
44208W        W15934  17.240   9.798  11.900
44209W        W15935  17.313   0.829  13.942
44210W        W15936  20.771   4.319   0.492
44211W        W15937   1.507   4.685  14.369
44212W        W15938   3.794  26.205  12.527
44213W        W15939  32.504  30.929   3.832
44214W        W15940  13.878  15.570   1.244
44215W        W15941  16.126  40.623  12.924
44216W        W15942  17.815  19.005  14.518
44217W        W15943   6.397  12.744  12.340
44218W        W15944  37.950  12.802  14.194
44219W        W15945   2.110  38.658   3.279
44220W        W15946   9.382  29.746  11.978
44221W        W15947  24.596  34.110  13.748
44222W        W15948  40.606  42.904   2.210
44223W        W15949  22.106  18.703   0.373
44224W        W15950   9.028  27.989  11.684
44225W        W15951  12.783   2.455   0.457
44226W        W15952  22.359   8.279  11.204
44227W        W15953  23.636  36.189  11.842
44228W        W15954  17.127  38.529   0.440
44229W        W15955  11.558  43.284   3.171
44230W        W15956   4.858   5.895  13.958
44231W        W15957   6.121  22.059   0.698
44232W        W15958  21.133  42.349  12.561
44233W        W15959  40.519  19.081   1.239
44234W        W15960   3.795  28.600   4.835
44235W        W15961  33.417  11.565  11.140
44236W        W15962   0.453  16.861   3.678
44237W        W15963   3.983  15.171   0.970
44238W        W15964  18.239   8.688   3.943
44239W        W15965  37.077  42.981   0.237
44240W        W15966  33.126  26.532   0.852
44241W        W15967  15.111  14.286   2.618
44242W        W15968  14.915  42.485  12.978
44243W        W15969  31.432   5.331  11.500
44244W        W15970  27.587  29.569  14.248
44245W        W15971  33.436   6.683   0.434
44246W        W15972  38.356  20.550   3.598
44247W        W15973  28.608  17.004  10.199
44248W        W15974   2.774  26.189   4.877
44249W        W15975  41.838  23.214  11.243
44250W        W15976  41.637  35.062   4.985
44251W        W15977  15.159  42.868  10.168
44252W        W15978  23.459  30.121   0.471
44253W        W15979   2.457  11.316   3.610
44254W        W15980  28.114   5.872  12.674
44255W        W15981   1.043  29.836  11.147
44256W        W15982  21.473   0.950  12.112
44257W        W15983  14.806  11.523   4.194
44258W        W15984  43.996  27.046  13.464
44259W        W15985  44.254  26.389  14.069
44260W        W15986   4.675  22.063  12.504
44261W        W15987  27.483  34.562  10.908
44262W        W15988  10.665   0.967   4.189
44263W        W15989   0.241  25.360  14.087
44264W        W15990  19.340  26.023   3.365
44265W        W15991  20.827  42.039   4.134
44266W        W15992  33.380  32.559  12.971
44267W        W15993  31.382   0.381  10.738
44268W        W15994  20.644   5.618  13.367
44269W        W15995   1.451  31.911   0.053
44270W        W15996   9.320  26.126   2.354
44271W        W15997  13.993   5.171  14.844
44272W        W15998  44.994  37.568  10.426
44273W        W15999  10.272   7.827  13.406
44274W        W16000  15.321   9.723   1.065
44275W        W16001  11.510  22.531  14.320
44276W        W16002  43.860  16.253   1.746
44277W        W16003   4.817  24.017   0.710
44278W        W16004  40.092  25.450  11.228
44279W        W16005  29.549  37.828  10.706
44280W        W16006  25.545   1.199   4.542
44281W        W16007  37.362  33.115   3.088
44282W        W16008  15.729  26.572  13.811
44283W        W16009  13.577  10.782  10.658
44284W        W16010  19.450  42.479   4.077
44285W        W16011  31.525  12.949   2.144
44286W        W16012  16.251  44.445   4.781
44287W        W16013  22.465  26.047   0.355
44288W        W16014  12.094  41.997  11.865
44289W        W16015  38.837  42.325   1.425
44290W        W16016  29.367  14.402   0.320
44291W        W16017  14.526  30.475   1.864
44292W        W16018  40.446   5.490   0.867
44293W        W16019  42.720  34.031  14.999
44294W        W16020  37.879   2.526  10.596
44295W        W16021  27.956  13.153  11.648
44296W        W16022  31.637   8.625  13.866
44297W        W16023  33.520   6.716   3.700
44298W        W16024  32.628   5.461   1.599
44299W        W16025   9.791  33.476  10.161
44300W        W16026  10.212  20.232   0.826
44301W        W16027  16.366  19.494   4.041
44302W        W16028  24.425  27.797  14.585
44303W        W16029   3.677  20.516   3.568
44304W        W16030  19.998  19.595   0.291
44305W        W16031  18.968  10.722   3.831
44306W        W16032  16.897  30.919  12.076
44307W        W16033  17.704  12.613  10.698
44308W        W16034  15.150  31.438  13.999
44309W        W16035  36.423  44.754   4.759
44310W        W16036  33.172  19.147  13.888
44311W        W16037  24.238  36.618   2.308
44312W        W16038   8.195  44.753   4.818
44313W        W16039  30.788  33.342  11.493
44314W        W16040   9.310  13.318   1.297
44315W        W16041   7.923  28.600   0.004
44316W        W16042   0.801  36.911   2.801
44317W        W16043  30.151  25.431   9.717
44318W        W16044  44.104  23.573  11.145
44319W        W16045  35.876  43.869  14.405
44320W        W16046  10.902  21.614   3.694
44321W        W16047  31.064  26.494  10.236
44322W        W16048  33.378   5.976  14.897
44323W        W16049  28.595  20.036   1.421
44324W        W16050  40.600  29.793   3.148
44325W        W16051  23.760  24.519   4.873
44326W        W16052  30.848  41.360  12.052
44327W        W16053  18.706  32.445   4.318
44328W        W16054  22.013   9.803  10.423
44329W        W16055  40.847  21.618   0.704
44330W        W16056  29.140  13.771   0.906
44331W        W16057   8.390  18.066  12.152
44332W        W16058  12.021  18.737  12.788
44333W        W16059  29.953   5.993  13.339
44334W        W16060   7.783   6.929   2.733
44335W        W16061  27.165  44.145   3.807
44336W        W16062  28.947   7.377  11.108
44337W        W16063  43.760   5.733   1.177
44338W        W16064  12.418  13.798  11.219
44339W        W16065  21.016  11.128   3.143
44340W        W16066  18.615  13.222   2.796
44341W        W16067  13.871   9.123   1.668
44342W        W16068  26.041  18.057  13.928
44343W        W16069   8.170  18.526  12.432
44344W        W16070  34.337  23.601   1.488
44345W        W16071  18.194  41.474  14.347
44346W        W16072  12.825  36.124  12.985
44347W        W16073  20.263  10.773  12.090
44348W        W16074  37.550  30.997   2.312
44349W        W16075  28.951  13.428   3.277
44350W        W16076  20.220  29.366   0.751
44351W        W16077  43.521  15.079  14.758
44352W        W16078  43.464   5.772  12.458
44353W        W16079  30.944  10.404   3.764
44354W        W16080  29.872   8.406   3.692
44355W        W16081  34.887  38.951   1.306
44356W        W16082  27.691   7.240   4.136
44357W        W16083   6.469   0.954   1.442
44358W        W16084  20.748  36.930  11.185
44359W        W16085  42.463  17.187  13.910
44360W        W16086  29.134  13.560  12.908
44361W        W16087   9.345  36.365  12.119
44362W        W16088   9.369  27.055  12.871
44363W        W16089  39.382  20.253  12.403
44364W        W16090  29.271  29.554   3.090
44365W        W16091  33.284  24.678  12.333
44366W        W16092  44.774  10.618  12.843
44367W        W16093  17.030  40.297  11.225
44368W        W16094  14.586  42.534  11.531
44369W        W16095  17.590  42.411   4.401
44370W        W16096  43.447  19.422   2.390
44371W        W16097  26.395  13.400   1.904
44372W        W16098  26.134  10.221   3.839
44373W        W16099  16.850   7.452  10.685
44374W        W16100  15.895  40.684  12.012
44375W        W16101   0.380  42.932   2.953
44376W        W16102  27.469   3.848  12.531
44377W        W16103  24.714  21.342  11.175
44378W        W16104  41.915   5.002   1.313
44379W        W16105  39.087  19.233   4.192
44380W        W16106  44.679  19.600   2.482
44381W        W16107  14.838  29.258  11.796
44382W        W16108  23.190   4.289   4.114
44383W        W16109   3.294   0.421  14.924
44384W        W16110   0.896  38.517   1.305
44385W        W16111  12.650  31.078  14.828
44386W        W16112  43.396  33.611   1.427
44387W        W16113   0.267  32.587  11.254
44388W        W16114  32.535  29.597  14.236
44389W        W16115  12.487  20.412  14.236
44390W        W16116  21.293   1.316  14.766
44391W        W16117  21.565  13.046   2.275
44392W        W16118  39.507   3.291   3.364
44393W        W16119  21.064  36.298  12.575
44394W        W16120  14.042  18.665   1.933
44395W        W16121  44.348   2.913  13.984
44396W        W16122  32.476  22.658  10.312
44397W        W16123  18.008   4.317  11.566
44398W        W16124  43.789  28.385  11.581
44399W        W16125  43.286  44.725  10.671
44400W        W16126  13.640   2.828   3.858
44401W        W16127  16.122  15.358  14.568
44402W        W16128   5.148  34.712   2.618
44403W        W16129  14.327   0.958   3.728
44404W        W16130  31.449  39.459  13.035
44405W        W16131  27.234  21.941   1.833
44406W        W16132  33.841  13.248  13.032
44407W        W16133  32.148  44.391   1.491
44408W        W16134  10.637  34.368   2.265
44409W        W16135  25.187  18.509  13.804
44410W        W16136  25.671  44.970  13.436
44411W        W16137  25.634  16.916   4.446
44412W        W16138  28.201  17.126   0.009
44413W        W16139  11.869  17.696  12.916
44414W        W16140  35.829  24.917   3.712
44415W        W16141  21.820  12.635   3.239
44416W        W16142  17.341  23.896   4.135
44417W        W16143  22.056  11.772   1.327
44418W        W16144   0.175  33.955   3.665
44419W        W16145  23.105   1.728  14.828
44420W        W16146  13.806  15.731  12.820
44421W        W16147  31.907  17.583   2.279
44422W        W16148  24.028  31.569   0.261
44423W        W16149  22.046  11.205  13.622
44424W        W16150  20.599  23.788   3.784
44425W        W16151  28.117   8.125  11.362
44426W        W16152  17.078  25.509  13.389
44427W        W16153  34.886  40.800   0.927
44428W        W16154  42.640  42.480   4.332
44429W        W16155  17.723   7.458   4.406
44430W        W16156  21.739  13.191  12.976
44431W        W16157  33.409   0.153  11.502
44432W        W16158  42.422  44.284  11.609
44433W        W16159  15.972  11.186  12.495
44434W        W16160  43.417  21.130  14.895
44435W        W16161  22.981  28.912  14.831
44436W        W16162   3.908  21.593   0.275
44437W        W16163  11.277   9.899  11.683
44438W        W16164  10.593  40.758  13.330
44439W        W16165  27.087  44.710  11.803
44440W        W16166   4.994  20.086  10.679
44441W        W16167   3.568   6.295  11.506
44442W        W16168   9.913  44.517  12.831
44443W        W16169  38.016  29.941  12.939
44444W        W16170  13.341  24.959  14.120
44445W        W16171   0.914  43.786   2.806
44446W        W16172   7.829  13.667  11.176
44447W        W16173  33.023   1.798  14.336
44448W        W16174  21.603   9.736   1.728
44449W        W16175  14.555   3.294   0.272
44450W        W16176   3.372  19.113   3.573
44451W        W16177  27.082  15.688  12.533
44452W        W16178   4.691  28.411  10.990
44453W        W16179  21.380  40.142  14.251
44454W        W16180  21.491  24.111  13.412
44455W        W16181  36.888  13.097  13.889
44456W        W16182  41.746  33.637   0.833
44457W        W16183  44.694   2.743  10.444
44458W        W16184  19.141   6.266   1.869
44459W        W16185  39.383  43.923   0.889
44460W        W16186   3.798  12.754   2.387
44461W        W16187  25.179   7.900   0.799
44462W        W16188  31.997  32.205  13.142
44463W        W16189   5.697   6.989  13.333
44464W        W16190  25.507  36.867   2.489
44465W        W16191   8.314   7.339  11.055
44466W        W16192  44.388  37.919  11.404
44467W        W16193   0.932  16.690   3.656
44468W        W16194  42.742  16.748  12.516
44469W        W16195  36.197   7.304  10.441
44470W        W16196  40.728  42.508  13.389
44471W        W16197  33.864   7.907  11.768
44472W        W16198  27.294  14.245   3.572
44473W        W16199  41.456  38.583   3.173
44474W        W16200   2.788  43.849  11.111
44475W        W16201   0.209  27.609   2.873
44476W        W16202  14.101   6.151  10.844
44477W        W16203  35.371  11.753   0.358
44478W        W16204  42.475  32.672   0.425
44479W        W16205   2.362  32.458   3.418
44480W        W16206  39.405  27.463  14.347
44481W        W16207  22.770  36.653  12.005
44482W        W16208  12.613   4.185  14.949
44483W        W16209  35.125  13.403  14.396
44484W        W16210  32.780  15.087  11.610
44485W        W16211  36.710  41.946   1.648
44486W        W16212  29.878  18.343  14.830
44487W        W16213  34.122   6.798  14.280
44488W        W16214  11.723   6.739  14.339
44489W        W16215   3.677  14.231  11.499
44490W        W16216  30.976  37.948   4.011
44491W        W16217  15.117  37.121  14.795
44492W        W16218  33.543   7.516  11.606
44493W        W16219  27.186  27.160  12.968
44494W        W16220  36.504  16.731   0.903
44495W        W16221  16.319   4.817  14.781
44496W        W16222  36.389  17.379   0.415
44497W        W16223  41.355  14.898  13.871
44498W        W16224  42.903  22.073  13.326
44499W        W16225  40.795  38.634   5.152
44500W        W16226   3.672  37.446  14.496
44501W        W16227  36.555   9.347   0.464
44502W        W16228  44.702  29.526   2.754
44503W        W16229  42.798  22.174  12.699
44504W        W16230   1.947  37.124  14.885
44505W        W16231  15.144   1.332   4.720
44506W        W16232  41.554  28.486   3.286
44507W        W16233   8.309  23.236  10.761
44508W        W16234  34.537  13.327   0.226
44509W        W16235  25.521  31.296   0.732
44510W        W16236   0.237   5.191   3.714
44511W        W16237  42.744  12.939   1.752
44512W        W16238   9.495  25.702   1.130
44513W        W16239  15.858  26.072   4.120
44514W        W16240  38.027   9.139   2.222
44515W        W16241  27.722  36.889   0.606
44516W        W16242  37.509  27.732  14.381
44517W        W16243   6.354  25.306   1.766
44518W        W16244  41.095  38.669  12.195
44519W        W16245  28.769  13.773  11.638
44520W        W16246  14.773  43.574   1.217
44521W        W16247  42.930  34.698  12.162
44522W        W16248  15.436  28.541   1.555
44523W        W16249  14.430   9.901  14.742
44524W        W16250  36.663  28.383   1.426
44525W        W16251  25.351  16.191   3.361
44526W        W16252  38.788  29.755  11.554
44527W        W16253   6.998  36.104   1.277
44528W        W16254  11.532  14.690  14.997
44529W        W16255  23.128  37.964   4.409
44530W        W16256  28.854  10.088  11.888
44531W        W16257  26.411  31.484   0.804
44532W        W16258   6.389  29.907  13.569
44533W        W16259  14.240   7.203  12.548
44534W        W16260   0.225  23.494  14.454
44535W        W16261   5.669  27.058  14.411
44536W        W16262   4.441   6.626  10.998
44537W        W16263   1.052   3.334   5.175
44538W        W16264   9.993  39.298  13.949
44539W        W16265  35.111  30.451   4.093
44540W        W16266  33.950  43.862  14.978
44541W        W16267  28.040  25.584  13.357
44542W        W16268  21.068  29.395   3.736
44543W        W16269  44.783   7.814  10.789
44544W        W16270  26.149  15.024   0.987
44545W        W16271  19.580  39.773   2.153
44546W        W16272  22.209  16.920   4.552
44547W        W16273  23.626  28.340  13.350
44548W        W16274  31.278  30.536  12.126
44549W        W16275  35.767  14.260  12.491
44550W        W16276   4.714  32.424   2.272
44551W        W16277   6.584  43.777  11.007
44552W        W16278   6.300  44.501   1.365
44553W        W16279   8.194  13.707   0.758
44554W        W16280   6.916  23.151   0.941
44555W        W16281  11.971  24.228   4.972
44556W        W16282  10.615  44.482   1.420
44557W        W16283   0.730  43.972  13.444
44558W        W16284  12.850  10.139   1.345
44559W        W16285  38.962  25.097   2.938
44560W        W16286  43.865  27.311  11.067
44561W        W16287  28.230   3.268   4.678
44562W        W16288  20.652   0.411  14.776
44563W        W16289  31.557  41.967   4.657
44564W        W16290  41.965  24.223   3.422
44565W        W16291  41.983  41.734  14.383
44566W        W16292  34.542  32.339  10.386
44567W        W16293  32.457  24.971  14.033
44568W        W16294  22.737  29.516   1.200
44569W        W16295   1.888  30.860   3.452
44570W        W16296  24.734  27.488   2.811
44571W        W16297   7.722   4.225   4.328
44572W        W16298  22.597  42.021   2.226
44573W        W16299  33.032  44.358  14.611
44574W        W16300  18.152  12.868  14.408
44575W        W16301   9.675  27.049   2.385
44576W        W16302  41.160  37.675  11.073
44577W        W16303  34.481   8.140   4.784
44578W        W16304  39.430  29.227   2.332
44579W        W16305   3.465  36.713   3.197
44580W        W16306   9.152  40.960  12.445
44581W        W16307  40.083  15.870   2.673
44582W        W16308  16.553  30.908   2.876
44583W        W16309  44.753  35.550  12.887
44584W        W16310  16.607  11.820   0.337
44585W        W16311  30.832   4.270  14.970
44586W        W16312  26.118   3.767  14.857
44587W        W16313  15.281  26.070   0.718
44588W        W16314  26.194   1.646  10.485
44589W        W16315  30.580  32.367  13.519
44590W        W16316  34.105  19.667   0.974
44591W        W16317  14.924  31.973  10.030
44592W        W16318  22.921   6.250   2.196
44593W        W16319  39.545  28.031  11.250
44594W        W16320  39.350  24.764   2.977
44595W        W16321  26.120  38.500  10.687
44596W        W16322   3.540  21.843  14.945
44597W        W16323  24.034  39.520  14.774
44598W        W16324  21.860   0.224   1.771
44599W        W16325   9.632  20.061  10.917
44600W        W16326  26.202  34.300   1.963
44601W        W16327  33.449  35.123  13.557
44602W        W16328   4.467  28.261  10.505
44603W        W16329  30.665  27.578  11.306
44604W        W16330   3.933   8.741  14.536
44605W        W16331  37.367  15.247  12.357
44606W        W16332  26.221  35.872  12.849
44607W        W16333   3.600  37.823  13.166
44608W        W16334  21.944  38.866  13.102
44609W        W16335  44.410  27.950  12.915
44610W        W16336  41.054  29.705   4.344
44611W        W16337  10.775  40.131  10.690
44612W        W16338  28.129  29.651  12.576
44613W        W16339  30.914  16.804  12.469
44614W        W16340  30.639  44.787  11.573
44615W        W16341  37.439  42.502   3.682
44616W        W16342   0.710  23.008   1.421
44617W        W16343  23.447  22.546   0.426
44618W        W16344   4.835  40.593  14.444
44619W        W16345   0.809  13.107  14.182
44620W        W16346  14.410   4.604   3.236
44621W        W16347  15.354  42.398   4.688
44622W        W16348  34.361  16.698   0.699
44623W        W16349  18.150  23.986  12.949
44624W        W16350  14.383  38.363   2.252
44625W        W16351  27.745   3.668  11.054
44626W        W16352  15.312  24.943   0.282
44627W        W16353  23.042   1.341  13.998
44628W        W16354  11.728   3.036   0.400
44629W        W16355  19.353   3.360  10.357
44630W        W16356   8.352  29.596   2.990
44631W        W16357  35.059  12.905   4.090
44632W        W16358  36.970  22.768  14.522
44633W        W16359  43.559  43.887   1.791
44634W        W16360  33.967  16.789  11.917
44635W        W16361   5.201  17.333   3.772
44636W        W16362  26.536  30.111   4.585
44637W        W16363  25.794  18.916  11.198
44638W        W16364   6.628  18.261  10.734
44639W        W16365   5.700  15.160  10.596
44640W        W16366  44.032   0.455   1.642
44641W        W16367  23.266  26.647  11.090
44642W        W16368   4.338  25.498   4.651
44643W        W16369  20.484  14.167   0.843
44644W        W16370   5.241  10.475   0.268
44645W        W16371   6.065   2.242  14.818
44646W        W16372  10.663  16.022  14.415
44647W        W16373   6.393  20.637  12.586
44648W        W16374  26.148  40.366  14.021
44649W        W16375  36.021   9.302   1.287
44650W        W16376  23.532  21.245  10.777
44651W        W16377   4.808  33.558  13.529
44652W        W16378  34.952  25.689  10.644
44653W        W16379   6.705  34.428  13.310
44654W        W16380   0.643  41.602   0.867
44655W        W16381  30.076  13.773   3.704
44656W        W16382  19.457   8.556  11.843
44657W        W16383   7.371  18.388   4.039
44658W        W16384  35.359   4.403   4.559
44659W        W16385   4.286  13.278   2.785
44660W        W16386  44.381  34.642  12.629
44661W        W16387  30.641  25.757   0.976
44662W        W16388  21.726  17.349   0.388
44663W        W16389  21.615  29.887   2.280
44664W        W16390  18.224   2.884   0.220
44665W        W16391  41.346   0.713   3.160
44666W        W16392  29.975   2.011  10.785
44667W        W16393   7.858  17.129   4.621
44668W        W16394  41.994  18.932  14.899
44669W        W16395  34.850  39.137  11.096
44670W        W16396  22.549  38.823   2.479
44671W        W16397  42.513  36.320  13.482
44672W        W16398  26.950  27.125  11.170
44673W        W16399  16.236  25.274  12.356
44674W        W16400  24.157  26.969  13.063
44675W        W16401  43.005   5.856   2.128
44676W        W16402   8.646  41.949  14.873
44677W        W16403  16.788   2.991  13.167
44678W        W16404  18.302   5.240   3.674
44679W        W16405   4.504  37.445  11.857
44680W        W16406  11.272  33.475   4.516
44681W        W16407  40.423  43.442  10.756
44682W        W16408  33.163  31.566   2.314
44683W        W16409  14.360  21.955  14.908
44684W        W16410  15.764  23.133  12.617
44685W        W16411  17.833   0.537  11.992
44686W        W16412  19.050  10.546  13.300
44687W        W16413  37.595  16.655   1.367
44688W        W16414  30.893   4.237  13.758
44689W        W16415   7.935  43.565  12.018
44690W        W16416  17.779  20.229   4.976
44691W        W16417  25.474  15.918   2.927
44692W        W16418  39.790  13.549   4.100
44693W        W16419  36.904  39.841  10.609
44694W        W16420   8.303  16.846   4.628
44695W        W16421  10.706   6.861  13.045
44696W        W16422  38.987  32.867   1.637
44697W        W16423  13.464  38.892  11.896
44698W        W16424   6.020  40.994  12.218
44699W        W16425  25.449   7.661   0.434
44700W        W16426  28.420   2.696   3.104
44701W        W16427   3.965  32.837   4.987
44702W        W16428  43.255  29.631   2.732
44703W        W16429  28.626  20.662   0.997
44704W        W16430  40.759  36.340   0.034
44705W        W16431   5.279  15.350  11.531
44706W        W16432   3.848   8.021  10.914
44707W        W16433   1.384  40.779   1.231
44708W        W16434   2.504  29.898  14.692
44709W        W16435  20.555  21.244  10.257
44710W        W16436  14.754  13.405  12.977
44711W        W16437  20.789  31.869  11.527
44712W        W16438  41.277  27.055  13.854
44713W        W16439  20.537   0.273  14.288
44714W        W16440  34.987   5.867   2.775
44715W        W16441  41.938  37.361  14.191
44716W        W16442  13.835  41.878   4.143
44717W        W16443   6.093  36.776   4.137
44718W        W16444  13.770  25.984   2.364
44719W        W16445  34.770  25.616   1.811
44720W        W16446  25.976  18.795   0.346
44721W        W16447   3.219  10.349   1.675
44722W        W16448  39.560  26.175  12.090
44723W        W16449  18.658  24.922   3.246
44724W        W16450  27.893  32.082   4.019
44725W        W16451  44.423  41.559  13.274
44726W        W16452  28.879   6.453  13.855
44727W        W16453  15.850   2.413  12.300
44728W        W16454   4.871  41.754  10.633
44729W        W16455  28.738  15.070   0.483
44730W        W16456   3.973  43.701   2.356
44731W        W16457  37.942  13.310  14.356
44732W        W16458  22.912  33.237   0.017
44733W        W16459   2.047   1.846  10.355
44734W        W16460  15.670  17.325  12.980
44735W        W16461  37.365  14.256  10.288
44736W        W16462   6.666   1.083   4.119
44737W        W16463  12.172  29.619  13.857
44738W        W16464  36.167  19.171   1.983
44739W        W16465  14.098  20.774  11.486
44740W        W16466   6.437   2.405   2.576
44741W        W16467  38.580  44.946   0.425
44742W        W16468  20.985   4.688  13.604
44743W        W16469  16.931  33.912   4.557
44744W        W16470  41.950  24.107   4.394
44745W        W16471  22.907  15.729  13.873
44746W        W16472   2.766  17.267   4.583
44747W        W16473   1.905   7.047   0.811
44748W        W16474  27.629  26.650   0.479
44749W        W16475  28.628  33.981   3.125
44750W        W16476  37.281  10.345   1.885
44751W        W16477  15.064  28.700   3.783
44752W        W16478  11.817  42.499  10.658
44753W        W16479  16.801   8.715   5.033
44754W        W16480  36.920  43.723   3.601
44755W        W16481  37.617   5.256  11.550
44756W        W16482  41.650  33.040  13.382
44757W        W16483  43.172  41.067  13.106
44758W        W16484  18.065  41.861   1.224
44759W        W16485  12.363   0.888  13.011
44760W        W16486   5.749  29.922   3.710
44761W        W16487  37.532   6.940  12.131
44762W        W16488  31.725  13.631  12.077
44763W        W16489  14.799  10.112   3.188
44764W        W16490  24.548  19.318   3.806
44765W        W16491  34.015  18.214   2.987
44766W        W16492   4.791   2.719  12.391
44767W        W16493  25.981  31.569  14.491
44768W        W16494  20.785  29.846  12.932
44769W        W16495  17.767  25.306  12.937
44770W        W16496  29.996  31.146  10.674
44771W        W16497  11.730  31.060  14.866
44772W        W16498  21.679   4.940  12.663
44773W        W16499  42.698   2.261   4.149
44774W        W16500   4.381  24.273  12.593
44775W        W16501   9.783  35.584  12.523
44776W        W16502  25.193  19.536   1.835
44777W        W16503   9.669  31.384   0.871
44778W        W16504  30.875  38.143  11.149
44779W        W16505  12.330   6.795   4.162
44780W        W16506  14.609  35.873   1.663
44781W        W16507  32.546  36.533  14.428
44782W        W16508  18.594  14.167  11.357
44783W        W16509  44.252  27.621   4.500
44784W        W16510  44.897  34.176   4.249
44785W        W16511  30.411  11.166  14.838
44786W        W16512  15.165   8.759   1.758
44787W        W16513  16.210  30.109   3.123
44788W        W16514  31.574   5.721  11.807
44789W        W16515  34.869  29.141   2.432
44790W        W16516  40.681  15.301  13.461
44791W        W16517  40.549  19.573   5.049
44792W        W16518   6.879  38.543  10.604
44793W        W16519  26.621  20.075  13.512
44794W        W16520  24.360  38.805  14.889
44795W        W16521  31.839  33.729  13.998
44796W        W16522  42.417  16.517   4.636
44797W        W16523  32.093  26.266   0.756
44798W        W16524  44.355  25.153  13.590
44799W        W16525   8.963  29.545  13.937
44800W        W16526  20.750  27.149  11.594
44801W        W16527  12.354  16.686  13.846
44802W        W16528   5.978  33.573   0.389
44803W        W16529  22.927  44.844   3.622
44804W        W16530  29.503  41.816   0.323
44805W        W16531   9.382  15.305  11.590
44806W        W16532  18.961  24.924   4.074
44807W        W16533  18.613  21.048  13.859
44808W        W16534  24.018   6.241  12.085
44809W        W16535  29.961   4.767   2.289
44810W        W16536  17.771   0.571   2.714
44811W        W16537   0.412   3.808  13.686
44812W        W16538  43.146   4.756  10.913
44813W        W16539  22.499   8.104   1.311
44814W        W16540  39.021  26.535   2.189
44815W        W16541   7.735  17.304   0.297
44816W        W16542  26.663  25.082  14.749
44817W        W16543  41.611  38.070   1.017
44818W        W16544  17.549  23.642  13.367
44819W        W16545  37.335  39.163   4.115
44820W        W16546  36.908  37.655   4.551
44821W        W16547  31.062  27.184   5.156
44822W        W16548  44.419  16.156   0.797
44823W        W16549   5.275  35.242  12.469
44824W        W16550   9.749  20.975  13.475
44825W        W16551  13.902  29.175  11.173
44826W        W16552  32.125  29.206   3.382
44827W        W16553  41.480  35.858  14.462
44828W        W16554  26.445  34.481   3.873
44829W        W16555  15.088  31.691   4.134
44830W        W16556  33.659   6.220  11.021
44831W        W16557  12.288  19.771  13.324
44832W        W16558  43.350   1.829   1.387
44833W        W16559  38.854  26.072   3.900
44834W        W16560  13.867  22.271  13.262
44835W        W16561  32.901   7.062   0.913
44836W        W16562  44.944   3.763   3.099
44837W        W16563   1.158   9.074  13.173
44838W        W16564  20.757  11.731  13.269
44839W        W16565  29.178  11.586   4.116
44840W        W16566  14.803  38.081  11.127
44841W        W16567   1.785  39.571   2.431
44842W        W16568   7.733  35.559   2.234
44843W        W16569   9.639   0.503   3.362
44844W        W16570  13.480  43.217  14.058
44845W        W16571  12.883  12.245  12.899
44846W        W16572  41.963  27.683  14.306
44847W        W16573  21.759   4.216  13.136
44848W        W16574  27.468  16.575   0.367
44849W        W16575  39.861  35.514   3.456
44850W        W16576  22.948  17.251  13.540
44851W        W16577   7.153  41.898   0.824
44852W        W16578  21.400  17.558  13.739
44853W        W16579  13.796   9.586   1.889
44854W        W16580  23.250  40.939  14.875
44855W        W16581  15.586  39.157  11.010
44856W        W16582   3.652   1.182   2.284
44857W        W16583  15.796  39.179  14.428
44858W        W16584  39.832  27.283   4.595
44859W        W16585  32.116  34.040  11.091
44860W        W16586   5.866  20.556  14.350
44861W        W16587  22.780   6.226   4.569
44862W        W16588  16.805  22.163   1.927
44863W        W16589  14.139   6.109   1.395
44864W        W16590  23.198  41.762  10.795
44865W        W16591  10.651   3.487   2.280
44866W        W16592  42.911   6.882   0.428
44867W        W16593  13.953   2.880   2.871
44868W        W16594  34.147  34.672  14.120
44869W        W16595  19.113  38.347   3.272
44870W        W16596  12.577  25.946   4.475
44871W        W16597   6.709   6.224  14.013
44872W        W16598  13.311  11.874   3.390
44873W        W16599  39.270  17.292   1.871
44874W        W16600   5.946  22.590   1.970
44875W        W16601  11.440  44.855  11.928
44876W        W16602  19.234  16.059   4.346
44877W        W16603  39.811   3.772  12.123
44878W        W16604   8.898  39.442  12.992
44879W        W16605  25.634  25.190   0.238
44880W        W16606   3.938   4.712   4.538
44881W        W16607  30.784  43.469  14.919
44882W        W16608   8.444  30.213  13.402
44883W        W16609  26.516  27.812   2.201
44884W        W16610  21.959  39.329  14.163
44885W        W16611   7.657  44.193  13.389
44886W        W16612   9.299  37.281  14.499
44887W        W16613  19.502   1.319   0.954
44888W        W16614   7.388  33.997   1.964
44889W        W16615  42.236  14.883  10.902
44890W        W16616   3.446  41.851   2.668
44891W        W16617  43.608  22.603   0.704
44892W        W16618   0.340  39.135  14.072
44893W        W16619  18.528  44.862  14.460
44894W        W16620  16.321  13.630  11.174
44895W        W16621  30.348   7.795  12.833
44896W        W16622  43.539   4.167   4.253
44897W        W16623  10.908   1.134  12.078
44898W        W16624  34.470  19.608   2.757
44899W        W16625  12.863   7.354  14.897
44900W        W16626  20.830   8.742   1.393
44901W        W16627  19.284  31.382   2.347
44902W        W16628  27.029  15.360   2.462
44903W        W16629  20.680  28.223  10.752
44904W        W16630  40.235  15.374   2.789
44905W        W16631  21.931   3.244   2.311
44906W        W16632  13.354  17.336  14.979
44907W        W16633  36.733  26.933   4.469
44908W        W16634  35.029  39.338   0.717
44909W        W16635  40.010   0.907   1.176
44910W        W16636  21.594  39.378  13.818
44911W        W16637  12.857  15.165   0.510
44912W        W16638   3.160  22.247  12.496
44913W        W16639  31.189  26.287   9.765
44914W        W16640  36.576  24.080   0.476
44915W        W16641   7.164   7.734   1.411
44916W        W16642   9.351   8.384  11.625
44917W        W16643  14.862  20.588   1.255
44918W        W16644   7.189  20.393   1.270
44919W        W16645  11.656   3.201  11.532
44920W        W16646  34.105  41.993  10.993
44921W        W16647  31.123  37.017   2.241
44922W        W16648   2.499  43.442   2.518
44923W        W16649  34.579  31.834  10.737
44924W        W16650  35.346  43.849   1.792
44925W        W16651  25.969  15.731  10.966
44926W        W16652  29.205  34.572   0.226
44927W        W16653  33.459  14.304   4.734
44928W        W16654  14.302   1.688   3.186
44929W        W16655  24.074  33.828  12.641
44930W        W16656   8.717  28.964   3.202
44931W        W16657  21.036  13.317  11.471
44932W        W16658  16.112  24.371   2.261
44933W        W16659   6.985  20.137   2.191
44934W        W16660  22.816  14.042   1.977
44935W        W16661  15.838   3.513  11.581
44936W        W16662  30.480  29.536   1.019
44937W        W16663   1.304  35.335   3.599
44938W        W16664  18.851  22.656   0.827
44939W        W16665  11.622  30.950   3.424
44940W        W16666  20.536  38.350   1.757
44941W        W16667   0.140  37.174  11.157
44942W        W16668  38.804  24.030   3.661
44943W        W16669  43.802   5.236   2.423
44944W        W16670  12.853  15.128  12.194
44945W        W16671  22.877   5.426   4.807
44946W        W16672   2.432  32.178  13.904
44947W        W16673  34.911  10.982   4.082
44948W        W16674  43.153   5.462   3.948
44949W        W16675   4.000  33.884  11.264
44950W        W16676  13.352  26.662  12.022
44951W        W16677  27.975  24.134   4.898
44952W        W16678  38.991   6.893  12.510
44953W        W16679  44.374  16.699   2.384
44954W        W16680  43.929   9.019   4.925
44955W        W16681  17.762  42.259  14.388
44956W        W16682  31.521  37.691  12.480
44957W        W16683  39.575  18.697   4.694
44958W        W16684  43.690  41.809   3.703
44959W        W16685  14.085  19.127  13.018
44960W        W16686  21.284  34.925  12.474
44961W        W16687  20.067   7.145  10.794
44962W        W16688  43.495  36.553   0.179
44963W        W16689  42.957  21.538  12.049
44964W        W16690  27.564   5.410   2.371
44965W        W16691  34.319   9.892   3.161
44966W        W16692  12.315   0.498  12.677
44967W        W16693  21.045  16.190   4.782
44968W        W16694  27.505   0.715  14.847
44969W        W16695  14.345  18.114   5.026
44970W        W16696   6.979  18.585   1.485
44971W        W16697  44.706  43.700  13.336
44972W        W16698   9.622  44.536  12.394
44973W        W16699   5.358   4.332   2.241
44974W        W16700   2.915  14.362  14.335
44975W        W16701  23.564  23.083   4.594
44976W        W16702  16.072  39.889  14.763
44977W        W16703  42.713   5.839  11.147
44978W        W16704  20.809  36.816  10.694
44979W        W16705  21.499  18.274   3.041
44980W        W16706  22.484  22.076  12.903
44981W        W16707  30.203   1.925   0.483
44982W        W16708  43.042   1.976   2.697
44983W        W16709  43.972  32.715   4.157
44984W        W16710  14.768  41.372  13.886
44985W        W16711  15.118   0.852   0.984
44986W        W16712   8.739  36.377  10.545
44987W        W16713  17.000  22.029   4.278
44988W        W16714  44.284  32.954   3.192
44989W        W16715  42.364  25.539  14.628
44990W        W16716  23.497  22.466  13.501
44991W        W16717   6.921  36.895  13.098
44992W        W16718  21.938  14.334   2.504
44993W        W16719   1.985  14.021  11.651
44994W        W16720  24.540  15.124   4.615
44995W        W16721  40.771  18.089   1.897
44996W        W16722   2.735  22.250   4.172
44997W        W16723  38.100  13.458  13.399
44998W        W16724  16.081  24.968   1.873
44999W        W16725  26.269  17.836   1.847
45000W        W16726  41.353   8.416  12.439
45001W        W16727  26.581  35.701   0.857
45002W        W16728  31.323  32.425   3.452
45003W        W16729  44.800  27.791   1.923
45004W        W16730  21.274   6.839   1.604
45005W        W16731   8.066  35.156  11.971
45006W        W16732  35.461  38.280   4.705
45007W        W16733  13.725  26.187  11.566
45008W        W16734  27.841  17.468  10.723
45009W        W16735  24.625   7.344  11.518
45010W        W16736  32.364  44.886   0.318
45011W        W16737   5.255  25.046   1.976
45012W        W16738  39.068   9.909  10.539
45013W        W16739   3.296  25.029   3.302
45014W        W16740  15.238  37.126   1.672
45015W        W16741   6.316  19.405  11.743
45016W        W16742  34.410  14.555  12.844
45017W        W16743  19.368  33.481  13.950
45018W        W16744  32.408  20.893   3.318
45019W        W16745  39.856  34.193  13.755
45020W        W16746  39.164  28.692   3.738
45021W        W16747   3.481  34.406  12.469
45022W        W16748  40.676  42.583   1.777
45023W        W16749  19.582  33.610   0.497
45024W        W16750  11.628  32.381   0.704
45025W        W16751   9.815   4.731  13.831
45026W        W16752  34.497  10.773   1.383
45027W        W16753  41.636  35.450   2.489
45028W        W16754  34.398  33.442   4.671
45029W        W16755  42.974  33.471   0.665
45030W        W16756  24.961   4.853  10.730
45031W        W16757  39.801  38.573   4.217
45032W        W16758  16.676  33.578  10.669
45033W        W16759  31.314  44.906   5.115
45034W        W16760  44.719  34.371  11.599
45035W        W16761   2.892  43.400  11.550
45036W        W16762  38.878  36.586  11.848
45037W        W16763   1.827  35.489  13.473
45038W        W16764  24.445  28.001  10.637
45039W        W16765   0.698  39.841   4.884
45040W        W16766  27.945  41.183  14.944
45041W        W16767  42.048  36.011  13.430
45042W        W16768  39.017  37.020  11.090
45043W        W16769   0.101  16.955  11.683
45044W        W16770  19.524  41.950   4.574
45045W        W16771  18.830  44.286   2.413
45046W        W16772   8.073  24.252  13.834
45047W        W16773  33.643  26.067   2.297
45048W        W16774  30.186   2.820  11.046
45049W        W16775  42.874   9.116  13.065
45050W        W16776   7.968  10.279  10.732
45051W        W16777   9.353  36.458   1.802
45052W        W16778   7.434  15.297  12.421
45053W        W16779  41.784   1.117   5.002
45054W        W16780   9.226   9.915   0.834
45055W        W16781  39.843   2.470  13.527
45056W        W16782  35.426  11.753  12.368
45057W        W16783   4.781  39.623   2.225
45058W        W16784  24.274   1.716  12.013
45059W        W16785  25.229  34.062  12.440
45060W        W16786  18.665  42.400   3.653
45061W        W16787  30.212   8.892  13.501
45062W        W16788  28.699  32.592   4.673
45063W        W16789  37.806  13.818   0.637
45064W        W16790  25.994  20.178   0.690
45065W        W16791  22.705   6.606   1.887
45066W        W16792  13.616   1.266  12.107
45067W        W16793  26.756  24.210   2.190
45068W        W16794  16.207  27.371  14.861
45069W        W16795  40.423  27.039  14.783
45070W        W16796  13.703  25.483   1.813
45071W        W16797  41.263  13.323   3.884
45072W        W16798  40.980  21.625   4.282
45073W        W16799  27.998  23.044   0.698
45074W        W16800   6.495   3.153  12.713
45075W        W16801  13.744  14.567   1.422
45076W        W16802   7.634   2.383  12.815
45077W        W16803  17.562  17.696  10.607
45078W        W16804  19.671   2.716   1.256
45079W        W16805  39.997  19.327  14.511
45080W        W16806  38.106   5.244   1.325
45081W        W16807  27.585  15.666  10.624
45082W        W16808  18.012  25.575   0.283
45083W        W16809   9.613  28.669   3.358
45084W        W16810   5.965   2.366   3.893
45085W        W16811  18.008  21.222   4.539
45086W        W16812   4.223  13.073  13.473
45087W        W16813  44.901  23.183  11.354
45088W        W16814  20.658  17.485  10.649
45089W        W16815  26.709  43.966   2.914
45090W        W16816  36.363  27.226   4.057
45091W        W16817   5.708  24.222  10.716
45092W        W16818   2.433  26.088  11.017
45093W        W16819  22.627  36.284  12.582
45094W        W16820  26.213   5.731   3.241
45095W        W16821   6.443  14.110   0.406
45096W        W16822  38.975  33.496   3.630
45097W        W16823  26.432  34.931   4.786
45098W        W16824  17.660  27.137   0.832
45099W        W16825  17.241  27.746   4.661
45100W        W16826  24.687  29.542   1.339
45101W        W16827  25.574  25.219  12.876
45102W        W16828   2.242  15.660  12.859
45103W        W16829  42.273  21.502  12.458
45104W        W16830   8.090  36.058  14.040
45105W        W16831  38.481  15.856  14.833
45106W        W16832   2.139   2.730  11.780
45107W        W16833   0.331  23.894  10.696
45108W        W16834  40.806  34.597   0.922
45109W        W16835  37.104  24.678   2.744
45110W        W16836  11.835  31.399   0.371
45111W        W16837  25.270  34.729   0.310
45112W        W16838  36.902  36.377   4.103
45113W        W16839  31.095  15.828  14.923
45114W        W16840  25.885  33.439   2.750
45115W        W16841  40.414   8.905   1.012
45116W        W16842  18.808   8.479  14.565
45117W        W16843  31.915  14.403   3.689
45118W        W16844  42.482  33.882   3.429
45119W        W16845  25.993  40.575   1.883
45120W        W16846  43.873  31.304  11.933
45121W        W16847  42.337  31.087  13.786
45122W        W16848  34.176   7.081   0.780
45123W        W16849  17.040  17.845  12.418
45124W        W16850   2.675  42.920  13.606
45125W        W16851  42.350  19.820  11.955
45126W        W16852   5.431   7.347  12.995
45127W        W16853   6.810   8.765  13.548
45128W        W16854   2.979  28.475   3.265
45129W        W16855  36.184  10.832  11.968
45130W        W16856  11.965   3.252  12.068
45131W        W16857   0.174  26.779   5.065
45132W        W16858  38.130  21.457  13.361
45133W        W16859  31.820  30.959  14.394
45134W        W16860  13.663  30.538  11.498
45135W        W16861  27.875  18.120  12.543
45136W        W16862  13.995   1.343   0.165
45137W        W16863  37.316  43.446  13.625
45138W        W16864   9.652  22.630  11.074
45139W        W16865  22.301  44.321  10.641
45140W        W16866  25.783   7.231  10.417
45141W        W16867  11.814  41.584  10.327
45142W        W16868  33.177  12.812   1.309
45143W        W16869   7.127  36.752   4.205
45144W        W16870   3.412  38.766  14.292
45145W        W16871   2.488  25.015  13.562
45146W        W16872  28.155   3.512   2.847
45147W        W16873   0.555  23.698   4.696
45148W        W16874  13.098  27.744  14.420
45149W        W16875  19.098  44.470  11.607
45150W        W16876  10.485  13.676   1.315
45151W        W16877  36.589  13.951  12.734
45152W        W16878  19.438   5.951  12.841
45153W        W16879  12.433  31.145   0.950
45154W        W16880   9.711  14.786   3.742
45155W        W16881  42.052  12.931   3.678
45156W        W16882  12.065  23.978  10.543
45157W        W16883  36.821   2.446  12.649
45158W        W16884  40.868  23.216   1.299
45159W        W16885   1.624  38.053   1.475
45160W        W16886  32.084  24.018  12.718
45161W        W16887  21.585  18.746   4.872
45162W        W16888   4.252  16.330  14.870
45163W        W16889  24.973  31.615   3.788
45164W        W16890  24.646  40.005   0.847
45165W        W16891  35.617  31.662  13.032
45166W        W16892  32.127  16.858   4.101
45167W        W16893   6.599  32.365   3.836
45168W        W16894  20.035  12.802  12.059
45169W        W16895   3.939   6.174   4.115
45170W        W16896  33.453   0.809  12.540
45171W        W16897   5.860  13.049  10.654
45172W        W16898  25.010  36.029   2.343
45173W        W16899  34.843  26.734  11.600
45174W        W16900  15.234  11.093  12.124
45175W        W16901   6.704  31.436   0.493
45176W        W16902  22.809  22.240   3.152
45177W        W16903  14.581  10.742  10.717
45178W        W16904  12.047  22.088  11.135
45179W        W16905   2.177  39.899  11.134
45180W        W16906   6.659  41.786   0.825
45181W        W16907   3.645   4.229  11.136
45182W        W16908  28.208  41.638  14.884
45183W        W16909  20.690  11.776  11.582
45184W        W16910  10.157   4.792  12.103
45185W        W16911  15.628  13.366  12.705
45186W        W16912   4.420  21.517   2.724
45187W        W16913  39.009  23.163  10.104
45188W        W16914  17.052  37.462   3.203
45189W        W16915  16.213   5.592  10.524
45190W        W16916  25.100   1.409  12.429
45191W        W16917  20.492  37.035  11.612
45192W        W16918  29.397  14.685  10.508
45193W        W16919  39.076  36.507   4.580
45194W        W16920  22.117   5.764  10.643
45195W        W16921  15.013  32.952  10.319
45196W        W16922  28.366  34.093   1.649
45197W        W16923   7.242  15.237   0.915
45198W        W16924  35.957   0.481   2.235
45199W        W16925  10.841   6.452   4.603
45200W        W16926   4.339  42.251  11.427
45201W        W16927  38.977  22.018   0.189
45202W        W16928  28.809   8.255   1.730
45203W        W16929  31.577   0.074   2.879
45204W        W16930  44.199  12.708  14.521
45205W        W16931  10.177   0.914   4.389
45206W        W16932  22.748  41.231   0.342
45207W        W16933  30.860   9.012  12.775
45208W        W16934   4.396   1.341  11.589
45209W        W16935   6.559  16.715  12.910
45210W        W16936  41.762   4.750  13.026
45211W        W16937  12.628  26.283   4.889
45212W        W16938  13.322   5.305   3.667
45213W        W16939   0.509   0.825   2.752
45214W        W16940  43.418  27.910  13.820
45215W        W16941  32.155  16.375   3.378
45216W        W16942   2.212  41.873   3.204
45217W        W16943  41.231  14.214  14.538
45218W        W16944   5.285  31.535   4.198
45219W        W16945  35.337  26.361   2.281
45220W        W16946   0.333  30.906  11.473
45221W        W16947  16.385  41.240  11.556
45222W        W16948   9.783   1.551   1.670
45223W        W16949  31.879  40.165  11.995
45224W        W16950  37.815  18.782  12.005
45225W        W16951  44.159  16.822  14.854
45226W        W16952   8.909  21.295   5.070
45227W        W16953  44.759  32.080   5.206
45228W        W16954   0.136  13.060   3.659
45229W        W16955   6.203  16.252  10.082
45230W        W16956  24.589  30.375   5.086
45231W        W16957  33.402   5.900   0.779
45232W        W16958  28.048  13.449   1.350
45233W        W16959  25.656  24.706   3.461
45234W        W16960   5.953  36.552  11.126
45235W        W16961  39.028  43.823  14.466
45236W        W16962  23.009  43.985   1.020
45237W        W16963  29.234  28.158  13.773
45238W        W16964  11.668  12.758   0.353
45239W        W16965  32.109   9.723   4.367
45240W        W16966  43.242  18.146   4.689
45241W        W16967  11.106  43.062  13.900
45242W        W16968  37.446  22.230  14.289
45243W        W16969  18.206  25.586  11.952
45244W        W16970  23.745  38.999  13.718
45245W        W16971  34.509  16.633   1.497
45246W        W16972  36.890  23.643   3.584
45247W        W16973   4.333  42.901   1.127
45248W        W16974  31.563  29.090   0.647
45249W        W16975  13.522  15.066   0.028
45250W        W16976  26.078  39.403  14.004
45251W        W16977  24.644   3.477  12.585
45252W        W16978   1.443  39.932  12.446
45253W        W16979  43.882  11.181   1.803
45254W        W16980  25.434  10.964  13.517
45255W        W16981   1.637  17.610  11.177
45256W        W16982  43.756   4.747   3.687
45257W        W16983  15.791  38.195   5.117
45258W        W16984  16.001  30.092  13.541
45259W        W16985  38.011  37.566  13.666
45260W        W16986   4.830  28.702   2.080
45261W        W16987  40.692   6.733  13.554
45262W        W16988  33.152  30.141  11.749
45263W        W16989  12.413  21.221  14.515
45264W        W16990   0.580  16.149  10.747
45265W        W16991  24.517  20.294   4.296
45266W        W16992  27.034  39.220  12.987
45267W        W16993  31.395  28.506   3.125
45268W        W16994   9.923  30.011   2.248
45269W        W16995   1.360  14.284   2.206
45270W        W16996   3.840  42.265  11.189
45271W        W16997  26.484  42.230   1.511
45272W        W16998  18.885   2.840  14.422
45273W        W16999  18.264  39.002   4.573
45274W        W17000  10.532   7.356  11.238
45275W        W17001  13.309  18.754  12.674
45276W        W17002  12.658  33.899   1.285
45277W        W17003   1.604  38.037  14.453
45278W        W17004  20.496  29.428  13.089
45279W        W17005  14.252  15.232  14.915
45280W        W17006  42.524  25.380   3.091
45281W        W17007  30.616   6.304  12.100
45282W        W17008  33.355  32.155   1.580
45283W        W17009   5.475  22.793   1.845
45284W        W17010  21.344  35.935   0.257
45285W        W17011  15.318  28.688   2.907
45286W        W17012  13.090  42.373   1.829
45287W        W17013  21.987  12.539   4.572
45288W        W17014   3.319  25.257   2.787
45289W        W17015   5.455   9.356   0.748
45290W        W17016  19.022   3.356   3.828
45291W        W17017  28.742   4.867   3.634
45292W        W17018  14.743  14.659   1.374
45293W        W17019  10.932  13.274   3.111
45294W        W17020  28.474  10.916  12.571
45295W        W17021   3.369  19.049  11.802
45296W        W17022  33.309  23.878  10.252
45297W        W17023  26.134  38.077   3.333
45298W        W17024   3.519  32.699   1.722
45299W        W17025  22.291  32.977  13.432
45300W        W17026  30.636  34.728  13.068
45301W        W17027  40.970  35.490   1.714
45302W        W17028  37.780   7.802  13.043
45303W        W17029   4.976  29.840   4.204
45304W        W17030  38.962  10.920  11.555
45305W        W17031  12.553  16.240   2.944
45306W        W17032  39.131  19.475  12.477
45307W        W17033   5.965  18.557   1.111
45308W        W17034  42.708  38.508  12.913
45309W        W17035  30.720   3.782   4.482
45310W        W17036  30.710   9.814  13.363
45311W        W17037  28.863   9.843  10.975
45312W        W17038  15.608  44.377   1.949
45313W        W17039   6.799  35.433  10.565
45314W        W17040   1.223  15.387   3.255
45315W        W17041  32.550   5.636   3.837
45316W        W17042  31.768  43.365  14.028
45317W        W17043  18.627  31.895  11.737
45318W        W17044   5.177  33.897  11.671
45319W        W17045  22.134  20.163   1.258
45320W        W17046  13.789  22.850   0.038
45321W        W17047  10.191  38.100   0.583
45322W        W17048   4.324  11.866   2.416
45323W        W17049   8.808  36.608  12.943
45324W        W17050   7.271  28.253   3.172
45325W        W17051  31.608  24.112   4.713
45326W        W17052  41.049   5.543  13.649
45327W        W17053  32.467  23.262   5.723
45328W        W17054  42.353   9.327  14.343
45329W        W17055  39.792   8.220   1.239
45330W        W17056  21.082  18.063  13.912
45331W        W17057  28.444  13.651   0.304
45332W        W17058   6.750   5.398   4.094
45333W        W17059  34.390   4.890   4.125
45334W        W17060  34.417   0.411   2.241
45335W        W17061   1.721   0.665   3.260
45336W        W17062  10.400   2.122   3.251
45337W        W17063  21.920  24.498   5.228
45338W        W17064  27.010  10.732  10.601
45339W        W17065  13.758  23.475   0.914
45340W        W17066   7.228  32.316   0.284
45341W        W17067  33.559   9.649   0.182
45342W        W17068  39.761  26.057  12.651
45343W        W17069  30.621   7.426   3.298
45344W        W17070  21.358   8.363  12.346
45345W        W17071   4.289  21.605  14.609
45346W        W17072  11.709  32.642   1.731
45347W        W17073  38.828   8.650   2.192
45348W        W17074  10.126  15.383   4.233
45349W        W17075  11.139   5.834   1.356
45350W        W17076  41.034   9.186   0.472
45351W        W17077  15.207  13.975   2.212
45352W        W17078  36.507  34.383  11.473
45353W        W17079  14.371  32.394  14.021
45354W        W17080  43.722  14.700   4.555
45355W        W17081  19.173  29.871   2.164
45356W        W17082   0.244   5.328  11.618
45357W        W17083  34.882  30.510   2.588
45358W        W17084  23.767  18.078  14.268
45359W        W17085  43.422  21.334  11.849
45360W        W17086  43.330  14.722   4.223
45361W        W17087   3.776   5.718  11.585
45362W        W17088  40.493  42.232   1.439
45363W        W17089  43.047  26.235  11.080
45364W        W17090  32.021  27.388  11.576
45365W        W17091  26.477  38.976  11.721
45366W        W17092  36.562  30.461   4.596
45367W        W17093  14.399   6.382   1.803
45368W        W17094  28.625  31.532  10.838
45369W        W17095  27.783   0.192   0.807
45370W        W17096  12.260   2.354   0.447
45371W        W17097  34.391  31.261  11.578
45372W        W17098  20.762  25.238  10.443
45373W        W17099  21.434  34.585  12.030
45374W        W17100  15.210  22.745   2.226
45375W        W17101  37.662  34.145  14.452
45376W        W17102   8.713  25.064  13.572
45377W        W17103  17.121  12.525   3.589
45378W        W17104   2.731  35.473   0.946
45379W        W17105  26.706  25.023   1.915
45380W        W17106  38.424  34.007   1.921
45381W        W17107  29.764  25.102   1.645
45382W        W17108   5.581  34.562   2.849
45383W        W17109   2.295   1.256   2.203
45384W        W17110  42.368   6.073  14.467
45385W        W17111  34.463  40.866   4.538
45386W        W17112  28.612  17.274  10.656
45387W        W17113  18.054  30.916   0.205
45388W        W17114  27.090   0.400   1.548
45389W        W17115   1.165  23.280  10.782
45390W        W17116  13.321  18.762  14.456
45391W        W17117   9.287  21.086   2.474
45392W        W17118   5.685   7.130   3.194
45393W        W17119  18.143  32.953  14.530
45394W        W17120  11.783  34.334  11.988
45395W        W17121  21.297   8.774   1.863
45396W        W17122  38.074  41.910  11.442
45397W        W17123  38.007  10.150  11.608
45398W        W17124  39.285   3.926  14.001
45399W        W17125  18.561  33.112  10.747
45400W        W17126  37.613   6.847   3.576
45401W        W17127  18.813   7.759   2.201
45402W        W17128   8.621  40.393  14.331
45403W        W17129  26.121  42.899   5.089
45404W        W17130  19.295  14.421   2.432
45405W        W17131   6.878  29.670   0.027
45406W        W17132  44.175   3.768   3.618
45407W        W17133  33.920   2.265  10.696
45408W        W17134  37.431   9.687  13.571
45409W        W17135   1.107  27.749   1.258
45410W        W17136   5.308  26.480  13.421
45411W        W17137  12.027  14.773   1.777
45412W        W17138  41.514  20.596   1.907
45413W        W17139  33.291  23.197   5.014
45414W        W17140  12.457   6.239   4.419
45415W        W17141  34.881   5.815  13.139
45416W        W17142  31.050  32.033   3.258
45417W        W17143   0.505  42.042   1.586
45418W        W17144  14.942  35.083  14.170
45419W        W17145  38.900   4.247  13.954
45420W        W17146  43.010  41.941  11.114
45421W        W17147  27.314  34.340   2.326
45422W        W17148   6.662  44.691  14.709
45423W        W17149  32.696   7.687   4.882
45424W        W17150   4.898  39.074  12.206
45425W        W17151  40.684  21.423  10.384
45426W        W17152  35.081  23.896   0.237
45427W        W17153   7.687  15.582  10.730
45428W        W17154  22.389  37.225  12.465
45429W        W17155  13.595  18.171  12.462
45430W        W17156  25.103  17.720   0.823
45431W        W17157  23.069   6.040  12.946
45432W        W17158  19.272   1.835   4.586
45433W        W17159  16.196  23.086  12.151
45434W        W17160  23.414  22.564  12.315
45435W        W17161  41.412  23.983   2.382
45436W        W17162  34.423   8.405  13.618
45437W        W17163  16.256  42.533   4.824
45438W        W17164   5.327  33.638   3.688
45439W        W17165   3.977  33.002   1.893
45440W        W17166  11.208  15.131   2.082
45441W        W17167  12.216  21.611   1.757
45442W        W17168  26.984  13.262  14.418
45443W        W17169  15.621  36.644   2.135
45444W        W17170  20.641  20.143   3.677
45445W        W17171   0.328  27.185  13.443
45446W        W17172  20.519  40.407   4.072
45447W        W17173  12.047  13.607   3.206
45448W        W17174  39.514   7.697  10.637
45449W        W17175   6.665   7.360   0.309
45450W        W17176  21.957   4.634   4.980
45451W        W17177  13.363  21.531  13.570
45452W        W17178  16.153  12.888  12.172
45453W        W17179  40.960  17.532  14.832
45454W        W17180  43.849  28.630  10.634
45455W        W17181  21.411  19.707   1.018
45456W        W17182  29.731  42.099  14.937
45457W        W17183  35.470  15.244   3.700
45458W        W17184  14.469   2.744  12.994
45459W        W17185  10.258  24.723  11.093
45460W        W17186   3.245   6.797   4.134
45461W        W17187  28.584  33.196   0.516
45462W        W17188   4.217  13.200  14.407
45463W        W17189  34.657  44.530   2.821
45464W        W17190  41.699  10.566   2.269
45465W        W17191  14.180  15.272   1.514
45466W        W17192   1.313  35.331   0.453
45467W        W17193  30.155  31.574  12.042
45468W        W17194  40.826  11.923   1.297
45469W        W17195  22.753  30.685  11.158
45470W        W17196  41.515  24.030   3.271
45471W        W17197   5.256  38.875  14.785
45472W        W17198  31.633  34.588   1.243
45473W        W17199  39.055  22.327   1.576
45474W        W17200  11.095  31.276   3.274
45475W        W17201  42.014  18.098   4.178
45476W        W17202  17.143   4.312   3.086
45477W        W17203  13.824  17.663  13.938
45478W        W17204   2.743  15.475   0.390
45479W        W17205  24.923  18.801   0.282
45480W        W17206  20.343  11.735  13.615
45481W        W17207  24.299  27.484   5.423
45482W        W17208  19.256  40.084  11.614
45483W        W17209  39.512  31.849   0.190
45484W        W17210   3.869   8.663   4.658
45485W        W17211  10.833   3.409   1.789
45486W        W17212  38.905   8.981  10.656
45487W        W17213  41.243  37.270  11.396
45488W        W17214  38.688   9.957  11.914
45489W        W17215  28.558   1.723  14.267
45490W        W17216   2.208   8.193   3.793
45491W        W17217  36.183  19.559   0.939
45492W        W17218  13.051  39.799  10.594
45493W        W17219  29.407  29.439  11.532
45494W        W17220   7.377  22.726  10.970
45495W        W17221  41.727  21.534   4.998
45496W        W17222   2.364  31.928  14.373
45497W        W17223   0.198  31.974   3.259
45498W        W17224  27.834  26.364   5.033
45499W        W17225  35.123  23.224   4.490
45500W        W17226   4.977   6.709   5.474
45501W        W17227   0.892  21.717  12.434
45502W        W17228  34.714  11.951  10.771
45503W        W17229  40.868  14.135   0.361
45504W        W17230  10.063   6.721   3.154
45505W        W17231  14.890  29.956   4.147
45506W        W17232  42.415  12.419  11.219
45507W        W17233  23.757  18.787  14.442
45508W        W17234  21.572  20.032   3.159
45509W        W17235  39.770  40.178  11.874
45510W        W17236  12.388  10.219  13.455
45511W        W17237  20.099  20.110  10.587
45512W        W17238  21.002  29.145   4.917
45513W        W17239  33.272   8.158  14.755
45514W        W17240  38.473  27.076  14.383
45515W        W17241  35.030   7.446  13.976
45516W        W17242  16.200  14.080   3.819
45517W        W17243  26.687  10.658   1.249
45518W        W17244  18.398  38.358  10.539
45519W        W17245  41.730   9.725  12.827
45520W        W17246  27.371  17.542   0.984
45521W        W17247  12.483  40.817  12.451
45522W        W17248  37.975  38.577  12.479
45523W        W17249   3.215  21.522  13.349
45524W        W17250  21.027   7.918   4.320
45525W        W17251  23.281  27.693   0.890
45526W        W17252  35.843   4.881   5.184
45527W        W17253   4.899  11.991  10.757
45528W        W17254   0.439  32.906  12.526
45529W        W17255  40.997   3.983   4.815
45530W        W17256  14.142   2.908   3.722
45531W        W17257  16.346  17.289  10.599
45532W        W17258  35.560  16.212   0.100
45533W        W17259  30.063  40.370  13.387
45534W        W17260  42.197  15.470  14.880
45535W        W17261  25.934  34.547   3.389
45536W        W17262  42.824   7.079   2.744
45537W        W17263  16.603   2.247   3.702
45538W        W17264   6.607  31.883   3.133
45539W        W17265   5.582  18.634  10.703
45540W        W17266   3.246  25.505   2.325
45541W        W17267  15.486   6.394  12.819
45542W        W17268  36.649   6.286   0.240
45543W        W17269  27.445  30.892   0.332
45544W        W17270  39.971   0.899  12.479
45545W        W17271  36.956   5.720  14.386
45546W        W17272   4.014  22.197  12.199
45547W        W17273   7.001   1.472   2.661
45548W        W17274  29.013  21.205  12.438
45549W        W17275  10.104  19.921  14.975
45550W        W17276  21.508  35.389  12.380
45551W        W17277   0.755   4.403  12.867
45552W        W17278  38.344  29.593  12.161
45553W        W17279   0.098   0.548  14.320
45554W        W17280   6.265  26.893  14.860
45555W        W17281  16.044  39.046   1.853
45556W        W17282   3.691  10.632  10.471
45557W        W17283  10.144  29.716   0.507
45558W        W17284  25.822  10.744  11.938
45559W        W17285  28.631  43.247  12.153
45560W        W17286  36.330  40.062   2.672
45561W        W17287  28.942  40.973   0.490
45562W        W17288  10.659   5.780   2.350
45563W        W17289  12.102  35.651  13.311
45564W        W17290  14.680  27.295  14.388
45565W        W17291  36.859   9.666  14.302
45566W        W17292  43.198  23.313   0.040
45567W        W17293  42.365   4.272   2.394
45568W        W17294  42.686  17.058   3.801
45569W        W17295  11.114  14.112   2.264
45570W        W17296  22.030  25.383  14.364
45571W        W17297  25.564  27.251  14.252
45572W        W17298  37.836  15.190  11.402
45573W        W17299  40.506  40.769   0.749
45574W        W17300  16.364  18.954   2.711
45575W        W17301  13.928  27.577  11.861
45576W        W17302   1.713  33.512  13.371
45577W        W17303  26.674  26.529   3.980
45578W        W17304   1.471  35.953   1.436
45579W        W17305  22.057  28.006   1.184
45580W        W17306   0.043  40.028   2.992
45581W        W17307   1.811  13.246  14.715
45582W        W17308  31.307  31.043  12.036
45583W        W17309   7.917  40.879   2.423
45584W        W17310  40.511  26.217  11.559
45585W        W17311  40.595  38.568   1.914
45586W        W17312   9.868   5.760   0.749
45587W        W17313  43.585   9.369   0.822
45588W        W17314  41.419  43.124  10.595
45589W        W17315   5.389  14.059  11.080
45590W        W17316   2.242  12.324   1.766
45591W        W17317  36.908   0.413   2.983
45592W        W17318   9.391  36.941  11.418
45593W        W17319  44.441  13.185   4.540
45594W        W17320  29.084  34.750   3.265
45595W        W17321  26.754  42.221   2.451
45596W        W17322   4.730  22.113   2.354
45597W        W17323  44.270  33.491  12.080
45598W        W17324  36.467  24.548  11.549
45599W        W17325  20.057   3.891   3.714
45600W        W17326  15.271  25.452   0.198
45601W        W17327  34.796  26.002  11.050
45602W        W17328  24.868  12.808  14.521
45603W        W17329  20.761  18.016   4.514
45604W        W17330   0.005  19.059  13.368
45605W        W17331   8.358  32.962  10.733
45606W        W17332  11.382  24.625   4.089
45607W        W17333  12.760  26.858   4.868
45608W        W17334  34.544  14.505   1.083
45609W        W17335  34.380  36.531  10.834
45610W        W17336  18.057  20.009  14.374
45611W        W17337  14.220  40.008  11.918
45612W        W17338  12.656  41.716  13.486
45613W        W17339  36.489  11.296   2.098
45614W        W17340  31.573  17.238   4.205
45615W        W17341  26.110  12.280   4.250
45616W        W17342  29.969  30.474   4.659
45617W        W17343   6.712  32.021  12.044
45618W        W17344  24.566  42.229  12.109
45619W        W17345  18.036  13.707  10.835
45620W        W17346  18.801   4.219   0.754
45621W        W17347  13.364   3.119   1.695
45622W        W17348  33.605  24.062   1.316
45623W        W17349  25.889   0.740   0.883
45624W        W17350  17.735   0.521   5.102
45625W        W17351  16.979  36.306   1.174
45626W        W17352  35.678  40.335   0.714
45627W        W17353  20.547  35.169   2.746
45628W        W17354  42.675  16.310   4.231
45629W        W17355  10.226  42.921   4.729
45630W        W17356  33.874  38.812  14.083
45631W        W17357  34.660  27.803   2.777
45632W        W17358  28.424  29.444   3.229
45633W        W17359  13.878  37.983  13.773
45634W        W17360  17.685  33.600   1.796
45635W        W17361  34.625  39.877   2.353
45636W        W17362   1.713  27.528   1.839
45637W        W17363  31.154  40.349  13.374
45638W        W17364  10.971  28.191   3.090
45639W        W17365   2.552  19.757  14.998
45640W        W17366  13.727   6.252  14.299
45641W        W17367  17.900  38.285  10.579
45642W        W17368  41.445   9.766   0.029
45643W        W17369  25.736  28.788   4.867
45644W        W17370  24.558  43.400   0.200
45645W        W17371  22.489  41.800   3.747
45646W        W17372  12.873  39.964  12.597
45647W        W17373   5.000  31.542   1.580
45648W        W17374   4.714  30.572  11.069
45649W        W17375  37.410   5.918  12.070
45650W        W17376   1.697  21.970   2.866
45651W        W17377  43.005   0.922  12.409
45652W        W17378  14.623  10.980   3.297
45653W        W17379  16.588  39.680   2.576
45654W        W17380  24.482   6.180  10.637
45655W        W17381  32.647  23.943   4.652
45656W        W17382  13.395  39.424  11.988
45657W        W17383  44.454   0.238   1.366
45658W        W17384  39.481  25.511   0.404
45659W        W17385  17.321  14.206   0.698
45660W        W17386   3.285  29.424   3.168
45661W        W17387  32.209  39.467   4.275
45662W        W17388  13.183  27.702   0.726
45663W        W17389  28.233  10.272   0.471
45664W        W17390  25.474  12.713   1.444
45665W        W17391   5.329  13.832   5.308
45666W        W17392  15.279  43.832  14.708
45667W        W17393   0.225  13.046  13.539
45668W        W17394   3.351  20.451   1.358
45669W        W17395  14.216  15.830   3.698
45670W        W17396  39.819   1.727  10.680
45671W        W17397   8.436   5.716   4.601
45672W        W17398  33.953   9.913   1.332
45673W        W17399  43.555   0.367  12.045
45674W        W17400   2.420  18.823  13.976
45675W        W17401  23.158   7.893  10.861
45676W        W17402  38.818  38.441   3.863
45677W        W17403  17.047  24.701  14.251
45678W        W17404   9.956  29.004  13.204
45679W        W17405  33.640  20.462   1.749
45680W        W17406  37.512  21.379  10.593
45681W        W17407  32.163  19.653  10.355
45682W        W17408  39.325  27.209  13.806
45683W        W17409  34.083  31.045   2.203
45684W        W17410  12.739  23.460  13.143
45685W        W17411   7.703  13.284   2.750
45686W        W17412  43.054  34.383  14.747
45687W        W17413   2.922  15.874   3.800
45688W        W17414  20.874   1.215  13.418
45689W        W17415  12.787  29.298   0.903
45690W        W17416  11.619  39.375  14.566
45691W        W17417  19.620  26.254   0.483
45692W        W17418  39.621  36.859   0.862
45693W        W17419  28.061  41.101   2.916
45694W        W17420   7.935  29.645   3.864
45695W        W17421   3.432  10.536  13.800
45696W        W17422  36.619  14.243   4.557
45697W        W17423  38.048   6.952  11.013
45698W        W17424   4.664  33.316   1.303
45699W        W17425   4.937  14.572  11.812
45700W        W17426  28.610  31.171   3.681
45701W        W17427  33.040  18.467   3.396
45702W        W17428  40.492  28.609   0.422
45703W        W17429  11.211  33.095   2.284
45704W        W17430   3.979  18.390   2.543
45705W        W17431  25.789  18.307  12.965
45706W        W17432  26.570   7.768   2.876
45707W        W17433  20.554  37.089   0.295
45708W        W17434  13.587  43.057  10.633
45709W        W17435  32.168  32.717  11.579
45710W        W17436   7.480  15.207   4.106
45711W        W17437   6.352   1.501   3.934
45712W        W17438  10.282   1.988  12.433
45713W        W17439   9.161   3.998   1.209
45714W        W17440   5.204   8.496   4.144
45715W        W17441   4.013  31.674   2.227
45716W        W17442  10.302  16.119  13.422
45717W        W17443   7.605  31.358  14.974
45718W        W17444  23.189   7.021  14.031
45719W        W17445  23.730  18.271   3.796
45720W        W17446   2.705  35.991   4.620
45721W        W17447   9.825  42.924  13.500
45722W        W17448  10.691  12.525   4.570
45723W        W17449  40.280  28.275  12.963
45724W        W17450  34.929  20.565  11.166
45725W        W17451  35.771  32.193   1.633
45726W        W17452  19.740   5.207   1.488
45727W        W17453  15.856  36.899  13.840
45728W        W17454   2.931   5.873  13.792
45729W        W17455  39.798   7.427  13.880
45730W        W17456   1.426   2.271   4.225
45731W        W17457  24.686  26.087  10.717
45732W        W17458  15.644   7.359  14.737
45733W        W17459  30.154  40.408   3.799
45734W        W17460  29.837  37.590  11.053
45735W        W17461  23.301  27.063  14.039
45736W        W17462   3.464  40.360   1.754
45737W        W17463  40.899  39.070   4.904
45738W        W17464  13.627  30.961   0.439
45739W        W17465  17.834  39.132   4.127
45740W        W17466  27.728  17.653   2.059
45741W        W17467  41.311  17.211   3.575
45742W        W17468  39.401   8.892   1.961
45743W        W17469  23.976   0.354  11.051
45744W        W17470  25.444   1.804  13.142
45745W        W17471  32.442  26.411  13.414
45746W        W17472  34.359  10.348  14.422
45747W        W17473  16.255  33.004   1.691
45748W        W17474   1.306  12.404   4.040
45749W        W17475   3.938   0.714   0.291
45750W        W17476  20.438  23.710   2.861
45751W        W17477  39.304   4.881   2.381
45752W        W17478  40.818   6.389  14.648
45753W        W17479  28.266   6.124   3.602
45754W        W17480  27.438  29.381   0.274
45755W        W17481  28.641  16.198   4.235
45756W        W17482  37.882  27.693   0.373
45757W        W17483  28.697  38.803   0.372
45758W        W17484  30.092  25.544   1.801
45759W        W17485  30.345  43.252  10.716
45760W        W17486  34.893   6.808  14.943
45761W        W17487  32.001  41.948   0.110
45762W        W17488  25.580  25.666  13.466
45763W        W17489   3.032  22.966   2.797
45764W        W17490  16.327  36.616   0.436
45765W        W17491  36.022  32.635  11.540
45766W        W17492  19.494  41.581  14.491
45767W        W17493  10.949  37.128  12.885
45768W        W17494  19.588  40.206  11.070
45769W        W17495   2.941  16.371  12.848
45770W        W17496  29.543  36.430   2.710
45771W        W17497  24.899  16.103   0.011
45772W        W17498  21.799  39.148   3.763
45773W        W17499  33.481  12.730  13.938
45774W        W17500   8.784  34.668  14.280
45775W        W17501  34.034  38.066   3.322
45776W        W17502  11.119  44.219  11.395
45777W        W17503  24.864  33.993  12.786
45778W        W17504  35.438  37.963  10.597
45779W        W17505  41.741  24.597   3.731
45780W        W17506   9.317  27.075   1.019
45781W        W17507  20.738  17.718  13.102
45782W        W17508   3.306  13.688   1.286
45783W        W17509  17.696  40.888  14.908
45784W        W17510  23.260  21.685  13.871
45785W        W17511  38.043  18.437  14.472
45786W        W17512  13.715  10.078  14.766
45787W        W17513  34.868  43.803  12.487
45788W        W17514  11.774  42.311   4.757
45789W        W17515  20.656   1.379   3.663
45790W        W17516   5.854   5.375  14.520
45791W        W17517  17.259  16.211  11.090
45792W        W17518  25.148  10.224   4.573
45793W        W17519  15.160   1.416  12.150
45794W        W17520  42.186  35.675  13.048
45795W        W17521   6.718   2.765  12.444
45796W        W17522  38.174   7.874  13.955
45797W        W17523  16.092  43.927  13.019
45798W        W17524  26.511  26.952  11.382
45799W        W17525  35.501   9.645  13.429
45800W        W17526  34.868  40.504   0.351
45801W        W17527  17.741  19.435   4.499
45802W        W17528  29.621  15.527  11.935
45803W        W17529  32.105  32.230  14.952
45804W        W17530  30.965  12.089  14.917
45805W        W17531  26.051  35.140   2.337
45806W        W17532  28.301   0.722  10.042
45807W        W17533  19.655   2.559  11.237
45808W        W17534  16.946  34.039   2.437
45809W        W17535  14.424  13.205   3.149
45810W        W17536  36.840  30.497  14.428
45811W        W17537   4.904   5.780   4.067
45812W        W17538  36.359   5.704  10.674
45813W        W17539  13.792  27.399  14.940
45814W        W17540  23.485  44.423  10.979
45815W        W17541  32.675  12.396   4.036
45816W        W17542  25.181   5.402   2.272
45817W        W17543  26.703  26.343  13.452
45818W        W17544  18.857   1.017  11.181
45819W        W17545  41.494  15.750   4.711
45820W        W17546   1.895  24.524  11.411
45821W        W17547   6.330  31.157   4.183
45822W        W17548  29.560  43.710  10.468
45823W        W17549  27.112  20.963   0.899
45824W        W17550  41.085  18.568   1.419
45825W        W17551   4.680  21.324   3.203
45826W        W17552  38.890  24.063  13.279
45827W        W17553   7.322   9.159   1.277
45828W        W17554   0.224   3.993  12.474
45829W        W17555  32.672  39.108  13.060
45830W        W17556  27.391  31.965  12.573
45831W        W17557  34.777  43.875  10.997
45832W        W17558  30.938  44.358   0.116
45833W        W17559  12.145  32.925  12.530
45834W        W17560  33.476   4.245  11.498
45835W        W17561  19.517  34.313   2.339
45836W        W17562  24.225  25.910  10.580
45837W        W17563  22.562   8.208  14.863
45838W        W17564  35.512   5.891   2.859
45839W        W17565  27.188   5.874   1.397
45840W        W17566  25.744  30.611   3.773
45841W        W17567   5.697  23.300  10.561
45842W        W17568   8.180  10.774   3.844
45843W        W17569  29.028  38.070   1.314
45844W        W17570  35.399  23.275  11.109
45845W        W17571  37.907   0.744  13.342
45846W        W17572  41.739  32.954   3.141
45847W        W17573  23.337  12.523   9.944
45848W        W17574  32.090  23.299   4.289
45849W        W17575  39.513  39.557   2.323
45850W        W17576  43.621  16.167  14.533
45851W        W17577   7.856  16.749  14.975
45852W        W17578  13.979  37.563   1.631
45853W        W17579   7.774  14.111  13.835
45854W        W17580  34.527  28.509  10.770
45855W        W17581  42.928  17.004   2.912
45856W        W17582  22.676  42.061   4.160
45857W        W17583  29.684  36.116  11.662
45858W        W17584  14.186  36.325  13.597
45859W        W17585  29.223  14.583  13.031
45860W        W17586   6.818  22.786   2.747
45861W        W17587  41.395  21.068   1.700
45862W        W17588  43.837  11.856  10.399
45863W        W17589  29.186  18.729  12.311
45864W        W17590  20.652  10.065  14.878
45865W        W17591  42.342   7.759   1.705
45866W        W17592  36.636  40.362  13.329
45867W        W17593   5.819  26.998   2.002
45868W        W17594  38.926  40.865   4.650
45869W        W17595  12.356   2.086   4.767
45870W        W17596  26.163  27.703   1.645
45871W        W17597  38.479  42.881  10.405
45872W        W17598   8.693  44.978   3.184
45873W        W17599  11.432  15.800  13.633
45874W        W17600  41.304   7.318   2.091
45875W        W17601  16.078  31.893  13.630
45876W        W17602  18.485  24.486   1.017
45877W        W17603   1.278  42.379  14.331
45878W        W17604  37.291   6.646   2.252
45879W        W17605   5.949  17.001  14.338
45880W        W17606  21.027  15.861   2.897
45881W        W17607   5.222  22.170  13.356
45882W        W17608  22.975  26.038   0.338
45883W        W17609  19.564  37.053  12.615
45884W        W17610   0.495  35.389   0.766
45885W        W17611  38.384  37.673  14.855
45886W        W17612   3.696  29.105  11.730
45887W        W17613  23.096  30.699  11.536
45888W        W17614  42.890  35.529   4.606
45889W        W17615  30.356  38.924  12.903
45890W        W17616  33.166  41.914   0.106
45891W        W17617  20.052   4.176  10.684
45892W        W17618  14.547  43.839  10.419
45893W        W17619  37.211  12.994  14.863
45894W        W17620  44.451   8.142   3.534
45895W        W17621   5.166   1.689  13.547
45896W        W17622  16.712  33.967   4.073
45897W        W17623  39.273  30.995  12.438
45898W        W17624   9.167  43.901  14.250
45899W        W17625   2.232  17.128  14.550
45900W        W17626   8.793  23.446   3.796
45901W        W17627  31.155  29.360   4.044
45902W        W17628  20.141  15.163   0.918
45903W        W17629  14.705  34.086  13.813
45904W        W17630  40.178  40.799  12.634
45905W        W17631  32.609  20.486   0.194
45906W        W17632  32.304  39.316   3.273
45907W        W17633  21.761  34.916  11.500
45908W        W17634  24.157  37.611   4.651
45909W        W17635  25.196  25.519   3.708
45910W        W17636  36.800   0.350  14.456
45911W        W17637  15.220   9.948   2.404
45912W        W17638  22.073  11.127  11.588
45913W        W17639  14.437  19.560   1.990
45914W        W17640  36.916  37.306  12.221
45915W        W17641   0.690   5.404   3.603
45916W        W17642  22.193  26.115  11.558
45917W        W17643  14.684  17.582   3.633
45918W        W17644  22.522  28.708  12.527
45919W        W17645  17.637  16.945   1.785
45920W        W17646  24.445  27.173   3.840
45921W        W17647  42.820  38.379   4.897
45922W        W17648  42.345  17.741   0.236
45923W        W17649   7.758  23.066  11.626
45924W        W17650   6.966  43.436  11.097
45925W        W17651  17.084  15.149   4.042
45926W        W17652  10.182  17.917  11.236
45927W        W17653  41.039  28.535   4.860
45928W        W17654  38.625  18.870   2.263
45929W        W17655  41.562  10.727  14.074
45930W        W17656   4.351   7.887  11.745
45931W        W17657   6.812  13.063   0.210
45932W        W17658  42.945  13.544  11.994
45933W        W17659  27.060   0.597  10.699
45934W        W17660  31.115  24.231  13.500
45935W        W17661  30.607   3.979  11.589
45936W        W17662  36.688  23.285  13.492
45937W        W17663   3.771  43.469   3.634
45938W        W17664   4.538   3.811   2.628
45939W        W17665  17.286  12.951  10.747
45940W        W17666   7.409  28.587   2.155
45941W        W17667  24.921   0.354   0.892
45942W        W17668  30.801  33.288   0.791
45943W        W17669  42.528  18.622  11.177
45944W        W17670   7.924  23.784  14.005
45945W        W17671  30.000  18.386   2.223
45946W        W17672   5.695  18.593   2.842
45947W        W17673   6.519   8.413  12.450
45948W        W17674   3.704  40.998  11.104
45949W        W17675   2.347  37.895  11.164
45950W        W17676  31.517  39.262  12.358
45951W        W17677   9.281  32.936  10.694
45952W        W17678  43.287  35.957   1.967
45953W        W17679  14.291  26.824   1.364
45954W        W17680  30.089  16.436   2.693
45955W        W17681  13.547  32.784  14.542
45956W        W17682  16.622   1.329   3.236
45957W        W17683  40.310   2.874   2.801
45958W        W17684  30.453  17.586  13.064
45959W        W17685  19.802  27.383   2.121
45960W        W17686  14.823  32.032   3.138
45961W        W17687  32.003   2.468   4.182
45962W        W17688  22.240   9.451  13.031
45963W        W17689  18.611   0.804  11.579
45964W        W17690   1.231  42.315  12.833
45965W        W17691  38.453  32.194   9.934
45966W        W17692   8.377  32.107   0.820
45967W        W17693  31.557  38.750   2.711
45968W        W17694   0.242   2.809  14.586
45969W        W17695  42.830  42.446  13.524
45970W        W17696  16.055  25.572   4.256
45971W        W17697  16.840  35.558  10.650
45972W        W17698   5.195  16.504  14.899
45973W        W17699  30.438  27.631   3.553
45974W        W17700  11.095  29.666  12.520
45975W        W17701  15.109   9.075  11.189
45976W        W17702  38.025   8.742  14.496
45977W        W17703  16.374   5.230  13.477
45978W        W17704   0.174  21.279  13.537
45979W        W17705  23.965  16.235  14.575
45980W        W17706  44.523  15.942  13.295
45981W        W17707   3.325  18.990  12.368
45982W        W17708   4.321  41.990   2.657
45983W        W17709  35.775  23.771  14.059
45984W        W17710  12.448  34.356   1.411
45985W        W17711  27.061  22.029   3.999
45986W        W17712  41.200  37.357   4.081
45987W        W17713  11.564  29.911   0.448
45988W        W17714  14.973   7.521  14.978
45989W        W17715   7.154   9.264   2.212
45990W        W17716   9.735  18.400   1.753
45991W        W17717   8.229  39.539   4.013
45992W        W17718  17.278   1.968  12.441
45993W        W17719   5.486   5.401   2.820
45994W        W17720  31.563   0.055   0.524
45995W        W17721  40.511   0.539  13.480
45996W        W17722   4.215  24.229  14.525
45997W        W17723  44.514   5.694   3.375
45998W        W17724   8.867  24.313  14.994
45999W        W17725  22.345  22.723   1.853
46000W        W17726  40.463  41.996   3.289
46001W        W17727  12.804  29.907   4.392
46002W        W17728   6.126  21.739  13.451
46003W        W17729  36.951  16.706  12.483
46004W        W17730   3.276  34.620   0.981
46005W        W17731  39.979  32.954  10.671
46006W        W17732  13.740  10.535   0.015
46007W        W17733   0.815  30.060   2.212
46008W        W17734  39.184  30.530  14.930
46009W        W17735  26.983  25.160   2.428
46010W        W17736   0.832  27.490   2.648
46011W        W17737  34.439  20.776  12.965
46012W        W17738   9.658  34.737   1.783
46013W        W17739  16.589  27.162   0.942
46014W        W17740   6.703  32.899  13.491
46015W        W17741   4.654   9.711   1.294
46016W        W17742   1.775  18.944  13.834
46017W        W17743  37.013  40.680   3.217
46018W        W17744  35.140  31.216  12.027
46019W        W17745  24.465  22.685   3.408
46020W        W17746  39.750  34.566  10.525
46021W        W17747  36.499  26.361   2.592
46022W        W17748  22.493   7.715   4.099
46023W        W17749   9.658  32.966  11.089
46024W        W17750  35.691  29.910  12.555
46025W        W17751  34.611   0.695  11.186
46026W        W17752  40.520  17.855  13.835
46027W        W17753  21.766  32.988   0.966
46028W        W17754  10.906   1.236   1.601
46029W        W17755  27.539   8.865   0.848
46030W        W17756   1.447  37.425   4.594
46031W        W17757  11.501  15.308  12.396
46032W        W17758  41.303  11.401  12.596
46033W        W17759  31.986  44.720  11.529
46034W        W17760  31.154  29.021  13.975
46035W        W17761   8.732  15.842  11.638
46036W        W17762   9.653  36.916   0.294
46037W        W17763  22.245  32.143  10.556
46038W        W17764  23.020  21.627  11.546
46039W        W17765  22.370  33.239  14.898
46040W        W17766   4.145  20.686   0.172
46041W        W17767   0.483  35.881  14.374
46042W        W17768  38.515  19.963   3.263
46043W        W17769  38.175  34.277   4.108
46044W        W17770  29.508  15.749   2.746
46045W        W17771  40.494  22.536  10.292
46046W        W17772   3.332  12.659   0.289
46047W        W17773   7.579  16.715   3.335
46048W        W17774  16.428   0.041  12.812
46049W        W17775  38.850  21.491  12.468
46050W        W17776  31.011  42.402   3.355
46051W        W17777  19.679  28.654  11.897
46052W        W17778   2.851  10.366  10.696
46053W        W17779  44.433   4.869  12.951
46054W        W17780  39.493  24.448  14.367
46055W        W17781  42.860  31.274  11.563
46056W        W17782  31.091  15.846  12.607
46057W        W17783  22.085  43.183   4.901
46058W        W17784  40.990  39.878   4.038
46059W        W17785  17.884   6.271  11.864
46060W        W17786  32.463  14.615   4.550
46061W        W17787  35.357  31.141   4.539
46062W        W17788   5.148  36.694  13.416
46063W        W17789  35.130  34.444  11.284
46064W        W17790  20.244  11.671   4.227
46065W        W17791  37.900   4.906   0.205
46066W        W17792  18.785   2.315  14.370
46067W        W17793  11.914   4.397   3.806
46068W        W17794  21.112  17.006  11.571
46069W        W17795  33.069  40.866  12.868
46070W        W17796   8.407  31.912   0.305
46071W        W17797  41.778  38.416  11.653
46072W        W17798  39.283  24.160   0.312
46073W        W17799  29.503  20.232  10.801
46074W        W17800  36.278  22.148  11.157
46075W        W17801  23.250  28.330  12.500
46076W        W17802  33.418   1.775  10.626
46077W        W17803   3.454  44.172   5.212
46078W        W17804  11.542   5.672   3.713
46079W        W17805  13.258   7.945  12.184
46080W        W17806  36.632   2.820  12.998
46081W        W17807   1.399  21.118   4.542
46082W        W17808   0.398  40.233   0.843
46083W        W17809   1.931  41.604   2.127
46084W        W17810  31.296   1.832   4.137
46085W        W17811  38.674  12.890   2.135
46086W        W17812  11.583  18.244  13.801
46087W        W17813   9.642  37.434   3.753
46088W        W17814  13.286  34.792  13.943
46089W        W17815   8.655   6.292   5.206
46090W        W17816  41.382   5.249  13.917
46091W        W17817  21.220  18.051   1.548
46092W        W17818  33.132  33.483   2.191
46093W        W17819  35.818  35.552  12.861
46094W        W17820  22.136  14.347  11.030
46095W        W17821  14.362   4.005  10.722
46096W        W17822  13.161  44.207  12.011
46097W        W17823  43.065  28.254   2.679
46098W        W17824  33.019  12.472   2.164
46099W        W17825  30.918   6.589   3.112
46100W        W17826  10.054  32.197  13.131
46101W        W17827  33.833  13.152  12.540
46102W        W17828   0.916  41.534   4.508
46103W        W17829  43.017   0.615   4.263
46104W        W17830  44.024  17.279  13.229
46105W        W17831  31.469   4.470  10.720
46106W        W17832   8.304  12.086  10.699
46107W        W17833  31.356  43.778   2.318
46108W        W17834  34.509   4.309  13.397
46109W        W17835   9.840  43.460   1.712
46110W        W17836  10.633   5.356   1.712
46111W        W17837  26.603  14.165  11.515
46112W        W17838   1.257  36.952   3.392
46113W        W17839  18.082  12.084  13.331
46114W        W17840  24.215  17.247   1.423
46115W        W17841  16.663  28.517   2.419
46116W        W17842  42.272   4.258  13.601
46117W        W17843   4.595  28.439   1.669
46118W        W17844  18.754  19.094   0.532
46119W        W17845   6.528  24.129   2.899
46120W        W17846  36.954  29.255   4.110
46121W        W17847  39.433  44.551  11.212
46122W        W17848  16.983   8.586   1.229
46123W        W17849   9.745  41.882   1.827
46124W        W17850  24.199  28.479  10.732
46125W        W17851  33.697   4.683   0.425
46126W        W17852   5.928  43.387   4.087
46127W        W17853  39.218   9.110  14.410
46128W        W17854  27.404  43.260   0.342
46129W        W17855  30.188  11.893   0.959
46130W        W17856  28.231  11.166  11.169
46131W        W17857  35.928  41.912  10.670
46132W        W17858  44.413  19.534  10.282
46133W        W17859   6.739  20.749  13.074
46134W        W17860  44.214  17.974   4.192
46135W        W17861  19.247  10.936  12.043
46136W        W17862  10.167  34.950   4.212
46137W        W17863  36.697  26.402   1.936
46138W        W17864  32.570  13.340   3.564
46139W        W17865   4.965   2.550  11.939
46140W        W17866  10.623  25.764  13.757
46141W        W17867  23.229  33.678   2.164
46142W        W17868  33.006   6.484   2.872
46143W        W17869  42.854  14.479   4.941
46144W        W17870  36.809  15.815   0.827
46145W        W17871   5.496  16.908   3.665
46146W        W17872  20.472  19.098   3.345
46147W        W17873  24.852  33.514  12.590
46148W        W17874  43.745  35.849  10.700
46149W        W17875   6.842  35.471  12.120
46150W        W17876   4.696  13.425   2.338
46151W        W17877  44.194   4.825   0.570
46152W        W17878  18.214  20.984  10.181
46153W        W17879  20.657  15.766   3.262
46154W        W17880  19.767  11.723   4.499
46155W        W17881  28.708  15.805   3.861
46156W        W17882  38.436   7.417   4.746
46157W        W17883  22.051   2.394   0.983
46158W        W17884  44.502   1.787   3.806
46159W        W17885  12.392  27.105   4.569
46160W        W17886   5.165  38.111   4.174
46161W        W17887  14.116  26.383  12.560
46162W        W17888   5.470   0.556   3.990
46163W        W17889   8.921  22.187   0.912
46164W        W17890  29.006  39.534   0.632
46165W        W17891  20.283  15.059  12.908
46166W        W17892   4.857   7.224   0.093
46167W        W17893  18.476   7.478   2.483
46168W        W17894   8.641   8.819  13.345
46169W        W17895  29.039  23.103  10.613
46170W        W17896   4.933  42.427  12.617
46171W        W17897  14.388  29.182  11.962
46172W        W17898  35.543   4.661  14.414
46173W        W17899  31.326   0.056   3.856
46174W        W17900  25.297  37.862   4.640
46175W        W17901  17.831  41.493  12.508
46176W        W17902   7.330  44.441  12.517
46177W        W17903  43.860  17.114  11.447
46178W        W17904  24.180  33.482   3.525
46179W        W17905  40.219  39.020  10.864
46180W        W17906   0.663  24.268  10.926
46181W        W17907  36.953   2.588   2.408
46182W        W17908  26.879  24.427  13.151
46183W        W17909  35.511  38.896   2.786
46184W        W17910   8.547  25.621   5.500
46185W        W17911  23.943  44.520  14.976
46186W        W17912   3.227  17.575  12.640
46187W        W17913  36.529  19.637   4.590
46188W        W17914  42.995  32.732   0.371
46189W        W17915  44.612  14.024   4.087
46190W        W17916  44.999   5.060   4.144
46191W        W17917   0.814  25.961   0.050
46192W        W17918  33.798  37.810  13.993
46193W        W17919   3.929   2.177   2.797
46194W        W17920  43.221  16.674  11.422
46195W        W17921  17.656  33.138   1.191
46196W        W17922   0.572  35.577   4.652
46197W        W17923  37.474   7.809  13.471
46198W        W17924  39.306  44.725   2.558
46199W        W17925  27.061   9.432  13.940
46200W        W17926  10.168  19.735   0.999
46201W        W17927  34.444  22.503  14.651
46202W        W17928  16.800  23.766  14.265
46203W        W17929   8.906  17.798  13.439
46204W        W17930  23.617  43.838   4.391
46205W        W17931  29.404  16.082  12.485
46206W        W17932  15.566  25.743   4.393
46207W        W17933  37.486  43.472   3.621
46208W        W17934  12.994  27.723   3.734
46209W        W17935   9.358  36.171   2.758
46210W        W17936   0.800  23.735   4.235
46211W        W17937  24.442  39.436  13.061
46212W        W17938  31.442  38.503   3.684
46213W        W17939   2.818   1.828   2.890
46214W        W17940  15.880  25.508  10.591
46215W        W17941  16.253  32.847   3.715
46216W        W17942  34.039  26.424  11.402
46217W        W17943  20.808   5.382  10.763
46218W        W17944  22.543  35.801  12.440
46219W        W17945  42.438  28.241   3.777
46220W        W17946  36.010  26.546   0.386
46221W        W17947   3.714  23.054   4.600
46222W        W17948  22.322   2.759   1.756
46223W        W17949  30.615   2.391   4.150
46224W        W17950  41.422  35.254   3.495
46225W        W17951   8.951  11.746  11.936
46226W        W17952  15.305   6.884   1.825
46227W        W17953  21.694  15.224   4.980
46228W        W17954  29.385  13.831   4.879
46229W        W17955   8.458   0.913   4.951
46230W        W17956  36.402  43.905   1.844
46231W        W17957  36.012  37.048   2.775
46232W        W17958  37.822  17.777  13.469
46233W        W17959  42.106  19.966   0.759
46234W        W17960  16.652  11.118   2.694
46235W        W17961  22.664  33.024  10.156
46236W        W17962  34.803  27.072   3.761
46237W        W17963  26.141  24.622  13.301
46238W        W17964   9.303  32.295  12.910
46239W        W17965  38.168  26.682  11.544
46240W        W17966  14.882  26.687  14.487
46241W        W17967  40.872  44.764  10.557
46242W        W17968  24.953  33.909  12.020
46243W        W17969  24.033   2.209  11.180
46244W        W17970  25.532  43.710  11.556
46245W        W17971  33.089   4.878  13.969
46246W        W17972  44.758  36.949   1.927
46247W        W17973  19.147   1.557   2.328
46248W        W17974  26.122  42.677   3.651
46249W        W17975  28.227  11.216   9.676
46250W        W17976   6.670  42.060   3.183
46251W        W17977  43.931  32.359   4.512
46252W        W17978  36.451  41.268   3.153
46253W        W17979  13.854  33.526  12.658
46254W        W17980  30.861  18.770  13.391
46255W        W17981  25.607  18.238  11.712
46256W        W17982  38.613  36.559   2.826
46257W        W17983  17.747   4.963   0.587
46258W        W17984  33.359  19.525  11.032
46259W        W17985  37.891  40.434   2.527
46260W        W17986   6.737  10.483  12.814
46261W        W17987  22.677  27.084  14.798
46262W        W17988  30.107   6.704  13.596
46263W        W17989   1.978  10.667  12.076
46264W        W17990   3.498  11.908  12.269
46265W        W17991  37.822  25.574  10.451
46266W        W17992  39.391  21.556   0.779
46267W        W17993  18.785   7.377   0.215
46268W        W17994   2.879  21.221  14.945
46269W        W17995  37.687  23.250   3.606
46270W        W17996  30.363  32.609   1.444
46271W        W17997   1.646   7.700   3.123
46272W        W17998   5.805  24.082   1.353
46273W        W17999  18.308  25.770   1.127
46274W        W18000  13.347   5.900  14.213
46275W        W18001  42.547  19.971  11.129
46276W        W18002  25.305   9.817  12.229
46277W        W18003  35.898  21.626   2.508
46278W        W18004  24.017  31.225  11.411
46279W        W18005  43.827  10.288   3.684
46280W        W18006  24.533   1.249   0.954
46281W        W18007  28.455   4.720   0.765
46282W        W18008  39.652   3.971  14.635
46283W        W18009   9.397   3.341   3.719
46284W        W18010  30.007   9.282  11.377
46285W        W18011  28.043   7.129  13.976
46286W        W18012  26.627  15.583  11.633
46287W        W18013  13.766   0.466   1.280
46288W        W18014  12.956  20.107  12.991
46289W        W18015  22.752  28.713   1.862
46290W        W18016  31.619  42.000   5.189
46291W        W18017  42.462  34.445   2.801
46292W        W18018   2.835  10.381   1.313
46293W        W18019  38.761  24.773  13.939
46294W        W18020   2.979   5.855  12.947
46295W        W18021   8.823  42.483   4.596
46296W        W18022  26.227  13.168  11.590
46297W        W18023   5.042  12.885  10.568
46298W        W18024  14.884  26.038  10.832
46299W        W18025   1.756  12.272  11.216
46300W        W18026  22.068  37.806   2.248
46301W        W18027  25.079  41.313   4.236
46302W        W18028  17.277  20.600  14.757
46303W        W18029   4.920  26.268  11.135
46304W        W18030  41.930  14.385  14.347
46305W        W18031  27.197   2.442  11.878
46306W        W18032  32.123  33.377   2.337
46307W        W18033  27.067  10.408  11.995
46308W        W18034  23.162  10.618  14.633
46309W        W18035  24.298  29.965  14.006
46310W        W18036  22.226  38.923   2.860
46311W        W18037  41.635  24.894   2.590
46312W        W18038  44.984  37.101  13.926
46313W        W18039  28.032  33.344  11.638
46314W        W18040  15.672   5.397  14.753
46315W        W18041  21.607  31.618   4.239
46316W        W18042  33.171  42.307   4.020
46317W        W18043  10.165  37.638   0.383
46318W        W18044  14.077   3.318  10.504
46319W        W18045  43.400  16.519  13.250
46320W        W18046  28.112  33.130  14.016
46321W        W18047  40.735  38.077   1.942
46322W        W18048  17.710  20.556  10.716
46323W        W18049  22.975  35.040   4.374
46324W        W18050  31.216  42.979  10.213
46325W        W18051   0.722  13.760   4.168
46326W        W18052  27.560  28.111  13.904
46327W        W18053  24.234   7.792   3.177
46328W        W18054   0.933  44.409  13.036
46329W        W18055  32.353  24.142   5.043
46330W        W18056  19.708  42.008   4.058
46331W        W18057  37.064  34.935   3.860
46332W        W18058  11.488  33.644  14.469
46333W        W18059  16.071  17.506  10.986
46334W        W18060  28.341  29.414   0.778
46335W        W18061   6.910  44.821  13.026
46336W        W18062  43.787  19.013  13.508
46337W        W18063  20.023  26.520  10.404
46338W        W18064  32.912  38.622  14.876
46339W        W18065  26.914   6.573  12.577
46340W        W18066  27.521  29.479   2.775
46341W        W18067  28.622  19.741  14.363
46342W        W18068  43.868   0.530   0.498
46343W        W18069  20.410  29.147   3.688
46344W        W18070  34.898  35.983   4.099
46345W        W18071  41.897  41.598   1.277
46346W        W18072  11.980  40.504   0.867
46347W        W18073  17.237   6.147   2.409
46348W        W18074   8.872  20.730   3.305
46349W        W18075  21.660   8.167  11.490
46350W        W18076   7.932  34.537   4.192
46351W        W18077   6.926  37.975   3.370
46352W        W18078  31.724  19.742   2.781
46353W        W18079  34.003  32.451  10.460
46354W        W18080   9.951  11.704   1.386
46355W        W18081  13.761  41.257   2.301
46356W        W18082  15.349  35.352  12.600
46357W        W18083  32.549  44.445   3.754
46358W        W18084  36.082  29.965   1.777
46359W        W18085  19.336  30.681   3.844
46360W        W18086  12.187  27.564   2.893
46361W        W18087  16.168  11.229  14.219
46362W        W18088  31.967   3.012   0.689
46363W        W18089  40.423  14.504  12.935
46364W        W18090  24.222  35.601   4.156
46365W        W18091  29.643   7.701  12.067
46366W        W18092   8.155  25.800   3.582
46367W        W18093  32.366  44.826  14.338
46368W        W18094   6.374  28.153   2.148
46369W        W18095   5.730  17.998  14.355
46370W        W18096   9.027  33.284   5.034
46371W        W18097  20.251  26.752  12.893
46372W        W18098  31.695  31.695   2.723
46373W        W18099  13.106  31.429  13.936
46374W        W18100   1.322   9.722   1.370
46375W        W18101   3.652  12.356   1.301
46376W        W18102  33.214  17.159   4.981
46377W        W18103  12.145  35.379   1.897
46378W        W18104  43.444  17.973   1.386
46379W        W18105   0.525  38.612   4.688
46380W        W18106  25.988  25.943  11.906
46381W        W18107  19.809  29.940  14.003
46382W        W18108  44.800  26.063  12.074
46383W        W18109  29.434  36.925   1.089
46384W        W18110  36.996  30.102   1.380
46385W        W18111  17.230  31.880   3.434
46386W        W18112  37.454  25.640   0.220
46387W        W18113  19.585   3.868  13.810
46388W        W18114   0.404   1.492   2.340
46389W        W18115  37.091   0.412  14.878
46390W        W18116  26.538  21.304  14.753
46391W        W18117   6.604  16.614  13.847
46392W        W18118  39.542  20.327  11.077
46393W        W18119  21.156   5.597  13.511
46394W        W18120  38.373  36.462   0.771
46395W        W18121   7.961  31.217   4.491
46396W        W18122  26.579  38.942   1.979
46397W        W18123  21.572  37.306  14.021
46398W        W18124   2.817  36.378  12.884
46399W        W18125   4.340  27.154  14.003
46400W        W18126  41.857  31.049   0.250
46401W        W18127  21.679   7.727   3.776
46402W        W18128  33.293  14.951  13.540
46403W        W18129  30.372  13.615   3.280
46404W        W18130  11.430  29.595   3.718
46405W        W18131  44.473   3.977  10.731
46406W        W18132   6.365  20.123  10.684
46407W        W18133  19.023  28.558   2.584
46408W        W18134   7.693  12.548   4.306
46409W        W18135   4.862  31.841   4.083
46410W        W18136  19.120  15.160   2.761
46411W        W18137  38.262  11.508  13.107
46412W        W18138  11.613   9.895   0.033
46413W        W18139  14.749  39.025  14.344
46414W        W18140  28.400  33.523  13.589
46415W        W18141   1.333  40.293  14.359
46416W        W18142  32.617  41.084   9.746
46417W        W18143   7.630  10.609  11.966
46418W        W18144   0.956  16.151  13.716
46419W        W18145  42.014   1.357  12.956
46420W        W18146   1.404  36.810  14.977
46421W        W18147  12.207   1.365  11.757
46422W        W18148   0.334  19.183  11.986
46423W        W18149   5.106   8.313  14.072
46424W        W18150   8.792  42.836   2.312
46425W        W18151  27.913   1.431   2.816
46426W        W18152  27.730   5.935  10.636
46427W        W18153   2.021  34.538  14.852
46428W        W18154  36.108  33.595  14.844
46429W        W18155  15.051  28.435   3.308
46430W        W18156   0.536   8.695  14.957
46431W        W18157   6.099  16.781   2.683
46432W        W18158  23.130  31.960  11.460
46433W        W18159  22.229   4.687   3.728
46434W        W18160   2.308  30.298   5.231
46435W        W18161  30.465  16.625  13.077
46436W        W18162  10.196  13.898   1.733
46437W        W18163  28.691  44.073  13.942
46438W        W18164  42.418  22.470   3.099
46439W        W18165  22.493  40.110  11.919
46440W        W18166  24.631  34.886  14.883
46441W        W18167  24.025  22.763   4.690
46442W        W18168  13.697  37.902   4.343
46443W        W18169  28.876  42.280  13.837
46444W        W18170  43.013  10.853   0.443
46445W        W18171  30.332   0.712   1.772
46446W        W18172  33.985  31.403  12.521
46447W        W18173  21.628   8.757   2.277
46448W        W18174  29.319   5.357  11.671
46449W        W18175  34.952  28.946   1.432
46450W        W18176   4.031  38.887   4.086
46451W        W18177  34.710   4.896   0.371
46452W        W18178  20.579  34.621   4.284
46453W        W18179  21.007  26.702  11.741
46454W        W18180  44.389  26.267  12.310
46455W        W18181  14.739  27.551   3.815
46456W        W18182  22.069  39.774  11.889
46457W        W18183   1.707  22.593  14.954
46458W        W18184   9.079  17.688  13.898
46459W        W18185  38.189   0.830   9.935
46460W        W18186  40.584  19.990   2.324
46461W        W18187  44.186   0.510   0.092
46462W        W18188  27.953   2.851   4.485
46463W        W18189  19.092  13.165  14.307
46464W        W18190   0.174   7.991   0.349
46465W        W18191   5.783  44.455   2.680
46466W        W18192  43.960  23.775   1.864
46467W        W18193   1.934  16.748  10.656
46468W        W18194   0.730  18.007  14.043
46469W        W18195  22.489  26.077  14.791
46470W        W18196  21.036  24.510  14.806
46471W        W18197  15.747  17.779  14.990
46472W        W18198  31.379  37.342  11.560
46473W        W18199   3.992   0.172  13.967
46474W        W18200   6.354   0.846   1.963
46475W        W18201  43.929  41.457  11.188
46476W        W18202  37.976  44.871   0.652
46477W        W18203  11.450  36.895   0.330
46478W        W18204  22.492  13.793  13.796
46479W        W18205  25.669  34.305   0.181
46480W        W18206  11.205  39.344  14.252
46481W        W18207  23.657  39.493   2.288
46482W        W18208  17.027  10.404  13.213
46483W        W18209  16.632  43.271  13.539
46484W        W18210   2.779   2.225  11.394
46485W        W18211   0.889  32.945  13.580
46486W        W18212  23.938   6.795  12.377
46487W        W18213  12.402  35.177  10.686
46488W        W18214  28.748   4.722  13.491
46489W        W18215  31.189  32.703  12.360
46490W        W18216  12.117  33.062   1.482
46491W        W18217   0.489  13.897   2.369
46492W        W18218  11.882   9.857   0.500
46493W        W18219  18.301  23.573   4.186
46494W        W18220  15.384   3.742  11.573
46495W        W18221  44.473  41.832  14.551
46496W        W18222  27.134  37.503  10.120
46497W        W18223   1.861  38.568   0.905
46498W        W18224  11.685  16.677   2.850
46499W        W18225  29.725  35.633   1.491
46500W        W18226  23.595  22.783  11.503
46501W        W18227  26.183  25.011   1.878
46502W        W18228  43.655  38.739  11.142
46503W        W18229  21.459  18.524  11.124
46504W        W18230  40.279  27.500  11.154
46505W        W18231  30.788  29.941  10.497
46506W        W18232  32.090  23.686  13.917
46507W        W18233   4.850  30.139  14.753
46508W        W18234  31.623  20.761  10.735
46509W        W18235   0.145  10.558  13.314
46510W        W18236  41.395   5.552   2.538
46511W        W18237   3.354  28.947   4.946
46512W        W18238  10.174   5.681  14.226
46513W        W18239  23.639  10.629  11.838
46514W        W18240   0.876  12.531   0.030
46515W        W18241  23.886  21.223  14.248
46516W        W18242  29.914  28.411  12.334
46517W        W18243  29.048  16.251  13.794
46518W        W18244  16.169  32.933  11.127
46519W        W18245  23.771  40.853  14.940
46520W        W18246  30.631  29.950   0.361
46521W        W18247  35.598  16.683   2.281
46522W        W18248  10.086   2.367  14.876
46523W        W18249   5.667   8.249  14.268
46524W        W18250  18.046  22.339  10.631
46525W        W18251  27.717   1.723  11.662
46526W        W18252  13.246  19.337   3.491
46527W        W18253  27.154  41.913  11.638
46528W        W18254  41.920  12.350   4.079
46529W        W18255  30.120  30.578   1.770
46530W        W18256   3.739   5.227  14.002
46531W        W18257   5.506  24.987  12.499
46532W        W18258  17.997  31.945  14.334
46533W        W18259   1.097  32.706  14.522
46534W        W18260  43.306  32.475   0.726
46535W        W18261  44.846  31.139   3.565
46536W        W18262  18.064  37.286  11.958
46537W        W18263   0.874   3.973   0.270
46538W        W18264   9.106  35.113   1.383
46539W        W18265   3.922  18.961  12.522
46540W        W18266  31.595  11.569  11.016
46541W        W18267  24.138   6.449   1.325
46542W        W18268  35.069   8.468  13.016
46543W        W18269  37.831  11.558  14.024
46544W        W18270   4.344  40.098   1.982
46545W        W18271  38.280  20.721   0.938
46546W        W18272   2.289  28.326   2.744
46547W        W18273  20.251  38.943  11.596
46548W        W18274   7.740  28.020  13.851
46549W        W18275  35.023  43.466  11.185
46550W        W18276  11.756  12.106   1.873
46551W        W18277   9.460   3.053   0.179
46552W        W18278  19.549   6.231  12.414
46553W        W18279  43.194  26.927  12.830
46554W        W18280  44.444  43.070  14.970
46555W        W18281  17.522   5.625   4.149
46556W        W18282  19.057  31.162   4.202
46557W        W18283   2.176   0.120  11.990
46558W        W18284  31.021  24.474  11.098
46559W        W18285  17.511  15.232  14.443
46560W        W18286  29.982  12.100  14.574
46561W        W18287  39.045  17.611   4.602
46562W        W18288  33.681   3.754  11.562
46563W        W18289   0.579  17.942   3.122
46564W        W18290  41.370  34.898  10.872
46565W        W18291   2.271   0.765   1.272
46566W        W18292  11.216   0.894   2.299
46567W        W18293  22.020  24.497   1.883
46568W        W18294  11.939  17.191  14.478
46569W        W18295  23.185  44.034   4.695
46570W        W18296  35.839  36.992  14.313
46571W        W18297  23.109  37.531  13.577
46572W        W18298  21.205   8.799   4.570
46573W        W18299  44.680  43.466  11.569
46574W        W18300  12.659  18.120   1.807
46575W        W18301  31.323  19.545   2.497
46576W        W18302  17.096  44.018   2.305
46577W        W18303  27.581  32.226  11.761
46578W        W18304  37.050  11.684   1.874
46579W        W18305  24.503  22.287  11.089
46580W        W18306   7.123  28.343   1.769
46581W        W18307  20.714  36.536   3.816
46582W        W18308  16.034  21.224   0.156
46583W        W18309   0.123  11.908  14.785
46584W        W18310   4.054  13.124  12.960
46585W        W18311  13.346   3.615   2.928
46586W        W18312  41.631   6.687  14.939
46587W        W18313  41.036  21.112  10.608
46588W        W18314  15.506  31.377   4.211
46589W        W18315  12.047  21.662  11.436
46590W        W18316  37.883  33.561   1.785
46591W        W18317  36.489   5.896  14.696
46592W        W18318  17.087  29.478   2.484
46593W        W18319  39.787   8.387   3.593
46594W        W18320  24.567  27.920   0.463
46595W        W18321  18.626  34.424  14.916
46596W        W18322  25.695  16.077  14.770
46597W        W18323  27.300   2.134  13.350
46598W        W18324  43.196   7.864  10.655
46599W        W18325  21.807  10.124  14.942
46600W        W18326  11.957  12.704  13.928
46601W        W18327   5.562  27.189  11.820
46602W        W18328  17.625   6.040   4.411
46603W        W18329  25.766  44.590  12.484
46604W        W18330   2.742  11.794   3.090
46605W        W18331   8.466   1.992  14.391
46606W        W18332  35.443  10.866  11.183
46607W        W18333  14.736   9.671   4.586
46608W        W18334  30.451   3.727  12.871
46609W        W18335  30.950   6.965  12.639
46610W        W18336  11.399  35.557   4.214
46611W        W18337  37.927  40.959  14.880
46612W        W18338  21.111   7.410  14.365
46613W        W18339  43.597  29.429   0.726
46614W        W18340  18.496  12.615   1.807
46615W        W18341   1.512   6.794   3.628
46616W        W18342  31.120   1.401  14.735
46617W        W18343  27.704   6.276   0.787
46618W        W18344  39.981  14.210   0.909
46619W        W18345  20.150  10.246   4.669
46620W        W18346  33.051  19.592  14.108
46621W        W18347   4.518  37.543   3.310
46622W        W18348  38.322   2.596  11.974
46623W        W18349   3.907   1.296  14.865
46624W        W18350  26.567  39.978  12.460
46625W        W18351  23.446  44.582   2.793
46626W        W18352   1.889   5.326   1.951
46627W        W18353  13.416  16.085   2.804
46628W        W18354  37.035  39.045   4.547
46629W        W18355  37.295  14.651   1.954
46630W        W18356  41.015  43.975  13.737
46631W        W18357  37.344   6.445  13.858
46632W        W18358   6.636  32.012   4.540
46633W        W18359   4.465  42.491  12.941
46634W        W18360  34.509  44.213   2.144
46635W        W18361  16.643   8.613  12.200
46636W        W18362  32.803   9.716   0.739
46637W        W18363  12.784   9.830  12.360
46638W        W18364  33.035  12.072  14.854
46639W        W18365  16.798  41.610   0.489
46640W        W18366   5.622  35.136  14.617
46641W        W18367  31.582  22.008  12.883
46642W        W18368  25.749   7.811  14.697
46643W        W18369  32.577  12.562  12.430
46644W        W18370  38.135   3.518  11.649
46645W        W18371   4.898  26.579  10.690
46646W        W18372   8.453  29.081  14.260
46647W        W18373  37.933  24.431  10.697
46648W        W18374  32.017  39.352  11.866
46649W        W18375  43.390  34.174   0.483
46650W        W18376  29.766  26.121  10.059
46651W        W18377  12.384  27.656  14.687
46652W        W18378  38.573  33.449  11.840
46653W        W18379  11.796  31.453   4.350
46654W        W18380  15.372   9.218   1.729
46655W        W18381  19.117  22.583   3.910
46656W        W18382  25.891  43.935  13.374
46657W        W18383  25.564  27.064  12.454
46658W        W18384  35.812   5.875  11.528
46659W        W18385  39.707  33.600  14.391
46660W        W18386  16.570   7.237  14.826
46661W        W18387  27.626   4.974   1.274
46662W        W18388  38.119  40.408   4.706
46663W        W18389  21.042  14.750   4.610
46664W        W18390  30.668  38.321   4.256
46665W        W18391  25.116   5.200  11.077
46666W        W18392  39.713   1.236   1.525
46667W        W18393  33.996  14.267   2.735
46668W        W18394  27.907  27.920   4.971
46669W        W18395  41.477  10.813   3.126
46670W        W18396  43.991   9.833  14.793
46671W        W18397   1.049   1.682  14.041
46672W        W18398  14.200  41.755   3.313
46673W        W18399  26.954  14.714   4.501
46674W        W18400   1.398   7.688  13.579
46675W        W18401   4.398  36.618   0.263
46676W        W18402   6.280  20.808   4.610
46677W        W18403  20.723  32.489   4.270
46678W        W18404  23.242   9.882  11.035
46679W        W18405  12.684  15.291   3.720
46680W        W18406  20.030  36.865  12.427
46681W        W18407   2.772  16.361  11.869
46682W        W18408  31.443  27.799   1.976
46683W        W18409  14.762  36.473   3.033
46684W        W18410  12.315  36.328   3.641
46685W        W18411   7.445  15.574  13.908
46686W        W18412  20.770  23.941   0.880
46687W        W18413  31.360  13.832  13.776
46688W        W18414   9.724  40.980  10.726
46689W        W18415  42.618  40.348   3.616
46690W        W18416  28.983   4.945  13.077
46691W        W18417  21.947  27.564   2.427
46692W        W18418  25.644   9.459   0.299
46693W        W18419  16.770  32.080  11.157
46694W        W18420  24.240  22.881   1.695
46695W        W18421  24.960  16.475  10.825
46696W        W18422  24.056  13.760   4.788
46697W        W18423  33.915  31.892  14.718
46698W        W18424   4.241   9.788   0.983
46699W        W18425  36.620  20.070  10.913
46700W        W18426  26.435  40.786   0.333
46701W        W18427  28.863  11.766  14.393
46702W        W18428  39.805  44.816   2.297
46703W        W18429   8.944  35.385  11.843
46704W        W18430  32.539  19.407  14.275
46705W        W18431   2.948   1.701   0.137
46706W        W18432  31.798  19.660   2.269
46707W        W18433  32.658   6.268   4.736
46708W        W18434  41.400  19.604  11.960
46709W        W18435  21.020  22.630   3.247
46710W        W18436  44.734  21.998  13.421
46711W        W18437  35.945  27.216   1.720
46712W        W18438  24.513  43.419   1.661
46713W        W18439   5.177   5.808  12.219
46714W        W18440  11.035  14.062  11.110
46715W        W18441  41.740  26.596   1.268
46716W        W18442  12.247  13.314  11.168
46717W        W18443   2.255  33.433   3.135
46718W        W18444   3.246  36.846  14.908
46719W        W18445  31.261   9.620   1.836
46720W        W18446   7.663  21.204   2.798
46721W        W18447  22.553  34.825   4.138
46722W        W18448  12.866   8.910   0.757
46723W        W18449  12.790   3.198  14.982
46724W        W18450  21.476   7.657   4.430
46725W        W18451  40.991   2.366   4.597
46726W        W18452  39.336  33.293   4.382
46727W        W18453   6.714  19.065   3.648
46728W        W18454  41.818   2.431  13.421
46729W        W18455  23.229  17.947   4.930
46730W        W18456  18.642  44.493   0.902
46731W        W18457  42.696  39.046   1.723
46732W        W18458  43.266  15.253  11.197
46733W        W18459  31.021  21.987   4.582
46734W        W18460  31.637   2.293  11.379
46735W        W18461  28.677   3.705   2.854
46736W        W18462  10.130  43.402  13.449
46737W        W18463   8.799  18.646   0.430
46738W        W18464  35.340  19.172   1.743
46739W        W18465  15.074  24.657  14.890
46740W        W18466  15.724  25.101   2.254
46741W        W18467  31.901  17.856  14.895
46742W        W18468  24.501  26.201  10.248
46743W        W18469   2.325  31.115   2.665
46744W        W18470  13.406  19.068  14.059
46745W        W18471  25.349  12.730   1.963
46746W        W18472  13.841  24.610  11.539
46747W        W18473  12.204   5.226   2.698
46748W        W18474  26.634   6.145  14.264
46749W        W18475   2.437   2.093   2.624
46750W        W18476  35.301  25.528  11.052
46751W        W18477  21.248  36.964   0.980
46752W        W18478  17.751  29.007   1.868
46753W        W18479  26.965  26.881   4.189
46754W        W18480  25.945  42.541   3.163
46755W        W18481  19.990  39.825   2.472
46756W        W18482  23.136  42.306  13.888
46757W        W18483  16.851  21.755  13.360
46758W        W18484  34.019   3.339   3.185
46759W        W18485  35.413  14.903  14.232
46760W        W18486  17.863   5.260  11.541
46761W        W18487  14.839  42.972   3.180
46762W        W18488  42.757  15.270  13.404
46763W        W18489   0.385  40.956   2.645
46764W        W18490  10.657  35.210   9.945
46765W        W18491  34.495   2.438  14.279
46766W        W18492  13.329  23.307   0.693
46767W        W18493  28.623  31.007  11.672
46768W        W18494  12.646  18.471   2.587
46769W        W18495  13.225  12.553   3.590
46770W        W18496  26.220  13.196   4.812
46771W        W18497  21.014   2.297  10.896
46772W        W18498   1.351  29.716  14.682
46773W        W18499   1.338  27.763  14.843
46774W        W18500   5.697  41.921   3.748
46775W        W18501  31.446  39.907   2.141
46776W        W18502  39.984  11.439  11.149
46777W        W18503  17.456  17.589  12.619
46778W        W18504  11.221  20.247  13.963
46779W        W18505  16.010   7.003  12.117
46780W        W18506  22.892  32.716  11.127
46781W        W18507   9.869  43.188  12.067
46782W        W18508  30.820  18.147   0.631
46783W        W18509  17.576  12.634   2.743
46784W        W18510  41.565  16.309  11.120
46785W        W18511  16.219  14.891  14.836
46786W        W18512  17.075  29.986  13.576
46787W        W18513  10.218  12.304   2.207
46788W        W18514  29.663  11.070   0.925
46789W        W18515  15.296  33.523   4.121
46790W        W18516  28.944  43.559  10.649
46791W        W18517  12.318   8.363   3.314
46792W        W18518   1.969  12.491   3.815
46793W        W18519  17.774  26.662  12.137
46794W        W18520  40.428   8.706  14.028
46795W        W18521  42.300   4.382   3.737
46796W        W18522  39.860  31.949  12.851
46797W        W18523  21.564   6.771  14.793
46798W        W18524  21.273   3.331   0.597
46799W        W18525   2.016  38.072   4.299
46800W        W18526   5.439  11.518  10.031
46801W        W18527  17.312  22.450   4.261
46802W        W18528  39.111  23.549   1.743
46803W        W18529  25.479  12.948   4.135
46804W        W18530  40.926  20.821  11.556
46805W        W18531   9.336  22.778  14.032
46806W        W18532  27.624   5.588  11.005
46807W        W18533   8.836  44.906   4.210
46808W        W18534  31.702  28.342  12.963
46809W        W18535  44.324   7.917  11.039
46810W        W18536  21.565   8.795   3.709
46811W        W18537  22.785  19.127   0.574
46812W        W18538  40.572   8.614  12.986
46813W        W18539   5.198  32.551  11.449
46814W        W18540  39.425  18.346   3.974
46815W        W18541  12.366  40.568   1.309
46816W        W18542  32.979  32.005   0.520
46817W        W18543  28.978  38.783  12.967
46818W        W18544  17.188   6.892  13.574
46819W        W18545  20.039  21.557   4.083
46820W        W18546  12.600  24.426  12.054
46821W        W18547  33.275  16.175   1.292
46822W        W18548  15.367  34.965   3.516
46823W        W18549  16.697  31.415   2.655
46824W        W18550  42.220   4.940   3.666
46825W        W18551   1.453   9.257   1.565
46826W        W18552   4.768   9.829  10.666
46827W        W18553  20.647  21.213   0.442
46828W        W18554  17.872  38.427  14.933
46829W        W18555   2.435  23.511   0.914
46830W        W18556  16.813  40.004   0.954
46831W        W18557  14.519  23.690   1.368
46832W        W18558   3.267  32.112  13.284
46833W        W18559  14.192   9.473   0.431
46834W        W18560   4.827   5.149  13.041
46835W        W18561  25.311  39.590  11.025
46836W        W18562  29.055   8.434  11.140
46837W        W18563  35.423  23.912   4.186
46838W        W18564  14.143  40.000  12.970
46839W        W18565  12.916  40.796   1.861
46840W        W18566  15.614   3.317   2.402
46841W        W18567  24.610  41.835   2.152
46842W        W18568  25.009  17.230   4.565
46843W        W18569  12.667  25.450  11.126
46844W        W18570  19.147   7.410  13.409
46845W        W18571  26.452  12.002   1.173
46846W        W18572  17.179  41.329   4.641
46847W        W18573  26.194  44.892   2.300
46848W        W18574  29.024  31.221  11.914
46849W        W18575  44.828  19.279   2.083
46850W        W18576  37.616  38.430   2.354
46851W        W18577  40.096  25.611   1.767
46852W        W18578  40.965  23.234  14.294
46853W        W18579  30.612  39.888   2.678
46854W        W18580  35.829  19.815   0.692
46855W        W18581  33.193  36.960  14.844
46856W        W18582  23.713   7.710   3.198
46857W        W18583  26.194  27.777   4.820
46858W        W18584  11.701  19.731   3.577
46859W        W18585  12.716  19.698   4.946
46860W        W18586   5.728  18.780  12.663
46861W        W18587  39.344  40.381  11.702
46862W        W18588  38.388   4.217   1.954
46863W        W18589  16.290  12.029  11.791
46864W        W18590   6.046  25.995  13.564
46865W        W18591  32.523   3.767   4.269
46866W        W18592  35.136  31.037   3.999
46867W        W18593  30.984  21.570  11.553
46868W        W18594   5.229  19.597  10.793
46869W        W18595  18.497  32.040   3.648
46870W        W18596   2.327  33.790   4.303
46871W        W18597   0.997  44.688  13.939
46872W        W18598  39.890  36.511  13.561
46873W        W18599  42.484  17.093   0.970
46874W        W18600  32.965   8.972   3.550
46875W        W18601  30.524   4.999  11.507
46876W        W18602   1.306  20.679  14.481
46877W        W18603   8.612  35.962  13.909
46878W        W18604  10.048   1.684   0.371
46879W        W18605   9.829  34.281  13.665
46880W        W18606  12.746  25.667   1.280
46881W        W18607  14.360  38.015   0.053
46882W        W18608  17.315  34.341  13.810
46883W        W18609  32.807  32.940  10.633
46884W        W18610   5.353  42.520  10.740
46885W        W18611  12.701   9.377  12.053
46886W        W18612  42.552  33.059  14.508
46887W        W18613  34.438  44.910  13.962
46888W        W18614  44.874  43.526   3.990
46889W        W18615  32.835   7.793   4.351
46890W        W18616   5.436  26.694   1.343
46891W        W18617  20.309  40.955   0.691
46892W        W18618   5.673   9.153  14.289
46893W        W18619   6.904  21.549  14.431
46894W        W18620  37.574  27.963   4.054
46895W        W18621  41.437  13.153  14.370
46896W        W18622  12.167   0.904   4.588
46897W        W18623  24.663  34.460   4.584
46898W        W18624  35.579  26.267  11.830
46899W        W18625  12.808  31.127  14.281
46900W        W18626   4.944  28.883  11.049
46901W        W18627  11.687   6.710  13.049
46902W        W18628  39.681  11.212   4.109
46903W        W18629   2.798  41.021  10.558
46904W        W18630  16.879   1.720  14.952
46905W        W18631  25.702   1.057   1.771
46906W        W18632  36.939  22.239  14.484
46907W        W18633  25.232   4.654   0.946
46908W        W18634  40.076  35.177  13.550
46909W        W18635  44.355  27.199   2.346
46910W        W18636  29.283  23.360  13.912
46911W        W18637  12.354  13.133   3.924
46912W        W18638  37.827  25.287  13.514
46913W        W18639  10.195  21.142   0.381
46914W        W18640  33.735  12.376   0.167
46915W        W18641  33.502   3.934  10.688
46916W        W18642   1.455  13.089   1.218
46917W        W18643  23.407  28.966  14.024
46918W        W18644   5.837   9.931   2.861
46919W        W18645  20.052  23.811   4.947
46920W        W18646  42.519   9.655   0.753
46921W        W18647  29.402   5.724   2.721
46922W        W18648  28.106  27.251   3.758
46923W        W18649   3.844  20.059   4.518
46924W        W18650  37.000  39.026   0.062
46925W        W18651  10.349  44.390  14.335
46926W        W18652  22.275  36.611  13.934
46927W        W18653  14.951  16.355  11.062
46928W        W18654  10.537   6.126   4.927
46929W        W18655   0.199  21.508  10.675
46930W        W18656  26.781  24.541   4.587
46931W        W18657  25.131  31.550  10.716
46932W        W18658  32.573  13.323  12.989
46933W        W18659  20.012  38.108   0.890
46934W        W18660   1.298  15.890   1.891
46935W        W18661   4.299  20.744   2.242
46936W        W18662  16.974  12.327  14.318
46937W        W18663  32.144  34.463   3.347
46938W        W18664  17.516   8.783  13.314
46939W        W18665  30.133  31.847  12.907
46940W        W18666  44.500   2.285  13.577
46941W        W18667  32.994  40.027   4.153
46942W        W18668  15.019  27.012  14.123
46943W        W18669   4.896   7.273   2.887
46944W        W18670  18.039  30.290  10.342
46945W        W18671  44.985  39.800   3.697
46946W        W18672  34.508  12.853  10.749
46947W        W18673  21.695   3.458   3.638
46948W        W18674  44.426  33.835  13.023
46949W        W18675  40.004   4.033   4.716
46950W        W18676  25.527  41.294  13.517
46951W        W18677  39.603  39.466  12.498
46952W        W18678   1.379  36.993   2.872
46953W        W18679   0.234  33.202   0.332
46954W        W18680  28.120  11.724   0.799
46955W        W18681  15.337   5.821  12.953
46956W        W18682  15.229  16.017   2.235
46957W        W18683  10.640  35.429  12.854
46958W        W18684  20.834  31.033   1.834
46959W        W18685  33.511   5.763  11.175
46960W        W18686  40.585  41.096   4.400
46961W        W18687  10.243   2.851  14.846
46962W        W18688  41.570  13.769   3.838
46963W        W18689  39.037  17.584   0.283
46964W        W18690   1.879  35.830   4.523
46965W        W18691  11.307  24.588  10.386
46966W        W18692  16.132  14.345   1.329
46967W        W18693  19.943   9.886   0.338
46968W        W18694   8.808   4.730   1.697
46969W        W18695  44.369   7.077  13.490
46970W        W18696   7.389  13.168  13.844
46971W        W18697   6.861  43.550  14.577
46972W        W18698   8.735  13.608   0.160
46973W        W18699  17.505  20.669   4.977
46974W        W18700  23.064   3.227   0.954
46975W        W18701  41.379  23.492  11.563
46976W        W18702  42.828  30.755  11.517
46977W        W18703  19.104  31.128  14.558
46978W        W18704   6.866  15.999  14.791
46979W        W18705  27.179  23.617   2.033
46980W        W18706  33.861  21.098   2.342
46981W        W18707   3.301   9.717   3.218
46982W        W18708  29.998  24.427   4.583
46983W        W18709  40.865  27.332  12.411
46984W        W18710  21.654  19.183  12.444
46985W        W18711  19.793  12.707   2.349
46986W        W18712  38.246  32.613  10.983
46987W        W18713  17.136   6.328   1.945
46988W        W18714  11.897  17.227   5.055
46989W        W18715  13.788  35.654   4.828
46990W        W18716  21.236  16.280   2.655
46991W        W18717  17.119  34.929  13.538
46992W        W18718  44.456  18.162  13.704
46993W        W18719  38.655  14.276   1.874
46994W        W18720  40.029  22.088   2.599
46995W        W18721  39.388  12.753  11.534
46996W        W18722  38.290  38.268  12.998
46997W        W18723  42.288  41.733  11.605
46998W        W18724  28.121  38.321   2.552
46999W        W18725  35.966  22.187  12.697
47000W        W18726  33.505  23.632  14.194
47001W        W18727   3.240  23.033   4.369
47002W        W18728  24.418  18.568   4.551
47003W        W18729  19.774   9.221   2.666
47004W        W18730   3.715  18.207   3.498
47005W        W18731  30.689  10.926   2.919
47006W        W18732  23.894  40.095   3.834
47007W        W18733  38.041  36.108  12.493
47008W        W18734   9.574  13.926   2.344
47009W        W18735   0.935   7.925   0.853
47010W        W18736   1.857  26.770   1.385
47011W        W18737  12.376  12.389   0.759
47012W        W18738  37.012  29.670  10.754
47013W        W18739  22.610  24.315  10.715
47014W        W18740   5.826  14.704  11.870
47015W        W18741  34.588  41.085   4.034
47016W        W18742   6.361   5.465  10.467
47017W        W18743  32.189  11.920   0.725
47018W        W18744   4.870  34.511   2.234
47019W        W18745  34.554  33.398   0.797
47020W        W18746  32.540   3.677  10.455
47021W        W18747  15.873  12.279  11.969
47022W        W18748  36.116  43.434   4.043
47023W        W18749   3.149  41.403  10.490
47024W        W18750  11.671  32.670   1.131
47025W        W18751  19.237  32.992  13.879
47026W        W18752   3.920   4.429  12.556
47027W        W18753   2.419  15.631   3.674
47028W        W18754  37.880  12.325   2.159
47029W        W18755   6.079  26.930   2.480
47030W        W18756  11.087   6.128  14.046
47031W        W18757  17.364  18.206  10.545
47032W        W18758  28.453  14.765   0.200
47033W        W18759  31.331  34.617  12.473
47034W        W18760  27.431   8.382  10.655
47035W        W18761  24.694  28.375   1.736
47036W        W18762  16.815  38.094  12.021
47037W        W18763  17.608   4.498   3.707
47038W        W18764  34.427  21.630  12.829
47039W        W18765  40.781   1.221  10.650
47040W        W18766  16.591  24.005   3.208
47041W        W18767  12.082  42.944  12.384
47042W        W18768  20.671  44.938  13.425
47043W        W18769  11.353  23.279  10.897
47044W        W18770  44.212  13.001   0.745
47045W        W18771  34.349  23.216  12.631
47046W        W18772  18.610   7.363   3.799
47047W        W18773  19.105  16.085   3.395
47048W        W18774  36.365  24.986  14.584
47049W        W18775   7.253  36.421   3.101
47050W        W18776  36.253  10.365  14.424
47051W        W18777  40.044  39.474   2.161
47052W        W18778  39.966  30.859  10.798
47053W        W18779  34.620  17.138  12.044
47054W        W18780  31.192  31.700   4.067
47055W        W18781  35.156  13.985  11.654
47056W        W18782  19.106  16.596  11.061
47057W        W18783  20.329   2.680   0.479
47058W        W18784   7.155  16.803   0.762
47059W        W18785   6.292  32.021  11.684
47060W        W18786  41.567  18.628   4.606
47061W        W18787   4.202   9.957   2.064
47062W        W18788   9.476   3.547   0.965
47063W        W18789  18.760  24.922  12.049
47064W        W18790  29.659  42.525  13.847
47065W        W18791  36.039   5.957   2.808
47066W        W18792  24.016  16.643   1.256
47067W        W18793  31.628  38.765   3.229
47068W        W18794  12.284   1.753   2.208
47069W        W18795  33.951  11.256  11.208
47070W        W18796  10.592  34.996  12.528
47071W        W18797  42.411  36.494   2.160
47072W        W18798  21.088  44.336  12.587
47073W        W18799   1.061  18.754  13.072
47074W        W18800  16.616  17.232   1.904
47075W        W18801  14.549  31.328  12.996
47076W        W18802  42.965   3.900  14.266
47077W        W18803  21.538  35.359  11.625
47078W        W18804  43.936  11.246  11.205
47079W        W18805   9.915  14.697   0.017
47080W        W18806   3.653   0.380  11.116
47081W        W18807   3.712  40.108   0.794
47082W        W18808  43.345   9.191   4.931
47083W        W18809  36.512  33.572  11.067
47084W        W18810   6.765   3.552   3.585
47085W        W18811   8.362   4.439   1.326
47086W        W18812  12.013  37.532  14.153
47087W        W18813  11.178  23.583   3.184
47088W        W18814  23.637  31.902  11.504
47089W        W18815  12.569  17.535   2.087
47090W        W18816  38.510  22.759  12.899
47091W        W18817  36.570  44.444  14.442
47092W        W18818  34.121  37.801   2.880
47093W        W18819  41.543  37.168  13.612
47094W        W18820  18.363  34.959  14.743
47095W        W18821  17.774  36.293   0.475
47096W        W18822  33.065  26.972   2.834
47097W        W18823  28.550  15.176  10.827
47098W        W18824   8.864  28.647   4.144
47099W        W18825  32.634   5.495  10.998
47100W        W18826   8.895  24.023   4.987
47101W        W18827  30.824  34.663   5.046
47102W        W18828  13.420  18.607   0.714
47103W        W18829  31.452  38.802   0.310
47104W        W18830  31.008  41.476   4.334
47105W        W18831  32.053   7.600  12.335
47106W        W18832  41.015  35.613  12.392
47107W        W18833  21.680  10.875  13.382
47108W        W18834  33.220   1.363  14.119
47109W        W18835  28.677  30.688  13.572
47110W        W18836  39.326  39.771  14.004
47111W        W18837  36.280  30.325   5.023
47112W        W18838  10.397  25.599   1.015
47113W        W18839   2.293  27.022   1.199
47114W        W18840  33.077  32.633  11.404
47115W        W18841   4.484   0.596  11.006
47116W        W18842  32.896   5.956  12.243
47117W        W18843  15.175  28.480   2.440
47118W        W18844   9.253  43.839  13.732
47119W        W18845  21.738  40.407   4.926
47120W        W18846   8.833  29.888  13.276
47121W        W18847  40.996  37.155  10.963
47122W        W18848  33.502  43.936  12.055
47123W        W18849  27.084  42.405  11.861
47124W        W18850  37.633  24.023  10.735
47125W        W18851   4.573  13.978   0.837
47126W        W18852  16.374  24.578   4.234
47127W        W18853   0.816   0.032  13.506
47128W        W18854  23.490  23.188   3.203
47129W        W18855  32.416  38.537   2.681
47130W        W18856   9.069  26.169  11.680
47131W        W18857  12.648  12.838  13.642
47132W        W18858  10.258  35.374  12.470
47133W        W18859  25.512  21.613   3.793
47134W        W18860  29.017   9.271   4.043
47135W        W18861  14.496  19.132  12.018
47136W        W18862   1.155  35.844   4.137
47137W        W18863   5.984  41.072  14.760
47138W        W18864  36.840   3.963  13.664
47139W        W18865  16.089  26.357   1.475
47140W        W18866  12.178  17.582   3.369
47141W        W18867  19.759  30.701   0.720
47142W        W18868   0.578   0.794  13.195
47143W        W18869  41.048  12.778  10.821
47144W        W18870   8.098   4.827  12.922
47145W        W18871  33.995  28.612   3.725
47146W        W18872  11.835  12.610   1.757
47147W        W18873  37.782  31.607   2.754
47148W        W18874  36.566  20.491  14.805
47149W        W18875  38.101  35.824   1.583
47150W        W18876  24.426  28.734  11.156
47151W        W18877  19.991  22.302   3.822
47152W        W18878   8.504  19.486   0.958
47153W        W18879  30.394   2.034   5.024
47154W        W18880  13.259  33.711   4.306
47155W        W18881   4.329   9.751   4.056
47156W        W18882   6.806  15.442   1.118
47157W        W18883  41.939  17.306  14.121
47158W        W18884  21.043  21.425   4.837
47159W        W18885  20.617   1.402  12.028
47160W        W18886  14.793  28.466  14.970
47161W        W18887  25.602  32.645   1.301
47162W        W18888  34.502  17.068   3.616
47163W        W18889  37.598  29.197   1.770
47164W        W18890  38.188  17.260  14.853
47165W        W18891  11.656  20.302   0.261
47166W        W18892  14.658  30.869   2.196
47167W        W18893  17.184  23.454  14.087
47168W        W18894   6.850  42.771  14.003
47169W        W18895  33.322  31.354  11.894
47170W        W18896   2.229  21.127  10.706
47171W        W18897  12.844  36.373   3.679
47172W        W18898  39.979   9.951  11.068
47173W        W18899  42.288   9.889  13.443
47174W        W18900  19.683  13.452   3.665
47175W        W18901  33.624  24.632   3.077
47176W        W18902  31.619  21.258  14.849
47177W        W18903  16.259  15.723   1.755
47178W        W18904  10.781  27.574  14.574
47179W        W18905   1.842  32.562  13.318
47180W        W18906  36.468   9.460  12.698
47181W        W18907   7.029  10.175  13.649
47182W        W18908  25.908   5.884  12.133
47183W        W18909  16.656   4.372   3.922
47184W        W18910  12.833  17.279  11.954
47185W        W18911  36.686  23.069   4.787
47186W        W18912   9.324  13.011  14.547
47187W        W18913  23.734  10.626  10.390
47188W        W18914  36.324  15.308   0.149
47189W        W18915  33.104  13.576   1.839
47190W        W18916  21.916  42.561   1.258
47191W        W18917  29.119   4.249   3.136
47192W        W18918   0.236   0.758   4.031
47193W        W18919  28.152  14.679   2.938
47194W        W18920  44.795  33.696   4.422
47195W        W18921  20.920   9.830  13.926
47196W        W18922  18.220  19.302  11.892
47197W        W18923   5.275   4.399   4.926
47198W        W18924  40.294  33.337  13.793
47199W        W18925  41.953  39.581   3.660
47200W        W18926  10.078   9.808   3.690
47201W        W18927  40.990  28.215   2.287
47202W        W18928  35.369  21.744   1.884
47203W        W18929  39.535   2.316   0.732
47204W        W18930  25.200  16.185   4.219
47205W        W18931  30.052  33.557   2.178
47206W        W18932   9.814  13.114  14.480
47207W        W18933   5.201   2.718   3.641
47208W        W18934  40.012   9.654   2.767
47209W        W18935  31.022  17.144   3.192
47210W        W18936  18.991  18.764  11.079
47211W        W18937   0.449  42.481   2.434
47212W        W18938  17.765  34.445  11.883
47213W        W18939  38.442   0.076  14.932
47214W        W18940   8.784  31.597   0.495
47215W        W18941  22.689  21.822   2.832
47216W        W18942  14.561  16.698   4.653
47217W        W18943  30.262   0.767   5.166
47218W        W18944  38.997  13.349   3.419
47219W        W18945   1.870  34.776  14.430
47220W        W18946   8.609   2.481  11.137
47221W        W18947   1.727  37.666   4.223
47222W        W18948  24.975  32.092  14.963
47223W        W18949  29.896   4.449   1.316
47224W        W18950  30.758   2.400  11.641
47225W        W18951  20.473  23.104   1.806
47226W        W18952  19.816   5.190   2.880
47227W        W18953  19.655  42.759   3.656
47228W        W18954   4.468  28.708   3.591
47229W        W18955  23.525  12.765   2.243
47230W        W18956  11.242  20.066   1.576
47231W        W18957   3.120  12.116  12.556
47232W        W18958  36.262   4.385   3.344
47233W        W18959  28.734  38.904   4.151
47234W        W18960   1.783   0.537   3.935
47235W        W18961  26.222  34.175  13.553
47236W        W18962  10.496   7.101  13.970
47237W        W18963  41.659  43.286   3.347
47238W        W18964  36.602  23.559  12.462
47239W        W18965  42.386  44.714   2.221
47240W        W18966  21.166  18.998   1.945
47241W        W18967  26.568   1.911  13.909
47242W        W18968   2.367  25.684  11.611
47243W        W18969   0.940  11.866  12.913
47244W        W18970  13.671   9.671   3.818
47245W        W18971  21.590  11.378  14.374
47246W        W18972  10.779  25.035  11.914
47247W        W18973  42.905  26.212  14.749
47248W        W18974  37.990  12.164  12.327
47249W        W18975  13.059  20.659  11.555
47250W        W18976   4.424  31.408   3.738
47251W        W18977   1.213  43.330   4.165
47252W        W18978  11.167  10.009  14.772
47253W        W18979  38.365   2.933   2.002
47254W        W18980   7.270   3.416  13.870
47255W        W18981   3.967   9.782  12.576
47256W        W18982  12.391  18.521   3.063
47257W        W18983  29.416  15.787  10.357
47258W        W18984  19.758  21.552  11.258
47259W        W18985   4.309  17.083   1.649
47260W        W18986  10.035   4.698   3.630
47261W        W18987  36.593   5.670  13.751
47262W        W18988  30.945  41.511   3.343
47263W        W18989   3.668  31.807   2.646
47264W        W18990  27.146  13.850   3.937
47265W        W18991   5.170   0.242   4.244
47266W        W18992  24.280  19.720   1.651
47267W        W18993  35.332  30.954   3.180
47268W        W18994  42.697  15.921  12.104
47269W        W18995   8.108  10.027   4.746
47270W        W18996  24.652  21.967  13.515
47271W        W18997  39.009  15.534  11.515
47272W        W18998  17.155   1.702  13.724
47273W        W18999  43.006  11.553  11.035
47274W        W19000   4.974  36.841   0.457
47275W        W19001  15.112  18.142  11.522
47276W        W19002  44.938  42.313   0.561
47277W        W19003  22.676  29.130  11.203
47278W        W19004  41.978  42.941   1.836
47279W        W19005   4.318  32.893   3.365
47280W        W19006  44.906  29.341  12.910
47281W        W19007  44.278  22.173   4.639
47282W        W19008  28.465  19.414  12.507
47283W        W19009   7.262   4.145  12.750
47284W        W19010  20.551  37.145  13.920
47285W        W19011  23.978  26.256   0.442
47286W        W19012  43.487  37.393   5.097
47287W        W19013  29.540  16.964   3.669
47288W        W19014  22.879  12.660  10.182
47289W        W19015  31.446   1.449  14.339
47290W        W19016  11.172  42.923  11.949
47291W        W19017   0.212   3.404   0.263
47292W        W19018   6.525  43.577  13.388
47293W        W19019  39.457   9.976  14.377
47294W        W19020  34.496  15.708   3.627
47295W        W19021   7.567  20.681  11.927
47296W        W19022  33.466  24.222   3.848
47297W        W19023   6.244  10.643   1.973
47298W        W19024   7.367  22.500  14.351
47299W        W19025  41.387  25.920   2.408
47300W        W19026   8.684  21.466  10.605
47301W        W19027  15.587  34.918   1.417
47302W        W19028  23.072  27.752  14.426
47303W        W19029   5.938  42.357  13.300
47304W        W19030  21.253  15.696   4.706
47305W        W19031  34.552  33.502  11.723
47306W        W19032  10.523  20.172   0.206
47307W        W19033  44.269   8.239  13.006
47308W        W19034  18.874  28.133   1.834
47309W        W19035  25.978  14.819  12.024
47310W        W19036  37.801  36.432  12.870
47311W        W19037  23.560  20.606   0.808
47312W        W19038  28.490   5.858  11.322
47313W        W19039   7.276   6.111  14.945
47314W        W19040  19.002   3.815   1.630
47315W        W19041  34.931  18.322  13.896
47316W        W19042  38.717  19.797  13.902
47317W        W19043  26.831  35.145   4.544
47318W        W19044  27.230  28.580  13.915
47319W        W19045  27.723  34.360   0.210
47320W        W19046  34.522  44.229  13.496
47321W        W19047   1.291  20.164   1.265
47322W        W19048  41.443  39.438   2.317
47323W        W19049  31.883  23.998  13.189
47324W        W19050  36.737  18.069  13.833
47325W        W19051  30.081   3.732  12.490
47326W        W19052  12.808  20.644   1.229
47327W        W19053  17.617  13.728  14.833
47328W        W19054  17.199  40.990  12.948
47329W        W19055  40.854  27.090   1.690
47330W        W19056   3.252  33.072  14.760
47331W        W19057  41.982  27.524   0.500
47332W        W19058  20.299  14.375  14.840
47333W        W19059   7.200  22.855  14.005
47334W        W19060  42.331  24.152  14.412
47335W        W19061  38.335  15.553  14.426
47336W        W19062   2.781  19.372   4.358
47337W        W19063  36.984   7.384   0.303
47338W        W19064  30.931   5.638  13.089
47339W        W19065  41.409  11.847   0.493
47340W        W19066  33.500  33.034   9.770
47341W        W19067  36.769  38.515   1.934
47342W        W19068  32.406  21.691  11.092
47343W        W19069  33.889   0.466   2.285
47344W        W19070  12.108  23.347   0.285
47345W        W19071  22.653  20.037   3.287
47346W        W19072  38.468  23.310   2.869
47347W        W19073  34.095  12.743   3.847
47348W        W19074  27.689   9.004   4.079
47349W        W19075   3.981  19.148   0.383
47350W        W19076  24.622  25.060   1.793
47351W        W19077  29.932  34.434   1.939
47352W        W19078  23.336   6.049  11.540
47353W        W19079  36.527  19.696   0.545
47354W        W19080   3.454  40.593  12.363
47355W        W19081  17.562  33.895  13.929
47356W        W19082  38.837  27.304  12.804
47357W        W19083  44.973   4.352   2.215
47358W        W19084  15.877  21.401   4.606
47359W        W19085   1.873  26.232   1.398
47360W        W19086  17.927   9.329   3.150
47361W        W19087  11.160  26.867  14.409
47362W        W19088  19.561  39.884  12.610
47363W        W19089   1.349  22.497  13.975
47364W        W19090   6.837  23.450   0.486
47365W        W19091  38.736  20.278   0.815
47366W        W19092  11.908  13.459   1.929
47367W        W19093  17.703  32.326  11.559
47368W        W19094  24.153  20.233   2.443
47369W        W19095  31.567  31.465   1.011
47370W        W19096  29.161  30.863   3.767
47371W        W19097  35.638  10.405  12.063
47372W        W19098  40.791  25.462   2.888
47373W        W19099   4.714  36.420  13.284
47374W        W19100  26.915  14.610  14.852
47375W        W19101  16.474  35.142  11.894
47376W        W19102  22.099  12.404   5.421
47377W        W19103  34.802   9.368  13.024
47378W        W19104  21.504  30.060   2.772
47379W        W19105  41.952  34.149   3.842
47380W        W19106  31.619   7.914  12.363
47381W        W19107  12.971  20.281   0.399
47382W        W19108  24.260   1.759   4.828
47383W        W19109   2.566  32.926   4.645
47384W        W19110  17.833  24.315   4.153
47385W        W19111  43.175   4.994  11.964
47386W        W19112  21.221  42.844   2.243
47387W        W19113  34.684   1.886  13.850
47388W        W19114  34.366  11.865   1.155
47389W        W19115  23.972  41.319   4.074
47390W        W19116   3.725   8.204  13.168
47391W        W19117  13.085  11.118   2.253
47392W        W19118  24.197  34.626  13.001
47393W        W19119  30.125  26.052   4.518
47394W        W19120  17.728   0.798   1.319
47395W        W19121  36.249  37.468  13.712
47396W        W19122  34.647  18.736  13.863
47397W        W19123  15.809  28.263   3.736
47398W        W19124  40.972  10.833   3.150
47399W        W19125  16.135  42.384   0.514
47400W        W19126  25.346  44.042  11.988
47401W        W19127  35.385  33.446  10.613
47402W        W19128  13.202   8.907  14.952
47403W        W19129  22.240  38.758  10.774
47404W        W19130  37.207  35.212  13.901
47405W        W19131  44.921  30.382   0.231
47406W        W19132  33.502  30.889   3.826
47407W        W19133  39.912  18.607   1.744
47408W        W19134  16.884  19.180  14.454
47409W        W19135  27.628  23.751   4.986
47410W        W19136   3.409  23.252   0.964
47411W        W19137  42.791  29.146  13.323
47412W        W19138  17.117  26.263  12.914
47413W        W19139   2.742  32.544   3.764
47414W        W19140  25.942  40.090  11.365
47415W        W19141   7.392  36.892  13.836
47416W        W19142   6.368  18.592   4.697
47417W        W19143  21.193  44.912  14.678
47418W        W19144  23.944  13.815   2.397
47419W        W19145  25.532  37.900  11.248
47420W        W19146   0.997  15.924  11.667
47421W        W19147  39.587   5.635   2.238
47422W        W19148  26.419  39.774  14.276
47423W        W19149  21.584  11.480  11.956
47424W        W19150  15.603  14.771  12.505
47425W        W19151  13.567   2.712  13.769
47426W        W19152  25.964  21.819   3.321
47427W        W19153   7.680  44.434   0.766
47428W        W19154  30.604  27.089  12.556
47429W        W19155  36.732   3.906  14.627
47430W        W19156   0.458   4.075  14.676
47431W        W19157  14.776  19.768  10.917
47432W        W19158  33.051   8.612   0.962
47433W        W19159  10.240   3.483  14.979
47434W        W19160  34.900  24.508  13.020
47435W        W19161  38.714  20.229  13.608
47436W        W19162  15.020  25.449  13.340
47437W        W19163  32.400   8.383  12.116
47438W        W19164  23.988   7.485  11.245
47439W        W19165  10.262  21.022   2.231
47440W        W19166  24.290   4.780   1.178
47441W        W19167  41.462   4.399  14.953
47442W        W19168   7.870  37.424  11.649
47443W        W19169   7.018  10.727  13.756
47444W        W19170  41.854  25.074   3.866
47445W        W19171   6.697  17.561  14.297
47446W        W19172  13.259  20.928   5.004
47447W        W19173  13.228   9.933   3.561
47448W        W19174  30.066  32.919   1.753
47449W        W19175  17.067  14.274  11.196
47450W        W19176  21.992  44.500  12.478
47451W        W19177  41.524  11.959  11.107
47452W        W19178  40.873  41.999  10.711
47453W        W19179   4.994  36.547  14.807
47454W        W19180   3.662  34.964   0.230
47455W        W19181   4.732   6.784   4.135
47456W        W19182  18.066  37.481   5.154
47457W        W19183  20.622  23.098  10.453
47458W        W19184  40.505  21.228   4.551
47459W        W19185  42.781   9.943  10.974
47460W        W19186  12.898  16.790  10.637
47461W        W19187  23.939  31.899  13.859
47462W        W19188  23.503  36.780   3.275
47463W        W19189  36.901  39.277   3.668
47464W        W19190  36.497  13.187  10.493
47465W        W19191   9.643  41.734  11.139
47466W        W19192  33.084  43.754  11.802
47467W        W19193  15.848  26.563  13.320
47468W        W19194  12.124  44.478  14.882
47469W        W19195  12.808  23.575   0.716
47470W        W19196  28.696  17.748  13.485
47471W        W19197  19.141  41.554  13.916
47472W        W19198  28.021  41.808  14.430
47473W        W19199   9.428   1.986  12.040
47474W        W19200  11.137  30.558  13.947
47475W        W19201  14.048  13.789   4.138
47476W        W19202  44.887  21.107   0.864
47477W        W19203  35.337   6.756   3.259
47478W        W19204   6.393  21.474  14.384
47479W        W19205   5.878  12.638  12.407
47480W        W19206  14.287  18.093   2.583
47481W        W19207  40.546  23.532  11.221
47482W        W19208   0.838  38.461  11.210
47483W        W19209  35.866  28.519  13.696
47484W        W19210  19.830  18.126  10.477
47485W        W19211  13.790   4.011   4.230
47486W        W19212  15.138   0.221   4.010
47487W        W19213  35.810  24.490  10.591
47488W        W19214  16.570  36.879   4.153
47489W        W19215  15.339  43.537   2.437
47490W        W19216  21.844  43.049  11.602
47491W        W19217  44.359  29.151   3.340
47492W        W19218  21.786  40.389  14.014
47493W        W19219  29.479   0.822  10.196
47494W        W19220  19.223  31.659  11.572
47495W        W19221  38.805   1.462   2.612
47496W        W19222  26.366  30.559   0.844
47497W        W19223  20.714   6.462  10.713
47498W        W19224  29.181  42.695  13.940
47499W        W19225  44.361  14.063  10.610
47500W        W19226  11.726  28.716   2.768
47501W        W19227  40.045   1.266   4.534
47502W        W19228  31.886  24.682  14.949
47503W        W19229  23.002  42.984   1.302
47504W        W19230  33.137  13.590   0.298
47505W        W19231  26.380  25.133   5.116
47506W        W19232  26.292  37.580  14.731
47507W        W19233  34.869  38.909   4.876
47508W        W19234   0.471  12.381   2.340
47509W        W19235  32.520   0.486  14.046
47510W        W19236  39.815  41.070  12.408
47511W        W19237  33.027  34.383   3.319
47512W        W19238  15.039  23.084  13.294
47513W        W19239  18.640   8.445   1.720
47514W        W19240   8.987  36.562   2.794
47515W        W19241   6.252  27.841   0.825
47516W        W19242  28.735  25.093   4.562
47517W        W19243   5.796  18.603   4.298
47518W        W19244  19.511   4.637   4.787
47519W        W19245  39.443  33.967  13.980
47520W        W19246  15.767  42.419  10.498
47521W        W19247   3.612  26.427  13.806
47522W        W19248  20.741   9.135  13.983
47523W        W19249  28.670  36.086  14.652
47524W        W19250   8.764  28.494  13.410
47525W        W19251  42.403  43.349  13.274
47526W        W19252  37.428  10.434   4.212
47527W        W19253  36.233  11.812  10.697
47528W        W19254  30.021   0.695  13.354
47529W        W19255  43.905  38.917  13.369
47530W        W19256  31.547  43.542  11.978
47531W        W19257  32.081  35.626   2.748
47532W        W19258  30.376  39.147  13.774
47533W        W19259  10.655  38.915   2.131
47534W        W19260  16.583   3.490   3.757
47535W        W19261  28.286  43.429  11.071
47536W        W19262  38.612  37.940  14.054
47537W        W19263  33.849   0.301  12.589
47538W        W19264   4.451  18.185  13.957
47539W        W19265  38.448  42.722  12.359
47540W        W19266   9.261  37.566  10.521
47541W        W19267  19.709  11.336  14.200
47542W        W19268   5.261  26.516   3.329
47543W        W19269  11.859   1.966  10.703
47544W        W19270   9.722  33.688   1.224
47545W        W19271  17.532  31.831  11.566
47546W        W19272  21.286  15.607  13.689
47547W        W19273  15.882  44.826   3.211
47548W        W19274  42.510  37.361   4.699
47549W        W19275   7.225   1.449   3.839
47550W        W19276  29.671  44.478   4.577
47551W        W19277  31.366  25.797   9.806
47552W        W19278  43.296  43.006  11.473
47553W        W19279   1.874  32.341  11.405
47554W        W19280  20.799  31.008   3.328
47555W        W19281  33.071   2.922   4.457
47556W        W19282   8.740  35.770  13.377
47557W        W19283  42.732  36.922  12.993
47558W        W19284  43.138   3.301   5.008
47559W        W19285  24.587  36.080   3.690
47560W        W19286  15.763   3.404   4.402
47561W        W19287  18.372  35.167  14.262
47562W        W19288  44.870  29.572   4.562
47563W        W19289  18.704  32.115  10.828
47564W        W19290  37.115  17.037   3.655
47565W        W19291  19.862  40.290  12.567
47566W        W19292  18.293   0.131   4.685
47567W        W19293  28.514  11.325  10.746
47568W        W19294  22.727  23.616   3.320
47569W        W19295  17.755  20.685  14.965
47570W        W19296  20.479  25.414   4.155
47571W        W19297  10.544   7.258  12.038
47572W        W19298  16.252  42.658   0.951
47573W        W19299  27.572   2.231  11.567
47574W        W19300  43.154  31.186  10.682
47575W        W19301   7.150   7.195  10.144
47576W        W19302  37.758  24.587  14.070
47577W        W19303  13.921  28.616   2.096
47578W        W19304  25.177   3.725   4.307
47579W        W19305   2.971  15.919   2.317
47580W        W19306  37.814   2.567  13.942
47581W        W19307  14.251   0.320   1.927
47582W        W19308  27.413  26.970  12.019
47583W        W19309  38.882  26.651   1.701
47584W        W19310   2.797  41.858  12.009
47585W        W19311  44.940  27.929  13.011
47586W        W19312  16.266   9.855  10.697
47587W        W19313  23.421  42.803  14.761
47588W        W19314  36.018   5.318   2.331
47589W        W19315  43.927  31.846  12.038
47590W        W19316   1.451   6.983  11.189
47591W        W19317  21.175  42.102  11.283
47592W        W19318  24.875  32.304   3.258
47593W        W19319   1.680  32.155   1.006
47594W        W19320   0.468  34.462   0.916
47595W        W19321  15.146  38.634   0.739
47596W        W19322  33.459  25.402  10.741
47597W        W19323  37.568  42.966  11.940
47598W        W19324  18.998  12.287   2.686
47599W        W19325  44.109  42.432  11.139
47600W        W19326   6.851   6.717  11.731
47601W        W19327  31.283   6.116   5.103
47602W        W19328  35.112  41.878   5.036
47603W        W19329  40.924  30.605  11.481
47604W        W19330  29.700   7.662   1.871
47605W        W19331  25.537   8.768   1.225
47606W        W19332  36.989  43.749  12.074
47607W        W19333  29.844  15.898  11.165
47608W        W19334  22.065  15.596  12.608
47609W        W19335  39.716   7.093  10.999
47610W        W19336  40.308   7.124   4.561
47611W        W19337   6.795  39.426  13.401
47612W        W19338  43.715  33.820   3.158
47613W        W19339  16.335  11.736  12.597
47614W        W19340  36.337   3.955   2.743
47615W        W19341  18.486   9.367   3.808
47616W        W19342   2.776   1.253   0.300
47617W        W19343  43.982  28.763   0.342
47618W        W19344  35.125   9.281   3.723
47619W        W19345   3.790  37.485   4.162
47620W        W19346  41.130  26.547   1.079
47621W        W19347  10.548   8.924   3.225
47622W        W19348  27.427  42.388   3.607
47623W        W19349  39.003   1.209   2.177
47624W        W19350  23.768   9.286   1.438
47625W        W19351  41.216  33.421   3.107
47626W        W19352  28.408  30.545  11.746
47627W        W19353  10.636  27.682   1.250
47628W        W19354  38.459   0.184   3.357
47629W        W19355  22.991  39.165  13.740
47630W        W19356  43.272  40.579  13.101
47631W        W19357  12.476  23.230  13.550
47632W        W19358  35.342  42.338  13.960
47633W        W19359  23.262   9.875   3.469
47634W        W19360  42.886  37.607   1.478
47635W        W19361   4.010  17.201  10.055
47636W        W19362  21.421  14.403   2.625
47637W        W19363  32.054  20.232   2.145
47638W        W19364  38.338  13.168   2.796
47639W        W19365  43.583  34.654   0.433
47640W        W19366  40.083  10.263  13.302
47641W        W19367  20.182   7.361   5.064
47642W        W19368  41.309  37.747  11.566
47643W        W19369  37.393  10.921   4.362
47644W        W19370   2.541  26.971   2.596
47645W        W19371  16.245  17.693  14.845
47646W        W19372  38.303  38.781  12.123
47647W        W19373  21.350  27.461  10.858
47648W        W19374   0.857  12.658  11.075
47649W        W19375  36.674  41.785  11.562
47650W        W19376   4.376  33.297  13.354
47651W        W19377   5.815  12.091  11.481
47652W        W19378   6.452   7.637  12.007
47653W        W19379  13.719  15.292  14.117
47654W        W19380  16.923   9.643  14.183
47655W        W19381  38.280  43.301   0.346
47656W        W19382   1.603  44.939  14.755
47657W        W19383  23.028  20.235   2.146
47658W        W19384  28.946  10.777   3.281
47659W        W19385   8.075  31.138  11.217
47660W        W19386   3.519  13.350   3.203
47661W        W19387  32.846   0.413   4.882
47662W        W19388  39.926   8.870   1.810
47663W        W19389   2.861  35.122  14.261
47664W        W19390  29.865   7.902  11.566
47665W        W19391  24.654  40.286   3.822
47666W        W19392  15.043   1.828   4.630
47667W        W19393  41.733  14.236   0.198
47668W        W19394   0.224  34.445   4.537
47669W        W19395  12.603   9.942  13.945
47670W        W19396  12.120  40.410  12.037
47671W        W19397   5.762  19.100   4.132
47672W        W19398  13.271  23.420  12.557
47673W        W19399  12.854  20.758  12.089
47674W        W19400  29.979  34.421   4.161
47675W        W19401  31.520  40.364   4.310
47676W        W19402  32.950   1.932  12.550
47677W        W19403   6.401  21.571   3.100
47678W        W19404  17.803  37.019  14.441
47679W        W19405  13.768   9.134  11.494
47680W        W19406  25.216   3.717   0.364
47681W        W19407  22.392  39.091   2.017
47682W        W19408   3.060  36.479   4.825
47683W        W19409  29.854  14.584   1.999
47684W        W19410  14.186   0.412   0.471
47685W        W19411  36.830   5.678  12.982
47686W        W19412  10.846  24.808   3.211
47687W        W19413  16.236   8.521  14.622
47688W        W19414  38.005  35.920   0.715
47689W        W19415  27.553   3.211  11.199
47690W        W19416  20.794  14.228  13.343
47691W        W19417  44.652  12.679  12.076
47692W        W19418   2.280   7.998   0.903
47693W        W19419   5.269  32.936   1.533
47694W        W19420  27.119  10.343   4.936
47695W        W19421  19.701  21.070  11.460
47696W        W19422   9.435  26.472  10.084
47697W        W19423  15.973   7.786  10.752
47698W        W19424  29.014  26.150  10.835
47699W        W19425   2.335  41.376  12.947
47700W        W19426  29.534   7.789   1.003
47701W        W19427  34.403   1.273  11.933
47702W        W19428   4.432   1.660  14.525
47703W        W19429  18.618  42.903  14.006
47704W        W19430  35.709  18.069  14.158
47705W        W19431  31.097   5.444   4.828
47706W        W19432   8.836  43.795   2.763
47707W        W19433  37.380  34.140   0.927
47708W        W19434  39.412  38.035   2.660
47709W        W19435  19.652  17.652   3.976
47710W        W19436  32.037  21.117  12.818
47711W        W19437   9.923  30.422   1.955
47712W        W19438  42.346  15.402   0.906
47713W        W19439  37.478   8.661   3.668
47714W        W19440  29.638  39.248  13.488
47715W        W19441  15.839  22.250  11.079
47716W        W19442  44.416  31.424  11.594
47717W        W19443   8.139  31.567  11.519
47718W        W19444   5.728   9.579  14.021
47719W        W19445   5.571  21.020  14.435
47720W        W19446  28.032  32.435  14.509
47721W        W19447  23.516   2.166  12.990
47722W        W19448  11.785   2.777  12.250
47723W        W19449  41.946  13.153   1.807
47724W        W19450   9.365   5.712  10.883
47725W        W19451   6.214  41.418   2.022
47726W        W19452  31.523  12.874  11.701
47727W        W19453  42.159   1.441   4.855
47728W        W19454  37.442  31.077  10.720
47729W        W19455   9.861   3.718  12.629
47730W        W19456  35.896  18.772  13.760
47731W        W19457   6.365  38.542  10.720
47732W        W19458  13.168   4.514   3.918
47733W        W19459  15.681  29.557  11.908
47734W        W19460  32.132   8.259   1.202
47735W        W19461  30.328  39.650  13.936
47736W        W19462  34.934  11.017  14.433
47737W        W19463   8.278  43.754  13.996
47738W        W19464  19.713  19.282  11.950
47739W        W19465  19.211  18.694   1.465
47740W        W19466  23.237  16.883  14.960
47741W        W19467   8.741  15.159  12.380
47742W        W19468  39.043  21.678   2.233
47743W        W19469  39.892  15.232  13.963
47744W        W19470  39.582  35.371   4.626
47745W        W19471  14.147  33.101   1.267
47746W        W19472   4.713  19.643  10.685
47747W        W19473   0.279  24.054  11.180
47748W        W19474  33.459  22.799   2.171
47749W        W19475  30.535  27.555   2.166
47750W        W19476  18.275   2.001   2.941
47751W        W19477  36.932  28.553  13.518
47752W        W19478  19.562   6.992  12.008
47753W        W19479  36.566  18.361  11.593
47754W        W19480  44.186   2.004   2.180
47755W        W19481   6.705  24.575   3.244
47756W        W19482  34.501   5.658   4.976
47757W        W19483   0.020  11.382  13.579
47758W        W19484  19.127  36.574  14.891
47759W        W19485  36.389  35.940   2.337
47760W        W19486  18.695  20.746  13.443
47761W        W19487   3.787  42.902  12.030
47762W        W19488   8.412   1.593   1.447
47763W        W19489  23.347  25.635   1.707
47764W        W19490  14.566   2.223  11.847
47765W        W19491  20.159   0.353  10.570
47766W        W19492   9.368  43.233  14.779
47767W        W19493  38.820  22.031  13.229
47768W        W19494  30.754  14.380   0.378
47769W        W19495  30.107  32.291   1.744
47770W        W19496  15.091   6.696   4.143
47771W        W19497  17.861  36.778   0.375
47772W        W19498  12.223  20.825  11.177
47773W        W19499  33.643  26.323   3.760
47774W        W19500  39.239  25.810   1.806
47775W        W19501  32.731   0.022  14.010
47776W        W19502  43.445   7.796  13.878
47777W        W19503  37.395   0.996  12.949
47778W        W19504  25.590  36.070  10.267
47779W        W19505   5.637  10.243  13.434
47780W        W19506  42.118  29.204   3.739
47781W        W19507  43.320  25.964  13.865
47782W        W19508  34.933  29.437  12.562
47783W        W19509  23.288  16.242   3.327
47784W        W19510  12.453  37.547   4.867
47785W        W19511  23.101  29.037   3.610
47786W        W19512  43.990  25.814   0.448
47787W        W19513   3.269   3.241  13.290
47788W        W19514  33.598  13.294  11.135
47789W        W19515  30.801  19.497   5.031
47790W        W19516  13.861  17.110  10.718
47791W        W19517  21.304  12.888  11.517
47792W        W19518  36.163  38.881  12.258
47793W        W19519   5.782   9.499  11.162
47794W        W19520  43.043  11.891  13.937
47795W        W19521  27.752  30.986  11.129
47796W        W19522  13.109  39.875   1.255
47797W        W19523  25.564  13.783   1.759
47798W        W19524   4.703  13.805   0.209
47799W        W19525  13.829  26.887  13.427
47800W        W19526   4.433  19.327  11.484
47801W        W19527  26.561   1.348  11.632
47802W        W19528  13.796  20.085  12.781
47803W        W19529  25.805  32.554   2.658
47804W        W19530   7.919   4.342   5.639
47805W        W19531  31.463   0.403  12.037
47806W        W19532  20.818  26.056   2.377
47807W        W19533  28.721  11.828  11.572
47808W        W19534   4.211   3.155  13.231
47809W        W19535   5.409  34.846   4.041
47810W        W19536  35.406  23.100   2.842
47811W        W19537  37.301  29.187  12.051
47812W        W19538   6.706  16.054   0.845
47813W        W19539  15.518  42.945   3.836
47814W        W19540  44.831  29.657  14.354
47815W        W19541  11.377   0.353  12.055
47816W        W19542  34.854  25.103   2.635
47817W        W19543  23.472   5.583  12.247
47818W        W19544  32.078  34.960  11.448
47819W        W19545  37.742   4.800   1.226
47820W        W19546   7.248  44.537  14.788
47821W        W19547  41.516  37.238   2.585
47822W        W19548   0.160  27.180   3.746
47823W        W19549  22.004  41.557   3.540
47824W        W19550  42.573  33.714  12.857
47825W        W19551  34.031  33.969  13.549
47826W        W19552  18.815   4.894  11.471
47827W        W19553  17.775  42.430   3.917
47828W        W19554  35.105   8.795   2.597
47829W        W19555  44.899   6.458   3.936
47830W        W19556   3.429  38.338  13.063
47831W        W19557  20.770  31.384  11.391
47832W        W19558  23.804  23.253   4.175
47833W        W19559  32.587   9.736   4.601
47834W        W19560  12.434  38.899   4.181
47835W        W19561  10.440   4.426   2.639
47836W        W19562  28.170   2.296  13.097
47837W        W19563  34.589  18.190   3.106
47838W        W19564  15.721   3.910   0.776
47839W        W19565  34.008   4.556  14.990
47840W        W19566  36.844  43.930   4.084
47841W        W19567  15.048   4.821   4.296
47842W        W19568   9.028  39.873  10.506
47843W        W19569  12.625  13.250  13.329
47844W        W19570  27.205  24.585  14.765
47845W        W19571   4.327   3.355   3.168
47846W        W19572   8.472  16.783   3.719
47847W        W19573  33.622  33.134  13.233
47848W        W19574  33.718   3.403   1.009
47849W        W19575   8.175  39.824  14.502
47850W        W19576  17.553  13.012   1.910
47851W        W19577  34.602   0.381   4.115
47852W        W19578  28.428   3.375   0.893
47853W        W19579  32.903  15.771   3.628
47854W        W19580  13.208  38.603   4.390
47855W        W19581  10.225  33.080  11.164
47856W        W19582  41.115  41.659   0.793
47857W        W19583   2.948  15.661   1.848
47858W        W19584   8.695  23.590   2.441
47859W        W19585  22.571  18.211  10.227
47860W        W19586  28.049  15.065   0.047
47861W        W19587   7.963   0.935  12.903
47862W        W19588  22.710  12.158   9.720
47863W        W19589  34.410  28.704  14.889
47864W        W19590  43.979   3.518  10.976
47865W        W19591   3.460  38.965   2.870
47866W        W19592  43.892  31.166  14.730
47867W        W19593  35.295  37.949  11.082
47868W        W19594   7.284  24.084   0.333
47869W        W19595  40.507  18.738   4.965
47870W        W19596   3.918  10.629   4.113
47871W        W19597  37.792  21.497  14.709
47872W        W19598   1.091  10.699  11.965
47873W        W19599  11.443   0.298   1.606
47874W        W19600  34.298  15.022  13.460
47875W        W19601   5.003  31.976   2.287
47876W        W19602  30.673  14.591  10.442
47877W        W19603  10.361  14.383  11.697
47878W        W19604  26.945   6.674   4.564
47879W        W19605  11.676  16.683   4.305
47880W        W19606   9.618  28.124   3.396
47881W        W19607  14.617  44.173  14.026
47882W        W19608  35.295  35.735   2.800
47883W        W19609  10.659  44.848   1.845
47884W        W19610   3.217  35.493  12.062
47885W        W19611  19.807  27.147   0.290
47886W        W19612  37.196  35.808   0.418
47887W        W19613   7.273   7.209   4.594
47888W        W19614  21.941  35.322   2.940
47889W        W19615  18.736  20.872  12.891
47890W        W19616   6.827   9.808   0.742
47891W        W19617  43.863  14.567   0.306
47892W        W19618  38.511  28.921  12.906
47893W        W19619  33.647   3.194   2.840
47894W        W19620  19.866  16.299   1.706
47895W        W19621  40.911  10.421   1.311
47896W        W19622  21.076  35.456   0.707
47897W        W19623  23.994  40.930  10.411
47898W        W19624  40.305  29.007  10.923
47899W        W19625  20.098   7.606  12.620
47900W        W19626  36.980  30.210  10.755
47901W        W19627  11.497  25.137  11.552
47902W        W19628  25.029  26.223  11.070
47903W        W19629  34.689  19.985   3.659
47904W        W19630  27.072  17.066  13.320
47905W        W19631  41.294  33.357   0.874
47906W        W19632  13.277  23.511  13.091
47907W        W19633  23.520  33.332   4.419
47908W        W19634  35.619  13.728  11.226
47909W        W19635   7.405  38.660  13.453
47910W        W19636  10.280  41.968   0.747
47911W        W19637   6.920  26.563   0.851
47912W        W19638  23.246  25.060  12.938
47913W        W19639  29.192  16.179  12.953
47914W        W19640  28.511  41.497   0.295
47915W        W19641  17.678   0.066   2.790
47916W        W19642  37.331  19.077   4.778
47917W        W19643   9.893  25.616   0.823
47918W        W19644  28.592  34.860  12.604
47919W        W19645   9.647  28.503   4.570
47920W        W19646  35.539  16.256  13.601
47921W        W19647  31.773  44.842   3.692
47922W        W19648  37.835   5.023  13.730
47923W        W19649   9.148  28.753  11.983
47924W        W19650  35.140  40.931  12.484
47925W        W19651   0.428  44.345   1.789
47926W        W19652  23.665  28.094  12.801
47927W        W19653   1.458  25.432  11.999
47928W        W19654  25.917  20.712   4.675
47929W        W19655   2.696   8.660   4.505
47930W        W19656  26.189  26.996   3.088
47931W        W19657   1.020  18.494   1.307
47932W        W19658  38.933  11.433   2.868
47933W        W19659  41.021  23.154  10.633
47934W        W19660  19.184  44.809   4.256
47935W        W19661   3.929  10.649   4.635
47936W        W19662  30.192  18.758   3.388
47937W        W19663  23.608   1.461   4.079
47938W        W19664  40.396  18.785   1.736
47939W        W19665  25.957  11.550   2.611
47940W        W19666  43.928  44.549  11.155
47941W        W19667  33.148  31.641   1.436
47942W        W19668  36.100  32.952   4.038
47943W        W19669   9.343  28.985   3.711
47944W        W19670  24.544  14.122  14.296
47945W        W19671  34.353  29.881  14.433
47946W        W19672  10.770  33.404  11.580
47947W        W19673  44.834  21.713   3.923
47948W        W19674  13.207  21.271   0.181
47949W        W19675   6.402  41.891   2.221
47950W        W19676  44.294  18.693   2.208
47951W        W19677  39.601  13.061   2.316
47952W        W19678  28.371  35.469   0.415
47953W        W19679   4.456   4.757   3.306
47954W        W19680  23.958  12.026   5.078
47955W        W19681  38.446  39.796  14.216
47956W        W19682  10.234  29.826   1.887
47957W        W19683  42.786  14.520   2.372
47958W        W19684  23.672  34.173  11.585
47959W        W19685  34.502   2.080  11.936
47960W        W19686  31.108  21.223  13.152
47961W        W19687  25.480  17.435   4.475
47962W        W19688  22.575  26.655   3.598
47963W        W19689  34.104  17.962   3.903
47964W        W19690   9.646  26.550  13.609
47965W        W19691  15.110  33.133   1.072
47966W        W19692  32.617  42.601   4.224
47967W        W19693   2.487  14.096  13.439
47968W        W19694  19.711   2.928  13.910
47969W        W19695  19.689  22.665  13.714
47970W        W19696  30.403  41.974   1.715
47971W        W19697   4.616  24.094   4.663
47972W        W19698  13.039  35.523   0.843
47973W        W19699  29.582   3.857   2.385
47974W        W19700  41.658  24.691  12.918
47975W        W19701  31.843  38.364   0.972
47976W        W19702  27.453  21.045  12.233
47977W        W19703  15.379  17.147   1.614
47978W        W19704  13.220  29.986   0.281
47979W        W19705   3.069   8.693  14.960
47980W        W19706   5.924  22.120   1.739
47981W        W19707  17.233  21.370   5.009
47982W        W19708  36.336  26.190   0.670
47983W        W19709  21.098  34.896  10.771
47984W        W19710  16.575   2.287   3.195
47985W        W19711  12.165  23.697  13.285
47986W        W19712  35.875  27.048   0.251
47987W        W19713  31.329  10.735  12.570
47988W        W19714  39.170  25.961   0.345
47989W        W19715  32.022  12.266   3.111
47990W        W19716  34.528  42.975   4.587
47991W        W19717   0.632  25.707   4.382
47992W        W19718   3.391  41.471  10.924
47993W        W19719  15.146  23.549   3.598
47994W        W19720   6.322   3.736   3.807
47995W        W19721   6.217  26.000   3.320
47996W        W19722  39.887  44.829  12.506
47997W        W19723  38.472  29.406   0.527
47998W        W19724  38.506  26.730  13.754
47999W        W19725   2.786   4.528  12.543
48000W        W19726  44.973  29.301   0.441
48001W        W19727  23.209   8.688  14.882
48002W        W19728  41.407  26.522   4.605
48003W        W19729  23.672  27.628   2.785
48004W        W19730  43.894  15.559   2.977
48005W        W19731  19.641  22.285   3.208
48006W        W19732  24.793  34.272   1.236
48007W        W19733  41.057   0.891   2.171
48008W        W19734  11.574  13.196   1.131
48009W        W19735  11.332  10.267  12.111
48010W        W19736   0.720  28.232  12.433
48011W        W19737  38.964  36.079   2.965
48012W        W19738  19.192  31.805   3.765
48013W        W19739  21.200  42.497   0.423
48014W        W19740  31.966   8.747   3.524
48015W        W19741  18.256  30.556  14.864
48016W        W19742  38.921   9.790  11.003
48017W        W19743  30.910  42.028   1.635
48018W        W19744  21.586  14.104  11.088
48019W        W19745  29.252  25.101   4.470
48020W        W19746   2.323  27.155  14.865
48021W        W19747  24.795  24.005  10.780
48022W        W19748  42.284  37.738  12.430
48023W        W19749  18.516   5.407  12.318
48024W        W19750  33.024  36.599   1.394
48025W        W19751   4.673  39.392  11.555
48026W        W19752  21.195  15.189   1.746
48027W        W19753  28.461  39.052  11.088
48028W        W19754  17.405  10.731  10.738
48029W        W19755   7.867  40.314   0.406
48030W        W19756  14.695  18.968   1.194
48031W        W19757   3.250  43.166   0.396
48032W        W19758  43.383  14.723  11.916
48033W        W19759  17.146   5.270  11.183
48034W        W19760  23.002  32.945  13.087
48035W        W19761  32.401  34.598  10.954
48036W        W19762   4.746   1.863   1.429
48037W        W19763  43.949  30.066   1.173
48038W        W19764  15.637   4.772  12.539
48039W        W19765   7.950  42.789  14.023
48040W        W19766  31.138  12.802   2.926
48041W        W19767  23.514  16.630  11.993
48042W        W19768  21.593  24.035  10.682
48043W        W19769  44.228   0.813   3.336
48044W        W19770   7.939  33.659   4.147
48045W        W19771  37.615  36.394  12.396
48046W        W19772   9.458  21.703   3.093
48047W        W19773  18.726   3.182   5.034
48048W        W19774   6.687  18.755   3.198
48049W        W19775  17.348  20.004   1.518
48050W        W19776   4.399  31.202   0.916
48051W        W19777  42.543   0.819  13.435
48052W        W19778   7.695  34.888   4.535
48053W        W19779   3.318  36.921  12.857
48054W        W19780   5.140  31.031   1.844
48055W        W19781   1.411  42.471   1.454
48056W        W19782  28.428   2.996  10.500
48057W        W19783  25.538  31.650  11.431
48058W        W19784  34.327  42.416  13.985
48059W        W19785  26.112  21.200  13.944
48060W        W19786   8.029  17.661   2.402
48061W        W19787  20.049  12.439  11.675
48062W        W19788   4.965   1.931  10.271
48063W        W19789   1.183   1.805  12.104
48064W        W19790  24.626   3.634   2.406
48065W        W19791  15.679  10.087  13.417
48066W        W19792  21.398  12.410   5.017
48067W        W19793  40.254  37.679   0.783
48068W        W19794  33.680  12.756   1.450
48069W        W19795  27.257  43.425  14.412
48070W        W19796  18.803  30.751  14.364
48071W        W19797  29.633  41.056  13.058
48072W        W19798  26.042  22.012  11.981
48073W        W19799  30.057  26.587   1.775
48074W        W19800   5.959  21.177   2.326
48075W        W19801  15.321  33.621  12.042
48076W        W19802  10.914  23.456  12.933
48077W        W19803  23.736  24.158   2.739
48078W        W19804  15.447   6.358   1.869
48079W        W19805   6.162  36.915   2.248
48080W        W19806   3.898   3.456  11.489
48081W        W19807  36.426  21.576   4.682
48082W        W19808   6.688  12.088  11.069
48083W        W19809  23.689  22.123   0.959
48084W        W19810  34.944  28.020   0.911
48085W        W19811  44.331  10.182   2.158
48086W        W19812   0.743  43.303  10.714
48087W        W19813  22.508  44.695  12.514
48088W        W19814  33.478  37.369  14.966
48089W        W19815   1.366  36.513   3.112
48090W        W19816  17.627  27.806  14.689
48091W        W19817  26.956  42.337   3.854
48092W        W19818  18.504  41.038   4.633
48093W        W19819  17.491   0.555   0.936
48094W        W19820  25.967  11.212   4.035
48095W        W19821   4.071  26.426   4.560
48096W        W19822  21.482  12.000   3.836
48097W        W19823  34.414   7.213   3.334
48098W        W19824   5.406  18.651   2.405
48099W        W19825  32.839  33.034   4.040
48100W        W19826  22.619  12.772  13.905
48101W        W19827  18.898   6.352  12.068
48102W        W19828  10.143   8.681  10.695
48103W        W19829  23.503   4.621  14.929
48104W        W19830  12.335  16.802  14.818
48105W        W19831  10.885  33.057   3.828
48106W        W19832  20.560  22.150  13.823
48107W        W19833  15.634  17.080  14.014
48108W        W19834  22.475  11.900   4.211
48109W        W19835  33.518  28.415  14.370
48110W        W19836  34.486  25.731  14.024
48111W        W19837  13.291  40.131  10.204
48112W        W19838   0.490  17.343  13.137
48113W        W19839  39.412  36.210   2.741
48114W        W19840   4.327  25.450  12.045
48115W        W19841  12.836  15.634  10.971
48116W        W19842  11.024  36.388  13.600
48117W        W19843  13.883  11.044  10.998
48118W        W19844   5.178  10.199  10.597
48119W        W19845  41.436  28.898   0.253
48120W        W19846  44.951   7.920   0.814
48121W        W19847   5.331   0.993  14.808
48122W        W19848  13.369  30.626   1.055
48123W        W19849  35.218   6.328   2.821
48124W        W19850  41.375  28.864  11.516
48125W        W19851  34.439  24.257   1.760
48126W        W19852  35.198  22.971   3.293
48127W        W19853  28.479  14.585  13.476
48128W        W19854  12.225  40.969   0.917
48129W        W19855   2.807   3.384  10.815
48130W        W19856   0.754  29.451  10.443
48131W        W19857   2.361  26.182  11.524
48132W        W19858  23.965  44.996  14.723
48133W        W19859  40.354  22.565  11.582
48134W        W19860  30.804   6.688  11.309
48135W        W19861  21.734  26.305  10.258
48136W        W19862  35.613  20.985   2.207
48137W        W19863  11.819   8.355   3.395
48138W        W19864  19.185   1.901   1.913
48139W        W19865  20.836  16.158   0.914
48140W        W19866  22.612   6.655   4.902
48141W        W19867  34.662   3.225   2.770
48142W        W19868   8.324   6.951   2.377
48143W        W19869  39.536  32.980   2.264
48144W        W19870  32.462  11.925   1.358
48145W        W19871   8.800  33.835  10.687
48146W        W19872   0.898  42.623   5.007
48147W        W19873   7.677   5.809  10.790
48148W        W19874  25.510  22.700   2.445
48149W        W19875  26.426   5.885  13.854
48150W        W19876  23.760  22.648  13.080
48151W        W19877  25.739  29.334  11.122
48152W        W19878   0.789  16.249   0.707
48153W        W19879   9.153  25.185  13.097
48154W        W19880  15.689   5.203   2.778
48155W        W19881  26.561  17.357   2.682
48156W        W19882   8.228  34.557   1.781
48157W        W19883  13.378  25.146  11.168
48158W        W19884  28.392  38.048  12.553
48159W        W19885  35.881  41.782  14.512
48160W        W19886  22.087   5.469  14.738
48161W        W19887   6.728  40.552   2.363
48162W        W19888  18.563  30.824   0.807
48163W        W19889  30.374  12.584   3.144
48164W        W19890  12.537   2.181   9.958
48165W        W19891  12.178  20.503   0.789
48166W        W19892  18.575  11.590  12.553
48167W        W19893  41.049  24.465   4.850
48168W        W19894   4.420  39.713  14.449
48169W        W19895  34.032  17.675  13.483
48170W        W19896  41.899  23.639   4.158
48171W        W19897   8.429  42.872  13.794
48172W        W19898   3.946  26.742  12.152
48173W        W19899   0.242   7.286  13.817
48174W        W19900  30.616  11.428   2.824
48175W        W19901   1.536  13.789  13.058
48176W        W19902   9.410  16.055   1.475
48177W        W19903   8.142  38.384  12.952
48178W        W19904  43.391  30.213   1.901
48179W        W19905  31.589   2.053   0.358
48180W        W19906   1.678  15.179  13.715
48181W        W19907  27.034  34.216   4.511
48182W        W19908  13.075   9.745  13.817
48183W        W19909  44.363  13.555  10.724
48184W        W19910  18.486   3.912   3.664
48185W        W19911  22.148  25.001   2.631
48186W        W19912   0.127   8.697  13.095
48187W        W19913  29.827  39.581   0.918
48188W        W19914   0.691  26.377  12.565
48189W        W19915  16.074  44.362  14.738
48190W        W19916  29.328  14.581   1.223
48191W        W19917  41.853  31.590  13.503
48192W        W19918  18.229  23.492   3.542
48193W        W19919  13.349  36.037   2.939
48194W        W19920   2.213  20.145  14.023
48195W        W19921  35.001  31.432   4.304
48196W        W19922  41.039  32.530   3.325
48197W        W19923  11.458  42.791  11.545
48198W        W19924   2.944   7.814  11.624
48199W        W19925   6.215  38.954   2.456
48200W        W19926   7.885   1.426  10.730
48201W        W19927  27.156   0.858  11.599
48202W        W19928  33.476  22.506   0.944
48203W        W19929  18.145  32.631   2.643
48204W        W19930  29.059  12.215  13.447
48205W        W19931   7.275  41.806  12.137
48206W        W19932  33.089  17.023  13.826
48207W        W19933  16.331  33.669  14.036
48208W        W19934  21.437  13.106  12.563
48209W        W19935  10.645   6.455  13.373
48210W        W19936  36.469  39.499  10.303
48211W        W19937  10.635  43.998  14.059
48212W        W19938  37.572   9.656   1.304
48213W        W19939  31.155  22.625  12.023
48214W        W19940  22.586  31.767   1.003
48215W        W19941  37.676  23.020  13.329
48216W        W19942   9.921  20.296  11.267
48217W        W19943   9.794  20.780  12.521
48218W        W19944  12.949  14.717  10.975
48219W        W19945  17.078  41.383  12.022
48220W        W19946  13.638  32.626   0.912
48221W        W19947   7.279  23.564   0.215
48222W        W19948  15.117   1.131  13.095
48223W        W19949  37.889  14.783  13.029
48224W        W19950  39.408  11.292   0.158
48225W        W19951  23.071  39.533  11.958
48226W        W19952  27.131   6.985   0.937
48227W        W19953  40.692  24.903  14.928
48228W        W19954   7.882  30.049  13.439
48229W        W19955  35.044  15.001   3.926
48230W        W19956  37.940  15.075   3.681
48231W        W19957  25.691   9.594  13.973
48232W        W19958  19.856  35.543   0.617
48233W        W19959  36.024   4.044   4.256
48234W        W19960  21.390   2.996   2.687
48235W        W19961  39.331  36.989   4.596
48236W        W19962  28.023  40.532  10.268
48237W        W19963  15.792  22.709   4.175
48238W        W19964  32.779  18.233  14.929
48239W        W19965  10.754  29.196   1.866
48240W        W19966   9.917  37.187   4.993
48241W        W19967  27.242   7.463   0.500
48242W        W19968   4.421  19.509   4.262
48243W        W19969   9.661  36.252   0.726
48244W        W19970   1.350  25.732  12.425
48245W        W19971   4.804  23.840   0.229
48246W        W19972   7.226   1.438   0.172
48247W        W19973   8.484  43.856   3.190
48248W        W19974  29.539  18.221   3.055
48249W        W19975   1.449  33.905   4.212
48250W        W19976  30.554   2.972   1.300
48251W        W19977  27.975  39.996  14.854
48252W        W19978  27.591  16.310   1.236
48253W        W19979  14.849  37.006  11.047
48254W        W19980  31.187  10.147  11.142
48255W        W19981  36.162  28.183  11.102
48256W        W19982  21.063  14.282   0.818
48257W        W19983  11.800  26.656   3.240
48258W        W19984  40.504   9.863  12.892
48259W        W19985  18.783  27.578   1.479
48260W        W19986  16.825   5.299  10.783
48261W        W19987   6.317  42.555  13.840
48262W        W19988  44.268  28.014  13.411
48263W        W19989  36.007  29.444  11.651
48264W        W19990   4.844  10.158  13.069
48265W        W19991   8.093  35.862   4.297
48266W        W19992  13.303   7.783   1.444
48267W        W19993  15.493  41.157   5.492
48268W        W19994   8.488  35.767   1.413
48269W        W19995  24.699  36.618   2.936
48270W        W19996   3.175  15.666   3.043
48271W        W19997   9.677  32.336   2.983
48272W        W19998  17.261  22.917  11.810
48273W        W19999  18.756   4.508  12.767
48274W        W20000  22.052   0.237   4.290
48275W        W20001  10.557   7.513  10.204
48276W        W20002   1.174  32.616   2.462
48277W        W20003  25.835  12.843   1.806
48278W        W20004  10.613  13.378   0.874
48279W        W20005  10.133  34.952   1.411
48280W        W20006  34.387  28.037   2.422
48281W        W20007   8.635  20.682   2.865
48282W        W20008   5.205   5.204   3.251
48283W        W20009   6.662  16.414  10.268
48284W        W20010  43.546  15.218   2.100
48285W        W20011  29.729  24.120   9.701
48286W        W20012  42.502   5.574  14.397
48287W        W20013   5.455  16.095   4.373
48288W        W20014  10.699  16.530  11.962
48289W        W20015  30.163  31.146   0.785
48290W        W20016   5.676  19.659  12.187
48291W        W20017   7.452  27.363  11.703
48292W        W20018  43.912  30.156  11.294
48293W        W20019  14.205  36.079  12.853
48294W        W20020  38.310   5.397   3.363
48295W        W20021  44.848   5.230  12.581
48296W        W20022  32.451   2.130   2.687
48297W        W20023  20.242  24.510  13.015
48298W        W20024  34.202   3.793  10.668
48299W        W20025   0.253  34.926  10.761
48300W        W20026  22.185  31.411  12.619
48301W        W20027  44.911  13.279   3.236
48302W        W20028  44.306  34.072   3.742
48303W        W20029  19.638  10.676   1.197
48304W        W20030   4.969  29.510  12.506
48305W        W20031  11.093  26.138  14.423
48306W        W20032  19.080  39.157   3.612
48307W        W20033   1.917  21.760  11.979
48308W        W20034  42.575   2.340  12.101
48309W        W20035  13.621  16.913   4.670
48310W        W20036  43.729  32.188   2.272
48311W        W20037  32.875   9.213   2.249
48312W        W20038  35.478  10.572   3.101
48313W        W20039  26.552  32.343   3.721
48314W        W20040  10.207  35.527   0.432
48315W        W20041   3.912  14.909  12.028
48316W        W20042  10.559  23.398   1.348
48317W        W20043  13.927  25.237  10.660
48318W        W20044   2.885  28.572  14.608
48319W        W20045  14.952  38.170   0.842
48320W        W20046  17.671  42.458  11.031
48321W        W20047   7.205   1.941   4.023
48322W        W20048  33.449   0.776  10.564
48323W        W20049   1.821   1.557  13.205
48324W        W20050   9.227  24.958  14.478
48325W        W20051  25.622  28.809  13.252
48326W        W20052  41.908  26.426   4.605
48327W        W20053   1.746  12.670   3.374
48328W        W20054  24.752  34.841  12.468
48329W        W20055  40.429   4.434  10.426
48330W        W20056  36.403  36.004   1.416
48331W        W20057   5.611  39.569   3.177
48332W        W20058  17.974  27.116  10.638
48333W        W20059  23.215  17.710  11.202
48334W        W20060  34.013   2.198  11.305
48335W        W20061  44.350  29.488   4.602
48336W        W20062  34.521  19.782  13.873
48337W        W20063  12.579   9.785   1.858
48338W        W20064  42.851   6.379  14.633
48339W        W20065  22.375  33.676  14.043
48340W        W20066  32.316  30.433  13.155
48341W        W20067   2.511  20.259   2.633
48342W        W20068  18.607  21.186   2.315
48343W        W20069  25.294   3.234  13.084
48344W        W20070  24.576   2.761   3.422
48345W        W20071  36.928  20.218   2.028
48346W        W20072  16.686  44.754   4.737
48347W        W20073   3.992  36.009  13.336
48348W        W20074  37.108   0.156   4.874
48349W        W20075  14.899  10.646  12.082
48350W        W20076  30.329  33.049   2.966
48351W        W20077  25.477  20.689  13.527
48352W        W20078   9.683  15.178   1.826
48353W        W20079   7.936  13.205  12.912
48354W        W20080  20.336  14.522  11.233
48355W        W20081  23.248  28.941   0.763
48356W        W20082  22.263   8.361  13.566
48357W        W20083   9.864  17.613   4.583
48358W        W20084  40.613  10.167   4.303
48359W        W20085   3.723  35.381   2.145
48360W        W20086   0.294  25.068  11.153
48361W        W20087  19.694   4.336   0.580
48362W        W20088  36.066  13.671   1.268
48363W        W20089  38.205  41.403   0.040
48364W        W20090  31.437  31.827   3.600
48365W        W20091  16.762   7.723   1.274
48366W        W20092  22.757  30.490   1.232
48367W        W20093  17.221  11.260  12.677
48368W        W20094  29.740  40.523   1.610
48369W        W20095   9.698  33.228  10.609
48370W        W20096  43.330  37.960  11.583
48371W        W20097  10.819  41.050  11.632
48372W        W20098  28.278   6.639  10.508
48373W        W20099  30.661  23.794  14.121
48374W        W20100  30.341  34.028   3.202
48375W        W20101  36.147  16.260  12.321
48376W        W20102  32.992  14.911   3.182
48377W        W20103   5.189  40.358   4.513
48378W        W20104  21.524  15.704   2.162
48379W        W20105   0.229   0.753   1.759
48380W        W20106   0.344   4.974  13.381
48381W        W20107   5.615  18.108   3.161
48382W        W20108  21.555  30.165  12.056
48383W        W20109  28.286  39.803  13.492
48384W        W20110  39.519   8.427  13.205
48385W        W20111  17.990  33.074  10.694
48386W        W20112  33.548   7.489   3.365
48387W        W20113  23.174  19.152   3.102
48388W        W20114  24.189  11.617   2.406
48389W        W20115   3.353  26.067   0.734
48390W        W20116  22.563  11.910  12.702
48391W        W20117  15.634  13.566   1.365
48392W        W20118  20.824   4.300  12.728
48393W        W20119   3.244  10.351   0.723
48394W        W20120  37.434  44.538  13.558
48395W        W20121  38.971  18.249  12.044
48396W        W20122  37.484  10.636  13.731
48397W        W20123  16.654  12.813  12.085
48398W        W20124   1.214  34.970  14.834
48399W        W20125  31.536   3.957  11.589
48400W        W20126  26.486  36.538  13.049
48401W        W20127  10.404  44.027   1.195
48402W        W20128  20.484  26.233   4.132
48403W        W20129  23.961  27.606   2.352
48404W        W20130   5.321  36.590   4.545
48405W        W20131  33.652  37.587  11.800
48406W        W20132  43.984  30.560   0.962
48407W        W20133  37.971  36.891   3.814
48408W        W20134  25.380   7.145   2.858
48409W        W20135  44.403  18.599  14.535
48410W        W20136  41.832  16.176   4.782
48411W        W20137  25.596  22.176  12.183
48412W        W20138   4.678  25.220   2.679
48413W        W20139  25.798  21.224   0.839
48414W        W20140  31.712  14.677  13.452
48415W        W20141  14.802   3.437   0.701
48416W        W20142  33.092  16.293   2.964
48417W        W20143  42.706  35.317  13.481
48418W        W20144   3.111  21.664  14.616
48419W        W20145  32.682  37.457   2.834
48420W        W20146  17.895  28.133   4.447
48421W        W20147  37.305  10.649   3.740
48422W        W20148   5.871  35.827   0.781
48423W        W20149  21.288  23.313  14.067
48424W        W20150  29.008  18.375   2.303
48425W        W20151  12.151  39.054  11.661
48426W        W20152  21.315  30.122  14.321
48427W        W20153   7.349   8.350  14.124
48428W        W20154  34.403  18.216  13.913
48429W        W20155  36.394  33.178   2.471
48430W        W20156   8.907  27.546   2.999
48431W        W20157  10.614   1.283  12.480
48432W        W20158  30.445  28.350  13.801
48433W        W20159  30.136  22.749  12.450
48434W        W20160  12.708  29.240  14.371
48435W        W20161   7.228  40.897  11.585
48436W        W20162   6.880  11.987   4.159
48437W        W20163  25.758   3.378   4.566
48438W        W20164  20.169   9.212  12.644
48439W        W20165  24.705   2.322   3.168
48440W        W20166   2.389  25.219   2.565
48441W        W20167   8.478   2.241  12.640
48442W        W20168   2.924  39.889  12.140
48443W        W20169  10.439  44.231  10.947
48444W        W20170   4.811  43.378  12.811
48445W        W20171  22.623  38.618   1.273
48446W        W20172  43.276  28.761  12.453
48447W        W20173  12.012  29.500  13.362
48448W        W20174  19.213  12.931   1.290
48449W        W20175  39.232  17.211   2.399
48450W        W20176  38.264  44.354   4.856
48451W        W20177  33.101  23.220   3.302
48452W        W20178   8.880  31.378  12.956
48453W        W20179  44.065  15.035  12.427
48454W        W20180  18.764  40.594  10.882
48455W        W20181  36.158  41.076   0.771
48456W        W20182  43.066  42.294   0.809
48457W        W20183  38.821  29.692   4.586
48458W        W20184  23.150  19.052  14.309
48459W        W20185  19.598  19.309   4.328
48460W        W20186  16.286  12.739  12.949
48461W        W20187  38.047   8.265  11.646
48462W        W20188   1.367  10.406   5.127
48463W        W20189  33.828  37.078  11.530
48464W        W20190   7.889  42.277   3.031
48465W        W20191  14.406  43.961  14.474
48466W        W20192   7.751   9.563  11.193
48467W        W20193  13.640  43.977  14.860
48468W        W20194  32.515  27.661  12.523
48469W        W20195   1.291  13.609  13.483
48470W        W20196  25.101   7.794   3.102
48471W        W20197   3.731   5.855  13.553
48472W        W20198  25.938  38.621   4.339
48473W        W20199  33.883  42.239  14.935
48474W        W20200  13.830  12.145  11.110
48475W        W20201  37.766   1.886   0.868
48476W        W20202  20.639  30.706   0.798
48477W        W20203  25.717   0.108   3.524
48478W        W20204   4.253   2.206   4.050
48479W        W20205  19.327  31.469   3.224
48480W        W20206  20.773  38.818   2.876
48481W        W20207  28.617  15.827   0.078
48482W        W20208  37.463  41.011  13.108
48483W        W20209  41.988  23.471  12.008
48484W        W20210  14.830   9.035   2.612
48485W        W20211  24.182  36.126   3.266
48486W        W20212   4.213  14.231   4.018
48487W        W20213  27.430  40.086   2.726
48488W        W20214   0.945  12.550   4.383
48489W        W20215  22.675  37.288   2.056
48490W        W20216  23.945  22.502   4.232
48491W        W20217  17.814  34.094   0.183
48492W        W20218  32.193  11.543   3.463
48493W        W20219  15.753  19.316   1.705
48494W        W20220   5.074   5.860  11.274
48495W        W20221  22.970   8.204  12.927
48496W        W20222  28.163  36.449  11.561
48497W        W20223  17.908   9.313   4.557
48498W        W20224  35.171  18.510  14.734
48499W        W20225   7.515   6.300  12.013
48500W        W20226  35.026  16.183   4.224
48501W        W20227   1.728  17.553   1.259
48502W        W20228  17.791   4.752  13.552
48503W        W20229  13.659  21.176  13.311
48504W        W20230  10.249   8.915  11.544
48505W        W20231  15.387   8.385  12.768
48506W        W20232  11.693   4.719  14.842
48507W        W20233  32.516  35.981   2.894
48508W        W20234  32.573  28.637  12.600
48509W        W20235  32.020  12.553  10.520
48510W        W20236  18.959   9.393   4.530
48511W        W20237  17.657  35.901   3.719
48512W        W20238   1.151   2.165   2.280
48513W        W20239  20.301   3.038  14.488
48514W        W20240  43.954  20.640  12.919
48515W        W20241  10.811  19.002  12.189
48516W        W20242  33.136  25.487   2.750
48517W        W20243  41.982  22.783  10.040
48518W        W20244  28.236   8.674  10.782
48519W        W20245  26.211  38.421   2.326
48520W        W20246  25.184  11.390   0.714
48521W        W20247   2.044  11.098   1.350
48522W        W20248  24.932  33.505   4.803
48523W        W20249   1.569  32.410   0.191
48524W        W20250  32.107  10.689   3.916
48525W        W20251  36.957  10.482   4.564
48526W        W20252  26.442   9.361   3.585
48527W        W20253  28.029  29.009  13.339
48528W        W20254   1.755  13.414  10.626
48529W        W20255  10.656  35.063   3.759
48530W        W20256  12.618  14.152  12.553
48531W        W20257  27.505  27.676  11.621
48532W        W20258   4.326  11.789  12.802
48533W        W20259  19.912  13.673  14.879
48534W        W20260   2.312  14.648   4.753
48535W        W20261  41.491  32.481   3.048
48536W        W20262   4.244  25.216   1.195
48537W        W20263  18.593   2.290   4.555
48538W        W20264  32.502   8.969  10.699
48539W        W20265   8.359  32.511  12.474
48540W        W20266  26.336  22.717   4.348
48541W        W20267  24.256  12.137   2.309
48542W        W20268  34.939   1.431   4.656
48543W        W20269   8.918  12.127   3.846
48544W        W20270  38.318   1.374   2.770
48545W        W20271  29.978  29.893  12.482
48546W        W20272  11.161  28.919  11.950
48547W        W20273  24.912  26.552   4.575
48548W        W20274  41.273   5.861  11.175
48549W        W20275  19.876   6.569   3.154
48550W        W20276  38.015  37.437  11.164
48551W        W20277  42.322  42.068   4.427
48552W        W20278  44.881  26.872   0.012
48553W        W20279  28.195   3.714   1.643
48554W        W20280   5.992  11.277  11.092
48555W        W20281  42.906  44.423   4.838
48556W        W20282  30.152  36.483   4.440
48557W        W20283   5.056  19.699   0.932
48558W        W20284  30.132  41.427   0.716
48559W        W20285  20.971  18.786   3.298
48560W        W20286   2.188  24.940  11.156
48561W        W20287  13.585  39.342   4.410
48562W        W20288  13.082  31.069   4.070
48563W        W20289  35.529   0.233  14.020
48564W        W20290  26.014  18.259   1.725
48565W        W20291  10.924   8.663   0.692
48566W        W20292  26.045  26.546   4.268
48567W        W20293  17.230  28.356   0.462
48568W        W20294  11.772  37.329  13.360
48569W        W20295  23.119  12.912  13.742
48570W        W20296  34.080  23.681   0.288
48571W        W20297  41.415  17.670  12.336
48572W        W20298  38.871   5.410  11.995
48573W        W20299  20.538  12.645  14.908
48574W        W20300  13.605   8.160   3.660
48575W        W20301  10.639  34.610   0.826
48576W        W20302  22.576  28.848  10.279
48577W        W20303  20.378  27.902  12.150
48578W        W20304  33.969  30.038   3.893
48579W        W20305   0.407  40.965   0.442
48580W        W20306  11.119  35.844   0.307
48581W        W20307  33.928  27.215   1.713
48582W        W20308   8.312  23.502   1.807
48583W        W20309  12.588  20.858   4.516
48584W        W20310  10.458   6.976  11.597
48585W        W20311  18.052   7.092   0.111
48586W        W20312  26.238   8.644  13.555
48587W        W20313   4.496  17.854  12.649
48588W        W20314  39.051  11.979   2.892
48589W        W20315  27.584  14.263  14.959
48590W        W20316   3.299  10.119   1.186
48591W        W20317  11.079  24.058   2.958
48592W        W20318  24.480  36.543   0.231
48593W        W20319  32.173  15.162   4.030
48594W        W20320  19.237  35.493  12.025
48595W        W20321  44.460  14.516   1.840
48596W        W20322  22.027  12.725   0.445
48597W        W20323  21.570  36.333  14.545
48598W        W20324  37.268  24.134   3.628
48599W        W20325   2.733   8.939   4.056
48600W        W20326   4.910  43.918  12.412
48601W        W20327  44.456  28.932   2.895
48602W        W20328  36.090  20.992  14.046
48603W        W20329  35.665  23.814  11.977
48604W        W20330  21.278  31.347   1.758
48605W        W20331  22.414   2.692   1.232
48606W        W20332  32.158  14.130   4.066
48607W        W20333  19.769  21.051  11.964
48608W        W20334   5.734  13.076   3.798
48609W        W20335  35.576  27.508   1.931
48610W        W20336  36.146  41.256   4.737
48611W        W20337  24.659  15.346  12.593
48612W        W20338  43.670  40.792   3.024
48613W        W20339  17.949  32.876  12.505
48614W        W20340  13.791  38.366  14.555
48615W        W20341  40.625  21.479  12.877
48616W        W20342  30.145  30.417  14.071
48617W        W20343  11.673  30.964  14.341
48618W        W20344  20.046  22.072  13.843
48619W        W20345  14.545  11.488   3.347
48620W        W20346   3.969  26.762  13.395
48621W        W20347   8.208  25.897  10.863
48622W        W20348   8.118  29.968   0.321
48623W        W20349   3.435   0.966  11.788
48624W        W20350  23.680   3.759   1.527
48625W        W20351  10.779  29.395  11.139
48626W        W20352  40.066  34.574   2.288
48627W        W20353  16.199  20.046   1.717
48628W        W20354  41.523  31.734   1.792
48629W        W20355  42.344  28.920  11.595
48630W        W20356  19.661  39.776  14.006
48631W        W20357   1.114  26.648  12.572
48632W        W20358  23.011  21.613   1.766
48633W        W20359  42.783  42.942   1.419
48634W        W20360   0.880  27.298   3.207
48635W        W20361  37.468  17.427   3.570
48636W        W20362  20.041   4.978  12.026
48637W        W20363  10.795  26.491   4.127
48638W        W20364  37.467  22.773  11.085
48639W        W20365  11.303   9.430   4.128
48640W        W20366  17.174  10.352   4.460
48641W        W20367  44.027   4.506   3.132
48642W        W20368  11.205  30.809   1.240
48643W        W20369  29.666  24.708   0.923
48644W        W20370  24.119  39.960  13.977
48645W        W20371  39.843   0.751   0.202
48646W        W20372  12.881   7.152  13.130
48647W        W20373  29.018  42.237  11.536
48648W        W20374  24.417   8.580   2.368
48649W        W20375  12.199  19.128   0.496
48650W        W20376  14.845  38.794  12.047
48651W        W20377  19.287  29.604   3.098
48652W        W20378  29.240  20.819   1.833
48653W        W20379  24.200  37.448  14.965
48654W        W20380  34.969  31.897   3.589
48655W        W20381  21.316  35.895  14.344
48656W        W20382   2.522  43.902   1.325
48657W        W20383   9.676   0.877   0.374
48658W        W20384   6.240  44.687   0.850
48659W        W20385  31.030   7.838  14.417
48660W        W20386  35.911  42.487   1.972
48661W        W20387  44.272  14.870  11.948
48662W        W20388  19.335  22.565   4.951
48663W        W20389  14.049  30.112   2.274
48664W        W20390  25.945  20.786  13.414
48665W        W20391  15.208  36.875  12.042
48666W        W20392  32.596  44.173   2.334
48667W        W20393   5.725   6.627   3.225
48668W        W20394  24.795  12.180   0.638
48669W        W20395   8.278  32.538   2.965
48670W        W20396   5.221  18.614   0.626
48671W        W20397   3.916  19.712  12.091
48672W        W20398  12.305  17.160  14.069
48673W        W20399   3.892   2.962   4.100
48674W        W20400  14.821  30.737  13.544
48675W        W20401  21.156  26.874   2.505
48676W        W20402  35.889  28.249   0.806
48677W        W20403  31.568  13.122   0.413
48678W        W20404  17.380  40.391  13.417
48679W        W20405  44.134  19.970  14.957
48680W        W20406  31.512  16.141  13.808
48681W        W20407   9.317  43.365   4.729
48682W        W20408  15.410  36.970   0.214
48683W        W20409  30.735   4.165   0.899
48684W        W20410  37.606   8.387  13.344
48685W        W20411  40.877  35.777   4.891
48686W        W20412   8.728  22.132  14.230
48687W        W20413  35.248   5.434  11.658
48688W        W20414  28.773  11.249   0.720
48689W        W20415  18.156   0.829   2.963
48690W        W20416  22.866   9.789  14.180
48691W        W20417  22.678  31.569   2.657
48692W        W20418  31.085  22.334  14.018
48693W        W20419  42.327  33.810   3.915
48694W        W20420  32.346  18.083  10.962
48695W        W20421  15.813  26.486  10.692
48696W        W20422   1.454  30.411  11.866
48697W        W20423  36.414  37.120   4.093
48698W        W20424   4.288  29.394  11.151
48699W        W20425   7.035  40.480   5.029
48700W        W20426  38.674  30.195   4.055
48701W        W20427   5.208  12.923   2.886
48702W        W20428   6.156  40.232   4.855
48703W        W20429  26.660  11.579   0.296
48704W        W20430   4.516   5.552  10.097
48705W        W20431  31.597  24.203  12.786
48706W        W20432   3.238  30.169  10.466
48707W        W20433  20.527  15.233   3.017
48708W        W20434  13.082  36.407   4.150
48709W        W20435  12.300  12.841  14.485
48710W        W20436   8.860  16.551   2.351
48711W        W20437  28.167  28.446  12.286
48712W        W20438  43.599  18.163  12.924
48713W        W20439  12.539  16.853  12.968
48714W        W20440   6.362  16.051   0.408
48715W        W20441   9.917  24.681  12.886
48716W        W20442  19.040  15.227  11.926
48717W        W20443  31.073  31.948  11.868
48718W        W20444  16.472  33.764   1.715
48719W        W20445  19.108  23.039  11.888
48720W        W20446  44.854  20.213  12.798
48721W        W20447   8.667  34.411   3.630
48722W        W20448  40.340  23.247   4.579
48723W        W20449  18.594  31.043  12.427
48724W        W20450  38.445  40.539   0.361
48725W        W20451  18.584  20.593  14.982
48726W        W20452  29.991  25.507   5.418
48727W        W20453   1.449  14.886   1.854
48728W        W20454  22.439  13.815  12.844
48729W        W20455  36.638  39.051  13.955
48730W        W20456  34.193   6.345   4.539
48731W        W20457  22.060  32.296   1.440
48732W        W20458  20.691  11.920   4.116
48733W        W20459   0.393  13.058   1.241
48734W        W20460  26.615   7.169   0.854
48735W        W20461  30.515  41.450   5.082
48736W        W20462  32.026  27.801   3.301
48737W        W20463  27.125   9.567  11.225
48738W        W20464  39.913  15.130   4.197
48739W        W20465   6.772  11.885  14.312
48740W        W20466  40.810   4.162  13.404
48741W        W20467   6.880  23.564   1.984
48742W        W20468  15.437  31.612  11.018
48743W        W20469  44.413   8.833   2.752
48744W        W20470  37.869  34.927   1.718
48745W        W20471  14.736  15.081   3.723
48746W        W20472   2.693   1.822  14.692
48747W        W20473  15.585  15.717   2.662
48748W        W20474  11.409  20.274  12.651
48749W        W20475  26.774  42.808  14.836
48750W        W20476  36.859  30.181   0.823
48751W        W20477  28.579   2.382   0.817
48752W        W20478  15.212  26.072   2.343
48753W        W20479  10.147  39.254  11.625
48754W        W20480  41.698  33.508  13.585
48755W        W20481  22.710  10.682   2.679
48756W        W20482  33.047  12.197  10.699
48757W        W20483  17.233  30.360   3.411
48758W        W20484  28.648  38.152  11.526
48759W        W20485   0.364  28.622   0.079
48760W        W20486  38.273   0.500  12.973
48761W        W20487   7.468  11.561   1.333
48762W        W20488  36.213  33.278  10.148
48763W        W20489  22.063  24.412  10.246
48764W        W20490  29.265  37.090  12.776
48765W        W20491   4.286   4.247   5.637
48766W        W20492   8.214  40.600   0.684
48767W        W20493   5.378   3.343  12.527
48768W        W20494  21.561  18.251  13.947
48769W        W20495  39.522   4.296  11.489
48770W        W20496   7.405  21.114   1.239
48771W        W20497   6.486   2.484  14.628
48772W        W20498  32.474   9.074  11.507
48773W        W20499  31.626  29.616  11.998
48774W        W20500  21.553  26.557   0.048
48775W        W20501  44.360  34.416   3.141
48776W        W20502  35.339  21.244   1.840
48777W        W20503  12.068  37.801   1.429
48778W        W20504   4.930  39.707   0.717
48779W        W20505  36.855  33.086   0.391
48780W        W20506  19.270  25.352   3.933
48781W        W20507  36.432  15.339  11.385
48782W        W20508  32.621  11.639   1.989
48783W        W20509  21.565   8.822  12.246
48784W        W20510  22.345  34.510   1.716
48785W        W20511  18.062  12.308   0.210
48786W        W20512   9.242  22.909  10.623
48787W        W20513  23.724  16.136  11.104
48788W        W20514  42.391  24.436   2.294
48789W        W20515  40.032  16.766  11.967
48790W        W20516  38.585  20.034  11.054
48791W        W20517  36.972  40.425   4.552
48792W        W20518  28.200  31.393  11.733
48793W        W20519  20.515  16.425   3.148
48794W        W20520  22.684  17.327   4.638
48795W        W20521  30.165  32.087   3.424
48796W        W20522  36.566   8.826   1.272
48797W        W20523  17.139  16.112  10.561
48798W        W20524  11.796  25.044   1.779
48799W        W20525  25.822   1.471   2.043
48800W        W20526   8.584  35.036  10.178
48801W        W20527  12.381  43.573  11.971
48802W        W20528  26.170   0.014   3.311
48803W        W20529   6.304   5.641  11.912
48804W        W20530  33.689  14.633   3.441
48805W        W20531  20.280  26.157  14.414
48806W        W20532  38.457   1.279  14.295
48807W        W20533   1.792   3.213  12.424
48808W        W20534  43.005  13.264   2.702
48809W        W20535  15.643  37.826  13.846
48810W        W20536   6.919  19.955  13.467
48811W        W20537  19.652   4.257   1.079
48812W        W20538  20.291  35.316   0.833
48813W        W20539   2.666  14.845   2.224
48814W        W20540   2.735  24.363  11.522
48815W        W20541  38.888  37.608  12.581
48816W        W20542   4.933  25.626   2.868
48817W        W20543  35.375  38.777   3.286
48818W        W20544  41.770  16.617  14.474
48819W        W20545  29.199   6.817   3.409
48820W        W20546   2.723   7.969  14.339
48821W        W20547  31.227  15.382   4.347
48822W        W20548   0.823   3.932   4.404
48823W        W20549  11.586  33.903   2.259
48824W        W20550   2.258  19.023  14.950
48825W        W20551  40.413  24.213  11.912
48826W        W20552   5.400  14.649  13.057
48827W        W20553   3.019  23.733   1.866
48828W        W20554  28.145  18.057   3.329
48829W        W20555  27.883  16.701  14.449
48830W        W20556  42.870  33.429   1.696
48831W        W20557  36.523   1.467  11.117
48832W        W20558  40.452  12.259   1.441
48833W        W20559   2.469  41.844  13.783
48834W        W20560   2.303  24.085   0.716
48835W        W20561  43.451  38.315   1.787
48836W        W20562  25.723   1.308  13.066
48837W        W20563  40.075  13.316   0.907
48838W        W20564   5.748  40.008  11.266
48839W        W20565  43.897  39.280   3.072
48840W        W20566  36.329  22.962   2.502
48841W        W20567   5.401  40.529   1.298
48842W        W20568  35.394  40.439   2.702
48843W        W20569  25.175  25.070   1.693
48844W        W20570  42.915  37.839   1.026
48845W        W20571  19.607  41.178   2.365
48846W        W20572  11.610  21.542  13.043
48847W        W20573  18.698  40.440  14.740
48848W        W20574  43.211  32.008  12.712
48849W        W20575   2.484  23.649   1.964
48850W        W20576  25.096  38.574  12.186
48851W        W20577  30.086  32.065  14.691
48852W        W20578   2.016  38.054   2.742
48853W        W20579   9.589  11.240   3.623
48854W        W20580  26.699  22.157   1.788
48855W        W20581  43.044  36.877  13.406
48856W        W20582   0.556  21.678   4.549
48857W        W20583  10.543   1.405   0.132
48858W        W20584   6.912  11.294  13.301
48859W        W20585  36.479  33.498  14.311
48860W        W20586   7.267  34.830   5.182
48861W        W20587   9.235  27.926  10.794
48862W        W20588   7.613  36.476   0.636
48863W        W20589  38.503  25.176   4.183
48864W        W20590  31.154   5.005   4.521
48865W        W20591   5.789  35.913   1.938
48866W        W20592  39.304  26.003   0.846
48867W        W20593  30.184  25.759   0.337
48868W        W20594  28.160   1.678  10.475
48869W        W20595   8.379  35.032  11.531
48870W        W20596  41.578   6.436  12.009
48871W        W20597   4.304   4.799   0.056
48872W        W20598   4.154  24.299   4.868
48873W        W20599   6.702  39.574   2.301
48874W        W20600   4.944   2.994  10.711
48875W        W20601   7.356  27.065   3.164
48876W        W20602  14.359  16.040  13.794
48877W        W20603  23.155  34.044  12.344
48878W        W20604  39.013  28.160   2.988
48879W        W20605  31.397  18.755  12.384
48880W        W20606  41.484   6.391  13.495
48881W        W20607  13.334  40.212  12.417
48882W        W20608   5.285  12.614  13.918
48883W        W20609  39.677   4.988   0.369
48884W        W20610   9.283  28.643   2.349
48885W        W20611  39.963  43.871  12.364
48886W        W20612  24.108  43.111   3.832
48887W        W20613  39.167  41.750   4.734
48888W        W20614   1.783  21.391  10.585
48889W        W20615  40.832  30.128  14.307
48890W        W20616  20.173  25.730  12.983
48891W        W20617  27.964  11.128  14.994
48892W        W20618   6.356   9.717  14.492
48893W        W20619   5.652  40.660  12.090
48894W        W20620  22.093  42.454   4.398
48895W        W20621   0.782  29.370   1.444
48896W        W20622  14.421  20.729   3.688
48897W        W20623  25.880  31.936   0.466
48898W        W20624  33.162  37.392  13.288
48899W        W20625  19.002  29.960  14.534
48900W        W20626  22.296  35.139  10.365
48901W        W20627   7.145   5.175  10.663
48902W        W20628  21.959  40.884  14.025
48903W        W20629  20.632   1.964  13.809
48904W        W20630  29.457  10.470   4.565
48905W        W20631  44.881  21.216  13.964
48906W        W20632  16.040  15.098  13.587
48907W        W20633  37.682  17.670   4.277
48908W        W20634  16.775  31.906  14.233
48909W        W20635  35.550   3.960   4.031
48910W        W20636   7.913  21.531  14.520
48911W        W20637  18.374   2.718  14.311
48912W        W20638  39.440  27.971  14.276
48913W        W20639  15.543  39.393   0.305
48914W        W20640  34.534  26.797   1.222
48915W        W20641   3.383  19.666   2.674
48916W        W20642  26.826  10.839   2.255
48917W        W20643  30.876  36.288  13.469
48918W        W20644  25.418   7.866  11.567
48919W        W20645  31.063  24.902   3.722
48920W        W20646  25.925  40.272   3.758
48921W        W20647  30.607   1.354  14.611
48922W        W20648  35.677  17.760  14.561
48923W        W20649  33.984  19.564   2.942
48924W        W20650  13.544  42.794   3.768
48925W        W20651   5.925  24.717   0.330
48926W        W20652  43.958  36.614   4.813
48927W        W20653  32.369  25.074   2.766
48928W        W20654   5.241  41.938   2.927
48929W        W20655  16.822   2.982  14.524
48930W        W20656  40.418   8.220   2.383
48931W        W20657  39.912  21.769  10.367
48932W        W20658  42.532   7.219   3.177
48933W        W20659   7.594   9.331   3.284
48934W        W20660  25.655  35.133  14.862
48935W        W20661   5.115  27.411  11.673
48936W        W20662  32.919  40.873  11.393
48937W        W20663  19.562  14.468   0.987
48938W        W20664  13.781  10.352   1.363
48939W        W20665   0.507   8.233   0.742
48940W        W20666  21.810  43.258   2.776
48941W        W20667  35.817  32.572  13.897
48942W        W20668  31.838   6.723  12.894
48943W        W20669  19.341  19.769   4.283
48944W        W20670  31.582  28.040  11.559
48945W        W20671  10.444  26.583   3.672
48946W        W20672   8.184   5.014  10.986
48947W        W20673  26.002  19.011   3.211
48948W        W20674   3.754  42.786  12.525
48949W        W20675  32.619  33.122   2.723
48950W        W20676  18.030  26.814   0.982
48951W        W20677  14.208  12.741  12.773
48952W        W20678  31.632  17.075  11.607
48953W        W20679  28.174  44.295   0.581
48954W        W20680  25.070  11.808   0.365
48955W        W20681  43.740   5.269  13.988
48956W        W20682  12.530   6.109  10.916
48957W        W20683  31.935  15.359   1.982
48958W        W20684  30.500  23.465   1.986
48959W        W20685   7.865  15.776  12.168
48960W        W20686  16.601  35.018   1.601
48961W        W20687  20.588  19.581   3.149
48962W        W20688  29.133  13.327   3.763
48963W        W20689  17.553   1.147   1.865
48964W        W20690  20.571  23.655  12.513
48965W        W20691   7.050  42.872   4.517
48966W        W20692  43.399  31.076   0.860
48967W        W20693  42.978  37.777  13.585
48968W        W20694   5.235  11.174  12.658
48969W        W20695   3.496  20.330  11.609
48970W        W20696  26.555  26.664  14.058
48971W        W20697  12.176  31.354  14.950
48972W        W20698   4.956   0.739  11.056
48973W        W20699   6.107  26.261   0.752
48974W        W20700  29.077   5.723   4.607
48975W        W20701  33.470  34.397   3.568
48976W        W20702  31.338  27.181   5.571
48977W        W20703  39.583  23.625   3.652
48978W        W20704  12.833   2.456  14.357
48979W        W20705  17.841  28.095   2.842
48980W        W20706  40.398  41.685   5.135
48981W        W20707  21.143  31.918  12.388
48982W        W20708  42.466   4.648  12.562
48983W        W20709  25.536  11.906   4.099
48984W        W20710   1.420  41.847   1.241
48985W        W20711  14.501  36.912  11.423
48986W        W20712  32.418  43.634   1.494
48987W        W20713  16.860   8.876   2.568
48988W        W20714  29.943  21.027   0.020
48989W        W20715   8.828  33.591  11.118
48990W        W20716   0.872  38.250   4.538
48991W        W20717  12.696   3.040   2.387
48992W        W20718  30.052  44.961   0.745
48993W        W20719  33.394   5.362  13.855
48994W        W20720  43.491  37.189   3.618
48995W        W20721  37.081  17.285  10.737
48996W        W20722  32.554  41.896  11.949
48997W        W20723  26.723  13.554  10.962
48998W        W20724   8.219  34.800  11.073
48999W        W20725  30.627  26.030  14.461
49000W        W20726  19.792  24.041  11.481
49001W        W20727   2.421  13.916  11.410
49002W        W20728  31.580  40.361   2.341
49003W        W20729  25.654   1.188   0.376
49004W        W20730  28.248  44.016  14.742
49005W        W20731   5.613  17.238  10.530
49006W        W20732  13.740  43.600   4.459
49007W        W20733  24.117   0.615  10.604
49008W        W20734   5.608  40.028  13.990
49009W        W20735  19.239  23.604   2.054
49010W        W20736   6.272  14.588   3.496
49011W        W20737  13.289  39.591  14.315
49012W        W20738  40.088  42.452  10.711
49013W        W20739  20.024  22.999  10.829
49014W        W20740   1.760  17.949   0.456
49015W        W20741  10.398   7.329   2.972
49016W        W20742  19.778  27.010   2.833
49017W        W20743  11.910   3.164  14.919
49018W        W20744  33.619  42.477  11.118
49019W        W20745  24.503  10.376   2.811
49020W        W20746  36.395  22.201   0.478
49021W        W20747  20.764  30.662   3.735
49022W        W20748   6.837  16.835   0.351
49023W        W20749  27.806  27.633  13.743
49024W        W20750   7.165  12.100  10.729
49025W        W20751  17.828  16.800   1.320
49026W        W20752   8.583  23.885   0.954
49027W        W20753   6.761  34.742   0.519
49028W        W20754  27.191  27.248  11.633
49029W        W20755   4.033  17.680   3.889
49030W        W20756  32.953  43.144   2.803
49031W        W20757  35.589  25.935   4.608
49032W        W20758  29.095   3.240   3.033
49033W        W20759  42.949  27.217  13.842
49034W        W20760  44.468  28.637   3.320
49035W        W20761   4.446  10.349   0.155
49036W        W20762  39.512  34.519  14.531
49037W        W20763  19.853   3.821   2.781
49038W        W20764  13.390   3.418  11.282
49039W        W20765  15.067   3.232   2.296
49040W        W20766  38.195  19.120   2.980
49041W        W20767  35.428  14.471   3.163
49042W        W20768  18.808  39.394  14.827
49043W        W20769  31.876  35.943  12.547
49044W        W20770  37.487  30.165  11.924
49045W        W20771  19.476  24.601   1.734
49046W        W20772   4.851  25.428  13.250
49047W        W20773  30.381  21.514   2.528
49048W        W20774  22.679  37.165  11.958
49049W        W20775  12.739  19.022   0.472
49050W        W20776  24.778  35.524  10.844
49051W        W20777  40.925  39.471  11.532
49052W        W20778   1.216   3.362   1.332
49053W        W20779  11.525  27.851   9.900
49054W        W20780  44.973  24.536   3.285
49055W        W20781  19.219  22.968  14.322
49056W        W20782  24.342  18.320  10.336
49057W        W20783   6.454  28.630  10.967
49058W        W20784  24.346  38.004  12.396
49059W        W20785  28.614  16.478  14.020
49060W        W20786  43.558  37.159  12.030
49061W        W20787  38.901  38.752   0.418
49062W        W20788  33.147   3.784   4.146
49063W        W20789  21.869  31.230  14.667
49064W        W20790  21.432  30.682   4.645
49065W        W20791  27.540  43.463   0.930
49066W        W20792  29.864  31.152  12.040
49067W        W20793   9.279   0.276  10.768
49068W        W20794   3.921  34.130  12.166
49069W        W20795  24.772   5.224  12.165
49070W        W20796  34.482  29.493   2.393
49071W        W20797  19.337  11.750  11.191
49072W        W20798   6.512  10.670  13.636
49073W        W20799  43.018  22.102  14.374
49074W        W20800  32.363   8.297   2.246
49075W        W20801  36.059   9.782  11.244
49076W        W20802  21.049  23.193  13.608
49077W        W20803  22.166  38.537   0.297
49078W        W20804  11.397  15.943  11.577
49079W        W20805   3.431   6.182   4.204
49080W        W20806   1.922   5.858  14.927
49081W        W20807   0.792  43.717   0.258
49082W        W20808   1.901  17.458   0.323
49083W        W20809   3.402  21.610   0.894
49084W        W20810   8.631  36.992   1.750
49085W        W20811   4.307  42.713  12.033
49086W        W20812  40.924  17.765  12.584
49087W        W20813   9.451  10.207   0.390
49088W        W20814  32.729   3.344   0.046
49089W        W20815  40.428  43.222   1.267
49090W        W20816   9.471   8.478  13.444
49091W        W20817  26.207   4.796   3.304
49092W        W20818   7.141  41.547   0.347
49093W        W20819  20.358  34.557  10.884
49094W        W20820   5.132  40.375  12.741
49095W        W20821  41.749  23.590  10.631
49096W        W20822  42.827  26.426   1.484
49097W        W20823  11.273  33.270   3.571
49098W        W20824  27.723  34.662   0.993
49099W        W20825  38.769  29.616   0.085
49100W        W20826  36.100  21.125  10.754
49101W        W20827   9.318  34.307   4.180
49102W        W20828   2.406  44.806  14.915
49103W        W20829  16.841   3.905  12.527
49104W        W20830   0.935  35.510  13.816
49105W        W20831  41.614  40.058   2.086
49106W        W20832  24.026  44.925   4.934
49107W        W20833  38.405  26.063   4.177
49108W        W20834  12.626  40.889  12.959
49109W        W20835  44.273  21.546   0.250
49110W        W20836  34.232  33.490   1.204
49111W        W20837  12.283   0.266   3.085
49112W        W20838  33.450  40.647   2.755
49113W        W20839  25.037  22.454   1.680
49114W        W20840  40.387  31.738  12.116
49115W        W20841  20.111  44.978  12.339
49116W        W20842  25.024   5.118   1.845
49117W        W20843  25.669   6.210  11.838
49118W        W20844  42.985   7.889   3.167
49119W        W20845  27.266   6.964  13.939
49120W        W20846   3.433  24.221   1.813
49121W        W20847   1.940  36.603  14.845
49122W        W20848   3.699  39.525   1.325
49123W        W20849  41.894  20.348  10.559
49124W        W20850   4.722  26.579  14.999
49125W        W20851  41.813  43.786  14.262
49126W        W20852  31.062  23.602  11.492
49127W        W20853  44.297   2.825   3.580
49128W        W20854   9.598  14.998  11.949
49129W        W20855  37.362  43.985  13.601
49130W        W20856  34.136  24.034   1.281
49131W        W20857  39.936  13.808   2.203
49132W        W20858  29.728   9.182  14.918
49133W        W20859  41.446  37.817  12.067
49134W        W20860  21.185  23.019   3.656
49135W        W20861   6.690  20.932   1.738
49136W        W20862  22.607  28.532  14.572
49137W        W20863  17.146   4.819   3.784
49138W        W20864  27.245  23.509  12.515
49139W        W20865  36.854  22.498  14.963
49140W        W20866  21.968  28.610   1.471
49141W        W20867   5.429  13.080  14.893
49142W        W20868  42.630  19.644  12.351
49143W        W20869  12.379  32.138   4.337
49144W        W20870  42.770  38.371  14.727
49145W        W20871  17.594  41.071   4.083
49146W        W20872  13.138  19.244  13.407
49147W        W20873   7.597   6.270  13.394
49148W        W20874   7.214  19.341   0.040
49149W        W20875  17.370  33.180   0.308
49150W        W20876  32.986   7.096  13.429
49151W        W20877  28.452  23.583   0.882
49152W        W20878  27.187  35.432  11.902
49153W        W20879  35.049  43.978   2.262
49154W        W20880  42.410  21.174   4.146
49155W        W20881  31.057  33.108  14.340
49156W        W20882  27.841  20.059   4.031
49157W        W20883   4.208  25.182   0.504
49158W        W20884  11.352  43.931  14.729
49159W        W20885  14.328  36.529  14.606
49160W        W20886  39.192  22.042   4.918
49161W        W20887  22.654  19.168   3.053
49162W        W20888  27.986  39.612  12.651
49163W        W20889   5.748  16.315   5.671
49164W        W20890   0.855   3.426   3.657
49165W        W20891  20.595  20.978   2.160
49166W        W20892  43.044  38.750  14.968
49167W        W20893  29.377  36.070   1.475
49168W        W20894  16.936   5.857  14.469
49169W        W20895  16.295  21.685  10.552
49170W        W20896  40.398   1.043   4.204
49171W        W20897   5.666  18.779  12.116
49172W        W20898  29.430  21.502  12.561
49173W        W20899  25.100  30.193  13.534
49174W        W20900  30.682  12.739  10.774
49175W        W20901  15.191  19.193   2.449
49176W        W20902  33.349   1.007   1.849
49177W        W20903  41.079  29.678   2.204
49178W        W20904   7.189   5.316   5.044
49179W        W20905  31.632  40.733   2.716
49180W        W20906  44.241  43.500  14.780
49181W        W20907   7.604   3.851   0.429
49182W        W20908  44.847  23.252  13.808
49183W        W20909  30.839   3.353   1.912
49184W        W20910   2.418  11.386   4.604
49185W        W20911   3.657  27.192  13.289
49186W        W20912  20.693   9.097   2.858
49187W        W20913   6.463   4.323   1.468
49188W        W20914  20.361  43.330   3.724
49189W        W20915  42.741  13.778   1.656
49190W        W20916  32.724  17.881   2.165
49191W        W20917  36.335  36.324  11.070
49192W        W20918   7.324   5.229  14.049
49193W        W20919  34.620   8.945  14.285
49194W        W20920   2.497  30.948  12.882
49195W        W20921  15.315  35.988   0.822
49196W        W20922  28.158   6.891   3.260
49197W        W20923  13.017  41.891  12.066
49198W        W20924  44.685  39.890   1.505
49199W        W20925  32.249  24.981   5.098
49200W        W20926  22.277   7.320  10.709
49201W        W20927  15.570  22.627   3.721
49202W        W20928  26.103  38.895  12.850
49203W        W20929   7.822  42.955  12.998
49204W        W20930  25.569  20.764   1.400
49205W        W20931  39.454  37.231  11.304
49206W        W20932  44.628  43.139  11.168
49207W        W20933  33.582   5.380  12.428
49208W        W20934  35.307  27.157   3.709
49209W        W20935  36.673  15.812  10.627
49210W        W20936  37.625  43.385   0.895
49211W        W20937  12.884  23.204  11.908
49212W        W20938   2.490  18.567   3.229
49213W        W20939  26.655  27.726  14.912
49214W        W20940  31.871   2.896  14.874
49215W        W20941  15.661  43.603  14.966
49216W        W20942   5.503  39.690   2.316
49217W        W20943  26.436  28.173   5.121
49218W        W20944   8.329   8.879   1.667
49219W        W20945  23.984  31.015   4.620
49220W        W20946  18.939  41.995  11.885
49221W        W20947  15.324  33.046   3.817
49222W        W20948  29.632  26.536  14.951
49223W        W20949  36.114   3.897   3.211
49224W        W20950  30.955   8.758   3.563
49225W        W20951  17.200  21.432  10.294
49226W        W20952  32.177  26.499  11.619
49227W        W20953  29.836  38.879  13.783
49228W        W20954   2.353  24.709  10.694
49229W        W20955   0.841   9.159   4.535
49230W        W20956  29.083  40.471  13.442
49231W        W20957  11.810   7.635   4.070
49232W        W20958  33.488  11.210   2.261
49233W        W20959  33.803  13.767  14.285
49234W        W20960   1.836  30.724  12.163
49235W        W20961  14.769   2.489   1.030
49236W        W20962  38.186  29.935  13.418
49237W        W20963  37.367  22.579   3.244
49238W        W20964  14.550  33.983   0.441
49239W        W20965  11.115  26.829   4.615
49240W        W20966  38.531  15.756  12.560
49241W        W20967  38.914  17.797  14.264
49242W        W20968  12.848  16.663  14.007
49243W        W20969  35.558  10.437   2.603
49244W        W20970  20.984   7.729   2.459
49245W        W20971   3.241  35.417   3.703
49246W        W20972  41.524  39.620  14.299
49247W        W20973   6.199  30.654   3.203
49248W        W20974   6.816  27.541  10.801
49249W        W20975  32.702  36.097  10.584
49250W        W20976   2.023   4.176  12.006
49251W        W20977  28.547  25.958   2.923
49252W        W20978   0.464  24.622   3.439
49253W        W20979   2.518   1.772   1.385
49254W        W20980  14.795  37.030  12.627
49255W        W20981  14.888  26.576  11.911
49256W        W20982  12.900   3.344   1.734
49257W        W20983  13.657  23.678  11.454
49258W        W20984  38.523  33.461   3.912
49259W        W20985   6.845   6.810  10.279
49260W        W20986  19.968  15.237   1.553
49261W        W20987  11.842  37.514   3.184
49262W        W20988  12.655  42.188  12.432
49263W        W20989  12.226  34.666   0.430
49264W        W20990   4.730  13.270  13.593
49265W        W20991  28.026   3.741  12.787
49266W        W20992   1.036  25.777  11.130
49267W        W20993  30.664  26.116   2.396
49268W        W20994  42.326  38.900   3.262
49269W        W20995   9.358   0.208  13.028
49270W        W20996  41.009  43.230  14.546
49271W        W20997  17.744  14.681  13.323
49272W        W20998  38.543  27.985  11.044
49273W        W20999  26.737   6.655   0.828
49274W        W21000  28.106  19.537   3.602
49275W        W21001  20.546  24.636  11.077
49276W        W21002  22.246   9.366   0.322
49277W        W21003   1.494  27.143  11.848
49278W        W21004  42.798   9.254  12.065
49279W        W21005  37.656  23.837  13.907
49280W        W21006  30.549  26.026  11.647
49281W        W21007   7.324   8.812  10.935
49282W        W21008   8.339  44.157   3.603
49283W        W21009  31.854  35.826   4.082
49284W        W21010  39.663  39.706  11.096
49285W        W21011  23.487  20.532   3.437
49286W        W21012  15.505  13.378   4.367
49287W        W21013   4.694  12.920  14.407
49288W        W21014  22.560  25.616  10.668
49289W        W21015   2.370   6.654  14.799
49290W        W21016  38.972  29.425   3.610
49291W        W21017  27.618  39.959   3.213
49292W        W21018  20.581  12.397   3.259
49293W        W21019  26.530  11.278  11.970
49294W        W21020  10.839  22.953   1.411
49295W        W21021  29.769  16.203   0.864
49296W        W21022  41.810  22.668   1.369
49297W        W21023  24.084   0.778   4.719
49298W        W21024  29.368  25.703  11.571
49299W        W21025  26.611  13.171   2.947
49300W        W21026  13.051  23.696  10.819
49301W        W21027   6.944   3.437   1.908
49302W        W21028  15.159  28.204  14.272
49303W        W21029   3.945  24.742  13.732
49304W        W21030  42.777  11.786  11.429
49305W        W21031  13.169  31.472  10.557
49306W        W21032  43.386  37.508   2.154
49307W        W21033  15.528  34.483   3.414
49308W        W21034   3.942  30.115  12.775
49309W        W21035  35.846  11.659  13.870
49310W        W21036  10.460  15.753   1.994
49311W        W21037  36.964  41.367   4.665
49312W        W21038  38.357  22.545  11.722
49313W        W21039  10.686  11.081   4.271
49314W        W21040  11.793  42.760  11.133
49315W        W21041  40.452  22.749   4.477
49316W        W21042   4.833  39.877  11.658
49317W        W21043  11.738  34.142   1.795
49318W        W21044  12.114   0.063   0.817
49319W        W21045   6.251   8.817  10.685
49320W        W21046  17.459  20.804  11.083
49321W        W21047  27.909   3.866   2.134
49322W        W21048  42.948  15.694  12.499
49323W        W21049   3.956  36.791   3.932
49324W        W21050  25.011   5.641   2.728
49325W        W21051  23.188   8.471   2.961
49326W        W21052   8.234  40.532  12.276
49327W        W21053  40.317  23.071   0.102
49328W        W21054  19.248  34.506   1.656
49329W        W21055  24.612  35.291  14.488
49330W        W21056   9.941  20.274  12.573
49331W        W21057   8.814  14.816   1.427
49332W        W21058  23.235  19.136  12.541
49333W        W21059  31.044   8.880   0.182
49334W        W21060   1.683  31.708  11.066
49335W        W21061  11.301  44.429   2.771
49336W        W21062  31.536   8.246  12.754
49337W        W21063   8.896  42.034  13.447
49338W        W21064   7.060  14.485  12.657
49339W        W21065   4.352   1.954   0.325
49340W        W21066   2.189   3.359   4.308
49341W        W21067   9.186   3.270  12.696
49342W        W21068  11.313  12.226  13.215
49343W        W21069  38.517  24.941   1.965
49344W        W21070  23.624  42.956   0.760
49345W        W21071  20.247  13.738  11.717
49346W        W21072  32.932  18.739   0.555
49347W        W21073  36.295  33.464  12.401
49348W        W21074   1.196  27.592  11.918
49349W        W21075   3.949   5.229  11.658
49350W        W21076   5.836  17.684  10.678
49351W        W21077   6.642   2.885   2.712
49352W        W21078   9.372  12.159   0.414
49353W        W21079  24.162  18.907   0.400
49354W        W21080  22.690  44.041  11.112
49355W        W21081  37.516  14.888   5.182
49356W        W21082  11.939  37.066   0.342
49357W        W21083  21.657  30.218   4.661
49358W        W21084   0.168   7.823  11.155
49359W        W21085  34.110  33.656   0.687
49360W        W21086   6.785  17.744   1.763
49361W        W21087  41.195  18.190  12.452
49362W        W21088  17.066  44.492   4.968
49363W        W21089   1.272  30.921  13.958
49364W        W21090  20.523   8.410   0.391
49365W        W21091  38.601  25.084   3.319
49366W        W21092   2.922  37.586  12.659
49367W        W21093   6.183   6.854  13.454
49368W        W21094   5.728   4.981  10.266
49369W        W21095  20.512  30.384   0.365
49370W        W21096   6.085   3.759   1.778
49371W        W21097   4.485  21.112   0.307
49372W        W21098  13.093  27.184   2.397
49373W        W21099  14.983   1.716  10.254
49374W        W21100  36.838  19.223   3.482
49375W        W21101  19.387  36.194   2.371
49376W        W21102  21.499  44.208  11.086
49377W        W21103   7.689  27.217  12.555
49378W        W21104  19.313  37.089  11.863
49379W        W21105  43.217  21.788   2.793
49380W        W21106   0.496   2.551   0.453
49381W        W21107  30.017   4.672   4.254
49382W        W21108  25.669  42.457  12.853
49383W        W21109  13.212  22.059   2.777
49384W        W21110  40.376  25.051   0.328
49385W        W21111  13.264  38.532   2.129
49386W        W21112   1.363  37.596  14.370
49387W        W21113  36.865  22.321  12.130
49388W        W21114  31.352  17.542  13.055
49389W        W21115  19.076  25.958   0.714
49390W        W21116  43.527  19.952  11.980
49391W        W21117  39.097  39.290  12.568
49392W        W21118   2.347  34.064   4.732
49393W        W21119  37.453  14.171  13.331
49394W        W21120   5.333  22.070  14.023
49395W        W21121   1.160   0.707   0.340
49396W        W21122  18.981   3.918   0.363
49397W        W21123  29.500  12.464   4.914
49398W        W21124  33.018   3.152   1.294
49399W        W21125  10.028  17.694   2.174
49400W        W21126  26.570  44.506  13.783
49401W        W21127  25.105  29.613  12.213
49402W        W21128  43.175   4.800  14.457
49403W        W21129   7.188  11.889  13.527
49404W        W21130  15.646  11.967  14.373
49405W        W21131  22.271  17.710   4.012
49406W        W21132  44.473  13.747  14.549
49407W        W21133  36.992  11.438  11.199
49408W        W21134  27.614  16.021   2.806
49409W        W21135  33.911  24.012   2.804
49410W        W21136  19.124   3.411   0.373
49411W        W21137  11.760  19.017   3.201
49412W        W21138  40.334  23.247  11.973
49413W        W21139   8.463   9.040   2.149
49414W        W21140  15.024  40.029  12.404
49415W        W21141   9.822  14.577  14.110
49416W        W21142  44.841  43.829   1.503
49417W        W21143  27.466  35.990   0.481
49418W        W21144  33.926   8.590   0.805
49419W        W21145  34.163  34.736  10.919
49420W        W21146  34.114   8.476   4.970
49421W        W21147  41.568   0.914   4.175
49422W        W21148   3.528  34.146  11.290
49423W        W21149  14.991  32.381   2.763
49424W        W21150  13.391  41.066  11.202
49425W        W21151  35.437  26.492  12.292
49426W        W21152  31.884  15.696   3.327
49427W        W21153   2.436  44.469   0.689
49428W        W21154  15.121  12.140   1.874
49429W        W21155  15.660  44.409   1.425
49430W        W21156  20.540  10.342   3.598
49431W        W21157  29.499  42.986   1.184
49432W        W21158  37.212  33.203  10.796
49433W        W21159  18.310  29.614   0.807
49434W        W21160  10.144  13.756   3.204
49435W        W21161  22.278  38.473  12.821
49436W        W21162  25.701   7.875  12.545
49437W        W21163  36.321  22.577  11.698
49438W        W21164  36.339   9.129   2.112
49439W        W21165  37.079   6.847   2.673
49440W        W21166   4.272  26.931   4.873
49441W        W21167  42.729  13.044  11.970
49442W        W21168   6.321  41.846  12.155
49443W        W21169  26.207   6.812  12.071
49444W        W21170  20.314  23.656  11.579
49445W        W21171  17.588  35.823  13.995
49446W        W21172   1.677  21.075  12.926
49447W        W21173   4.195  43.413   1.962
49448W        W21174  34.868  24.759   1.293
49449W        W21175   2.690  16.247  13.308
49450W        W21176  23.505   2.445   3.876
49451W        W21177  25.848   0.284  10.090
49452W        W21178   0.509   9.146   1.243
49453W        W21179  30.652  16.194   3.288
49454W        W21180  44.038  11.835  11.863
49455W        W21181   3.456  30.466  11.629
49456W        W21182   8.922  11.423   4.313
49457W        W21183  35.835   1.987   3.270
49458W        W21184  18.743  36.047  13.434
49459W        W21185  33.523  33.424   3.437
49460W        W21186  26.377  17.019  12.727
49461W        W21187  38.863  18.850  13.038
49462W        W21188  44.716   7.328  13.799
49463W        W21189   6.273  40.237  13.531
49464W        W21190   0.900  39.381  10.375
49465W        W21191  39.054  18.578   4.646
49466W        W21192  28.534  25.605   0.971
49467W        W21193  44.801  26.526   1.931
49468W        W21194  28.333  40.737   4.135
49469W        W21195  41.499   1.613   0.833
49470W        W21196  25.017  12.552  12.460
49471W        W21197   5.677  28.011  14.362
49472W        W21198  42.256  17.654  13.914
49473W        W21199  11.558  18.559  10.710
49474W        W21200  42.370  23.629   1.810
49475W        W21201  41.195  32.386  11.068
49476W        W21202  33.673   0.814   2.704
49477W        W21203  28.402   2.204  10.987
49478W        W21204  30.007  41.781   4.532
49479W        W21205   0.818  31.161  12.970
49480W        W21206  42.536   3.820   0.015
49481W        W21207  28.344  39.735   0.195
49482W        W21208   8.160  28.771  12.146
49483W        W21209  12.827  12.725   4.465
49484W        W21210   2.491   5.823   3.317
49485W        W21211   7.360  21.221   4.065
49486W        W21212   0.734  44.852   4.181
49487W        W21213   5.255  24.908   4.608
49488W        W21214   6.681  19.617  12.077
49489W        W21215   0.335  17.389  14.490
49490W        W21216  10.279  28.483  10.451
49491W        W21217  25.599  19.683  11.610
49492W        W21218   0.661  42.714  10.355
49493W        W21219  38.190   3.675   3.208
49494W        W21220  38.294   5.710   2.594
49495W        W21221  13.912   7.145  12.963
49496W        W21222  24.775  27.578   0.163
49497W        W21223   5.432  11.668   4.953
49498W        W21224  35.407  18.385  12.080
49499W        W21225  37.124  21.812   3.614
49500W        W21226  38.685  12.599   0.493
49501W        W21227  31.143  19.178   4.418
49502W        W21228   3.138  33.885  13.767
49503W        W21229  18.002  18.161   3.713
49504W        W21230  31.538  39.271   2.837
49505W        W21231   8.951  19.125   1.277
49506W        W21232  35.040  13.117  13.430
49507W        W21233  12.561  36.362   4.105
49508W        W21234   1.473  42.818  14.538
49509W        W21235  31.030  38.370   1.597
49510W        W21236  37.360  30.516  13.505
49511W        W21237  13.184  43.030   4.089
49512W        W21238  12.248  25.505  14.367
49513W        W21239  41.491   4.216   1.279
49514W        W21240  34.239  15.904  13.515
49515W        W21241  28.028  33.832  10.741
49516W        W21242  33.402  15.629  12.927
49517W        W21243  17.480  19.121  11.607
49518W        W21244   9.656  34.865   5.109
49519W        W21245  33.324  43.772   1.754
49520W        W21246   1.742  18.577  12.411
49521W        W21247  21.314  38.515  11.074
49522W        W21248  16.692   0.951  12.321
49523W        W21249  26.077  14.896   0.467
49524W        W21250  37.847  32.124   0.339
49525W        W21251  29.491  19.494   1.071
49526W        W21252  32.066  41.588   1.297
49527W        W21253  43.035  44.526  12.989
49528W        W21254   3.193  31.240   0.446
49529W        W21255  37.315  33.403   1.484
49530W        W21256   3.908  25.275  14.469
49531W        W21257  30.610  38.862  11.445
49532W        W21258  20.023  25.257  14.073
49533W        W21259  10.186  31.098   0.256
49534W        W21260  37.419   3.323  11.066
49535W        W21261  21.011  10.071   3.707
49536W        W21262  29.321  20.571  14.583
49537W        W21263  28.508  27.260  14.271
49538W        W21264  25.180   2.400   4.097
49539W        W21265   5.419  43.282   4.156
49540W        W21266  21.745  21.404   4.251
49541W        W21267  41.688  39.480   2.803
49542W        W21268  20.863  28.501  13.001
49543W        W21269  31.554  23.420  11.556
49544W        W21270  38.339  12.381   1.930
49545W        W21271  13.238  29.933  10.747
49546W        W21272  29.905   4.493  10.965
49547W        W21273  17.231  19.890  10.310
49548W        W21274   7.234  33.599  14.126
49549W        W21275  34.788  35.509  11.526
49550W        W21276  19.193  22.978  13.796
49551W        W21277  19.505  20.272  12.846
49552W        W21278   1.817  32.983   4.746
49553W        W21279  34.445  41.380   4.736
49554W        W21280  14.826  37.530  11.135
49555W        W21281   3.932   2.684  12.392
49556W        W21282  13.697  43.559   3.395
49557W        W21283   3.897  19.817   1.803
49558W        W21284  40.058  29.511  13.516
49559W        W21285   4.666   0.887   3.675
49560W        W21286  12.317  33.362   1.895
49561W        W21287   1.927   2.909   1.670
49562W        W21288  42.020  25.154  11.504
49563W        W21289  18.507  24.651  13.329
49564W        W21290  23.358  34.538  12.490
49565W        W21291  21.588  32.606   0.025
49566W        W21292  37.881  24.263  13.703
49567W        W21293   3.450  38.198   3.730
49568W        W21294  17.087  19.288  12.546
49569W        W21295  26.437  32.323  13.239
49570W        W21296  17.064  12.832  13.416
49571W        W21297  13.958   5.846  11.320
49572W        W21298  36.129  13.594  11.188
49573W        W21299  24.637  42.296  11.186
49574W        W21300  29.235  26.094  11.892
49575W        W21301   9.871  19.218  14.237
49576W        W21302  18.726  34.023   4.389
49577W        W21303  14.759  27.853  11.873
49578W        W21304  43.918  25.391   4.352
49579W        W21305   9.186  37.935   3.114
49580W        W21306  25.642   6.354   1.829
49581W        W21307  26.693  38.614  11.367
49582W        W21308  23.390  41.583  14.560
49583W        W21309  41.378  41.634  14.487
49584W        W21310  32.356  19.783  12.055
49585W        W21311  18.165  25.071   0.377
49586W        W21312  14.277  15.240  10.991
49587W        W21313  13.366  36.809   0.177
49588W        W21314  19.642  21.331   0.729
49589W        W21315  41.537  28.502   1.513
49590W        W21316  13.278   8.299  13.475
49591W        W21317  33.198  35.024  14.958
49592W        W21318  21.105  24.430  12.460
49593W        W21319   0.407   8.966   0.382
49594W        W21320  29.569  43.802  14.374
49595W        W21321  14.314  19.626  12.165
49596W        W21322  21.572  14.611  14.010
49597W        W21323  42.436   1.702  12.677
49598W        W21324   7.732  34.386   4.636
49599W        W21325  16.669  13.733  13.470
49600W        W21326  12.300   6.554  11.093
49601W        W21327   6.319  32.508   4.233
49602W        W21328   4.243  15.651  13.307
49603W        W21329  11.778  27.915  11.421
49604W        W21330   8.405   9.679  11.564
49605W        W21331  27.405  15.628   3.681
49606W        W21332   0.402   5.494  12.494
49607W        W21333  31.917  26.478  12.071
49608W        W21334  14.155  16.581   2.829
49609W        W21335  36.490  18.566  12.954
49610W        W21336  33.009  29.663   4.216
49611W        W21337  38.919  42.044   4.306
49612W        W21338  12.986  21.685  12.548
49613W        W21339  26.253  33.840  13.036
49614W        W21340  18.041  13.593   1.530
49615W        W21341  26.839  15.136  14.575
49616W        W21342  37.703  31.191  11.708
49617W        W21343   2.787   8.843  11.535
49618W        W21344  38.322  36.541   1.375
49619W        W21345   2.824   3.984  11.618
49620W        W21346   1.564  33.121  11.078
49621W        W21347  14.289  19.776   0.979
49622W        W21348  21.367   8.922   2.751
49623W        W21349  24.584  44.945  10.407
49624W        W21350  27.516  24.465   2.676
49625W        W21351   0.359  37.128  14.306
49626W        W21352  31.589  17.063   0.077
49627W        W21353   7.259   6.214   0.853
49628W        W21354  13.509  22.689  10.230
49629W        W21355   3.357  14.318  10.516
49630W        W21356  11.705  14.479  11.564
49631W        W21357  27.083  20.711   4.148
49632W        W21358  35.996  27.408   3.297
49633W        W21359  40.510  28.039  13.395
49634W        W21360   8.584  30.637   4.107
49635W        W21361  39.394  30.670   2.142
49636W        W21362  24.742  41.516   1.176
49637W        W21363  18.094  15.367  12.535
49638W        W21364  16.009  42.179   5.129
49639W        W21365  37.896  11.672  12.169
49640W        W21366  34.009  28.173   3.427
49641W        W21367  32.437  41.194   4.524
49642W        W21368  25.401  30.092   5.223
49643W        W21369  21.769  38.874  13.951
49644W        W21370  10.301  25.885   0.273
49645W        W21371   0.742  35.952  14.834
49646W        W21372   8.930  43.927   1.813
49647W        W21373  31.843  42.925  13.351
49648W        W21374   4.886  16.182   2.182
49649W        W21375  43.313   1.679  14.087
49650W        W21376  20.772  10.273  13.598
49651W        W21377  28.186  24.436  14.969
49652W        W21378  26.723   2.152  13.325
49653W        W21379  33.477  18.629   3.616
49654W        W21380   4.837  36.388   4.595
49655W        W21381   6.161   2.770  12.540
49656W        W21382   2.256  26.069   1.685
49657W        W21383  42.720  37.881  12.166
49658W        W21384  26.891  15.591   3.320
49659W        W21385  16.296  11.803  13.946
49660W        W21386  44.451  43.597  12.454
49661W        W21387   9.479  44.018  11.126
49662W        W21388  36.880  24.918  12.304
49663W        W21389  15.136  43.980   3.338
49664W        W21390   8.486  17.115   4.130
49665W        W21391  16.109  40.767   1.327
49666W        W21392   8.285  38.886  12.914
49667W        W21393  34.331  17.815  11.684
49668W        W21394  32.398  25.464   2.406
49669W        W21395  21.714  30.719   3.765
49670W        W21396  22.655   8.697  13.393
49671W        W21397  23.229  26.405   4.622
49672W        W21398  25.157  40.859  13.371
49673W        W21399  27.940  22.460   0.558
49674W        W21400  33.939  43.150   3.686
49675W        W21401  30.149   4.457   3.099
49676W        W21402  40.553  10.637   4.090
49677W        W21403  11.644  20.079  10.733
49678W        W21404  15.679  19.614  14.834
49679W        W21405  35.804   0.960  11.699
49680W        W21406  10.390   2.872   9.940
49681W        W21407   9.411   2.867  11.779
49682W        W21408  30.071  28.594  10.361
49683W        W21409  33.034  15.476  10.657
49684W        W21410  40.257  38.976   2.249
49685W        W21411   0.462  35.045   3.302
49686W        W21412  19.813  20.580  11.267
49687W        W21413  32.913  28.642  13.928
49688W        W21414  21.902  18.156   2.229
49689W        W21415  14.608  13.516   0.539
49690W        W21416  28.534  38.144  12.027
49691W        W21417  17.685  31.651   3.283
49692W        W21418  21.949  13.787   4.614
49693W        W21419  26.626  36.488  10.667
49694W        W21420  20.988  32.507   3.062
49695W        W21421   8.802  16.882  11.514
49696W        W21422  44.985   4.715  12.486
49697W        W21423   8.727   3.489  11.451
49698W        W21424  39.042  18.368  14.144
49699W        W21425  32.603   1.269   4.164
49700W        W21426  17.796  37.421  12.850
49701W        W21427  30.603  12.456   3.691
49702W        W21428  17.817   3.240   4.328
49703W        W21429  32.001  26.984  13.474
49704W        W21430  41.891  12.502  10.043
49705W        W21431  29.998  24.177  14.099
49706W        W21432  28.410  30.622  14.541
49707W        W21433   1.720  19.029   2.096
49708W        W21434  22.291  43.287  11.569
49709W        W21435  34.689  18.275  14.366
49710W        W21436   8.026   2.531   4.093
49711W        W21437   0.998  13.286  11.708
49712W        W21438  30.146  18.798  10.715
49713W        W21439  38.550   2.382   5.072
49714W        W21440   8.883  41.136  13.865
49715W        W21441  43.503  27.637  10.567
49716W        W21442  11.206  29.492   4.583
49717W        W21443  28.337  16.679  13.021
49718W        W21444  14.304   9.638   2.333
49719W        W21445  16.522   6.561  12.901
49720W        W21446  39.908  20.062  12.560
49721W        W21447  37.293  12.309  13.484
49722W        W21448  41.399  24.918  12.458
49723W        W21449  17.790  13.497   4.540
49724W        W21450   2.508  14.999  13.457
49725W        W21451  17.037   7.710  13.101
49726W        W21452  20.466  20.326   2.685
49727W        W21453  42.252  18.591   0.739
49728W        W21454  21.821   1.052   0.510
49729W        W21455  25.165   6.135   2.810
49730W        W21456   3.228  44.221  13.029
49731W        W21457  36.964  43.109  12.560
49732W        W21458  15.943  27.040   3.378
49733W        W21459  25.950  17.563  11.654
49734W        W21460  28.996  26.030   0.296
49735W        W21461  40.424   2.995  11.024
49736W        W21462  44.123  20.319   3.164
49737W        W21463  16.045  31.645   1.897
49738W        W21464   5.386  19.729  12.609
49739W        W21465   3.267  14.105   2.691
49740W        W21466  20.226  37.819   2.387
49741W        W21467   9.925   7.768  12.440
49742W        W21468  30.071  24.439   0.731
49743W        W21469  14.466  42.368   0.262
49744W        W21470   9.688  42.849   4.657
49745W        W21471  42.835   8.741   3.786
49746W        W21472  43.449  19.159  10.748
49747W        W21473  17.359  21.218   2.834
49748W        W21474  13.258  42.034  12.529
49749W        W21475  35.674   8.865  13.965
49750W        W21476  21.301   6.177   3.306
49751W        W21477  11.857  39.779  14.262
49752W        W21478  13.587  23.006  10.884
49753W        W21479   9.463  40.483  11.606
49754W        W21480  37.382  16.813   4.215
49755W        W21481  36.608  27.789  12.633
49756W        W21482   4.624  14.658  11.425
49757W        W21483   9.838  24.192   2.513
49758W        W21484  27.715  16.654   0.831
49759W        W21485  25.160   9.072  13.741
49760W        W21486  20.116  43.284   4.676
49761W        W21487  11.826  13.961  11.606
49762W        W21488   9.917   2.744   3.459
49763W        W21489  27.896   3.127  11.572
49764W        W21490   7.641   9.875   4.863
49765W        W21491  37.331   0.566   5.116
49766W        W21492  31.431  29.711  14.959
49767W        W21493  16.861  31.412   2.142
49768W        W21494   7.105  22.807   3.210
49769W        W21495  22.843   6.290   3.066
49770W        W21496  34.343  13.255   3.734
49771W        W21497  33.888  42.785   2.146
49772W        W21498   4.249  19.597   1.481
49773W        W21499  28.078  14.944  10.717
49774W        W21500  20.569  11.046  10.556
49775W        W21501  11.218  19.020   0.448
49776W        W21502   4.599  24.544   4.964
49777W        W21503  28.652  30.285  13.887
49778W        W21504  25.644  20.147   1.496
49779W        W21505  17.086  40.708  14.360
49780W        W21506  13.731  40.465   0.079
49781W        W21507  14.304  30.114   4.282
49782W        W21508  23.858   1.702   4.509
49783W        W21509  41.237   6.871  12.025
49784W        W21510  26.422  26.421  10.102
49785W        W21511  34.814   5.280  11.291
49786W        W21512  30.689   0.159   2.381
49787W        W21513  25.174   7.131  13.777
49788W        W21514   6.926  40.463   4.523
49789W        W21515  16.203  34.935  12.832
49790W        W21516  41.471  23.185   2.842
49791W        W21517  20.139  18.319   3.717
49792W        W21518  37.102   0.446  10.711
49793W        W21519  13.643  33.577  14.926
49794W        W21520  36.996  23.127   4.342
49795W        W21521  36.465   5.960   0.696
49796W        W21522  28.580  12.568  14.647
49797W        W21523  11.690  15.013  11.590
49798W        W21524  32.879   6.839   4.620
49799W        W21525  18.051  23.036   2.281
49800W        W21526   6.742   6.757   2.316
49801W        W21527  14.831  44.929   1.921
49802W        W21528  39.683  33.246  13.125
49803W        W21529  18.638  40.839  12.470
49804W        W21530  32.432  12.134   2.800
49805W        W21531  16.556  42.267  11.448
49806W        W21532   5.916  35.466   2.702
49807W        W21533   6.778  12.532   4.139
49808W        W21534  31.684  27.535  14.780
49809W        W21535  14.248   8.969  11.662
49810W        W21536  14.965   3.860   4.727
49811W        W21537  25.714  15.592  14.005
49812W        W21538  44.444  18.547   1.738
49813W        W21539  16.429  26.895   3.352
49814W        W21540  15.337  41.701   4.139
49815W        W21541  16.753  42.571   4.105
49816W        W21542  39.746  14.933  11.612
49817W        W21543  20.630  19.209  11.827
49818W        W21544  30.374  15.374   3.138
49819W        W21545  27.908  43.362  12.971
49820W        W21546  39.999  10.949  11.083
49821W        W21547  40.886  41.681   1.815
49822W        W21548  12.313  43.940  11.618
49823W        W21549  33.891  44.225  10.951
49824W        W21550  17.765  33.110  12.067
49825W        W21551  39.449  27.439   4.234
49826W        W21552  41.755   9.843   2.646
49827W        W21553  40.446  33.591  14.829
49828W        W21554  24.656  32.487   3.749
49829W        W21555  12.303  21.495   0.821
49830W        W21556  33.044  21.213  10.755
49831W        W21557  43.440  10.874   2.662
49832W        W21558  35.292  20.411  13.814
49833W        W21559  34.151  11.791   2.830
49834W        W21560   8.834  25.064   2.550
49835W        W21561  37.414  36.293   0.451
49836W        W21562  37.162   6.815   3.797
49837W        W21563  14.151  41.062  14.968
49838W        W21564   5.868  26.512   2.217
49839W        W21565  11.838  14.760   1.290
49840W        W21566  12.644   9.930  13.061
49841W        W21567  41.809  24.845  14.827
49842W        W21568  26.155  27.471   0.623
49843W        W21569   6.597  43.893  11.887
49844W        W21570   0.441  37.343   1.818
49845W        W21571  18.191  33.308  12.326
49846W        W21572  10.579  26.292  11.494
49847W        W21573  43.386  15.826  14.254
49848W        W21574   0.234  40.399   1.308
49849W        W21575  35.433  38.429   0.399
49850W        W21576   7.424  31.160   4.583
49851W        W21577   3.268   7.274  14.690
49852W        W21578  18.027  22.390  14.802
49853W        W21579  21.205  15.294  14.884
49854W        W21580  38.812  34.485  13.555
49855W        W21581  35.449  17.221  13.197
49856W        W21582  44.492  41.985   1.704
49857W        W21583  39.788  44.589   1.837
49858W        W21584  33.126  41.998  14.249
49859W        W21585  23.074  29.241   3.115
49860W        W21586  35.199  24.652   0.919
49861W        W21587  40.928  12.207   2.781
49862W        W21588  36.529   2.310  11.226
49863W        W21589  42.917   5.560   2.566
49864W        W21590  14.712  36.650   2.543
49865W        W21591  39.971  30.611  13.069
49866W        W21592  20.086  22.947   0.092
49867W        W21593  39.829  35.378   3.953
49868W        W21594  20.838  13.326  10.116
49869W        W21595   5.827  32.501  14.291
49870W        W21596   0.611  29.868  14.002
49871W        W21597  22.786  40.373  14.294
49872W        W21598  23.316   5.388  14.776
49873W        W21599   2.748  37.080   2.228
49874W        W21600  31.238   7.846   2.688
49875W        W21601  24.581  11.129  10.676
49876W        W21602  40.860  24.041   4.505
49877W        W21603   1.907  31.366   4.560
49878W        W21604  16.295  18.676  11.652
49879W        W21605  36.478   6.714   4.574
49880W        W21606  19.089  44.756   2.886
49881W        W21607  11.661   1.908   1.782
49882W        W21608   2.485  37.381  12.983
49883W        W21609  38.369  37.535   0.353
49884W        W21610  15.812  32.586   0.276
49885W        W21611  40.466  17.914  12.070
49886W        W21612  30.030  28.304   0.907
49887W        W21613  11.953   4.435   4.339
49888W        W21614   6.293  15.832  12.522
49889W        W21615  36.970  18.000  14.924
49890W        W21616   8.880  20.252   1.664
49891W        W21617  24.718  20.606   2.354
49892W        W21618  31.678   2.911  12.646
49893W        W21619  33.202  41.632  12.514
49894W        W21620  42.450  30.986  11.196
49895W        W21621   8.836  25.629  14.401
49896W        W21622   1.048  28.669   3.239
49897W        W21623   3.434   5.386  12.483
49898W        W21624  24.957  19.712   0.502
49899W        W21625  18.904  20.915   0.293
49900W        W21626   8.801  24.520   4.853
49901W        W21627   7.957  43.201   1.418
49902W        W21628  28.450  37.842   4.647
49903W        W21629  18.281  42.007   3.293
49904W        W21630  36.697  30.937   3.818
49905W        W21631  40.341   1.216  12.653
49906W        W21632  17.297  25.991  14.491
49907W        W21633  28.226  44.747   4.192
49908W        W21634   0.242  43.786  13.251
49909W        W21635  28.261  33.922   0.687
49910W        W21636  33.234  25.875   4.496
49911W        W21637  31.719  11.645  11.534
49912W        W21638  40.488   3.653  14.835
49913W        W21639  40.343  14.620   2.326
49914W        W21640  18.576   3.467   4.625
49915W        W21641  32.645  24.472  13.978
49916W        W21642  24.673  23.501   3.682
49917W        W21643  10.934  15.871  13.401
49918W        W21644  36.491  27.967   3.605
49919W        W21645  29.143  36.947  10.923
49920W        W21646  13.452  28.433  12.638
49921W        W21647  41.046  37.978   1.036
49922W        W21648   6.971  23.253  13.735
49923W        W21649  36.963  27.253  13.871
49924W        W21650  32.494  17.639  11.905
49925W        W21651  35.758  25.781  11.868
49926W        W21652  30.409   2.282   1.694
49927W        W21653  40.923  41.025   2.626
49928W        W21654   6.741  28.623  13.492
49929W        W21655  29.079   8.784   3.889
49930W        W21656   0.067  30.922  12.411
49931W        W21657  28.581  32.202   3.777
49932W        W21658   3.320   7.078  13.454
49933W        W21659  15.067   3.678   3.903
49934W        W21660   8.385  26.927   0.408
49935W        W21661  18.267  10.292   1.863
49936W        W21662  15.686  27.287   4.597
49937W        W21663  38.496  12.761   3.775
49938W        W21664  27.509  28.358  12.139
49939W        W21665  34.989   7.717  11.641
49940W        W21666  19.752  42.882  13.708
49941W        W21667  36.251   2.190  11.679
49942W        W21668  25.601  31.545  10.936
49943W        W21669   6.346  15.560   3.107
49944W        W21670   9.263  24.834  10.222
49945W        W21671  14.323   2.281   3.892
49946W        W21672  15.660   8.756   3.716
49947W        W21673   2.770   3.757   2.335
49948W        W21674  27.380  17.830   3.546
49949W        W21675  15.689  24.590  13.299
49950W        W21676  28.404  32.443   4.227
49951W        W21677  17.653  36.882  13.956
49952W        W21678  44.800  10.411  13.829
49953W        W21679   5.704  29.610  11.125
49954W        W21680  16.896  13.104  14.789
49955W        W21681  43.045  18.197  12.826
49956W        W21682   8.358  11.383  14.458
49957W        W21683   6.841  35.162   0.214
49958W        W21684   2.943  30.594  10.332
49959W        W21685  28.119  13.776   2.144
49960W        W21686  32.058  25.016  10.844
49961W        W21687  17.181  23.615  14.589
49962W        W21688  40.570  14.047   1.824
49963W        W21689  28.433  34.812  11.196
49964W        W21690  13.403  14.961  11.007
49965W        W21691  26.596   4.807   0.546
49966W        W21692   6.679  21.739   1.067
49967W        W21693   1.024   5.785  13.116
49968W        W21694   3.529  44.011   3.222
49969W        W21695  11.113  30.594   0.722
49970W        W21696  42.557  41.554  13.152
49971W        W21697  13.163  31.635  11.043
49972W        W21698  16.722  43.780   4.655
49973W        W21699   6.012  30.047   4.140
49974W        W21700  16.668   4.698  11.619
49975W        W21701  36.161  17.270   3.607
49976W        W21702  43.788   7.189   4.117
49977W        W21703  22.966  29.567   2.730
49978W        W21704  30.187  44.494   2.748
49979W        W21705  18.229  12.433  11.433
49980W        W21706  14.693   9.678   1.798
49981W        W21707   2.229   3.852  10.644
49982W        W21708  44.489  35.924   0.443
49983W        W21709  21.617  35.415  14.305
49984W        W21710   2.516  43.906  11.560
49985W        W21711  21.218  34.361  14.333
49986W        W21712  27.856  16.470  11.498
49987W        W21713   4.437  31.963  11.500
49988W        W21714  35.977  33.362  14.409
49989W        W21715   4.310   1.892   1.707
49990W        W21716  18.809  19.605   1.657
49991W        W21717  40.374   1.975   3.253
49992W        W21718  22.748  17.865   3.232
49993W        W21719  12.698   0.810  14.033
49994W        W21720  20.559  27.935   0.506
49995W        W21721  42.448   8.843  14.805
49996W        W21722  28.105  13.070  11.169
49997W        W21723  29.044  15.490   0.027
49998W        W21724  31.070  42.763  10.862
49999W        W21725  40.009   6.171   4.595
50000W        W21726  28.471  18.566   1.832
50001W        W21727  33.882   8.204  10.948
50002W        W21728  20.963   0.944  12.068
50003W        W21729  15.671  10.108  12.508
50004W        W21730  14.488  40.856  10.655
50005W        W21731   3.203  17.807  14.424
50006W        W21732   4.680  30.408  12.034
50007W        W21733  33.060  39.430  11.653
50008W        W21734  18.523  16.575  11.198
50009W        W21735  27.437   6.727   1.906
50010W        W21736  19.727  40.404   4.606
50011W        W21737  14.840   0.528  12.098
50012W        W21738  37.510  24.870   1.798
50013W        W21739  27.015   4.934  10.916
50014W        W21740  42.322   5.329  13.949
50015W        W21741  18.092   2.857  11.112
50016W        W21742  18.734  44.503  10.903
50017W        W21743  13.196  31.628   0.804
50018W        W21744  43.555  40.941   4.395
50019W        W21745  23.069  12.375   0.326
50020W        W21746  37.984  22.169  10.624
50021W        W21747  44.063  12.891  10.401
50022W        W21748   0.424   0.931  14.234
50023W        W21749  15.969  36.005  12.570
50024W        W21750  36.454  22.436  12.420
50025W        W21751  44.396  41.085  13.450
50026W        W21752  44.800  19.900   0.449
50027W        W21753   6.808  29.416   4.387
50028W        W21754  38.446   0.437  13.898
50029W        W21755  19.003   4.685  11.018
50030W        W21756  21.785  22.633   2.766
50031W        W21757  41.899  19.251   0.333
50032W        W21758   2.199  21.579   4.860
50033W        W21759  10.424  15.607  10.467
50034W        W21760  44.864  31.679   3.582
50035W        W21761   6.486   0.798   4.507
50036W        W21762   2.044  23.283  12.931
50037W        W21763  11.724  33.006  13.009
50038W        W21764  39.773  31.096  12.203
50039W        W21765  32.500  17.104   3.838
50040W        W21766  40.555  24.543   0.297
50041W        W21767  17.088   2.167  12.888
50042W        W21768  26.003  18.468  11.954
50043W        W21769  10.669  26.596   0.569
50044W        W21770  41.777  35.197  11.090
50045W        W21771   9.600  19.022   4.086
50046W        W21772   9.051  36.056  10.805
50047W        W21773  14.280  42.516   4.597
50048W        W21774  10.439  16.105   3.552
50049W        W21775  39.306  32.186   2.133
50050W        W21776  40.054  37.494   0.337
50051W        W21777  27.066  18.619   1.506
50052W        W21778  30.875  13.465  12.468
50053W        W21779  26.566   7.366  13.405
50054W        W21780  44.873  23.677  10.613
50055W        W21781  13.793  19.549  11.868
50056W        W21782  44.810  24.190  12.422
50057W        W21783  30.154   3.949   3.103
50058W        W21784  17.568  38.543  14.498
50059W        W21785  36.323  22.771   3.141
50060W        W21786  34.579  28.345  11.991
50061W        W21787  22.994  24.070   1.176
50062W        W21788  16.306  34.865   3.155
50063W        W21789  21.735  20.966  14.985
50064W        W21790  34.932   6.015   3.635
50065W        W21791  12.477  24.787   0.237
50066W        W21792  37.018   4.320   1.796
50067W        W21793   4.294   8.797  11.714
50068W        W21794  27.394  13.894  11.503
50069W        W21795  40.894  41.554   2.746
50070W        W21796  13.881  37.926  10.926
50071W        W21797   8.229  38.887   2.101
50072W        W21798  28.094  24.082   0.358
50073W        W21799  36.520   1.294   5.027
50074W        W21800  40.440  19.570  11.423
50075W        W21801  24.426  25.070   2.300
50076W        W21802   1.416   8.632   0.238
50077W        W21803  15.694  40.061  11.096
50078W        W21804   0.982   3.282   4.598
50079W        W21805  33.427  20.685   2.183
50080W        W21806  20.178  24.679  11.523
50081W        W21807  13.113  32.473  10.672
50082W        W21808  34.338  30.120   1.419
50083W        W21809  39.585   3.245   3.904
50084W        W21810   9.759   6.765   2.733
50085W        W21811   8.777   2.478   4.643
50086W        W21812  39.375  40.208  12.185
50087W        W21813  15.175   4.950  13.426
50088W        W21814  14.127   0.403   3.766
50089W        W21815   8.555  39.846  10.736
50090W        W21816  37.997  25.443   9.988
50091W        W21817  16.668  32.413  14.288
50092W        W21818  27.909  35.128   0.803
50093W        W21819  16.024  40.468   0.814
50094W        W21820   5.132   4.861  11.433
50095W        W21821  12.075  26.877  12.868
50096W        W21822  42.530   9.368  12.494
50097W        W21823  25.501  37.983  14.780
50098W        W21824  25.130  15.352   1.358
50099W        W21825  34.130  43.409   9.697
50100W        W21826   1.260  38.597   3.173
50101W        W21827  20.653   7.758  12.101
50102W        W21828   2.385  30.441  13.796
50103W        W21829  27.484  39.100  10.951
50104W        W21830   2.243  35.063  11.173
50105W        W21831  36.635   2.030  13.642
50106W        W21832  38.604   4.379  14.765
50107W        W21833   2.181  18.017  13.699
50108W        W21834   1.849  44.273   1.398
50109W        W21835  32.544  32.479   1.337
50110W        W21836   4.407   3.863  10.418
50111W        W21837  19.317   0.391   1.387
50112W        W21838  25.932  35.857   4.878
50113W        W21839  44.307  33.983   2.332
50114W        W21840  42.838   4.613  12.938
50115W        W21841  24.268  41.455   3.685
50116W        W21842  24.885  12.683   2.201
50117W        W21843  13.646  25.551  13.757
50118W        W21844   9.449  27.552  14.306
50119W        W21845  44.864  11.829   2.353
50120W        W21846   8.164  14.646   0.831
50121W        W21847  25.482  34.165  11.152
50122W        W21848  22.605  11.773   1.823
50123W        W21849   8.188   2.842  11.129
50124W        W21850  28.716  11.256   3.202
50125W        W21851  33.171  41.380  14.976
50126W        W21852  11.909  15.242  14.293
50127W        W21853  38.411  14.401  11.662
50128W        W21854   4.703  13.211   1.799
50129W        W21855   0.280  28.679   2.665
50130W        W21856  42.448   2.508   4.547
50131W        W21857  23.176  28.727   3.202
50132W        W21858   5.795   6.409  10.425
50133W        W21859   9.285  30.714  11.194
50134W        W21860  35.903   7.947   0.548
50135W        W21861  16.781   1.993   4.118
50136W        W21862  36.564  32.075  10.792
50137W        W21863  37.612   6.243   1.351
50138W        W21864  14.552   8.348   0.340
50139W        W21865  38.820  17.068  13.869
50140W        W21866   7.787   9.828   3.836
50141W        W21867   4.818   4.933  11.022
50142W        W21868  21.396  38.788   1.873
50143W        W21869  20.739   6.978   4.230
50144W        W21870  25.715  27.144   1.445
50145W        W21871  42.067   1.267   3.641
50146W        W21872  24.973  26.744  10.213
50147W        W21873  21.030   3.766   2.160
50148W        W21874   5.751  33.541  11.079
50149W        W21875  10.049   9.881   5.059
50150W        W21876  40.589  32.521   3.103
50151W        W21877  44.727  28.668  10.381
50152W        W21878   4.479  12.849   3.588
50153W        W21879  11.826   8.389   4.663
50154W        W21880  40.316  16.432   1.596
50155W        W21881   2.050  43.440   2.272
50156W        W21882   9.802  13.762   0.830
50157W        W21883  27.009  16.289   0.489
50158W        W21884  39.047  43.206  12.051
50159W        W21885  20.801   8.748  12.941
50160W        W21886   3.686   6.897   0.770
50161W        W21887   9.099  31.882  10.711
50162W        W21888  25.007  10.825  12.237
50163W        W21889  37.493  44.196  12.610
50164W        W21890   6.921  30.022  12.859
50165W        W21891  12.036  27.248  12.015
50166W        W21892  18.620  36.983   2.392
50167W        W21893   7.895  31.114   1.001
50168W        W21894  31.566  34.988  12.206
50169W        W21895  35.897   0.775  12.502
50170W        W21896  30.369  37.584  10.996
50171W        W21897  26.188  20.319   3.278
50172W        W21898   0.662   8.140   1.320
50173W        W21899  20.707  24.688   0.174
50174W        W21900  19.630  37.531  10.589
50175W        W21901  37.605  19.505   4.669
50176W        W21902   1.546  20.602   0.421
50177W        W21903  29.574   4.261   1.683
50178W        W21904   4.731   5.023   4.518
50179W        W21905   1.770   8.570   4.996
50180W        W21906  44.398  25.220   2.770
50181W        W21907  35.509  14.620   0.684
50182W        W21908  25.968  13.605  11.594
50183W        W21909  37.506   3.366   0.052
50184W        W21910  41.505  36.913  13.129
50185W        W21911   3.316  15.380  12.486
50186W        W21912  43.924   6.191  11.040
50187W        W21913  43.720   5.545   1.993
50188W        W21914  27.419   8.070   3.934
50189W        W21915  25.723  15.801  10.503
50190W        W21916  40.053  15.348   3.710
50191W        W21917  40.069   9.659  14.535
50192W        W21918  35.544  34.099   4.160
50193W        W21919  22.449   4.466   4.927
50194W        W21920  25.440   1.664   9.833
50195W        W21921  22.988  18.149   1.289
50196W        W21922  43.519  18.507  11.155
50197W        W21923  38.460  30.114  12.128
50198W        W21924  13.309  30.179  12.755
50199W        W21925  29.521   8.213   0.699
50200W        W21926   0.819  16.076  11.224
50201W        W21927  33.705  41.332   0.794
50202W        W21928  41.892  39.779  11.163
50203W        W21929  35.608  28.100  13.466
50204W        W21930  23.041  37.975  12.968
50205W        W21931  14.123   4.688   4.027
50206W        W21932  17.529  32.415  14.020
50207W        W21933   4.321  33.548   0.379
50208W        W21934  43.944  25.806   1.337
50209W        W21935  28.091   1.854  14.069
50210W        W21936  37.171  16.743   2.290
50211W        W21937  14.689   8.578   2.809
50212W        W21938  39.494  14.229  12.915
50213W        W21939   0.710  17.089  13.588
50214W        W21940  39.775  28.204  13.061
50215W        W21941   3.811   2.279   1.111
50216W        W21942  30.539  20.789   4.199
50217W        W21943   7.245  39.258   2.413
50218W        W21944   4.961   8.822   3.787
50219W        W21945  20.983  11.388   9.822
50220W        W21946  21.114  29.375  12.037
50221W        W21947  33.642  43.507  11.820
50222W        W21948  26.201  10.188   2.211
50223W        W21949  26.314  10.976   3.210
50224W        W21950  10.779   7.819   3.697
50225W        W21951  24.314  38.461  13.102
50226W        W21952  39.259   0.014   3.006
50227W        W21953   4.469  35.494  12.216
50228W        W21954   8.649  43.855   2.261
50229W        W21955   2.823  14.643  13.894
50230W        W21956   3.362  37.434   1.695
50231W        W21957  42.577  11.827   1.375
50232W        W21958  22.395  19.515  13.430
50233W        W21959   2.988   8.222   4.466
50234W        W21960   0.442  13.982  12.761
50235W        W21961  43.488  25.768   0.426
50236W        W21962   7.817  36.380  10.573
50237W        W21963  29.372  24.916  13.082
50238W        W21964  13.214  22.394  14.510
50239W        W21965  30.111  41.339   4.292
50240W        W21966  30.890  32.781   0.741
50241W        W21967  14.859  29.155   3.882
50242W        W21968   8.954   0.446   3.697
50243W        W21969  14.084  10.671  10.550
50244W        W21970   9.885  22.971   4.971
50245W        W21971  35.906  18.459   1.633
50246W        W21972  10.738  27.108  13.802
50247W        W21973  21.666   4.729   3.155
50248W        W21974  29.182  28.198   0.481
50249W        W21975  38.790  24.055   0.107
50250W        W21976  22.702  23.760  12.486
50251W        W21977  16.415   0.408   4.482
50252W        W21978  43.012   4.264   4.618
50253W        W21979  18.719  29.006   4.063
50254W        W21980  35.076  20.051   0.669
50255W        W21981  27.414   5.449   1.186
50256W        W21982  22.230   1.694   5.131
50257W        W21983   8.556  23.916   3.742
50258W        W21984  23.496   8.194   3.285
50259W        W21985  39.077  21.225  13.304
50260W        W21986  21.342  24.000  11.119
50261W        W21987  43.292  15.838   1.103
50262W        W21988  27.031   0.364   4.209
50263W        W21989  11.300  11.873   1.732
50264W        W21990  11.892  40.909   0.515
50265W        W21991  32.636   6.278  13.519
50266W        W21992   6.811   1.339  10.761
50267W        W21993  24.403  28.188   4.297
50268W        W21994   2.826   1.978   3.870
50269W        W21995  37.487  41.475   2.678
50270W        W21996  33.347   1.355   2.820
50271W        W21997  29.461   9.774   3.306
50272W        W21998  28.152  30.542   4.087
50273W        W21999   1.091  17.937  13.402
50274W        W22000   3.684   5.117   2.756
50275W        W22001  13.727   6.324   3.081
50276W        W22002  43.500  31.768   0.218
50277W        W22003   5.241   7.655   3.210
50278W        W22004  32.177   1.723  12.054
50279W        W22005  21.609   0.449  12.319
50280W        W22006   8.158  21.593   4.966
50281W        W22007  14.298   6.884  14.826
50282W        W22008  33.309  32.149  13.679
50283W        W22009  15.605   9.688   3.314
50284W        W22010   9.319  41.117   4.184
50285W        W22011  33.037  42.526  13.019
50286W        W22012  34.510  19.367  10.441
50287W        W22013  22.354  38.532   0.798
50288W        W22014  36.861  26.183  13.006
50289W        W22015  36.552  11.474   2.955
50290W        W22016   3.167   1.946  12.833
50291W        W22017  35.650   2.924  13.993
50292W        W22018  25.577  23.293  14.078
50293W        W22019  14.243  30.032   4.821
50294W        W22020  35.522  26.293   3.682
50295W        W22021   4.198   4.180   4.864
50296W        W22022   8.674  22.590   3.336
50297W        W22023  33.206  41.941   3.676
50298W        W22024   3.920  10.560  13.979
50299W        W22025  31.495  27.721  13.549
50300W        W22026  26.882  33.502  11.036
50301W        W22027  35.406  41.481   4.591
50302W        W22028  28.281  12.939   2.679
50303W        W22029  23.529   5.423   2.119
50304W        W22030  21.732  40.815   1.727
50305W        W22031  27.200  13.202  13.032
50306W        W22032  37.008  23.092  14.935
50307W        W22033  12.137   6.799  13.311
50308W        W22034  24.174  39.491   3.690
50309W        W22035   4.665  23.985  10.586
50310W        W22036  33.364  36.047   2.453
50311W        W22037  14.523  24.614  12.820
50312W        W22038  42.982  40.411   1.975
50313W        W22039   1.275  18.505   2.939
50314W        W22040   7.622  11.855  10.662
50315W        W22041   2.762  30.788  11.719
50316W        W22042   7.807  19.573  13.062
50317W        W22043  44.724  41.343  14.492
50318W        W22044   1.064  17.908   0.052
50319W        W22045   3.359  23.643  13.257
50320W        W22046  34.452   6.170  13.116
50321W        W22047  36.578  27.934  10.921
50322W        W22048  32.214  11.754  14.895
50323W        W22049  26.022  32.415  10.934
50324W        W22050  10.257  12.629  12.495
50325W        W22051  25.440   1.342  10.773
50326W        W22052  31.182  15.654   2.393
50327W        W22053  31.186  18.568  12.993
50328W        W22054  41.987  26.736   1.709
50329W        W22055  14.395  37.232   3.330
50330W        W22056  34.516  44.478   3.621
50331W        W22057  44.187  19.076  11.944
50332W        W22058  36.502  27.253  12.587
50333W        W22059  24.133  13.916   1.379
50334W        W22060   8.908  18.012  12.560
50335W        W22061  29.127  44.468   2.433
50336W        W22062  24.077  29.164   1.243
50337W        W22063  18.276  31.618   0.793
50338W        W22064  30.983  40.055  14.268
50339W        W22065   6.819  37.327  13.355
50340W        W22066  30.438  28.769  12.133
50341W        W22067   3.901   3.873   3.228
50342W        W22068   4.992  43.011  14.490
50343W        W22069  24.511  15.265  13.956
50344W        W22070  25.459  13.613   2.814
50345W        W22071   5.935   5.729   4.196
50346W        W22072   3.960  35.086   2.832
50347W        W22073  14.322  15.359   3.911
50348W        W22074  19.370  26.980  13.863
50349W        W22075  29.098  31.020  11.447
50350W        W22076  16.303  23.282   3.687
50351W        W22077  31.655  15.200   4.609
50352W        W22078  20.623   4.765  12.764
50353W        W22079  19.648  35.158  11.972
50354W        W22080  39.765  36.052   1.348
50355W        W22081  32.885  25.055   2.719
50356W        W22082   2.507  37.361   4.626
50357W        W22083  24.267   8.426  11.637
50358W        W22084   6.832   4.501  11.480
50359W        W22085   3.465   7.414  13.080
50360W        W22086  19.289  28.107   3.882
50361W        W22087  28.661   0.935  11.577
50362W        W22088  30.938  16.312  14.813
50363W        W22089  43.305   1.392   3.842
50364W        W22090  35.591   3.906  13.111
50365W        W22091  13.346  13.101   4.636
50366W        W22092  12.060  15.672   4.227
50367W        W22093   3.536  39.051  10.651
50368W        W22094  27.734  10.144   0.484
50369W        W22095  28.133  42.871   1.445
50370W        W22096  28.345  13.793   1.665
50371W        W22097   7.178   1.967  11.497
50372W        W22098  21.282  25.366  10.251
50373W        W22099  11.348   7.393   4.240
50374W        W22100  35.296  30.867   1.728
50375W        W22101  21.945   9.092   1.997
50376W        W22102  33.707  35.538  14.495
50377W        W22103   2.317   6.919   2.743
50378W        W22104  39.575  23.935   4.092
50379W        W22105  37.606  16.069   2.599
50380W        W22106   0.012   8.147   4.729
50381W        W22107  27.307  22.089  11.621
50382W        W22108  20.926  25.971   4.090
50383W        W22109  44.449  14.578  10.817
50384W        W22110   3.936  39.775   4.083
50385W        W22111   2.807   1.168   4.287
50386W        W22112  34.314   0.967  11.508
50387W        W22113  32.546  16.920   1.273
50388W        W22114  24.534  37.524   2.656
50389W        W22115  34.310  12.775  11.221
50390W        W22116   9.241   9.061   4.995
50391W        W22117  35.560  36.613   2.724
50392W        W22118   4.239  37.849  12.030
50393W        W22119   3.654  40.754  14.806
50394W        W22120  28.896  41.817   3.438
50395W        W22121  35.869  17.814  11.087
50396W        W22122  40.692  31.101   2.478
50397W        W22123  43.760  13.727   2.832
50398W        W22124  14.629  11.417   2.455
50399W        W22125   8.886  22.235   4.662
50400W        W22126  35.289  30.148  11.649
50401W        W22127  19.792  37.925   4.325
50402W        W22128  34.941  14.455  11.595
50403W        W22129   9.857  18.033  13.506
50404W        W22130  38.487  13.158  10.943
50405W        W22131  23.858  37.061   4.215
50406W        W22132  26.529   3.504   1.836
50407W        W22133  35.112   4.170   1.079
50408W        W22134   8.379   6.335   3.202
50409W        W22135   0.370  10.340   0.683
50410W        W22136   7.400  11.981  13.067
50411W        W22137  33.344  25.889   3.606
50412W        W22138   0.857  44.342   0.634
50413W        W22139  34.455  25.166   0.014
50414W        W22140  18.688  35.628   1.391
50415W        W22141  25.726   6.052  13.269
50416W        W22142  34.534  33.862  10.761
50417W        W22143  29.683  37.615  14.385
50418W        W22144  29.570  39.615   1.841
50419W        W22145  40.181  43.711   0.582
50420W        W22146  26.586   5.239  12.028
50421W        W22147  14.785  40.433  10.652
50422W        W22148  15.645  23.940   0.223
50423W        W22149   0.845   6.293  11.522
50424W        W22150  40.600   2.497   1.888
50425W        W22151  16.260  21.221  11.425
50426W        W22152  14.835  40.437   1.761
50427W        W22153  17.524  11.184  14.887
50428W        W22154  13.785   7.147   3.749
50429W        W22155  22.531  10.316  14.288
50430W        W22156  11.215  22.154   4.294
50431W        W22157  15.756  36.099  14.565
50432W        W22158  26.319  41.040   4.137
50433W        W22159  29.372   7.817   1.498
50434W        W22160  42.381  11.260   1.927
50435W        W22161   9.438  30.557   3.777
50436W        W22162   0.169  24.877  13.967
50437W        W22163  32.427  36.926   0.351
50438W        W22164   8.348  34.495  11.446
50439W        W22165  34.895  27.093  12.826
50440W        W22166  31.265  14.587   1.788
50441W        W22167  13.204  16.792   0.330
50442W        W22168   0.284  27.478   0.297
50443W        W22169  12.690  17.000  12.345
50444W        W22170  39.882  14.199   0.393
50445W        W22171  10.951  40.392   0.996
50446W        W22172  15.074  44.218   4.203
50447W        W22173   2.897  19.579   1.506
50448W        W22174  30.419   1.442   0.451
50449W        W22175  22.013   7.905   1.251
50450W        W22176   4.395   1.420   0.420
50451W        W22177  24.726  44.494  12.321
50452W        W22178   9.261  33.510  10.710
50453W        W22179  33.032   4.940  14.871
50454W        W22180   1.497  36.984  10.780
50455W        W22181  10.907  18.877   4.096
50456W        W22182   6.875  38.461  11.454
50457W        W22183  29.152  26.606  12.477
50458W        W22184  16.094   1.782   2.720
50459W        W22185  15.092  44.539  11.979
50460W        W22186  23.500  43.399   4.143
50461W        W22187   7.459   0.838   3.101
50462W        W22188  27.644  11.376  10.636
50463W        W22189  38.060  30.568   0.811
50464W        W22190  32.136  37.518   3.722
50465W        W22191  36.956  15.792  13.943
50466W        W22192  32.921  28.194  12.375
50467W        W22193  11.811  39.562  11.143
50468W        W22194  16.846  41.269   0.030
50469W        W22195  17.721  18.479  11.265
50470W        W22196   5.242   7.921   1.796
50471W        W22197   0.968  31.171  11.133
50472W        W22198   8.748  44.457   4.452
50473W        W22199  26.715  28.238   1.279
50474W        W22200  34.453  17.849  10.801
50475W        W22201   2.397  25.708   2.705
50476W        W22202   6.264   3.040  10.799
50477W        W22203  24.298   0.524   5.529
50478W        W22204  29.915  35.368  12.855
50479W        W22205   3.073   8.320  10.752
50480W        W22206  44.260  10.685   2.260
50481W        W22207  29.705  12.751  13.404
50482W        W22208  14.766  12.687   3.691
50483W        W22209  43.214  15.318   1.287
50484W        W22210  18.190   8.942   4.776
50485W        W22211  28.529  23.140  10.500
50486W        W22212  11.381  40.415  13.106
50487W        W22213  29.713  40.102   3.655
50488W        W22214  40.443  39.803  13.820
50489W        W22215   5.434  24.225   3.662
50490W        W22216  15.641  40.317   9.767
50491W        W22217   1.110   4.436  14.126
50492W        W22218  13.098  42.860  13.933
50493W        W22219  13.586  11.207   3.879
50494W        W22220  42.295  36.321   3.219
50495W        W22221  12.188  35.961  13.813
50496W        W22222  40.934  15.006   2.276
50497W        W22223  32.086  44.029  11.089
50498W        W22224  18.223  14.407  13.492
50499W        W22225  23.667  14.580   2.814
50500W        W22226  40.088   6.704  11.017
50501W        W22227  39.582  17.230  11.695
50502W        W22228  43.656   5.030  12.901
50503W        W22229  43.531  10.264  13.000
50504W        W22230  31.856  34.059   1.273
50505W        W22231  37.946  25.605   0.392
50506W        W22232  25.882  11.753   4.816
50507W        W22233  17.983   8.793   1.266
50508W        W22234  39.740   5.298   3.284
50509W        W22235  42.969   6.383  13.576
50510W        W22236  39.556  10.169  13.894
50511W        W22237  29.330  39.907  10.669
50512W        W22238  16.660  14.221   1.851
50513W        W22239  37.863  28.009   4.481
50514W        W22240   6.787  33.894   0.727
50515W        W22241  44.790  37.385  12.465
50516W        W22242  44.507  39.501   0.881
50517W        W22243  40.594  31.338   0.009
50518W        W22244  32.012  12.795   1.644
50519W        W22245  27.036  37.033  11.209
50520W        W22246  42.676   3.195   4.137
50521W        W22247  31.602  37.398  11.008
50522W        W22248  19.239  37.834  14.042
50523W        W22249  10.876  11.221  12.655
50524W        W22250  23.027  11.639   0.845
50525W        W22251   3.794  24.424  14.749
50526W        W22252  26.887   0.026   0.788
50527W        W22253   9.694  24.096  10.162
50528W        W22254  25.530  14.210  12.436
50529W        W22255  26.011  17.271  13.464
50530W        W22256   3.187  25.107  11.269
50531W        W22257   0.966   7.498  11.205
50532W        W22258  28.635  18.043   3.108
50533W        W22259  36.631  44.556  11.657
50534W        W22260  24.780  33.446   0.896
50535W        W22261  33.321   9.696   0.764
50536W        W22262  37.290  16.039  10.833
50537W        W22263  29.914  36.679  11.065
50538W        W22264  31.854  44.562  12.814
50539W        W22265  12.745   1.960  12.846
50540W        W22266  40.286  26.914  13.783
50541W        W22267  16.576  31.891   2.885
50542W        W22268  14.692  22.689   1.370
50543W        W22269  28.100  42.610  13.929
50544W        W22270  37.840  37.341   2.826
50545W        W22271   2.739  18.811   0.799
50546W        W22272  22.004  27.511  11.507
50547W        W22273   4.371  37.340   1.768
50548W        W22274   3.856  31.915   1.314
50549W        W22275  43.966   2.980   3.188
50550W        W22276  23.725   2.746  13.912
50551W        W22277  26.178  13.673  13.992
50552W        W22278  11.720  31.842  11.231
50553W        W22279   9.155  42.397   1.691
50554W        W22280  18.466  43.731  11.154
50555W        W22281  24.169   5.365   3.321
50556W        W22282  41.339  42.234  11.512
50557W        W22283  34.926  14.140   1.764
50558W        W22284  20.169  11.542   2.351
50559W        W22285   4.016   4.611  10.490
50560W        W22286  35.937  38.840   4.034
50561W        W22287  12.081   8.206  10.657
50562W        W22288  12.344  21.438  14.973
50563W        W22289  22.903   3.488   2.236
50564W        W22290  11.042  41.896  10.627
50565W        W22291  34.668  13.500   4.107
50566W        W22292  33.356  19.825   1.309
50567W        W22293  26.311  37.486   4.157
50568W        W22294  43.821   6.343  11.531
50569W        W22295   9.214  27.599   2.369
50570W        W22296  44.016  10.890  12.393
50571W        W22297  24.634  43.207   4.999
50572W        W22298  11.203  36.066   4.223
50573W        W22299   8.911   8.086   0.413
50574W        W22300  38.427  39.076  12.523
50575W        W22301  44.415  37.260   3.161
50576W        W22302   6.728   2.818   3.629
50577W        W22303   2.426  33.344  10.779
50578W        W22304  25.727   4.703  11.227
50579W        W22305  16.749  41.923  11.782
50580W        W22306  39.401  13.047   1.822
50581W        W22307  38.930  20.651  14.107
50582W        W22308  33.663   5.244   4.596
50583W        W22309  32.028  23.499   3.816
50584W        W22310  42.942  21.516  13.302
50585W        W22311  11.237  39.224  10.596
50586W        W22312  30.111  16.944   2.775
50587W        W22313  11.391   7.195  11.447
50588W        W22314   4.687  16.643   1.382
50589W        W22315   8.823  38.113  14.740
50590W        W22316  35.746  36.368  14.288
50591W        W22317  22.243   3.223   2.830
50592W        W22318  14.790  35.328   1.256
50593W        W22319  33.572  17.192   1.133
50594W        W22320   1.117  33.117  11.916
50595W        W22321  29.665  25.934   2.436
50596W        W22322  18.717  43.274   4.379
50597W        W22323   5.265   4.717  11.904
50598W        W22324  28.047  35.123  11.945
50599W        W22325  13.332  32.004  10.691
50600W        W22326  37.110  21.735  14.452
50601W        W22327  16.731  34.609   1.921
50602W        W22328  13.437  19.276   1.215
50603W        W22329  20.230  35.176   2.331
50604W        W22330  39.205  16.519  11.041
50605W        W22331  18.139  38.601   1.992
50606W        W22332  26.980  37.611  12.109
50607W        W22333  37.481  31.997  11.277
50608W        W22334  33.399  24.249  10.602
50609W        W22335  23.520  29.835   0.026
50610W        W22336  44.099   8.526   1.394
50611W        W22337  16.630  24.679  14.571
50612W        W22338  19.346  21.711  14.024
50613W        W22339  17.924  41.025  12.961
50614W        W22340   9.541  22.082  10.222
50615W        W22341  19.109  25.138   3.133
50616W        W22342   3.242   3.740  13.427
50617W        W22343   2.745   5.557  13.324
50618W        W22344   5.010  34.470   1.274
50619W        W22345  20.085  36.857   0.280
50620W        W22346  38.403  35.599  14.537
50621W        W22347  27.505  19.839  13.555
50622W        W22348  39.790   5.863  11.982
50623W        W22349  12.799   3.749  10.966
50624W        W22350  43.731   4.504  12.349
50625W        W22351  16.668  15.704  13.532
50626W        W22352   2.901   7.933   2.121
50627W        W22353   8.413  39.527  11.293
50628W        W22354  27.309  37.768  13.919
50629W        W22355  14.071  42.783  11.948
50630W        W22356   2.636  29.686  13.107
50631W        W22357  24.829  10.075  13.485
50632W        W22358  10.147  10.038   4.569
50633W        W22359  26.135  17.782  13.476
50634W        W22360  13.935  32.192   3.228
50635W        W22361  36.074   9.644  13.884
50636W        W22362  44.079  38.066   4.730
50637W        W22363  22.981  15.138  10.636
50638W        W22364   0.938  34.571  10.364
50639W        W22365  22.065   4.680  11.385
50640W        W22366  11.716   0.952   4.962
50641W        W22367  17.672   1.577  11.924
50642W        W22368  23.508  12.595   4.581
50643W        W22369  25.155  21.940  13.897
50644W        W22370   3.328  39.251  11.491
50645W        W22371   0.562  27.896   2.330
50646W        W22372  23.549  28.133  14.663
50647W        W22373   8.331  41.798   0.282
50648W        W22374  14.714  39.065   2.916
50649W        W22375  11.382  11.528  13.419
50650W        W22376   0.435  12.659  14.795
50651W        W22377  27.987   3.387   4.217
50652W        W22378  18.259   0.879  11.188
50653W        W22379  42.258   9.895   2.648
50654W        W22380  31.946  35.573  14.274
50655W        W22381   5.170  24.140  14.557
50656W        W22382  41.999   1.771   0.287
50657W        W22383  40.463   9.674  14.877
50658W        W22384  16.442   0.236   3.963
50659W        W22385  34.352  42.791  10.693
50660W        W22386  37.063  36.486  14.649
50661W        W22387  13.202  12.926  11.962
50662W        W22388  33.825  11.283   4.815
50663W        W22389  29.608  19.163  14.318
50664W        W22390  15.299  10.399   2.168
50665W        W22391  29.472  19.193  14.813
50666W        W22392  12.851  38.965   4.489
50667W        W22393   8.698  20.343   0.875
50668W        W22394   4.500  32.157  13.445
50669W        W22395  18.393  26.502   1.903
50670W        W22396  19.311   9.100   0.720
50671W        W22397  38.714   4.969  14.284
50672W        W22398  42.652   9.329   3.119
50673W        W22399  23.160  14.589  10.226
50674W        W22400  30.545   3.399  10.659
50675W        W22401  10.445  23.950   2.775
50676W        W22402  36.459   8.463  12.302
50677W        W22403  20.117  43.308   2.753
50678W        W22404  29.518  18.328   3.711
50679W        W22405  33.905  43.745  11.421
50680W        W22406  19.691  32.601   1.433
50681W        W22407  26.315  10.321   2.703
50682W        W22408  15.764   8.894  11.047
50683W        W22409  29.182  23.562   2.537
50684W        W22410   8.148  25.569   0.013
50685W        W22411  31.051  40.995   3.576
50686W        W22412  29.295  18.053   2.020
50687W        W22413   2.387  31.431   3.108
50688W        W22414  15.178  36.511  13.934
50689W        W22415   8.332  12.236  14.007
50690W        W22416   6.491  26.171  14.324
50691W        W22417  43.996  15.347  11.071
50692W        W22418  37.789  21.221  13.011
50693W        W22419   7.357   0.455  10.712
50694W        W22420   1.330   3.527   0.144
50695W        W22421  40.148  31.628  12.583
50696W        W22422   7.290   4.362  14.174
50697W        W22423  39.025  23.464  14.434
50698W        W22424  41.399   2.218  12.482
50699W        W22425   5.855  42.922   0.580
50700W        W22426  22.568  21.499   1.444
50701W        W22427   6.362  38.552   3.637
50702W        W22428  43.750  28.013  14.201
50703W        W22429  25.185  29.553   1.489
50704W        W22430  17.606  11.056   3.634
50705W        W22431  23.133  18.622  12.720
50706W        W22432   5.932  10.309   1.076
50707W        W22433  27.187  24.062  12.949
50708W        W22434  36.299  42.719   3.691
50709W        W22435  26.853  37.893   4.537
50710W        W22436  21.645   0.758   2.945
50711W        W22437  14.286  22.604  13.397
50712W        W22438   1.988  38.809  12.849
50713W        W22439  16.540  16.512  14.042
50714W        W22440  19.223  19.846   1.868
50715W        W22441  18.557  33.924  13.957
50716W        W22442  19.166   8.327  13.385
50717W        W22443  20.102   0.879  12.857
50718W        W22444  10.346   0.416  13.915
50719W        W22445   0.626  41.062  12.090
50720W        W22446  32.408   7.110   2.721
50721W        W22447   9.691   7.420  11.216
50722W        W22448   6.125  28.597  10.550
50723W        W22449  37.022   6.810   0.436
50724W        W22450  25.019  22.259  14.365
50725W        W22451  19.004  31.072   2.711
50726W        W22452   3.097  28.666   1.816
50727W        W22453  15.677  26.285   4.556
50728W        W22454  39.169  39.577  11.230
50729W        W22455   7.402  34.105  11.753
50730W        W22456  12.653  15.659   1.840
50731W        W22457   0.444  17.611   1.741
50732W        W22458  22.587  14.878  10.846
50733W        W22459   2.594  13.870   1.471
50734W        W22460  41.908  19.711   5.040
50735W        W22461   4.164  33.987  10.747
50736W        W22462   1.206  41.487  14.000
50737W        W22463   1.537  40.195  11.043
50738W        W22464  26.015  37.995  14.890
50739W        W22465  31.325   4.656   3.694
50740W        W22466  41.844  41.254   4.572
50741W        W22467  29.142  33.847  13.592
50742W        W22468  11.338  43.099  11.174
50743W        W22469  39.216   8.321   0.400
50744W        W22470   4.771   8.091  10.985
50745W        W22471  20.469  20.626   3.820
50746W        W22472  41.559  43.326   0.980
50747W        W22473  27.387  13.339  12.525
50748W        W22474  10.553   0.528   3.267
50749W        W22475  44.219  29.389   2.891
50750W        W22476   1.006   2.132  11.653
50751W        W22477  25.911   0.813   4.673
50752W        W22478  13.857   4.683  11.196
50753W        W22479  28.892  25.120  14.829
50754W        W22480  33.673  22.453   0.096
50755W        W22481   9.276   9.304   0.295
50756W        W22482  40.832  16.513  12.458
50757W        W22483  14.338   8.431  12.581
50758W        W22484  27.720  35.907   3.202
50759W        W22485  21.380  37.381   2.955
50760W        W22486   0.899   6.271  12.425
50761W        W22487  30.571  42.431  10.175
50762W        W22488  13.077  28.721   2.760
50763W        W22489  40.566  36.648   1.768
50764W        W22490  16.766   2.757   3.120
50765W        W22491   7.218   5.886   0.395
50766W        W22492  36.671  19.524  14.635
50767W        W22493  34.789   3.032  10.777
50768W        W22494  19.660  44.469  10.667
50769W        W22495   0.008  38.385   2.836
50770W        W22496   5.731   7.593   2.433
50771W        W22497  22.663  15.073   2.749
50772W        W22498   2.213  31.568   1.775
50773W        W22499  21.383  42.858   3.792
50774W        W22500   7.869  32.176   2.951
50775W        W22501  14.188  21.050  11.902
50776W        W22502   7.923  41.774   1.255
50777W        W22503  44.833  27.680  10.800
50778W        W22504   3.202   8.820  10.845
50779W        W22505  37.378  27.046   0.846
50780W        W22506  27.485  36.066  10.545
50781W        W22507   1.721   5.697   0.846
50782W        W22508   8.915   9.198   3.830
50783W        W22509   3.283  17.068   2.783
50784W        W22510  10.344   2.572   4.149
50785W        W22511  12.763  23.989  13.162
50786W        W22512  19.162  21.640   1.685
50787W        W22513   8.769  31.132   0.176
50788W        W22514   6.860   7.010   5.364
50789W        W22515   6.330  33.685   3.804
50790W        W22516   1.423   2.236  11.997
50791W        W22517  30.201   7.657   2.726
50792W        W22518  40.407  30.695   3.220
50793W        W22519  29.589  36.858   0.542
50794W        W22520   2.820  18.825   3.539
50795W        W22521  21.818  35.114  13.670
50796W        W22522  33.301  35.054   0.877
50797W        W22523   5.925  16.657   3.782
50798W        W22524  29.123  20.079  13.374
50799W        W22525  37.616  28.461   4.303
50800W        W22526   6.471   5.337  13.476
50801W        W22527   0.862   8.345   3.228
50802W        W22528   8.829  30.608  12.090
50803W        W22529  26.919  40.455   0.971
50804W        W22530  34.821  31.060   3.147
50805W        W22531  29.233  38.945  11.444
50806W        W22532  20.341  14.651  12.100
50807W        W22533  24.149  26.792  13.601
50808W        W22534   6.265  28.786  13.680
50809W        W22535  33.158  33.815  10.448
50810W        W22536  21.850   9.502   4.023
50811W        W22537  26.195  31.444  14.946
50812W        W22538  12.292  29.634   0.738
50813W        W22539   2.000  42.976   3.085
50814W        W22540  36.314  43.582  11.364
50815W        W22541   9.383  41.347  11.639
50816W        W22542  33.063  19.653  13.603
50817W        W22543  10.472  37.732  13.837
50818W        W22544   5.932  32.414  11.619
50819W        W22545   9.258  37.916   0.548
50820W        W22546  13.137  43.249   1.374
50821W        W22547  28.752  24.695   0.567
50822W        W22548  40.501  37.982   1.141
50823W        W22549   2.765  37.933   3.224
50824W        W22550  23.694   3.134   4.609
50825W        W22551  19.249   2.279   0.056
50826W        W22552  11.592  43.373  11.565
50827W        W22553   4.834   5.896  10.827
50828W        W22554  24.633   9.671   1.259
50829W        W22555  20.730   0.395   4.567
50830W        W22556  32.676   6.918   4.114
50831W        W22557  24.460  38.526   1.495
50832W        W22558   5.292  29.360   2.395
50833W        W22559   7.863  16.795  12.475
50834W        W22560   2.898  31.145   0.886
50835W        W22561  17.151  37.668  12.909
50836W        W22562  38.936  13.384  14.560
50837W        W22563   0.660  35.633   1.177
50838W        W22564  10.316   3.883  13.891
50839W        W22565  28.883   4.760  12.605
50840W        W22566  32.362  35.432   3.124
50841W        W22567   9.247  43.983   1.305
50842W        W22568  33.349  23.044  13.825
50843W        W22569  32.369  27.101  14.944
50844W        W22570  24.163  36.086   4.047
50845W        W22571   8.318  17.347   4.583
50846W        W22572  18.774  15.963  12.810
50847W        W22573   8.280  33.038   3.219
50848W        W22574  14.914  30.605   4.670
50849W        W22575   7.141   9.633   1.372
50850W        W22576  36.425  20.791   0.320
50851W        W22577  15.151  33.165  13.009
50852W        W22578   8.297  23.578   5.509
50853W        W22579  27.341  10.272   2.782
50854W        W22580  11.230  12.421  13.690
50855W        W22581   3.478  40.573   4.329
50856W        W22582   1.415  15.155   2.416
50857W        W22583  19.093  34.126   3.039
50858W        W22584  33.988  33.822  11.916
50859W        W22585  21.483  30.391   2.345
50860W        W22586  28.947  35.978   1.928
50861W        W22587  39.143  17.929  13.813
50862W        W22588   8.709  14.967  11.907
50863W        W22589  31.467  44.763   3.277
50864W        W22590  36.315  17.157   1.240
50865W        W22591  35.949  18.605   1.118
50866W        W22592  22.609   2.506   2.191
50867W        W22593  16.514  19.193   3.223
50868W        W22594  41.470   4.743   1.386
50869W        W22595   4.995  39.047  14.349
50870W        W22596  39.466  18.575  10.689
50871W        W22597  22.971   5.784  14.709
50872W        W22598  35.370  42.004   4.582
50873W        W22599   6.716   0.695   0.389
50874W        W22600   6.451  14.813   5.005
50875W        W22601  10.109   2.844   2.925
50876W        W22602  21.327   1.768  14.501
50877W        W22603  38.461  19.524   0.703
50878W        W22604  41.316  44.443   1.248
50879W        W22605  38.582   2.963  10.724
50880W        W22606  30.576  43.077  13.035
50881W        W22607  39.321  13.219  10.619
50882W        W22608  22.558  25.472  13.017
50883W        W22609  34.497   6.172   4.919
50884W        W22610  16.063  22.493  11.498
50885W        W22611   4.776   7.636  12.548
50886W        W22612   3.559  20.233   1.817
50887W        W22613   3.459  42.511   4.431
50888W        W22614  28.199  10.083  13.424
50889W        W22615  35.319  38.278  13.101
50890W        W22616  24.719   7.581   2.369
50891W        W22617  20.538  28.238   1.471
50892W        W22618   7.645  31.085   1.926
50893W        W22619  31.234  37.788  14.290
50894W        W22620  28.156  11.155   1.845
50895W        W22621  18.011   9.154   3.796
50896W        W22622  27.396  35.097   0.747
50897W        W22623  20.169  42.816   0.571
50898W        W22624   8.323   3.527   3.217
50899W        W22625  25.032  35.136  11.176
50900W        W22626  23.159  31.100   3.705
50901W        W22627  21.844  35.498   1.950
50902W        W22628  37.210  23.226   4.791
50903W        W22629  25.680   8.370  12.382
50904W        W22630  41.386   3.220   4.515
50905W        W22631   0.875   0.253   0.255
50906W        W22632  25.708  22.984   4.848
50907W        W22633   5.952   6.357  11.415
50908W        W22634   3.441  29.978   2.274
50909W        W22635  11.867  43.349   4.441
50910W        W22636  41.724  24.545   0.981
50911W        W22637  14.286  38.417  14.723
50912W        W22638  31.600  26.430   1.723
50913W        W22639  34.064   9.816  11.841
50914W        W22640  40.836  36.326   2.775
50915W        W22641  21.227  11.117  11.146
50916W        W22642  40.475   6.401  10.761
50917W        W22643   3.090  32.412  12.907
50918W        W22644  44.835  17.149   1.137
50919W        W22645  38.059   8.260   4.393
50920W        W22646  18.809  16.726  11.636
50921W        W22647  32.013  34.696  13.925
50922W        W22648  35.084  44.963  13.461
50923W        W22649  25.566   7.487   0.910
50924W        W22650  24.210  28.700  12.545
50925W        W22651  22.268   8.439   0.299
50926W        W22652   2.548  31.193  13.328
50927W        W22653  44.582   9.162   0.767
50928W        W22654  25.716  24.452  11.003
50929W        W22655  10.579  30.654   3.209
50930W        W22656  21.982  34.499  12.058
50931W        W22657   2.468  40.643   1.854
50932W        W22658  22.564  24.604  10.262
50933W        W22659  36.176  18.949  14.156
50934W        W22660  19.327  31.387  10.574
50935W        W22661   2.291  19.811  10.396
50936W        W22662  11.261  27.375  14.604
50937W        W22663  31.499  34.455  11.482
50938W        W22664  38.919  33.615  13.834
50939W        W22665  27.157   2.817   0.888
50940W        W22666  26.155  30.153   1.732
50941W        W22667  34.434  40.121  14.721
50942W        W22668  19.292   0.313  12.891
50943W        W22669  13.295  31.651   1.789
50944W        W22670  13.142  37.256   1.935
50945W        W22671  31.973   0.222   0.277
50946W        W22672  13.285  10.206  11.586
50947W        W22673  15.298  14.364   4.140
50948W        W22674  42.831  22.473   4.998
50949W        W22675  18.021  27.939  13.026
50950W        W22676  23.762  41.602  12.127
50951W        W22677  42.932  15.813   1.762
50952W        W22678  20.928  23.526   3.067
50953W        W22679  29.238   6.219   1.824
50954W        W22680  35.117  17.300  11.853
50955W        W22681   9.782   9.840   0.949
50956W        W22682  40.283  22.218  14.527
50957W        W22683  30.982   7.104   3.116
50958W        W22684  35.155  34.174   1.793
50959W        W22685  42.786  35.343   3.737
50960W        W22686  29.612   1.254  11.614
50961W        W22687   4.578  18.540  14.919
50962W        W22688  30.443   2.377  12.894
50963W        W22689   6.863   7.704   3.824
50964W        W22690   3.930  29.559   4.837
50965W        W22691   0.816  10.390  11.624
50966W        W22692  36.859  41.955  13.068
50967W        W22693  27.717  28.115  14.400
50968W        W22694  26.349  12.296  12.570
50969W        W22695  24.713  32.970  13.312
50970W        W22696  39.371  44.272  12.924
50971W        W22697  19.228  20.011   3.159
50972W        W22698   2.988  34.285   4.085
50973W        W22699  10.642  12.388  14.943
50974W        W22700  33.267   9.577   2.384
50975W        W22701   9.874  40.775  14.014
50976W        W22702   5.584   6.823  11.855
50977W        W22703  26.838  42.872  13.587
50978W        W22704   2.647  21.149   2.235
50979W        W22705  26.198  37.781  11.962
50980W        W22706  30.756  31.492   1.455
50981W        W22707  11.659   2.219  14.943
50982W        W22708  44.767  30.659   3.731
50983W        W22709   0.069  25.923  14.564
50984W        W22710  21.023  42.937   4.157
50985W        W22711  29.504  35.378   4.786
50986W        W22712  17.872  22.842   1.173
50987W        W22713  44.435   9.115  10.481
50988W        W22714  22.993  25.925  10.571
50989W        W22715  17.078   9.143  12.946
50990W        W22716  38.099  29.659   1.016
50991W        W22717  23.448  43.738   0.883
50992W        W22718   0.254   6.676   1.310
50993W        W22719  22.637  41.466  11.779
50994W        W22720   0.483  11.689   0.739
50995W        W22721   3.682   7.250  13.788
50996W        W22722  14.790  15.051  12.022
50997W        W22723   1.652  42.025  12.569
50998W        W22724  25.130  26.436  11.546
50999W        W22725   1.213  31.452   1.825
51000W        W22726  26.213  35.007   0.426
51001W        W22727   7.332  39.869   0.972
51002W        W22728   4.495  16.037  14.479
51003W        W22729  17.760  14.033  11.673
51004W        W22730  13.953   0.968  11.074
51005W        W22731  10.168  38.228  11.713
51006W        W22732  20.585  12.421  11.624
51007W        W22733  10.672   0.472  11.629
51008W        W22734  27.958   0.698  10.454
51009W        W22735  38.363  30.364  10.799
51010W        W22736   2.991  22.675   0.213
51011W        W22737  31.456  36.452  12.811
51012W        W22738  41.402  33.208   1.812
51013W        W22739  42.979   3.384  11.196
51014W        W22740   5.003   3.934   4.940
51015W        W22741  24.601  22.962  11.671
51016W        W22742   7.737  36.615  11.039
51017W        W22743   8.949  40.389  11.555
51018W        W22744  35.503  25.950   1.853
51019W        W22745  15.544  28.500  11.683
51020W        W22746  38.602  29.772   1.013
51021W        W22747  18.884   0.058  13.097
51022W        W22748  38.674  37.889  13.127
51023W        W22749   3.732  29.785   0.736
51024W        W22750  13.065  12.921   2.556
51025W        W22751  11.316  32.844   2.757
51026W        W22752  20.122   4.870  12.992
51027W        W22753   5.510   6.227  12.433
51028W        W22754  28.611   2.516   4.233
51029W        W22755  32.732  28.093  12.851
51030W        W22756  42.005  10.866   4.170
51031W        W22757   2.476  24.386  12.003
51032W        W22758  14.280   4.211   4.207
51033W        W22759  32.371  12.450   1.843
51034W        W22760   3.773  20.116   1.364
51035W        W22761  18.504  36.911   1.880
51036W        W22762  35.203   8.792  10.989
51037W        W22763  11.674  42.263  11.081
51038W        W22764  29.502  34.570  11.583
51039W        W22765  11.638   5.826  11.246
51040W        W22766  44.483   5.090   1.276
51041W        W22767  40.265   2.165   2.333
51042W        W22768   4.935  39.113   4.296
51043W        W22769  32.736  12.504  12.930
51044W        W22770  18.748  38.101  11.355
51045W        W22771  24.150  38.545   3.679
51046W        W22772   8.411   0.844   4.343
51047W        W22773  26.559  21.199   3.195
51048W        W22774  14.400  11.295  12.486
51049W        W22775  19.637  25.043   0.881
51050W        W22776  26.999  19.426   0.999
51051W        W22777   3.924   0.371   2.615
51052W        W22778  39.471  24.189  11.423
51053W        W22779  38.737  30.269  11.685
51054W        W22780  36.715  31.052  11.929
51055W        W22781   0.192   1.261   3.852
51056W        W22782  37.087  14.284   2.735
51057W        W22783  17.653   3.912   1.519
51058W        W22784  44.448  16.599   1.327
51059W        W22785  22.217  37.087   1.849
51060W        W22786  20.593  19.533   3.649
51061W        W22787  30.625  26.697   4.631
51062W        W22788  19.039  21.581  14.986
51063W        W22789   8.019  10.676  12.755
51064W        W22790  25.948  28.908  13.868
51065W        W22791   7.015  23.171   4.433
51066W        W22792  34.570  16.224   2.753
51067W        W22793  19.596  13.322   3.145
51068W        W22794  23.259  31.097  10.555
51069W        W22795   9.612  14.342   2.702
51070W        W22796   3.796  26.886   4.665
51071W        W22797   0.594  31.600  14.047
51072W        W22798  36.873  39.071  12.985
51073W        W22799  27.059   7.780   3.109
51074W        W22800  34.553  38.852  14.357
51075W        W22801  32.891  16.374  13.435
51076W        W22802  22.514  39.798   0.395
51077W        W22803  14.799  19.579   3.707
51078W        W22804   7.762  27.559  13.582
51079W        W22805  25.817  43.935  10.275
51080W        W22806  35.521  31.954  11.587
51081W        W22807  33.678   6.962   0.797
51082W        W22808   1.237  34.548  13.299
51083W        W22809  35.236  14.108  12.545
51084W        W22810  40.225  13.432  12.070
51085W        W22811  22.687  34.687   3.049
51086W        W22812  24.366  23.282  11.319
51087W        W22813  13.975   4.842   4.919
51088W        W22814  12.600  14.243   1.242
51089W        W22815   4.871  29.176   4.601
51090W        W22816  28.663   0.430  11.492
51091W        W22817  11.399  41.048   0.600
51092W        W22818   1.693   8.820   2.736
51093W        W22819  29.528  11.360   2.778
51094W        W22820  26.633  23.027   4.635
51095W        W22821   9.349  40.905  13.959
51096W        W22822  41.607  40.432   1.663
51097W        W22823   3.964  38.934   4.613
51098W        W22824  41.287   4.371   0.804
51099W        W22825  16.114   5.239  14.536
51100W        W22826  17.070   3.729  12.105
51101W        W22827  40.860  44.913   2.262
51102W        W22828   1.395   9.885   4.699
51103W        W22829  38.524  26.652  14.768
51104W        W22830  28.212  15.694   0.876
51105W        W22831  10.528  29.372  10.351
51106W        W22832  27.088   2.381  11.383
51107W        W22833  22.028  11.155  14.636
51108W        W22834   5.329   7.859   0.532
51109W        W22835  16.070   3.465   3.746
51110W        W22836  30.954  26.139   1.610
51111W        W22837   4.871   7.872  14.477
51112W        W22838  23.463  29.871   0.923
51113W        W22839  25.965  29.496  11.664
51114W        W22840  39.986  22.056  14.923
51115W        W22841  27.139  44.569   0.543
51116W        W22842  32.151  15.604  13.458
51117W        W22843  14.117  18.318   3.484
51118W        W22844  19.830  28.513  11.429
51119W        W22845  29.026  14.865  14.378
51120W        W22846  22.821  26.188   3.826
51121W        W22847   0.487  29.615   3.909
51122W        W22848  13.292  25.330   2.809
51123W        W22849  16.194   3.879   0.301
51124W        W22850   1.780  32.852   0.437
51125W        W22851  16.487  44.477   4.234
51126W        W22852  21.561  40.097   3.569
51127W        W22853  19.565  13.637   1.726
51128W        W22854   1.413  28.002  12.886
51129W        W22855   4.276  34.348   3.753
51130W        W22856  16.782  16.280  10.921
51131W        W22857  10.041  35.116   1.880
51132W        W22858  24.765   5.707   0.417
51133W        W22859  28.533  34.758   4.900
51134W        W22860  42.112  33.499  13.020
51135W        W22861  14.333   1.414   2.742
51136W        W22862   7.745  16.260  11.405
51137W        W22863  27.132  33.084   0.389
51138W        W22864  40.438   3.477   1.708
51139W        W22865  42.486  32.503   3.236
51140W        W22866  44.959  15.172  11.532
51141W        W22867  34.274   7.800  12.655
51142W        W22868   5.529   5.792  10.091
51143W        W22869  10.449  37.220   5.054
51144W        W22870  13.968  20.603   0.796
51145W        W22871   4.594  31.495  12.615
51146W        W22872  25.553  34.630  14.813
51147W        W22873  19.962  36.056   4.550
51148W        W22874   5.771  28.085   4.632
51149W        W22875  17.276  39.835   4.137
51150W        W22876  32.892  17.984  13.942
51151W        W22877  13.659   7.474  13.895
51152W        W22878  31.781  12.960  12.130
51153W        W22879  41.078  28.270  12.586
51154W        W22880   9.718  25.101  14.334
51155W        W22881  29.667  17.175  14.771
51156W        W22882  23.359  28.955  12.559
51157W        W22883  35.029  37.919  13.847
51158W        W22884   0.817  40.590   2.218
51159W        W22885  11.826  22.672  10.703
51160W        W22886  29.643  30.838   2.227
51161W        W22887   3.863  27.653  13.431
51162W        W22888  31.714   1.091   5.043
51163W        W22889  43.809  27.885   0.639
51164W        W22890   9.836  34.559   1.294
51165W        W22891  37.839  17.163   1.233
51166W        W22892  43.576  35.481   4.408
51167W        W22893  22.422  37.260   0.135
51168W        W22894   4.539  33.926  13.795
51169W        W22895  33.453  36.598  13.401
51170W        W22896  38.099   5.850   3.937
51171W        W22897  44.966  36.451  14.935
51172W        W22898  23.275   2.976  13.846
51173W        W22899  41.348  26.131  14.886
51174W        W22900  17.620   6.481  14.478
51175W        W22901   9.647   7.835  13.886
51176W        W22902   7.733  32.180  13.105
51177W        W22903   0.921  32.023  13.443
51178W        W22904  36.633  43.170   1.778
51179W        W22905   9.353  15.795   0.293
51180W        W22906  28.155  39.925   5.009
51181W        W22907   7.132  33.965   1.521
51182W        W22908  28.065  27.494   5.207
51183W        W22909  21.020   0.850   0.095
51184W        W22910  26.475  17.818  14.889
51185W        W22911  10.918  44.021  10.799
51186W        W22912  29.063  16.484   4.066
51187W        W22913  34.455  41.097   2.758
51188W        W22914  29.503  13.176   2.678
51189W        W22915   8.737   8.296  14.002
51190W        W22916  27.407  16.163   3.666
51191W        W22917  31.825  26.585   2.177
51192W        W22918  10.218  43.989   2.243
51193W        W22919  26.380  21.471   4.173
51194W        W22920  35.033  24.557  14.533
51195W        W22921  18.170  11.670   1.416
51196W        W22922  14.118  38.314  12.405
51197W        W22923  14.577  40.026   4.143
51198W        W22924  44.851  30.220   1.136
51199W        W22925  11.843   1.532  10.976
51200W        W22926   5.727   4.075   1.989
51201W        W22927  15.717   0.547  13.470
51202W        W22928   2.776   2.882   2.275
51203W        W22929   6.824  18.254  14.002
51204W        W22930  10.795  32.618  12.605
51205W        W22931  20.774  34.537  10.553
51206W        W22932  37.125  34.938  13.451
51207W        W22933  24.378   4.257  11.954
51208W        W22934  11.713  37.955  14.357
51209W        W22935  41.702  15.144  13.534
51210W        W22936  34.730  11.879   2.156
51211W        W22937  41.978  30.913  11.014
51212W        W22938  32.962  31.359   1.826
51213W        W22939   7.306  28.588   1.314
51214W        W22940   1.337  28.877  12.725
51215W        W22941   2.955  43.587   1.329
51216W        W22942  38.260  13.992  11.919
51217W        W22943  10.763  19.170   2.958
51218W        W22944  44.382  14.889   0.456
51219W        W22945  35.488   3.405  13.897
51220W        W22946  38.409   0.755  14.337
51221W        W22947  11.894  17.425  11.968
51222W        W22948  22.084  20.087  12.521
51223W        W22949   5.503   4.015  11.214
51224W        W22950  17.680  25.809   3.291
51225W        W22951   5.187  20.777  11.563
51226W        W22952  17.789  22.097   0.712
51227W        W22953  22.234  28.598   3.724
51228W        W22954  36.585  22.967  14.250
51229W        W22955   2.634   1.455  11.333
51230W        W22956  10.364  12.845  14.906
51231W        W22957  43.319   3.578   0.578
51232W        W22958  27.106  11.819   0.442
51233W        W22959  32.889  22.667   3.238
51234W        W22960  34.508   2.840  13.926
51235W        W22961  30.945  20.848  10.341
51236W        W22962   2.938  19.809   1.959
51237W        W22963  22.295  35.099  13.839
51238W        W22964   1.879   6.688   4.067
51239W        W22965  12.289   8.668  10.843
51240W        W22966  18.048  17.163  11.406
51241W        W22967   2.730  34.259  13.960
51242W        W22968  16.726  29.097   4.763
51243W        W22969   6.667  23.005   4.071
51244W        W22970  42.738  31.830   2.210
51245W        W22971  41.248   2.908  12.931
51246W        W22972  24.543  16.618  10.571
51247W        W22973  25.137  42.567   0.014
51248W        W22974  32.086  17.384   3.649
51249W        W22975  43.066  15.988   4.313
51250W        W22976  40.095  32.084  11.874
51251W        W22977  22.615  20.286   1.818
51252W        W22978   3.852  44.840   4.121
51253W        W22979  13.524   2.221  11.997
51254W        W22980  41.007   2.418   0.682
51255W        W22981  24.205  12.123   3.308
51256W        W22982   3.172   2.746  11.662
51257W        W22983  44.366  13.717   1.265
51258W        W22984  23.985  30.698  11.462
51259W        W22985  42.607  27.080  11.159
51260W        W22986  41.959   7.749  11.135
51261W        W22987  23.002  39.722   4.158
51262W        W22988  10.743  14.441  11.284
51263W        W22989  34.327  37.152  10.670
51264W        W22990  18.632  17.185   4.145
51265W        W22991   7.327  29.628   2.158
51266W        W22992  34.949  16.052   1.221
51267W        W22993  26.923   7.983  11.112
51268W        W22994  41.252   4.184   2.637
51269W        W22995  29.833  29.566  13.801
51270W        W22996  23.634   9.746  11.479
51271W        W22997  44.694  37.419   4.590
51272W        W22998  18.807   4.522   1.448
51273W        W22999  27.424   0.883  14.357
51274W        W23000  17.107  27.918   3.231
51275W        W23001   2.276  22.548   0.717
51276W        W23002  23.349  10.183  14.872
51277W        W23003  44.840   3.365  11.238
51278W        W23004  31.361  14.542  12.000
51279W        W23005  17.555  24.025   1.820
51280W        W23006  32.989  28.192   3.761
51281W        W23007   0.396  28.192   4.322
51282W        W23008   5.818  11.750   4.630
51283W        W23009  29.693  25.559  10.670
51284W        W23010   9.697  33.420   3.715
51285W        W23011  44.667  30.151  14.418
51286W        W23012  35.732  34.199  12.850
51287W        W23013   8.213   8.719  11.015
51288W        W23014  12.855  41.413  11.841
51289W        W23015  41.517  38.679  14.490
51290W        W23016   0.844   8.650   0.458
51291W        W23017  12.873  36.175   2.724
51292W        W23018  27.578  13.126  11.227
51293W        W23019  22.927  25.718  11.034
51294W        W23020  20.108  35.480   1.912
51295W        W23021  43.000  41.136  14.474
51296W        W23022  11.225  12.261  14.172
51297W        W23023  26.751  18.233  11.592
51298W        W23024  28.479  38.562  11.235
51299W        W23025  41.806  22.231   2.457
51300W        W23026  21.199  25.014  14.932
51301W        W23027   4.905  24.599  10.409
51302W        W23028  12.575  33.198  12.591
51303W        W23029  13.009  16.730  13.117
51304W        W23030   5.392  28.211  12.017
51305W        W23031   1.448  36.423   1.699
51306W        W23032  33.526  43.172  14.291
51307W        W23033  16.270  32.008  12.660
51308W        W23034  36.969  20.074  13.841
51309W        W23035  39.441  11.160  13.086
51310W        W23036  39.394  30.414  13.338
51311W        W23037  35.912  18.504   4.213
51312W        W23038  35.605  29.410  12.503
51313W        W23039  36.500  31.367  11.077
51314W        W23040  43.830  37.119   4.785
51315W        W23041  25.373  25.964  11.370
51316W        W23042  31.373   3.291  14.047
51317W        W23043   0.898  21.973  14.459
51318W        W23044  18.649  28.093   1.363
51319W        W23045  16.635  21.193  13.463
51320W        W23046  27.100  25.033   0.020
51321W        W23047  27.954   1.830   1.322
51322W        W23048  15.984  11.093   1.941
51323W        W23049  41.051   8.015   4.546
51324W        W23050  14.881  15.062   3.238
51325W        W23051  39.649   1.760  14.442
51326W        W23052  30.486  21.989  11.120
51327W        W23053  42.981  16.310  10.504
51328W        W23054  22.301  27.652  13.745
51329W        W23055  13.714  38.362   3.550
51330W        W23056  30.882  38.940  12.881
51331W        W23057  31.149   8.831   2.125
51332W        W23058  16.571   2.797   1.292
51333W        W23059  26.770  31.097  12.060
51334W        W23060  34.294  20.249  13.882
51335W        W23061  31.026  11.835  11.012
51336W        W23062  18.463  19.713  12.102
51337W        W23063  28.711  10.710  14.857
51338W        W23064  42.782  36.539  12.134
51339W        W23065  27.436  34.776  13.167
51340W        W23066   9.803  20.517   4.240
51341W        W23067  33.834  25.147   2.337
51342W        W23068  26.016  18.568  13.942
51343W        W23069   3.905  44.496  11.999
51344W        W23070  38.679  13.313   2.428
51345W        W23071  25.258  11.213  11.423
51346W        W23072  12.240   9.633  12.091
51347W        W23073   9.224   6.240  10.703
51348W        W23074   0.317  36.865  12.331
51349W        W23075   2.724  15.876  12.035
51350W        W23076   5.893  41.748   1.290
51351W        W23077  10.709  26.121  11.013
51352W        W23078  23.497  20.954   2.454
51353W        W23079  13.663  36.425   0.327
51354W        W23080  39.769  29.861  12.496
51355W        W23081   9.425  30.104   2.129
51356W        W23082  26.954  29.135   3.865
51357W        W23083  23.522   2.265   3.383
51358W        W23084  44.958  32.028  10.710
51359W        W23085  17.686   9.705  10.703
51360W        W23086  27.704  29.400  13.267
51361W        W23087   1.747  24.083  11.647
51362W        W23088  13.222   6.658   4.193
51363W        W23089  23.729  37.886   0.606
51364W        W23090   1.304  34.356   0.564
51365W        W23091  38.393  44.474  13.097
51366W        W23092  40.215  34.301  10.461
51367W        W23093  22.633  31.499  10.778
51368W        W23094  31.400   6.619  14.695
51369W        W23095  26.329  43.134   3.648
51370W        W23096   2.718  35.011   3.264
51371W        W23097  12.622  27.953   2.903
51372W        W23098  29.537  11.767  12.029
51373W        W23099  13.860   6.845   1.206
51374W        W23100   7.374  42.301   3.280
51375W        W23101  37.560  32.207  11.740
51376W        W23102   0.911  18.588   0.241
51377W        W23103  21.751  36.498  14.046
51378W        W23104  29.882  25.158   1.143
51379W        W23105  24.503  39.287  14.851
51380W        W23106  35.481  13.700   3.821
51381W        W23107  32.454  20.753   3.948
51382W        W23108  18.337  27.571   3.691
51383W        W23109  44.303  12.580  10.743
51384W        W23110   0.794   2.224  14.863
51385W        W23111  19.269   8.346   4.825
51386W        W23112  15.763  16.326   4.192
51387W        W23113  43.710  11.725   1.154
51388W        W23114   0.790  15.675  12.064
51389W        W23115  40.306  25.590  14.155
51390W        W23116  10.331  19.213  12.666
51391W        W23117  39.854  29.748   4.744
51392W        W23118  38.953  36.615  12.346
51393W        W23119   4.658  40.317   4.008
51394W        W23120  32.868  22.944   3.681
51395W        W23121  25.421   0.471   3.316
51396W        W23122  16.345  31.051  12.913
51397W        W23123  11.768   4.848  14.076
51398W        W23124  28.522  24.570   1.406
51399W        W23125  39.577   9.461  14.305
51400W        W23126  44.917  19.738   0.981
51401W        W23127  33.108   0.279  11.885
51402W        W23128  22.427  26.978   4.580
51403W        W23129  32.288  44.933   9.603
51404W        W23130   9.406   5.628  12.522
51405W        W23131   3.841  16.644   1.064
51406W        W23132  14.335  36.321   2.385
51407W        W23133  34.443   4.086   2.709
51408W        W23134  22.186  19.815  14.021
51409W        W23135  37.103  33.355   2.343
51410W        W23136  22.744  14.536   2.751
51411W        W23137  39.553  34.897  11.172
51412W        W23138   6.659   1.668  13.983
51413W        W23139  32.483  12.951   1.794
51414W        W23140  13.762  40.815  12.820
51415W        W23141   6.222  22.153   3.105
51416W        W23142   8.726  25.461  12.090
51417W        W23143  11.506  11.767  12.004
51418W        W23144   7.666  34.080   4.211
51419W        W23145  44.471  18.928   0.391
51420W        W23146  14.321  14.116  13.316
51421W        W23147  16.762  15.609   0.355
51422W        W23148   4.278  25.031   0.005
51423W        W23149  27.236   5.891  14.884
51424W        W23150  17.207  30.623  14.695
51425W        W23151  26.122  34.948   4.327
51426W        W23152  22.672  32.421   1.816
51427W        W23153  11.187  13.179  14.033
51428W        W23154  17.400  27.661  14.258
51429W        W23155  32.119   4.813   1.242
51430W        W23156  37.972  20.897   0.268
51431W        W23157  17.951  41.966   3.718
51432W        W23158  44.800  25.609  14.256
51433W        W23159   8.881  29.604   4.164
51434W        W23160   1.747  30.338   2.750
51435W        W23161  20.009  34.552  13.684
51436W        W23162  29.497  21.503   2.635
51437W        W23163  24.469  38.441  10.702
51438W        W23164  28.427  44.636  13.302
51439W        W23165  29.554  41.527  13.894
51440W        W23166  15.307  12.658   2.197
51441W        W23167  31.976  36.638   0.320
51442W        W23168  44.765   8.162  14.722
51443W        W23169   7.192  12.421  12.032
51444W        W23170  28.593  13.502   2.832
51445W        W23171  25.935   5.017   0.915
51446W        W23172   6.774  25.043   2.015
51447W        W23173  39.364   5.248   1.999
51448W        W23174   3.201  16.019  11.902
51449W        W23175  11.968  38.939  12.156
51450W        W23176  12.711  27.022  14.416
51451W        W23177  24.192  32.429  12.328
51452W        W23178  17.952  10.647   1.271
51453W        W23179  33.840  30.977  13.801
51454W        W23180  24.688  22.454  11.571
51455W        W23181  44.834  41.244  11.146
51456W        W23182  39.118   0.168  13.308
51457W        W23183  32.417  43.824  14.459
51458W        W23184  13.660  36.513   2.320
51459W        W23185   9.221  41.835  11.528
51460W        W23186  27.017   0.724   1.946
51461W        W23187  23.044  15.807   0.923
51462W        W23188  18.046  19.569   0.851
51463W        W23189  24.350   0.052   5.341
51464W        W23190   8.317  24.658   1.277
51465W        W23191  20.416  25.622   5.350
51466W        W23192  14.640   9.150  11.969
51467W        W23193  27.174   6.730   1.424
51468W        W23194  30.416  34.459   2.874
51469W        W23195  10.638  40.920  11.142
51470W        W23196   4.716   1.294  12.008
51471W        W23197  10.544  14.912  11.320
51472W        W23198  34.094  29.045  12.056
51473W        W23199  28.578   6.105  13.614
51474W        W23200  37.317  42.350  12.319
51475W        W23201  15.806  23.772  10.632
51476W        W23202  27.442   8.605   0.388
51477W        W23203  41.354   7.771   3.215
51478W        W23204   7.915   5.129  12.520
51479W        W23205  22.328  18.221   0.193
51480W        W23206  33.427  31.577  12.638
51481W        W23207  31.016   9.092  11.902
51482W        W23208  39.466   9.026   1.469
51483W        W23209  34.378  24.708   0.287
51484W        W23210  22.990  25.870   3.186
51485W        W23211  32.808  41.737  12.897
51486W        W23212  11.303  31.398   1.998
51487W        W23213  40.813   8.148   1.380
51488W        W23214  20.097  44.711  10.490
51489W        W23215  23.304  38.835  13.484
51490W        W23216  14.203   2.757  12.485
51491W        W23217  15.070   4.546   1.274
51492W        W23218  30.895  17.309  12.387
51493W        W23219  32.017  35.816   2.257
51494W        W23220  36.492  41.934  12.709
51495W        W23221  26.244  17.563  12.084
51496W        W23222  41.499  31.814   0.853
51497W        W23223  15.213  26.041   4.625
51498W        W23224   2.490  14.852   4.269
51499W        W23225   3.802  23.702   0.170
51500W        W23226  10.709  27.535   3.141
51501W        W23227  23.018   9.224   4.653
51502W        W23228  18.804  33.556   1.172
51503W        W23229  33.655  15.264  13.866
51504W        W23230  38.693   4.122   2.361
51505W        W23231  17.810  31.118  14.244
51506W        W23232  29.744  23.206   1.331
51507W        W23233  12.154  30.959   3.611
51508W        W23234  13.165  34.354   2.090
51509W        W23235  13.165  31.535   3.367
51510W        W23236  42.986  23.231   3.156
51511W        W23237   2.955   6.861   4.702
51512W        W23238  21.753  25.198   4.713
51513W        W23239  40.817  24.748  13.061
51514W        W23240   3.953  32.572  11.889
51515W        W23241  44.753  21.574   2.723
51516W        W23242  10.463  30.992  12.466
51517W        W23243  39.978  31.138   3.803
51518W        W23244  16.690  23.032  10.647
51519W        W23245  15.399  33.483   0.373
51520W        W23246  42.563  30.672  14.310
51521W        W23247  31.931  21.270   2.387
51522W        W23248  34.339   7.229  12.030
51523W        W23249  16.605   5.386  12.026
51524W        W23250  31.832  37.945  14.370
51525W        W23251  40.023  31.965  14.968
51526W        W23252   9.419  35.339  12.044
51527W        W23253   4.408  19.829   1.911
51528W        W23254  21.024   9.524  10.017
51529W        W23255  37.965  44.924  14.779
51530W        W23256  24.094  18.669  12.136
51531W        W23257   3.411  33.802   2.836
51532W        W23258  29.073  43.706   4.689
51533W        W23259  20.208  35.906  10.721
51534W        W23260  35.676   7.355  10.643
51535W        W23261  11.182  39.032   0.946
51536W        W23262  17.747   3.684  12.529
51537W        W23263  16.706  41.029  14.162
51538W        W23264  44.503  16.699   1.849
51539W        W23265  21.834  12.971  10.245
51540W        W23266  39.393  18.484   2.716
51541W        W23267  23.452   2.919   2.932
51542W        W23268  33.599  16.483  12.101
51543W        W23269  18.680  10.168   0.746
51544W        W23270   4.484  33.069   0.525
51545W        W23271  16.333  15.374   1.375
51546W        W23272  31.036   5.638   0.696
51547W        W23273  39.123  38.577  12.460
51548W        W23274  29.630  41.581  13.339
51549W        W23275   0.572  24.567  13.941
51550W        W23276  16.249  16.004  13.799
51551W        W23277   9.637  27.453  12.074
51552W        W23278  16.518  15.108  12.612
51553W        W23279   7.915  40.338   3.654
51554W        W23280  28.930  33.395   1.311
51555W        W23281  20.725  14.599   3.708
51556W        W23282   9.947   7.790   4.238
51557W        W23283  10.077  14.666   3.303
51558W        W23284  14.570   3.954   2.443
51559W        W23285  42.938  39.727  14.975
51560W        W23286   1.247  43.224  10.708
51561W        W23287  29.429  38.985  12.389
51562W        W23288  27.257  24.109   1.311
51563W        W23289  20.900  24.689   1.943
51564W        W23290   8.100  42.499  12.987
51565W        W23291  44.535  42.898  13.944
51566W        W23292  30.997  16.097  11.428
51567W        W23293  14.368  38.981  10.347
51568W        W23294  42.345  27.228   2.591
51569W        W23295  38.560   6.700  10.620
51570W        W23296  27.962  34.041  14.385
51571W        W23297  42.457  28.995   3.228
51572W        W23298   1.875  15.138  14.201
51573W        W23299  28.233  39.225  10.661
51574W        W23300  20.762  16.480   0.502
51575W        W23301  28.426  41.963   2.101
51576W        W23302  41.352  32.614   1.402
51577W        W23303  12.441  28.520  12.415
51578W        W23304  36.816  12.217  13.345
51579W        W23305  14.825  11.670  13.922
51580W        W23306  21.617  34.065  12.025
51581W        W23307   6.141  24.699  13.767
51582W        W23308  27.125  41.910   3.592
51583W        W23309  41.958  40.599   1.228
51584W        W23310  12.559  19.956   0.495
51585W        W23311   2.323   0.870  10.630
51586W        W23312  13.148  17.308   3.769
51587W        W23313  40.675  25.068   1.316
51588W        W23314  34.591  25.161  10.646
51589W        W23315  13.886   3.486  13.418
51590W        W23316  40.672  41.814  13.870
51591W        W23317  40.837   3.913   2.841
51592W        W23318  27.653  27.388   2.468
51593W        W23319  38.293  36.992   4.679
51594W        W23320  21.945  42.857  10.750
51595W        W23321   6.825  31.978   2.277
51596W        W23322  14.505  32.596   1.231
51597W        W23323   7.851  13.679  10.668
51598W        W23324  27.563  29.166  12.418
51599W        W23325   9.179  33.192  11.123
51600W        W23326  33.569  15.043  14.552
51601W        W23327  22.796  16.569  10.523
51602W        W23328   8.710  24.243   0.542
51603W        W23329  15.290  43.578   1.904
51604W        W23330  20.966   5.899   1.682
51605W        W23331  32.481  40.801  13.375
51606W        W23332  24.074  35.925   0.492
51607W        W23333  23.897  21.056   1.477
51608W        W23334  34.923  38.109   2.301
51609W        W23335  27.431  10.631  13.319
51610W        W23336  26.083   9.883   4.277
51611W        W23337  35.981  15.521  13.327
51612W        W23338   3.553  27.115  14.265
51613W        W23339  10.638  13.694   3.261
51614W        W23340  17.699   2.265   4.529
51615W        W23341  40.804  33.603   0.805
51616W        W23342  40.563   2.359  12.855
51617W        W23343  21.496  28.685  12.389
51618W        W23344   7.242  35.423   0.013
51619W        W23345  35.272  39.335   1.992
51620W        W23346  15.981  23.571  10.044
51621W        W23347  31.174  10.699  12.043
51622W        W23348  32.227  26.492   1.234
51623W        W23349  13.159  12.340   1.712
51624W        W23350   8.446  33.558   4.075
51625W        W23351  16.480  18.000  14.085
51626W        W23352  25.608  28.886   4.381
51627W        W23353   6.681   8.889  12.549
51628W        W23354  24.139  38.868  12.313
51629W        W23355  30.874  35.507  11.551
51630W        W23356  12.701  11.336   0.400
51631W        W23357  28.394  21.154   1.960
51632W        W23358  16.541  40.421   0.804
51633W        W23359  28.385  14.374   4.215
51634W        W23360  15.374  12.035   3.671
51635W        W23361  13.318  37.438  10.461
51636W        W23362  18.590  25.948  11.141
51637W        W23363  37.791  22.548  14.582
51638W        W23364  14.116   8.427  10.752
51639W        W23365  35.492  43.989   3.028
51640W        W23366  23.392  30.145   3.278
51641W        W23367  38.896   3.667   4.943
51642W        W23368  21.226  39.465  13.476
51643W        W23369  13.317  37.173  14.814
51644W        W23370   0.764   3.480  13.464
51645W        W23371  10.740  11.309   1.966
51646W        W23372  20.142  19.332   3.816
51647W        W23373  11.371   1.489  12.029
51648W        W23374   3.737  17.527  11.535
51649W        W23375  34.962  27.412  11.011
51650W        W23376   5.912  12.239   4.412
51651W        W23377  10.224  39.273   1.259
51652W        W23378  19.071  21.623  14.463
51653W        W23379  26.188   9.287  10.884
51654W        W23380  14.325   7.443  13.000
51655W        W23381  31.416  35.088  12.692
51656W        W23382   8.717  10.345  13.226
51657W        W23383  19.935  37.568  11.023
51658W        W23384   5.815  40.780   0.149
51659W        W23385  30.260   9.150  12.939
51660W        W23386  25.151  15.616   5.063
51661W        W23387  43.696   6.580   0.739
51662W        W23388  16.774  26.639   0.192
51663W        W23389  28.001   3.407   2.371
51664W        W23390  33.570   6.199   5.063
51665W        W23391  38.350  40.780   0.818
51666W        W23392  26.939  43.224  11.585
51667W        W23393  27.311  37.971   4.791
51668W        W23394  27.960  27.062  12.135
51669W        W23395  20.881  12.798  10.135
51670W        W23396  43.607  11.396  10.439
51671W        W23397  33.922  29.932   4.909
51672W        W23398  20.169  21.254  11.627
51673W        W23399  31.338  38.324  11.272
51674W        W23400  15.693  43.041  14.810
51675W        W23401  13.228   6.655   0.399
51676W        W23402  24.557  21.778   1.222
51677W        W23403  44.929  37.540   1.202
51678W        W23404  11.252  34.894   3.651
51679W        W23405  43.962   0.699  12.008
51680W        W23406  33.424  24.003  13.843
51681W        W23407  40.077  13.637  13.117
51682W        W23408  32.631  37.880  14.898
51683W        W23409  32.230  21.752   1.202
51684W        W23410  15.882   1.884  11.965
51685W        W23411   4.541  21.087   4.947
51686W        W23412  18.648  29.150   3.186
51687W        W23413  13.600  11.892   0.448
51688W        W23414  11.640  25.631  13.828
51689W        W23415  18.053   9.024  12.069
51690W        W23416  38.251  15.309   3.333
51691W        W23417  14.383  27.543  13.960
51692W        W23418  22.064  10.215  13.976
51693W        W23419   3.270   4.971   1.803
51694W        W23420   5.786  21.651   0.951
51695W        W23421  23.481  44.430  12.981
51696W        W23422  10.957   0.078   2.231
51697W        W23423   0.123  19.083   3.085
51698W        W23424  28.489   0.976   5.082
51699W        W23425  27.961  30.989   2.788
51700W        W23426  34.870  42.836  14.980
51701W        W23427  31.593  32.385  12.569
51702W        W23428  27.079  25.585  11.903
51703W        W23429  15.116  21.024   1.986
51704W        W23430   1.233  11.693  14.835
51705W        W23431  25.152  24.731  12.467
51706W        W23432  27.129  23.547  10.684
51707W        W23433  37.852  20.348   4.282
51708W        W23434  44.852  34.507   1.728
51709W        W23435  14.774  38.875   3.400
51710W        W23436  44.455  43.931  12.915
51711W        W23437  34.877  14.264  12.930
51712W        W23438  12.668  43.490  14.943
51713W        W23439  17.607  13.124  11.579
51714W        W23440  13.746   4.747  12.754
51715W        W23441  22.605  14.335  10.777
51716W        W23442  24.089  44.939   0.219
51717W        W23443  20.190   4.691  11.610
51718W        W23444  39.768  19.789   1.390
51719W        W23445   9.675  33.931   0.476
51720W        W23446  39.492  11.697   0.955
51721W        W23447  35.063  22.700   3.724
51722W        W23448   7.384  29.281   3.221
51723W        W23449   3.285   6.350  14.686
51724W        W23450  22.332  21.081   1.227
51725W        W23451  43.955  26.920   0.927
51726W        W23452  18.206  44.429   1.240
51727W        W23453   5.380   2.261   4.559
51728W        W23454  30.834  42.343   4.957
51729W        W23455  20.767  18.410  11.688
51730W        W23456  11.226  19.630   4.393
51731W        W23457  35.124  34.139   3.828
51732W        W23458  12.998  13.679   4.034
51733W        W23459  21.586  14.072   3.380
51734W        W23460   6.316  42.257   0.928
51735W        W23461  22.552  41.537  14.974
51736W        W23462   0.622  19.778   2.691
51737W        W23463  39.064  40.294   2.294
51738W        W23464  22.074  15.051   4.064
51739W        W23465  37.940   5.742   4.442
51740W        W23466   2.032   5.339  11.025
51741W        W23467   1.122   4.576  13.219
51742W        W23468  42.471  22.995  12.448
51743W        W23469  11.332  35.591   3.302
51744W        W23470  16.009  26.170  12.432
51745W        W23471  39.438  40.967   1.228
51746W        W23472  24.019   2.722   3.751
51747W        W23473  42.752  15.092   3.158
51748W        W23474   4.342  14.376   1.655
51749W        W23475  42.255  22.532  12.394
51750W        W23476  34.681  43.101  11.534
51751W        W23477  35.560   2.638   4.685
51752W        W23478  18.675   7.430  10.848
51753W        W23479  38.534   8.598   3.679
51754W        W23480  40.427  37.277  13.182
51755W        W23481  44.442  38.163   1.847
51756W        W23482  44.415  17.652   1.734
51757W        W23483  38.018   5.370  11.905
51758W        W23484  30.992  42.630   0.432
51759W        W23485  10.822   9.286  12.194
51760W        W23486  44.986  26.952  13.113
51761W        W23487  29.901   7.922   2.294
51762W        W23488  29.078  20.935   4.142
51763W        W23489  25.727  13.939  14.384
51764W        W23490  26.412   4.882   3.762
51765W        W23491  19.744  36.941  14.068
51766W        W23492  16.795  23.071   0.006
51767W        W23493   7.292  22.485  11.881
51768W        W23494  39.873   7.362   1.589
51769W        W23495   5.940  44.783  11.332
51770W        W23496   9.231  10.159  14.073
51771W        W23497  18.604  33.101   4.868
51772W        W23498   4.011  39.973   1.220
51773W        W23499  33.523  27.582  12.484
51774W        W23500  30.681  22.484  11.776
51775W        W23501  18.284  35.822  13.577
51776W        W23502  26.525  43.421  12.686
51777W        W23503  41.230  26.978   0.271
51778W        W23504  14.830  19.727   2.711
51779W        W23505  12.116   7.260  11.948
51780W        W23506  23.434  33.281  13.122
51781W        W23507  44.879  44.380  13.636
51782W        W23508  42.577  35.553   4.185
51783W        W23509   9.217  12.614  10.629
51784W        W23510   7.760   5.372  11.088
51785W        W23511  26.610  33.292  12.511
51786W        W23512   5.708  22.586   0.975
51787W        W23513   0.046  32.642   2.790
51788W        W23514  18.702   1.441  10.891
51789W        W23515  31.239  22.127   2.395
51790W        W23516  21.998  20.683  10.678
51791W        W23517  43.409  25.724   1.345
51792W        W23518  19.171  20.249  12.451
51793W        W23519   9.562   4.976  10.780
51794W        W23520  18.550  44.907   9.914
51795W        W23521  43.954  36.765   4.326
51796W        W23522  35.011  34.151  13.958
51797W        W23523  42.411  34.195   2.298
51798W        W23524  27.232  21.756  12.132
51799W        W23525  30.282  19.072  11.124
51800W        W23526  25.752  39.411   3.078
51801W        W23527  29.432  34.429  12.891
51802W        W23528  33.321  33.334  12.433
51803W        W23529  32.082  35.858  13.364
51804W        W23530  35.094  21.034   2.238
51805W        W23531  11.919   0.322  12.027
51806W        W23532  38.298  34.200   0.078
51807W        W23533  13.228  27.110   0.538
51808W        W23534  29.686  14.869   4.674
51809W        W23535  19.068  11.745   0.877
51810W        W23536  35.671  21.976  13.961
51811W        W23537  34.164   1.233   4.203
51812W        W23538  44.282  32.409  14.769
51813W        W23539  36.287  23.099   3.782
51814W        W23540  21.305   5.760  12.581
51815W        W23541  38.418  16.977  12.059
51816W        W23542  39.931  17.664   0.315
51817W        W23543  36.989   4.179  12.006
51818W        W23544  20.588   1.017  10.715
51819W        W23545  17.085  11.832  13.480
51820W        W23546  24.946  28.714  11.981
51821W        W23547  20.189  11.630   1.844
51822W        W23548  15.850  36.082  12.088
51823W        W23549  44.406  23.084   4.540
51824W        W23550   0.257  15.778   4.070
51825W        W23551   1.735  40.394   1.277
51826W        W23552  35.413  28.949   3.671
51827W        W23553  24.532  25.917  14.659
51828W        W23554  43.383  16.679   3.604
51829W        W23555  40.987  23.773  12.942
51830W        W23556  22.134   7.379  13.456
51831W        W23557  44.989  20.177  14.259
51832W        W23558  23.631  33.197  11.585
51833W        W23559  40.717  11.062  12.022
51834W        W23560  28.560  11.622   3.576
51835W        W23561  26.191  23.868   1.932
51836W        W23562  36.298  33.260   3.668
51837W        W23563  16.177  21.673  14.915
51838W        W23564  37.297  15.700   2.385
51839W        W23565   3.672   9.262  11.469
51840W        W23566  11.460  26.474  14.257
51841W        W23567  16.189  27.153  10.993
51842W        W23568  36.806  13.797  11.946
51843W        W23569  41.417  21.091  12.868
51844W        W23570  41.266  40.630   4.959
51845W        W23571  34.077  32.900  12.570
51846W        W23572  27.579  24.137   0.268
51847W        W23573  33.081  30.784  11.184
51848W        W23574  21.457  43.001  10.339
51849W        W23575  43.028   7.345   3.185
51850W        W23576  11.248  35.442   1.733
51851W        W23577  21.709  30.585   0.865
51852W        W23578  18.242  43.312   3.458
51853W        W23579  19.182  26.006  12.187
51854W        W23580  27.962   8.023   3.979
51855W        W23581  41.398   7.355  14.525
51856W        W23582  35.518  21.240   0.243
51857W        W23583   2.513  36.109   2.386
51858W        W23584  16.759  44.779   3.347
51859W        W23585  43.507  18.478   1.297
51860W        W23586  31.052  35.602  12.044
51861W        W23587  29.497   5.865   4.320
51862W        W23588  17.114  23.204   1.424
51863W        W23589  35.655   1.349  11.384
51864W        W23590  13.607  14.681   0.830
51865W        W23591  16.052  34.391   2.340
51866W        W23592  20.971  18.454  12.177
51867W        W23593  18.475  18.692   0.298
51868W        W23594  26.174  37.977  14.401
51869W        W23595  10.281  31.155  12.939
51870W        W23596  39.000  26.157  14.322
51871W        W23597  16.044  38.924  14.833
51872W        W23598  10.421  19.954  10.339
51873W        W23599  10.111  43.982  12.548
51874W        W23600   1.121  31.070   4.109
51875W        W23601  20.204  44.220  13.131
51876W        W23602   3.344  40.926   3.126
51877W        W23603   9.358   7.047   2.921
51878W        W23604  28.243   6.105  14.923
51879W        W23605  15.292  21.995  10.739
51880W        W23606  27.401  36.501   0.677
51881W        W23607  35.612  15.578   4.529
51882W        W23608   6.372  43.454  12.912
51883W        W23609  41.026  17.091  12.018
51884W        W23610  28.577  39.161   3.737
51885W        W23611  15.393  27.303  13.922
51886W        W23612  38.928  33.078   4.603
51887W        W23613  19.275  17.612   1.420
51888W        W23614  24.575  33.609  13.867
51889W        W23615  24.376  16.795  13.096
51890W        W23616  37.612  37.456   3.258
51891W        W23617  38.136  44.006  11.496
51892W        W23618  16.193   7.773   3.087
51893W        W23619  29.142  37.712   2.217
51894W        W23620   1.983  23.709   3.714
51895W        W23621  27.682  36.128   4.612
51896W        W23622  30.638  18.910   0.317
51897W        W23623  25.933  26.424   1.331
51898W        W23624  26.321  27.245  12.986
51899W        W23625  24.564  19.756  10.761
51900W        W23626  29.509   7.133   4.756
51901W        W23627  30.897  33.514  13.843
51902W        W23628  41.105  17.605  13.036
51903W        W23629  13.743  32.472   4.169
51904W        W23630   6.181   3.407  13.036
51905W        W23631  42.905   4.547   2.409
51906W        W23632  38.120  29.134   4.612
51907W        W23633  40.368   6.180   4.175
51908W        W23634   0.390  40.450  14.757
51909W        W23635   8.834  17.898  11.216
51910W        W23636  34.345  11.247   2.051
51911W        W23637  41.165  27.100  12.074
51912W        W23638  21.371  39.509  10.465
51913W        W23639  19.865  26.954   0.816
51914W        W23640  34.570  14.566  13.347
51915W        W23641  31.653  26.943   0.796
51916W        W23642   0.043  44.858  13.850
51917W        W23643   2.673   1.953  12.129
51918W        W23644  19.240  13.391   2.625
51919W        W23645  34.294   9.391  13.109
51920W        W23646  26.109   8.145   1.333
51921W        W23647  15.359   9.288  12.719
51922W        W23648  15.726  27.272   2.517
51923W        W23649  39.269  36.267   1.280
51924W        W23650  22.953  32.081  14.058
51925W        W23651  15.500   5.330  10.914
51926W        W23652  32.173  37.109   2.130
51927W        W23653  27.601  27.462  12.077
51928W        W23654  26.123  35.947  11.105
51929W        W23655  13.017  28.121  10.716
51930W        W23656   9.445  35.878  11.089
51931W        W23657  20.729   1.357  12.955
51932W        W23658  11.922  23.153   3.344
51933W        W23659  17.013  15.316  12.497
51934W        W23660  40.321  31.437  13.211
51935W        W23661  26.751   5.987  11.506
51936W        W23662   8.127  17.231  10.813
51937W        W23663   7.861  44.851  14.319
51938W        W23664  23.061  16.046   3.779
51939W        W23665  18.080  11.814   3.699
51940W        W23666  14.886   1.469   1.812
51941W        W23667  37.693   9.176   9.941
51942W        W23668  14.330  12.779   2.189
51943W        W23669  31.127  20.744  12.918
51944W        W23670  14.037  17.061  12.413
51945W        W23671  33.271  25.603  10.317
51946W        W23672  11.763  41.020   3.962
51947W        W23673  44.558  19.059  10.457
51948W        W23674  35.716  19.194  11.572
51949W        W23675  27.433   9.685   4.538
51950W        W23676  29.129  13.114  12.074
51951W        W23677  19.103  14.330   3.800
51952W        W23678  20.794  38.521   2.454
51953W        W23679  39.617  43.076  14.312
51954W        W23680   1.796  20.589  12.616
51955W        W23681  40.577  42.141  11.105
51956W        W23682  21.068  34.405   4.751
51957W        W23683  36.664  32.446   4.418
51958W        W23684  31.246   6.179  14.904
51959W        W23685  40.423  35.015   4.549
51960W        W23686  24.278  40.362  12.847
51961W        W23687  23.997  14.215   4.566
51962W        W23688  42.855  29.779   1.278
51963W        W23689  17.545  36.119   2.982
51964W        W23690  23.016  24.980  14.316
51965W        W23691  30.423  38.417   3.803
51966W        W23692  31.202   2.723  12.049
51967W        W23693  24.965  24.206  11.259
51968W        W23694  29.290  21.116   1.392
51969W        W23695  15.319  18.349  12.827
51970W        W23696   1.947  17.813   3.448
51971W        W23697  25.110  24.961  12.937
51972W        W23698  17.257  37.550   4.546
51973W        W23699   2.312   4.980   2.850
51974W        W23700  38.868  44.541  14.283
51975W        W23701   4.740  41.078   1.837
51976W        W23702   1.351  28.686  12.101
51977W        W23703  40.304  41.416  13.902
51978W        W23704   3.384  10.855  14.363
51979W        W23705  21.339  39.970   2.014
51980W        W23706  29.141  44.124   0.542
51981W        W23707  32.502  12.482   3.214
51982W        W23708  10.896  25.129  13.768
51983W        W23709  23.915  11.738   4.053
51984W        W23710   7.148   1.715   4.511
51985W        W23711  24.995  37.914   4.198
51986W        W23712  18.553  39.102   3.624
51987W        W23713  10.299  16.824  12.834
51988W        W23714  38.292  14.602  10.664
51989W        W23715  26.901  28.393  11.021
51990W        W23716  13.366   8.849   0.954
51991W        W23717   2.801   1.894   0.957
51992W        W23718  23.613  41.628  10.465
51993W        W23719  35.862   6.903  14.938
51994W        W23720  10.059   1.288   4.758
51995W        W23721  19.833   6.378   4.601
51996W        W23722  19.226  30.423  12.378
51997W        W23723  22.809  36.483   2.845
51998W        W23724  31.326  35.275  11.442
51999W        W23725  42.914   7.618   3.604
52000W        W23726  37.039  23.754   2.658
52001W        W23727  12.280  22.138  10.687
52002W        W23728   6.728  34.216  12.533
52003W        W23729   1.732  32.404  13.796
52004W        W23730   9.878  25.686   5.116
52005W        W23731  16.109  34.938   1.398
52006W        W23732  20.344  29.685   3.260
52007W        W23733  17.174   6.383   2.862
52008W        W23734  29.547  44.168   0.865
52009W        W23735  13.348  35.385   4.839
52010W        W23736   8.257  28.921  11.313
52011W        W23737  33.515  11.943   0.012
52012W        W23738   4.871  13.591   4.151
52013W        W23739   2.912  44.490  12.094
52014W        W23740   8.453  32.812  11.999
52015W        W23741  12.610   2.762   0.892
52016W        W23742  19.234  38.008  13.057
52017W        W23743  24.113  36.336  11.475
52018W        W23744   2.589  30.274   2.221
52019W        W23745  12.819  15.223  14.538
52020W        W23746   5.851  43.550   1.268
52021W        W23747   4.886  26.043  12.538
52022W        W23748   6.268  22.943   0.344
52023W        W23749  40.124   2.225   1.444
52024W        W23750   8.647  14.597   3.239
52025W        W23751  42.451   4.122   3.235
52026W        W23752  38.458  44.330  11.717
52027W        W23753  16.595   9.362  11.868
52028W        W23754  32.641  38.288   1.313
52029W        W23755  18.086  36.526  13.790
52030W        W23756  10.791   2.438  13.103
52031W        W23757  42.417  37.018   1.994
52032W        W23758  10.202  39.032  13.000
52033W        W23759   7.205   7.475  12.329
52034W        W23760  15.905  44.782   1.776
52035W        W23761  39.883  20.154  13.052
52036W        W23762  11.370  21.732   2.888
52037W        W23763  38.885  41.276   2.260
52038W        W23764  35.180  40.943  11.537
52039W        W23765   5.895   2.033  14.380
52040W        W23766   1.880  19.019   5.058
52041W        W23767  31.427  21.301   4.126
52042W        W23768  28.882  23.859   0.838
52043W        W23769  18.228  21.196   5.128
52044W        W23770   2.238  30.460   1.485
52045W        W23771  12.827  23.605   4.148
52046W        W23772  23.647  25.062   2.809
52047W        W23773   9.456  10.637  13.964
52048W        W23774  13.762   1.501   2.986
52049W        W23775  32.989  26.942  11.095
52050W        W23776  17.796  26.700   0.405
52051W        W23777  10.705   0.433  12.847
52052W        W23778  35.055  41.431  14.281
52053W        W23779  19.277   5.312   1.725
52054W        W23780  22.729  31.981   0.556
52055W        W23781  10.426   8.681  12.382
52056W        W23782  41.805  41.073  14.881
52057W        W23783  32.879  24.008  13.091
52058W        W23784  22.900   4.208   2.711
52059W        W23785   8.776  18.571   4.901
52060W        W23786  26.659  41.883   3.816
52061W        W23787  30.365  24.717   2.427
52062W        W23788   9.652   8.214   4.320
52063W        W23789  33.470  36.928   0.292
52064W        W23790  18.635  16.839   5.037
52065W        W23791   5.027   0.864   1.425
52066W        W23792   6.930  43.552   0.419
52067W        W23793   8.822  30.213   0.764
52068W        W23794  33.485  27.511   1.509
52069W        W23795  15.563   6.400  13.804
52070W        W23796  15.103  10.642  13.861
52071W        W23797  33.628  12.119   3.183
52072W        W23798  38.455   3.951   3.605
52073W        W23799  25.964   9.955   2.831
52074W        W23800  18.533   0.916  13.660
52075W        W23801  11.871  13.203   5.147
52076W        W23802   0.540  17.910  12.464
52077W        W23803  28.116  18.531   3.605
52078W        W23804  18.260  34.961  13.436
52079W        W23805  17.225   1.256  14.981
52080W        W23806  21.073  41.865   0.936
52081W        W23807  34.494  17.369   5.078
52082W        W23808   2.731  32.073   4.213
52083W        W23809  29.599  10.109   3.663
52084W        W23810   8.268  36.114   3.721
52085W        W23811  29.447   6.948   0.467
52086W        W23812  36.074   3.677   0.881
52087W        W23813   7.185  23.019  11.985
52088W        W23814  13.349  37.632   4.650
52089W        W23815  24.613  16.171   2.862
52090W        W23816  14.139  20.576   4.603
52091W        W23817   6.220  19.304  12.890
52092W        W23818  39.293  12.461   3.635
52093W        W23819  38.497  22.213  11.371
52094W        W23820  14.123  43.383   0.407
52095W        W23821  29.154  18.982  11.131
52096W        W23822  32.969   9.846   1.210
52097W        W23823  35.019   5.317   0.322
52098W        W23824  22.326  18.388  12.431
52099W        W23825  10.091   0.254   3.216
52100W        W23826  25.574  39.958  11.700
52101W        W23827  10.858   6.892  13.608
52102W        W23828  18.227  28.859   3.168
52103W        W23829  23.328  30.575   2.635
52104W        W23830   8.776   3.478  10.890
52105W        W23831  35.987  10.879   0.513
52106W        W23832   2.941  37.113  13.582
52107W        W23833  27.406  20.522   1.017
52108W        W23834  21.254  23.217  12.225
52109W        W23835   0.791  31.132  14.010
52110W        W23836  39.495  17.731  11.065
52111W        W23837  34.297   6.682  10.650
52112W        W23838  28.594   2.298   2.831
52113W        W23839   8.300  33.852  10.801
52114W        W23840  39.975  30.958  14.897
52115W        W23841  14.376   9.936  12.478
52116W        W23842  41.185  10.607  12.978
52117W        W23843  22.437  23.193   3.008
52118W        W23844  40.551  15.259  12.925
52119W        W23845   5.140  20.536   1.209
52120W        W23846  42.876  26.235   3.344
52121W        W23847  10.128  39.266  12.500
52122W        W23848  40.226   7.746   0.096
52123W        W23849  11.634   0.716  12.310
52124W        W23850  43.329  22.087  11.144
52125W        W23851   9.265  41.582  10.328
52126W        W23852  39.175  43.450   0.801
52127W        W23853   5.266   3.859  11.635
52128W        W23854   0.486  15.038  13.217
52129W        W23855  30.120  12.800   2.753
52130W        W23856   2.695  41.325   0.460
52131W        W23857  39.140  18.156   3.621
52132W        W23858  26.617  20.332   0.046
52133W        W23859  17.221   1.325  14.077
52134W        W23860  22.811  25.536   4.870
52135W        W23861  32.356  35.397  11.608
52136W        W23862  30.237  10.310   0.238
52137W        W23863  32.623  25.520   2.877
52138W        W23864  22.230  21.655  13.127
52139W        W23865  37.975  13.677  12.561
52140W        W23866  42.455  40.896  11.369
52141W        W23867  29.443  25.205   2.573
52142W        W23868  36.266   6.370  13.325
52143W        W23869   7.342  43.874   1.987
52144W        W23870   1.189  44.310   2.204
52145W        W23871  23.514  30.817   4.417
52146W        W23872  11.660  44.773   0.849
52147W        W23873  16.067   9.330   0.746
52148W        W23874  12.803  13.209   4.664
52149W        W23875  41.940  14.687  13.603
52150W        W23876  15.086  21.942   2.902
52151W        W23877  32.872  38.249   0.763
52152W        W23878  17.010  29.106  11.953
52153W        W23879  12.762   2.923  11.954
52154W        W23880  19.808   0.413  13.466
52155W        W23881  24.615  22.954   2.402
52156W        W23882  25.852  35.088  10.131
52157W        W23883  36.863  44.109  12.479
52158W        W23884  40.290  16.946   1.460
52159W        W23885  19.104  19.045  13.065
52160W        W23886   1.664   1.149  11.449
52161W        W23887  33.468   5.319  11.416
52162W        W23888   5.300  38.945  11.889
52163W        W23889  40.792  11.809   2.241
52164W        W23890  32.423  10.300  11.982
52165W        W23891  15.226   4.784   0.373
52166W        W23892  18.779  44.044   5.053
52167W        W23893  21.557  26.653   1.590
52168W        W23894  15.128  44.624  10.527
52169W        W23895   9.183  24.251   2.833
52170W        W23896  16.566  24.699  14.040
52171W        W23897  19.779  22.012   4.180
52172W        W23898  34.701   3.291   0.924
52173W        W23899  25.211   7.326   3.333
52174W        W23900   9.452   8.212   2.378
52175W        W23901  31.296   5.482  14.485
52176W        W23902  22.978  37.452  10.986
52177W        W23903  32.621  38.133  10.647
52178W        W23904  14.635  26.214   0.367
52179W        W23905   8.816  20.561   4.527
52180W        W23906  38.489   4.438   3.848
52181W        W23907  19.489  28.653  12.590
52182W        W23908  44.026  40.093   2.767
52183W        W23909   1.229  40.301   1.379
52184W        W23910  23.976  16.614  12.293
52185W        W23911  18.103  10.931   0.856
52186W        W23912  12.220  44.810   1.824
52187W        W23913  32.713  43.549   4.738
52188W        W23914  24.775   1.772   3.587
52189W        W23915   0.721  14.837  12.417
52190W        W23916  41.435  13.136   1.221
52191W        W23917  14.879  21.283  12.660
52192W        W23918   5.642  41.927  14.062
52193W        W23919   7.567  40.609   2.160
52194W        W23920  31.712  16.555   3.596
52195W        W23921   5.419  11.439   0.481
52196W        W23922  36.328  12.251  14.245
52197W        W23923  23.965  20.695   2.678
52198W        W23924  13.166  44.345   5.222
52199W        W23925  41.538   0.737  11.238
52200W        W23926   5.152  41.280   4.590
52201W        W23927  44.400   5.025   4.589
52202W        W23928   2.962  43.344   4.063
52203W        W23929  31.176  18.026  12.940
52204W        W23930   9.611   2.770   3.030
52205W        W23931  35.040  38.781  13.436
52206W        W23932  18.735  30.622   4.646
52207W        W23933  28.983  33.442  12.332
52208W        W23934  37.589  42.586   2.289
52209W        W23935   2.208  36.191  13.726
52210W        W23936  23.446  42.526   4.524
52211W        W23937   6.274  20.511  13.074
52212W        W23938  41.015   8.312  11.619
52213W        W23939  39.005  33.907  12.666
52214W        W23940   4.906   8.214   1.374
52215W        W23941   9.768  28.466  13.178
52216W        W23942  36.066  36.798  14.744
52217W        W23943  43.387  12.828  14.376
52218W        W23944  27.102  17.741   1.375
52219W        W23945   4.205   9.900   1.520
52220W        W23946   1.757  38.143  14.982
52221W        W23947  44.304  12.176   2.970
52222W        W23948  38.253   9.851   3.079
52223W        W23949  44.629  39.903   4.784
52224W        W23950  33.340  14.820   2.303
52225W        W23951   9.005  30.600   5.064
52226W        W23952   6.489  40.954  13.798
52227W        W23953  29.712   6.468  13.335
52228W        W23954  24.862  11.359  14.470
52229W        W23955  30.421   7.874   2.323
52230W        W23956  37.901  33.770  12.437
52231W        W23957  20.004  24.950  12.674
52232W        W23958  35.500  20.394   3.266
52233W        W23959  35.650   9.774  12.954
52234W        W23960   3.901  22.689  13.995
52235W        W23961  29.055  26.565  10.092
52236W        W23962  10.697  35.113   5.117
52237W        W23963  15.678  42.682  11.951
52238W        W23964  30.944  37.907   1.842
52239W        W23965   8.789   6.118   0.504
52240W        W23966   5.701  32.024  12.953
52241W        W23967  42.783   7.231  11.199
52242W        W23968  10.646   5.873  14.174
52243W        W23969  31.928  30.014  10.650
52244W        W23970  24.223  32.249   1.866
52245W        W23971   7.851  23.367   4.208
52246W        W23972  13.370   1.249   4.312
52247W        W23973  39.291   6.991  11.300
52248W        W23974  20.693  17.535   2.111
52249W        W23975  20.112   9.625   2.580
52250W        W23976  32.055  31.644   2.112
52251W        W23977  33.559  44.544   3.681
52252W        W23978  15.218  12.129  10.772
52253W        W23979  43.937  27.242  10.553
52254W        W23980  44.503   9.345  11.593
52255W        W23981   3.981  44.998  12.033
52256W        W23982  38.500   7.460  14.705
52257W        W23983   4.201   5.100   5.232
52258W        W23984  10.671  11.705  10.555
52259W        W23985  37.535  38.619  10.874
52260W        W23986   2.408  18.570  11.571
52261W        W23987  44.265  32.815   0.094
52262W        W23988  25.370  34.878   3.815
52263W        W23989  30.596  35.618  14.301
52264W        W23990   4.095  35.450  11.851
52265W        W23991  41.271   9.662   4.410
52266W        W23992  26.989   3.784  14.863
52267W        W23993  16.370  17.829  11.821
52268W        W23994   9.250  39.760  14.512
52269W        W23995   1.296  38.836   2.704
52270W        W23996  15.370  44.765   4.551
52271W        W23997  11.681  34.007  10.242
52272W        W23998   5.816  41.341  12.780
52273W        W23999  14.979  23.618  11.555
52274W        W24000  38.827  24.620   1.644
52275W        W24001   7.653  28.884  12.486
52276W        W24002  19.664   2.651  12.078
52277W        W24003   9.822  13.203  10.381
52278W        W24004  12.813   2.268   1.774
52279W        W24005  28.108  15.461  10.633
52280W        W24006  22.529  29.400  11.604
52281W        W24007  13.157   0.547   3.939
52282W        W24008  40.548  31.573  14.193
52283W        W24009  38.201  23.459   2.113
52284W        W24010  25.913   8.207  11.936
52285W        W24011  13.357  22.630   3.870
52286W        W24012  19.428  11.070   1.444
52287W        W24013  33.123  28.293   4.976
52288W        W24014  17.612  43.026  12.515
52289W        W24015  24.117  21.981   3.048
52290W        W24016  29.567   9.425  10.678
52291W        W24017  41.360  33.659   4.583
52292W        W24018  23.946  28.031  13.824
52293W        W24019  40.920   2.469  12.462
52294W        W24020  28.123  23.241   2.769
52295W        W24021  27.500   9.123   0.370
52296W        W24022  26.435  22.721  10.762
52297W        W24023  37.979  14.524  11.433
52298W        W24024  37.094   4.255   3.269
52299W        W24025  32.674  31.102  13.430
52300W        W24026  13.721  10.691  12.617
52301W        W24027  22.525   9.800   0.168
52302W        W24028  22.983  33.391   0.518
52303W        W24029   9.688  32.066   4.115
52304W        W24030  32.613  23.127  11.047
52305W        W24031   7.322  10.209   2.708
52306W        W24032  28.349  41.410   4.680
52307W        W24033  27.738   0.356  11.263
52308W        W24034  20.834  30.993   4.123
52309W        W24035  31.351  26.210   1.258
52310W        W24036  13.850  30.404   0.356
52311W        W24037  11.996  43.306   1.240
52312W        W24038  18.026  24.728   5.008
52313W        W24039  11.685  15.730   1.524
52314W        W24040  15.831   5.516  11.375
52315W        W24041  23.450  30.271   1.822
52316W        W24042  29.997  27.924  12.555
52317W        W24043  22.986  11.298  12.079
52318W        W24044   8.067  39.808  11.570
52319W        W24045  28.331  17.881  11.463
52320W        W24046  29.556  24.680  10.700
52321W        W24047  34.495  40.561  13.762
52322W        W24048  16.055  43.605   4.182
52323W        W24049  30.617  37.903   2.224
52324W        W24050  15.690  10.309   3.850
52325W        W24051  16.600   2.319  11.626
52326W        W24052   4.130  43.943  11.039
52327W        W24053   3.487  43.948   2.344
52328W        W24054  12.242  30.157  10.916
52329W        W24055  17.985  32.923   3.573
52330W        W24056  39.430  44.446   4.228
52331W        W24057  22.573  16.160  10.763
52332W        W24058   2.326   9.391  11.119
52333W        W24059  25.489   7.511   4.662
52334W        W24060  35.445  15.979   0.972
52335W        W24061  33.180  41.419   0.873
52336W        W24062  17.856  31.099  13.742
52337W        W24063   8.609   3.909  13.856
52338W        W24064  44.017   5.508   3.408
52339W        W24065  41.533  37.309   0.395
52340W        W24066  30.563  38.315   1.921
52341W        W24067  22.080  19.717   0.442
52342W        W24068  14.845  25.044   2.179
52343W        W24069  34.867  14.556  10.736
52344W        W24070   1.352  34.557   1.391
52345W        W24071  41.593  20.081   0.663
52346W        W24072   7.218  42.548   2.769
52347W        W24073   7.830  42.455   4.590
52348W        W24074  17.612   3.388   0.270
52349W        W24075  13.192   8.267   1.323
52350W        W24076  32.033  38.966   2.726
52351W        W24077  38.358  13.641  14.307
52352W        W24078  10.255  13.693   5.041
52353W        W24079  29.621  32.962  14.909
52354W        W24080  16.030   5.007   4.293
52355W        W24081   1.859  44.310  12.987
52356W        W24082   6.277  22.536  13.884
52357W        W24083  14.732  10.076  12.941
52358W        W24084  26.155  26.915   4.607
52359W        W24085   0.437  41.722   4.403
52360W        W24086  12.802   1.795   3.916
52361W        W24087  15.689  30.535   0.363
52362W        W24088  32.672  33.744  11.656
52363W        W24089  23.678   4.782   0.385
52364W        W24090  39.335  23.228  12.052
52365W        W24091  30.118  26.116  14.518
52366W        W24092  33.880  36.569  11.543
52367W        W24093  39.978  22.353  10.399
52368W        W24094   1.494  43.401  11.123
52369W        W24095  24.322  27.831   4.895
52370W        W24096  11.629  11.299  11.839
52371W        W24097  28.873  14.285  13.285
52372W        W24098  10.896  17.640  14.885
52373W        W24099   4.203  42.669  13.374
52374W        W24100  10.514  36.466  13.730
52375W        W24101  14.067  31.121   1.378
52376W        W24102  38.371   7.617   4.267
52377W        W24103  40.884  42.737  11.838
52378W        W24104   9.339  30.651  12.069
52379W        W24105   1.247  27.574   0.420
52380W        W24106  25.122  43.511   2.407
52381W        W24107  21.601  14.159  13.755
52382W        W24108   1.239   5.419  14.406
52383W        W24109   0.666  14.783   2.320
52384W        W24110  42.363  26.528   4.388
52385W        W24111  27.552  18.740   4.827
52386W        W24112  13.030   7.368  14.390
52387W        W24113  34.519  24.761  11.450
52388W        W24114   1.301  34.495  12.103
52389W        W24115  24.841  14.271   3.535
52390W        W24116  19.817   0.573   1.367
52391W        W24117   7.487   5.219   1.703
52392W        W24118   2.493  14.614   2.680
52393W        W24119  26.990  27.493  10.767
52394W        W24120  18.291  15.152  12.969
52395W        W24121  35.079  27.210  14.445
52396W        W24122   6.579   4.030  10.721
52397W        W24123  20.086  22.295  11.523
52398W        W24124  14.104  33.597   4.749
52399W        W24125   3.460  24.896  13.581
52400W        W24126  17.537  34.545   4.317
52401W        W24127  17.121  32.650  10.611
52402W        W24128   4.964  30.619  13.970
52403W        W24129  39.321  21.575  13.944
52404W        W24130   2.413  33.438  13.532
52405W        W24131  27.080   7.743   0.106
52406W        W24132   7.471  39.139   4.256
52407W        W24133   3.150  42.330   2.010
52408W        W24134  28.230   0.462  12.981
52409W        W24135  37.538  34.795  13.852
52410W        W24136  39.317  15.845  13.525
52411W        W24137  19.341  13.180  13.407
52412W        W24138  39.392  35.447  12.897
52413W        W24139  22.667  35.896  10.488
52414W        W24140  18.281  25.924  13.415
52415W        W24141  28.071  30.099  10.293
52416W        W24142  15.631  41.281   1.330
52417W        W24143   1.867  27.963  10.416
52418W        W24144   0.597  17.748  13.512
52419W        W24145   3.531  38.600  11.987
52420W        W24146  12.137  20.275  13.406
52421W        W24147   1.022  21.017   4.159
52422W        W24148  12.849  31.919   4.181
52423W        W24149  13.855   9.651  13.297
52424W        W24150   8.520  30.700  12.511
52425W        W24151   2.023  38.904   4.115
52426W        W24152  11.043   0.538  11.144
52427W        W24153  10.900  34.504  11.017
52428W        W24154  34.580  10.737  10.632
52429W        W24155   5.377  30.702   5.257
52430W        W24156  25.074   4.329   1.319
52431W        W24157   2.588  25.955  14.464
52432W        W24158  14.691  18.143   4.216
52433W        W24159  11.993  32.095  13.115
52434W        W24160  29.563   4.828   1.868
52435W        W24161  28.049  41.498   1.346
52436W        W24162  42.947  36.624  14.837
52437W        W24163  34.857  34.451  13.026
52438W        W24164   9.183  10.412  11.983
52439W        W24165  34.959   7.693   0.926
52440W        W24166  25.643  24.980  12.435
52441W        W24167   3.393  18.901   3.097
52442W        W24168  17.079   6.440  14.386
52443W        W24169  34.342   7.727   4.251
52444W        W24170  21.500  42.505  10.499
52445W        W24171  14.285  40.506  12.873
52446W        W24172  18.299  44.712  11.179
52447W        W24173   1.338  16.733   1.245
52448W        W24174   9.842  25.628  11.075
52449W        W24175  43.864  17.839  10.683
52450W        W24176  17.326   4.177  12.011
52451W        W24177  43.131  38.763   1.772
52452W        W24178  39.544  32.688  14.925
52453W        W24179  41.873   6.157  14.250
52454W        W24180  24.689  44.896  11.928
52455W        W24181  11.885   4.924  12.562
52456W        W24182  15.860  31.953  12.944
52457W        W24183   2.274  27.696  11.131
52458W        W24184   0.190  18.807   1.342
52459W        W24185  12.918  11.196  12.442
52460W        W24186   7.906  27.617  11.629
52461W        W24187  34.596  21.115   2.195
52462W        W24188  17.722  33.564   4.009
52463W        W24189  43.598  41.643   2.069
52464W        W24190  21.716   9.364   0.388
52465W        W24191  38.553  41.271   4.071
52466W        W24192  33.629  43.491  14.686
52467W        W24193  17.573   5.195  14.324
52468W        W24194   0.880  20.158  11.961
52469W        W24195  26.658  44.677   2.227
52470W        W24196  42.271   3.634   3.131
52471W        W24197  21.571  33.250   1.758
52472W        W24198   4.744  34.140   1.586
52473W        W24199   5.734  37.762  12.804
52474W        W24200   3.322  16.065   4.060
52475W        W24201  22.585  13.343   4.045
52476W        W24202   5.288   4.103   5.343
52477W        W24203  37.141  13.338  13.498
52478W        W24204  21.505  24.147  12.474
52479W        W24205   7.221  27.558   1.229
52480W        W24206  34.359  44.201  14.810
52481W        W24207  24.555  43.774  11.694
52482W        W24208  27.509  26.038   2.853
52483W        W24209  44.126  44.391  10.700
52484W        W24210  30.451  28.999  10.906
52485W        W24211  33.827  38.351   1.883
52486W        W24212  33.814  21.856   1.808
52487W        W24213  17.599  30.194  10.603
52488W        W24214  26.169   0.020   4.841
52489W        W24215  25.069  15.672  12.584
52490W        W24216  36.434  19.084  12.639
52491W        W24217  39.853   9.319  12.900
52492W        W24218   3.771   7.739   4.294
52493W        W24219  31.070   4.695  13.742
52494W        W24220  32.964  28.474   2.912
52495W        W24221   3.489  31.527   2.227
52496W        W24222   3.390  33.621   1.937
52497W        W24223  19.718  24.953   1.383
52498W        W24224   1.826  38.878  10.489
52499W        W24225  30.669  43.559  13.935
52500W        W24226  10.072  15.481   5.477
52501W        W24227  11.824  24.738   4.971
52502W        W24228  22.107  42.598   4.919
52503W        W24229  38.716  44.859  11.377
52504W        W24230  39.232  19.428   3.733
52505W        W24231  38.426  15.867   3.712
52506W        W24232  37.769  41.084   1.754
52507W        W24233  27.388  39.992  11.937
52508W        W24234   5.198  41.304   2.297
52509W        W24235  37.400  21.383   4.839
52510W        W24236   4.723  37.907   3.936
52511W        W24237  34.135  28.059  11.971
52512W        W24238   0.193  15.396   1.425
52513W        W24239  16.772  44.504   2.762
52514W        W24240  31.965  19.747   3.531
52515W        W24241  13.427  41.552  11.064
52516W        W24242  36.299   9.901   4.171
52517W        W24243  16.482  29.796   4.004
52518W        W24244   0.683  14.307  14.308
52519W        W24245   2.680  42.480   2.879
52520W        W24246   3.721  19.175  14.514
52521W        W24247  10.192  27.724   2.332
52522W        W24248   8.664  44.535  13.577
52523W        W24249  21.132   7.677   3.468
52524W        W24250  43.516   9.934  10.505
52525W        W24251  38.618  38.297   0.614
52526W        W24252   4.424  14.901   2.289
52527W        W24253  25.949  26.314  14.541
52528W        W24254  43.881  21.698  14.261
52529W        W24255  34.978  29.157  10.763
52530W        W24256  16.851  34.418  11.489
52531W        W24257  10.894   6.712   1.456
52532W        W24258  26.401   8.138  11.962
52533W        W24259  28.461  39.682   3.758
52534W        W24260  37.879  39.049  11.994
52535W        W24261  35.780   6.754  12.627
52536W        W24262  33.421   3.546  13.726
52537W        W24263   8.860   9.653   3.039
52538W        W24264  26.850  10.811   3.175
52539W        W24265  25.444   5.431   4.557
52540W        W24266   8.773  21.892   0.059
52541W        W24267  42.839  27.017  11.618
52542W        W24268  15.732  15.058   4.814
52543W        W24269  31.163  30.955  14.448
52544W        W24270  42.592  38.821   2.778
52545W        W24271  39.386  19.642   0.628
52546W        W24272  32.503   4.532   1.445
52547W        W24273   4.693   1.447   3.223
52548W        W24274  32.011  41.859  10.209
52549W        W24275   4.258  21.731  13.629
52550W        W24276  17.255   4.711  11.968
52551W        W24277  37.548   9.889   0.856
52552W        W24278   3.391   1.767   1.223
52553W        W24279  19.112  36.913   3.660
52554W        W24280  29.023   4.809   1.050
52555W        W24281  24.541  35.389   0.010
52556W        W24282   7.426  35.491  13.998
52557W        W24283   1.357   8.803   4.762
52558W        W24284  30.581   0.991   3.784
52559W        W24285   0.039  10.623  11.213
52560W        W24286  24.234  22.215  11.512
52561W        W24287  43.369  30.639   1.633
52562W        W24288  20.048  14.150  11.476
52563W        W24289  24.535  15.382   0.372
52564W        W24290   0.308  38.421   4.268
52565W        W24291  35.829  32.822  13.017
52566W        W24292  12.300  38.432   1.808
52567W        W24293  44.261  34.452   2.619
52568W        W24294   7.463  39.304  14.690
52569W        W24295   4.434  40.590   1.321
52570W        W24296  21.162  37.184   3.375
52571W        W24297  44.464   1.082   2.183
52572W        W24298  38.082  25.001   1.195
52573W        W24299  37.774   5.467  13.146
52574W        W24300  23.043  26.822  12.457
52575W        W24301   1.753   5.337   3.620
52576W        W24302  18.718  36.544  13.490
52577W        W24303   7.994   4.814   2.213
52578W        W24304  22.044  25.013   5.115
52579W        W24305  22.517   9.898   1.683
52580W        W24306   8.937  43.214  11.123
52581W        W24307  11.518   2.432  11.995
52582W        W24308   6.678  14.801  10.669
52583W        W24309  38.055  26.441  12.579
52584W        W24310   8.966  17.231  13.124
52585W        W24311  22.927  41.469   0.801
52586W        W24312  13.022  28.104  12.944
52587W        W24313  43.301   9.924  10.963
52588W        W24314  24.669  40.957  14.532
52589W        W24315  36.321   3.091   2.894
52590W        W24316  26.557  16.347   4.349
52591W        W24317  36.948  13.568  12.787
52592W        W24318  40.226  20.503  13.475
52593W        W24319   1.742  24.425   3.319
52594W        W24320  12.271   2.175   1.851
52595W        W24321  43.137   3.964   5.019
52596W        W24322  42.945  34.854  14.387
52597W        W24323  41.520  13.125   2.464
52598W        W24324  21.465  29.648  11.151
52599W        W24325  15.626  15.487   1.240
52600W        W24326   7.187   1.376  13.302
52601W        W24327  23.553  17.213   3.753
52602W        W24328  33.103  23.571   0.585
52603W        W24329  35.550   3.681  11.527
52604W        W24330  30.726  12.822  11.682
52605W        W24331  20.774  22.468   0.989
52606W        W24332   3.413   2.639  14.107
52607W        W24333   1.240  25.232   0.421
52608W        W24334  10.982  31.956  13.034
52609W        W24335  30.968  14.771  11.693
52610W        W24336  12.350  31.596  13.437
52611W        W24337   6.117  14.208   2.312
52612W        W24338   2.227  25.362   4.778
52613W        W24339  13.519  19.173  12.107
52614W        W24340  12.585  12.895   2.300
52615W        W24341  30.948   4.391  12.455
52616W        W24342   7.456  15.938   5.256
52617W        W24343   7.198  37.402  11.053
52618W        W24344   8.893  24.220   3.292
52619W        W24345  31.770  24.715  13.725
52620W        W24346  14.580  10.021   9.937
52621W        W24347  36.751  29.652   0.347
52622W        W24348  28.180  41.507  12.633
52623W        W24349  31.458  26.236  12.004
52624W        W24350  27.501  19.826   0.415
52625W        W24351  15.267  22.829  14.303
52626W        W24352  36.550  28.528   4.533
52627W        W24353  32.484  43.212  11.124
52628W        W24354   8.907  30.363  10.752
52629W        W24355  14.255  25.211   4.994
52630W        W24356  12.260  24.244  11.462
52631W        W24357  22.630   2.938   0.822
52632W        W24358  32.108  26.526  13.050
52633W        W24359  19.621  22.770   0.320
52634W        W24360  38.996   8.255  13.885
52635W        W24361  13.153  32.496   0.480
52636W        W24362   0.842  15.326  10.690
52637W        W24363  44.834  30.946  11.522
52638W        W24364  16.772  12.832  10.731
52639W        W24365  20.442  31.048  11.114
52640W        W24366  18.764  20.349   2.281
52641W        W24367  30.115   9.391   3.663
52642W        W24368  27.379  15.255   2.105
52643W        W24369  24.358  40.072  10.654
52644W        W24370  43.436  38.956   1.392
52645W        W24371   5.800  42.866  13.444
52646W        W24372  37.328  17.317   4.066
52647W        W24373  18.125  15.425  13.380
52648W        W24374   2.326  28.867  14.014
52649W        W24375   5.129   2.537  13.779
52650W        W24376  23.043  11.584  12.936
52651W        W24377  42.418   8.182   1.424
52652W        W24378  22.071  22.515   3.574
52653W        W24379  25.708  13.388  11.156
52654W        W24380   4.266  25.649   2.638
52655W        W24381  37.210  35.982  12.065
52656W        W24382  39.867   8.477  10.718
52657W        W24383  34.488   1.289  14.900
52658W        W24384  40.306  37.010   1.453
52659W        W24385  38.797  33.352   1.648
52660W        W24386  38.606  13.958  11.464
52661W        W24387  29.200  21.663  14.028
52662W        W24388  43.397  10.075   2.239
52663W        W24389  21.346   1.755   4.684
52664W        W24390  39.754  23.145   2.319
52665W        W24391  24.882  14.761   0.883
52666W        W24392  18.676  32.837   0.900
52667W        W24393  16.197  41.793   3.594
52668W        W24394  11.067  30.780   3.360
52669W        W24395  34.077   5.374   1.736
52670W        W24396  16.585   1.305   2.289
52671W        W24397  32.407  11.083   0.505
52672W        W24398   7.865  21.475  12.479
52673W        W24399  27.619   4.490   1.805
52674W        W24400  35.402  30.352  14.788
52675W        W24401   8.237  25.177   5.423
52676W        W24402  43.214  35.754  14.954
52677W        W24403  44.622  31.184   1.349
52678W        W24404   0.052  44.443  10.149
52679W        W24405  25.171  31.182   2.466
52680W        W24406  15.190  34.639   0.369
52681W        W24407  35.100  19.134  13.018
52682W        W24408  35.963  34.993  10.453
52683W        W24409  23.234  28.389   3.589
52684W        W24410  18.995  19.209   3.484
52685W        W24411  34.373   0.254  11.284
52686W        W24412  28.771  43.340  14.420
52687W        W24413  39.388  37.894   2.145
52688W        W24414  18.270  42.342   3.982
52689W        W24415  30.482  35.145  11.769
52690W        W24416  14.343  10.199  13.547
52691W        W24417  40.902   1.508  11.498
52692W        W24418  40.389  10.422   4.704
52693W        W24419  29.417   7.369   0.161
52694W        W24420  21.432  27.556   0.634
52695W        W24421   7.772  19.766   0.399
52696W        W24422   8.825   7.269   4.749
52697W        W24423   1.208  30.404   3.667
52698W        W24424  41.920  44.300  14.037
52699W        W24425   8.862  31.871   0.041
52700W        W24426   1.335  35.558   2.247
52701W        W24427  37.051  32.200  10.637
52702W        W24428  29.968   7.178   2.757
52703W        W24429  10.774   9.310   1.835
52704W        W24430  28.279  25.741  12.912
52705W        W24431   4.580   3.366  12.905
52706W        W24432  24.079  30.984  13.143
52707W        W24433  40.377  42.756   4.566
52708W        W24434   0.465  12.662   2.819
52709W        W24435   5.741   7.581   0.442
52710W        W24436  11.017  41.316   2.709
52711W        W24437  38.144   5.707  12.684
52712W        W24438   6.662  36.919   2.365
52713W        W24439  35.442   2.335  14.979
52714W        W24440  21.023   1.792  10.779
52715W        W24441  13.512  44.355   3.814
52716W        W24442  19.556  36.443   4.615
52717W        W24443  41.750  25.277  12.557
52718W        W24444  15.457  19.101  14.624
52719W        W24445  40.235  26.667   3.775
52720W        W24446  20.283  28.620  11.645
52721W        W24447  24.493   8.982   3.417
52722W        W24448  19.821  41.542   1.861
52723W        W24449  24.024  27.178   0.286
52724W        W24450  11.615   9.761   4.594
52725W        W24451   0.697  20.698   3.869
52726W        W24452   0.835   3.193  11.536
52727W        W24453  41.143  17.091   0.522
52728W        W24454   5.410  22.834   3.728
52729W        W24455  38.324   4.519   2.386
52730W        W24456   7.392  26.157   4.969
52731W        W24457   2.460  32.375   0.296
52732W        W24458  21.006  27.593  13.296
52733W        W24459   5.775  11.730   2.706
52734W        W24460  32.885   8.328   4.810
52735W        W24461  42.806  37.116  14.423
52736W        W24462  41.596   2.389  12.953
52737W        W24463  15.278  19.366   0.062
52738W        W24464  22.752  14.666  14.495
52739W        W24465  42.106  33.022  13.631
52740W        W24466  14.351  26.056  10.764
52741W        W24467  27.548  41.899  14.607
52742W        W24468  40.071  44.088   2.790
52743W        W24469  10.973  35.559   5.278
52744W        W24470  28.851  32.938   3.488
52745W        W24471  40.297   3.951   0.826
52746W        W24472  23.216  28.492  10.965
52747W        W24473  26.205  44.155   4.911
52748W        W24474  20.445  25.137   0.305
52749W        W24475  32.111  42.947  14.297
52750W        W24476  25.053   7.341  14.721
52751W        W24477  37.927   6.792   4.911
52752W        W24478   8.819  34.637  13.068
52753W        W24479  39.479  28.989  14.172
52754W        W24480  39.342  20.608   0.424
52755W        W24481  33.110  29.786  13.913
52756W        W24482  28.844  37.443  10.829
52757W        W24483  34.936  26.004  12.905
52758W        W24484  34.456  29.868  11.825
52759W        W24485  39.048  20.253  11.181
52760W        W24486  32.485  40.117  11.267
52761W        W24487  10.847   0.759  14.876
52762W        W24488  44.672  40.355  12.342
52763W        W24489  27.202  44.856   4.129
52764W        W24490  26.974  39.892  10.429
52765W        W24491  10.150  21.296  13.407
52766W        W24492   9.382  33.559   0.279
52767W        W24493  10.098  44.440   1.288
52768W        W24494  13.204   5.107   3.152
52769W        W24495  16.928  28.484   0.954
52770W        W24496  31.196  39.847  11.023
52771W        W24497  24.633  29.757  14.966
52772W        W24498  40.241  35.841   1.371
52773W        W24499  33.093  17.052   1.301
52774W        W24500  34.117  44.879   0.834
52775W        W24501   1.422  25.603  13.886
52776W        W24502  21.286  17.774  12.423
52777W        W24503   1.451   8.454  13.783
52778W        W24504  28.579  12.225  10.533
52779W        W24505   6.416  23.104   0.815
52780W        W24506  34.907  40.490   3.260
52781W        W24507   6.282  15.863   2.655
52782W        W24508  12.734  20.556  13.040
52783W        W24509  17.613   7.402  11.095
52784W        W24510  24.221  42.917  10.938
52785W        W24511   8.127   7.229  13.743
52786W        W24512  10.925  23.882  12.385
52787W        W24513  31.607  29.479   2.745
52788W        W24514  24.534  22.050   2.741
52789W        W24515  37.864  24.572   0.012
52790W        W24516  30.704  44.927  12.515
52791W        W24517  34.448   9.440   1.919
52792W        W24518  26.255  35.648  14.322
52793W        W24519  20.162   0.433  11.518
52794W        W24520   8.589   7.735   4.791
52795W        W24521   5.764  43.734  14.924
52796W        W24522   0.280  36.936   2.599
52797W        W24523   4.731   9.926   0.798
52798W        W24524  37.846  18.864   2.678
52799W        W24525  19.961  41.363  14.421
52800W        W24526  12.079  31.953   9.890
52801W        W24527  38.163  39.744   3.090
52802W        W24528   0.630  37.827  11.525
52803W        W24529   1.414  27.234   4.719
52804W        W24530  36.505   3.786  12.625
52805W        W24531   0.419  35.652  11.477
52806W        W24532  13.720   3.344  10.896
52807W        W24533  30.562   8.552  11.711
52808W        W24534  24.605  26.949  12.090
52809W        W24535   5.760  15.163  11.606
52810W        W24536  33.127   9.385   1.432
52811W        W24537  44.290   1.907  14.977
52812W        W24538  37.941   2.278  13.006
52813W        W24539  42.006  13.141   0.290
52814W        W24540  34.531  43.880  12.073
52815W        W24541  39.813   3.763   0.912
52816W        W24542   9.016  35.373  14.285
52817W        W24543   2.301   8.709   0.137
52818W        W24544   0.324   7.780   3.646
52819W        W24545  40.382   0.060   0.897
52820W        W24546  33.832  32.184  12.899
52821W        W24547  20.526  23.423  14.467
52822W        W24548   4.281  42.831  12.565
52823W        W24549  25.475  20.555   2.750
52824W        W24550  23.886  41.796  13.568
52825W        W24551   6.466  10.144  12.034
52826W        W24552  21.848  32.531   0.526
52827W        W24553  28.986   9.338  13.562
52828W        W24554   9.153  19.908  12.938
52829W        W24555  21.078   4.119   4.223
52830W        W24556   0.605  29.233  11.856
52831W        W24557  37.369   7.881  14.386
52832W        W24558  34.571  36.293   1.177
52833W        W24559   9.387  21.703   3.613
52834W        W24560   0.289  44.390   4.454
52835W        W24561  32.108  25.319   3.315
52836W        W24562   8.382   6.121   3.676
52837W        W24563  38.926  26.502   3.086
52838W        W24564  25.669  26.863   2.714
52839W        W24565  22.765  29.458  14.716
52840W        W24566   2.283  14.307   0.841
52841W        W24567   9.709  37.978   3.649
52842W        W24568   8.503  15.089  14.269
52843W        W24569   1.850  17.221  11.421
52844W        W24570   8.278  37.392  12.991
52845W        W24571  12.678  43.965   0.903
52846W        W24572  17.833  41.045   1.767
52847W        W24573  15.868  42.978  13.908
52848W        W24574  17.528  10.811   1.516
52849W        W24575  23.431  24.558   2.915
52850W        W24576   8.330   4.845  12.429
52851W        W24577  26.490  23.739  14.647
52852W        W24578   3.989  41.320   4.700
52853W        W24579   1.490  19.988   4.172
52854W        W24580  32.081  17.175  11.370
52855W        W24581  34.562  37.797   2.083
52856W        W24582  29.529   2.549   2.886
52857W        W24583  32.627  24.152  11.893
52858W        W24584  34.043  42.805   1.173
52859W        W24585  19.182  15.800  12.129
52860W        W24586  29.364  34.585   2.823
52861W        W24587   1.927  44.287   2.765
52862W        W24588  44.073   6.758   4.101
52863W        W24589  23.962  26.228   5.254
52864W        W24590  39.369  42.538  12.523
52865W        W24591  24.119  37.120  12.942
52866W        W24592  39.835  19.679  10.687
52867W        W24593  28.945  44.260  13.027
52868W        W24594   3.768  24.927  14.820
52869W        W24595  32.069   3.830   2.644
52870W        W24596  31.435  22.284   0.096
52871W        W24597   7.261   2.707   3.728
52872W        W24598   9.881  41.312  11.976
52873W        W24599  44.226   8.682  12.105
52874W        W24600  21.468   2.001  12.985
52875W        W24601   5.297  36.389   3.028
52876W        W24602   5.716  36.376  12.689
52877W        W24603  14.735  23.553   3.232
52878W        W24604   5.800  35.394  11.121
52879W        W24605  13.812  27.685   3.957
52880W        W24606  43.917  13.811  14.821
52881W        W24607   3.712  19.239  12.150
52882W        W24608  16.540  31.714  13.818
52883W        W24609   2.328  11.379  13.259
52884W        W24610  20.554  36.602   0.182
52885W        W24611  24.750  11.113   2.180
52886W        W24612  35.538  43.777  14.025
52887W        W24613   6.158  34.480  14.167
52888W        W24614  13.157  29.572   4.581
52889W        W24615   0.942  42.307  10.537
52890W        W24616  28.164  19.571   2.253
52891W        W24617  26.653  28.714  10.629
52892W        W24618  34.423  22.774   0.776
52893W        W24619  38.277  28.603   0.926
52894W        W24620  40.027  41.518   1.670
52895W        W24621  12.637  36.431  13.353
52896W        W24622   7.178  19.675  11.486
52897W        W24623  16.571   7.289   5.032
52898W        W24624  10.173  16.774   2.669
52899W        W24625  17.352  37.799   1.067
52900W        W24626  37.055   5.275   2.224
52901W        W24627  39.028  20.977   3.773
52902W        W24628  25.695  28.840  14.602
52903W        W24629  37.276  18.699  13.526
52904W        W24630  14.250  27.539   3.174
52905W        W24631   7.828  40.455  10.473
52906W        W24632  31.971   0.308   2.642
52907W        W24633  37.490  30.648  11.032
52908W        W24634   0.822  27.953  14.905
52909W        W24635  32.493  36.643  11.601
52910W        W24636   7.169   6.245  11.126
52911W        W24637  41.984  27.882  14.788
52912W        W24638  27.542  21.251   0.856
52913W        W24639  24.689  33.768   1.275
52914W        W24640   2.320  19.117   0.815
52915W        W24641  39.630  38.377   0.717
52916W        W24642   1.174  35.487  10.640
52917W        W24643  29.063   7.828   4.646
52918W        W24644  24.996  36.671   0.350
52919W        W24645  30.433  35.092  12.579
52920W        W24646   9.224  22.487   2.000
52921W        W24647   1.425  17.301   2.364
52922W        W24648   8.777  33.011   2.279
52923W        W24649  43.507  26.097   3.875
52924W        W24650  21.348  23.582  11.414
52925W        W24651  34.494   9.372  11.151
52926W        W24652  37.582  11.140  13.880
52927W        W24653   8.910  38.615   4.162
52928W        W24654  24.930   2.993  10.532
52929W        W24655  21.661  38.114   3.583
52930W        W24656  34.569  13.750   1.160
52931W        W24657   6.393  34.551   2.406
52932W        W24658   6.878  16.301  11.605
52933W        W24659  22.473  15.227   3.299
52934W        W24660  21.815  29.951  10.822
52935W        W24661  40.899  12.111  14.389
52936W        W24662  42.218  37.420   5.142
52937W        W24663  16.003   6.438  12.899
52938W        W24664  13.871  27.527  12.867
52939W        W24665  13.851   5.548  13.040
52940W        W24666  37.249  28.549  11.021
52941W        W24667  40.912   5.763  10.353
52942W        W24668   2.871  42.263   4.673
52943W        W24669   9.732  10.903  11.670
52944W        W24670  23.122  40.025  10.581
52945W        W24671  19.123  33.712   2.740
52946W        W24672   0.247  21.299  10.053
52947W        W24673  40.132   6.485  14.015
52948W        W24674  17.855  39.467  14.769
52949W        W24675   2.865  17.782  14.851
52950W        W24676  43.095  13.387  14.063
52951W        W24677   3.885  21.142  12.499
52952W        W24678  44.264  38.497   0.204
52953W        W24679  35.299  10.223   1.253
52954W        W24680  17.178  12.293   4.605
52955W        W24681   9.655   5.316   0.958
52956W        W24682  31.385  38.997  12.792
52957W        W24683  21.729   3.358   0.366
52958W        W24684  14.905  38.390   2.281
52959W        W24685   0.726   8.718  11.086
52960W        W24686  23.296  35.849   2.843
52961W        W24687  22.775   0.232   2.973
52962W        W24688  44.836  36.761   3.762
52963W        W24689  42.495  38.362   1.679
52964W        W24690   4.612  33.329  14.569
52965W        W24691   0.877  16.190   3.632
52966W        W24692  44.311  14.032   4.701
52967W        W24693   4.917  14.826   2.151
52968W        W24694  31.566  24.661   2.637
52969W        W24695  18.138  44.580   3.966
52970W        W24696  18.784  29.477   4.297
52971W        W24697   7.895  36.967  13.949
52972W        W24698   1.776  44.777   1.221
52973W        W24699   5.996  32.377  14.765
52974W        W24700  14.865  39.042  11.577
52975W        W24701   8.004  27.915   5.400
52976W        W24702   1.224  11.806  12.455
52977W        W24703  14.615   9.622   3.227
52978W        W24704  26.333  13.247  13.347
52979W        W24705   3.066  10.865  12.105
52980W        W24706  34.832  13.272   1.586
52981W        W24707   9.387  39.457   4.731
52982W        W24708  15.624  17.239  11.598
52983W        W24709   2.389   3.581   1.974
52984W        W24710  15.449  14.197   1.816
52985W        W24711  43.465  12.338   2.260
52986W        W24712  23.322  21.052   4.439
52987W        W24713  27.556  42.408  14.489
52988W        W24714   3.227  16.087   1.713
52989W        W24715   8.536  32.213   1.313
52990W        W24716   0.232   1.056   0.285
52991W        W24717  33.904  23.165   4.955
52992W        W24718  36.647  21.122   3.299
52993W        W24719   9.286   1.132   4.861
52994W        W24720  40.804  10.934   1.367
52995W        W24721  18.264   1.480  14.917
52996W        W24722  44.160   9.237   4.452
52997W        W24723   8.459   6.639   1.305
52998W        W24724  20.119  44.026  14.161
52999W        W24725  25.253  23.223   2.795
53000W        W24726  28.519  17.747   1.391
53001W        W24727  37.381  19.729  10.591
53002W        W24728  12.184  27.134  13.313
53003W        W24729   6.840  13.012  10.926
53004W        W24730  25.335  15.203  14.316
53005W        W24731  42.623   8.285   3.184
53006W        W24732  44.076   1.867  12.949
53007W        W24733  17.371  21.042   4.167
53008W        W24734  17.769  20.331   1.515
53009W        W24735  33.832  17.274  11.884
53010W        W24736  33.013   9.975   2.711
53011W        W24737  31.041  30.837  12.490
53012W        W24738  38.821  41.553  12.912
53013W        W24739  29.037  14.721  13.499
53014W        W24740   2.560   8.230  10.769
53015W        W24741  40.633  33.941  12.750
53016W        W24742  11.262  21.544   0.862
53017W        W24743  18.545  15.062   4.176
53018W        W24744  18.751  14.832   3.633
53019W        W24745  39.824  17.629  12.466
53020W        W24746  33.592   4.895  13.986
53021W        W24747  17.021  32.645   2.471
53022W        W24748  43.514   9.361  10.623
53023W        W24749  34.065  27.215  11.620
53024W        W24750  10.761  44.536  11.215
53025W        W24751  30.389  31.483  11.562
53026W        W24752  35.673  26.982  11.433
53027W        W24753   5.857  44.868   1.396
53028W        W24754  12.894  27.074   1.869
53029W        W24755   2.197  36.973  14.417
53030W        W24756  26.056  10.236   1.310
53031W        W24757   5.334  35.838   2.148
53032W        W24758  18.382  15.534   5.018
53033W        W24759   7.620  12.804  12.883
53034W        W24760  35.598  19.682  11.682
53035W        W24761  12.898  39.863  13.510
53036W        W24762  38.979  36.789   2.399
53037W        W24763   6.350  25.146   2.328
53038W        W24764  18.519  42.886   3.562
53039W        W24765  39.103   4.394  10.906
53040W        W24766  37.592  29.947   0.435
53041W        W24767  31.901  29.180  12.009
53042W        W24768  12.357  25.715   4.052
53043W        W24769   9.356  36.244  14.418
53044W        W24770  36.613   5.354  10.962
53045W        W24771  22.655  14.805  11.690
53046W        W24772  33.068  44.321   1.220
53047W        W24773  14.255  26.859  12.497
53048W        W24774  21.458  41.789  10.999
53049W        W24775  30.961  41.561   2.381
53050W        W24776  28.088  28.220  11.001
53051W        W24777  44.993  12.789   2.012
53052W        W24778   2.446  21.125  13.482
53053W        W24779  15.103  42.341   0.967
53054W        W24780  41.578  42.119  13.060
53055W        W24781   2.490  39.953  12.476
53056W        W24782   7.746  16.495  10.608
53057W        W24783   5.027  26.088   3.077
53058W        W24784  23.602  24.521   2.395
53059W        W24785  41.557   4.536   5.064
53060W        W24786  21.042  34.149  13.866
53061W        W24787  21.447  41.362   4.626
53062W        W24788  30.706  12.041  13.708
53063W        W24789  17.571  40.646  12.979
53064W        W24790   8.716   1.451  13.414
53065W        W24791  24.563  12.587   0.902
53066W        W24792  12.725   1.480   2.291
53067W        W24793  17.775  35.388  13.112
53068W        W24794  15.321  13.689   4.747
53069W        W24795   9.326   3.445   0.484
53070W        W24796  25.463  11.531  11.900
53071W        W24797  34.322  11.373  10.843
53072W        W24798  10.649  37.720   3.693
53073W        W24799  12.049  41.508   4.488
53074W        W24800  44.479   0.030   3.619
53075W        W24801  33.083  38.708   0.944
53076W        W24802  21.516  38.587  14.441
53077W        W24803  27.403  15.658  10.122
53078W        W24804  18.803  21.171  12.052
53079W        W24805  15.660   9.204   2.428
53080W        W24806  14.132  10.274  14.544
53081W        W24807  33.584  14.165  14.037
53082W        W24808  13.830  37.902  12.380
53083W        W24809  20.086  15.679   0.810
53084W        W24810  31.103  42.291  13.870
53085W        W24811  44.797  23.680  12.610
53086W        W24812  35.556   9.890  12.018
53087W        W24813   0.035  34.543  14.849
53088W        W24814   2.276  13.205  12.940
53089W        W24815   0.443  24.606   0.860
53090W        W24816  37.452  30.071  14.953
53091W        W24817   3.789   3.168   2.811
53092W        W24818  24.078  27.142  11.214
53093W        W24819  25.638  11.378   0.970
53094W        W24820  15.143  19.561   0.930
53095W        W24821  24.737  39.911  11.580
53096W        W24822  27.903  18.264  14.874
53097W        W24823  25.924   8.494  10.685
53098W        W24824  43.498  35.290  14.894
53099W        W24825  11.754  11.175  12.845
53100W        W24826  16.155  32.182   2.950
53101W        W24827  10.965  40.521  10.987
53102W        W24828   4.419  27.564  13.391
53103W        W24829  16.719  26.884   1.834
53104W        W24830   8.680  39.441  10.441
53105W        W24831  12.759   4.204   2.282
53106W        W24832  38.870  17.294   2.752
53107W        W24833  10.815  27.439  10.665
53108W        W24834  25.663  19.752   2.257
53109W        W24835  19.066  41.461  13.051
53110W        W24836  39.104  36.732  14.720
53111W        W24837   7.964  37.675  14.973
53112W        W24838  29.895   7.689   0.050
53113W        W24839  22.740  28.108  12.835
53114W        W24840   5.445  25.508   1.061
53115W        W24841  28.201  12.581   4.566
53116W        W24842  30.992  12.275  11.270
53117W        W24843   3.649  27.139  12.443
53118W        W24844   1.814  44.058  14.868
53119W        W24845  37.803  41.547  11.194
53120W        W24846  36.037  14.593   1.179
53121W        W24847  39.207  41.296  10.196
53122W        W24848  36.971   6.322  10.412
53123W        W24849   2.109  41.061  14.949
53124W        W24850  13.759  43.059  11.642
53125W        W24851  41.264  35.866  11.674
53126W        W24852  11.423  39.459  11.959
53127W        W24853  12.572  11.681   3.091
53128W        W24854  18.182  11.148   4.498
53129W        W24855  44.272  14.313  12.047
53130W        W24856  42.116   8.968  10.492
53131W        W24857  13.550  31.017   1.358
53132W        W24858  37.419   2.929   4.700
53133W        W24859  18.683  22.475   4.605
53134W        W24860  44.113  10.442  12.130
53135W        W24861  17.102  11.268   2.930
53136W        W24862  13.328  18.260   0.354
53137W        W24863  19.964  17.553   4.514
53138W        W24864  42.908   8.403  12.401
53139W        W24865   8.716  19.060   1.742
53140W        W24866  37.510  32.714   3.375
53141W        W24867   1.358   3.850   1.516
53142W        W24868  39.318  36.426  14.123
53143W        W24869  25.043  24.831  10.701
53144W        W24870  42.214  38.620  12.940
53145W        W24871   4.254  34.063   4.266
53146W        W24872  43.461  20.586   4.186
53147W        W24873  26.173  27.261  10.606
53148W        W24874   4.933  40.795   1.298
53149W        W24875  39.580   5.838   1.278
53150W        W24876  41.548  39.039   3.773
53151W        W24877   9.965  38.442   4.909
53152W        W24878  40.304  43.887   2.092
53153W        W24879  39.476   8.299   2.773
53154W        W24880  24.388  13.364   0.248
53155W        W24881  38.044  23.596   3.669
53156W        W24882  29.489  37.618   9.845
53157W        W24883  33.155  21.923   3.156
53158W        W24884  32.499  41.761  14.007
53159W        W24885   0.028  26.119  14.087
53160W        W24886  19.496   4.345  12.136
53161W        W24887   0.809  38.273   3.216
53162W        W24888  32.435   9.363   0.682
53163W        W24889  11.645  32.150  12.197
53164W        W24890  24.154  10.844  10.623
53165W        W24891  16.277  28.964  14.793
53166W        W24892  34.401  19.251   3.143
53167W        W24893   4.693  42.559  11.717
53168W        W24894   3.793  31.178   4.832
53169W        W24895  15.996  28.238  11.606
53170W        W24896  40.017  30.347  14.511
53171W        W24897  43.387  12.191   0.558
53172W        W24898   1.714  37.286   1.776
53173W        W24899  27.391  17.270  12.356
53174W        W24900  29.332  10.907   1.354
53175W        W24901  24.556  13.631  10.619
53176W        W24902  29.303  40.522  12.155
53177W        W24903  36.018  23.954  11.341
53178W        W24904   4.500  19.539  12.762
53179W        W24905  26.480   9.718  10.676
53180W        W24906   3.790  11.122  14.897
53181W        W24907  18.320  42.007  12.994
53182W        W24908  19.710  19.390  13.364
53183W        W24909  13.273  12.744  10.780
53184W        W24910  32.001  20.115  13.789
53185W        W24911  40.423   4.776  11.689
53186W        W24912  23.213  17.591  13.022
53187W        W24913  33.410  28.205   1.686
53188W        W24914  31.877  20.714   4.797
53189W        W24915  11.347  29.533   3.212
53190W        W24916  22.985  20.674   4.600
53191W        W24917  27.967  33.906   3.952
53192W        W24918   7.376  24.760  12.873
53193W        W24919  13.749  26.060   2.887
53194W        W24920  28.570  25.502  11.208
53195W        W24921   5.961  30.452   0.152
53196W        W24922  43.748  35.593  14.540
53197W        W24923  31.821  10.037  10.085
53198W        W24924  21.447  15.130   3.407
53199W        W24925  24.879  29.603  14.060
53200W        W24926  33.444   2.905   2.428
53201W        W24927  26.756  23.418   3.770
53202W        W24928  39.006   9.576   0.864
53203W        W24929  35.428  35.791  11.083
53204W        W24930  14.817   3.007  14.331
53205W        W24931  27.237  24.715  14.054
53206W        W24932  28.928   9.889   0.745
53207W        W24933  13.569   3.668   0.004
53208W        W24934  25.066  31.655  13.543
53209W        W24935  42.346  19.564   0.467
53210W        W24936  36.801   3.154  12.632
53211W        W24937  12.207   7.755   0.313
53212W        W24938  24.164  25.766   5.051
53213W        W24939  36.466  40.431   4.639
53214W        W24940  10.045  33.003   3.642
53215W        W24941  20.209  15.424  14.921
53216W        W24942   9.355  27.537   0.748
53217W        W24943  31.412   5.972  10.414
53218W        W24944  20.744  13.467  11.864
53219W        W24945  27.722  43.804   2.243
53220W        W24946  13.592  22.136  14.792
53221W        W24947   1.431   3.403   3.267
53222W        W24948  35.637  43.290  12.320
53223W        W24949   2.446  40.820   4.641
53224W        W24950   3.200   4.885   0.902
53225W        W24951   8.037  31.346  13.956
53226W        W24952  38.640  32.161  14.914
53227W        W24953  32.532  29.847   4.976
53228W        W24954   5.068  17.123   2.176
53229W        W24955  13.639  12.706   3.856
53230W        W24956  14.354  43.523  11.216
53231W        W24957   7.923  12.734   3.886
53232W        W24958  14.702  18.763  11.185
53233W        W24959   4.610   5.421  13.821
53234W        W24960  15.350  14.573  13.849
53235W        W24961  19.722  38.883   1.381
53236W        W24962  36.158  23.130  14.574
53237W        W24963  34.150  15.494   3.196
53238W        W24964  19.515   6.795  13.829
53239W        W24965  10.487  25.190   9.786
53240W        W24966   1.797  33.436  12.370
53241W        W24967  44.196   0.579   4.701
53242W        W24968  25.435  11.637   4.585
53243W        W24969  24.181  19.801   2.150
53244W        W24970  32.335  33.856   2.332
53245W        W24971  40.351  22.472  14.084
53246W        W24972   0.264   1.030  12.368
53247W        W24973   8.432  33.874  14.172
53248W        W24974  31.165  36.812   3.470
53249W        W24975  25.109  13.258  14.347
53250W        W24976   1.111  38.046   1.443
53251W        W24977  44.282  25.696   4.129
53252W        W24978  25.308  20.218   3.276
53253W        W24979  24.969   0.325  11.031
53254W        W24980  21.187  17.509  11.954
53255W        W24981  30.520  40.352   0.139
53256W        W24982   2.154  39.024   4.606
53257W        W24983  31.938  12.856   4.690
53258W        W24984  37.411   3.854  10.963
53259W        W24985   3.002  38.302   2.424
53260W        W24986  17.777   8.346  14.463
53261W        W24987   6.471   8.128  13.802
53262W        W24988  41.590  44.924  13.878
53263W        W24989  20.364  17.733  11.609
53264W        W24990  24.720  15.757  13.981
53265W        W24991   1.934   0.104   3.048
53266W        W24992  19.943  43.951   3.281
53267W        W24993   8.501  36.834  10.493
53268W        W24994  23.612  11.610  13.769
53269W        W24995  16.679  37.791  14.369
53270W        W24996  35.593  18.059   0.435
53271W        W24997   1.516  25.282  14.374
53272W        W24998   5.410  26.037   3.422
53273W        W24999  29.788  23.848  10.152
53274W        W25000  37.003  13.354   4.622
53275W        W25001  42.734  29.667   2.738
53276W        W25002  20.893  11.761   0.085
53277W        W25003   3.378   6.160   3.262
53278W        W25004   3.891   2.028   1.993
53279W        W25005  40.987  37.011  14.242
53280W        W25006  24.556  24.637   0.181
53281W        W25007  26.930  39.542   2.421
53282W        W25008  32.896  11.165   1.874
53283W        W25009  16.101  27.000  13.577
53284W        W25010  36.455  16.770  14.547
53285W        W25011  27.938  24.191   2.447
53286W        W25012   6.543  15.745  12.048
53287W        W25013  10.956  39.482   2.924
53288W        W25014  38.941  41.545   0.868
53289W        W25015  33.910  29.451   0.220
53290W        W25016  20.822  20.129  11.146
53291W        W25017  44.497  42.784  12.919
53292W        W25018  31.391   3.134  12.260
53293W        W25019  25.980  27.867   2.129
53294W        W25020  32.853  44.027   3.603
53295W        W25021  25.662  12.889  13.416
53296W        W25022  17.621  42.850   3.645
53297W        W25023  28.412  34.805  14.904
53298W        W25024  16.928  37.887  13.377
53299W        W25025  44.003  24.888  11.555
53300W        W25026  10.592  40.331   0.518
53301W        W25027  42.403  17.492   3.777
53302W        W25028  38.680  18.827  12.497
53303W        W25029  42.030  23.730  10.191
53304W        W25030  13.680  14.731   3.224
53305W        W25031  33.952  17.043  14.079
53306W        W25032  22.664  28.569  14.056
53307W        W25033  34.631  18.496   1.401
53308W        W25034   4.440   4.802   1.481
53309W        W25035  16.711   8.951   4.537
53310W        W25036   6.484  34.385  13.774
53311W        W25037  28.429  19.808  10.998
53312W        W25038  31.142  14.389  12.447
53313W        W25039  36.567  39.894  14.572
53314W        W25040  34.028  36.618  12.885
53315W        W25041  29.106  29.971   0.424
53316W        W25042  30.511  29.467   0.482
53317W        W25043   5.800   2.865   1.391
53318W        W25044  14.119  19.163   3.517
53319W        W25045  35.671  40.534   1.197
53320W        W25046  11.371  14.230  12.779
53321W        W25047   6.823  40.205   2.734
53322W        W25048   2.856  13.436   1.298
53323W        W25049  37.571   4.290  10.708
53324W        W25050  20.656  43.449  12.617
53325W        W25051  37.377  36.790   0.246
53326W        W25052   3.811   4.436  14.423
53327W        W25053   7.737  18.121  11.638
53328W        W25054  36.988  19.522  13.856
53329W        W25055  38.334  20.117  13.243
53330W        W25056  40.398   4.927  13.864
53331W        W25057  24.189  33.500  14.561
53332W        W25058  40.657  33.590   4.924
53333W        W25059  39.052  28.576   4.514
53334W        W25060  19.947   2.064  12.160
53335W        W25061   9.434  29.432  10.791
53336W        W25062  26.410  32.258  11.246
53337W        W25063  16.653  17.727   0.343
53338W        W25064  18.200  34.427  13.056
53339W        W25065  12.854  24.016  12.204
53340W        W25066  36.324  41.994   4.768
53341W        W25067  29.302  41.916   2.475
53342W        W25068  42.418  12.299  12.619
53343W        W25069  33.722   2.500   2.189
53344W        W25070  20.704   6.139  11.529
53345W        W25071   1.332  14.410   3.415
53346W        W25072  13.262  30.139  13.274
53347W        W25073  21.078  25.524  14.164
53348W        W25074  34.134  18.658  14.803
53349W        W25075   6.236  27.042   3.344
53350W        W25076  24.935   7.739  11.408
53351W        W25077  24.758   2.008   1.327
53352W        W25078  38.792  27.976  11.980
53353W        W25079  28.021  13.339   2.434
53354W        W25080  26.541  37.109  14.591
53355W        W25081  27.554  43.887   1.763
53356W        W25082  27.489  44.039  12.482
53357W        W25083  19.057  17.702   0.843
53358W        W25084  37.734  15.224   3.204
53359W        W25085  19.664  27.185  10.634
53360W        W25086   7.381  35.493  10.472
53361W        W25087  10.793  22.562   2.824
53362W        W25088  29.224   1.896  14.931
53363W        W25089  31.921  24.579   3.629
53364W        W25090  33.492  42.849  11.635
53365W        W25091  41.344   1.794  13.943
53366W        W25092   7.378  15.175  13.431
53367W        W25093  27.383  20.346   3.974
53368W        W25094  36.566  10.788   1.367
53369W        W25095   0.667  11.656   2.118
53370W        W25096  33.445   0.476   0.480
53371W        W25097  10.484   2.507  10.410
53372W        W25098  26.621  31.965   4.677
53373W        W25099  43.457  40.453  10.712
53374W        W25100  10.810  29.218   0.223
53375W        W25101  43.618  14.374   5.069
53376W        W25102  40.595   2.856  11.989
53377W        W25103  40.900  12.263   1.733
53378W        W25104  43.889  31.112  14.206
53379W        W25105   4.885  12.662  12.931
53380W        W25106   5.846   7.347  10.737
53381W        W25107  16.787  29.425   2.940
53382W        W25108   2.968   9.446   2.333
53383W        W25109  39.191  21.892   2.700
53384W        W25110  26.929  19.181  13.338
53385W        W25111  20.812  33.677  13.709
53386W        W25112   3.628  21.741  11.074
53387W        W25113  44.946  12.103  11.137
53388W        W25114  11.614  33.390  10.989
53389W        W25115  42.761   5.509   1.177
53390W        W25116  30.649  33.376  11.009
53391W        W25117   3.892  23.951   1.123
53392W        W25118   6.787   2.806   0.303
53393W        W25119  36.805  23.136   0.405
53394W        W25120  20.332  41.209   4.688
53395W        W25121   7.971  12.832  13.284
53396W        W25122   1.891  24.911   3.155
53397W        W25123  22.303   7.802   1.720
53398W        W25124   4.881  15.526  13.308
53399W        W25125  27.007  22.113   3.126
53400W        W25126  24.910  20.115  14.747
53401W        W25127  10.271  33.583   1.349
53402W        W25128  39.002  18.629   3.766
53403W        W25129  25.242  36.888  13.923
53404W        W25130  22.107   6.446   4.176
53405W        W25131  25.120   1.379  14.347
53406W        W25132   2.411  28.119   0.704
53407W        W25133  29.934  20.437   3.586
53408W        W25134  25.594  30.676  14.321
53409W        W25135  40.373  20.457   2.402
53410W        W25136  44.724  11.904   1.870
53411W        W25137  25.805  16.306  10.594
53412W        W25138   7.215  25.025  13.323
53413W        W25139  26.132  12.588   3.743
53414W        W25140  21.186  30.667  10.809
53415W        W25141  37.973  34.433  13.193
53416W        W25142  20.579  34.381  11.434
53417W        W25143   6.765   7.637  12.520
53418W        W25144  14.382   7.616   2.613
53419W        W25145  36.839  21.852  11.871
53420W        W25146  33.726  39.041  12.790
53421W        W25147  32.034  39.335  12.410
53422W        W25148  42.518  40.028  13.152
53423W        W25149  38.880  16.197  14.895
53424W        W25150  39.719  42.748  12.003
53425W        W25151  11.258  20.544   2.774
53426W        W25152  44.615  35.057  11.550
53427W        W25153  28.816  44.908  10.751
53428W        W25154  29.245   0.393   4.654
53429W        W25155  30.374  18.344  12.668
53430W        W25156  19.645  40.822  11.578
53431W        W25157  18.076  42.605   4.392
53432W        W25158  15.642  24.129   2.164
53433W        W25159  25.527  15.819   1.878
53434W        W25160  12.274  17.139  10.706
53435W        W25161  27.442  31.009   2.742
53436W        W25162  33.560  21.233  10.638
53437W        W25163   0.264   2.239   0.797
53438W        W25164  26.423  15.286   0.497
53439W        W25165  24.955  24.668   4.093
53440W        W25166  10.364  32.807   1.715
53441W        W25167  11.737  19.323   2.365
53442W        W25168  29.150  15.356  11.806
53443W        W25169  16.624  44.578  14.277
53444W        W25170   1.880  33.651  11.914
53445W        W25171  14.773  40.272   3.715
53446W        W25172  43.192  21.293   1.950
53447W        W25173  23.815   8.118   2.886
53448W        W25174   2.957  40.493   1.721
53449W        W25175  43.759  37.894   1.654
53450W        W25176   7.699  33.462   3.752
53451W        W25177  40.677   0.856   5.057
53452W        W25178  34.122  37.477  11.635
53453W        W25179  38.309  38.877  14.302
53454W        W25180  36.695   8.768  14.781
53455W        W25181   3.027  31.401   1.341
53456W        W25182  12.367  19.529  12.403
53457W        W25183   8.798  10.345  10.417
53458W        W25184  29.907  25.809  12.522
53459W        W25185  20.594  27.547  12.976
53460W        W25186  34.185  32.714  14.389
53461W        W25187  42.240   4.840  11.068
53462W        W25188  29.928   5.692  12.080
53463W        W25189  33.613  32.275   3.630
53464W        W25190  19.472  39.394  12.695
53465W        W25191  30.515  23.131  10.533
53466W        W25192   5.754  32.838  12.532
53467W        W25193  14.818  42.519   4.661
53468W        W25194   2.255  22.021  11.693
53469W        W25195  18.356  39.416   1.457
53470W        W25196  15.182  10.151   1.353
53471W        W25197  23.562  35.520  12.990
53472W        W25198  37.942  33.600  11.100
53473W        W25199   5.947  15.646   1.281
53474W        W25200   9.426   7.086  14.300
53475W        W25201  40.632   7.701   4.582
53476W        W25202  36.933   0.910   4.197
53477W        W25203  37.060  13.918   3.331
53478W        W25204  23.649   9.211   4.158
53479W        W25205  23.034  14.597  10.726
53480W        W25206  35.069   7.867  14.863
53481W        W25207   3.362  13.651  12.086
53482W        W25208   2.871  33.349  10.532
53483W        W25209  16.442   6.796  11.908
53484W        W25210  20.606  30.512  12.368
53485W        W25211   8.866   7.199   1.836
53486W        W25212  44.785  42.816   2.284
53487W        W25213  43.943  27.754   1.607
53488W        W25214  12.112  16.037  14.982
53489W        W25215  26.393  30.130   3.328
53490W        W25216   7.460  37.573   1.461
53491W        W25217  41.843  42.214   4.675
53492W        W25218  38.104   2.338   2.858
53493W        W25219   7.437  24.930  14.746
53494W        W25220  25.262  10.665  14.075
53495W        W25221  32.027  31.726  14.049
53496W        W25222  25.617  27.422   2.761
53497W        W25223  41.083  38.872   2.914
53498W        W25224  18.624  35.452   0.003
53499W        W25225  23.560  27.210   4.945
53500W        W25226  24.380  33.511  10.609
53501W        W25227   6.985  37.598   1.259
53502W        W25228  23.492  30.601  11.947
53503W        W25229  37.483  27.553  12.469
53504W        W25230  21.515  27.480  13.341
53505W        W25231  22.647  27.602   2.740
53506W        W25232  14.659  19.311   2.415
53507W        W25233  19.572  14.844  11.680
53508W        W25234  32.992  42.274   4.931
53509W        W25235  31.113  14.735  10.717
53510W        W25236   6.481  12.719   2.926
53511W        W25237  25.488  20.240   0.814
53512W        W25238  18.608  36.553  14.838
53513W        W25239  33.237  34.851   3.330
53514W        W25240  42.907  35.899  11.236
53515W        W25241  32.376  20.542   1.271
53516W        W25242  44.956   2.875   4.588
53517W        W25243  13.136  14.725  14.449
53518W        W25244  29.477  10.205  14.010
53519W        W25245   0.448  33.297  14.811
53520W        W25246  37.482  19.689   0.957
53521W        W25247  42.018  38.890  13.341
53522W        W25248  36.545  44.766   1.352
53523W        W25249  35.430  33.086   0.352
53524W        W25250  23.746   5.794   1.785
53525W        W25251  21.114   0.393  12.986
53526W        W25252  36.416  38.874  13.136
53527W        W25253  37.520  29.629  13.334
53528W        W25254  29.038  37.937   3.163
53529W        W25255  35.780  43.245   2.757
53530W        W25256   5.393  10.624   3.813
53531W        W25257  35.808   4.457  12.321
53532W        W25258  19.774   9.393  11.908
53533W        W25259  34.938   2.929   3.073
53534W        W25260   9.685  11.576  13.119
53535W        W25261  19.773  23.958  14.011
53536W        W25262  44.340  24.179  14.750
53537W        W25263   4.880  21.498  14.041
53538W        W25264  34.122  44.188   1.763
53539W        W25265  42.658  12.222  14.167
53540W        W25266  31.347  21.136  10.474
53541W        W25267  30.424  41.604  11.864
53542W        W25268   5.651   1.975   4.105
53543W        W25269  12.796  21.151  14.855
53544W        W25270  36.094  39.595   0.526
53545W        W25271  36.059  27.710  12.892
53546W        W25272  26.949  12.090   3.688
53547W        W25273  16.713   6.106  14.071
53548W        W25274  11.127  26.989   1.211
53549W        W25275  21.242  33.004   0.866
53550W        W25276  36.295  21.262   1.884
53551W        W25277   4.828  13.277  10.779
53552W        W25278  42.819  19.549   0.723
53553W        W25279  20.859  37.125   1.284
53554W        W25280   2.952   9.795   2.830
53555W        W25281   1.056  40.303   1.861
53556W        W25282  41.955  10.127  11.111
53557W        W25283  19.907   1.295  11.698
53558W        W25284  33.527  24.523  11.461
53559W        W25285  21.336  41.806   2.424
53560W        W25286  25.787  38.646   2.643
53561W        W25287   1.960   6.195  10.737
53562W        W25288  28.476   9.317  11.672
53563W        W25289  38.473  23.480  14.501
53564W        W25290  37.291  25.243   3.907
53565W        W25291  37.728  24.951   4.087
53566W        W25292  23.399   7.873  14.275
53567W        W25293  18.175  37.398  14.314
53568W        W25294  18.218  16.942  12.371
53569W        W25295  29.487   7.571   4.453
53570W        W25296  44.032  37.870  14.744
53571W        W25297   8.320   3.476  13.992
53572W        W25298  40.941  19.417  11.526
53573W        W25299  14.721  25.893   2.781
53574W        W25300   2.287  43.361   0.912
53575W        W25301  21.082  32.357  14.000
53576W        W25302  22.912  18.247   4.425
53577W        W25303  20.279  25.861  12.480
53578W        W25304  20.687   1.217  14.903
53579W        W25305  34.690  24.716   0.732
53580W        W25306   0.448  38.498  13.142
53581W        W25307  19.563  10.165  13.477
53582W        W25308  30.830  34.093   3.275
53583W        W25309   9.639  13.397   2.908
53584W        W25310  22.653  30.876  14.840
53585W        W25311  29.638  33.784  13.471
53586W        W25312  33.387  43.435  10.960
53587W        W25313   8.094  26.704   1.302
53588W        W25314   9.292  32.112  13.397
53589W        W25315  14.904  29.044  11.312
53590W        W25316   6.190  15.547   0.345
53591W        W25317  38.074  30.384  14.319
53592W        W25318  24.521  43.835  14.918
53593W        W25319  24.904  14.645   3.891
53594W        W25320   2.947  20.449  13.979
53595W        W25321  35.873  13.339   4.604
53596W        W25322  16.954  10.921   0.261
53597W        W25323  10.182   7.579  14.330
53598W        W25324  22.766  41.987   0.824
53599W        W25325   2.263   9.781   4.512
53600W        W25326  31.138  12.746  11.391
53601W        W25327  18.386  21.770   0.620
53602W        W25328   5.315  30.059   1.038
53603W        W25329  26.339  36.417  13.531
53604W        W25330   8.397   2.726  10.671
53605W        W25331  25.941  28.947  11.378
53606W        W25332  44.688  33.317  11.167
53607W        W25333  43.016  44.476   0.363
53608W        W25334  38.820  42.019  12.694
53609W        W25335  34.329   0.054  14.434
53610W        W25336  14.654   4.161   3.310
53611W        W25337  12.608  35.508  11.202
53612W        W25338  11.626  23.004   2.632
53613W        W25339   8.096  11.374  12.163
53614W        W25340  35.390  15.527  13.073
53615W        W25341  21.317  11.626  11.057
53616W        W25342  40.380  31.343   0.479
53617W        W25343  25.641  34.957  12.604
53618W        W25344   2.324   2.251  14.927
53619W        W25345  19.644  34.639  12.885
53620W        W25346  43.143   9.622   3.156
53621W        W25347  24.064   0.407   5.075
53622W        W25348  29.232  25.288   4.962
53623W        W25349  10.690  26.614   3.209
53624W        W25350  27.003   1.473   3.190
53625W        W25351  21.088  44.495  11.958
53626W        W25352  26.750   5.387  10.699
53627W        W25353  31.623  18.331   3.304
53628W        W25354  21.660  15.140   9.745
53629W        W25355  28.380   4.310  14.523
53630W        W25356  34.104   3.072   3.633
53631W        W25357  23.508   6.886   0.259
53632W        W25358  33.556  17.164   2.645
53633W        W25359  31.534  12.759  10.584
53634W        W25360  41.198  18.601  13.808
53635W        W25361   8.725  36.401  11.383
53636W        W25362  28.505  31.736   1.845
53637W        W25363  19.609   4.703   2.785
53638W        W25364   0.569  11.047  12.468
53639W        W25365  33.086  14.072  12.963
53640W        W25366  38.735  34.427  14.940
53641W        W25367  18.739  43.786   4.218
53642W        W25368  29.464  32.652  11.903
53643W        W25369  27.984  16.464   0.375
53644W        W25370  43.055  17.067   2.417
53645W        W25371  28.819   7.611  12.367
53646W        W25372  13.716  27.920   5.011
53647W        W25373  33.646  10.294  10.875
53648W        W25374  43.281   7.712   0.640
53649W        W25375  27.692  32.313   4.634
53650W        W25376  24.011  21.973  11.126
53651W        W25377  12.910   6.899  12.162
53652W        W25378   8.889  23.544   0.689
53653W        W25379  20.477  33.327  11.101
53654W        W25380   3.980   1.876  14.395
53655W        W25381   9.228  10.488   2.156
53656W        W25382  28.005  44.021  10.585
53657W        W25383  29.967  10.623   4.505
53658W        W25384  11.878  43.439  12.006
53659W        W25385  37.970  17.530   0.322
53660W        W25386  35.151  23.488   3.204
53661W        W25387   6.449  33.179   3.153
53662W        W25388  36.283   1.940   1.896
53663W        W25389  18.740  19.797  13.377
53664W        W25390   5.340  15.026   1.863
53665W        W25391  18.723  31.156  13.351
53666W        W25392  30.461  31.839   0.339
53667W        W25393  38.505  14.259   0.970
53668W        W25394   6.590   4.786  12.349
53669W        W25395  14.251  34.590   3.228
53670W        W25396  43.054  42.729   4.127
53671W        W25397  20.683   7.975   3.619
53672W        W25398  30.954  23.308  10.230
53673W        W25399  22.945   3.783  11.952
53674W        W25400  13.658  38.433   3.035
53675W        W25401  17.909  43.321   3.894
53676W        W25402  15.881  30.709  11.173
53677W        W25403  31.282  13.343   4.594
53678W        W25404  13.024  30.935   1.352
53679W        W25405   3.177  15.222  10.472
53680W        W25406   6.333   2.587   0.131
53681W        W25407  37.082  31.511   0.744
53682W        W25408  23.184  23.296  13.342
53683W        W25409  30.519  24.671   3.797
53684W        W25410  25.548  25.765  13.985
53685W        W25411  32.517  19.568   4.959
53686W        W25412   2.784   4.762   1.924
53687W        W25413  30.649  17.755   1.943
53688W        W25414  25.927  33.802   1.861
53689W        W25415  15.070   5.253  12.251
53690W        W25416  30.070  16.341   1.655
53691W        W25417   5.152  26.969  13.514
53692W        W25418  38.092  44.572   4.181
53693W        W25419  30.359  14.772   1.340
53694W        W25420  14.147  30.591  12.214
53695W        W25421  19.246  18.014  14.448
53696W        W25422  24.179  14.737  13.374
53697W        W25423  23.256  24.337   4.782
53698W        W25424  29.670   2.276   1.100
53699W        W25425  42.118  11.627  11.896
53700W        W25426  13.357  23.482   2.902
53701W        W25427  26.503   9.673  12.788
53702W        W25428  16.253   1.445  13.934
53703W        W25429  41.353   5.354  12.395
53704W        W25430  43.391  17.951  11.950
53705W        W25431  15.180  19.604  14.600
53706W        W25432  25.688   3.870  12.047
53707W        W25433  29.703  10.993  10.887
53708W        W25434   0.018   5.407  11.163
53709W        W25435   0.574   0.430   3.121
53710W        W25436  39.378  37.367  10.816
53711W        W25437   3.233  37.965   2.036
53712W        W25438  15.238  20.056   0.793
53713W        W25439  23.292   1.934  11.310
53714W        W25440  19.103   2.840   2.439
53715W        W25441  38.883  39.506   0.880
53716W        W25442  29.609  28.016   1.031
53717W        W25443  42.933  44.074  12.178
53718W        W25444   3.824  16.711  11.153
53719W        W25445  36.000  23.263   2.183
53720W        W25446  13.708   2.419   2.289
53721W        W25447  15.293  11.629  12.421
53722W        W25448  39.841  32.700   0.398
53723W        W25449   9.449   9.399  12.017
53724W        W25450  12.377  30.742  12.976
53725W        W25451  10.227  38.532  13.481
53726W        W25452  25.835  21.755   1.340
53727W        W25453  22.016   1.267  12.138
53728W        W25454   2.343  25.599   3.642
53729W        W25455   5.723  36.405   0.861
53730W        W25456  13.159  16.198   0.439
53731W        W25457  15.607  10.628  14.955
53732W        W25458  33.118  22.713  14.357
53733W        W25459   6.530  16.082  13.872
53734W        W25460   4.438   9.167  14.928
53735W        W25461  13.172   3.979  14.785
53736W        W25462   2.367   0.369   1.598
53737W        W25463  14.779   5.109  11.430
53738W        W25464  32.903  29.304  13.882
53739W        W25465  16.155  44.764   0.548
53740W        W25466  21.783   5.424  11.963
53741W        W25467   7.818  21.501   2.381
53742W        W25468  28.437  29.697  11.554
53743W        W25469   0.016  18.643  13.040
53744W        W25470  40.406  36.607  14.780
53745W        W25471  34.554  23.470  12.244
53746W        W25472   8.490  18.711   3.515
53747W        W25473   6.667  24.338  11.086
53748W        W25474  27.127  39.888   4.152
53749W        W25475  44.330   2.351   2.607
53750W        W25476  37.171   6.297   0.207
53751W        W25477  14.708  36.805  14.866
53752W        W25478  44.506   9.469  12.514
53753W        W25479  21.717  31.907   1.543
53754W        W25480   8.810   1.929   4.661
53755W        W25481  19.668  21.110   1.200
53756W        W25482  30.126  38.968  13.377
53757W        W25483  33.786   4.894  10.459
53758W        W25484   8.131  30.129  11.136
53759W        W25485  32.426  16.019   3.684
53760W        W25486  13.414  41.685  11.555
53761W        W25487  30.448  39.411   2.811
53762W        W25488  41.723  20.188  14.352
53763W        W25489  21.192  31.569   2.246
53764W        W25490  20.363  12.143   0.761
53765W        W25491  28.673  26.793  11.591
53766W        W25492  35.889  14.057   1.813
53767W        W25493  43.565  39.082   3.910
53768W        W25494   7.244   8.963   3.481
53769W        W25495  16.611  26.555   4.584
53770W        W25496  24.628  42.005  14.468
53771W        W25497   5.182  18.424  12.131
53772W        W25498  21.544   3.737  13.016
53773W        W25499  25.009  27.529   2.384
53774W        W25500  33.210  43.300   4.761
53775W        W25501  19.623  12.915  14.517
53776W        W25502  17.810  10.433  11.156
53777W        W25503  19.194   4.268   4.580
53778W        W25504  24.675  15.298   0.874
53779W        W25505  11.279  30.598   2.180
53780W        W25506  12.857   9.807  10.633
53781W        W25507  39.299  27.634  12.878
53782W        W25508  43.879   7.363   3.237
53783W        W25509   1.104   2.258   1.387
53784W        W25510  15.803  41.594   4.366
53785W        W25511  22.450  19.243   2.549
53786W        W25512  21.037   9.132   2.153
53787W        W25513  29.678  26.016   4.816
53788W        W25514  15.031  27.561   1.303
53789W        W25515  39.004  35.078   1.030
53790W        W25516  15.568   2.985   1.347
53791W        W25517  35.515  27.628   3.944
53792W        W25518   2.462  39.689  14.818
53793W        W25519  26.258  29.654   4.591
53794W        W25520  32.104  33.111  11.229
53795W        W25521  40.825   0.730  10.800
53796W        W25522  42.677   7.977   2.758
53797W        W25523  21.665  16.355   1.407
53798W        W25524   5.696  34.809   4.500
53799W        W25525  15.741   2.858   3.151
53800W        W25526   5.864  24.663  10.986
53801W        W25527   1.669   2.260  10.637
53802W        W25528  30.862  22.214  10.799
53803W        W25529  17.136   7.236   3.144
53804W        W25530  30.072   4.064   1.711
53805W        W25531  20.825  35.947  10.680
53806W        W25532  27.147  14.026  10.279
53807W        W25533  26.038   1.835   3.352
53808W        W25534   7.980  35.873   1.387
53809W        W25535  31.836   1.911   3.083
53810W        W25536  44.169  32.159   5.124
53811W        W25537  43.583  40.450  13.478
53812W        W25538   8.855  44.015   3.566
53813W        W25539  21.012   9.413  13.643
53814W        W25540   0.804  35.295  13.298
53815W        W25541  35.415  28.498   2.528
53816W        W25542   4.287  41.436   0.395
53817W        W25543  12.277  22.800  13.910
53818W        W25544  19.289  17.642  13.884
53819W        W25545  28.384  17.579  14.779
53820W        W25546   0.160  14.913   1.267
53821W        W25547  14.280  43.741  14.949
53822W        W25548  31.873   6.402  11.617
53823W        W25549  32.563  13.576   4.427
53824W        W25550  41.595   1.775  14.838
53825W        W25551  38.327  37.678   3.834
53826W        W25552  31.376  41.770  11.605
53827W        W25553  42.258  12.720   1.729
53828W        W25554  20.048   4.942  14.008
53829W        W25555   0.511  19.394   3.322
53830W        W25556  19.104  13.523  13.102
53831W        W25557   6.342  24.184   4.536
53832W        W25558  22.546  18.800   0.927
53833W        W25559  15.101  22.920   2.716
53834W        W25560  22.954   0.329   0.999
53835W        W25561  30.561  41.314  12.468
53836W        W25562  34.227  11.272   3.063
53837W        W25563  42.225  21.722  13.939
53838W        W25564  44.292  13.661   4.346
53839W        W25565  20.716  10.252   2.085
53840W        W25566  41.124   9.428  12.548
53841W        W25567  11.694  34.878   1.260
53842W        W25568  11.461  20.445   4.217
53843W        W25569  11.556   4.154   4.141
53844W        W25570  17.111  32.990   1.688
53845W        W25571  31.468  44.754   2.341
53846W        W25572  23.053   8.739  12.043
53847W        W25573  34.992  17.297  11.243
53848W        W25574  16.899  14.747  12.272
53849W        W25575  30.998  11.896   1.269
53850W        W25576  21.905  12.360  14.674
53851W        W25577  28.647  35.941  13.217
53852W        W25578   4.287   9.620  10.740
53853W        W25579  42.344  30.923   1.149
53854W        W25580   5.242  14.868  10.699
53855W        W25581  26.038  25.938  14.180
53856W        W25582  33.021  27.702  12.388
53857W        W25583  12.048  25.063   4.642
53858W        W25584  41.854   6.956   4.604
53859W        W25585  36.067  24.511   0.960
53860W        W25586  20.401  18.188   1.788
53861W        W25587  44.543   1.863   2.678
53862W        W25588   2.799  17.505   3.198
53863W        W25589  42.676   0.115  11.222
53864W        W25590  40.523  13.885  14.351
53865W        W25591  16.244  39.790  13.499
53866W        W25592  44.765   6.636  14.332
53867W        W25593   8.303  26.352  10.631
53868W        W25594   3.775   0.486  12.016
53869W        W25595  26.466  24.014   0.652
53870W        W25596  24.957  22.564  10.435
53871W        W25597  33.467  15.209  10.520
53872W        W25598  20.633  20.280  10.680
53873W        W25599  38.968   9.891   1.772
53874W        W25600   9.240   0.410   1.824
53875W        W25601  13.656  29.879  13.484
53876W        W25602  33.023  30.508  12.055
53877W        W25603  17.730   7.482   2.803
53878W        W25604  19.569   8.057  11.996
53879W        W25605  43.260  22.602  12.563
53880W        W25606  18.347  39.547   2.224
53881W        W25607  34.924  24.086   4.217
53882W        W25608   9.831   2.899  12.125
53883W        W25609  39.115  14.288  11.058
53884W        W25610  18.079   1.723  14.499
53885W        W25611  24.195  22.223  10.689
53886W        W25612  22.203   5.895   4.379
53887W        W25613   6.492  27.450  11.643
53888W        W25614  39.357  40.494   1.005
53889W        W25615   9.331  41.952  13.974
53890W        W25616   2.241  25.910  14.009
53891W        W25617  28.123  17.203  12.131
53892W        W25618  43.721  11.339  12.512
53893W        W25619  42.808   0.995   4.596
53894W        W25620  43.385  22.326  13.487
53895W        W25621  24.400  37.375  13.270
53896W        W25622  13.257   6.389   0.864
53897W        W25623   1.864  30.114   0.192
53898W        W25624  39.315   6.868  13.955
53899W        W25625  30.997   3.897   1.258
53900W        W25626  24.180  36.921  14.575
53901W        W25627  42.104  25.077   2.967
53902W        W25628  32.298  30.606  14.872
53903W        W25629  25.179  19.769   0.017
53904W        W25630  26.302   0.425   5.436
53905W        W25631  32.434  17.138  13.192
53906W        W25632  14.048  11.392   2.022
53907W        W25633   5.233  14.811   2.832
53908W        W25634   1.473  29.404  13.888
53909W        W25635  15.694  38.670  14.488
53910W        W25636   8.771  31.474  10.718
53911W        W25637  26.186  21.760  13.807
53912W        W25638   8.615   0.168   2.700
53913W        W25639  24.183  29.717   4.128
53914W        W25640   4.244   2.394  14.317
53915W        W25641  34.585  32.170  14.959
53916W        W25642  44.400  11.651   2.206
53917W        W25643  31.401   8.724   1.384
53918W        W25644  34.118  22.153  13.016
53919W        W25645  17.067  10.570   1.458
53920W        W25646  22.350  30.379  14.357
53921W        W25647  31.646  13.065   3.731
53922W        W25648  43.290   4.269   1.096
53923W        W25649   1.412  22.088  14.314
53924W        W25650  34.816  12.435  14.176
53925W        W25651  23.214  16.098   1.331
53926W        W25652   8.000  42.263  12.509
53927W        W25653  15.571  11.868  13.427
53928W        W25654  32.944  43.959  12.787
53929W        W25655  25.968  16.353   2.236
53930W        W25656  35.824  18.488   0.600
53931W        W25657  29.704   7.204   2.285
53932W        W25658  30.788  34.558  12.558
53933W        W25659  13.209   5.408   0.644
53934W        W25660  13.620  42.370   1.911
53935W        W25661  19.289  21.595  12.679
53936W        W25662  42.507  30.335   4.807
53937W        W25663  38.926  12.301  11.864
53938W        W25664  23.147  16.052   0.437
53939W        W25665  34.755  29.331   1.180
53940W        W25666   9.218  40.938  12.961
53941W        W25667   8.793  12.431   1.258
53942W        W25668  27.452  10.197   4.530
53943W        W25669  21.066  20.688  10.667
53944W        W25670  11.670  30.709   1.539
53945W        W25671   7.691   0.037   2.875
53946W        W25672  21.255  31.951   0.230
53947W        W25673  31.368   9.798  13.731
53948W        W25674   6.375  14.087   3.299
53949W        W25675  23.321  32.688  12.324
53950W        W25676  32.704  22.241  12.094
53951W        W25677  19.605  17.169   0.217
53952W        W25678   4.541  39.187   2.197
53953W        W25679  36.061  43.568  12.115
53954W        W25680  39.323  25.765  12.378
53955W        W25681  30.741  13.101   2.212
53956W        W25682  13.176   0.743   4.531
53957W        W25683  14.203  35.115  13.432
53958W        W25684   5.089  40.000   2.375
53959W        W25685  41.368  38.269   4.506
53960W        W25686   2.703  15.286  11.148
53961W        W25687  16.316  22.671   4.170
53962W        W25688  22.599  37.629  14.801
53963W        W25689  27.495   5.236  12.472
53964W        W25690  34.954  15.770  11.095
53965W        W25691  10.581  12.448   2.834
53966W        W25692  22.391  25.970  10.354
53967W        W25693   5.795  19.250  11.880
53968W        W25694  43.209  27.444  13.055
53969W        W25695  29.558  31.651  11.178
53970W        W25696  12.328  10.984   2.404
53971W        W25697  39.914  18.476   0.716
53972W        W25698  10.168  40.527   4.154
53973W        W25699  34.366  14.336   3.838
53974W        W25700  18.155  12.232  12.344
53975W        W25701   4.515  39.614   1.747
53976W        W25702  42.986  17.144   0.238
53977W        W25703   4.391  23.725  14.457
53978W        W25704  22.074   8.425   1.234
53979W        W25705  19.516   6.606  11.166
53980W        W25706  23.570  39.266  14.683
53981W        W25707  30.772  11.325  14.503
53982W        W25708  33.562  11.346  10.395
53983W        W25709  32.161  42.514   2.598
53984W        W25710  24.155   0.097  10.637
53985W        W25711  35.847  36.940   3.241
53986W        W25712  26.628  40.052  12.967
53987W        W25713  27.162  34.002   2.701
53988W        W25714  16.707  38.769   3.047
53989W        W25715  19.033  34.050  10.593
53990W        W25716  15.278  15.142  13.135
53991W        W25717  24.942   3.871  12.388
53992W        W25718   8.869   8.938  12.006
53993W        W25719  31.506  29.399  11.538
53994W        W25720  28.150  37.653   1.756
53995W        W25721  16.878   0.290   4.710
53996W        W25722  19.235  24.341   2.323
53997W        W25723  11.840  24.753  12.599
53998W        W25724  26.468  20.053   0.482
53999W        W25725   2.874  20.220   2.269
54000W        W25726  44.792  24.713   0.257
54001W        W25727  40.285   3.405   5.029
54002W        W25728  29.464  43.505  11.675
54003W        W25729  20.446  33.457  12.396
54004W        W25730   4.629   4.350   0.025
54005W        W25731   5.858   1.290  11.807
54006W        W25732  13.778  27.131  12.535
54007W        W25733  41.745  16.135  11.914
54008W        W25734   1.858  37.580   0.794
54009W        W25735  23.267  16.657  13.980
54010W        W25736  17.040  18.569  13.980
54011W        W25737  19.770  43.718  14.903
54012W        W25738  15.076  43.157   0.336
54013W        W25739  37.879  21.928  13.427
54014W        W25740  20.733  20.714   0.597
54015W        W25741  40.891   9.673   3.033
54016W        W25742  43.807   2.965   1.282
54017W        W25743  21.177  30.194  11.606
54018W        W25744  23.159  11.943   1.299
54019W        W25745  26.986  28.155  13.356
54020W        W25746  21.743  14.794   2.691
54021W        W25747  29.196  23.497   1.234
54022W        W25748  11.650  11.300  10.533
54023W        W25749   8.823   2.995  10.473
54024W        W25750  22.924   7.919  14.508
54025W        W25751  26.198   2.406  14.464
54026W        W25752  14.917  20.241  11.625
54027W        W25753  14.926  13.260   3.224
54028W        W25754  32.501  21.677  11.630
54029W        W25755   3.850   9.190  12.883
54030W        W25756  36.867  36.592  12.928
54031W        W25757  19.980  29.203  14.318
54032W        W25758  18.990  17.280  14.883
54033W        W25759  38.459   1.846   4.899
54034W        W25760   1.781  23.145  12.425
54035W        W25761   9.249   8.621   2.630
54036W        W25762  36.779  14.406  12.520
54037W        W25763  34.344  40.421   1.229
54038W        W25764  35.624   6.127   0.272
54039W        W25765  20.232  19.853   3.845
54040W        W25766  38.120   5.381   2.229
54041W        W25767   9.913  25.427   1.344
54042W        W25768   1.745  30.490   2.249
54043W        W25769  23.695   7.729   1.320
54044W        W25770  13.727   2.834   3.339
54045W        W25771  10.400  12.742  14.008
54046W        W25772   8.243   4.382  12.647
54047W        W25773  35.190  29.454   3.227
54048W        W25774   1.339  23.210   3.258
54049W        W25775  44.106   2.797   2.262
54050W        W25776  31.473   9.861  14.680
54051W        W25777   1.306  14.650   4.882
54052W        W25778  27.475  12.885   0.981
54053W        W25779  40.289  13.590   1.885
54054W        W25780  34.126   0.353  12.152
54055W        W25781   1.134  42.689   1.884
54056W        W25782  12.577  42.954  13.883
54057W        W25783  25.729  18.123  10.697
54058W        W25784  26.501  17.472  12.526
54059W        W25785  37.325  21.512   4.329
54060W        W25786  22.002  25.953  12.000
54061W        W25787   2.809  37.601  13.434
54062W        W25788  26.529  18.300   0.777
54063W        W25789   4.746   5.939   3.578
54064W        W25790   6.557   6.140   5.044
54065W        W25791   4.006  32.507   1.744
54066W        W25792   9.802  18.885   0.234
54067W        W25793   8.359  37.917  12.987
54068W        W25794  25.232  44.885   2.206
54069W        W25795   1.133   4.203   1.213
54070W        W25796  21.150   1.221  11.673
54071W        W25797   1.937   7.811   3.555
54072W        W25798  20.710  26.693   4.270
54073W        W25799  26.037   2.724   3.931
54074W        W25800  22.505  39.512  14.887
54075W        W25801   6.393  30.687  13.939
54076W        W25802  44.276  33.287   0.326
54077W        W25803  16.095  15.072  14.111
54078W        W25804  12.308  31.074   2.147
54079W        W25805   5.756   7.635   3.185
54080W        W25806  28.492  22.951   4.559
54081W        W25807  32.035  28.093   3.794
54082W        W25808   9.565  24.610   1.848
54083W        W25809  24.542  12.557   1.432
54084W        W25810  21.084  40.080   0.009
54085W        W25811  33.481  19.263  14.339
54086W        W25812  40.441  25.622  13.626
54087W        W25813   5.685  42.409  14.276
54088W        W25814  38.598  42.899   0.325
54089W        W25815  22.288  16.536  14.044
54090W        W25816  35.517  23.488  14.430
54091W        W25817  18.459  31.327  11.220
54092W        W25818   5.651   4.109  10.376
54093W        W25819   3.737  16.771  12.044
54094W        W25820   5.940  22.094  12.157
54095W        W25821  36.572  42.820  13.869
54096W        W25822  22.966  37.549   0.655
54097W        W25823   6.789  35.513   2.297
54098W        W25824  15.026   0.550   1.393
54099W        W25825  31.917  37.698  10.184
54100W        W25826  19.788   5.637   0.252
54101W        W25827  23.693   8.452   3.688
54102W        W25828   3.398  25.653   3.710
54103W        W25829  10.398  20.789   3.248
54104W        W25830   1.400  40.709   2.213
54105W        W25831  25.669  11.596   1.465
54106W        W25832  21.322  38.936   3.755
54107W        W25833  26.657  31.890  11.524
54108W        W25834   4.053  11.211   2.299
54109W        W25835  39.759  12.137  12.556
54110W        W25836  38.329   5.258   0.857
54111W        W25837  35.245  38.825   0.086
54112W        W25838   7.064  32.186  14.809
54113W        W25839  16.342  41.743  11.512
54114W        W25840  39.517  15.976  14.764
54115W        W25841   3.361  15.635  13.324
54116W        W25842  22.732  22.323   2.649
54117W        W25843  29.684  38.412  13.920
54118W        W25844  32.354   4.796  14.461
54119W        W25845  13.023  14.765  13.601
54120W        W25846  14.139  32.056   2.253
54121W        W25847   8.386   9.439  12.059
54122W        W25848  12.863  29.676   0.478
54123W        W25849  35.863  41.253  11.232
54124W        W25850  21.730  13.193   4.895
54125W        W25851  37.589  24.587  14.571
54126W        W25852  38.989  40.369  14.606
54127W        W25853   8.974  34.571   3.237
54128W        W25854   7.953   6.427   2.753
54129W        W25855  40.791  39.546   1.063
54130W        W25856  26.476  28.648  11.104
54131W        W25857   6.306   5.703  11.380
54132W        W25858   2.618   6.822  12.904
54133W        W25859  24.956  21.569  13.533
54134W        W25860   4.786  40.718   4.405
54135W        W25861   5.495   5.409   0.526
54136W        W25862  36.453  33.418   3.162
54137W        W25863  19.633  30.341   0.223
54138W        W25864  25.641  30.837  12.387
54139W        W25865   6.412  31.548  10.485
54140W        W25866   8.037  38.675   2.818
54141W        W25867  15.803  30.111  14.037
54142W        W25868  28.909  34.878  11.415
54143W        W25869  39.474   0.771  13.512
54144W        W25870   5.270  12.081   1.949
54145W        W25871   4.297  29.092   0.790
54146W        W25872   6.300  42.159   3.786
54147W        W25873  35.722   3.314   0.990
54148W        W25874  20.291  44.509   1.457
54149W        W25875   8.380  27.589  10.658
54150W        W25876  13.218  41.406   3.749
54151W        W25877  22.504   8.314   2.360
54152W        W25878   6.607   9.235   3.220
54153W        W25879   6.438  10.854  12.458
54154W        W25880   8.248   2.887   1.756
54155W        W25881  13.779  19.703  13.337
54156W        W25882  31.373   2.765  14.877
54157W        W25883  40.238   3.401  11.401
54158W        W25884  22.611   4.911   2.236
54159W        W25885  32.821  12.424  13.410
54160W        W25886  32.120  28.918  13.419
54161W        W25887   5.042  15.708   2.382
54162W        W25888   2.705  34.193  10.626
54163W        W25889   8.156  12.159  12.666
54164W        W25890  29.568   6.631  10.740
54165W        W25891  30.940  16.696   1.862
54166W        W25892  42.892  16.208  12.482
54167W        W25893  32.280  24.616  12.551
54168W        W25894  37.071   2.798   4.193
54169W        W25895  10.150   4.493   1.744
54170W        W25896   6.144  39.754   9.990
54171W        W25897  22.760   9.325   0.237
54172W        W25898  31.462  30.933  14.022
54173W        W25899  24.660  14.768  14.016
54174W        W25900  22.482   0.878   1.419
54175W        W25901   0.760  10.256   3.744
54176W        W25902  29.406  30.419   3.242
54177W        W25903  33.574  20.097  11.855
54178W        W25904  21.610  41.503   3.189
54179W        W25905  32.620  17.355   1.882
54180W        W25906  23.936  15.427  10.718
54181W        W25907  16.129  33.703  11.516
54182W        W25908   1.367  30.330   1.947
54183W        W25909  13.375   2.389  11.139
54184W        W25910  23.674   0.593   0.572
54185W        W25911  34.992   8.907   9.656
54186W        W25912   2.731  24.683   4.356
54187W        W25913  30.368   7.748  10.678
54188W        W25914  37.374  20.538   0.824
54189W        W25915  12.722  14.602   2.450
54190W        W25916   6.327   1.436  11.647
54191W        W25917  23.280  34.587  13.402
54192W        W25918   0.820  24.217   1.717
54193W        W25919   7.644   7.431  13.983
54194W        W25920   1.969  37.591   2.965
54195W        W25921  41.984  23.914   5.251
54196W        W25922  38.917  40.780  12.408
54197W        W25923  37.443  26.098   0.997
54198W        W25924   7.163  37.230  11.884
54199W        W25925  19.814  25.211   4.321
54200W        W25926  38.008  22.073  14.939
54201W        W25927  36.934   7.911   0.385
54202W        W25928   8.199  34.673  11.894
54203W        W25929  39.795  39.021  14.466
54204W        W25930  11.245   6.541  14.483
54205W        W25931  38.937  32.540  13.825
54206W        W25932   7.633  19.684  11.711
54207W        W25933  36.017  38.981   4.530
54208W        W25934  25.212  33.165  12.545
54209W        W25935  42.370  17.613   2.365
54210W        W25936  41.656  38.301   0.384
54211W        W25937  23.045  20.558   0.647
54212W        W25938   6.819  42.255  14.921
54213W        W25939  12.366  39.062  13.503
54214W        W25940  16.186  43.796   3.391
54215W        W25941  41.424   1.495  13.527
54216W        W25942  16.571  18.235   0.370
54217W        W25943  15.110  29.635   3.789
54218W        W25944  36.031  31.038  12.401
54219W        W25945  19.249  25.280  11.406
54220W        W25946  22.073  25.698  10.709
54221W        W25947  37.811  32.551  14.384
54222W        W25948  23.976  35.525  10.452
54223W        W25949   8.790  21.344   4.230
54224W        W25950  14.159  40.577  14.754
54225W        W25951  38.378  24.674   4.697
54226W        W25952  15.427  34.968  12.033
54227W        W25953   1.771  15.161  14.747
54228W        W25954  24.065  33.054   3.269
54229W        W25955   3.453  10.126   0.275
54230W        W25956  25.510  22.380   0.465
54231W        W25957  33.033  29.646   1.816
54232W        W25958  24.362  25.156   4.379
54233W        W25959  42.803  35.631   3.302
54234W        W25960   8.160  34.996   4.309
54235W        W25961   1.360  41.608   0.420
54236W        W25962  38.874  14.703   3.596
54237W        W25963  44.009  36.573   2.037
54238W        W25964  10.684  29.800  10.042
54239W        W25965  12.126  13.323  14.622
54240W        W25966  44.444  34.497   0.686
54241W        W25967  44.649  35.434  14.184
54242W        W25968  30.428  30.939   1.540
54243W        W25969  41.474  19.710  12.965
54244W        W25970  17.628  21.047   0.849
54245W        W25971  20.715  12.316   1.953
54246W        W25972  21.878  22.811  14.487
54247W        W25973   4.422  26.145  14.913
54248W        W25974   4.379  40.254  12.308
54249W        W25975  40.811  41.337  14.030
54250W        W25976  32.064   9.233   3.333
54251W        W25977   4.446   6.098  11.179
54252W        W25978  37.444  15.202   1.733
54253W        W25979  31.870   9.842   0.895
54254W        W25980  34.336  35.251  12.938
54255W        W25981   8.135   0.959  13.813
54256W        W25982  23.654  41.320  13.702
54257W        W25983  44.406  31.885   1.756
54258W        W25984  12.443  33.992   0.799
54259W        W25985   4.413  18.569   4.649
54260W        W25986  37.270  28.417   0.753
54261W        W25987  28.507   6.753  14.832
54262W        W25988   2.487  17.381  10.148
54263W        W25989  28.687   0.001   4.130
54264W        W25990  35.618  43.375  14.345
54265W        W25991  24.435  15.248   3.098
54266W        W25992  40.857  35.623  13.813
54267W        W25993  13.339   8.630   4.201
54268W        W25994  41.963  43.317  12.915
54269W        W25995  21.805  21.803   2.773
54270W        W25996  26.661  25.010   0.769
54271W        W25997   7.044  18.150  11.090
54272W        W25998  11.220  40.098   4.601
54273W        W25999  37.545  33.161   2.593
54274W        W26000   0.071  25.067   3.209
54275W        W26001   0.219  33.819  11.516
54276W        W26002   2.285  15.164   1.862
54277W        W26003  37.490  33.071  14.649
54278W        W26004  42.379   8.239   3.900
54279W        W26005  13.683  35.950  10.666
54280W        W26006  11.462  18.596   3.378
54281W        W26007  10.901  12.735  12.073
54282W        W26008  35.924  37.803   2.234
54283W        W26009  20.727  23.603  13.610
54284W        W26010   6.435  11.548  13.047
54285W        W26011   2.970  16.054   3.317
54286W        W26012   8.697  29.837   2.682
54287W        W26013  22.120  34.841   4.425
54288W        W26014   9.124  16.098   0.769
54289W        W26015  30.165  22.808  11.007
54290W        W26016  40.946   5.310   0.820
54291W        W26017  33.837   1.134   1.923
54292W        W26018  21.724  15.372   0.305
54293W        W26019  26.987  44.937   0.241
54294W        W26020   7.438  42.812  10.702
54295W        W26021  23.350  20.872   1.344
54296W        W26022  20.052  18.705  10.992
54297W        W26023  34.941  20.732  14.103
54298W        W26024  16.175  27.440  13.886
54299W        W26025  43.521   6.754   4.026
54300W        W26026  23.052  18.632   0.833
54301W        W26027  26.821  33.494   3.848
54302W        W26028   2.915   9.137  12.981
54303W        W26029   7.541  43.907  12.584
54304W        W26030  17.777   7.199  10.660
54305W        W26031  33.539  30.488   0.882
54306W        W26032  19.587  37.449  14.008
54307W        W26033  16.160  37.427  12.031
54308W        W26034  15.042  27.105  13.605
54309W        W26035   4.710  15.266   3.704
54310W        W26036  34.894   7.295   2.651
54311W        W26037  18.133  38.561   4.797
54312W        W26038  44.889  31.442   3.134
54313W        W26039  36.548  30.327  11.438
54314W        W26040  32.550   6.598  14.510
54315W        W26041  24.293   4.461   2.522
54316W        W26042   7.870  14.033   2.246
54317W        W26043  33.006  11.660   3.591
54318W        W26044  27.568   2.032   1.976
54319W        W26045  25.680   4.711   4.254
54320W        W26046  32.537  11.410   4.091
54321W        W26047  31.139   9.645  11.071
54322W        W26048  37.320  29.148   4.552
54323W        W26049  33.058  37.320  14.383
54324W        W26050   1.699  14.666   3.145
54325W        W26051  15.063  21.044  14.476
54326W        W26052  39.424  13.903  14.395
54327W        W26053  39.935  24.124  10.659
54328W        W26054  11.685  43.660   0.947
54329W        W26055  21.327   0.237   1.836
54330W        W26056  21.053  38.404  10.647
54331W        W26057  40.613  43.024  11.008
54332W        W26058   3.712  11.706  11.004
54333W        W26059  37.110  38.460   2.319
54334W        W26060   5.489  16.065  12.923
54335W        W26061  20.695  27.619   2.156
54336W        W26062   2.724  21.145  11.591
54337W        W26063  23.511  16.419  10.682
54338W        W26064   6.855  30.273  10.905
54339W        W26065  14.914  24.649   3.729
54340W        W26066  23.063   1.377  11.215
54341W        W26067  27.107  31.401   2.864
54342W        W26068  25.463  25.099  14.334
54343W        W26069  23.683  21.092   1.004
54344W        W26070  44.917  27.491   1.519
54345W        W26071  31.677  14.356  11.598
54346W        W26072   2.615  40.815  11.220
54347W        W26073  26.925  34.418   4.050
54348W        W26074  20.809   5.423   1.860
54349W        W26075   7.338  41.438  13.854
54350W        W26076  41.816  34.452   4.239
54351W        W26077   7.930   1.445  13.013
54352W        W26078   5.139  43.283   3.541
54353W        W26079   5.788  20.547   2.449
54354W        W26080  39.164  41.739  13.577
54355W        W26081  40.998  19.299   2.815
54356W        W26082   9.733  21.621  14.800
54357W        W26083  17.846  43.464  14.961
54358W        W26084   4.650  22.192  11.045
54359W        W26085  20.264  37.867   0.042
54360W        W26086  34.328  23.175   2.734
54361W        W26087   4.852  19.127  12.476
54362W        W26088  27.484  44.976   3.677
54363W        W26089  31.471  29.462  10.024
54364W        W26090  16.560  10.294  12.894
54365W        W26091  44.284   8.047   1.349
54366W        W26092  40.770  26.214   1.806
54367W        W26093  15.489  23.225   4.093
54368W        W26094  15.356  16.635   1.665
54369W        W26095  41.425  33.880   3.228
54370W        W26096  35.389  24.093  13.942
54371W        W26097   5.117   5.372   1.490
54372W        W26098  13.682  41.609   0.892
54373W        W26099  44.490   7.492   4.173
54374W        W26100  43.447   0.585   4.591
54375W        W26101  43.086  27.116   2.354
54376W        W26102  16.256   8.932  14.994
54377W        W26103  24.330  19.127  12.160
54378W        W26104  10.802  37.779  14.229
54379W        W26105  32.897   9.321  12.972
54380W        W26106   6.135  24.034  12.956
54381W        W26107  42.343  11.510  13.590
54382W        W26108   8.269  19.830   4.517
54383W        W26109  42.570  13.696   0.010
54384W        W26110  40.308  14.261  14.663
54385W        W26111  34.076  34.694   1.439
54386W        W26112  11.937   3.679  11.629
54387W        W26113  42.936  43.488   3.683
54388W        W26114  15.262   9.529   3.804
54389W        W26115  21.637  44.449   4.425
54390W        W26116   3.405  29.457  12.687
54391W        W26117  39.977  43.263  13.130
54392W        W26118  16.623  18.273  11.639
54393W        W26119  40.929  38.937  11.510
54394W        W26120  39.585  34.454   3.021
54395W        W26121  16.090  31.799   0.390
54396W        W26122  10.840   8.136   1.179
54397W        W26123   4.272  42.816   2.189
54398W        W26124   8.426  44.353   3.060
54399W        W26125  12.606  30.809   0.355
54400W        W26126  25.113  36.157   0.327
54401W        W26127  37.761  16.188   0.738
54402W        W26128  24.642   3.674  13.549
54403W        W26129  33.625  34.031  12.965
54404W        W26130  12.424  40.324  11.141
54405W        W26131  11.362   1.494   1.203
54406W        W26132   8.723   4.917  13.377
54407W        W26133  18.707   4.143  10.378
54408W        W26134  33.442   0.455  14.222
54409W        W26135  16.079  16.864  12.027
54410W        W26136  24.198  14.686  12.462
54411W        W26137  25.509  24.586  14.515
54412W        W26138   9.852  33.070   4.109
54413W        W26139  24.855   8.420  10.893
54414W        W26140  31.808  32.896   3.057
54415W        W26141  28.165   8.440   4.257
54416W        W26142  28.645   6.358   0.140
54417W        W26143  36.444   5.827  13.271
54418W        W26144  14.329   4.018   2.903
54419W        W26145   5.265  24.040  12.631
54420W        W26146  24.452  25.048  11.234
54421W        W26147  19.262  18.812   3.761
54422W        W26148   2.255  28.275  10.275
54423W        W26149  13.223  21.349  14.614
54424W        W26150   9.853   2.483   4.818
54425W        W26151  28.879   7.895   1.372
54426W        W26152   4.371  16.659  10.361
54427W        W26153  13.705  34.440  10.547
54428W        W26154  21.802  13.227  10.675
54429W        W26155  42.302  19.077   0.999
54430W        W26156  20.000  34.446  11.222
54431W        W26157   8.169  16.876  11.212
54432W        W26158  20.915  11.692   4.504
54433W        W26159  40.313   1.143   3.531
54434W        W26160  17.219  33.650   0.492
54435W        W26161  44.722   8.697  11.236
54436W        W26162  40.091  20.983   3.804
54437W        W26163  35.970  14.761   2.354
54438W        W26164  32.599  24.582   5.096
54439W        W26165   0.263  10.338  12.527
54440W        W26166  22.017  40.057  12.320
54441W        W26167  30.604  39.599   1.866
54442W        W26168  40.866  44.872   4.147
54443W        W26169  10.432  27.419   2.701
54444W        W26170  39.128  31.866   1.767
54445W        W26171  22.138  10.660  14.827
54446W        W26172  17.181  42.465   1.954
54447W        W26173  16.260  31.508  12.401
54448W        W26174  31.847   5.190  11.978
54449W        W26175   9.329  39.388  14.894
54450W        W26176  36.615  35.658   0.657
54451W        W26177  36.000   5.709   1.941
54452W        W26178  29.128  11.831   0.686
54453W        W26179  28.894  29.082   3.628
54454W        W26180  39.453   4.123   0.163
54455W        W26181  28.871  27.208   0.056
54456W        W26182   7.739  38.007   1.343
54457W        W26183  17.272  21.988   0.796
54458W        W26184  21.512   1.969  10.680
54459W        W26185  35.513  44.272  13.734
54460W        W26186   8.238  22.278   1.314
54461W        W26187  34.840  11.224   4.563
54462W        W26188  44.747  24.719  14.214
54463W        W26189  31.562  22.710  10.502
54464W        W26190  29.358  14.076   2.689
54465W        W26191   5.205  15.169   1.386
54466W        W26192  25.023  24.277   4.808
54467W        W26193   6.101  37.364  10.220
54468W        W26194  17.191  22.182   3.845
54469W        W26195   5.890  15.692  13.341
54470W        W26196  33.586   1.847   9.986
54471W        W26197  17.812  29.189  11.457
54472W        W26198  28.493  22.161  10.752
54473W        W26199  41.454  18.857  13.409
54474W        W26200   5.260  23.458   4.234
54475W        W26201  40.050  14.458  11.593
54476W        W26202  33.945   9.665  14.835
54477W        W26203  35.051   5.489  12.762
54478W        W26204  28.208   6.714   1.407
54479W        W26205  18.603  32.469   2.833
54480W        W26206  31.904  13.272  14.822
54481W        W26207  24.125  43.282   4.927
54482W        W26208   6.486  40.750  12.323
54483W        W26209  37.116  28.192   1.194
54484W        W26210  12.005  34.253  11.156
54485W        W26211  14.662  32.529  13.106
54486W        W26212  30.035  12.363   0.865
54487W        W26213   2.294  40.772  12.029
54488W        W26214  43.324  44.488  12.503
54489W        W26215   8.690   7.630  14.490
54490W        W26216  44.301  43.734  13.848
54491W        W26217   9.868   6.700   1.249
54492W        W26218  21.342  37.722   3.387
54493W        W26219  12.264  19.840  11.110
54494W        W26220   7.429   1.737   2.214
54495W        W26221  38.928  20.763   4.257
54496W        W26222  14.206  13.812  11.706
54497W        W26223   4.511  32.802  14.607
54498W        W26224  44.457   0.285  12.317
54499W        W26225   7.161  29.248  12.940
54500W        W26226  41.081  44.930  13.917
54501W        W26227  14.359  33.582  14.450
54502W        W26228   6.680  31.554  14.093
54503W        W26229   3.748  39.544  11.482
54504W        W26230  30.259  21.411  14.863
54505W        W26231   9.653  26.565   3.170
54506W        W26232  39.044  27.542   1.220
54507W        W26233  21.413  35.043  14.004
54508W        W26234  25.475  17.135   1.706
54509W        W26235  22.437  25.125   3.536
54510W        W26236  10.009  37.097   1.062
54511W        W26237  34.762  12.075  11.539
54512W        W26238   5.288   1.385  13.144
54513W        W26239  37.235  31.754   3.429
54514W        W26240   0.542  11.365   4.205
54515W        W26241   4.858   3.746   3.836
54516W        W26242  28.955   3.235   2.042
54517W        W26243  36.984   8.210   4.442
54518W        W26244  21.296  21.240   3.056
54519W        W26245  31.139  10.979  10.578
54520W        W26246  18.754  38.924  11.681
54521W        W26247  31.252  15.689  11.196
54522W        W26248   9.298  28.423  11.592
54523W        W26249  18.068  41.299  12.100
54524W        W26250  38.450  25.464   0.510
54525W        W26251  38.369  26.471  11.118
54526W        W26252  44.444  35.947  14.460
54527W        W26253  27.288  37.838  11.754
54528W        W26254   3.337  44.682  12.830
54529W        W26255  17.250  37.108   0.253
54530W        W26256  28.067  32.809   1.404
54531W        W26257  42.055  27.661  12.934
54532W        W26258  19.967  44.476   3.236
54533W        W26259  43.581  13.887  11.191
54534W        W26260  12.107  12.369  14.346
54535W        W26261  14.663  16.762  11.179
54536W        W26262   3.415   4.738  14.253
54537W        W26263  18.253  17.744  13.011
54538W        W26264  14.693  33.382   1.768
54539W        W26265  41.420  33.428  14.919
54540W        W26266  29.618  30.335   5.028
54541W        W26267  21.646  27.505   5.100
54542W        W26268  25.525  37.649   3.731
54543W        W26269  33.830   4.446  13.992
54544W        W26270  17.209  35.654  11.935
54545W        W26271  22.493   1.721  12.990
54546W        W26272  31.044  36.458   0.254
54547W        W26273  19.672  34.607  11.965
54548W        W26274  24.595  31.609  12.967
54549W        W26275  35.907   2.905   3.327
54550W        W26276  31.644  32.421   1.278
54551W        W26277  36.311  28.149   2.172
54552W        W26278  39.879  30.878   1.952
54553W        W26279  25.147  34.829  11.596
54554W        W26280  20.484  11.725   2.722
54555W        W26281   6.527  30.877  11.732
54556W        W26282   5.308  18.521   1.496
54557W        W26283   9.333  39.380  11.166
54558W        W26284  13.580  16.851   1.174
54559W        W26285  24.668   6.433  14.935
54560W        W26286  13.147  40.338   1.835
54561W        W26287  31.152  23.258  13.211
54562W        W26288  33.849  41.085  11.195
54563W        W26289  13.794   4.506   1.737
54564W        W26290   0.130  37.302   4.834
54565W        W26291   7.954  33.124  13.921
54566W        W26292   0.054  13.810  11.112
54567W        W26293  27.468  10.892  12.440
54568W        W26294   9.322  19.309   2.511
54569W        W26295   0.772  27.817  12.074
54570W        W26296  16.303   7.351  10.774
54571W        W26297   1.963  28.138   4.141
54572W        W26298  39.125   1.116  13.541
54573W        W26299  24.468  11.896  12.133
54574W        W26300   6.162   7.750   3.650
54575W        W26301  35.174  13.407   4.132
54576W        W26302  13.323  30.951  12.286
54577W        W26303  13.126  12.470  11.215
54578W        W26304  34.120  23.115   1.493
54579W        W26305  34.657  15.682  10.688
54580W        W26306  12.003  35.813  12.833
54581W        W26307  17.976  12.081   4.116
54582W        W26308  27.431   0.479   3.623
54583W        W26309  33.081  33.374   4.353
54584W        W26310  40.326  43.469  12.240
54585W        W26311   2.782  37.558   0.852
54586W        W26312  22.508  19.944  10.807
54587W        W26313  22.617  29.957  11.900
54588W        W26314   2.223   0.985   3.174
54589W        W26315  38.919   4.887  12.043
54590W        W26316  27.494  18.594   1.835
54591W        W26317  30.442  41.617   1.294
54592W        W26318  30.356   6.271   0.128
54593W        W26319  20.830  28.638  13.515
54594W        W26320  21.242  44.538   1.355
54595W        W26321  34.602  34.464  13.970
54596W        W26322  22.206  17.859  12.558
54597W        W26323  37.673  31.436  14.919
54598W        W26324  33.819  29.985   4.380
54599W        W26325  24.718  36.002  13.023
54600W        W26326  38.650  39.440  11.139
54601W        W26327  40.196  22.543  14.912
54602W        W26328   0.404   6.447   1.803
54603W        W26329  27.229  17.061  14.209
54604W        W26330   3.893  44.441   0.731
54605W        W26331  22.671  19.076  13.391
54606W        W26332  43.521  43.924   2.450
54607W        W26333  27.296  40.790  12.818
54608W        W26334  40.868  24.929   1.871
54609W        W26335   4.152  33.371   1.429
54610W        W26336  35.028   2.807   0.335
54611W        W26337   1.236  18.918  13.774
54612W        W26338  22.679  39.895  14.015
54613W        W26339   6.554  27.549  14.436
54614W        W26340  44.874  21.093   3.589
54615W        W26341   4.417  23.447   2.679
54616W        W26342  19.293  27.615   0.848
54617W        W26343  37.829  43.902   3.635
54618W        W26344  36.942  35.587  12.893
54619W        W26345  36.296  42.075   2.926
54620W        W26346  14.152  37.998   1.415
54621W        W26347  14.243   5.908   1.914
54622W        W26348  39.989  20.065  11.032
54623W        W26349  19.262  42.912   1.757
54624W        W26350  36.029  16.409   3.306
54625W        W26351  25.865   4.033  14.475
54626W        W26352  31.154  21.580  10.686
54627W        W26353  16.674  33.085  11.133
54628W        W26354  18.670  29.012  12.459
54629W        W26355  43.985   7.674   4.223
54630W        W26356  20.200  15.340   2.005
54631W        W26357  11.126   1.313  11.614
54632W        W26358  25.220   8.560  12.470
54633W        W26359  25.725  28.499  11.507
54634W        W26360  35.546  26.705  13.861
54635W        W26361  23.050  41.437  14.951
54636W        W26362  34.390  19.798  13.017
54637W        W26363  24.933  26.099   4.815
54638W        W26364  25.839  15.596   2.725
54639W        W26365  11.986  32.206  10.503
54640W        W26366  27.540  29.945   3.034
54641W        W26367  18.128  21.959  13.293
54642W        W26368   2.225  13.249   2.866
54643W        W26369   0.757   9.803   4.034
54644W        W26370  10.179  28.186  12.884
54645W        W26371  29.446  35.604  11.677
54646W        W26372  12.392  32.013  11.611
54647W        W26373  33.132  37.962   2.238
54648W        W26374  26.064  23.115  14.025
54649W        W26375   7.730   2.485   4.525
54650W        W26376   3.272  11.164  13.597
54651W        W26377  12.730  34.082  13.790
54652W        W26378   4.322   7.391  12.534
54653W        W26379   8.703  38.889  13.644
54654W        W26380   9.713  24.215  12.681
54655W        W26381  31.616   4.987   0.360
54656W        W26382  14.316  33.107  11.948
54657W        W26383   0.569  44.783   4.671
54658W        W26384   9.328  15.164   3.631
54659W        W26385  41.546   0.428  11.625
54660W        W26386  32.936  27.685   3.371
54661W        W26387  37.548  30.786  13.101
54662W        W26388  43.070  15.217   0.345
54663W        W26389  31.496  44.854  10.704
54664W        W26390  36.434  23.752  11.075
54665W        W26391  32.626  14.468   4.075
54666W        W26392  22.296  24.177  14.491
54667W        W26393   2.298  16.874   3.746
54668W        W26394   2.466  26.517   0.268
54669W        W26395  42.077  39.136  11.987
54670W        W26396  18.547   3.233  12.577
54671W        W26397  14.724  30.431   4.175
54672W        W26398  15.368  18.081  11.973
54673W        W26399  21.595  22.229   1.849
54674W        W26400  12.893  19.584  14.821
54675W        W26401  10.158  35.908   2.345
54676W        W26402  17.683  19.217  14.036
54677W        W26403  22.967  44.483   3.217
54678W        W26404  44.325  31.931  11.365
54679W        W26405  13.747  35.269   5.189
54680W        W26406   2.464  20.118   4.571
54681W        W26407  32.999  42.827  11.438
54682W        W26408  23.096  37.405   3.618
54683W        W26409  14.323  15.698  12.742
54684W        W26410  33.592  33.014  12.724
54685W        W26411   1.574   4.816  13.292
54686W        W26412  40.498   9.335  14.483
54687W        W26413  21.679  41.481   2.680
54688W        W26414  25.206   6.469  14.885
54689W        W26415   1.712  33.940  14.051
54690W        W26416   3.527  27.738   2.824
54691W        W26417   4.297  20.791   4.035
54692W        W26418  40.603   4.748   4.213
54693W        W26419  32.154  23.197  14.802
54694W        W26420  21.123  13.557   2.886
54695W        W26421  22.517  39.398  13.814
54696W        W26422  30.083   8.401   4.568
54697W        W26423  13.120  21.145  12.450
54698W        W26424  30.191  25.954   0.848
54699W        W26425  38.075   4.860   2.725
54700W        W26426  38.316   1.884   1.863
54701W        W26427  13.412  30.332  10.455
54702W        W26428  16.164   4.837   1.335
54703W        W26429  37.223  21.014   0.968
54704W        W26430  31.476   1.436  11.030
54705W        W26431  35.513  31.473  11.378
54706W        W26432   8.237  44.060   1.310
54707W        W26433  25.170  41.619   0.272
54708W        W26434   2.519  40.391  12.853
54709W        W26435  40.552  10.828  14.018
54710W        W26436  44.574  21.706  14.847
54711W        W26437  19.305  27.165  12.988
54712W        W26438  20.593  21.553   0.809
54713W        W26439  16.743   9.052  12.492
54714W        W26440  12.875  16.994  14.432
54715W        W26441  38.964  16.252   2.658
54716W        W26442  43.075  29.087  10.492
54717W        W26443  37.309  36.546   1.324
54718W        W26444  12.663  15.712  12.364
54719W        W26445   7.854  29.226   0.820
54720W        W26446  24.741  23.724  13.150
54721W        W26447  33.018  34.559  14.012
54722W        W26448  16.208  12.044   2.735
54723W        W26449  40.281   0.682   2.229
54724W        W26450  41.440  14.755  13.347
54725W        W26451  24.657  44.936   2.489
54726W        W26452  37.576  28.020   1.857
54727W        W26453  43.088  39.964   0.778
54728W        W26454  40.331  29.953  14.324
54729W        W26455  34.335  29.150   0.139
54730W        W26456  27.989   5.792   0.285
54731W        W26457  16.822  19.334  13.005
54732W        W26458  34.322  24.121  14.485
54733W        W26459  37.591  44.719   4.095
54734W        W26460   0.207   6.104  12.878
54735W        W26461  13.169  28.153   1.596
54736W        W26462  25.134  15.534  11.303
54737W        W26463  10.173  36.481   3.015
54738W        W26464  32.241  36.574  12.646
54739W        W26465  43.091  13.532   5.136
54740W        W26466  43.200  41.561  10.795
54741W        W26467  31.736  31.031   4.294
54742W        W26468  35.186  31.872   2.294
54743W        W26469  30.181  32.061   0.751
54744W        W26470  16.769  34.965  11.493
54745W        W26471  24.261  25.585  14.376
54746W        W26472  39.770   5.016  11.132
54747W        W26473  26.426  21.353   1.837
54748W        W26474  10.931   5.614  12.416
54749W        W26475   7.759  35.797   2.721
54750W        W26476  22.015   1.306  13.108
54751W        W26477  39.419  18.234   4.479
54752W        W26478   8.643  11.140   1.323
54753W        W26479  15.207  36.523   2.420
54754W        W26480  18.609  27.976  11.730
54755W        W26481  30.424  25.885  12.512
54756W        W26482  24.546  43.734  13.658
54757W        W26483  34.022  37.384  12.129
54758W        W26484  16.558  25.615  13.072
54759W        W26485  33.978  34.368   0.049
54760W        W26486   9.776   0.302   0.859
54761W        W26487  36.531  43.642  14.780
54762W        W26488   6.243  31.267  11.591
54763W        W26489   2.193   1.736  11.991
54764W        W26490  44.996   2.657   2.836
54765W        W26491   7.784  12.679   1.998
54766W        W26492  40.632  28.969  13.431
54767W        W26493  26.139  21.601  14.923
54768W        W26494  11.586  38.469  11.551
54769W        W26495  42.864   8.483  14.437
54770W        W26496  27.803  18.652  11.472
54771W        W26497   9.148  36.047  13.932
54772W        W26498   8.292   1.977   2.860
54773W        W26499   5.661   4.948  13.542
54774W        W26500  22.812  10.772   3.675
54775W        W26501  25.376   7.143  10.814
54776W        W26502  12.872  37.096  12.670
54777W        W26503  43.708   1.418   3.522
54778W        W26504  21.639  33.422   4.921
54779W        W26505  18.072  29.975   1.655
54780W        W26506  34.444  13.227   0.844
54781W        W26507   2.956  44.406   2.750
54782W        W26508  31.520  12.384  11.568
54783W        W26509  39.595  42.303   1.507
54784W        W26510   3.394  23.236  13.565
54785W        W26511   2.902  39.947  14.911
54786W        W26512   8.618  28.999   2.686
54787W        W26513  11.659  20.636  12.955
54788W        W26514  25.513  24.754   0.547
54789W        W26515  22.484  28.563   1.450
54790W        W26516  26.585  40.951   1.193
54791W        W26517  43.467  15.734  12.481
54792W        W26518  12.083  14.642   0.285
54793W        W26519   8.465   6.965   4.004
54794W        W26520  33.848  22.799   3.398
54795W        W26521  25.476  30.094   4.669
54796W        W26522  12.435  31.932   1.887
54797W        W26523  22.582   1.866  10.718
54798W        W26524  43.495  17.020   4.470
54799W        W26525  35.925  23.281  14.141
54800W        W26526  33.477  40.446   2.286
54801W        W26527  36.176   1.402   4.103
54802W        W26528  19.183  26.374   1.065
54803W        W26529  24.367  20.846   3.803
54804W        W26530  35.837  17.736  13.662
54805W        W26531  10.211  33.205  10.098
54806W        W26532  21.719  17.654   0.796
54807W        W26533  35.521   9.867   0.933
54808W        W26534  31.657  35.101  13.972
54809W        W26535  39.331  14.827  13.518
54810W        W26536  12.274  15.833   2.790
54811W        W26537   2.177   5.906  12.543
54812W        W26538   6.871  15.362  13.495
54813W        W26539  15.809  29.815   1.290
54814W        W26540   4.805  30.909   0.768
54815W        W26541  37.775  18.360   2.817
54816W        W26542   4.177  25.083  11.462
54817W        W26543   9.152  41.600  13.558
54818W        W26544   4.834  35.833  11.557
54819W        W26545  33.411  21.657  11.534
54820W        W26546  28.159  37.878  14.379
54821W        W26547  26.484  31.445  13.133
54822W        W26548  44.689  12.270  11.580
54823W        W26549   5.213  11.335  11.652
54824W        W26550  24.638   2.682  14.713
54825W        W26551  44.990  22.291  11.052
54826W        W26552   0.732  12.114   1.885
54827W        W26553  15.242  41.196   5.026
54828W        W26554  28.035  40.797   3.335
54829W        W26555  19.750  42.568   3.178
54830W        W26556  10.857   0.242  14.953
54831W        W26557   6.363   9.240  12.070
54832W        W26558  38.879  40.940  13.772
54833W        W26559  16.991  11.299  12.221
54834W        W26560   5.690  23.581  14.781
54835W        W26561   0.472  15.212   0.979
54836W        W26562   1.480  43.055  12.711
54837W        W26563  14.094  17.253   0.488
54838W        W26564  44.336  36.502   1.217
54839W        W26565  27.523  22.993  14.874
54840W        W26566  26.135   0.740  13.711
54841W        W26567  40.380  20.932   2.218
54842W        W26568  38.948  21.327   0.920
54843W        W26569  31.636   0.373   4.101
54844W        W26570  21.715  41.239   0.276
54845W        W26571   4.450  38.564  11.828
54846W        W26572  34.975  32.749  11.163
54847W        W26573  41.718  19.598  13.998
54848W        W26574  29.613  44.674   0.778
54849W        W26575  35.378  31.192  12.973
54850W        W26576   0.633  16.656  13.984
54851W        W26577  28.273  25.883   3.375
54852W        W26578  32.589  36.361   4.290
54853W        W26579   7.726  41.406   3.065
54854W        W26580  28.991  39.496   1.137
54855W        W26581  40.843   6.819  12.873
54856W        W26582  27.659  18.075  14.393
54857W        W26583  13.616  15.521   0.356
54858W        W26584  14.433   2.851  10.710
54859W        W26585  15.581  40.329   4.958
54860W        W26586   6.307  20.545   3.246
54861W        W26587  33.411  41.542   0.416
54862W        W26588   8.675  14.683   0.937
54863W        W26589   8.830  15.064   4.903
54864W        W26590  42.338  31.994   1.238
54865W        W26591  22.885  34.389  12.628
54866W        W26592  30.945   6.217   2.269
54867W        W26593  38.923  40.469   0.191
54868W        W26594  43.425  16.092   1.952
54869W        W26595  17.169  30.316   4.259
54870W        W26596  15.575  21.028   2.218
54871W        W26597  19.531   7.713   1.426
54872W        W26598  39.551  10.696   2.868
54873W        W26599  13.205   0.922  14.119
54874W        W26600  28.996  29.052   1.694
54875W        W26601  41.587  11.217  13.033
54876W        W26602  14.547  24.196  11.166
54877W        W26603   4.119  38.024   0.518
54878W        W26604   0.730   5.291   1.447
54879W        W26605   4.283  40.835   4.708
54880W        W26606  15.731   0.468  11.182
54881W        W26607  19.033  28.759  10.603
54882W        W26608  29.152  20.639   0.898
54883W        W26609  28.265  35.952   1.233
54884W        W26610   9.626   0.369   4.323
54885W        W26611  10.206  24.972   3.796
54886W        W26612  10.340  14.719  12.951
54887W        W26613  25.260  24.103  14.455
54888W        W26614   6.410  40.888   4.283
54889W        W26615  10.397  20.812  10.565
54890W        W26616  19.882  10.192  13.026
54891W        W26617  26.392  30.612   5.116
54892W        W26618  20.518  33.847   0.471
54893W        W26619  24.426   4.828   2.887
54894W        W26620  16.495  29.919   1.773
54895W        W26621   5.813  14.418   1.736
54896W        W26622  37.409  44.964  13.208
54897W        W26623  16.318  40.905   0.846
54898W        W26624  20.791  40.539   3.662
54899W        W26625   7.409  20.357  12.825
54900W        W26626   5.189  27.242  11.179
54901W        W26627  18.751  24.692   2.301
54902W        W26628  43.679   3.243   2.821
54903W        W26629  31.934  19.481  12.238
54904W        W26630  19.004  13.929  13.901
54905W        W26631  25.523  32.606   2.221
54906W        W26632  44.777   7.156  11.382
54907W        W26633  40.041  13.764   0.156
54908W        W26634  38.971   9.151   2.184
54909W        W26635  44.459  33.788  11.176
54910W        W26636  18.881  32.896   2.247
54911W        W26637  13.360  22.438  13.971
54912W        W26638   1.752  33.885  11.493
54913W        W26639  30.560  12.137   4.094
54914W        W26640  39.865  20.288  11.486
54915W        W26641  30.012  31.843  14.234
54916W        W26642  38.993  30.497   3.821
54917W        W26643  20.656  11.674   1.649
54918W        W26644  12.958  34.295   1.408
54919W        W26645  28.904   9.840   3.331
54920W        W26646   3.509   1.772  12.442
54921W        W26647  27.053  15.556   4.073
54922W        W26648  15.271  31.442  14.977
54923W        W26649  35.203   3.858   1.841
54924W        W26650  23.269   8.996   2.879
54925W        W26651  38.537  35.450   4.721
54926W        W26652   5.135  35.509  10.582
54927W        W26653  42.777  37.909   4.674
54928W        W26654  38.367  34.352  10.609
54929W        W26655  13.519  12.757   2.879
54930W        W26656  13.761   8.765   2.823
54931W        W26657   7.794  17.734   2.860
54932W        W26658  20.156  12.623  13.778
54933W        W26659   9.652  23.454  13.229
54934W        W26660  30.172  38.952  14.211
54935W        W26661  34.452  37.264   0.217
54936W        W26662  41.933  11.389   3.622
54937W        W26663  23.361  18.516  13.177
54938W        W26664  20.069  29.256   4.547
54939W        W26665  20.073   3.666  10.745
54940W        W26666  35.347  17.108   4.147
54941W        W26667  42.352  41.108  10.437
54942W        W26668  33.899   1.514  13.359
54943W        W26669   9.440  35.826   4.036
54944W        W26670  16.098   5.339  12.082
54945W        W26671  22.688   4.925  14.441
54946W        W26672  21.004  19.764  12.442
54947W        W26673  35.385  15.498   0.786
54948W        W26674  30.851  16.623  13.564
54949W        W26675  41.813  14.820  11.521
54950W        W26676  35.314  34.501   4.365
54951W        W26677  34.445  10.315  12.755
54952W        W26678  31.391   4.826   0.901
54953W        W26679  22.021  33.661   1.756
54954W        W26680  32.129  43.996   1.151
54955W        W26681  20.173  25.074   0.737
54956W        W26682  13.827  31.003   0.913
54957W        W26683  16.574  40.762  13.740
54958W        W26684  14.780  13.270  10.773
54959W        W26685  23.052  13.715   1.674
54960W        W26686  29.616  38.206   2.258
54961W        W26687  15.098  22.564  11.419
54962W        W26688  34.459  24.692   4.741
54963W        W26689  22.788  19.643  12.973
54964W        W26690  37.171  18.777  10.860
54965W        W26691   3.547  27.338  13.787
54966W        W26692  23.391  26.608   3.307
54967W        W26693  34.929  29.103   4.442
54968W        W26694  25.557   1.313  14.844
54969W        W26695   4.744  26.726  10.169
54970W        W26696  40.758  43.527  13.795
54971W        W26697   5.843  44.837  10.091
54972W        W26698  33.973  21.513  12.531
54973W        W26699  15.077  27.054  11.903
54974W        W26700   8.969  43.826  13.307
54975W        W26701  38.483  35.071  14.384
54976W        W26702  26.656  32.039   2.201
54977W        W26703   5.465  10.728  12.856
54978W        W26704  29.527  41.761  10.056
54979W        W26705   3.875  37.908  12.392
54980W        W26706  23.503   3.773   0.508
54981W        W26707  28.428  15.700  14.617
54982W        W26708  27.069  37.502  12.588
54983W        W26709  27.791  18.164   2.264
54984W        W26710  31.848  25.553  11.600
54985W        W26711  25.883  30.653   1.011
54986W        W26712  25.450   9.929   0.219
54987W        W26713  34.491  36.606  12.070
54988W        W26714  40.430  43.734   1.153
54989W        W26715  39.313  44.072  11.158
54990W        W26716  25.021  23.441   3.238
54991W        W26717  11.276  16.154   2.820
54992W        W26718   0.216  22.695  13.007
54993W        W26719  28.867  34.341  12.129
54994W        W26720   9.111   7.849   3.171
54995W        W26721   9.675  34.835  10.638
54996W        W26722  41.030  37.940   3.099
54997W        W26723   3.279   1.557   2.190
54998W        W26724  40.385   2.657   2.333
54999W        W26725   4.673  12.296  12.058
55000W        W26726  38.406  25.967   0.891
55001W        W26727  30.921  13.703   4.633
55002W        W26728  32.020  44.516   4.042
55003W        W26729  41.511   9.581  11.859
55004W        W26730  33.175   4.783  13.043
55005W        W26731  29.882   3.057  10.679
55006W        W26732   8.774  23.185   1.103
55007W        W26733  36.096  16.684   1.332
55008W        W26734  28.308  24.279   4.120
55009W        W26735   0.339  12.443   1.825
55010W        W26736  13.598  19.517   4.769
55011W        W26737  19.682   7.239   1.233
55012W        W26738  22.589  29.522   2.165
55013W        W26739  12.215  37.259  14.815
55014W        W26740  31.283   6.621   2.227
55015W        W26741  37.601   1.556   2.876
55016W        W26742  29.687   4.670  13.153
55017W        W26743  28.314  35.414   3.196
55018W        W26744  35.009   3.164   1.304
55019W        W26745  30.278   3.411   1.169
55020W        W26746   3.542  31.501  14.058
55021W        W26747  20.207  30.418   0.774
55022W        W26748   0.495  32.983  13.914
55023W        W26749  20.506  16.690  11.147
55024W        W26750   9.401  36.944  14.044
55025W        W26751   3.960   8.312   4.249
55026W        W26752  22.398  26.889  14.361
55027W        W26753  35.912  30.517   0.411
55028W        W26754  23.027  32.694   3.859
55029W        W26755  16.551  10.254  14.489
55030W        W26756  30.829  43.837   2.329
55031W        W26757   8.073  42.922   4.542
55032W        W26758  30.704  10.806  13.338
55033W        W26759  20.739  38.297   0.861
55034W        W26760   5.324  10.474  13.811
55035W        W26761  29.512   9.361  12.458
55036W        W26762  40.947  27.081  11.611
55037W        W26763  16.219  35.179  12.375
55038W        W26764   5.534  15.103  11.121
55039W        W26765  35.535   4.912   0.786
55040W        W26766  19.567  34.036   2.801
55041W        W26767  34.996  29.450  14.255
55042W        W26768  22.081  23.559   2.053
55043W        W26769   0.719  33.854  11.448
55044W        W26770  36.671  30.946   4.339
55045W        W26771  13.581  41.108  12.449
55046W        W26772  20.036  36.810   2.312
55047W        W26773  12.082  18.329  11.990
55048W        W26774  36.524  33.864  11.610
55049W        W26775  28.052  14.111  13.784
55050W        W26776  22.600  27.496  10.493
55051W        W26777  43.456  12.210  10.406
55052W        W26778  22.160  44.775   1.078
55053W        W26779   5.491   2.224   5.082
55054W        W26780  22.553  14.019   0.260
55055W        W26781  36.479   1.411  13.033
55056W        W26782   8.390   6.462   0.554
55057W        W26783  15.689  38.761   3.734
55058W        W26784  30.677  10.771  11.492
55059W        W26785   6.350  18.939   9.906
55060W        W26786  40.373   8.884   3.097
55061W        W26787  11.995  28.257   3.472
55062W        W26788  28.668   2.329   4.729
55063W        W26789  26.466  17.292  14.042
55064W        W26790  27.831  31.548  12.568
55065W        W26791  41.409  31.634  10.600
55066W        W26792  29.620   5.130  14.564
55067W        W26793  18.563  42.105  10.679
55068W        W26794  12.612  31.683  12.972
55069W        W26795  13.693   5.963  13.834
55070W        W26796  28.614  16.991  13.915
55071W        W26797  37.080  31.324   3.158
55072W        W26798   7.607  22.788  12.152
55073W        W26799  20.562  25.373   1.344
55074W        W26800  11.706  11.320  12.338
55075W        W26801  41.473  34.365   3.851
55076W        W26802  25.730  21.063   3.641
55077W        W26803   5.597  43.339  13.920
55078W        W26804  15.509  32.855  10.443
55079W        W26805   2.468  25.710   0.724
55080W        W26806  11.469  35.339   1.263
55081W        W26807  25.623  23.777   3.881
55082W        W26808  12.691  16.300  11.042
55083W        W26809  18.139  26.413  10.404
55084W        W26810   4.997  10.229   2.182
55085W        W26811   9.430  37.073  10.540
55086W        W26812  26.518   1.452  12.135
55087W        W26813  11.809  25.596  11.529
55088W        W26814  25.427   1.367   2.366
55089W        W26815   3.361  31.070   5.162
55090W        W26816   0.442  34.444   3.675
55091W        W26817  28.596  21.073  14.879
55092W        W26818  31.482  39.552  14.816
55093W        W26819  13.077  38.183  11.562
55094W        W26820   5.739  25.093   1.188
55095W        W26821   0.942  36.860   0.850
55096W        W26822  17.555  37.479   1.422
55097W        W26823  43.696  43.142  14.111
55098W        W26824   7.144  14.650   3.134
55099W        W26825  42.396  26.994  10.681
55100W        W26826   2.339  11.977   2.136
55101W        W26827  38.941  38.103  12.427
55102W        W26828  30.806  21.556  12.386
55103W        W26829  32.924  10.367   1.317
55104W        W26830  25.965  15.559  12.402
55105W        W26831  18.532  25.613  10.722
55106W        W26832   3.750  29.098   4.619
55107W        W26833   1.752  26.613  11.636
55108W        W26834  13.894  14.941   1.873
55109W        W26835  34.584  17.629   4.252
55110W        W26836   3.206  27.424   0.851
55111W        W26837  11.884  20.718  13.429
55112W        W26838  35.300  36.906  13.346
55113W        W26839  25.170   2.416  14.022
55114W        W26840  38.472  15.176   1.056
55115W        W26841  22.505  28.885  10.794
55116W        W26842  11.725   8.129  12.358
55117W        W26843  15.837  33.684  12.262
55118W        W26844  10.724  40.516   1.479
55119W        W26845  20.993  19.098  13.047
55120W        W26846   5.492  37.563  13.911
55121W        W26847  22.254  41.221  11.511
55122W        W26848  38.895  10.845  12.049
55123W        W26849  20.798  20.575   2.386
55124W        W26850  24.590  11.808  14.454
55125W        W26851   8.811  44.808   0.449
55126W        W26852  31.629  20.656  12.662
55127W        W26853  20.051  16.113  11.511
55128W        W26854   9.429  36.979   3.181
55129W        W26855  22.167  19.018  11.563
55130W        W26856   4.449  36.442  11.869
55131W        W26857  30.372   0.831  12.907
55132W        W26858  37.851  39.934  11.684
55133W        W26859  41.627  23.014  14.768
55134W        W26860  34.466  30.738  14.509
55135W        W26861  19.281  23.583  10.768
55136W        W26862   9.225  18.351  10.741
55137W        W26863   4.315  43.123  13.578
55138W        W26864  32.683  22.670   0.318
55139W        W26865  13.297   7.103  14.053
55140W        W26866  14.060  34.891  14.931
55141W        W26867  24.307  28.532  14.745
55142W        W26868  36.593  12.702  14.115
55143W        W26869  40.277  22.700  11.100
55144W        W26870  37.270   8.396   4.053
55145W        W26871  17.733  11.411   2.323
55146W        W26872  36.202  16.697  12.595
55147W        W26873  15.791   7.152  13.285
55148W        W26874   6.903  15.184   2.402
55149W        W26875  42.044   7.373  12.165
55150W        W26876  28.572  35.348  12.128
55151W        W26877   7.176  15.742   2.225
55152W        W26878   4.699  17.101  12.037
55153W        W26879  27.828  36.519  14.325
55154W        W26880   6.937  23.620  10.718
55155W        W26881   4.384  20.067  12.858
55156W        W26882   8.143  16.201   0.962
55157W        W26883  19.579  31.996  10.427
55158W        W26884  31.568  23.765  14.642
55159W        W26885  12.172   9.076   4.122
55160W        W26886  21.728  26.535   4.751
55161W        W26887  41.408  15.846   4.175
55162W        W26888   5.074  35.607   4.179
55163W        W26889  14.592  15.605  11.131
55164W        W26890   0.667  11.747  12.504
55165W        W26891  17.812   8.069  11.615
55166W        W26892   0.020  33.153   4.049
55167W        W26893  25.502  44.461  11.082
55168W        W26894  41.996  38.297  12.601
55169W        W26895  13.333  36.906  10.553
55170W        W26896   6.127  41.313   4.417
55171W        W26897  15.191  40.101  10.994
55172W        W26898   2.484  18.558  13.027
55173W        W26899  34.790   8.779   1.353
55174W        W26900  22.159  38.316   3.882
55175W        W26901  29.563  13.035   4.147
55176W        W26902  14.812  39.318  12.095
55177W        W26903  19.156  26.444   2.482
55178W        W26904  30.895  19.385  10.371
55179W        W26905  31.994  35.825  10.408
55180W        W26906  43.076  30.669   3.383
55181W        W26907  16.477  36.198   0.188
55182W        W26908  36.563  40.300  11.503
55183W        W26909  14.609  21.296   1.787
55184W        W26910  18.610  13.802  13.030
55185W        W26911   6.847   6.803  14.712
55186W        W26912  37.283  27.594  11.138
55187W        W26913  31.091  28.657  11.158
55188W        W26914   9.114  14.610   2.972
55189W        W26915  26.510   1.906   3.611
55190W        W26916  21.523   6.475  14.338
55191W        W26917  38.086  24.616   2.847
55192W        W26918  34.440  23.993  12.137
55193W        W26919   0.782  29.639   4.760
55194W        W26920  20.304   3.596   3.251
55195W        W26921  12.944  19.600  13.085
55196W        W26922   7.266   0.344   1.472
55197W        W26923  20.155  32.526  14.750
55198W        W26924  40.412  22.354  12.067
55199W        W26925  11.833   5.432  14.985
55200W        W26926  13.154  19.183  12.883
55201W        W26927  21.256  25.678  11.564
55202W        W26928  41.060  25.116   3.183
55203W        W26929  42.480   1.702   0.919
55204W        W26930   8.393   2.396   1.896
55205W        W26931  22.137  19.350  11.172
55206W        W26932  36.144   9.295  11.068
55207W        W26933  13.742  18.129   1.713
55208W        W26934  15.829  22.218   2.800
55209W        W26935  33.493   3.039  13.817
55210W        W26936  29.932  38.453  13.458
55211W        W26937   2.271  28.131  12.373
55212W        W26938  12.504  32.080  13.289
55213W        W26939   2.673   5.310   1.284
55214W        W26940  17.752  27.711  11.312
55215W        W26941  28.528  41.203  13.509
55216W        W26942  41.522  18.810  14.657
55217W        W26943  16.295   5.838  11.409
55218W        W26944  43.964  35.664  11.605
55219W        W26945  28.123  42.515  12.651
55220W        W26946  16.260  27.501   2.280
55221W        W26947   3.613  25.126   4.580
55222W        W26948  21.286  33.495  10.373
55223W        W26949   1.396  40.455  13.008
55224W        W26950  35.291  38.375   1.774
55225W        W26951  16.781   0.810   4.661
55226W        W26952  11.344  43.434  14.935
55227W        W26953  19.817  40.217   2.201
55228W        W26954  24.790  26.608   3.702
55229W        W26955  34.543  25.722   4.657
55230W        W26956   6.674  21.028  14.448
55231W        W26957  26.490  42.378   1.008
55232W        W26958  16.197  13.600  10.690
55233W        W26959  15.494   7.316   4.085
55234W        W26960   9.402  38.030  10.723
55235W        W26961   0.275   4.766  12.022
55236W        W26962  35.863   3.341  12.920
55237W        W26963  21.267  31.078   3.126
55238W        W26964  25.582  40.034   1.016
55239W        W26965  10.616  37.889  12.055
55240W        W26966  34.886  14.791  11.198
55241W        W26967   4.882  29.398   1.439
55242W        W26968  19.701  15.274  14.911
55243W        W26969  33.961  29.005   2.962
55244W        W26970   8.626  34.799  10.673
55245W        W26971  31.609  12.858  14.958
55246W        W26972  29.587  22.028  12.502
55247W        W26973   3.011  44.526   0.683
55248W        W26974  11.220   0.328   2.613
55249W        W26975  33.621   0.939   1.393
55250W        W26976  19.648  17.556   2.293
55251W        W26977  40.748   0.799  11.647
55252W        W26978  33.137  14.707  11.630
55253W        W26979  19.606   4.759   1.849
55254W        W26980  27.666  27.935   3.222
55255W        W26981  23.161  44.863   1.149
55256W        W26982  34.138  43.452  12.089
55257W        W26983  41.869  34.681   3.729
55258W        W26984  13.742  11.664   3.578
55259W        W26985   8.105  24.606  12.034
55260W        W26986  27.490  38.637  13.880
55261W        W26987  40.583  37.092   2.884
55262W        W26988  12.604  18.524  10.666
55263W        W26989  35.493   9.064   1.424
55264W        W26990   1.063  28.252  12.049
55265W        W26991  36.265  25.279  13.670
55266W        W26992  21.749   1.953   0.287
55267W        W26993   9.150  24.825  11.034
55268W        W26994  30.796  37.670   2.670
55269W        W26995  20.755  40.843   0.940
55270W        W26996  11.257  38.937  14.558
55271W        W26997  32.619   6.130   2.892
55272W        W26998   4.442  24.675  14.454
55273W        W26999  11.934  40.743   2.792
55274W        W27000  41.022  21.379   0.293
55275W        W27001   1.894  24.159  12.541
55276W        W27002   0.567  18.179   2.066
55277W        W27003  19.661   3.378  11.639
55278W        W27004   7.916  25.229   4.146
55279W        W27005  44.920  42.455   4.291
55280W        W27006  28.431  11.022  13.467
55281W        W27007  39.780  29.634   0.060
55282W        W27008  31.105  24.264   4.676
55283W        W27009   6.062   5.389  13.803
55284W        W27010  41.527  44.260  12.116
55285W        W27011  37.056  12.762  10.526
55286W        W27012  33.342  23.222   1.898
55287W        W27013  27.560   2.812  14.086
55288W        W27014  42.830   7.120   3.643
55289W        W27015  31.507   9.180  11.692
55290W        W27016   5.948  35.415   1.670
55291W        W27017   3.637   1.448  12.032
55292W        W27018  12.090  41.011   1.437
55293W        W27019  27.482   7.939  11.204
55294W        W27020   6.660  24.560  13.900
55295W        W27021  34.116  35.439  10.388
55296W        W27022  12.571  13.362  13.822
55297W        W27023   2.996   4.877  14.508
55298W        W27024  23.193  27.903   1.851
55299W        W27025  44.512   0.545   1.804
55300W        W27026  12.154  11.122   3.348
55301W        W27027   8.948  44.070  10.741
55302W        W27028  21.708   8.952  13.771
55303W        W27029  41.476  18.023   2.886
55304W        W27030   7.585  33.035  12.555
55305W        W27031   0.958   5.349   4.047
55306W        W27032  42.007   3.563  13.989
55307W        W27033   3.664  24.730  12.432
55308W        W27034  28.947   5.208   0.333
55309W        W27035   8.954   4.702  14.849
55310W        W27036  32.044  39.380  14.478
55311W        W27037   2.485   4.217  12.862
55312W        W27038  44.316  11.684  14.349
55313W        W27039  26.969   7.138  12.498
55314W        W27040  20.134  20.082   0.360
55315W        W27041  31.868  42.657  11.894
55316W        W27042   5.387  14.234   1.375
55317W        W27043  10.082   3.450  11.658
55318W        W27044  31.411  30.506   0.943
55319W        W27045  21.023  28.670   4.670
55320W        W27046  38.037   4.315   1.126
55321W        W27047  34.165  21.011   4.614
55322W        W27048  42.698   9.357   0.321
55323W        W27049  10.694   3.745   0.722
55324W        W27050  31.003  13.209   3.250
55325W        W27051  17.211  41.080  11.614
55326W        W27052   4.213  17.628  14.675
55327W        W27053   5.817  43.872  13.997
55328W        W27054  10.906  13.607  13.875
55329W        W27055  13.044  36.391   3.186
55330W        W27056  31.671  13.818   0.862
55331W        W27057   0.920  19.178  12.003
55332W        W27058  34.770  16.811  12.555
55333W        W27059  26.608  16.892   1.793
55334W        W27060  23.538  22.687  13.983
55335W        W27061  39.001   6.789  12.010
55336W        W27062  13.653  24.531  11.062
55337W        W27063  44.429  30.080  10.987
55338W        W27064  34.005  40.791   4.282
55339W        W27065  33.200  30.376  14.578
55340W        W27066   3.715  31.655   1.777
55341W        W27067   9.643  22.468  13.778
55342W        W27068  22.288   6.840   1.684
55343W        W27069   6.419  18.071   4.745
55344W        W27070  29.150  23.697   2.044
55345W        W27071  13.826  35.247   2.662
55346W        W27072  44.979  24.129  10.354
55347W        W27073  31.965  42.519   2.109
55348W        W27074  22.990  40.771  12.558
55349W        W27075  16.523   5.727   0.690
55350W        W27076  17.975  12.263   0.736
55351W        W27077  23.095   6.790  10.975
55352W        W27078  32.232  42.244   4.129
55353W        W27079  13.241   2.787   2.152
55354W        W27080  14.985  33.000   3.446
55355W        W27081  33.981  24.507  10.766
55356W        W27082   9.911  33.265  11.548
55357W        W27083   2.880  13.640  13.497
55358W        W27084  41.583  24.929  10.563
55359W        W27085  29.137  23.726  11.147
55360W        W27086   6.952   7.672   2.406
55361W        W27087  43.461  22.934  10.914
55362W        W27088  20.035  26.266  13.940
55363W        W27089   2.659  37.193   0.494
55364W        W27090  39.819  27.098  13.950
55365W        W27091  40.472   6.263  13.558
55366W        W27092  35.908  35.560   2.808
55367W        W27093  26.597  40.081  13.827
55368W        W27094  20.522  11.403   3.231
55369W        W27095  35.321  11.150  12.977
55370W        W27096   2.946   7.184   0.753
55371W        W27097  38.754   9.464   4.499
55372W        W27098  13.273  29.526  13.617
55373W        W27099   2.816  38.081  10.427
55374W        W27100  13.731  34.466   0.058
55375W        W27101   6.353  37.608  11.586
55376W        W27102   4.418  11.389  12.041
55377W        W27103  31.340  33.863  13.121
55378W        W27104  29.015   7.934  13.949
55379W        W27105  36.431  11.809   0.368
55380W        W27106  29.031  22.272   4.644
55381W        W27107   2.324  19.993   1.269
55382W        W27108  30.001  30.638  13.634
55383W        W27109   0.312   5.045   4.556
55384W        W27110  32.916   4.303   3.082
55385W        W27111  36.483  18.590   1.094
55386W        W27112  20.762  37.375  11.947
55387W        W27113  20.264  39.019  14.873
55388W        W27114  42.681  38.533   9.951
55389W        W27115  15.660  15.239  14.370
55390W        W27116  32.137   7.285   2.284
55391W        W27117  18.655   8.338  13.270
55392W        W27118   9.220  23.093  11.655
55393W        W27119  37.074   8.129  12.606
55394W        W27120  13.608  28.980  10.551
55395W        W27121   4.949  30.556  10.606
55396W        W27122   5.039   6.675   4.522
55397W        W27123  17.567  35.860  13.099
55398W        W27124  21.234  17.643  12.944
55399W        W27125  23.158  43.225  10.730
55400W        W27126  18.647   3.999   3.168
55401W        W27127  14.639  38.593   0.832
55402W        W27128  12.315  15.104  14.583
55403W        W27129  31.977   5.188   3.386
55404W        W27130   3.553  31.909  11.522
55405W        W27131  28.622  18.721   2.324
55406W        W27132  40.607  39.937  14.327
55407W        W27133  22.010  25.964   3.230
55408W        W27134  44.682  26.932  11.047
55409W        W27135  35.724  43.929   4.481
55410W        W27136  44.094  17.119   2.206
55411W        W27137  12.139  17.336  13.616
55412W        W27138  35.848  16.937  10.830
55413W        W27139  30.234  20.593  14.917
55414W        W27140  17.233  35.455   4.409
55415W        W27141  25.090  42.120   0.441
55416W        W27142  20.234  26.538   0.879
55417W        W27143  18.514   1.384  13.445
55418W        W27144   0.395  24.625   2.324
55419W        W27145  41.226  29.155  11.136
55420W        W27146  21.075  13.479  12.660
55421W        W27147   6.379  18.631   3.607
55422W        W27148  44.430  44.719   1.196
55423W        W27149  40.655  12.927  14.357
55424W        W27150  13.218  36.575   1.122
55425W        W27151  29.675  31.829  13.420
55426W        W27152  42.807  22.286   1.760
55427W        W27153  27.386  18.692  11.144
55428W        W27154  20.838  25.628   4.999
55429W        W27155  35.460  42.917  14.754
55430W        W27156  24.039   4.761   2.059
55431W        W27157  21.112  22.124  14.672
55432W        W27158   3.317  33.459   0.444
55433W        W27159  16.074  16.041   0.744
55434W        W27160  28.680  26.084  12.889
55435W        W27161  16.103  37.812  12.448
55436W        W27162  23.231  31.928   0.481
55437W        W27163  20.568  23.259   3.777
55438W        W27164   9.694  13.897  14.394
55439W        W27165   7.449  25.443  13.577
55440W        W27166  21.625  21.393  13.523
55441W        W27167  26.055  37.329  12.149
55442W        W27168  29.122  26.036  14.343
55443W        W27169  40.338   0.553   2.816
55444W        W27170  28.625   0.814  12.910
55445W        W27171  26.734   8.572   2.810
55446W        W27172  40.585  25.037   5.091
55447W        W27173  33.406   0.164   2.231
55448W        W27174  42.364   0.322   3.513
55449W        W27175   7.694  12.261   3.111
55450W        W27176  20.519  19.652  12.088
55451W        W27177  24.507  19.112   4.785
55452W        W27178  14.523  33.615   3.616
55453W        W27179  13.783  10.776   3.636
55454W        W27180  39.384  40.129  11.231
55455W        W27181   4.916  18.313  11.210
55456W        W27182  38.979  39.994  14.955
55457W        W27183  44.718  42.481   4.772
55458W        W27184  29.235   3.086   5.081
55459W        W27185  40.765   7.008   0.759
55460W        W27186  19.749  31.029   2.253
55461W        W27187  33.814  31.666  12.946
55462W        W27188  39.485  23.067  11.426
55463W        W27189   3.816  11.903  13.395
55464W        W27190  10.595  43.475  11.533
55465W        W27191  27.557   0.424  10.795
55466W        W27192  13.432   0.088   2.465
55467W        W27193  20.072  29.543   3.692
55468W        W27194  32.141  44.742   1.864
55469W        W27195  38.085  37.714   1.250
55470W        W27196   0.761  24.051  11.907
55471W        W27197  38.344  38.042  14.484
55472W        W27198   3.611  32.159   1.710
55473W        W27199  12.799  38.819  13.372
55474W        W27200   9.315  30.934   4.555
55475W        W27201   9.919  37.837   1.874
55476W        W27202  30.061  35.054  14.822
55477W        W27203  41.861  12.085  11.976
55478W        W27204  15.344  21.455  10.722
55479W        W27205  29.734  25.959   0.498
55480W        W27206  26.570  39.569  13.834
55481W        W27207  19.611   7.732  12.478
55482W        W27208   0.755  15.846  12.928
55483W        W27209  35.685  36.178   4.752
55484W        W27210  43.819  41.011   3.471
55485W        W27211  18.013  26.199   2.739
55486W        W27212  11.318  27.417  10.888
55487W        W27213  44.009  10.269  14.519
55488W        W27214  10.726   4.404   0.339
55489W        W27215  36.395  39.767   3.095
55490W        W27216  18.675  12.173  10.713
55491W        W27217   9.760  21.775   1.444
55492W        W27218   2.325  24.129   0.191
55493W        W27219  15.603   9.795   1.760
55494W        W27220   0.460   8.464  12.293
55495W        W27221  42.522  32.002   1.722
55496W        W27222  20.495  40.597  14.448
55497W        W27223  40.064  23.715  14.363
55498W        W27224  10.236  21.297   3.215
55499W        W27225  23.708  22.642   0.911
55500W        W27226  33.067  16.780  11.077
55501W        W27227  29.560  42.789  14.302
55502W        W27228  22.507  40.966  12.480
55503W        W27229  38.104  26.653   4.649
55504W        W27230  24.424   7.757  11.252
55505W        W27231   1.194  30.986   1.354
55506W        W27232   9.777  36.613  14.373
55507W        W27233  29.565  39.089   1.664
55508W        W27234  29.568  24.637   1.410
55509W        W27235  39.257  35.496   0.858
55510W        W27236  26.228  23.452   3.788
55511W        W27237  15.738  13.835  10.687
55512W        W27238  14.761   7.625   1.662
55513W        W27239  27.901  41.216   1.853
55514W        W27240  22.569  20.236   3.794
55515W        W27241  31.782  23.235  13.998
55516W        W27242  30.007  21.116  11.880
55517W        W27243   0.088   6.036   4.173
55518W        W27244  35.397  39.718  11.063
55519W        W27245  39.209   0.887   4.499
55520W        W27246  25.847  22.105   0.778
55521W        W27247  28.356  44.454   3.184
55522W        W27248  20.658  11.264   4.680
55523W        W27249  31.637  20.155   2.460
55524W        W27250  29.998  18.456   2.856
55525W        W27251   3.433  33.710  13.342
55526W        W27252  20.174   8.643  10.665
55527W        W27253  26.561  42.870  10.273
55528W        W27254   7.351   2.794   4.765
55529W        W27255  25.585   3.367  12.191
55530W        W27256  24.031  25.460   2.330
55531W        W27257  40.422   3.978  10.673
55532W        W27258  12.185  42.816   1.314
55533W        W27259  29.129  39.124  13.361
55534W        W27260  43.059  28.339   0.343
55535W        W27261  28.567   7.168   1.281
55536W        W27262  31.228  11.863   1.728
55537W        W27263  42.780   2.889  14.411
55538W        W27264  29.965  32.480   0.495
55539W        W27265   7.575  25.060   1.026
55540W        W27266  36.785   7.823   1.704
55541W        W27267  10.609  10.495   1.824
55542W        W27268   8.862  33.864   4.853
55543W        W27269  21.678  19.852  10.449
55544W        W27270  26.597  10.799  13.318
55545W        W27271  19.467  14.646  12.552
55546W        W27272   9.718  28.194   0.888
55547W        W27273  22.586  20.115   0.301
55548W        W27274   0.891  29.210   4.204
55549W        W27275  38.166  18.699  12.506
55550W        W27276   1.628  40.399  13.469
55551W        W27277  18.632  24.509  14.708
55552W        W27278   8.068   5.170  11.462
55553W        W27279  16.092  16.141  14.673
55554W        W27280   1.773   0.439  12.021
55555W        W27281  33.351  29.412  11.126
55556W        W27282  33.197  16.088   3.898
55557W        W27283  41.631  42.073   5.147
55558W        W27284   9.577  32.088  10.831
55559W        W27285  44.814   8.227  12.965
55560W        W27286  41.288  28.050  13.000
55561W        W27287  24.886  25.975  11.532
55562W        W27288  23.228  27.318   4.501
55563W        W27289  32.185  43.369  12.431
55564W        W27290  28.574  23.225   1.829
55565W        W27291  31.117   8.154   3.270
55566W        W27292  42.042  18.261  10.411
55567W        W27293  19.781  35.386  13.694
55568W        W27294   5.894  15.907  10.943
55569W        W27295  32.022   9.461  10.513
55570W        W27296  33.483   2.247  11.486
55571W        W27297   1.033   9.361  13.586
55572W        W27298  18.571  44.622   4.224
55573W        W27299  28.811  20.742  14.140
55574W        W27300  14.558   3.322   2.114
55575W        W27301   1.849  26.078  10.798
55576W        W27302  17.690   8.870   3.160
55577W        W27303  37.889   3.792   2.770
55578W        W27304   2.323  35.663  12.433
55579W        W27305  17.489  43.866  14.951
55580W        W27306  40.059   7.359  14.744
55581W        W27307  12.309  15.720   3.750
55582W        W27308  32.303  30.496   1.386
55583W        W27309  39.878  28.033   0.866
55584W        W27310  33.758  40.450  10.796
55585W        W27311  18.759  14.122  12.643
55586W        W27312  12.659  27.527  14.235
55587W        W27313  37.662   6.214   0.003
55588W        W27314   4.479  36.187   2.298
55589W        W27315   7.642  12.766  12.000
55590W        W27316   5.280  21.333   3.697
55591W        W27317  22.644  10.679  14.664
55592W        W27318  37.030  28.482   3.228
55593W        W27319  19.449   7.200   0.767
55594W        W27320  13.160  31.447   1.324
55595W        W27321  25.497  11.318  12.708
55596W        W27322  11.861  30.912  11.333
55597W        W27323  38.875   3.845   1.919
55598W        W27324  15.293  18.170   4.677
55599W        W27325  17.617  36.452   3.385
55600W        W27326  32.022  10.731   3.423
55601W        W27327   8.918   4.025  12.172
55602W        W27328  23.108  40.034  14.952
55603W        W27329   8.803   2.420  11.662
55604W        W27330   5.190  29.168  12.851
55605W        W27331  22.622  11.367  11.469
55606W        W27332  32.545  26.865   0.405
55607W        W27333  21.630  44.720  11.074
55608W        W27334  24.199  28.222  13.406
55609W        W27335  38.821  23.677   4.055
55610W        W27336  39.355  38.763  14.708
55611W        W27337  31.917   0.974  11.635
55612W        W27338  36.163   5.972  12.394
55613W        W27339   4.348  29.861  13.601
55614W        W27340  19.104  29.570  12.919
55615W        W27341  19.152  32.150  12.305
55616W        W27342  28.821  24.924  11.217
55617W        W27343  19.949   5.992   0.944
55618W        W27344  15.688   4.245   2.910
55619W        W27345  42.807  26.705  13.060
55620W        W27346  22.765  39.446   1.941
55621W        W27347  29.602  42.056  11.379
55622W        W27348  37.118  23.549  12.617
55623W        W27349  35.915  36.547   1.935
55624W        W27350  42.448  22.728  13.346
55625W        W27351  36.854  39.802   0.938
55626W        W27352  32.533  32.618   2.869
55627W        W27353  13.122  43.231  14.881
55628W        W27354  13.416  22.022  13.391
55629W        W27355   4.270  28.972  14.392
55630W        W27356  13.697   9.225   3.132
55631W        W27357  28.024  22.926   3.739
55632W        W27358   2.854  11.091  14.392
55633W        W27359  20.837  19.769  10.781
55634W        W27360  29.564  27.218  13.477
55635W        W27361   1.956  10.715  13.904
55636W        W27362  31.333   8.393   2.342
55637W        W27363   5.258  43.806  14.855
55638W        W27364   6.515   3.247   3.911
55639W        W27365  26.516   4.274  12.244
55640W        W27366   7.800   7.918   2.956
55641W        W27367  40.309  36.355  12.150
55642W        W27368   1.384  40.687  11.740
55643W        W27369   1.947   1.344   3.711
55644W        W27370   7.835   4.699  12.267
55645W        W27371  13.742  35.464   3.417
55646W        W27372  26.002  28.428   2.200
55647W        W27373  27.994  14.188   1.850
55648W        W27374  25.445   4.305  11.437
55649W        W27375  23.560  22.742  10.971
55650W        W27376  27.686  41.858  14.006
55651W        W27377  32.177  24.335   3.244
55652W        W27378  29.762   3.777  12.024
55653W        W27379  16.544  16.292  14.902
55654W        W27380  29.656  20.161   2.345
55655W        W27381  37.454  30.870   4.818
55656W        W27382  38.899  23.050   0.239
55657W        W27383  38.001  34.935  13.120
55658W        W27384  17.704   7.491   0.596
55659W        W27385  26.482   4.643  14.271
55660W        W27386   7.310  16.266   4.506
55661W        W27387  15.768  37.844   3.368
55662W        W27388  38.009  44.752  14.305
55663W        W27389  16.377  19.561  12.856
55664W        W27390  29.668  13.338  14.534
55665W        W27391   5.948  12.162   0.415
55666W        W27392  12.657  43.707  12.387
55667W        W27393   3.577   9.315   4.109
55668W        W27394  19.971  26.665   0.399
55669W        W27395  13.852  40.709   3.389
55670W        W27396  12.403  29.676   4.072
55671W        W27397  12.237  33.666   0.444
55672W        W27398  13.876   7.292  13.465
55673W        W27399  37.370   6.183   2.944
55674W        W27400  22.072  11.243  13.119
55675W        W27401   7.630  35.844   1.793
55676W        W27402  29.170  11.119  13.691
55677W        W27403  27.457   9.234   3.628
55678W        W27404  22.125  13.303  11.077
55679W        W27405  16.714   0.936  13.372
55680W        W27406  25.930  11.204  13.423
55681W        W27407  32.669  31.642   4.902
55682W        W27408   2.861   4.827   0.506
55683W        W27409  38.030  16.643  10.488
55684W        W27410  26.420  29.866  12.667
55685W        W27411  31.493  36.083   4.342
55686W        W27412  21.629  13.096  11.136
55687W        W27413   6.462   2.823   3.190
55688W        W27414   9.157  39.378   3.009
55689W        W27415  29.551  12.594   0.874
55690W        W27416  36.027   0.731  13.325
55691W        W27417   8.954  21.287  11.561
55692W        W27418  38.639  32.062   1.435
55693W        W27419  28.968   8.344   2.242
55694W        W27420   4.274  37.493   2.831
55695W        W27421  10.602  18.409  14.914
55696W        W27422  42.982   1.899   4.561
55697W        W27423  31.472  41.400   2.267
55698W        W27424  28.925  26.991  10.356
55699W        W27425   8.356  40.566  12.770
55700W        W27426  35.807  26.396   4.442
55701W        W27427   5.133  13.184   1.290
55702W        W27428  24.682  36.451  13.724
55703W        W27429   5.279  41.474   2.761
55704W        W27430  17.075  41.901   3.921
55705W        W27431  41.762  41.339   2.753
55706W        W27432   2.703   1.978   4.728
55707W        W27433  31.956  40.672  12.054
55708W        W27434  39.029   1.724   2.233
55709W        W27435   1.483   8.900   2.243
55710W        W27436  22.570  41.693  13.672
55711W        W27437  29.911   4.637  12.064
55712W        W27438  42.983  10.585   4.064
55713W        W27439  13.570  36.968   3.598
55714W        W27440   7.474  23.246  13.800
55715W        W27441  14.250  11.795  12.508
55716W        W27442  42.534  17.100   0.467
55717W        W27443  43.263  13.336   3.185
55718W        W27444   7.241   7.708  12.809
55719W        W27445   2.562   1.586   1.879
55720W        W27446  39.894  13.810   4.540
55721W        W27447  22.459  42.997  13.165
55722W        W27448  34.002  40.014   1.308
55723W        W27449  22.582   6.165   4.077
55724W        W27450  27.014  32.026   3.541
55725W        W27451   0.034  36.290   0.850
55726W        W27452  38.622   8.728  13.276
55727W        W27453   9.907  12.743   2.144
55728W        W27454  35.724   7.206   0.932
55729W        W27455  21.829   1.809  12.417
55730W        W27456  40.496  32.349  13.848
55731W        W27457   3.880  18.636   0.347
55732W        W27458  25.697  22.420  14.588
55733W        W27459  18.134  11.743   1.930
55734W        W27460  29.132   3.893   2.651
55735W        W27461  22.898  19.609  13.482
55736W        W27462  17.150  32.529   1.962
55737W        W27463  19.061  42.377  11.549
55738W        W27464  18.789  42.956  12.667
55739W        W27465  40.582  29.970   4.688
55740W        W27466  16.118  16.805  14.002
55741W        W27467  42.634  38.886   0.951
55742W        W27468  37.816  18.057   2.386
55743W        W27469   7.550  19.569   3.531
55744W        W27470  25.844  10.377   2.544
55745W        W27471  33.076  30.852  14.272
55746W        W27472  21.144  38.619  11.554
55747W        W27473  23.703  25.095  13.870
55748W        W27474  25.853  19.508   3.161
55749W        W27475   6.098  19.858  11.280
55750W        W27476   6.105  29.183   1.442
55751W        W27477  15.228   6.830  12.647
55752W        W27478  19.135  28.481   1.100
55753W        W27479  38.526  32.275   4.683
55754W        W27480   0.721  17.667   2.180
55755W        W27481  17.322  42.986   0.621
55756W        W27482  15.791  14.687   3.022
55757W        W27483  38.037  11.173   2.408
55758W        W27484  29.960  44.005   3.806
55759W        W27485  36.100  27.314  13.255
55760W        W27486  25.186  22.635  11.489
55761W        W27487  15.207  13.453   1.122
55762W        W27488  36.885  21.402   4.927
55763W        W27489  35.856   6.946   1.417
55764W        W27490  41.430  42.949   0.664
55765W        W27491   1.862  33.609   4.093
55766W        W27492  30.309  42.814   1.389
55767W        W27493   2.846  19.910   4.292
55768W        W27494  43.391  22.782  11.564
55769W        W27495  33.893  19.915  13.067
55770W        W27496  20.667  32.465   2.015
55771W        W27497  44.228  32.595   4.855
55772W        W27498   5.169  28.031  14.311
55773W        W27499   6.179  28.149   5.212
55774W        W27500  12.133  25.038   1.002
55775W        W27501  25.950   5.769   3.714
55776W        W27502  27.243  35.781   1.290
55777W        W27503  23.300  26.753  12.893
55778W        W27504  12.203   7.351   1.488
55779W        W27505  22.549   3.044  12.213
55780W        W27506  16.240   3.082   5.012
55781W        W27507   9.819  25.577  10.226
55782W        W27508  11.678  31.990   4.310
55783W        W27509  21.341  26.467   3.283
55784W        W27510  26.521  31.034   2.342
55785W        W27511  21.216  41.004   1.900
55786W        W27512  33.988  12.439   2.210
55787W        W27513  21.563  27.612   2.082
55788W        W27514  25.474  32.633  12.991
55789W        W27515  39.369  26.548   0.810
55790W        W27516  36.208  28.692   4.180
55791W        W27517  14.747  17.363   4.894
55792W        W27518  12.546   8.648  11.274
55793W        W27519  21.153  22.311  11.630
55794W        W27520  22.999  44.450  11.066
55795W        W27521  33.002  21.634   0.818
55796W        W27522  17.366  36.624   1.257
55797W        W27523  33.691  13.240   4.876
55798W        W27524  13.852  44.008   3.649
55799W        W27525   4.786   0.840   2.376
55800W        W27526  34.170  14.097  14.872
55801W        W27527  19.872   2.912   0.509
55802W        W27528  17.255  40.593  13.871
55803W        W27529   8.315  24.148  12.356
55804W        W27530   0.179  30.990   1.214
55805W        W27531  11.461  41.634  13.888
55806W        W27532  21.357  37.813   4.088
55807W        W27533  15.675  37.571   0.433
55808W        W27534  44.486  19.978  12.485
55809W        W27535  15.579   9.323   2.934
55810W        W27536  11.851  10.938   0.387
55811W        W27537  20.505  37.433  14.859
55812W        W27538  40.473   8.916  12.576
55813W        W27539  12.701  44.815  13.335
55814W        W27540  21.268  30.696  13.011
55815W        W27541  40.604  13.153  13.902
55816W        W27542  21.029  31.536   0.047
55817W        W27543   5.200   7.739  13.299
55818W        W27544  13.855  31.352  12.055
55819W        W27545  32.184  17.119   5.056
55820W        W27546   9.844  26.675  14.123
55821W        W27547   3.892  43.038  11.549
55822W        W27548   3.746  35.066   1.158
55823W        W27549  24.263  17.591  13.789
55824W        W27550  17.788  32.167  10.630
55825W        W27551  18.122  10.364  14.002
55826W        W27552  20.554   1.461   0.841
55827W        W27553  18.118  36.912  11.220
55828W        W27554  15.122  25.004   4.719
55829W        W27555  23.983  33.548  13.113
55830W        W27556  27.645  22.208  14.428
55831W        W27557  11.179  34.691   2.312
55832W        W27558  34.056  12.692   0.750
55833W        W27559  13.304  27.004  11.602
55834W        W27560   3.493  14.768   0.319
55835W        W27561  19.959   9.488  10.988
55836W        W27562   0.844   3.882  11.229
55837W        W27563  24.134  21.055  13.786
55838W        W27564  29.412   4.961   4.268
55839W        W27565  35.807   7.360   4.609
55840W        W27566   8.180  44.248  13.367
55841W        W27567   2.921  24.669  11.087
55842W        W27568  28.444  38.274   0.472
55843W        W27569   3.147  36.912   4.255
55844W        W27570  38.516  23.536  12.327
55845W        W27571   1.718  21.334   0.450
55846W        W27572  44.954  35.759   3.606
55847W        W27573   8.096  25.836  11.358
55848W        W27574   6.464   3.025  13.806
55849W        W27575  22.506   8.106   4.440
55850W        W27576  36.969  27.448   3.243
55851W        W27577  13.487  36.661   3.190
55852W        W27578  13.022   1.843  12.379
55853W        W27579  15.588  43.205   2.143
55854W        W27580   6.172  17.964  11.479
55855W        W27581  28.687  10.257  11.416
55856W        W27582  12.923  25.698   2.833
55857W        W27583  26.501  44.971   1.765
55858W        W27584  36.580  31.101  13.431
55859W        W27585  42.319  10.349   4.595
55860W        W27586  22.746   0.989   0.723
55861W        W27587   1.930  14.734  13.828
55862W        W27588  25.482   7.714   1.641
55863W        W27589  14.634  12.948  14.402
55864W        W27590  31.522  31.118  14.805
55865W        W27591   2.192  21.587  13.364
55866W        W27592  43.872   2.958  13.776
55867W        W27593  10.916  11.174   3.227
55868W        W27594  36.574  34.105  12.974
55869W        W27595  20.766  38.485  13.723
55870W        W27596  13.547  42.823  12.082
55871W        W27597  17.315  28.935   4.083
55872W        W27598   3.788  40.906   4.941
55873W        W27599  12.559  28.859  11.089
55874W        W27600  33.666  27.186  12.071
55875W        W27601  13.440  21.645   3.619
55876W        W27602   1.242  17.821   4.174
55877W        W27603   0.431  42.050  12.949
55878W        W27604  39.547   6.231  13.403
55879W        W27605   6.862  31.522  10.716
55880W        W27606  11.921  34.030   0.811
55881W        W27607  40.297  13.381   2.881
55882W        W27608  10.469  40.424  11.130
55883W        W27609  13.870  24.998  11.127
55884W        W27610  34.563  23.191  10.711
55885W        W27611  37.702  23.716  11.171
55886W        W27612  32.320  11.039   1.398
55887W        W27613  35.766  22.602   0.835
55888W        W27614  32.159   6.231  12.003
55889W        W27615  34.805  39.631   0.329
55890W        W27616  27.423   7.099   3.715
55891W        W27617   7.783  25.407  14.402
55892W        W27618   5.355  18.038  11.206
55893W        W27619   4.323  18.366  12.514
55894W        W27620  11.250  35.886   3.756
55895W        W27621  15.765  11.075   1.453
55896W        W27622   4.680  22.098  14.212
55897W        W27623  34.608  42.018  11.112
55898W        W27624   2.979  20.933  10.946
55899W        W27625  26.144  38.022   0.386
55900W        W27626  31.346   3.616  12.091
55901W        W27627  29.482  22.013   4.694
55902W        W27628  17.376  35.507   0.279
55903W        W27629  15.318  35.388   1.292
55904W        W27630  27.225  35.512   1.736
55905W        W27631  25.218  44.213   3.807
55906W        W27632  35.117  19.364  14.025
55907W        W27633  35.051   5.463   1.276
55908W        W27634  22.759  22.730  14.446
55909W        W27635  27.231  40.353  13.144
55910W        W27636  25.822   6.651  10.672
55911W        W27637  24.693   7.363   4.487
55912W        W27638   7.162  14.653  10.580
55913W        W27639   7.759  42.531   1.769
55914W        W27640  29.152  41.280   2.204
55915W        W27641  12.657   0.338   0.277
55916W        W27642  11.824  13.291  12.964
55917W        W27643   8.195  22.239   2.331
55918W        W27644  29.481  43.875   1.705
55919W        W27645  22.020  21.250  12.780
55920W        W27646  30.183  41.842  14.992
55921W        W27647  31.956   3.968  14.015
55922W        W27648   8.790  41.206  12.755
55923W        W27649  39.855  14.969  13.500
55924W        W27650  43.786   2.659  13.348
55925W        W27651  20.940  12.725  11.885
55926W        W27652  40.736   2.304  12.021
55927W        W27653   5.422   7.399   2.808
55928W        W27654   7.283   3.641  12.889
55929W        W27655  44.340  15.702   2.748
55930W        W27656  34.628   5.462   0.990
55931W        W27657  15.296   7.735   2.863
55932W        W27658  21.172   4.217  12.347
55933W        W27659  13.661  41.993   1.271
55934W        W27660  13.755  42.047  11.654
55935W        W27661  23.643  11.343   4.714
55936W        W27662  31.102  21.057  13.648
55937W        W27663   6.445  30.024   3.829
55938W        W27664  16.620  32.446   2.854
55939W        W27665  36.141  14.114  13.979
55940W        W27666  18.819  41.332   1.767
55941W        W27667  23.606  25.307   2.041
55942W        W27668  25.457  42.352   3.169
55943W        W27669  30.671  20.150   2.411
55944W        W27670  36.815  28.751  12.219
55945W        W27671  23.827  24.052   3.612
55946W        W27672  29.646  15.631  12.439
55947W        W27673  43.525  14.194  14.038
55948W        W27674  12.218  43.427  10.789
55949W        W27675  20.730  42.504   4.900
55950W        W27676   0.213  41.307   0.803
55951W        W27677  25.718  15.069   4.762
55952W        W27678  37.580  41.530   3.851
55953W        W27679  16.694  20.551  10.463
55954W        W27680   5.697  22.249  10.336
55955W        W27681  44.222  39.794  10.987
55956W        W27682  44.161  30.267  14.236
55957W        W27683  21.016  40.072   2.814
55958W        W27684  44.517  31.060   3.181
55959W        W27685  35.677  26.775   3.618
55960W        W27686  27.636   7.392  10.857
55961W        W27687  12.428  35.503   4.396
55962W        W27688  10.391  30.353   3.976
55963W        W27689  11.781  28.373  14.260
55964W        W27690  11.687  44.085   5.153
55965W        W27691  37.786  34.037   3.236
55966W        W27692   0.085   1.419   1.386
55967W        W27693  32.591  25.125   3.239
55968W        W27694  32.891   3.387   2.601
55969W        W27695  39.235  43.859  13.974
55970W        W27696  15.462  29.071  11.416
55971W        W27697   0.744  40.290   2.643
55972W        W27698  24.770  25.823   2.283
55973W        W27699  11.343  15.538   3.731
55974W        W27700  20.629   2.458  13.927
55975W        W27701  33.021  31.192   1.251
55976W        W27702  37.017  40.971  10.760
55977W        W27703  23.093  15.851   2.848
55978W        W27704  33.669   2.041   1.906
55979W        W27705   8.301  33.394  13.026
55980W        W27706   0.248  33.589   0.678
55981W        W27707   5.630   0.455  12.114
55982W        W27708   8.186  33.264  12.002
55983W        W27709  18.311  10.776   4.849
55984W        W27710   0.896  36.976  14.906
55985W        W27711  24.768  25.575  14.305
55986W        W27712  33.716  42.907   1.595
55987W        W27713  20.969  40.432  10.679
55988W        W27714   9.221   9.222  12.457
55989W        W27715   0.128  35.108  12.804
55990W        W27716  32.341   0.960  14.044
55991W        W27717  36.852  25.498   4.106
55992W        W27718  16.284  34.859   2.365
55993W        W27719  38.901  19.716   4.090
55994W        W27720   2.844  37.618  11.688
55995W        W27721  27.932   0.840  14.540
55996W        W27722  20.502  12.693  12.969
55997W        W27723  33.527  18.243   4.584
55998W        W27724  27.452  20.342   0.385
55999W        W27725  15.307  28.466   1.065
56000W        W27726  32.999   0.005   3.214
56001W        W27727  40.330   0.286   4.572
56002W        W27728  26.565   1.471  10.133
56003W        W27729   4.086  12.893  10.700
56004W        W27730  29.109   3.396   3.556
56005W        W27731   5.759  11.337   2.148
56006W        W27732  19.655  22.010  11.585
56007W        W27733   7.890  18.201  12.113
56008W        W27734  10.648  44.591   4.179
56009W        W27735  35.819   9.610   3.079
56010W        W27736   0.809   6.910   0.738
56011W        W27737  30.618  32.306   1.856
56012W        W27738  19.163  17.686  12.942
56013W        W27739   1.032  30.998   3.099
56014W        W27740   4.254   2.951   4.488
56015W        W27741  15.013  38.343   2.780
56016W        W27742   6.151  13.759   4.100
56017W        W27743  38.022  10.089  14.137
56018W        W27744  41.836  14.781   3.358
56019W        W27745  40.783  36.944  13.328
56020W        W27746  25.820  29.044   3.131
56021W        W27747  31.827  24.391  12.361
56022W        W27748  14.201   3.016  12.045
56023W        W27749  14.104   6.701   0.304
56024W        W27750  31.400  29.588   1.472
56025W        W27751  14.692  24.707  11.083
56026W        W27752  16.195   4.765   2.303
56027W        W27753  18.019  23.599  12.604
56028W        W27754  40.286  10.891  13.051
56029W        W27755   4.739  27.432   3.298
56030W        W27756   5.867  17.049   1.003
56031W        W27757  22.282  39.305   3.644
56032W        W27758  27.214  37.638   3.342
56033W        W27759  10.897  29.506   1.206
56034W        W27760  24.117   2.652   0.365
56035W        W27761  20.005   1.389   2.660
56036W        W27762  39.838   7.896   4.234
56037W        W27763  13.458   8.840   4.668
56038W        W27764  10.140  16.445  10.937
56039W        W27765  26.552  38.750  10.876
56040W        W27766  37.059  21.120  10.681
56041W        W27767  33.869  29.518   4.600
56042W        W27768  18.297  12.541  14.783
56043W        W27769  30.868  25.986  12.815
56044W        W27770  36.659  34.593   3.942
56045W        W27771   4.972   9.530  11.076
56046W        W27772  19.756  24.518  12.592
56047W        W27773  33.113  43.007  12.506
56048W        W27774   4.042  14.275   4.920
56049W        W27775  38.238  17.877  10.413
56050W        W27776  28.469  18.617  12.034
56051W        W27777   3.398  11.824  14.796
56052W        W27778  42.818  25.535   1.156
56053W        W27779  26.047   8.195   4.592
56054W        W27780  24.446  30.843  14.070
56055W        W27781  42.831  11.654   0.808
56056W        W27782   9.093  30.668  13.476
56057W        W27783  20.266  40.347   0.299
56058W        W27784  25.461  42.385   4.181
56059W        W27785  22.272  16.162   3.184
56060W        W27786  18.205   9.982   0.611
56061W        W27787  40.996  37.887  14.768
56062W        W27788  11.514  36.474   4.082
56063W        W27789   4.207  27.951  13.140
56064W        W27790  10.148  36.293  12.498
56065W        W27791  14.030  30.219  13.460
56066W        W27792   4.340  18.063   4.828
56067W        W27793  31.091  39.053  14.238
56068W        W27794  34.425  13.756   4.505
56069W        W27795   9.215  26.139   3.357
56070W        W27796  12.671  36.879  10.738
56071W        W27797  12.612  32.700  12.487
56072W        W27798  30.319  39.769  11.590
56073W        W27799  11.033  37.403   4.568
56074W        W27800  26.987  43.973   4.252
56075W        W27801  42.368  10.764   3.209
56076W        W27802  29.037  23.615  10.650
56077W        W27803  15.192  21.783   4.280
56078W        W27804  36.619   7.102   4.208
56079W        W27805  40.820  18.600  10.954
56080W        W27806  10.556  35.137   1.885
56081W        W27807   9.371  18.553   4.137
56082W        W27808  27.910   3.759   0.116
56083W        W27809  44.964  38.092  14.867
56084W        W27810  28.440  18.791  14.313
56085W        W27811   9.224  19.943  14.237
56086W        W27812  34.816  13.188   4.491
56087W        W27813  37.643  11.174  12.334
56088W        W27814   1.696  28.057   1.853
56089W        W27815  39.529  42.402   2.009
56090W        W27816   8.413  42.379  12.221
56091W        W27817   4.598  23.907  11.958
56092W        W27818   5.402  22.497  11.180
56093W        W27819  25.144  41.189   1.255
56094W        W27820  37.455  21.106  11.022
56095W        W27821  23.063  12.332   4.584
56096W        W27822   3.775  28.235  13.111
56097W        W27823  38.988  12.388  13.036
56098W        W27824  16.034  41.567  12.952
56099W        W27825  30.980  10.681   3.295
56100W        W27826  16.223  17.301  13.900
56101W        W27827   0.929  36.341   0.770
56102W        W27828  26.850  31.112   4.268
56103W        W27829  44.248  19.542  14.496
56104W        W27830  10.896  25.340   0.236
56105W        W27831  35.932  41.543  11.647
56106W        W27832  18.086  33.543  12.797
56107W        W27833  23.108  20.606  13.346
56108W        W27834  43.400  20.159  13.722
56109W        W27835   9.209  34.572   4.628
56110W        W27836  22.387   5.730  13.364
56111W        W27837  42.494   1.742  11.182
56112W        W27838  29.905  34.018  14.812
56113W        W27839  11.717  41.636   2.718
56114W        W27840  10.962  43.492   2.355
56115W        W27841  33.539  17.961   0.247
56116W        W27842   3.691  20.135  11.181
56117W        W27843  40.353  20.083  13.216
56118W        W27844  32.594  29.389   3.660
56119W        W27845  42.813  38.871   4.178
56120W        W27846  24.755  34.334  12.382
56121W        W27847   9.758  37.992   1.409
56122W        W27848   6.780   3.238   3.120
56123W        W27849   5.266   2.787   2.268
56124W        W27850   6.871   7.119  12.456
56125W        W27851  22.200   4.323  10.596
56126W        W27852  25.155  39.238  12.733
56127W        W27853  36.068  30.702   2.183
56128W        W27854  27.673   2.250  12.955
56129W        W27855  39.818  22.666  12.840
56130W        W27856  33.096   3.409  11.172
56131W        W27857  16.511  28.114  14.478
56132W        W27858  38.398  12.639  14.413
56133W        W27859  15.036  30.544  12.041
56134W        W27860  19.523  43.762   1.579
56135W        W27861  17.435  10.319  12.894
56136W        W27862  13.458   5.909  13.334
56137W        W27863   2.634  38.800   3.251
56138W        W27864  22.037  39.404   1.716
56139W        W27865  21.964  19.266   4.210
56140W        W27866  27.193  36.085  12.981
56141W        W27867   3.807  22.233   1.905
56142W        W27868   1.683  26.650   4.190
56143W        W27869  40.453   0.783   1.397
56144W        W27870  32.041  25.130  11.868
56145W        W27871   4.341  14.121   0.376
56146W        W27872   3.706  32.850  13.583
56147W        W27873  33.596  21.302   9.917
56148W        W27874  41.983   6.872   1.648
56149W        W27875  11.625  13.496  11.595
56150W        W27876  44.515  37.516   2.708
56151W        W27877  26.577  16.133  12.832
56152W        W27878  26.400  44.301   3.169
56153W        W27879   6.279  28.540  14.677
56154W        W27880  18.804  35.294  14.021
56155W        W27881  14.249   7.706  12.308
56156W        W27882   1.507  24.472  14.039
56157W        W27883  40.785  10.874   2.325
56158W        W27884  15.382  22.717  13.439
56159W        W27885  26.922   1.017  14.398
56160W        W27886  10.861  15.208  11.714
56161W        W27887  29.843  37.188   3.375
56162W        W27888  27.791  31.382  12.042
56163W        W27889  19.741  22.680  14.819
56164W        W27890  13.556  26.978  14.761
56165W        W27891  16.753  35.006   2.613
56166W        W27892  18.188  26.041  12.164
56167W        W27893  42.365  29.961  11.536
56168W        W27894   2.929  37.629  10.705
56169W        W27895  22.242  26.558   4.821
56170W        W27896  36.008  31.470  12.106
56171W        W27897  12.290  19.019   3.184
56172W        W27898  36.298  26.195  12.565
56173W        W27899  10.286  28.147   3.784
56174W        W27900  40.097  43.089  11.118
56175W        W27901  15.919  26.967  12.034
56176W        W27902   6.096  16.427   1.700
56177W        W27903  38.109   4.185  14.686
56178W        W27904   8.166  42.076   0.797
56179W        W27905  18.261   1.590   2.195
56180W        W27906  24.595  30.138  12.266
56181W        W27907  25.406   0.362  10.749
56182W        W27908  35.940  18.684   2.134
56183W        W27909  10.804  19.307   4.405
56184W        W27910   3.481  41.483   4.783
56185W        W27911   6.855  42.519   1.628
56186W        W27912   2.776   3.120   3.674
56187W        W27913  22.549  23.744   1.732
56188W        W27914  36.125   0.017  10.617
56189W        W27915   3.003  23.560   0.748
56190W        W27916  36.323  32.342  11.164
56191W        W27917   6.661  42.566   1.171
56192W        W27918   2.113  29.155  13.573
56193W        W27919   8.769  32.876  14.870
56194W        W27920  41.240  30.224  13.422
56195W        W27921  16.725   7.121  13.786
56196W        W27922  29.884  31.651  11.595
56197W        W27923   7.927  19.513  12.503
56198W        W27924  14.493  35.569  12.175
56199W        W27925  35.578  36.544  14.745
56200W        W27926  13.772  27.889   0.160
56201W        W27927  11.476  25.703   5.009
56202W        W27928   4.875  17.363  11.104
56203W        W27929   5.537   2.299  14.684
56204W        W27930   6.148  18.694  12.400
56205W        W27931  27.571   7.402  13.948
56206W        W27932  37.816  42.476  13.746
56207W        W27933  31.977  25.114  13.353
56208W        W27934  17.553  39.252   2.698
56209W        W27935  13.721   7.889   3.207
56210W        W27936  25.797  19.623  13.101
56211W        W27937  21.472  22.979  11.065
56212W        W27938  25.665  12.340   1.753
56213W        W27939  25.401   8.262   3.702
56214W        W27940  30.783   5.430   1.172
56215W        W27941  34.457  12.554   2.828
56216W        W27942  29.597  27.533   1.272
56217W        W27943   9.190   9.890  11.939
56218W        W27944  13.540   3.851  13.544
56219W        W27945  12.260  42.547   4.208
56220W        W27946  41.581  17.244  11.486
56221W        W27947  40.489  23.629   4.217
56222W        W27948  13.637  35.071  12.559
56223W        W27949   8.868  27.611   1.014
56224W        W27950  44.331  37.309   4.088
56225W        W27951  44.863  25.028  11.947
56226W        W27952  37.942  31.721  14.146
56227W        W27953  40.734   2.224   4.147
56228W        W27954  27.921  38.856   3.227
56229W        W27955  11.116  38.383  12.401
56230W        W27956  38.314  21.795   3.640
56231W        W27957  33.560  34.339   0.398
56232W        W27958  37.550  27.616   4.631
56233W        W27959  12.811  15.568  10.424
56234W        W27960  21.531  20.742  10.911
56235W        W27961  20.804  44.288   0.388
56236W        W27962   0.168  35.813   1.247
56237W        W27963  13.430  26.611  14.374
56238W        W27964  37.920   6.349   4.636
56239W        W27965  26.707  31.622   4.268
56240W        W27966  36.217  36.247   4.771
56241W        W27967  11.395  39.971   0.366
56242W        W27968  33.526  17.117  14.788
56243W        W27969  24.741  21.139  13.261
56244W        W27970  36.159  12.817  10.680
56245W        W27971  18.745  22.568   2.695
56246W        W27972   2.011  28.215  13.064
56247W        W27973  28.581  20.618  10.616
56248W        W27974  41.222  24.709   3.863
56249W        W27975  30.177  32.143  10.697
56250W        W27976  25.678  11.811  12.854
56251W        W27977  31.502  10.562   2.735
56252W        W27978  21.349  34.097  11.578
56253W        W27979  27.923   8.620   2.341
56254W        W27980  43.002  10.248  11.307
56255W        W27981  35.666   4.477  11.611
56256W        W27982  25.485   8.739  14.230
56257W        W27983  11.532  42.367  14.504
56258W        W27984  44.198  27.531   2.717
56259W        W27985  38.534   3.694   2.628
56260W        W27986  15.007  40.903  10.650
56261W        W27987   6.794  30.069  13.863
56262W        W27988  39.829  28.438  12.595
56263W        W27989   9.847   4.945   4.262
56264W        W27990  28.951  40.382   3.248
56265W        W27991   6.904  38.874   1.251
56266W        W27992  14.785  44.708  13.984
56267W        W27993  23.566  16.589  13.556
56268W        W27994  23.211  32.136  14.511
56269W        W27995  12.336   4.174   4.572
56270W        W27996  14.562  42.078   4.643
56271W        W27997  19.533  28.144  11.653
56272W        W27998  27.105  15.428  10.480
56273W        W27999   6.619  16.263   5.141
56274W        W28000  31.478  42.523  10.128
56275W        W28001  14.237  27.368  12.541
56276W        W28002  42.149  16.028  13.414
56277W        W28003  37.124  23.061   0.802
56278W        W28004   4.253   5.097   4.714
56279W        W28005  36.981   9.630  14.818
56280W        W28006  16.188  37.969  14.472
56281W        W28007  11.385  25.122   5.093
56282W        W28008  37.554  12.363  12.630
56283W        W28009  36.085  33.869   1.421
56284W        W28010  40.345  42.849   0.853
56285W        W28011  21.095  19.289   2.377
56286W        W28012  13.445  15.557  13.700
56287W        W28013   5.223   4.006   1.817
56288W        W28014   4.822  11.903  14.386
56289W        W28015  11.485  14.147  11.906
56290W        W28016   5.162  36.926   2.916
56291W        W28017  32.978  17.162   0.425
56292W        W28018  24.046  23.468  12.050
56293W        W28019  26.733   9.749   3.790
56294W        W28020   7.364  40.222  11.232
56295W        W28021   3.734  42.761  11.155
56296W        W28022   3.524  29.219  12.215
56297W        W28023   1.967  40.618  11.057
56298W        W28024  33.090  24.160   3.297
56299W        W28025  43.231  11.011   3.889
56300W        W28026  20.577  28.121  13.797
56301W        W28027  25.782  20.990   2.802
56302W        W28028   8.109   2.359  11.994
56303W        W28029  31.711  28.683  12.020
56304W        W28030  35.814  37.603   0.440
56305W        W28031  32.000  18.853   5.183
56306W        W28032  32.963   5.251   0.303
56307W        W28033  39.429  18.724  14.059
56308W        W28034  24.095  18.906  12.602
56309W        W28035  28.665  11.712  13.009
56310W        W28036  23.695   4.701   1.155
56311W        W28037  14.296  43.805   1.261
56312W        W28038  43.960  31.968   0.431
56313W        W28039  12.482  33.998   4.765
56314W        W28040  44.210  18.541  11.928
56315W        W28041  34.186  22.904  11.475
56316W        W28042  13.238  17.154   2.814
56317W        W28043  26.959  30.434  10.778
56318W        W28044  39.489  27.690  13.845
56319W        W28045  39.777  36.010  13.378
56320W        W28046  37.214  12.094  10.630
56321W        W28047  34.991  41.317   1.739
56322W        W28048  23.976   7.022  11.428
56323W        W28049  29.117  24.267  12.579
56324W        W28050   1.583  34.275   1.009
56325W        W28051  34.384  25.724   1.335
56326W        W28052  31.089  22.636   4.132
56327W        W28053   0.386  34.175   3.249
56328W        W28054  17.974  43.741  11.036
56329W        W28055  27.566  17.910  11.541
56330W        W28056  36.793  42.927   1.244
56331W        W28057  28.768  21.036  12.974
56332W        W28058  19.721  32.466  10.625
56333W        W28059  20.996   1.816  12.933
56334W        W28060  36.326  10.294   1.461
56335W        W28061  43.076  17.239   4.223
56336W        W28062  39.923  20.154   4.761
56337W        W28063   3.423   1.965   0.214
56338W        W28064   3.054  19.815  12.933
56339W        W28065  35.020  15.011  11.629
56340W        W28066  42.653  35.033   4.125
56341W        W28067  39.457  17.306   0.432
56342W        W28068  39.359  12.120  12.157
56343W        W28069  28.116  15.023  11.619
56344W        W28070  29.691   0.406  12.011
56345W        W28071  37.013  36.483   3.627
56346W        W28072  19.224  30.688   1.451
56347W        W28073  42.382  15.084   3.790
56348W        W28074  38.964   2.888  12.409
56349W        W28075   1.443  26.073   0.764
56350W        W28076  30.335  12.236   1.821
56351W        W28077  25.024   4.604   1.843
56352W        W28078  26.116   8.886  13.991
56353W        W28079  35.456   5.450   3.450
56354W        W28080  21.088   5.001   4.496
56355W        W28081  12.936  15.241   1.959
56356W        W28082  10.917  12.294   0.441
56357W        W28083  33.531  19.100   1.894
56358W        W28084   9.705  36.658   2.274
56359W        W28085   1.643   2.662  11.889
56360W        W28086  33.446  20.679   2.712
56361W        W28087  25.835  14.395   3.283
56362W        W28088   9.858  32.348  14.823
56363W        W28089  10.724  15.307   0.841
56364W        W28090  10.642  25.205   3.594
56365W        W28091  44.691  16.303  13.646
56366W        W28092   1.010  12.782   2.416
56367W        W28093  26.995   8.505  14.256
56368W        W28094  31.423   8.416   0.967
56369W        W28095  22.179  13.837  11.065
56370W        W28096  12.542  27.255  12.025
56371W        W28097  21.141  11.168  14.558
56372W        W28098  42.308  29.964   0.946
56373W        W28099   0.792  13.182  12.171
56374W        W28100  25.604  43.398   4.206
56375W        W28101   2.770  22.192   0.366
56376W        W28102  13.735  14.759  10.639
56377W        W28103  23.185  37.441   1.674
56378W        W28104   2.088   2.916   2.750
56379W        W28105   9.066  14.394  14.029
56380W        W28106  24.070  37.352   2.762
56381W        W28107  18.230   3.929  11.864
56382W        W28108   0.027   7.749  14.905
56383W        W28109  33.094  44.956   1.773
56384W        W28110  44.528  38.903   0.364
56385W        W28111   6.642  33.612  14.859
56386W        W28112  12.334  40.905  11.953
56387W        W28113  16.328   4.507  11.250
56388W        W28114  38.836  11.710  13.896
56389W        W28115  17.581  28.562   3.619
56390W        W28116  33.287  33.644  12.841
56391W        W28117  10.445  24.673  12.976
56392W        W28118   4.973  35.348   0.333
56393W        W28119  30.064  30.253   0.384
56394W        W28120  35.293  10.622   0.289
56395W        W28121  21.788  24.388   4.144
56396W        W28122  13.793  18.536   2.399
56397W        W28123   8.330  26.878  10.557
56398W        W28124  40.024  43.838   3.233
56399W        W28125   0.737  42.599   1.546
56400W        W28126  37.015  23.115   2.137
56401W        W28127  22.280  34.946   2.904
56402W        W28128   6.280  15.629   2.192
56403W        W28129   7.902  40.420   1.505
56404W        W28130  22.100  26.443  14.393
56405W        W28131  38.371   8.818   2.397
56406W        W28132   0.780  42.747  13.696
56407W        W28133  41.460  17.303  13.791
56408W        W28134  29.931  36.368  14.503
56409W        W28135   4.261  18.556   2.121
56410W        W28136  14.704  34.381   4.489
56411W        W28137  26.650  33.256   1.787
56412W        W28138   9.890  35.425  14.614
56413W        W28139  20.083  16.798   0.858
56414W        W28140  35.526  20.883  12.915
56415W        W28141  29.469  35.049  12.549
56416W        W28142  41.336  42.758   2.923
56417W        W28143  38.071  40.819  13.389
56418W        W28144  16.687  33.977  13.361
56419W        W28145  35.597  25.473   0.915
56420W        W28146   7.441   3.460  14.352
56421W        W28147  41.383   9.886   3.008
56422W        W28148  20.051  29.534  13.340
56423W        W28149  33.398  40.286  11.116
56424W        W28150  36.561  30.668  10.497
56425W        W28151  30.131  22.115  12.588
56426W        W28152   0.416  18.803  14.387
56427W        W28153  36.569  15.713  11.715
56428W        W28154  10.124  40.034   3.302
56429W        W28155  42.768  40.839  14.865
56430W        W28156  42.846   5.656  13.003
56431W        W28157  39.155  11.156   4.140
56432W        W28158  36.319  19.158  14.609
56433W        W28159  22.635  21.805  14.559
56434W        W28160  29.558  12.079   9.859
56435W        W28161  21.995  38.075  12.647
56436W        W28162  12.393  39.850   1.698
56437W        W28163  20.657  36.647   1.154
56438W        W28164  22.987  20.432   1.149
56439W        W28165  15.079  17.580  10.864
56440W        W28166   5.819  19.268   0.779
56441W        W28167  34.592  10.438  11.053
56442W        W28168  25.016  30.049  12.552
56443W        W28169  22.506  18.012  12.130
56444W        W28170  10.232  24.507   4.342
56445W        W28171  15.295  40.435  10.596
56446W        W28172  10.715  30.104  14.988
56447W        W28173  28.890  29.959   3.796
56448W        W28174  35.112  17.009  10.317
56449W        W28175  10.791   1.870   5.087
56450W        W28176   6.793   7.850  13.021
56451W        W28177  21.811  19.829  10.956
56452W        W28178  25.831  39.482  13.535
56453W        W28179   6.700  43.246   4.440
56454W        W28180  24.208  22.429  12.885
56455W        W28181   0.736  35.845   0.689
56456W        W28182  27.746  27.170   3.355
56457W        W28183  14.664   0.360  12.564
56458W        W28184  12.174  19.616   0.286
56459W        W28185  32.401  11.307  13.999
56460W        W28186  44.266  21.422   2.780
56461W        W28187   2.559   2.406  11.907
56462W        W28188  30.631  10.699   1.944
56463W        W28189   1.064   9.649   2.268
56464W        W28190  11.390   5.855  12.411
56465W        W28191   9.410  22.279   0.805
56466W        W28192  40.529  40.278  11.585
56467W        W28193   3.800  15.215  11.613
56468W        W28194  26.713  39.453   3.376
56469W        W28195   2.239   7.389   3.491
56470W        W28196  36.523   6.196  10.685
56471W        W28197   3.234  34.226  10.655
56472W        W28198  30.991   5.723  10.616
56473W        W28199  37.637   5.633  12.667
56474W        W28200   0.345  34.994   1.680
56475W        W28201  16.528  37.540   0.086
56476W        W28202  43.333  40.042  14.822
56477W        W28203   4.285  30.765  12.028
56478W        W28204  34.523  16.356  12.598
56479W        W28205  34.858  32.612   2.227
56480W        W28206   9.131   7.679   1.663
56481W        W28207  27.169  13.818  12.479
56482W        W28208  21.189  14.136  12.515
56483W        W28209  12.441  24.292   0.351
56484W        W28210   0.277  24.469   4.249
56485W        W28211  39.439  20.573  11.514
56486W        W28212  44.812  16.727  13.402
56487W        W28213  42.715  37.945  13.998
56488W        W28214  33.375  18.764   4.533
56489W        W28215  30.149  35.604   3.710
56490W        W28216  25.007  15.394  13.009
56491W        W28217  14.858  35.341   2.284
56492W        W28218   8.345  29.010   0.677
56493W        W28219  27.033  27.421   4.834
56494W        W28220  18.615  24.207   2.466
56495W        W28221   6.821  17.521  14.833
56496W        W28222  22.107  37.595  13.959
56497W        W28223  17.101  38.773  12.389
56498W        W28224  24.167  39.876   0.983
56499W        W28225   7.175  13.716  12.329
56500W        W28226   9.444  20.638  12.095
56501W        W28227  26.963  41.423  13.602
56502W        W28228  11.361  15.216  14.283
56503W        W28229   6.407  30.163   2.141
56504W        W28230  40.341  40.332   3.249
56505W        W28231   9.343  20.885  12.724
56506W        W28232  22.927  10.136  14.562
56507W        W28233  34.052   1.424   3.293
56508W        W28234   3.024   5.712   0.153
56509W        W28235  16.684  43.824   3.553
56510W        W28236  15.112  12.822  12.152
56511W        W28237  25.490  19.905  13.961
56512W        W28238   6.653  10.286  13.305
56513W        W28239  16.155  11.074   3.743
56514W        W28240  28.961  28.026  14.794
56515W        W28241   9.934  33.300   9.669
56516W        W28242  14.687  15.646   3.707
56517W        W28243  32.897  12.890   2.415
56518W        W28244   2.526   0.336   1.094
56519W        W28245  32.840  16.895   1.736
56520W        W28246  12.222  36.455  13.984
56521W        W28247  42.739  21.615  14.323
56522W        W28248   6.728  31.420  13.610
56523W        W28249   4.355  19.991   2.384
56524W        W28250  28.200   5.483   2.723
56525W        W28251   7.773  21.999  12.622
56526W        W28252  29.098  36.830  14.175
56527W        W28253  28.113  20.073   2.182
56528W        W28254  21.229  34.179   2.273
56529W        W28255  21.756  42.752  11.222
56530W        W28256   1.859  32.011  12.085
56531W        W28257  28.185  42.378   2.328
56532W        W28258   8.320  12.283  11.599
56533W        W28259  22.270  16.128  11.388
56534W        W28260  10.672   3.941  13.507
56535W        W28261  34.404   5.594  12.085
56536W        W28262  34.009  12.790   2.608
56537W        W28263   4.666   4.649  11.428
56538W        W28264   0.520  17.301   5.181
56539W        W28265   7.189  25.244   4.606
56540W        W28266  26.565  36.074   2.887
56541W        W28267  30.509  15.216  11.003
56542W        W28268  12.418   5.229  11.040
56543W        W28269  20.250  16.707   1.649
56544W        W28270   9.892  23.770   3.307
56545W        W28271  39.206  20.254  13.454
56546W        W28272  39.256  34.398  10.510
56547W        W28273   0.845  15.193  13.582
56548W        W28274   3.492  23.541   4.743
56549W        W28275  19.573  40.035  14.457
56550W        W28276   1.754  23.184  11.546
56551W        W28277  10.855  34.053  12.860
56552W        W28278  27.184  28.745   4.657
56553W        W28279  38.730  22.056   2.475
56554W        W28280   5.973  39.523  14.799
56555W        W28281  13.348  36.449   3.661
56556W        W28282   5.683  26.298  12.208
56557W        W28283  10.698  27.091   3.407
56558W        W28284   6.899  15.599   3.317
56559W        W28285  13.473  31.988  14.020
56560W        W28286  23.110  35.031  11.421
56561W        W28287  16.901  38.539  13.969
56562W        W28288   7.665  39.597   2.355
56563W        W28289  13.104  38.702  11.593
56564W        W28290  30.774   8.563   2.351
56565W        W28291  15.581  10.119  14.853
56566W        W28292  27.024  20.358   3.132
56567W        W28293  38.319  31.689  11.261
56568W        W28294  31.777  30.972  13.619
56569W        W28295  21.299  26.547   5.052
56570W        W28296  37.801  32.531  12.913
56571W        W28297  15.566  27.147  11.704
56572W        W28298  40.974  19.373   3.407
56573W        W28299  43.373  30.674  10.747
56574W        W28300  31.288  22.007  11.631
56575W        W28301  30.538  38.885   0.523
56576W        W28302  20.654  32.387  12.412
56577W        W28303  14.943  27.711  11.001
56578W        W28304   2.199  16.365   3.876
56579W        W28305  34.783  13.399   2.912
56580W        W28306  27.969  44.834  14.818
56581W        W28307  28.926   3.371  14.859
56582W        W28308  36.101   9.926   2.169
56583W        W28309  42.763  33.121  11.908
56584W        W28310  19.097   4.856   1.926
56585W        W28311  38.812   6.666  13.856
56586W        W28312  28.852  14.169   4.177
56587W        W28313   2.474   5.753   4.244
56588W        W28314   1.416  25.268  10.663
56589W        W28315  14.146  32.787   0.833
56590W        W28316  12.831  33.154  11.157
56591W        W28317   1.267  17.126   4.545
56592W        W28318  38.292  17.841   2.322
56593W        W28319  23.473  23.611   4.362
56594W        W28320  18.525  24.304   1.504
56595W        W28321  33.458  26.978  13.849
56596W        W28322   1.717  44.278   3.243
56597W        W28323  16.035  29.012   4.654
56598W        W28324   4.418  15.870  11.536
56599W        W28325   7.142  34.775  10.129
56600W        W28326   0.859  37.360   0.922
56601W        W28327  19.107   0.769   4.047
56602W        W28328   9.656  35.717  13.381
56603W        W28329  10.784  32.445  11.162
56604W        W28330  44.416  37.555  14.439
56605W        W28331  38.414  35.901  11.902
56606W        W28332  41.287  22.499   4.119
56607W        W28333  43.836  34.980  11.081
56608W        W28334  38.472   9.579   0.767
56609W        W28335  33.537  42.063   1.301
56610W        W28336  37.991  37.878   4.237
56611W        W28337  27.726  20.553   1.975
56612W        W28338  22.143  40.497   2.425
56613W        W28339  19.573  24.732   4.340
56614W        W28340  25.893  31.382   4.203
56615W        W28341   3.262   3.197   2.911
56616W        W28342  24.684   7.268  12.503
56617W        W28343  20.638  32.426  13.203
56618W        W28344  25.078  27.908   2.056
56619W        W28345  22.497  22.010  11.417
56620W        W28346   1.494  31.375   3.838
56621W        W28347  33.792  20.622  12.021
56622W        W28348  17.317  18.939  14.244
56623W        W28349   6.421   9.763   3.192
56624W        W28350  39.322  16.226  10.638
56625W        W28351  18.647  36.601   3.634
56626W        W28352  41.859  13.766  11.333
56627W        W28353   5.124   8.074  10.518
56628W        W28354  18.808   2.488  13.129
56629W        W28355  16.834  28.927   2.735
56630W        W28356  20.258  42.897  13.966
56631W        W28357  22.090  27.931   5.600
56632W        W28358  32.745  28.381  11.117
56633W        W28359  42.452  38.479  12.443
56634W        W28360  29.910   8.698   4.997
56635W        W28361  38.368  14.508   4.182
56636W        W28362  30.379  35.836   4.441
56637W        W28363   7.619   1.923  13.942
56638W        W28364  26.302  21.185   0.810
56639W        W28365  21.241  44.414  13.621
56640W        W28366  33.423  39.784  11.118
56641W        W28367  28.934   1.826  13.507
56642W        W28368   6.300  16.492   4.530
56643W        W28369  36.966  40.328  13.910
56644W        W28370  28.104   8.800  14.424
56645W        W28371  22.667   2.800  11.441
56646W        W28372   5.693  13.570   2.714
56647W        W28373  16.273  43.679   0.940
56648W        W28374  37.923   1.566  11.494
56649W        W28375  26.730  39.029   4.134
56650W        W28376  33.044  42.990  14.463
56651W        W28377  37.865  23.470   4.533
56652W        W28378  25.647  21.686  12.034
56653W        W28379  37.457  30.663  11.843
56654W        W28380  26.776  41.866   1.256
56655W        W28381  19.488  32.386   4.704
56656W        W28382  42.235   7.837  14.666
56657W        W28383  25.457  22.753  14.250
56658W        W28384   9.216   2.919  14.726
56659W        W28385  10.080  36.904  11.892
56660W        W28386  30.621  33.594   3.239
56661W        W28387  43.625  42.307  10.374
56662W        W28388  13.584   9.848  13.928
56663W        W28389  23.984  15.795   2.930
56664W        W28390  25.662   2.522   3.443
56665W        W28391  32.059  43.442  14.478
56666W        W28392  35.142  24.683   2.637
56667W        W28393  23.767  17.695   0.109
56668W        W28394  38.034  12.895  14.692
56669W        W28395  44.955  13.313   4.553
56670W        W28396  10.353  38.317   9.952
56671W        W28397   0.041  20.769   4.995
56672W        W28398  15.310  32.881  14.134
56673W        W28399  35.932   2.386  14.830
56674W        W28400   2.950  21.107  13.004
56675W        W28401  31.853   3.692  12.013
56676W        W28402   4.428  41.982   1.160
56677W        W28403  28.644   9.066   2.829
56678W        W28404   6.644  11.256   3.786
56679W        W28405  23.762  31.568   1.496
56680W        W28406  26.913  43.684   3.821
56681W        W28407  23.753  24.561  11.597
56682W        W28408  36.054   4.007   0.367
56683W        W28409  43.583  33.607  13.834
56684W        W28410   8.122  35.077   1.807
56685W        W28411   2.870  41.965   2.316
56686W        W28412  17.018  15.180  11.989
56687W        W28413  34.848  19.702  11.235
56688W        W28414  31.640   6.764  11.030
56689W        W28415  13.450  13.343   0.351
56690W        W28416   5.544  21.286   5.019
56691W        W28417   6.879   7.324  12.942
56692W        W28418  16.231  37.376   1.009
56693W        W28419  38.920  43.918   2.827
56694W        W28420  43.013  20.756   0.486
56695W        W28421  12.166  17.623  14.284
56696W        W28422   8.766  37.002  14.927
56697W        W28423  12.036  34.121   5.067
56698W        W28424  35.029  44.722   1.902
56699W        W28425  19.629   1.206   1.443
56700W        W28426   8.799  29.911   3.771
56701W        W28427  23.207  16.345   2.721
56702W        W28428  23.811  17.339   0.478
56703W        W28429  11.629  12.477  14.457
56704W        W28430  27.541   9.435  14.782
56705W        W28431   4.235  18.727  12.124
56706W        W28432  22.194  31.741   1.397
56707W        W28433  31.658  11.780  14.916
56708W        W28434  15.837  10.147   3.392
56709W        W28435  36.115  35.058   2.793
56710W        W28436  37.081  22.028  14.947
56711W        W28437  31.058  28.046   0.209
56712W        W28438   6.520  33.443  11.582
56713W        W28439  18.632  28.084  14.574
56714W        W28440  16.458  10.391   1.423
56715W        W28441  11.365  24.165  11.658
56716W        W28442  36.339   0.741   2.786
56717W        W28443  14.205   2.334  12.790
56718W        W28444   6.062  18.830  14.810
56719W        W28445  43.188  23.295  14.187
56720W        W28446  43.996  38.202   3.039
56721W        W28447  30.005  11.874   3.800
56722W        W28448   9.284  30.051   3.603
56723W        W28449   2.541  13.707   3.669
56724W        W28450   1.963  44.019   0.410
56725W        W28451   6.671  33.436   1.304
56726W        W28452   4.431   2.001  10.984
56727W        W28453   3.931  42.419   3.694
56728W        W28454  11.321   3.037   1.312
56729W        W28455  34.305  35.998  14.070
56730W        W28456  15.416  25.693  10.751
56731W        W28457   5.741   5.998  14.936
56732W        W28458  25.526   7.398   2.414
56733W        W28459  34.093  18.788   1.869
56734W        W28460  33.596  38.901   3.231
56735W        W28461  35.314  29.240   1.216
56736W        W28462  10.914  12.622   2.137
56737W        W28463  39.949  37.443  13.958
56738W        W28464   2.295  14.030   2.423
56739W        W28465   2.555  12.830   0.036
56740W        W28466  41.297   9.199  12.988
56741W        W28467  13.319  43.302  12.212
56742W        W28468  16.626  22.501   3.329
56743W        W28469   0.779  13.872   1.411
56744W        W28470  37.075   2.517   1.278
56745W        W28471  34.428  11.720   3.266
56746W        W28472  26.913  37.949  11.414
56747W        W28473  43.727  39.953  13.543
56748W        W28474  10.381  43.367  14.873
56749W        W28475  12.118  40.375   1.758
56750W        W28476  29.402  16.832  14.466
56751W        W28477  10.942  36.859   4.970
56752W        W28478  20.052  23.000   3.071
56753W        W28479   7.150   8.263  11.881
56754W        W28480  27.594  22.135   0.275
56755W        W28481  44.594   7.285   1.665
56756W        W28482  12.169   9.794   3.721
56757W        W28483  35.366  13.904  14.471
56758W        W28484  11.823  11.052   2.625
56759W        W28485  12.579  27.697  11.783
56760W        W28486  39.925  10.585  14.729
56761W        W28487  20.693  27.217   1.796
56762W        W28488  30.280   9.327   0.884
56763W        W28489  25.696  10.005   3.651
56764W        W28490  20.883   0.453   2.736
56765W        W28491  28.347  15.845  12.110
56766W        W28492  20.259  34.583   1.457
56767W        W28493   3.672   4.332   3.250
56768W        W28494  40.849  29.219   2.267
56769W        W28495  21.090  38.107   2.512
56770W        W28496  43.438  42.771  12.832
56771W        W28497   5.859  39.692   0.274
56772W        W28498  32.674  43.088   4.945
56773W        W28499  39.318  29.963   0.836
56774W        W28500  15.658   3.326  11.143
56775W        W28501  41.062  23.474   0.538
56776W        W28502   6.873  11.376   3.343
56777W        W28503   6.160  31.587   0.689
56778W        W28504  15.009   0.120  10.260
56779W        W28505  34.659  26.969  14.255
56780W        W28506  25.214  18.557   4.253
56781W        W28507  33.560  12.778   3.715
56782W        W28508  42.996  18.542   1.460
56783W        W28509  19.014  34.066  11.911
56784W        W28510  25.128   1.009  14.731
56785W        W28511  24.949   8.832   3.227
56786W        W28512  21.606  17.167  10.669
56787W        W28513  16.154   0.742  11.138
56788W        W28514  26.865  22.620   3.631
56789W        W28515  44.288   5.744   2.904
56790W        W28516  23.781  28.478  10.343
56791W        W28517  38.645  16.743   1.470
56792W        W28518  34.978  18.290   1.772
56793W        W28519  10.313  10.375   1.404
56794W        W28520  42.777  16.117   4.720
56795W        W28521  43.809  28.394   0.725
56796W        W28522  31.906  16.315   1.468
56797W        W28523  44.843  36.280  14.406
56798W        W28524  26.683  22.680   1.845
56799W        W28525  20.073   4.477  14.274
56800W        W28526  43.292  34.814   5.044
56801W        W28527   7.130  12.206  12.487
56802W        W28528  23.680  10.196   1.183
56803W        W28529  10.820  25.895  13.012
56804W        W28530  16.134  35.110  11.504
56805W        W28531   9.434  31.433   1.764
56806W        W28532  10.963   8.400  13.479
56807W        W28533  22.166   9.328  10.603
56808W        W28534  21.232   8.306  14.296
56809W        W28535  39.136  41.878   3.883
56810W        W28536  16.333  28.155  11.197
56811W        W28537   3.427  29.387   0.600
56812W        W28538  14.676  33.420  14.879
56813W        W28539  34.400  26.680   3.282
56814W        W28540  21.216  36.643  13.506
56815W        W28541  20.102  28.578   0.710
56816W        W28542   0.255   9.368   3.696
56817W        W28543  35.780   1.461   0.777
56818W        W28544  31.353  38.001   3.657
56819W        W28545  35.588  31.003  11.171
56820W        W28546  31.126  14.866   1.384
56821W        W28547  21.653  40.279   1.721
56822W        W28548  32.495  25.407   5.289
56823W        W28549  25.690  15.985  12.439
56824W        W28550  36.904   6.592   4.276
56825W        W28551  35.295  43.977   0.903
56826W        W28552  18.661   2.930   2.672
56827W        W28553  26.033  42.951   2.758
56828W        W28554  13.897  19.714  10.914
56829W        W28555  17.812  39.506  14.266
56830W        W28556  27.049   3.030   2.188
56831W        W28557   6.326  38.865  12.130
56832W        W28558   8.228  10.219  12.509
56833W        W28559  39.413   7.168   1.678
56834W        W28560  15.674  29.714  13.742
56835W        W28561  30.276  33.432  13.023
56836W        W28562  34.427  24.596   3.717
56837W        W28563   5.534  10.827   4.792
56838W        W28564  10.269  33.663  10.880
56839W        W28565  43.876   2.303   3.414
56840W        W28566  11.854  29.541   3.377
56841W        W28567  13.818  22.179   1.274
56842W        W28568  15.766  25.684   3.351
56843W        W28569  22.729   6.970  10.607
56844W        W28570   3.728  30.283  11.170
56845W        W28571  40.704  12.506  11.081
56846W        W28572  33.984  11.900   0.252
56847W        W28573  33.606  39.494  10.719
56848W        W28574  23.926  32.519   4.513
56849W        W28575  44.815   4.374  11.635
56850W        W28576   2.553   7.338  14.386
56851W        W28577  27.195  18.325   4.297
56852W        W28578  37.024  13.080  12.601
56853W        W28579   8.671  44.302  14.559
56854W        W28580  10.752  10.071   1.000
56855W        W28581  25.606  12.490   3.642
56856W        W28582  42.349  41.968   2.676
56857W        W28583  41.531  37.015  14.975
56858W        W28584  12.435   0.396  11.997
56859W        W28585  15.024  26.470  11.064
56860W        W28586  23.624  13.403   1.149
56861W        W28587  30.531  18.614   5.335
56862W        W28588  15.371  43.072  13.862
56863W        W28589  13.533   0.972  11.428
56864W        W28590  25.081  17.202  14.922
56865W        W28591  36.916  31.512  11.801
56866W        W28592   0.465  28.223  11.976
56867W        W28593  33.438  41.936   1.800
56868W        W28594  12.582  14.296  11.278
56869W        W28595   8.275   9.452   1.845
56870W        W28596   3.501  39.605   3.877
56871W        W28597  16.969  27.414   1.211
56872W        W28598   6.174  10.439  14.889
56873W        W28599  36.651  23.144   3.374
56874W        W28600  23.528  38.207  14.820
56875W        W28601  40.513  43.359   0.779
56876W        W28602  39.168  13.159   1.361
56877W        W28603  21.052  19.912   0.327
56878W        W28604  14.070  22.708   3.919
56879W        W28605  33.947  21.550  11.466
56880W        W28606  34.089  33.143   0.867
56881W        W28607   1.287  10.656   4.091
56882W        W28608   7.297   2.365  14.090
56883W        W28609   2.165   6.626   2.107
56884W        W28610  32.015  42.933  12.875
56885W        W28611  37.672   7.695   2.716
56886W        W28612  17.091  32.750   0.270
56887W        W28613   7.739  23.684  12.228
56888W        W28614  30.389  38.441   2.903
56889W        W28615  21.971  12.088  11.566
56890W        W28616  12.447  35.399   1.445
56891W        W28617  12.291  35.904   1.525
56892W        W28618  33.850   0.252  14.454
56893W        W28619  44.597  31.778  10.413
56894W        W28620  15.323   9.803   2.895
56895W        W28621  16.527  44.039   1.207
56896W        W28622   4.471  27.419   2.558
56897W        W28623  11.298  16.782  13.404
56898W        W28624  13.693  21.191  13.840
56899W        W28625  43.807  25.976  11.583
56900W        W28626  21.334  27.095  13.023
56901W        W28627  35.817  18.954   1.697
56902W        W28628  13.744  17.048   2.913
56903W        W28629  12.888  21.287  12.877
56904W        W28630  32.904  38.615  12.141
56905W        W28631  23.444  40.933   3.536
56906W        W28632   3.253  44.453   2.333
56907W        W28633  13.788  22.574  10.655
56908W        W28634  13.275   9.214   3.418
56909W        W28635   1.390  37.377   2.183
56910W        W28636  12.852   2.042  11.917
56911W        W28637  19.483  35.977   1.885
56912W        W28638  34.603   0.441   1.746
56913W        W28639  16.231  24.158   4.524
56914W        W28640  14.562  40.108  12.636
56915W        W28641  29.435  12.079   2.155
56916W        W28642   7.366   9.131   4.565
56917W        W28643   9.553   6.657  14.829
56918W        W28644  22.994  28.099  13.478
56919W        W28645  35.891  15.027  14.462
56920W        W28646  44.504  34.894   1.944
56921W        W28647  15.260   4.220   2.596
56922W        W28648  12.880  25.738  13.281
56923W        W28649  28.415  24.968   2.688
56924W        W28650  20.111  10.084   1.811
56925W        W28651  29.902  36.610  12.404
56926W        W28652  42.246  19.026   1.511
56927W        W28653  32.966  31.947  13.360
56928W        W28654  40.272  41.799  11.977
56929W        W28655  16.217  22.533  14.463
56930W        W28656  29.239  22.722   0.260
56931W        W28657  31.960   8.181   0.322
56932W        W28658  38.603  17.141  11.004
56933W        W28659  18.474  24.518  12.048
56934W        W28660   9.539  44.324   4.805
56935W        W28661   1.409  29.994   3.421
56936W        W28662   4.706   8.926  12.590
56937W        W28663   1.902  42.147   2.124
56938W        W28664  20.064  18.106  13.989
56939W        W28665  41.056  18.443  11.444
56940W        W28666   7.233  34.986   1.498
56941W        W28667  25.197  25.259  12.478
56942W        W28668  43.285   2.001  11.269
56943W        W28669  44.459   4.130   4.380
56944W        W28670   8.645   1.218   1.761
56945W        W28671  27.080  25.583   1.347
56946W        W28672  14.386  30.571   4.537
56947W        W28673  27.923   0.541   2.681
56948W        W28674   0.834  38.857  11.589
56949W        W28675  14.855  22.838  14.994
56950W        W28676  41.713  32.113  13.501
56951W        W28677   6.587  17.929  11.137
56952W        W28678   7.118  14.661  11.445
56953W        W28679  37.477  32.665  11.458
56954W        W28680  34.148  44.986  10.534
56955W        W28681   3.940  16.004   5.154
56956W        W28682  32.658  25.963   0.185
56957W        W28683  36.592   4.542  11.561
56958W        W28684  10.160  36.985   0.141
56959W        W28685   4.448  13.388  14.850
56960W        W28686  13.637  30.934   3.396
56961W        W28687   5.776   6.550   4.784
56962W        W28688  23.042   6.544  13.064
56963W        W28689  36.350  42.226  10.599
56964W        W28690  28.046  33.317  10.589
56965W        W28691  24.994  43.600  13.391
56966W        W28692  15.652   6.374   3.147
56967W        W28693   8.123   3.214  13.506
56968W        W28694  22.146  34.900  12.831
56969W        W28695  17.206   8.630   2.161
56970W        W28696  10.504   1.329   4.535
56971W        W28697  17.072  43.346  12.735
56972W        W28698  23.690  38.343   0.336
56973W        W28699  26.660  37.857  10.570
56974W        W28700  31.410  38.573   0.785
56975W        W28701   1.026   3.767   4.872
56976W        W28702  26.218  24.334   0.351
56977W        W28703  25.260  17.187   4.103
56978W        W28704  17.105  35.567  12.422
56979W        W28705   0.231   9.540  11.473
56980W        W28706  44.850  31.884   0.262
56981W        W28707  25.713  35.952  12.862
56982W        W28708  31.271  17.005  11.105
56983W        W28709   3.506  13.838  10.346
56984W        W28710  21.540  27.970   1.258
56985W        W28711   4.313  41.691  11.816
56986W        W28712  19.671  21.312   3.788
56987W        W28713  14.866  37.242  12.160
56988W        W28714  20.004  17.783   0.360
56989W        W28715  22.241  40.501  12.134
56990W        W28716  21.466  18.443   2.431
56991W        W28717  34.702  43.376   3.306
56992W        W28718   5.142  30.597  13.377
56993W        W28719  15.588  34.654   2.438
56994W        W28720   8.399  18.579   4.015
56995W        W28721  31.940  20.660   3.839
56996W        W28722  33.269  40.538  10.671
56997W        W28723   4.972  10.900   3.238
56998W        W28724  21.540  41.334  11.252
56999W        W28725  32.467  35.349  12.096
57000W        W28726   0.130   0.560  10.553
57001W        W28727  35.081  19.613   1.942
57002W        W28728   2.992  23.764  14.257
57003W        W28729  35.507   9.314   0.903
57004W        W28730  25.529  18.245   1.930
57005W        W28731  43.131  41.485   5.076
57006W        W28732  40.900  24.662   2.334
57007W        W28733  20.229  31.229  14.457
57008W        W28734  45.000   7.685  14.040
57009W        W28735  42.456   3.042  13.199
57010W        W28736   6.947  26.379  13.562
57011W        W28737  29.939  43.180   1.427
57012W        W28738  24.259  35.351   2.770
57013W        W28739   5.160  20.135   2.939
57014W        W28740   7.370   8.241  12.793
57015W        W28741  40.240  23.511  10.538
57016W        W28742  32.021  34.117   0.769
57017W        W28743  22.475  36.575   3.253
57018W        W28744  22.659  36.398  14.514
57019W        W28745   0.891  43.605  14.770
57020W        W28746  28.180  39.775   1.423
57021W        W28747  31.973  35.048  13.552
57022W        W28748  26.567  24.527  11.381
57023W        W28749  20.725  42.953  12.809
57024W        W28750   7.779  30.970  13.622
57025W        W28751  41.552  43.792  11.846
57026W        W28752   1.858  25.647   3.894
57027W        W28753  44.896  14.445   2.685
57028W        W28754  33.322  18.139  11.154
57029W        W28755  39.371  40.543   1.530
57030W        W28756  31.973   3.694  12.905
57031W        W28757  29.813  38.020   1.800
57032W        W28758   9.839  31.831  14.806
57033W        W28759  24.208  28.323   4.755
57034W        W28760  24.926   3.931  10.706
57035W        W28761   7.883   8.911   1.292
57036W        W28762  23.187  28.435   2.731
57037W        W28763  20.511  27.029  10.759
57038W        W28764  31.516  25.072   2.257
57039W        W28765  35.632  42.773  12.151
57040W        W28766  33.730  15.405  12.164
57041W        W28767  34.824  32.448   4.086
57042W        W28768  31.178  29.536  13.747
57043W        W28769   0.100   7.775  13.130
57044W        W28770  26.294   5.927  12.433
57045W        W28771   7.474   1.695  12.912
57046W        W28772  34.414   4.863  14.897
57047W        W28773  23.497  16.691   3.078
57048W        W28774  23.674  33.816   3.392
57049W        W28775  12.126  22.232   4.696
57050W        W28776  28.904  26.880   2.832
57051W        W28777  20.618  26.500  12.046
57052W        W28778   3.672  39.642  12.179
57053W        W28779   2.987  14.150  12.293
57054W        W28780  35.626  10.840  14.069
57055W        W28781  16.829  23.106  12.600
57056W        W28782  19.191   9.486   1.628
57057W        W28783  30.597  22.967  10.022
57058W        W28784  34.130  11.979   1.949
57059W        W28785  11.890  26.440  14.546
57060W        W28786  33.934  35.191   0.391
57061W        W28787  24.170  35.400  12.484
57062W        W28788  26.216  10.866  13.677
57063W        W28789  38.174   9.888  12.011
57064W        W28790  11.096  41.417   0.840
57065W        W28791   9.369   7.431   3.811
57066W        W28792  13.296  16.298   1.871
57067W        W28793  44.145   7.193  12.068
57068W        W28794  19.242   8.962   2.867
57069W        W28795  19.503   3.369  13.728
57070W        W28796  27.583  36.074  11.532
57071W        W28797  25.362  30.645  10.336
57072W        W28798  36.816   9.765   1.767
57073W        W28799  17.818  36.894   3.604
57074W        W28800  31.495  29.577   0.476
57075W        W28801   5.228  24.506  14.970
57076W        W28802  19.847  37.095  10.412
57077W        W28803   9.775  26.874  10.526
57078W        W28804  33.131  19.582   3.381
57079W        W28805  19.748  41.608   0.451
57080W        W28806   4.569  23.692   5.001
57081W        W28807  39.417  17.301   1.341
57082W        W28808  17.356  39.447   3.164
57083W        W28809  29.663  14.226   3.149
57084W        W28810  11.154  32.148   4.248
57085W        W28811  31.663   3.763  11.118
57086W        W28812  32.668  18.200   2.607
57087W        W28813  12.875  37.423   2.358
57088W        W28814  37.529  17.620  13.884
57089W        W28815  11.661  40.832  12.873
57090W        W28816  15.826   1.855   3.226
57091W        W28817  20.636  21.133  11.263
57092W        W28818  42.899  26.722  13.961
57093W        W28819  14.131  21.207  12.386
57094W        W28820  27.375  10.805  11.933
57095W        W28821  15.828  27.545   0.790
57096W        W28822  13.703   8.295  12.972
57097W        W28823  16.431  17.096  14.781
57098W        W28824  21.489  44.990  10.620
57099W        W28825  10.158  29.047  11.125
57100W        W28826  32.554  44.297  12.155
57101W        W28827   8.656   9.537  11.114
57102W        W28828  10.155  31.163   0.761
57103W        W28829  24.330  40.636   4.574
57104W        W28830  38.716  20.075   2.803
57105W        W28831  11.321  40.332   4.152
57106W        W28832  13.238  13.794   1.452
57107W        W28833  15.822  12.562   2.319
57108W        W28834  42.764  14.548  13.103
57109W        W28835  21.686  38.930  14.923
57110W        W28836  36.585  31.667  13.078
57111W        W28837  27.164   5.344  14.912
57112W        W28838  41.955  33.948  14.403
57113W        W28839   1.877   5.663   2.339
57114W        W28840  21.244  15.829   0.810
57115W        W28841  34.500  39.044  13.476
57116W        W28842  43.802  28.975  13.932
57117W        W28843  27.074  12.142  10.754
57118W        W28844   8.766  26.514  13.225
57119W        W28845  27.684   7.161  13.002
57120W        W28846  14.903  41.966  12.564
57121W        W28847  13.634  32.713  13.683
57122W        W28848  25.709  11.691   3.217
57123W        W28849  10.438  35.518  11.978
57124W        W28850   2.109  13.147  13.422
57125W        W28851  24.033  22.365  14.552
57126W        W28852  26.036  15.176  13.329
57127W        W28853  24.591  18.795  13.999
57128W        W28854  17.303  29.800   4.206
57129W        W28855  40.754  43.052   3.383
57130W        W28856  28.469  26.521   2.044
57131W        W28857  29.413  24.706   3.787
57132W        W28858  30.956   7.281   4.836
57133W        W28859   9.730  17.952  11.511
57134W        W28860  22.544  36.606   4.100
57135W        W28861  32.042  38.526  11.791
57136W        W28862  20.806  28.820   0.237
57137W        W28863  31.898   8.622  12.090
57138W        W28864   3.169   6.449   2.863
57139W        W28865   5.893  18.231  13.929
57140W        W28866   9.281  18.860   3.722
57141W        W28867  37.299  42.986  11.153
57142W        W28868   6.334  13.215   1.933
57143W        W28869  17.703  10.785   3.187
57144W        W28870  26.296  24.897   3.671
57145W        W28871  37.812  15.711   0.452
57146W        W28872  31.441  17.301   2.312
57147W        W28873  19.743  12.228  12.910
57148W        W28874   3.435  34.559  10.994
57149W        W28875  20.645  28.929  11.367
57150W        W28876  23.048   6.756  11.822
57151W        W28877  40.039  17.564  12.923
57152W        W28878  37.630   5.666  11.203
57153W        W28879   0.897   1.039  13.535
57154W        W28880   5.427  24.444   4.799
57155W        W28881   9.138  18.005   2.748
57156W        W28882  23.755  14.358  12.429
57157W        W28883  39.054  39.410   2.894
57158W        W28884  28.967  39.270  11.125
57159W        W28885  10.920  29.274  12.860
57160W        W28886  21.632  12.179   5.404
57161W        W28887  40.968   9.611  14.751
57162W        W28888  31.352  15.125   3.756
57163W        W28889  40.205  30.701  11.220
57164W        W28890  18.351   1.303   3.615
57165W        W28891  44.556  17.227   1.988
57166W        W28892  19.632  17.671   3.436
57167W        W28893   2.217   8.597   4.720
57168W        W28894  13.169  20.582   0.862
57169W        W28895  17.210  43.978   9.593
57170W        W28896   3.342  27.140   4.628
57171W        W28897  19.083   8.816   4.847
57172W        W28898  14.341  34.030   3.324
57173W        W28899   4.615  21.735   4.376
57174W        W28900  32.786  16.017   2.657
57175W        W28901   5.634  26.111   2.452
57176W        W28902  18.245  20.996   3.647
57177W        W28903   0.082  43.873  11.860
57178W        W28904  13.524  17.314   1.398
57179W        W28905   0.858   9.175   0.473
57180W        W28906  36.469   0.472  11.238
57181W        W28907  18.839  16.022   0.903
57182W        W28908  17.579  41.030  12.547
57183W        W28909  33.837  16.596  14.911
57184W        W28910   5.303  32.844   1.026
57185W        W28911  22.682  42.932  11.583
57186W        W28912  11.465  24.793  12.983
57187W        W28913  20.246  11.112   4.368
57188W        W28914  27.971  11.236  13.489
57189W        W28915  15.844  28.145   1.933
57190W        W28916  39.850  28.090   1.427
57191W        W28917   5.774  24.012  13.379
57192W        W28918  37.658  18.710  12.495
57193W        W28919  40.576  18.220   0.882
57194W        W28920  11.352  24.085  13.448
57195W        W28921  28.422  34.344   4.596
57196W        W28922  18.006   1.293  13.461
57197W        W28923  30.072   9.906   3.670
57198W        W28924  25.825  41.531   3.631
57199W        W28925  37.611  40.571  13.369
57200W        W28926  35.736  29.872   3.806
57201W        W28927   0.936  22.652   2.305
57202W        W28928  20.802  32.640   3.521
57203W        W28929  17.347  44.319   0.746
57204W        W28930  20.072  43.570   1.196
57205W        W28931  39.105  20.668   2.278
57206W        W28932  44.256  33.145  14.207
57207W        W28933  24.442  17.618  10.767
57208W        W28934  19.301  24.577  10.941
57209W        W28935  19.503  18.100  14.937
57210W        W28936  28.183  38.835  14.495
57211W        W28937  41.935  15.868   1.954
57212W        W28938  20.064  12.406  14.801
57213W        W28939  31.138  33.915   3.661
57214W        W28940   4.382   6.149   3.158
57215W        W28941  11.209  30.329  13.088
57216W        W28942  28.081   5.181  13.778
57217W        W28943  42.197   3.815   2.185
57218W        W28944  24.062  12.876  10.600
57219W        W28945  43.879   7.325  10.734
57220W        W28946  42.096  41.925   1.653
57221W        W28947  22.362  32.577   0.518
57222W        W28948  40.787  41.951  13.358
57223W        W28949   0.441  26.173  13.257
57224W        W28950  22.723  26.424  11.939
57225W        W28951   8.167   5.747   2.433
57226W        W28952  10.925  36.833   3.620
57227W        W28953  25.260  13.145   2.935
57228W        W28954  22.133  14.931  11.897
57229W        W28955   1.931  26.852  12.653
57230W        W28956   2.283  35.530   3.227
57231W        W28957   9.865   8.817   0.370
57232W        W28958  29.933  10.646   0.460
57233W        W28959  30.220  20.080   4.230
57234W        W28960  17.127   2.709  14.845
57235W        W28961   4.231  32.503   1.276
57236W        W28962  33.689  27.561  14.450
57237W        W28963  24.628  23.258   0.128
57238W        W28964  16.263  31.997  12.148
57239W        W28965   9.151  17.708   4.414
57240W        W28966  32.820   7.876   1.614
57241W        W28967   9.665   2.685  14.866
57242W        W28968   3.440  25.898   4.168
57243W        W28969  35.280   7.604   0.267
57244W        W28970  28.387   6.859  11.581
57245W        W28971  10.200  12.742   4.456
57246W        W28972   7.495  31.053  14.599
57247W        W28973  10.324   7.808  14.832
57248W        W28974  26.562  42.371  14.998
57249W        W28975  25.067  32.156   2.315
57250W        W28976  26.971   6.869   3.794
57251W        W28977  21.022  28.140  11.124
57252W        W28978   5.648  25.205   3.701
57253W        W28979  29.024  29.839   2.726
57254W        W28980   2.051  37.022  13.927
57255W        W28981  19.269  44.023   1.204
57256W        W28982   7.397  12.771   4.662
57257W        W28983  43.966   2.274  14.283
57258W        W28984  16.653  13.295   3.638
57259W        W28985  32.370  40.420   1.770
57260W        W28986  36.129   0.338   4.570
57261W        W28987   3.939  10.612  12.041
57262W        W28988  30.649   1.496  11.740
57263W        W28989  15.181  15.083  14.938
57264W        W28990  10.340   5.859   1.754
57265W        W28991  44.737  19.377   0.384
57266W        W28992  37.912   7.385  14.008
57267W        W28993   1.340  39.571  11.573
57268W        W28994   1.239   7.364  13.968
57269W        W28995  36.045  27.756   0.937
57270W        W28996  19.593  21.498   2.205
57271W        W28997  33.864  44.968   0.360
57272W        W28998  24.700  20.579  12.858
57273W        W28999  27.506   4.395  11.408
57274W        W29000   4.040  29.873  11.119
57275W        W29001  12.822  12.631  14.550
57276W        W29002  12.718  25.519  13.754
57277W        W29003  33.141  17.112   3.274
57278W        W29004   5.213  40.079  14.855
57279W        W29005  44.341  31.534  12.075
57280W        W29006  34.353   0.888  14.043
57281W        W29007  44.857   5.235   3.272
57282W        W29008  35.891  21.709  12.491
57283W        W29009   3.855   5.735  14.058
57284W        W29010   6.681  26.550  13.080
57285W        W29011  25.207  23.000  13.861
57286W        W29012  15.763  25.021   3.771
57287W        W29013   1.074  40.278  13.367
57288W        W29014  13.110  33.712  13.515
57289W        W29015   2.722   6.792  12.389
57290W        W29016  42.998  26.229  13.016
57291W        W29017  43.100  38.079   2.694
57292W        W29018  41.100   1.415   3.742
57293W        W29019  25.555  39.348   2.213
57294W        W29020  28.462  16.180   1.027
57295W        W29021  26.608  20.813   0.977
57296W        W29022  25.165   5.028   0.014
57297W        W29023   5.684  31.358   4.625
57298W        W29024  22.196   7.984  12.341
57299W        W29025   0.778  29.495   0.935
57300W        W29026  37.514  16.328  11.195
57301W        W29027  23.097  19.708   0.431
57302W        W29028  43.314  43.273  13.761
57303W        W29029  13.675   8.672  14.807
57304W        W29030   6.044  13.250  13.008
57305W        W29031  19.119  15.539   4.261
57306W        W29032  32.775  10.190   0.450
57307W        W29033   3.592  28.083  14.401
57308W        W29034  12.825  15.033  13.104
57309W        W29035  19.311  28.965   1.833
57310W        W29036  39.262  26.993  11.475
57311W        W29037   5.183  17.562  11.935
57312W        W29038  35.994  15.964  14.821
57313W        W29039  24.498  22.584  14.506
57314W        W29040  26.453  32.461   2.015
57315W        W29041  22.426  27.535  14.903
57316W        W29042  38.780   0.816  13.816
57317W        W29043  22.257  13.273  12.962
57318W        W29044  38.857  20.129  12.189
57319W        W29045  31.740   4.408   0.975
57320W        W29046   4.892  16.379   4.673
57321W        W29047  20.334  15.564  14.417
57322W        W29048  37.594  19.050   1.805
57323W        W29049   8.359  25.210   2.385
57324W        W29050   7.480  26.087   1.974
57325W        W29051   8.430   5.857  12.440
57326W        W29052   5.170  13.386   2.579
57327W        W29053  35.309  27.179   2.721
57328W        W29054  13.156  10.298  10.562
57329W        W29055  12.436   7.810  13.371
57330W        W29056  19.544  17.269  11.664
57331W        W29057  22.728  35.377  14.502
57332W        W29058  26.596  38.363  10.506
57333W        W29059  16.195  14.741  10.523
57334W        W29060  15.423  13.848   2.659
57335W        W29061  20.271  26.929   0.023
57336W        W29062  38.652  42.038   1.896
57337W        W29063  17.088  44.472  10.700
57338W        W29064  20.516   7.955   4.183
57339W        W29065   8.267  27.567  13.477
57340W        W29066  10.021  42.609   0.372
57341W        W29067  18.533  21.675  13.063
57342W        W29068   5.888  10.401   3.109
57343W        W29069  44.755   4.775  11.984
57344W        W29070  38.052  28.271   4.074
57345W        W29071  22.689  21.171  14.959
57346W        W29072  22.527  14.183  13.304
57347W        W29073  18.062  12.722   4.519
57348W        W29074  24.580  13.102   2.284
57349W        W29075   6.268  31.593   3.367
57350W        W29076  18.756  17.631  11.775
57351W        W29077  10.337  11.310  10.631
57352W        W29078  15.073  17.041  13.843
57353W        W29079  33.016  13.286  11.987
57354W        W29080  37.902  10.320  12.114
57355W        W29081   4.980  16.578   2.808
57356W        W29082  12.246  22.726   3.373
57357W        W29083  13.396  20.381  11.069
57358W        W29084  44.788  21.078  10.126
57359W        W29085  27.667  17.166  11.134
57360W        W29086  24.186   0.447   3.767
57361W        W29087  21.532  33.885   4.606
57362W        W29088  36.037  16.601  11.932
57363W        W29089  35.543  20.832  14.917
57364W        W29090  29.674  27.065  12.996
57365W        W29091   9.876   2.051   1.685
57366W        W29092  29.935   6.682   0.537
57367W        W29093  23.772  31.959   1.856
57368W        W29094  19.061   9.814   0.327
57369W        W29095  23.095  34.160  10.850
57370W        W29096  28.474  21.698  13.009
57371W        W29097  32.341   1.838   4.139
57372W        W29098  23.332  32.641  12.824
57373W        W29099  38.033  18.542   0.294
57374W        W29100  10.750   4.459  10.660
57375W        W29101  30.625  29.715  12.055
57376W        W29102  10.803  18.991  14.318
57377W        W29103  20.040  16.853   3.781
57378W        W29104  42.790  41.855  11.611
57379W        W29105  38.148  43.295   4.226
57380W        W29106   5.650  26.744  13.090
57381W        W29107  21.407  12.188  10.203
57382W        W29108  15.219  35.369   2.680
57383W        W29109  18.827   4.526   2.303
57384W        W29110  37.357  30.940  12.655
57385W        W29111  10.864  34.538   2.715
57386W        W29112  29.877  35.709  11.385
57387W        W29113   2.797  44.605  13.846
57388W        W29114  42.186   8.906   0.986
57389W        W29115  22.837   4.930   0.403
57390W        W29116  22.166   2.658   3.864
57391W        W29117   7.781   1.143   5.036
57392W        W29118   6.814   3.876   1.316
57393W        W29119  44.418  44.255  11.991
57394W        W29120   2.911  39.150  12.306
57395W        W29121  21.345   0.780   1.012
57396W        W29122  30.654  41.319   0.891
57397W        W29123   6.434  19.175  12.429
57398W        W29124  14.336  41.967  12.506
57399W        W29125   8.414  11.840   0.196
57400W        W29126  38.485  10.289   2.411
57401W        W29127  10.932  16.244  11.444
57402W        W29128  38.260  24.989  11.112
57403W        W29129   0.495  32.080  10.726
57404W        W29130   8.960  17.297  14.506
57405W        W29131  12.091  18.312  13.445
57406W        W29132   6.892  18.799  12.877
57407W        W29133  19.037   0.759   0.792
57408W        W29134   7.065  35.893  10.591
57409W        W29135  44.994  12.402  14.762
57410W        W29136   3.309  17.827  11.631
57411W        W29137  16.292  37.178  13.826
57412W        W29138  28.149  32.534  12.370
57413W        W29139  39.996   9.145   0.361
57414W        W29140  43.408  19.145   3.701
57415W        W29141  38.956  26.090  10.852
57416W        W29142  44.052  21.688  14.770
57417W        W29143  34.177   6.932   1.508
57418W        W29144  26.957  26.700   2.117
57419W        W29145  43.550   1.902   2.690
57420W        W29146  36.356   4.926   0.435
57421W        W29147  39.547  16.227  14.311
57422W        W29148  28.438  41.959  12.618
57423W        W29149  15.967  29.997   4.080
57424W        W29150  43.086  42.429  10.989
57425W        W29151  27.160  13.461  11.233
57426W        W29152  30.813  21.439   1.778
57427W        W29153  10.098  40.707   2.126
57428W        W29154  25.745  13.618   2.252
57429W        W29155  27.114  18.207  10.461
57430W        W29156  33.539  21.466   4.725
57431W        W29157  31.472  17.858   2.318
57432W        W29158  30.501  37.168  10.677
57433W        W29159  29.408  29.486  13.493
57434W        W29160  36.031  10.802   4.836
57435W        W29161  29.619  34.861   4.953
57436W        W29162  24.881  28.480   1.264
57437W        W29163  16.747  31.339  12.436
57438W        W29164  22.717  18.216  11.679
57439W        W29165  36.005   2.866   1.052
57440W        W29166  32.402  28.007  14.793
57441W        W29167  16.691  28.505  11.155
57442W        W29168   1.209  42.046   3.258
57443W        W29169  40.850  32.865   2.587
57444W        W29170  29.680  14.194   1.289
57445W        W29171  44.987  15.903   3.303
57446W        W29172  23.539   1.962   4.034
57447W        W29173   1.395  41.214  11.914
57448W        W29174   6.294   6.933   2.980
57449W        W29175  19.553   1.818   0.791
57450W        W29176  14.265  40.537  11.012
57451W        W29177   2.800   9.674   4.657
57452W        W29178  35.739  44.243  11.146
57453W        W29179   3.022   6.217   2.432
57454W        W29180  20.807  42.739   0.736
57455W        W29181  36.705  32.356   0.692
57456W        W29182  14.156  21.663   4.591
57457W        W29183  22.132  29.772   2.278
57458W        W29184   8.372  32.334  13.861
57459W        W29185  20.091  30.060   3.570
57460W        W29186  13.374  21.266   4.060
57461W        W29187   0.858  16.358  14.693
57462W        W29188   5.988   8.756   4.681
57463W        W29189  37.356  44.515   3.675
57464W        W29190  23.233  23.103  10.737
57465W        W29191  17.795  13.311   0.876
57466W        W29192  11.187  12.540  10.483
57467W        W29193  44.859   9.893   1.271
57468W        W29194  20.319  11.514  11.342
57469W        W29195  43.492  34.483   4.105
57470W        W29196  40.348  30.012   0.726
57471W        W29197  44.505  28.169   2.484
57472W        W29198  19.495   3.103  11.196
57473W        W29199  20.845   2.264   3.089
57474W        W29200  41.748  41.308   2.230
57475W        W29201   4.799  35.618  10.960
57476W        W29202   1.431  22.515  11.137
57477W        W29203  28.038  21.005   2.327
57478W        W29204  23.681  32.053   4.493
57479W        W29205   5.494  34.885  14.180
57480W        W29206   1.400  41.340  14.481
57481W        W29207  29.423   5.932   0.206
57482W        W29208  27.214  39.884  12.435
57483W        W29209   3.738   5.038   0.942
57484W        W29210  36.534   8.685   0.257
57485W        W29211   7.331  36.327  10.799
57486W        W29212  15.579  43.953   4.201
57487W        W29213  16.093  17.621  13.263
57488W        W29214   0.405   0.019  12.471
57489W        W29215  16.265   7.102  13.534
57490W        W29216  39.071  40.285   3.816
57491W        W29217  40.996  26.621  14.046
57492W        W29218  37.607  25.669   1.239
57493W        W29219   6.696  42.552  11.130
57494W        W29220  14.216   2.792  11.189
57495W        W29221  21.649  31.083  12.382
57496W        W29222  24.914   3.658  14.499
57497W        W29223  37.985  43.403   3.760
57498W        W29224  32.604  26.978  11.899
57499W        W29225  44.773  31.063  14.805
57500W        W29226  39.928  16.310   4.068
57501W        W29227   6.123  20.239   4.291
57502W        W29228  23.936  37.317   0.983
57503W        W29229  13.953  13.362  13.999
57504W        W29230  16.002  39.892   2.246
57505W        W29231  10.633  20.379   1.738
57506W        W29232  31.968  12.243  13.907
57507W        W29233  11.970  12.864  14.909
57508W        W29234  14.190  17.528  10.600
57509W        W29235  23.334   9.638   0.765
57510W        W29236  30.179  12.400   2.428
57511W        W29237  17.313  16.712   1.451
57512W        W29238  26.203  39.474   3.339
57513W        W29239  35.675  38.626   0.861
57514W        W29240  23.589  40.040   1.823
57515W        W29241  21.747  42.333   1.723
57516W        W29242   9.779  30.454   1.451
57517W        W29243  22.067  30.822  14.384
57518W        W29244  43.954  21.691   2.480
57519W        W29245  39.805   2.827   0.859
57520W        W29246  20.249   9.885  14.387
57521W        W29247  16.378  37.917   0.854
57522W        W29248  12.711  34.218   1.848
57523W        W29249  23.961  12.440   2.979
57524W        W29250  24.272  23.413   1.779
57525W        W29251  28.955  19.591   2.797
57526W        W29252  16.846  35.472   1.464
57527W        W29253  15.805  24.636   0.333
57528W        W29254  36.945  23.731  11.647
57529W        W29255   7.428  16.140   1.437
57530W        W29256  32.457  24.825   4.662
57531W        W29257  23.115  28.595  13.809
57532W        W29258  35.647  30.412  12.502
57533W        W29259  35.118   9.294  13.482
57534W        W29260  30.850  44.744  12.048
57535W        W29261  10.426  25.270   1.986
57536W        W29262  19.790  14.564   2.157
57537W        W29263  24.579  15.854  12.507
57538W        W29264  22.531  11.151   4.093
57539W        W29265  23.162   8.286  14.074
57540W        W29266  42.352  24.176  13.796
57541W        W29267  16.349  33.208  11.542
57542W        W29268  10.684  17.936   3.324
57543W        W29269   4.481  34.831   5.144
57544W        W29270  42.867  43.555  12.057
57545W        W29271  26.745  33.058  12.970
57546W        W29272  29.914   1.713  14.570
57547W        W29273  34.090  26.152  12.508
57548W        W29274  37.072  25.481  13.359
57549W        W29275  30.172  16.920  11.037
57550W        W29276   4.197  21.220   3.096
57551W        W29277  28.147  33.404   4.098
57552W        W29278   9.905   8.308   2.150
57553W        W29279   8.696  12.603  10.767
57554W        W29280  37.442  36.272   4.669
57555W        W29281  15.187   1.472  13.916
57556W        W29282  25.183   5.305   4.141
57557W        W29283   6.679  20.106   1.330
57558W        W29284  12.096  28.226  11.157
57559W        W29285  19.141  34.862   1.318
57560W        W29286  18.062  42.384   2.021
57561W        W29287  13.188  35.805  10.757
57562W        W29288  23.206  19.585   2.803
57563W        W29289   6.266  28.432   0.949
57564W        W29290  31.426  43.904  14.904
57565W        W29291   6.076  35.802  10.918
57566W        W29292  40.892  40.388  14.301
57567W        W29293   1.682  10.382  10.659
57568W        W29294  38.813   5.108   0.830
57569W        W29295  32.101  20.250   0.326
57570W        W29296  43.839  39.273   1.299
57571W        W29297   0.238  30.210  12.030
57572W        W29298  36.542  38.875   4.561
57573W        W29299  40.579  16.284  11.291
57574W        W29300  42.004   1.813   3.635
57575W        W29301   5.505  36.014  12.959
57576W        W29302   5.765   4.692  12.574
57577W        W29303  27.757  25.003   1.846
57578W        W29304  31.858  23.625   3.354
57579W        W29305  32.025  33.593   0.491
57580W        W29306  37.327  30.671  14.445
57581W        W29307   0.451  31.444   1.357
57582W        W29308   7.270  11.647  11.653
57583W        W29309   2.223  20.056  11.152
57584W        W29310   1.792  44.965  12.326
57585W        W29311  24.957  32.398   0.470
57586W        W29312  40.411  38.231  11.551
57587W        W29313  41.970  36.925  13.396
57588W        W29314  18.372  19.656   1.256
57589W        W29315  36.296  19.473   4.137
57590W        W29316  25.563   7.630   2.905
57591W        W29317  30.061  32.906   0.205
57592W        W29318  34.666  20.391   1.486
57593W        W29319   4.205  28.457  13.294
57594W        W29320  13.384   0.824  11.929
57595W        W29321  22.110  13.195   3.957
57596W        W29322   9.577  21.483   1.061
57597W        W29323  23.003  24.016   0.669
57598W        W29324  16.206   0.235  11.153
57599W        W29325   6.898  43.763   4.662
57600W        W29326  32.023  29.160   2.714
57601W        W29327  36.324  22.563   2.193
57602W        W29328  28.145  38.879  12.073
57603W        W29329  44.400   9.784   3.062
57604W        W29330  20.192  17.293   0.293
57605W        W29331  16.806  16.579  13.423
57606W        W29332   1.091  14.035  11.127
57607W        W29333  13.531  28.092  13.001
57608W        W29334  18.578  20.539  10.645
57609W        W29335  21.227   2.775  11.643
57610W        W29336  42.555   2.761  14.958
57611W        W29337   4.546  25.472   0.786
57612W        W29338   3.419  39.153   1.027
57613W        W29339   4.225  20.681   1.212
57614W        W29340  41.320  41.845  13.439
57615W        W29341  15.526   9.851  11.175
57616W        W29342  21.503  29.131   0.824
57617W        W29343  18.647  39.753  11.123
57618W        W29344  35.064  11.042   0.937
57619W        W29345  20.214   0.316   2.073
57620W        W29346   3.312  20.991   3.189
57621W        W29347  41.957  27.729   3.247
57622W        W29348   0.979  27.068  12.834
57623W        W29349  37.457  30.117  10.987
57624W        W29350  44.934  39.949  12.103
57625W        W29351  11.678  29.407  11.053
57626W        W29352  19.132  21.139  13.046
57627W        W29353  14.186  39.834  12.418
57628W        W29354  19.792  25.444  12.763
57629W        W29355  15.245  23.437  11.160
57630W        W29356  11.617  19.229  11.095
57631W        W29357   2.222  43.723  13.995
57632W        W29358  29.453  33.956  11.652
57633W        W29359  11.138  34.421  10.556
57634W        W29360  14.806  29.888  13.924
57635W        W29361  33.963  40.571  14.442
57636W        W29362  15.333   7.674   4.579
57637W        W29363  43.847  17.875  11.661
57638W        W29364  12.122   3.695   3.633
57639W        W29365  24.109  10.720  14.929
57640W        W29366  34.540  35.474   4.748
57641W        W29367  27.616  35.087   0.087
57642W        W29368  17.572  15.285   4.216
57643W        W29369  40.809  43.769   2.182
57644W        W29370   5.866  14.229  14.542
57645W        W29371   0.020  30.029  14.839
57646W        W29372  27.984  14.277  12.268
57647W        W29373  13.228  24.820   0.807
57648W        W29374   3.193  19.622   3.639
57649W        W29375  28.596  30.941  10.690
57650W        W29376   1.171  40.763   4.642
57651W        W29377   2.906  32.190  11.217
57652W        W29378  29.784  28.156  13.570
57653W        W29379  18.337  33.878   3.429
57654W        W29380  10.319  13.808   0.832
57655W        W29381  24.835  10.262  10.114
57656W        W29382  26.557  32.956   2.224
57657W        W29383  30.655  11.697  10.613
57658W        W29384  17.676   1.767  11.461
57659W        W29385  15.385  33.289  14.471
57660W        W29386  10.889  12.859  14.895
57661W        W29387  33.980  28.641  13.649
57662W        W29388  42.314  20.497  13.490
57663W        W29389  15.829  35.919   0.895
57664W        W29390  29.929  28.844  12.626
57665W        W29391   7.027  19.211  10.677
57666W        W29392  11.790  27.041   0.549
57667W        W29393  18.909  35.799   0.294
57668W        W29394   2.211  37.040   3.278
57669W        W29395  21.546  37.460   0.278
57670W        W29396   6.846   8.668  11.734
57671W        W29397  27.570   2.897  10.783
57672W        W29398  44.225   3.088   2.740
57673W        W29399  13.309  18.692  12.165
57674W        W29400   0.980  44.831   0.539
57675W        W29401  43.287  14.281  13.608
57676W        W29402  42.525  40.083   4.053
57677W        W29403  35.505  13.232  12.094
57678W        W29404  23.003  19.060   1.599
57679W        W29405  39.391  18.035  14.292
57680W        W29406  36.263  38.432  12.965
57681W        W29407  38.887   3.280   2.654
57682W        W29408  15.319  31.986   3.086
57683W        W29409  31.489   4.670   4.755
57684W        W29410  40.437  20.129   0.207
57685W        W29411  20.035  20.611   3.373
57686W        W29412  31.418  25.969  14.858
57687W        W29413  26.058   2.240   4.150
57688W        W29414   4.293  11.636  10.851
57689W        W29415  23.077  23.302   4.596
57690W        W29416  13.851  19.628  10.418
57691W        W29417   2.380  30.701  14.595
57692W        W29418   2.239  40.294   1.017
57693W        W29419  14.135  44.714   3.247
57694W        W29420   0.335  25.135  14.985
57695W        W29421  43.453   9.910  13.332
57696W        W29422  24.004   7.103   3.757
57697W        W29423  11.889  20.220  11.188
57698W        W29424  18.259  31.351  13.504
57699W        W29425  18.319  36.056   0.809
57700W        W29426  34.990  39.424   3.656
57701W        W29427  43.649   7.125  12.173
57702W        W29428   2.493   7.878   0.443
57703W        W29429  37.869  20.055   1.867
57704W        W29430  43.284  26.066   2.162
57705W        W29431  35.999   9.297  14.268
57706W        W29432  20.340  26.053   3.255
57707W        W29433  43.554   8.943  14.837
57708W        W29434   0.302  31.498   1.843
57709W        W29435  11.264   8.015  11.447
57710W        W29436  27.551   4.619  14.432
57711W        W29437  30.673  18.044  12.966
57712W        W29438  29.515  23.543  10.825
57713W        W29439  44.766  41.055   4.654
57714W        W29440  23.844  18.559  12.938
57715W        W29441  39.961  11.568  12.117
57716W        W29442   0.781  37.782  13.377
57717W        W29443   7.193  21.520  11.576
57718W        W29444  22.162   1.921   1.694
57719W        W29445  23.151  42.237  12.529
57720W        W29446  39.144   4.918   4.217
57721W        W29447  34.493  26.560   0.752
57722W        W29448   3.833  38.717   2.549
57723W        W29449  33.894  34.448  13.695
57724W        W29450  36.433  23.075   1.445
57725W        W29451  37.609  42.462  11.921
57726W        W29452  19.275  25.493   0.855
57727W        W29453   1.700  44.283   2.248
57728W        W29454  29.968   5.349   2.209
57729W        W29455  36.283  21.049  14.538
57730W        W29456  23.081  13.234  12.535
57731W        W29457  27.435   3.888  11.621
57732W        W29458  14.770  25.162   3.706
57733W        W29459  15.794  35.564  14.541
57734W        W29460  42.915  25.672   3.371
57735W        W29461  15.551   3.783   2.180
57736W        W29462   4.917   9.631  13.516
57737W        W29463  21.281  21.203  14.852
57738W        W29464  20.230   7.398  12.119
57739W        W29465  36.281   0.376  14.509
57740W        W29466  18.345  13.917   3.606
57741W        W29467  41.270  21.566  11.154
57742W        W29468   7.695  36.157  14.984
57743W        W29469  26.777   2.431   3.430
57744W        W29470  39.014  15.995  12.610
57745W        W29471  16.262   6.331   0.471
57746W        W29472  36.319  13.217   1.235
57747W        W29473   3.709  20.495  14.908
57748W        W29474  27.753  10.067  14.513
57749W        W29475  36.630  28.007  10.418
57750W        W29476  43.858  14.641  12.161
57751W        W29477  13.175   3.402   1.252
57752W        W29478  23.776  44.415  13.951
57753W        W29479  34.340   8.698   1.107
57754W        W29480  36.921  34.361   0.715
57755W        W29481  19.734  13.209   2.230
57756W        W29482  41.349   3.258  13.577
57757W        W29483  42.335  28.749   3.680
57758W        W29484   3.766  15.405   4.276
57759W        W29485   0.133  25.550  12.838
57760W        W29486  44.097  27.013  12.967
57761W        W29487   1.362  43.769  11.997
57762W        W29488   5.766  31.046   0.389
57763W        W29489   7.792   0.594   4.991
57764W        W29490   8.601   4.611   9.945
57765W        W29491  29.918  42.274   1.763
57766W        W29492  17.720   2.805  11.456
57767W        W29493  30.144   0.402  12.241
57768W        W29494  36.315  37.422   3.686
57769W        W29495  17.983  29.102  11.966
57770W        W29496  27.513  44.723  10.884
57771W        W29497   2.995  36.039   2.569
57772W        W29498  31.859   1.259   4.584
57773W        W29499  19.062   9.227   2.130
57774W        W29500   5.677   4.291  12.918
57775W        W29501  17.688   8.849   4.813
57776W        W29502   1.139   2.220  10.700
57777W        W29503  12.036  19.281   2.813
57778W        W29504  16.565   1.463   0.562
57779W        W29505  10.041  29.320   0.178
57780W        W29506  38.017  11.713   4.537
57781W        W29507  32.689  18.723   1.916
57782W        W29508  11.709   4.195  14.896
57783W        W29509   0.835  39.750   2.849
57784W        W29510   9.539  25.344   5.323
57785W        W29511  38.496  29.748   4.188
57786W        W29512  34.682  25.481  14.454
57787W        W29513  22.989  11.082  14.498
57788W        W29514  17.073  17.688   1.133
57789W        W29515  30.694  32.432   1.080
57790W        W29516  21.470  32.784  13.534
57791W        W29517  22.478  34.467   0.777
57792W        W29518  16.370  18.217   1.248
57793W        W29519   3.646  39.301  13.519
57794W        W29520  37.800  33.469   1.279
57795W        W29521   5.032   0.693   0.402
57796W        W29522  33.533  35.462   4.974
57797W        W29523  26.030  28.901   0.448
57798W        W29524  28.666  27.500   1.423
57799W        W29525  36.448  21.105  11.953
57800W        W29526   5.711  28.478  11.492
57801W        W29527  15.656  30.071  11.765
57802W        W29528  39.979   8.707  12.501
57803W        W29529   8.354  24.462   4.124
57804W        W29530  20.729   6.834   0.255
57805W        W29531  27.979   9.319   1.135
57806W        W29532  24.036  21.704  11.582
57807W        W29533  25.017  17.724  13.159
57808W        W29534  37.544  36.561   5.105
57809W        W29535  21.249  37.498  11.715
57810W        W29536   5.996  38.537  10.359
57811W        W29537  37.633  22.270  11.819
57812W        W29538  33.454  13.211  13.649
57813W        W29539  42.040  36.461  13.678
57814W        W29540  35.149  11.104   1.968
57815W        W29541  30.144  28.128   0.387
57816W        W29542  23.552   1.960  14.990
57817W        W29543  18.532  12.642   5.448
57818W        W29544  33.093  11.228   3.187
57819W        W29545  39.859  38.648  12.925
57820W        W29546   7.439  24.589   0.469
57821W        W29547  44.063  44.450  13.124
57822W        W29548   5.191  40.795   1.766
57823W        W29549  39.963  44.747   3.207
57824W        W29550  12.230   8.507   0.958
57825W        W29551   6.201   4.657   5.089
57826W        W29552   6.074   2.727  13.919
57827W        W29553  43.172  30.610   0.034
57828W        W29554  42.300  41.435  12.715
57829W        W29555  23.119   5.883   4.761
57830W        W29556  26.188   5.452   2.008
57831W        W29557  37.828  22.646   4.263
57832W        W29558  40.285  21.357   4.106
57833W        W29559  14.005  11.698  12.064
57834W        W29560  21.798   0.523   0.478
57835W        W29561  26.040  24.703   2.859
57836W        W29562  24.237  24.228  14.515
57837W        W29563  17.795   9.820   4.988
57838W        W29564   6.023  40.089  12.714
57839W        W29565  17.565  13.651   1.748
57840W        W29566  43.989  44.845   3.671
57841W        W29567  16.602   6.395   1.758
57842W        W29568  15.670   2.279  14.004
57843W        W29569  27.725  35.322   1.714
57844W        W29570  28.523  36.430  13.059
57845W        W29571  43.286  15.654   2.158
57846W        W29572  16.893  18.180   1.240
57847W        W29573  26.316  40.288  11.071
57848W        W29574  25.031  32.626   2.049
57849W        W29575  18.765   4.342   3.716
57850W        W29576  15.109  30.439   2.698
57851W        W29577  24.137   3.572  13.412
57852W        W29578   2.156  35.335   0.284
57853W        W29579  24.480   7.140  10.582
57854W        W29580  11.717  44.850  14.806
57855W        W29581   6.436  34.399  11.482
57856W        W29582  12.024   7.557  13.107
57857W        W29583   6.959  29.813   0.910
57858W        W29584  17.974  26.037  13.875
57859W        W29585  24.211  22.674  12.430
57860W        W29586  11.193  12.230  11.761
57861W        W29587  28.201  10.390   2.363
57862W        W29588  17.087  23.681   4.541
57863W        W29589  23.184  13.367  14.972
57864W        W29590  30.749   6.125  14.828
57865W        W29591  42.608   4.232  14.020
57866W        W29592  23.080  36.107  14.765
57867W        W29593   6.122  23.552  10.326
57868W        W29594  28.005  37.767  10.749
57869W        W29595  37.998  21.261   1.229
57870W        W29596  43.895  19.759  14.106
57871W        W29597   7.945  43.117  11.154
57872W        W29598  19.356   1.771  14.879
57873W        W29599  25.494  20.809  11.983
57874W        W29600  33.706  44.284  13.683
57875W        W29601   1.910  38.727  12.349
57876W        W29602  32.245  41.904   3.755
57877W        W29603  44.967  39.549   1.826
57878W        W29604  12.674   6.375  14.432
57879W        W29605  38.083  17.148  11.687
57880W        W29606  15.053  33.501   4.579
57881W        W29607  22.782   0.392  14.104
57882W        W29608   7.891  28.924  13.379
57883W        W29609  15.840  36.404  10.497
57884W        W29610   7.764  20.575  11.474
57885W        W29611  24.526  16.521   4.926
57886W        W29612  43.597   4.848  11.158
57887W        W29613   8.390  42.799  11.855
57888W        W29614  13.561  29.441  12.192
57889W        W29615  19.106  23.745  12.143
57890W        W29616  16.873  30.703   1.461
57891W        W29617  26.820  14.603  11.668
57892W        W29618  22.098   3.799  10.330
57893W        W29619  13.952  31.638  14.302
57894W        W29620   9.353  38.795   0.733
57895W        W29621  38.265  13.440   4.159
57896W        W29622  28.676  37.991   4.209
57897W        W29623  32.008   1.781  10.765
57898W        W29624  36.693  34.156   2.585
57899W        W29625  10.444   5.430  10.765
57900W        W29626   2.296  17.809  10.393
57901W        W29627  27.527   0.271   3.151
57902W        W29628   2.950  27.963   3.199
57903W        W29629  36.923   6.347   0.671
57904W        W29630  14.289  32.572   1.712
57905W        W29631  19.401  27.003  11.028
57906W        W29632  18.766  15.344   4.582
57907W        W29633  18.108  17.281   4.262
57908W        W29634  40.510  39.272  12.394
57909W        W29635  37.495   4.525   1.853
57910W        W29636  12.677  16.198  12.486
57911W        W29637   6.712  37.660  11.013
57912W        W29638  38.792  25.037   2.446
57913W        W29639  24.247  23.277   2.632
57914W        W29640  29.027  12.544  13.864
57915W        W29641  16.878  38.103  12.912
57916W        W29642  22.665  43.427  12.949
57917W        W29643  24.476  42.282   3.309
57918W        W29644  43.539  30.738  14.074
57919W        W29645  24.154  30.798  14.509
57920W        W29646  30.903  22.928   2.717
57921W        W29647  10.711  11.946   3.722
57922W        W29648   4.426  43.471  10.948
57923W        W29649  31.853  11.264   1.973
57924W        W29650  33.909  37.380   4.069
57925W        W29651  42.401  35.302   3.231
57926W        W29652  25.546  38.566  12.433
57927W        W29653  19.496  40.452   4.131
57928W        W29654  16.314   4.784   0.817
57929W        W29655  14.258  25.480  13.004
57930W        W29656  12.234  24.666  14.248
57931W        W29657  36.391  27.763   4.117
57932W        W29658  32.655  27.918   1.361
57933W        W29659   3.689  29.586   4.388
57934W        W29660  29.189   0.764  14.486
57935W        W29661  33.955  41.516  10.867
57936W        W29662  14.481  39.508   0.957
57937W        W29663  42.432  32.311  11.916
57938W        W29664  25.187  23.925  12.993
57939W        W29665  14.632  40.022   0.838
57940W        W29666  38.905   9.885   2.705
57941W        W29667  29.910  16.770   4.889
57942W        W29668  42.795  15.230  14.343
57943W        W29669   8.268  18.252   3.557
57944W        W29670  41.824  13.438   2.220
57945W        W29671  36.919   6.770  12.675
57946W        W29672  39.363  33.007  12.784
57947W        W29673  40.830  16.642   0.305
57948W        W29674  27.512  21.507  10.748
57949W        W29675  37.474  34.870  12.506
57950W        W29676  43.857   1.901   1.711
57951W        W29677  36.928  19.104  10.482
57952W        W29678  26.950  24.577   1.831
57953W        W29679  39.080  13.781  13.184
57954W        W29680   8.153   7.664   4.495
57955W        W29681   7.775  18.233  14.604
57956W        W29682   2.330  19.611   0.870
57957W        W29683   8.861   0.847   4.608
57958W        W29684  38.615  40.339   4.451
57959W        W29685  26.291  14.146   0.907
57960W        W29686   9.622  13.359  11.628
57961W        W29687  43.065  10.057   4.920
57962W        W29688  34.230  28.585  11.720
57963W        W29689  42.808  22.577   2.298
57964W        W29690  28.392  31.529  11.290
57965W        W29691  27.288  14.843   4.121
57966W        W29692  19.381   5.554   2.761
57967W        W29693  28.558  37.761   3.337
57968W        W29694  36.065  30.395  11.205
57969W        W29695  34.197  29.549   3.253
57970W        W29696  18.543  16.618   2.698
57971W        W29697   5.768  19.623   4.049
57972W        W29698  35.942  10.462  13.375
57973W        W29699  41.156  44.723   0.814
57974W        W29700  23.792  12.332   2.479
57975W        W29701  20.986  11.941   3.707
57976W        W29702  38.574   5.320  13.668
57977W        W29703  14.098  16.837   3.715
57978W        W29704  18.129  16.532   3.089
57979W        W29705  32.852  17.799   0.976
57980W        W29706  29.693  26.966  13.932
57981W        W29707  20.642  30.897  14.529
57982W        W29708  12.880  31.568   2.709
57983W        W29709  27.971  38.094   4.089
57984W        W29710  19.350  10.501  11.797
57985W        W29711  10.718  28.199  12.338
57986W        W29712  12.759  30.003  14.047
57987W        W29713   1.038  31.763   0.351
57988W        W29714   4.348  41.892   3.150
57989W        W29715  17.164  41.248  10.266
57990W        W29716  18.749  19.248  11.089
57991W        W29717  10.270  19.589   2.546
57992W        W29718  14.326   8.133  14.835
57993W        W29719  19.592  18.134   3.667
57994W        W29720  40.536  41.192  13.461
57995W        W29721  33.424  25.652  11.168
57996W        W29722  13.250  33.082   5.072
57997W        W29723  28.253  29.913   0.727
57998W        W29724  39.010   6.878  10.454
57999W        W29725  11.105  12.296  12.279
58000W        W29726  15.048  22.318  14.948
58001W        W29727  21.021  38.358  14.645
58002W        W29728  12.819   3.390   4.708
58003W        W29729   9.839   8.702  13.080
58004W        W29730  31.401  41.322   0.378
58005W        W29731  16.635  18.819   4.674
58006W        W29732   0.373   0.499   0.342
58007W        W29733  38.877   1.573  11.541
58008W        W29734  24.939  16.627   2.277
58009W        W29735   9.183  26.749  13.460
58010W        W29736  38.339   8.308  11.066
58011W        W29737   0.539  19.622   1.470
58012W        W29738  34.599  10.833   0.873
58013W        W29739  41.000  15.888   1.904
58014W        W29740  34.421   1.785   3.317
58015W        W29741   5.868  28.395   1.391
58016W        W29742  21.987  10.637  11.392
58017W        W29743  20.099  23.249  14.253
58018W        W29744   6.132  32.925  11.571
58019W        W29745  20.101  19.161   0.902
58020W        W29746  37.825  27.663   2.892
58021W        W29747   6.847  44.794  11.842
58022W        W29748  16.892  44.425  13.025
58023W        W29749  37.323  22.455  14.757
58024W        W29750  40.281  44.700   3.671
58025W        W29751  20.267  42.398  11.043
58026W        W29752  30.047  15.796   3.866
58027W        W29753  17.284  17.531   4.634
58028W        W29754  22.542  22.556  13.847
58029W        W29755  35.063   5.129  13.171
58030W        W29756   3.297  33.004   2.539
58031W        W29757  37.987  44.317  13.385
58032W        W29758  23.727   1.528   2.812
58033W        W29759   2.168  42.862  13.744
58034W        W29760   7.098  12.432  11.147
58035W        W29761  33.430  42.143   2.712
58036W        W29762  25.607  42.989  12.918
58037W        W29763   1.641   0.257  11.010
58038W        W29764  31.543  44.388   3.594
58039W        W29765  42.829   8.438   1.256
58040W        W29766   2.889  26.716   2.899
58041W        W29767   5.339  25.172   1.478
58042W        W29768   8.032  30.489  12.532
58043W        W29769  30.116  10.102  11.595
58044W        W29770  36.990   8.315  12.126
58045W        W29771  32.121  41.481   9.845
58046W        W29772  20.861  43.799  11.426
58047W        W29773  32.854   5.170   2.609
58048W        W29774  15.838  18.594  11.445
58049W        W29775  18.093  11.755  12.504
58050W        W29776  18.343  14.095   1.561
58051W        W29777   4.320  42.828   3.324
58052W        W29778   1.771  30.370   1.229
58053W        W29779  36.649   8.605  13.712
58054W        W29780  33.593   4.343   2.411
58055W        W29781  13.725   5.574   0.766
58056W        W29782   0.863  36.409   2.943
58057W        W29783  18.282  30.092  12.119
58058W        W29784   8.649  22.875  12.948
58059W        W29785   3.681   8.535   3.378
58060W        W29786  42.610   5.787   4.533
58061W        W29787  24.395  32.404   1.398
58062W        W29788  19.441  35.423   2.775
58063W        W29789   6.716  40.456  13.685
58064W        W29790   2.458  16.631   4.744
58065W        W29791  28.127  26.475   0.383
58066W        W29792  42.283  34.055  10.948
58067W        W29793  13.082   7.813   2.356
58068W        W29794  38.087  21.573  14.268
58069W        W29795  14.199   5.530   3.340
58070W        W29796  39.861  41.749  13.366
58071W        W29797  29.655  40.827  14.937
58072W        W29798  12.923  27.650  13.230
58073W        W29799   7.895  18.814  12.000
58074W        W29800  36.400   5.376  14.616
58075W        W29801  33.078  15.122   4.807
58076W        W29802   5.495  31.563   1.810
58077W        W29803  30.932   2.458  14.797
58078W        W29804  25.631  44.768   0.034
58079W        W29805   6.922  37.817  13.215
58080W        W29806  23.704  31.460  14.068
58081W        W29807  39.472  24.135  10.387
58082W        W29808  25.750   1.047  11.104
58083W        W29809  27.015  32.622  10.846
58084W        W29810   8.889  32.980   2.772
58085W        W29811  38.159  42.560  11.960
58086W        W29812  27.572  15.519  12.784
58087W        W29813  31.991   9.714   2.662
58088W        W29814  30.995   6.252  10.210
58089W        W29815  11.540  35.689   5.075
58090W        W29816  12.811  10.785   3.494
58091W        W29817   1.310  11.172   1.855
58092W        W29818   4.166  29.861  12.394
58093W        W29819  26.538   9.062   2.736
58094W        W29820  18.224  31.949  14.815
58095W        W29821  31.351  26.375  10.667
58096W        W29822  35.363  44.383   3.313
58097W        W29823  32.342   7.970  12.607
58098W        W29824   4.854  20.095  13.474
58099W        W29825  33.985  29.018   4.491
58100W        W29826  10.534  40.043   2.805
58101W        W29827   9.337  40.317  10.642
58102W        W29828  36.472  24.600   0.440
58103W        W29829  26.387  11.170  10.645
58104W        W29830  24.484  16.508  13.525
58105W        W29831  44.533  12.698   4.226
58106W        W29832  41.821  16.237  14.820
58107W        W29833  14.787  37.069   4.264
58108W        W29834  32.223  17.184   1.584
58109W        W29835   8.225   0.557   0.385
58110W        W29836  41.438  32.417  14.058
58111W        W29837  42.005  29.964  11.173
58112W        W29838   8.192   9.783  11.089
58113W        W29839  20.813  41.302   4.833
58114W        W29840  20.986  40.230   4.192
58115W        W29841   8.779  23.184   1.627
58116W        W29842  22.400  11.163   0.386
58117W        W29843   8.632  10.624   2.913
58118W        W29844  18.000  36.440   3.037
58119W        W29845   0.896  37.268   3.165
58120W        W29846  34.092  11.894   3.675
58121W        W29847  34.443  31.429   1.881
58122W        W29848  35.975  21.842  12.011
58123W        W29849  42.251   4.731   4.556
58124W        W29850  43.530  36.339   4.922
58125W        W29851   0.910   5.404  13.875
58126W        W29852  14.292  19.575  13.182
58127W        W29853  29.880  39.817   3.241
58128W        W29854  42.356   5.224  11.450
58129W        W29855  14.038   6.660  10.741
58130W        W29856  38.720  17.380  11.936
58131W        W29857  29.575  39.986   4.526
58132W        W29858  41.137  14.873   1.790
58133W        W29859  26.972  20.595  11.513
58134W        W29860   1.930   4.883   1.706
58135W        W29861  33.923  20.451   2.674
58136W        W29862   4.155  28.279  12.179
58137W        W29863  10.703  29.905   2.664
58138W        W29864  11.402   2.484   2.825
58139W        W29865  38.300  29.525   2.816
58140W        W29866  11.320  29.104   3.524
58141W        W29867  21.524   8.646  11.296
58142W        W29868  30.190  36.092   0.821
58143W        W29869  26.455  26.527   3.008
58144W        W29870  14.196  10.856  13.294
58145W        W29871  43.472  40.988   3.881
58146W        W29872  21.063  29.391  12.961
58147W        W29873  42.360  39.906   3.599
58148W        W29874  43.835   8.653  11.272
58149W        W29875  28.933  28.575   2.429
58150W        W29876  17.941  21.502  11.966
58151W        W29877  11.083  37.256   0.374
58152W        W29878   5.323  41.235  12.572
58153W        W29879  26.419  26.228   1.367
58154W        W29880  31.972  40.448  10.721
58155W        W29881  38.049   6.775   4.375
58156W        W29882   0.752   5.823  13.523
58157W        W29883  11.301  44.237   4.114
58158W        W29884  32.906  24.963   4.499
58159W        W29885   6.377  21.789   2.205
58160W        W29886  18.565   5.801  11.664
58161W        W29887  19.708  15.698   2.268
58162W        W29888  24.015  22.488  11.113
58163W        W29889  33.934  30.798  14.325
58164W        W29890  32.312  26.727   5.170
58165W        W29891  39.804  40.512   0.301
58166W        W29892  34.256  37.543  13.920
58167W        W29893  20.725  10.239   4.094
58168W        W29894  37.869  30.839  14.424
58169W        W29895   7.272  15.865  10.952
58170W        W29896  22.289  19.587  14.983
58171W        W29897  40.983  39.480   2.059
58172W        W29898  33.122  31.355  14.565
58173W        W29899  14.799  23.257  11.880
58174W        W29900  18.365   7.845  10.791
58175W        W29901  31.220   3.707   4.391
58176W        W29902  22.550  24.171   4.983
58177W        W29903   0.631  43.409   1.359
58178W        W29904  41.279  25.499  13.876
58179W        W29905  11.404   0.350   0.898
58180W        W29906  13.169  32.001   2.642
58181W        W29907  21.067  23.135   0.912
58182W        W29908   8.782   5.254   1.435
58183W        W29909  28.739  27.045   4.888
58184W        W29910  11.644  25.434  11.989
58185W        W29911  40.568  32.383   2.145
58186W        W29912  36.870  29.008   2.063
58187W        W29913   2.466  10.878  13.128
58188W        W29914  20.269  40.266   2.456
58189W        W29915   9.679  22.737   1.955
58190W        W29916  16.598  16.435  11.374
58191W        W29917  26.662  35.767  10.275
58192W        W29918  10.389  10.417  11.795
58193W        W29919  32.478  19.394   1.174
58194W        W29920   8.662  21.986   1.331
58195W        W29921  24.990  10.635   4.919
58196W        W29922  16.052  40.985   2.616
58197W        W29923  23.697  11.690  10.848
58198W        W29924  36.446  22.385  14.353
58199W        W29925  40.274  15.759  14.457
58200W        W29926  40.880  23.502  10.254
58201W        W29927  37.804  31.517  11.267
58202W        W29928  25.293   1.054  13.972
58203W        W29929  20.517  33.444  13.350
58204W        W29930  21.696  11.158   4.317
58205W        W29931  22.283  38.956  14.036
58206W        W29932   2.434   5.746  12.066
58207W        W29933   9.719   0.929   4.659
58208W        W29934  16.559  35.288  12.966
58209W        W29935   2.530  34.153  12.532
58210W        W29936   0.099  41.424  14.896
58211W        W29937  24.649  27.452   0.694
58212W        W29938  32.085  22.733   4.248
58213W        W29939  43.253  31.830   1.388
58214W        W29940  24.146   7.401  11.739
58215W        W29941   8.823   4.692   3.692
58216W        W29942  44.018  33.613  10.455
58217W        W29943  15.184  14.167  14.099
58218W        W29944   4.241  37.946   0.014
58219W        W29945  11.002  23.263   4.703
58220W        W29946  19.189  11.519  12.974
58221W        W29947  11.492  15.128  11.126
58222W        W29948  40.802   8.792   4.339
58223W        W29949  21.279   5.126   0.405
58224W        W29950  35.370   2.919  13.555
58225W        W29951  31.331   5.436   0.264
58226W        W29952  40.522  17.202  11.970
58227W        W29953  29.181   1.353   3.236
58228W        W29954  12.785   1.205  12.616
58229W        W29955   8.744  10.346  14.727
58230W        W29956  30.604  25.115   4.739
58231W        W29957   8.791  43.263   0.414
58232W        W29958  29.050  10.881   3.775
58233W        W29959  17.584  19.850   3.661
58234W        W29960   1.457   1.994  14.120
58235W        W29961  30.576  26.679   0.967
58236W        W29962  37.088  16.553   1.329
58237W        W29963  13.870  12.282  14.789
58238W        W29964   1.687  16.140   0.759
58239W        W29965   7.120  39.046  13.283
58240W        W29966   0.600  26.505   2.239
58241W        W29967  11.201  22.302   4.817
58242W        W29968  38.911  42.783   2.355
58243W        W29969  14.077  36.107   0.315
58244W        W29970  15.310   7.158  11.925
58245W        W29971  11.306  41.451  10.478
58246W        W29972  34.006  33.487   2.667
58247W        W29973  13.855   4.844  12.255
58248W        W29974  16.910  28.942  10.179
58249W        W29975  20.581  19.673  11.230
58250W        W29976   4.397  41.564  10.759
58251W        W29977   8.892  33.592  13.871
58252W        W29978   8.845   1.145  14.851
58253W        W29979  18.742  33.062   0.321
58254W        W29980   3.266  31.966   4.172
58255W        W29981  24.622  17.540   4.420
58256W        W29982  37.765  41.522   4.375
58257W        W29983  34.577  43.337  13.882
58258W        W29984  14.378   7.210  13.457
58259W        W29985   0.747  14.585   4.541
58260W        W29986  33.531   7.241  12.393
58261W        W29987  39.035  35.092   0.520
58262W        W29988  38.366  23.497  13.781
58263W        W29989   7.340  33.112   4.573
58264W        W29990  14.869  42.310  14.007
58265W        W29991  21.107   8.640   2.341
58266W        W29992  39.819  37.826   2.892
58267W        W29993   9.787  43.410   4.479
58268W        W29994  44.459  41.742  12.796
58269W        W29995  36.938   9.928   4.641
58270W        W29996   4.463  35.464   0.316
58271W        W29997  36.792  14.725   4.414
58272W        W29998  29.469  21.472   4.636
58273W        W29999  24.665  35.324  12.582
58274W        W30000  10.085  43.428  11.520
58275W        W30001  16.907  36.961   3.244
58276W        W30002   9.904  40.980   1.711
58277W        W30003  42.880  43.314   2.266
58278W        W30004  20.781   3.235   4.545
58279W        W30005  24.610  43.555   2.241
58280W        W30006  16.892  10.194  10.251
58281W        W30007   1.947  33.256  14.353
58282W        W30008  41.002  27.689   2.373
58283W        W30009  31.466   3.143   1.237
58284W        W30010  30.049   7.966   0.923
58285W        W30011  28.704  16.836  13.389
58286W        W30012  11.773   8.666   1.270
58287W        W30013  40.362  32.903  11.458
58288W        W30014  31.988  11.878   2.597
58289W        W30015  40.120  24.640   4.515
58290W        W30016  25.396  18.331  13.322
58291W        W30017  21.544  23.020  13.153
58292W        W30018  44.813   6.002   2.816
58293W        W30019  33.995  33.410  10.624
58294W        W30020   9.269  44.338  13.962
58295W        W30021   5.888  43.461  14.317
58296W        W30022  29.375  40.949   4.296
58297W        W30023  17.196  24.999   4.138
58298W        W30024  22.635  20.508   4.233
58299W        W30025  44.745  33.179   4.495
58300W        W30026  34.118  24.290  14.004
58301W        W30027  36.110  12.829  13.589
58302W        W30028  44.692  43.282   0.360
58303W        W30029  44.861   5.191  13.503
58304W        W30030  20.103  35.993   3.339
58305W        W30031   0.494   9.607  13.959
58306W        W30032  24.079  14.103   5.625
58307W        W30033  33.488  22.686  10.728
58308W        W30034  22.428  40.849   4.626
58309W        W30035  15.395  42.687   4.260
58310W        W30036  38.548  32.975  12.078
58311W        W30037  29.393  31.459   3.194
58312W        W30038  11.677  15.810  10.378
58313W        W30039  40.096  29.987  13.766
58314W        W30040  16.365   7.231   3.762
58315W        W30041   5.884  12.295  14.892
58316W        W30042  43.485  31.663   2.792
58317W        W30043  30.762   8.820  11.115
58318W        W30044  19.986  25.477   2.135
58319W        W30045   5.120  23.861  12.061
58320W        W30046  17.834  37.397   2.931
58321W        W30047  27.617   5.940   3.185
58322W        W30048  26.435  24.556   1.929
58323W        W30049  17.642  28.080   1.410
58324W        W30050  23.891   3.909  10.711
58325W        W30051  40.925   1.037  14.707
58326W        W30052  19.449   4.310  14.559
58327W        W30053  30.046  19.757   2.501
58328W        W30054  36.610   7.229  11.203
58329W        W30055  20.626  15.749  14.992
58330W        W30056  24.489   8.820   1.868
58331W        W30057   3.343  22.059   3.154
58332W        W30058  41.601   7.312   4.277
58333W        W30059  34.401  42.395  12.437
58334W        W30060  23.277  18.602  14.509
58335W        W30061  22.429  33.938   4.793
58336W        W30062  36.521  37.137  14.681
58337W        W30063  44.236  19.013  13.821
58338W        W30064  16.507  36.889   1.869
58339W        W30065  14.806  15.561  12.042
58340W        W30066  30.583  34.078  12.451
58341W        W30067   6.713  44.603   1.985
58342W        W30068  14.106  24.586  13.599
58343W        W30069   1.824  27.311   0.970
58344W        W30070  37.080  19.885  14.711
58345W        W30071  35.096   7.258  10.729
58346W        W30072  43.832  18.885   2.352
58347W        W30073  44.456  15.353  11.689
58348W        W30074  20.998  10.761   1.291
58349W        W30075   8.776   7.533  13.092
58350W        W30076  33.609  17.022   4.132
58351W        W30077  13.258   4.129   2.865
58352W        W30078  44.075  34.685   0.247
58353W        W30079  36.400  25.481  14.628
58354W        W30080  26.977  28.507   2.103
58355W        W30081  44.524  44.538  12.443
58356W        W30082   7.997  31.109  14.478
58357W        W30083   1.753  29.158  14.870
58358W        W30084  29.222  21.563   3.347
58359W        W30085   4.748  36.130  14.990
58360W        W30086  30.593   9.734   2.623
58361W        W30087   7.088   8.787   5.254
58362W        W30088  21.640  15.627  11.686
58363W        W30089   1.778  19.333   1.652
58364W        W30090  39.493  36.282  11.165
58365W        W30091   6.775  37.853  14.237
58366W        W30092  26.219  42.601  12.363
58367W        W30093  28.299  36.007  12.845
58368W        W30094  44.518  44.022   0.673
58369W        W30095  24.653  44.458   4.583
58370W        W30096  18.637  32.042   3.144
58371W        W30097  15.142  28.859  11.750
58372W        W30098  26.540  19.578   0.231
58373W        W30099  20.176  40.583   2.844
58374W        W30100  38.433  25.660  14.292
58375W        W30101  36.764   6.203  13.045
58376W        W30102  35.455   0.406  12.161
58377W        W30103  21.777  40.843  14.920
58378W        W30104  12.686   2.481  12.834
58379W        W30105  43.271  31.509   3.646
58380W        W30106  37.560  21.844  11.514
58381W        W30107  35.613  43.041   4.824
58382W        W30108  10.318   2.485  13.949
58383W        W30109  33.517  24.248  13.386
58384W        W30110  19.587  40.829   2.783
58385W        W30111   2.585  14.367   4.111
58386W        W30112  40.127   7.761  12.645
58387W        W30113  26.718  16.676  13.458
58388W        W30114  18.083  28.504   1.733
58389W        W30115  12.783  41.408   4.734
58390W        W30116  29.207  12.186  12.081
58391W        W30117  35.534  43.288  13.828
58392W        W30118   4.391  14.893   1.737
58393W        W30119  27.467  27.560   1.998
58394W        W30120  33.719  42.383  10.228
58395W        W30121   8.433  40.646   2.800
58396W        W30122  38.070  17.644  12.010
58397W        W30123   0.346  41.409   2.401
58398W        W30124  28.162   6.735  12.028
58399W        W30125  34.777  18.448   3.512
58400W        W30126  28.508  11.954  12.472
58401W        W30127   3.468  10.192   2.456
58402W        W30128  12.124   5.373  12.435
58403W        W30129  15.498  21.776   0.683
58404W        W30130   7.959  24.103  12.003
58405W        W30131  13.271  38.025   2.970
58406W        W30132   2.321  44.401   1.188
58407W        W30133  39.902  34.369   1.827
58408W        W30134  30.790  22.051  11.524
58409W        W30135   6.200  38.869  11.225
58410W        W30136  20.252  34.376   2.996
58411W        W30137   3.567   2.740  12.015
58412W        W30138  20.094  18.279  12.237
58413W        W30139  30.379  28.108   1.925
58414W        W30140  21.568  23.560  10.944
58415W        W30141  34.025   8.378  14.354
58416W        W30142  42.265   2.524  11.651
58417W        W30143  10.495  36.601  10.656
58418W        W30144  14.826   2.472   0.258
58419W        W30145  19.832  41.286  12.419
58420W        W30146  33.386  36.441   0.126
58421W        W30147  21.500  19.077  14.953
58422W        W30148  20.001  28.021  11.418
58423W        W30149   7.898  16.386   1.491
58424W        W30150   5.198   0.335  11.303
58425W        W30151  23.908   3.810   3.836
58426W        W30152  38.273   5.719   1.102
58427W        W30153  36.938  33.666   1.794
58428W        W30154  40.187  43.023   4.143
58429W        W30155  33.252  10.611   4.849
58430W        W30156  16.294   9.120  13.769
58431W        W30157  29.457  36.297  14.878
58432W        W30158  40.698  10.865  14.969
58433W        W30159  37.531   9.919   2.163
58434W        W30160  18.564  19.571   4.561
58435W        W30161  42.990  42.284  11.951
58436W        W30162   5.813  10.371  11.996
58437W        W30163   2.812   4.424  14.671
58438W        W30164   2.862  32.458  10.786
58439W        W30165  26.538   6.692   2.274
58440W        W30166  10.839   9.662  11.831
58441W        W30167  36.000  20.340  13.879
58442W        W30168  36.172  18.658  12.484
58443W        W30169   5.694  13.071   2.827
58444W        W30170  11.711  21.186   0.338
58445W        W30171  26.764  39.659  11.311
58446W        W30172  12.610  39.025   0.399
58447W        W30173  12.907  31.972  11.590
58448W        W30174  40.651  37.512  11.149
58449W        W30175  15.042  21.254   4.985
58450W        W30176  10.600  22.629  12.972
58451W        W30177  19.041   0.014   4.734
58452W        W30178  16.147   6.190   0.990
58453W        W30179  11.119  34.344  11.446
58454W        W30180  33.582   0.921   4.638
58455W        W30181   2.428  29.454   4.675
58456W        W30182  26.806  18.119   2.247
58457W        W30183  33.599  34.829  10.948
58458W        W30184  17.083  39.494   2.708
58459W        W30185  11.025  24.562   0.372
58460W        W30186  17.529  20.874   3.690
58461W        W30187   5.403  16.042   2.187
58462W        W30188  38.390  11.891   0.837
58463W        W30189   2.978  44.837  11.194
58464W        W30190   3.560  34.559   3.218
58465W        W30191   1.481  28.230  10.770
58466W        W30192  12.916  14.843  14.893
58467W        W30193  16.064  43.417   0.268
58468W        W30194  36.603  36.420  12.497
58469W        W30195  40.653   0.886   2.539
58470W        W30196   8.257  13.527   2.816
58471W        W30197  33.931  35.847  12.421
58472W        W30198  32.877   1.451   4.587
58473W        W30199   0.070   8.463  14.410
58474W        W30200  13.895   7.226  14.848
58475W        W30201  42.057  23.319  12.492
58476W        W30202  10.509   7.723   5.013
58477W        W30203  26.500  21.797   2.115
58478W        W30204  38.635  28.220  14.531
58479W        W30205  20.671  40.530   1.826
58480W        W30206  35.131  22.144  14.359
58481W        W30207   0.451  37.492  10.173
58482W        W30208  27.590  15.187  11.375
58483W        W30209  36.862   6.397   3.783
58484W        W30210   1.217   9.826  13.408
58485W        W30211  33.622  13.656   1.682
58486W        W30212   6.265   4.064   4.212
58487W        W30213  24.428  33.613   2.788
58488W        W30214  31.573  43.335   2.511
58489W        W30215  16.796  23.994  14.724
58490W        W30216   0.454   4.187   4.111
58491W        W30217  39.521  24.906   1.625
58492W        W30218  25.778  38.288  11.514
58493W        W30219   7.223  40.422   4.082
58494W        W30220   2.811  15.153   1.807
58495W        W30221  12.039  33.111  10.569
58496W        W30222   7.358  35.341   5.262
58497W        W30223  33.244   4.169   3.848
58498W        W30224  25.677   1.710  10.293
58499W        W30225  37.336  25.451  14.745
58500W        W30226  43.076   4.405   0.616
58501W        W30227  29.926  17.136  12.594
58502W        W30228   5.222  12.424   2.808
58503W        W30229   6.170  40.138  11.522
58504W        W30230  14.153  21.300  14.196
58505W        W30231   0.008  26.614  10.148
58506W        W30232   8.155   8.246  11.233
58507W        W30233  33.930  16.162   0.745
58508W        W30234  37.434  39.000  10.560
58509W        W30235  21.280  19.819   4.174
58510W        W30236  30.953   1.863   3.672
58511W        W30237  27.218  24.477  10.780
58512W        W30238  36.963   9.765   0.832
58513W        W30239  30.685  37.845  11.567
58514W        W30240  20.053  41.063   2.700
58515W        W30241  12.720  30.831  10.977
58516W        W30242  21.140   4.858  10.646
58517W        W30243  20.300  14.176  12.413
58518W        W30244   2.787  24.671   4.876
58519W        W30245   5.306  42.410   4.110
58520W        W30246  24.066  11.571   0.096
58521W        W30247  18.824  29.061  12.946
58522W        W30248   9.361   7.828   4.163
58523W        W30249  12.889  34.069   4.423
58524W        W30250  32.661  26.582  11.538
58525W        W30251  26.049  40.775   4.489
58526W        W30252   8.981  33.170  12.774
58527W        W30253  23.932  18.085   1.670
58528W        W30254  16.465  22.823  11.518
58529W        W30255   7.244  26.995   1.589
58530W        W30256  14.393  36.978   0.233
58531W        W30257   9.840  28.205  13.896
58532W        W30258  21.097  36.480   5.148
58533W        W30259  44.954  19.759   1.520
58534W        W30260  27.648  30.593   4.286
58535W        W30261  20.273  19.284   4.697
58536W        W30262  33.330  31.092   2.068
58537W        W30263   3.515  38.819  13.318
58538W        W30264   3.886  14.415   0.336
58539W        W30265  31.972  37.158   0.303
58540W        W30266  20.819  12.477   4.173
58541W        W30267  12.867  28.495   2.289
58542W        W30268  19.612   3.155  12.091
58543W        W30269   1.394   8.686  14.725
58544W        W30270  29.538  35.884   4.973
58545W        W30271  43.420  30.730  12.061
58546W        W30272   8.932  17.141   2.163
58547W        W30273  20.222  39.552  14.831
58548W        W30274  28.141  10.649   3.781
58549W        W30275   6.301   5.161  11.063
58550W        W30276  23.507  38.117  12.003
58551W        W30277  12.842  14.680   1.335
58552W        W30278  40.972  17.997   3.723
58553W        W30279  31.684  37.424   0.955
58554W        W30280  12.244  22.566  10.968
58555W        W30281  21.123  43.561  11.006
58556W        W30282   8.663  20.096  13.929
58557W        W30283   0.783  13.766  13.567
58558W        W30284  20.317  17.192  12.942
58559W        W30285   6.835   5.026   2.715
58560W        W30286  37.912  42.515   1.884
58561W        W30287  29.937  40.608   2.563
58562W        W30288   6.292  27.031   4.201
58563W        W30289  42.232  27.187  13.084
58564W        W30290  21.295   4.029  13.377
58565W        W30291  23.786  13.898   5.212
58566W        W30292  27.096  38.352   1.181
58567W        W30293  38.571  38.318   3.081
58568W        W30294  21.572  14.063   2.267
58569W        W30295  25.669  25.017   1.854
58570W        W30296  15.852  44.226  10.699
58571W        W30297  17.083  11.420   4.416
58572W        W30298  17.978   7.779   3.396
58573W        W30299   9.880  30.645  12.030
58574W        W30300  15.264  29.468  11.645
58575W        W30301   3.428   2.296   1.440
58576W        W30302  11.027  11.455   4.146
58577W        W30303  24.603   9.870  14.822
58578W        W30304  29.462  30.599  11.203
58579W        W30305  23.735   9.646   1.876
58580W        W30306  32.037  33.629  13.186
58581W        W30307  12.310  38.452  12.050
58582W        W30308  27.987  14.167  12.780
58583W        W30309   2.923   1.021  12.534
58584W        W30310  24.323  21.405  10.344
58585W        W30311  25.063  26.837  11.858
58586W        W30312  12.003  17.562  10.777
58587W        W30313  30.670  34.379   2.425
58588W        W30314  34.891   7.949  13.989
58589W        W30315  29.078   8.851  14.820
58590W        W30316  40.076   7.985   3.754
58591W        W30317   4.788  24.806  14.063
58592W        W30318  16.594  17.779   1.889
58593W        W30319  16.375  36.546  10.581
58594W        W30320  24.268  35.411   1.316
58595W        W30321  26.980  44.226   1.846
58596W        W30322  40.993  23.457   1.730
58597W        W30323  11.349  10.062  13.428
58598W        W30324   5.189  22.153  12.478
58599W        W30325  37.642  40.589  11.165
58600W        W30326  18.210  32.167  11.492
58601W        W30327   0.367  36.037  13.385
58602W        W30328  11.680  35.944   3.061
58603W        W30329  28.640   8.217  13.010
58604W        W30330  24.234  12.654   3.755
58605W        W30331   5.189  26.204  12.994
58606W        W30332   7.798  22.724  11.238
58607W        W30333  26.610   1.363   3.596
58608W        W30334  30.825  11.526  13.752
58609W        W30335  25.706   7.195   0.480
58610W        W30336  16.779  42.462  10.494
58611W        W30337  42.661  26.439   2.913
58612W        W30338  17.725   7.085   4.916
58613W        W30339  20.286   1.673  11.666
58614W        W30340  32.155  13.516   4.048
58615W        W30341  35.786  38.449   2.675
58616W        W30342  30.795   1.925   4.697
58617W        W30343  35.387  20.591  12.077
58618W        W30344  41.056  15.548  11.638
58619W        W30345  19.132   7.778  14.925
58620W        W30346  11.580   7.229  12.423
58621W        W30347  42.468  33.939  14.260
58622W        W30348   2.416  26.666  14.752
58623W        W30349  10.964  20.771  14.997
58624W        W30350  28.575  21.117   1.444
58625W        W30351  33.941  13.925  11.011
58626W        W30352  30.653   7.930   3.212
58627W        W30353   6.456  30.129  13.123
58628W        W30354  31.506  29.759   4.164
58629W        W30355  21.235  30.600  14.944
58630W        W30356  40.023   9.213  14.261
58631W        W30357   7.542   1.554  14.305
58632W        W30358  41.533  31.190  13.411
58633W        W30359   9.300  42.502   0.674
58634W        W30360   9.378  32.743   0.559
58635W        W30361  21.468  25.859  11.122
58636W        W30362  32.350  19.453  13.373
58637W        W30363  23.527  24.105  11.458
58638W        W30364  24.112  30.720   5.060
58639W        W30365  11.184  29.163  12.408
58640W        W30366  24.145  44.311   4.571
58641W        W30367   9.683  42.954   2.326
58642W        W30368  39.480  31.423   3.659
58643W        W30369   2.548   3.027   0.853
58644W        W30370  14.133  10.439   4.397
58645W        W30371  19.648  25.608   2.534
58646W        W30372  12.606  28.357  11.173
58647W        W30373   8.790   6.277  12.478
58648W        W30374  42.747  38.392   4.386
58649W        W30375  10.345   1.773  13.393
58650W        W30376  16.005  18.637  10.768
58651W        W30377  39.902  14.078   4.078
58652W        W30378  42.268  22.291   1.728
58653W        W30379  42.851  43.787  14.964
58654W        W30380  43.908   1.263  10.671
58655W        W30381  17.311  18.935  13.714
58656W        W30382  34.492   7.713   2.415
58657W        W30383  29.085  31.204  13.336
58658W        W30384   0.321   0.463   2.160
58659W        W30385  41.461  12.311  12.174
58660W        W30386  24.318   0.353  13.480
58661W        W30387   7.514  40.942  13.903
58662W        W30388  43.509  28.579   0.215
58663W        W30389  10.579  41.278   0.786
58664W        W30390  18.689   0.032  11.033
58665W        W30391  42.849   9.782  14.928
58666W        W30392   5.829   3.537  13.428
58667W        W30393  40.799  13.257   3.131
58668W        W30394  11.343   6.538   3.898
58669W        W30395   7.466  10.714  11.500
58670W        W30396  18.592  10.538   0.392
58671W        W30397   8.616  23.258  10.327
58672W        W30398  24.050  36.555   4.698
58673W        W30399  28.975  35.103   3.645
58674W        W30400  24.132   8.706  14.830
58675W        W30401  37.354   5.803   0.149
58676W        W30402  15.881  10.571   1.367
58677W        W30403  16.114  30.604   2.845
58678W        W30404   6.435  12.359   0.619
58679W        W30405  21.072  35.796  13.817
58680W        W30406   4.006  35.065  12.187
58681W        W30407  10.015   1.856   2.157
58682W        W30408  37.809   9.219   0.062
58683W        W30409  44.958  22.358   1.261
58684W        W30410  23.193   2.959   0.226
58685W        W30411  29.093  21.296   2.904
58686W        W30412  24.422  15.658  10.699
58687W        W30413  41.099  27.202   2.151
58688W        W30414  20.709  36.380   1.743
58689W        W30415   7.356  22.006   3.627
58690W        W30416   0.258  22.474  14.775
58691W        W30417   9.198  19.659  13.375
58692W        W30418  41.332  32.959  13.960
58693W        W30419  29.974  19.702  13.312
58694W        W30420  36.556   4.414   2.045
58695W        W30421   4.719   1.684   2.771
58696W        W30422  40.879  29.536  11.128
58697W        W30423  33.877   1.688   4.168
58698W        W30424  39.355  23.939  13.032
58699W        W30425  41.850  10.294  13.507
58700W        W30426  38.107  38.552  13.427
58701W        W30427   4.165  40.731  11.151
58702W        W30428  24.979  33.879  14.047
58703W        W30429  36.044  32.960  12.200
58704W        W30430  34.232  26.001  13.339
58705W        W30431  30.461   6.722   2.801
58706W        W30432   7.527  30.713  12.519
58707W        W30433  22.800  17.181  14.043
58708W        W30434  33.357  20.678   3.597
58709W        W30435  21.681  24.695  12.423
58710W        W30436  20.023  33.419   4.485
58711W        W30437  43.629  44.859  13.884
58712W        W30438  16.063   3.369   2.663
58713W        W30439  43.775  41.998   0.308
58714W        W30440  44.399  33.982   4.249
58715W        W30441  22.556  43.063   4.124
58716W        W30442  23.731  13.340   2.179
58717W        W30443  31.143  40.485  11.617
58718W        W30444  34.199  14.537   3.374
58719W        W30445  10.027  41.895  10.453
58720W        W30446   0.505  40.358   1.862
58721W        W30447  35.650  11.445  12.018
58722W        W30448   5.654  40.589  13.443
58723W        W30449  35.897  25.287  11.878
58724W        W30450  43.459   2.684  14.022
58725W        W30451  29.569  28.451   0.716
58726W        W30452  32.167  32.074  10.683
58727W        W30453  29.626  39.358  10.553
58728W        W30454   9.101  33.139   0.163
58729W        W30455  35.341   7.361   3.705
58730W        W30456  32.196  35.372  11.127
58731W        W30457  20.162  40.853  11.435
58732W        W30458  19.482  21.615  13.534
58733W        W30459  12.124  44.388  11.783
58734W        W30460  28.479  36.927  13.936
58735W        W30461  41.925   4.341  10.701
58736W        W30462  32.560  41.417  11.726
58737W        W30463  43.732  28.454  13.899
58738W        W30464   8.683  16.990  12.759
58739W        W30465   6.668  28.235  11.185
58740W        W30466  23.820  28.956   5.128
58741W        W30467  26.873  41.755   2.682
58742W        W30468  29.420  38.494  12.984
58743W        W30469  33.047  35.496   0.720
58744W        W30470  36.036  21.337  12.138
58745W        W30471  18.327  40.420  12.619
58746W        W30472   1.355   7.970  14.036
58747W        W30473  17.047  35.099   4.082
58748W        W30474  27.190  19.617   4.973
58749W        W30475  11.499  31.909  13.084
58750W        W30476  32.368  37.478  11.978
58751W        W30477   8.371  26.423   0.569
58752W        W30478  39.967  18.356  13.492
58753W        W30479  23.882  33.364   3.967
58754W        W30480  16.767  40.945  11.378
58755W        W30481  26.413   8.757   5.125
58756W        W30482  25.575   3.988   2.161
58757W        W30483   2.978  27.202  13.897
58758W        W30484  11.649  17.230   4.603
58759W        W30485   4.352  23.164  13.530
58760W        W30486  40.865  27.570  11.472
58761W        W30487  18.096  13.415   2.747
58762W        W30488   8.716  25.174   0.185
58763W        W30489   7.917  37.343  12.586
58764W        W30490   4.042  21.667  11.419
58765W        W30491  29.002  42.524  10.688
58766W        W30492  39.350  30.938   4.942
58767W        W30493  19.551  32.472   2.355
58768W        W30494   2.994  39.552   3.712
58769W        W30495   6.380  23.245   3.449
58770W        W30496  17.655  42.552   1.760
58771W        W30497   2.016  11.591  14.521
58772W        W30498   8.829  15.169   4.394
58773W        W30499  37.861   8.342  10.674
58774W        W30500  38.986  20.041  10.710
58775W        W30501  24.564  40.061  14.353
58776W        W30502  27.126  43.589   0.674
58777W        W30503  10.322  43.906   0.371
58778W        W30504   4.373   5.260   1.759
58779W        W30505  29.238  11.397   0.966
58780W        W30506  14.188  40.069  13.854
58781W        W30507  29.159  31.784   1.146
58782W        W30508  43.886  38.996  14.301
58783W        W30509  12.857  12.876  10.501
58784W        W30510  41.050  15.777   0.778
58785W        W30511  21.606   7.325  13.452
58786W        W30512  33.026  39.620   0.076
58787W        W30513  16.300  12.836   2.348
58788W        W30514  42.365   7.064   4.626
58789W        W30515  26.559  42.963   2.749
58790W        W30516  22.011  12.837  13.850
58791W        W30517  40.342  12.702   4.115
58792W        W30518  11.846  18.703   5.068
58793W        W30519  23.581  43.767   4.890
58794W        W30520  19.516  16.359  10.818
58795W        W30521  19.607  16.804  11.052
58796W        W30522  38.139   2.829  10.964
58797W        W30523  16.250  12.659   0.244
58798W        W30524  29.635  36.031   3.070
58799W        W30525  16.346  17.867   3.231
58800W        W30526  31.983  15.117  13.539
58801W        W30527  34.839  39.958   0.815
58802W        W30528  20.454   9.369  11.097
58803W        W30529  19.590  11.765   0.893
58804W        W30530  21.181  33.296   2.651
58805W        W30531   1.799  22.754   0.516
58806W        W30532  18.926  39.920  10.336
58807W        W30533  40.272  41.484  13.010
58808W        W30534  28.883  22.459  13.939
58809W        W30535  40.319  12.102   0.973
58810W        W30536  40.083  40.514  11.657
58811W        W30537  26.424  41.339   0.333
58812W        W30538  41.091  21.147  13.644
58813W        W30539  41.799  18.138   1.740
58814W        W30540  36.091  33.306  11.015
58815W        W30541  25.067  14.012   1.709
58816W        W30542  24.483   8.431  12.948
58817W        W30543  31.688  37.214   4.641
58818W        W30544  11.053  32.580   2.230
58819W        W30545  36.228  39.974  11.261
58820W        W30546  10.934   0.772   2.715
58821W        W30547  17.781   4.740  14.085
58822W        W30548  25.148  30.530   4.572
58823W        W30549  15.706  13.355   2.713
58824W        W30550  36.287  40.542   9.839
58825W        W30551  22.635  40.884  14.319
58826W        W30552  11.254   5.289   4.109
58827W        W30553  23.546  32.853   2.158
58828W        W30554  16.047  42.218  11.566
58829W        W30555  41.469  12.177   3.862
58830W        W30556  37.856  35.636   2.348
58831W        W30557  18.218  23.941   3.818
58832W        W30558  36.977  41.087   0.716
58833W        W30559  33.947  11.951   1.453
58834W        W30560  12.895  38.552  11.155
58835W        W30561   1.251  24.306  12.523
58836W        W30562   0.213   7.339   2.307
58837W        W30563   1.601   3.245  11.101
58838W        W30564  14.561  18.466  12.624
58839W        W30565  33.134  25.206   5.356
58840W        W30566  40.998  10.291  13.450
58841W        W30567  37.926   8.780  11.647
58842W        W30568   8.517  44.357   2.130
58843W        W30569   9.359  11.555   2.264
58844W        W30570   4.863  14.593   4.079
58845W        W30571  32.600  19.159   4.621
58846W        W30572  42.325   5.294   1.298
58847W        W30573   6.524  36.389  12.044
58848W        W30574   9.593  36.323   1.309
58849W        W30575  33.941  29.936  13.508
58850W        W30576  33.941  42.899  12.883
58851W        W30577  20.262  10.092  12.694
58852W        W30578  34.523  11.719  12.421
58853W        W30579  23.057  44.450   0.841
58854W        W30580  12.578  15.528   4.215
58855W        W30581   7.352  23.672  11.027
58856W        W30582  36.511  30.411  10.938
58857W        W30583   8.364  14.214  11.544
58858W        W30584  12.938  35.522  13.092
58859W        W30585   0.442  43.869   3.206
58860W        W30586  35.006  24.552  12.003
58861W        W30587  21.228  25.296  11.939
58862W        W30588  39.814  44.605  12.958
58863W        W30589  21.684  12.546   0.957
58864W        W30590  36.397  17.630   2.015
58865W        W30591  11.404   1.743  14.210
58866W        W30592  13.693  27.624  10.540
58867W        W30593  22.572  44.834   3.241
58868W        W30594   9.540  21.122   4.625
58869W        W30595  34.289   4.476   3.052
58870W        W30596  13.293  26.122  12.949
58871W        W30597  40.694  25.744  13.051
58872W        W30598  13.282   6.802   2.394
58873W        W30599  39.609  38.463  12.525
58874W        W30600   7.476   6.078  14.191
58875W        W30601  11.494  26.935  14.021
58876W        W30602  17.332  32.928   3.320
58877W        W30603   3.441  18.178  12.134
58878W        W30604  26.583  25.705   3.391
58879W        W30605  29.520  34.597   4.068
58880W        W30606  23.785  39.975   4.345
58881W        W30607  28.235  26.271  13.047
58882W        W30608  20.658   0.779   3.144
58883W        W30609  23.569  19.542   0.383
58884W        W30610  13.573  20.695   1.890
58885W        W30611   3.401  13.723  13.377
58886W        W30612  32.657  35.768   0.963
58887W        W30613  37.341  32.727  14.195
58888W        W30614   1.347   8.945   4.272
58889W        W30615  27.578  40.581   2.845
58890W        W30616   4.879  31.398   0.958
58891W        W30617  43.115  25.859  14.338
58892W        W30618  31.725  44.299  13.270
58893W        W30619  13.355  35.805  10.260
58894W        W30620   5.968   3.809  11.138
58895W        W30621  37.760  13.679   0.147
58896W        W30622   4.252   8.637   0.943
58897W        W30623  39.416   6.841   4.608
58898W        W30624  25.244   3.772   3.327
58899W        W30625  20.783  38.305   2.931
58900W        W30626   3.718   7.331   3.442
58901W        W30627  20.967  20.257   4.183
58902W        W30628   1.773  38.340  10.393
58903W        W30629  27.757  44.003  14.896
58904W        W30630  10.370  29.589  11.844
58905W        W30631   3.098   0.905   0.080
58906W        W30632  43.060  17.830  14.252
58907W        W30633  34.400  23.609  10.952
58908W        W30634  17.242  20.177   0.543
58909W        W30635  12.861  18.115   3.698
58910W        W30636  18.040  44.027  10.623
58911W        W30637  20.561   7.704  11.127
58912W        W30638  37.527  13.494  13.959
58913W        W30639  12.378   3.267   3.737
58914W        W30640  15.759   5.476   3.722
58915W        W30641  36.635   7.261   3.307
58916W        W30642  29.091  26.114   1.687
58917W        W30643  33.472   8.280   4.611
58918W        W30644  26.157  29.941   0.716
58919W        W30645  23.258  25.174   0.701
58920W        W30646   2.903  21.501   2.667
58921W        W30647   1.730  16.083  14.725
58922W        W30648  27.862   4.855  12.554
58923W        W30649   4.428  25.636  11.112
58924W        W30650  16.023  26.871   4.631
58925W        W30651   1.916  23.208   0.925
58926W        W30652  13.054  25.598   2.352
58927W        W30653  32.716   5.634   2.817
58928W        W30654  10.639  36.014  12.136
58929W        W30655   5.723   8.572   3.414
58930W        W30656   7.837  16.159   3.244
58931W        W30657   0.470  16.627  11.929
58932W        W30658  22.629  12.889  12.873
58933W        W30659  30.160  14.708  12.700
58934W        W30660  35.775  18.149   4.556
58935W        W30661  44.852  13.102  12.285
58936W        W30662  38.325  26.785   2.958
58937W        W30663  21.619  31.605  14.361
58938W        W30664  16.839  36.048   4.226
58939W        W30665  22.109   9.604   1.886
58940W        W30666  44.457  43.525   0.758
58941W        W30667   7.185   0.735   2.149
58942W        W30668   7.767  34.636  10.185
58943W        W30669   1.211   5.432   4.491
58944W        W30670  15.793   6.447   3.632
58945W        W30671   4.321  42.789  11.491
58946W        W30672  32.782  23.096  11.535
58947W        W30673  27.435  20.228   2.257
58948W        W30674  11.002  26.306   1.322
58949W        W30675  44.478  10.893   0.444
58950W        W30676   4.392   9.875  13.449
58951W        W30677  13.656  37.381  13.454
58952W        W30678   2.423  26.650   3.769
58953W        W30679   9.672  37.940  11.175
58954W        W30680  23.968  11.049  11.985
58955W        W30681  36.317  32.147   3.756
58956W        W30682   1.946  32.347   1.397
58957W        W30683  35.944  36.235   1.517
58958W        W30684  26.934  31.672  12.606
58959W        W30685  21.042  33.350   1.793
58960W        W30686   2.377  32.115  11.372
58961W        W30687  24.393  10.184  13.884
58962W        W30688   2.345  14.143   1.894
58963W        W30689   3.944  33.434  11.588
58964W        W30690   0.267  32.217   4.107
58965W        W30691  10.120  11.127   3.692
58966W        W30692  40.432  42.759  12.076
58967W        W30693  35.522  33.850  11.574
58968W        W30694  22.222  21.164   4.074
58969W        W30695   1.256  43.196   1.984
58970W        W30696  13.581  24.226   4.941
58971W        W30697  37.345  34.996  14.761
58972W        W30698  31.588  37.756   3.272
58973W        W30699  36.400  26.369  13.871
58974W        W30700  15.193   9.962   4.652
58975W        W30701  17.038   8.020   4.560
58976W        W30702   3.190  10.307  11.636
58977W        W30703   6.404  18.401  14.797
58978W        W30704  40.914  32.895  14.263
58979W        W30705   3.387  11.631  13.446
58980W        W30706  43.443  24.496   4.468
58981W        W30707   5.731  15.320   4.662
58982W        W30708   4.974  44.459   1.838
58983W        W30709  44.056  43.830   1.658
58984W        W30710  44.864  23.030   4.782
58985W        W30711  14.846  32.685  13.977
58986W        W30712  36.470  25.300  11.272
58987W        W30713  15.024  27.694   2.842
58988W        W30714   3.125  44.029  12.031
58989W        W30715  16.454   8.480   0.270
58990W        W30716  39.462  40.289  14.062
58991W        W30717   4.647  43.924  11.063
58992W        W30718   5.303   5.853   3.732
58993W        W30719  33.590  40.275  10.334
58994W        W30720   3.454  34.899   2.834
58995W        W30721  25.510   4.294  10.949
58996W        W30722   4.681  12.211   1.191
58997W        W30723  22.533  27.317  13.266
58998W        W30724  13.835  43.247  12.120
58999W        W30725  10.151  18.673   2.750
59000W        W30726   4.406  11.725   0.449
59001W        W30727  40.567  21.993   4.920
59002W        W30728   3.998  22.583   0.266
59003W        W30729  30.097  20.930   1.983
59004W        W30730  21.622  39.134   0.861
59005W        W30731  38.746  19.171   3.820
59006W        W30732  27.950  44.969  12.130
59007W        W30733   7.285  28.856   1.743
59008W        W30734   5.707  18.169  10.870
59009W        W30735  42.495   0.492   2.667
59010W        W30736  24.109  14.580   0.268
59011W        W30737  40.319  37.642  14.875
59012W        W30738  26.376  14.407   3.337
59013W        W30739  31.400  22.425   2.002
59014W        W30740   4.928  18.761   0.224
59015W        W30741   7.947  30.084  14.309
59016W        W30742   5.402  22.333   3.575
59017W        W30743  17.786   7.860   4.060
59018W        W30744  20.674  12.745   0.849
59019W        W30745   5.681   6.312  11.845
59020W        W30746  32.057  32.915   3.579
59021W        W30747  29.445   6.436   0.032
59022W        W30748   0.217  24.712  12.147
59023W        W30749  30.223  27.572   2.980
59024W        W30750   4.163  21.966  11.018
59025W        W30751   5.862  29.389  13.329
59026W        W30752  34.027   1.937  12.193
59027W        W30753  25.512   6.276   3.188
59028W        W30754  36.566  37.066   0.679
59029W        W30755  13.339  25.715   4.563
59030W        W30756   9.197  42.982   0.197
59031W        W30757   1.723  22.681  12.203
59032W        W30758   0.271  27.552   1.927
59033W        W30759  12.356  17.754   0.702
59034W        W30760  17.776  23.952  14.949
59035W        W30761  42.896  30.521   2.475
59036W        W30762   3.245  17.044  11.195
59037W        W30763   1.229  27.023   2.307
59038W        W30764  17.647  29.699   3.798
59039W        W30765   5.252   3.964   0.245
59040W        W30766  42.236  44.912   0.492
59041W        W30767  29.697  35.131   1.547
59042W        W30768  13.503  30.632  14.419
59043W        W30769   6.220   3.192   4.679
59044W        W30770  10.465   7.756   4.299
59045W        W30771  31.351   5.332  13.013
59046W        W30772   6.365  23.459   0.274
59047W        W30773   7.436  40.151   3.636
59048W        W30774  11.314   6.814  13.394
59049W        W30775  23.979   8.795   4.916
59050W        W30776  16.365  38.297   1.242
59051W        W30777  12.190  44.381   0.400
59052W        W30778   9.338  43.011  10.832
59053W        W30779  36.667  33.093  10.895
59054W        W30780   6.659  16.210  14.366
59055W        W30781  19.049   7.925   4.585
59056W        W30782  11.997  40.638  12.485
59057W        W30783   6.716  23.155   3.077
59058W        W30784  17.140  13.041   2.734
59059W        W30785  23.942  35.944   1.026
59060W        W30786  25.604  32.662  11.113
59061W        W30787   1.467  25.228   4.600
59062W        W30788  34.937  39.054   3.302
59063W        W30789   6.900  15.416  10.178
59064W        W30790  20.533   9.843   3.719
59065W        W30791   4.550  21.231  14.376
59066W        W30792   2.540  32.547  12.107
59067W        W30793   7.620  34.246   5.504
59068W        W30794  10.175  37.958   4.884
59069W        W30795   0.357   8.222   3.370
59070W        W30796   6.841  36.363   4.439
59071W        W30797  34.557  15.176  11.291
59072W        W30798  29.555   1.406   4.614
59073W        W30799  17.361   4.177  13.340
59074W        W30800   8.268   4.220  13.583
59075W        W30801   1.840   8.129  14.573
59076W        W30802  26.484  22.450   3.923
59077W        W30803  27.947  25.726   2.976
59078W        W30804  16.740  25.412   3.346
59079W        W30805  43.054  10.634  13.819
59080W        W30806  44.346  12.794   3.719
59081W        W30807  25.971  25.648   0.664
59082W        W30808  14.261   3.425   3.779
59083W        W30809   8.680   5.994   0.006
59084W        W30810  31.071  43.578  10.279
59085W        W30811  34.938  17.837   2.040
59086W        W30812  10.712  24.472   4.147
59087W        W30813   1.011  11.097   4.279
59088W        W30814  37.906  14.977   1.005
59089W        W30815  20.179  33.005  12.713
59090W        W30816  11.601  38.717   3.693
59091W        W30817   7.403  15.663  11.402
59092W        W30818  36.810  21.574  14.018
59093W        W30819  13.859  38.982   2.853
59094W        W30820  12.141  16.717  14.341
59095W        W30821  44.468   9.363   4.051
59096W        W30822  19.254  37.492  11.529
59097W        W30823  41.767  30.535   0.051
59098W        W30824  30.977  24.103  11.567
59099W        W30825   9.035  28.944  13.441
59100W        W30826  35.975  13.636  13.062
59101W        W30827  38.725   7.342  12.619
59102W        W30828  33.673  24.946   1.382
59103W        W30829  41.898   2.970  12.450
59104W        W30830  32.802  31.528   0.441
59105W        W30831  20.980  14.430   5.010
59106W        W30832   2.998  21.561  13.876
59107W        W30833   8.955  10.366  10.921
59108W        W30834  25.115  18.730  11.648
59109W        W30835  23.475  18.228   1.921
59110W        W30836  37.535  42.865   0.954
59111W        W30837  18.287  35.426  13.235
59112W        W30838  36.425  40.261  10.467
59113W        W30839   4.620  14.985  12.649
59114W        W30840  10.798  10.410  10.646
59115W        W30841   9.374  23.544  14.930
59116W        W30842  31.936   4.821  14.815
59117W        W30843  16.624  27.784   3.220
59118W        W30844  40.074   4.791   1.306
59119W        W30845  29.140  32.880  11.132
59120W        W30846  29.205  33.141   0.912
59121W        W30847  18.548  20.464  11.545
59122W        W30848  31.625  42.597  12.904
59123W        W30849  34.597  10.813   4.865
59124W        W30850  31.133  35.613  11.115
59125W        W30851   8.831   9.892  10.749
59126W        W30852  25.121  42.026  14.921
59127W        W30853  32.158  44.240  10.214
59128W        W30854  20.066  26.947   3.499
59129W        W30855  20.225   2.831  13.969
59130W        W30856  24.124   3.024   2.327
59131W        W30857  30.565  36.642   0.284
59132W        W30858  10.998  22.024  13.760
59133W        W30859  21.184   2.397   2.024
59134W        W30860  24.736  35.135  11.614
59135W        W30861  10.075  37.422  12.567
59136W        W30862  38.934  20.769  10.394
59137W        W30863  11.592  22.463  13.052
59138W        W30864  27.683  23.350  11.521
59139W        W30865  40.839   9.119  12.219
59140W        W30866  14.010  30.733  11.167
59141W        W30867  11.216  42.085   0.314
59142W        W30868  30.590  12.703   1.828
59143W        W30869  31.102   2.869   4.746
59144W        W30870  40.080   3.992  13.578
59145W        W30871  23.742   7.651  12.015
59146W        W30872   4.467  30.327   0.566
59147W        W30873  12.395  42.805  10.920
59148W        W30874  34.793  30.971  13.904
59149W        W30875  13.857  19.814  11.421
59150W        W30876  22.030  22.668   2.299
59151W        W30877   3.421  28.340   0.851
59152W        W30878  35.248  42.198   2.226
59153W        W30879  40.280  34.572   0.920
59154W        W30880  23.028  24.517  10.443
59155W        W30881  42.499   2.826   2.329
59156W        W30882  31.402  22.886  13.904
59157W        W30883   3.763  44.372   0.228
59158W        W30884   4.782   1.011   4.604
59159W        W30885  21.964  38.030  13.681
59160W        W30886  18.871  30.379   3.854
59161W        W30887  11.379  41.314   1.268
59162W        W30888  38.820  33.790   0.733
59163W        W30889  14.727  40.954   4.365
59164W        W30890  32.645  35.623   4.005
59165W        W30891  11.959  21.515  12.610
59166W        W30892   0.439  12.878  10.953
59167W        W30893  24.733  28.041   4.669
59168W        W30894  20.197  38.962   1.178
59169W        W30895  29.567  24.022  12.654
59170W        W30896  16.673  13.305  10.433
59171W        W30897  13.882  44.717   4.628
59172W        W30898  17.200  25.627   3.148
59173W        W30899  21.439  20.138   0.019
59174W        W30900  16.031  24.022  13.496
59175W        W30901  14.373  44.729  12.954
59176W        W30902  11.964  37.767   3.605
59177W        W30903  32.458  36.568   1.666
59178W        W30904  27.840  19.023  13.496
59179W        W30905  31.884  23.147   0.233
59180W        W30906   0.927   1.470   3.365
59181W        W30907  30.551  35.625  11.920
59182W        W30908  22.695  34.333  14.471
59183W        W30909   7.197  13.379   0.388
59184W        W30910  31.363  25.030   1.037
59185W        W30911  25.977  10.446   1.836
59186W        W30912   8.742  42.877  14.967
59187W        W30913  40.163  19.389  13.572
59188W        W30914  31.937  27.699  13.796
59189W        W30915   0.795  16.146   1.729
59190W        W30916   6.294  11.331  14.717
59191W        W30917   2.349  36.826   3.730
59192W        W30918  21.519  27.850   4.326
59193W        W30919  25.131   0.424   2.840
59194W        W30920   5.848  13.831  11.022
59195W        W30921  34.058   7.331  12.471
59196W        W30922   0.736  38.114   2.380
59197W        W30923  23.702   6.189   1.382
59198W        W30924  30.310   5.289   0.229
59199W        W30925  12.982   0.988   4.122
59200W        W30926   1.224  14.161  12.869
59201W        W30927   4.698  27.043  10.855
59202W        W30928  44.480  35.218   9.884
59203W        W30929  11.700  41.621  13.428
59204W        W30930  40.854   8.261  12.094
59205W        W30931  30.976   2.003  12.508
59206W        W30932  26.008  22.264  12.452
59207W        W30933   7.380  11.301   4.667
59208W        W30934   4.001  12.882  11.610
59209W        W30935  25.441   0.381   5.043
59210W        W30936  43.878   0.325  14.334
59211W        W30937  36.836  12.257  14.310
59212W        W30938  33.935  34.451   4.257
59213W        W30939  18.160  40.229  14.616
59214W        W30940  27.018  33.035  11.173
59215W        W30941  13.516  33.863  12.943
59216W        W30942   1.189  23.572   2.597
59217W        W30943  34.113  37.075   1.219
59218W        W30944   2.533  25.078   5.138
59219W        W30945   5.796   5.884   1.698
59220W        W30946  44.999   3.269  13.958
59221W        W30947   6.189  23.542  11.196
59222W        W30948  17.657  38.183   0.926
59223W        W30949   4.823   7.356  14.589
59224W        W30950  42.967  24.006  12.632
59225W        W30951  44.722  31.059   2.257
59226W        W30952  22.031   9.474  12.563
59227W        W30953  44.009   5.426   4.285
59228W        W30954  11.102  13.205   0.897
59229W        W30955  21.080  15.236  12.522
59230W        W30956   3.975   1.838  12.905
59231W        W30957  14.365  20.077   3.458
59232W        W30958   5.913  40.515   4.495
59233W        W30959  22.249  23.191   1.149
59234W        W30960  38.829   6.204  10.601
59235W        W30961  42.017  18.799  11.206
59236W        W30962  14.684  24.085   2.277
59237W        W30963  34.558  11.704   4.550
59238W        W30964  38.992  27.801  14.484
59239W        W30965   8.899   6.864   2.737
59240W        W30966  38.505  44.412  11.222
59241W        W30967  24.489  41.508  11.574
59242W        W30968  39.339  10.324   1.086
59243W        W30969  16.540  17.075  12.057
59244W        W30970  29.163   5.431   4.171
59245W        W30971  42.754   9.818  11.481
59246W        W30972  11.689  13.162  13.867
59247W        W30973  17.171   3.734   3.856
59248W        W30974  15.525  26.100  13.944
59249W        W30975  10.859  15.738  11.668
59250W        W30976   0.097  27.026  12.003
59251W        W30977  21.758  18.203  11.585
59252W        W30978  40.068  30.663  12.087
59253W        W30979  23.791  30.037  14.038
59254W        W30980  29.423   3.354  11.945
59255W        W30981  25.199  20.618  11.627
59256W        W30982   3.342   0.671  14.480
59257W        W30983  34.317  22.540   2.301
59258W        W30984  26.893  29.062   0.728
59259W        W30985   4.563  38.276   0.290
59260W        W30986   6.649   0.586  13.607
59261W        W30987   2.464   6.323  12.325
59262W        W30988  32.487   0.370  13.088
59263W        W30989  42.891  15.592   3.285
59264W        W30990  42.375  36.026  11.201
59265W        W30991   0.251  30.523  13.554
59266W        W30992   6.840  20.354   0.880
59267W        W30993  11.595  27.957  10.419
59268W        W30994  30.330   2.596  13.816
59269W        W30995  23.219   0.333   0.527
59270W        W30996  17.502  24.523   2.745
59271W        W30997  25.639   1.382  12.545
59272W        W30998  15.855  30.549  11.667
59273W        W30999  13.144  40.926  13.049
59274W        W31000  21.643  27.436   4.043
59275W        W31001   5.218  33.445  12.927
59276W        W31002  37.509   5.019   1.748
59277W        W31003   5.273  36.068  11.655
59278W        W31004  39.378  31.215  13.877
59279W        W31005  20.117  10.901  10.783
59280W        W31006  17.632  32.529   3.694
59281W        W31007   6.712   3.668   5.389
59282W        W31008   9.941  11.755  12.085
59283W        W31009  35.744  20.234   3.722
59284W        W31010  21.152  35.256   4.130
59285W        W31011  41.563  35.946   2.229
59286W        W31012  11.808  29.939  11.478
59287W        W31013  15.428  12.146   1.430
59288W        W31014  30.887   6.101   3.241
59289W        W31015   3.762   4.134  14.905
59290W        W31016  32.109  11.730  13.847
59291W        W31017  44.966  12.291   2.182
59292W        W31018  10.679   7.406   2.109
59293W        W31019  38.872   0.322  10.173
59294W        W31020  37.658  30.973   1.422
59295W        W31021  14.321   7.672   5.282
59296W        W31022  44.512  44.544   1.963
59297W        W31023  26.374  14.947  14.766
59298W        W31024  20.861   1.394   3.188
59299W        W31025  33.681  22.023  13.860
59300W        W31026   2.074  10.171   4.164
59301W        W31027  29.995   4.978  11.127
59302W        W31028  31.095  10.097   1.944
59303W        W31029  29.041   0.874   4.543
59304W        W31030  30.783  35.305  13.374
59305W        W31031   2.154   0.370   0.729
59306W        W31032  23.884  12.924   4.669
59307W        W31033  41.533  31.447   2.612
59308W        W31034  14.634   0.254  11.564
59309W        W31035  40.716  41.435  11.181
59310W        W31036  13.559  25.528   2.417
59311W        W31037  28.194  17.338   2.743
59312W        W31038  16.321  32.025   2.095
59313W        W31039  16.271  44.194  14.294
59314W        W31040  30.451  16.894   2.323
59315W        W31041  28.199   7.798   2.797
59316W        W31042  29.215  10.232   2.269
59317W        W31043  36.281  37.401   0.393
59318W        W31044  39.074  35.528  13.307
59319W        W31045  23.127  43.983   0.511
59320W        W31046  23.025   9.810   2.509
59321W        W31047  21.273  37.059   0.061
59322W        W31048  13.122  16.067  10.883
59323W        W31049  23.679  24.661  11.100
59324W        W31050   9.082   5.781  10.463
59325W        W31051  12.320  29.132  13.994
59326W        W31052  36.468  34.097   1.753
59327W        W31053  21.799   5.857   2.596
59328W        W31054  30.412  28.990  12.618
59329W        W31055  38.055  37.799  12.180
59330W        W31056  36.362  34.250  13.429
59331W        W31057  23.206  28.110  12.019
59332W        W31058  30.016  33.097   4.481
59333W        W31059  29.992  26.929  13.387
59334W        W31060  25.211  14.162  11.167
59335W        W31061  43.095  36.968   4.290
59336W        W31062   7.723  29.936   1.258
59337W        W31063  30.459  10.194   0.696
59338W        W31064  24.702  10.158  12.551
59339W        W31065  38.481  19.258   0.238
59340W        W31066  32.567  16.258   3.088
59341W        W31067  16.662  23.591  12.768
59342W        W31068  26.753  18.651   2.873
59343W        W31069   6.885  12.775   4.604
59344W        W31070   7.606  34.838   1.845
59345W        W31071  18.171  10.727  14.817
59346W        W31072  26.130  24.271   1.616
59347W        W31073  22.150  32.155   3.673
59348W        W31074   4.250  35.201   2.394
59349W        W31075   8.253  24.926   1.761
59350W        W31076   7.195   8.317   5.028
59351W        W31077  24.482  35.815  12.589
59352W        W31078  27.869  23.327  13.827
59353W        W31079  17.923   4.170   2.407
59354W        W31080  20.972  33.396  12.469
59355W        W31081   6.181  27.161  14.430
59356W        W31082  16.244  33.945   3.205
59357W        W31083   4.906  40.398  12.277
59358W        W31084   8.450  36.697   0.433
59359W        W31085  14.872  27.952  12.354
59360W        W31086   2.844  26.965  10.642
59361W        W31087   0.862  20.574   2.187
59362W        W31088  24.649  30.717   0.743
59363W        W31089  18.621  16.945   3.679
59364W        W31090  24.162   3.909   1.706
59365W        W31091  16.162  11.173  12.017
59366W        W31092  19.682  11.240  13.466
59367W        W31093  19.223  13.204  11.968
59368W        W31094  14.570  26.367   2.607
59369W        W31095  17.125  36.070  14.023
59370W        W31096  21.678   6.714  12.843
59371W        W31097  39.148  25.105  11.950
59372W        W31098  38.931   5.388   1.720
59373W        W31099  27.596  24.721  14.416
59374W        W31100   7.115   5.916   3.220
59375W        W31101   9.850  13.772  14.892
59376W        W31102  16.962  22.886   0.903
59377W        W31103  12.445   5.702   2.638
59378W        W31104  38.591   8.266   4.299
59379W        W31105  16.958  29.753  13.129
59380W        W31106   2.915  15.322  13.410
59381W        W31107   4.974   9.898   4.763
59382W        W31108  24.284  35.458  11.484
59383W        W31109  25.481  19.373  13.876
59384W        W31110   4.891  43.824  13.549
59385W        W31111   0.578  22.608  14.394
59386W        W31112  44.323   7.350   2.932
59387W        W31113  29.556  42.822   9.897
59388W        W31114  20.345  38.538   2.730
59389W        W31115  38.503  33.722   0.001
59390W        W31116  43.008  44.996   2.242
59391W        W31117  44.881  27.208  12.436
59392W        W31118   9.372  34.048   2.627
59393W        W31119  31.955  44.791   2.666
59394W        W31120  24.094  40.396   2.194
59395W        W31121  42.237  31.427   0.430
59396W        W31122  42.014  37.390   0.263
59397W        W31123  25.500  16.774  11.552
59398W        W31124   3.163   3.652   1.161
59399W        W31125  30.364  23.477  14.397
59400W        W31126  42.429  30.378   1.226
59401W        W31127  32.998  40.535  12.014
59402W        W31128  44.141  36.178   5.028
59403W        W31129   7.750  28.961   0.374
59404W        W31130   9.152  39.942   1.426
59405W        W31131  39.411   3.641  14.976
59406W        W31132   8.739  34.693   2.574
59407W        W31133  20.619   0.548  11.340
59408W        W31134  15.738  40.518  11.512
59409W        W31135   4.374   3.684  11.557
59410W        W31136  38.877  16.151  13.447
59411W        W31137  43.370  11.227   0.019
59412W        W31138  21.565   4.290   0.897
59413W        W31139   3.200  14.038   0.876
59414W        W31140  30.623  21.482  11.186
59415W        W31141  20.749  22.003   2.327
59416W        W31142   0.970   4.977   1.768
59417W        W31143  22.986  41.251  14.480
59418W        W31144   9.869  44.982   4.127
59419W        W31145  28.306  42.867  12.295
59420W        W31146  41.721   3.579   2.239
59421W        W31147   3.255  30.523  14.816
59422W        W31148   9.916  31.651   5.083
59423W        W31149  40.443  21.455  13.813
59424W        W31150  18.584  15.727  10.895
59425W        W31151   5.222  26.026   3.924
59426W        W31152  21.167  13.068   9.812
59427W        W31153   5.440  26.020  12.589
59428W        W31154  34.871  15.557   2.117
59429W        W31155  28.446   1.540  12.387
59430W        W31156  21.859  29.594   4.038
59431W        W31157  22.741  29.209   1.661
59432W        W31158  15.993   3.890  13.831
59433W        W31159  38.436   3.662   2.119
59434W        W31160  29.287  24.155  13.444
59435W        W31161  12.324  29.874   2.652
59436W        W31162  21.037  41.383  14.635
59437W        W31163  41.468  35.582   1.855
59438W        W31164   4.270  21.279   1.791
59439W        W31165  41.274  38.341   0.729
59440W        W31166  21.603   8.566  11.801
59441W        W31167  28.050  21.130  12.486
59442W        W31168  36.396  24.270   0.029
59443W        W31169  34.889  17.162   0.314
59444W        W31170  25.552  22.993   1.211
59445W        W31171   6.285  26.768   2.004
59446W        W31172  30.958  20.071   3.139
59447W        W31173  22.019  21.980  14.847
59448W        W31174   9.890   7.291   2.784
59449W        W31175  39.860  23.172  10.633
59450W        W31176   9.362  30.434  12.954
59451W        W31177  10.118   9.138  14.486
59452W        W31178  18.562  18.576   4.115
59453W        W31179   3.846  10.247  10.788
59454W        W31180  19.482  30.387  13.049
59455W        W31181  14.542  37.958   4.566
59456W        W31182  21.214   1.064   3.026
59457W        W31183  18.447  24.363   2.002
59458W        W31184  19.739   7.735   0.531
59459W        W31185   6.160   4.390   0.566
59460W        W31186   6.123   0.521  11.940
59461W        W31187   1.135  25.187  14.000
59462W        W31188  30.695  32.902  11.711
59463W        W31189  13.795  35.337   1.581
59464W        W31190   7.991  14.984  14.442
59465W        W31191  25.260  28.635   2.575
59466W        W31192  23.163  35.166  10.934
59467W        W31193  32.375  13.311   0.733
59468W        W31194  25.972  17.113   1.628
59469W        W31195  19.205  31.652   4.278
59470W        W31196  11.349  12.100  14.639
59471W        W31197  20.745  22.598  12.040
59472W        W31198  27.467   6.767   4.597
59473W        W31199   1.665  22.597  13.573
59474W        W31200  31.747   9.666  12.456
59475W        W31201  32.973   0.461   2.366
59476W        W31202  23.462  37.105   2.401
59477W        W31203  21.114  15.380   3.734
59478W        W31204  44.377  30.673   4.116
59479W        W31205   6.965   3.592  11.178
59480W        W31206   3.824  10.092  12.078
59481W        W31207  30.717  44.320   2.933
59482W        W31208  11.404  23.361   0.903
59483W        W31209  14.577  10.767   1.789
59484W        W31210  22.088  35.059   1.844
59485W        W31211  42.885   6.159  13.130
59486W        W31212   1.890  27.934  10.916
59487W        W31213  42.237  18.674  12.107
59488W        W31214   5.352  21.603   0.411
59489W        W31215  32.850   1.793  14.813
59490W        W31216   5.861  20.075   2.659
59491W        W31217   3.370  28.775  12.392
59492W        W31218  24.591  14.274  12.983
59493W        W31219  27.850  43.881   4.316
59494W        W31220  19.915   3.166   4.983
59495W        W31221  33.332  13.679  12.024
59496W        W31222  34.498  19.736  14.852
59497W        W31223  44.439  15.180   2.380
59498W        W31224  13.353  14.272   0.557
59499W        W31225  10.237  22.839  10.242
59500W        W31226  13.047  14.705   1.813
59501W        W31227  27.725  18.306   0.535
59502W        W31228  35.338  13.199   4.596
59503W        W31229   8.880  40.638   0.994
59504W        W31230  31.150  24.243  10.186
59505W        W31231  19.048  42.718   0.702
59506W        W31232  34.395  28.669  13.058
59507W        W31233   0.692  10.426   2.875
59508W        W31234  22.460  33.894   0.915
59509W        W31235  39.001  43.135  11.199
59510W        W31236   6.820   5.847  10.623
59511W        W31237  14.110  41.470   1.854
59512W        W31238  35.567  43.704  11.967
59513W        W31239   3.831  23.546   1.450
59514W        W31240  33.175  28.439  11.957
59515W        W31241  25.773  27.359   3.622
59516W        W31242  30.586  21.112  12.513
59517W        W31243  17.154  14.391   2.146
59518W        W31244  34.780  34.128  11.128
59519W        W31245  41.452  10.211  11.249
59520W        W31246  33.494  32.528  13.984
59521W        W31247  25.264  41.903   0.990
59522W        W31248  14.591   5.564  11.335
59523W        W31249   6.847  12.604   0.454
59524W        W31250   1.737  36.830   1.490
59525W        W31251  10.924  29.490   3.612
59526W        W31252   2.957  23.071  13.794
59527W        W31253  22.781  10.598  11.161
59528W        W31254   3.307  16.304  13.972
59529W        W31255  29.896   1.562   1.703
59530W        W31256  27.757  44.275   1.521
59531W        W31257  38.636  36.025  14.339
59532W        W31258  37.081  26.900  13.531
59533W        W31259   1.209  21.345  10.390
59534W        W31260  33.617  17.574   1.489
59535W        W31261  34.621  21.088  13.476
59536W        W31262  42.521  42.279  14.772
59537W        W31263  17.573  13.806  13.883
59538W        W31264  18.138  31.122   0.893
59539W        W31265  33.453   2.730   2.907
59540W        W31266   9.341  30.689   1.281
59541W        W31267  29.701  35.097  10.778
59542W        W31268  23.099  35.647  10.732
59543W        W31269   4.299  34.571   4.238
59544W        W31270  21.870   6.880  10.953
59545W        W31271  37.329  35.550   1.245
59546W        W31272  38.856  38.980  12.243
59547W        W31273  38.591  16.017   1.810
59548W        W31274  44.471   4.363   2.397
59549W        W31275   6.600  40.678   1.760
59550W        W31276  40.496  18.303   4.586
59551W        W31277  38.104  18.722   2.242
59552W        W31278  32.695  25.914   5.351
59553W        W31279  31.857  41.938  11.538
59554W        W31280  33.819  21.177  13.317
59555W        W31281  44.438  19.568   3.609
59556W        W31282   5.761  37.843   4.672
59557W        W31283  10.034  40.309   3.711
59558W        W31284  16.568  25.886  11.606
59559W        W31285  21.713  31.143   1.937
59560W        W31286   6.163  11.374   4.033
59561W        W31287  34.629   2.200   2.475
59562W        W31288   3.366  44.431   1.498
59563W        W31289   8.933  13.802   1.361
59564W        W31290   4.293  40.609   1.843
59565W        W31291   0.934  25.595   3.982
59566W        W31292  25.948  19.984  10.685
59567W        W31293  37.331  27.987  14.797
59568W        W31294  16.335  42.898   3.329
59569W        W31295  10.300  36.732   5.103
59570W        W31296  32.183  34.595  14.413
59571W        W31297   0.282  18.733  12.580
59572W        W31298  17.288  26.650   0.318
59573W        W31299  25.048  27.901   0.688
59574W        W31300  44.526  13.731  11.183
59575W        W31301  18.849  24.698   1.357
59576W        W31302  30.214   4.251  11.841
59577W        W31303  36.336  36.545  13.861
59578W        W31304  33.997  41.903   2.641
59579W        W31305  24.263  42.960   1.712
59580W        W31306  10.034  24.268   1.022
59581W        W31307  33.404  41.482  13.387
59582W        W31308   0.297  18.972  13.890
59583W        W31309  34.740  37.496   1.669
59584W        W31310  33.780  21.728   4.350
59585W        W31311  40.997  27.498  14.045
59586W        W31312  31.565   0.684  12.479
59587W        W31313  14.193  27.014  11.113
59588W        W31314   1.162  16.985  12.390
59589W        W31315   0.277  39.019   3.992
59590W        W31316   0.049  13.857   0.718
59591W        W31317   0.270  32.156   0.396
59592W        W31318  16.958  39.188   3.885
59593W        W31319   3.327  24.581  14.965
59594W        W31320  25.866  33.041  14.458
59595W        W31321  12.148   0.249   2.144
59596W        W31322  36.487   9.943  14.049
59597W        W31323  27.122  39.572  12.043
59598W        W31324  32.375   3.217   5.240
59599W        W31325  43.314  40.965  11.563
59600W        W31326   2.747  29.179  14.853
59601W        W31327  11.283  35.453  10.736
59602W        W31328  39.704  34.973  12.008
59603W        W31329  42.201  17.639   4.300
59604W        W31330   3.530  16.168  10.901
59605W        W31331  18.336   9.750   2.586
59606W        W31332  36.376   7.879   1.995
59607W        W31333  10.253  40.872  12.900
59608W        W31334   6.802   4.235  14.067
59609W        W31335  27.768  31.302  13.028
59610W        W31336  26.407  28.166  14.875
59611W        W31337   7.998  36.128  12.078
59612W        W31338  36.575  35.428  11.689
59613W        W31339  24.262  34.955  11.699
59614W        W31340   3.767  10.152   4.339
59615W        W31341  20.807  31.543   1.896
59616W        W31342  32.988  15.384  12.557
59617W        W31343  25.976  44.494   4.578
59618W        W31344   0.756  10.674   4.091
59619W        W31345   9.505  39.311  13.803
59620W        W31346  29.950   7.100  11.160
59621W        W31347  41.581  39.043  13.073
59622W        W31348  21.417  30.620  14.407
59623W        W31349  34.001  41.265  13.816
59624W        W31350  41.788  11.109   4.607
59625W        W31351  33.640  37.823   3.082
59626W        W31352  41.800   9.253   0.927
59627W        W31353  18.349  24.122  12.474
59628W        W31354  38.763   1.327   1.326
59629W        W31355   0.988  33.108   1.716
59630W        W31356   4.263   6.323  13.855
59631W        W31357   2.995   2.714  14.900
59632W        W31358   5.592  10.517  10.621
59633W        W31359  14.514  17.015   1.328
59634W        W31360  13.334  27.275  10.727
59635W        W31361  23.953  37.371  12.503
59636W        W31362  24.196  27.695   2.839
59637W        W31363  15.177  23.797   2.189
59638W        W31364  10.785  40.996  12.909
59639W        W31365  40.131  20.563  11.137
59640W        W31366  19.161  41.085  14.860
59641W        W31367  21.190  17.633  14.211
59642W        W31368  21.743  33.651  13.980
59643W        W31369   4.859  21.602   2.223
59644W        W31370   2.815  25.470  10.756
59645W        W31371  38.207   2.046  10.400
59646W        W31372  38.311  11.237  14.423
59647W        W31373  19.528   0.780   0.133
59648W        W31374   6.124  25.569  13.834
59649W        W31375  27.545   1.045  12.506
59650W        W31376   0.387  29.736  11.125
59651W        W31377  40.420  16.265   2.832
59652W        W31378  10.802  29.012   3.411
59653W        W31379   3.903  29.552   2.875
59654W        W31380   1.518  31.261   2.207
59655W        W31381  41.873  43.040  11.475
59656W        W31382  15.270  38.530   3.926
59657W        W31383  13.757  40.015   0.560
59658W        W31384  12.341  34.267  13.075
59659W        W31385   0.807  39.864   1.702
59660W        W31386  19.447  25.609  12.411
59661W        W31387   5.876  25.704  14.548
59662W        W31388  16.172  30.726   4.304
59663W        W31389   0.320  32.704   3.216
59664W        W31390   2.347  39.024   2.825
59665W        W31391  25.581  32.594  12.085
59666W        W31392   7.641   5.165   5.287
59667W        W31393   4.196  30.885  13.945
59668W        W31394   3.657  28.450  12.126
59669W        W31395   8.370  43.297  12.041
59670W        W31396   5.687  21.308   2.782
59671W        W31397   3.523  37.455   3.145
59672W        W31398   8.908  23.114   3.197
59673W        W31399   1.866  15.339  10.689
59674W        W31400  32.337   8.253  13.948
59675W        W31401  14.560   9.031  14.264
59676W        W31402  24.094  39.013   4.809
59677W        W31403   8.740   4.420  13.535
59678W        W31404  27.278  20.063  13.977
59679W        W31405  23.793  44.559   0.468
59680W        W31406   7.793  31.670   2.794
59681W        W31407  41.494  21.476   1.987
59682W        W31408  25.934   1.384   2.556
59683W        W31409   3.772  25.409   1.339
59684W        W31410  39.608   7.812  12.527
59685W        W31411  31.378  38.243  13.483
59686W        W31412  23.636   5.393   3.139
59687W        W31413  32.694  31.673   4.322
59688W        W31414   7.409  15.857   0.363
59689W        W31415  38.634  12.333   2.777
59690W        W31416  26.284  19.542  12.935
59691W        W31417   2.394   4.817   0.261
59692W        W31418   6.438  29.772  14.070
59693W        W31419  28.965   8.821   3.383
59694W        W31420  20.977  38.843  12.797
59695W        W31421   2.180  14.660   3.902
59696W        W31422  34.214  33.036   2.851
59697W        W31423   6.890   9.143   2.658
59698W        W31424   9.970   2.363   3.122
59699W        W31425  26.530  30.141  10.686
59700W        W31426  37.922  44.466  13.862
59701W        W31427  25.336   7.473   3.835
59702W        W31428  25.504  29.727  11.475
59703W        W31429  33.193   9.340   3.876
59704W        W31430   5.425  39.952   0.348
59705W        W31431  41.499  37.873  10.714
59706W        W31432   3.330  13.497  11.607
59707W        W31433  14.341  31.886   3.171
59708W        W31434  43.299  41.371   4.546
59709W        W31435  24.491   6.337   4.536
59710W        W31436  43.947  33.625  12.932
59711W        W31437  32.549  43.758  12.085
59712W        W31438  25.444  19.375  14.798
59713W        W31439  34.556  39.050   2.928
59714W        W31440  20.616   0.502  10.808
59715W        W31441  25.376  34.550  13.946
59716W        W31442  21.303  22.577  14.520
59717W        W31443   6.614  43.457   1.871
59718W        W31444  41.516  29.666  12.454
59719W        W31445  14.756   0.778   2.213
59720W        W31446  34.396   4.416  11.394
59721W        W31447  13.407  14.279  14.443
59722W        W31448  33.546  36.787  13.861
59723W        W31449   5.254  12.771   4.208
59724W        W31450  30.500  32.563  10.849
59725W        W31451  20.211   5.218   4.181
59726W        W31452   3.902  21.457   0.870
59727W        W31453  11.341  10.538  12.574
59728W        W31454  32.893  26.400   0.382
59729W        W31455  17.628  13.161   3.779
59730W        W31456  39.597  38.886  11.662
59731W        W31457   9.453   2.838   3.639
59732W        W31458  44.360   7.863   4.536
59733W        W31459  29.989   2.425  12.311
59734W        W31460   0.948  14.644  11.995
59735W        W31461  10.657  13.174  11.892
59736W        W31462  38.383  13.076  10.441
59737W        W31463  39.365   6.766  10.815
59738W        W31464  11.830  28.406  11.644
59739W        W31465  24.485  11.063  13.531
59740W        W31466  32.920  25.508  13.391
59741W        W31467  21.720  23.630  13.379
59742W        W31468  39.989  29.865  10.819
59743W        W31469  16.518  14.813  13.049
59744W        W31470  23.728  24.776   1.899
59745W        W31471  11.715  25.467   4.595
59746W        W31472  19.085  30.639  11.011
59747W        W31473  17.694  37.813   0.572
59748W        W31474  35.946  15.436  14.791
59749W        W31475  21.617   9.638   0.822
59750W        W31476  13.066  33.031  14.783
59751W        W31477  19.224  28.183   4.899
59752W        W31478  30.375  43.968  10.197
59753W        W31479  31.348  13.672  12.425
59754W        W31480  15.271  22.741   4.163
59755W        W31481  10.624  14.490   0.216
59756W        W31482   0.251  42.485   1.400
59757W        W31483  11.706  12.244  13.979
59758W        W31484   3.756  17.798  11.973
59759W        W31485  20.718   3.403  13.586
59760W        W31486  20.403  27.764   9.899
59761W        W31487  35.017  27.941  12.929
59762W        W31488  30.404  36.350   2.922
59763W        W31489  19.254  31.627  12.475
59764W        W31490  10.359  17.142   1.901
59765W        W31491  36.843   9.689  12.434
59766W        W31492  44.267  32.151   1.309
59767W        W31493  35.987   0.044  13.804
59768W        W31494   6.836  21.756   1.959
59769W        W31495   5.028  39.531  10.174
59770W        W31496  17.718   1.518  11.004
59771W        W31497  26.497   6.930  12.492
59772W        W31498  13.331  15.371   2.281
59773W        W31499  38.480  40.307  14.344
59774W        W31500  13.540  39.950  10.633
59775W        W31501  30.900   6.330  11.689
59776W        W31502  12.651  21.007  13.251
59777W        W31503  32.489  29.555   0.658
59778W        W31504  12.139  16.848   3.788
59779W        W31505  38.263  21.111  11.149
59780W        W31506  16.590  11.658  13.461
59781W        W31507  23.109  43.480   1.702
59782W        W31508  43.246  44.970   0.425
59783W        W31509  32.569  28.867  11.103
59784W        W31510  20.058  38.460   1.275
59785W        W31511  19.039  40.079  11.159
59786W        W31512  37.767  29.858  13.745
59787W        W31513  32.640   3.026  12.010
59788W        W31514   3.936  19.340   4.218
59789W        W31515  36.890  16.374   0.876
59790W        W31516  22.992   1.046  10.237
59791W        W31517   3.982   9.129   3.855
59792W        W31518  28.115  38.588  12.986
59793W        W31519   5.844  15.067  14.741
59794W        W31520  40.477   2.334   2.793
59795W        W31521  12.700  25.393  11.992
59796W        W31522  35.025  21.653  14.113
59797W        W31523  41.258  40.837  11.302
59798W        W31524  10.358  23.492   2.548
59799W        W31525  34.401  31.147   0.788
59800W        W31526   7.225  38.510  11.883
59801W        W31527  43.449   4.883  14.906
59802W        W31528  42.001   1.707  14.355
59803W        W31529  30.059  21.419   3.687
59804W        W31530   8.131   4.271   4.712
59805W        W31531  17.973  27.165   1.390
59806W        W31532  40.215  35.982   4.499
59807W        W31533  41.100  35.029   3.135
59808W        W31534  16.540  22.543   0.996
59809W        W31535  32.155  21.072   5.083
59810W        W31536  42.084  19.148  10.820
59811W        W31537  20.717  37.271  10.424
59812W        W31538  38.058  22.707  13.172
59813W        W31539   3.219  15.766  11.063
59814W        W31540  27.596  31.658  14.654
59815W        W31541  16.028   7.281   4.163
59816W        W31542  12.093  38.552  11.589
59817W        W31543  37.125  30.084  14.534
59818W        W31544  26.555  38.041   4.147
59819W        W31545   2.738  27.225   1.034
59820W        W31546   8.312  39.938  13.543
59821W        W31547   2.731  33.927  13.385
59822W        W31548  30.222  34.500  12.320
59823W        W31549  36.129  40.770  14.277
59824W        W31550  37.937  12.839  10.589
59825W        W31551   8.832  38.876  11.973
59826W        W31552  40.741   4.758   4.709
59827W        W31553  41.066  10.615  12.004
59828W        W31554  21.839   4.357   3.683
59829W        W31555  23.089  32.566   0.844
59830W        W31556  37.203  34.394  13.479
59831W        W31557   5.636  12.667  13.519
59832W        W31558  35.951  23.666  13.180
59833W        W31559  27.685  36.423  13.799
59834W        W31560  13.304  35.096   0.920
59835W        W31561   7.920  15.981  13.757
59836W        W31562  44.208  16.668  12.581
59837W        W31563  28.114  37.707  10.260
59838W        W31564  17.595  10.724   4.058
59839W        W31565   2.304   9.603  12.483
59840W        W31566  38.650  11.674  10.889
59841W        W31567  22.804   2.761  13.893
59842W        W31568  25.007  24.414  12.075
59843W        W31569   5.605  24.689  13.828
59844W        W31570  18.983  31.987  14.498
59845W        W31571  33.854   4.725   2.145
59846W        W31572  44.864  32.454   0.277
59847W        W31573  30.885   4.522   1.274
59848W        W31574  41.598   0.372   4.951
59849W        W31575   9.753  20.725   1.432
59850W        W31576  16.111  32.845   0.656
59851W        W31577  13.602  17.396   0.428
59852W        W31578  32.877  31.528   3.651
59853W        W31579  20.608  43.510  10.690
59854W        W31580  35.554   0.997   0.760
59855W        W31581  18.460  28.907  12.004
59856W        W31582   6.817  22.039   2.383
59857W        W31583   7.378  15.063  12.895
59858W        W31584   9.725  10.384   0.869
59859W        W31585  26.779  29.616  12.936
59860W        W31586  32.810  10.256   3.525
59861W        W31587   3.248  34.529   1.879
59862W        W31588  41.809   8.745  12.063
59863W        W31589  33.193   3.880   3.321
59864W        W31590  40.581  33.867   3.704
59865W        W31591  15.533  39.948  12.530
59866W        W31592  25.417   3.432   1.305
59867W        W31593  38.606  36.650  14.791
59868W        W31594  11.487  31.004  11.698
59869W        W31595   4.890  18.208  12.559
59870W        W31596   1.023   4.373  11.088
59871W        W31597  43.297  37.921  10.732
59872W        W31598  21.801  37.391   2.622
59873W        W31599  26.416  30.411  13.972
59874W        W31600  40.984  37.964  11.899
59875W        W31601  31.721  28.518   3.778
59876W        W31602  17.238   0.858   4.365
59877W        W31603  15.122  30.044  14.913
59878W        W31604  16.519  19.738   5.020
59879W        W31605  31.064   3.702   3.390
59880W        W31606  30.479  22.265   1.650
59881W        W31607   1.862  37.777   1.850
59882W        W31608  16.924  19.411   5.047
59883W        W31609  41.937  11.446   0.889
59884W        W31610  31.680  11.153  12.462
59885W        W31611   8.212  11.125  12.601
59886W        W31612  38.862  43.817  14.970
59887W        W31613  38.607   9.200   0.432
59888W        W31614   8.453  42.016   2.113
59889W        W31615  34.919  10.213  14.028
59890W        W31616  21.255  24.757   2.326
59891W        W31617  16.593  40.979   1.278
59892W        W31618  29.702  32.430  11.507
59893W        W31619  44.983  40.692   0.384
59894W        W31620  10.398   5.200   3.120
59895W        W31621  38.041  29.171  12.321
59896W        W31622  40.708  28.548  13.033
59897W        W31623  34.317  19.320  12.349
59898W        W31624  30.020  38.001  14.512
59899W        W31625  15.703   1.032  12.433
59900W        W31626  13.057  15.225  10.715
59901W        W31627  31.496   6.813   0.723
59902W        W31628  19.708  19.066   3.870
59903W        W31629   4.365  25.932   0.936
59904W        W31630  44.202  43.423  11.723
59905W        W31631  21.648  25.551   1.388
59906W        W31632  38.793  20.541  10.841
59907W        W31633   1.817  10.652   4.115
59908W        W31634  26.833  32.579  13.435
59909W        W31635  35.413  10.138  10.684
59910W        W31636  44.365   9.977  13.347
59911W        W31637  30.061   1.206   4.395
59912W        W31638  40.243  32.175   3.315
59913W        W31639  39.831  23.772   0.942
59914W        W31640   9.870  29.577   2.935
59915W        W31641  18.732  27.255  14.243
59916W        W31642  21.680  28.564  14.089
59917W        W31643  27.972  11.227   4.238
59918W        W31644   2.372  42.343   2.416
59919W        W31645   1.764   4.915  13.791
59920W        W31646  18.664  40.963  14.792
59921W        W31647  41.742   1.740   2.360
59922W        W31648  36.430  43.298  13.759
59923W        W31649  13.377  25.051   3.670
59924W        W31650  23.712  10.692   3.606
59925W        W31651  20.992  11.693   2.462
59926W        W31652  26.261   8.258   4.113
59927W        W31653  12.355  40.431   2.522
59928W        W31654  15.544  41.271   3.254
59929W        W31655   9.328  17.677  14.518
59930W        W31656  32.928  20.546   4.688
59931W        W31657  43.807  37.234  12.465
59932W        W31658  43.225  36.896   0.919
59933W        W31659  22.926  32.427  11.560
59934W        W31660   7.430  41.994   0.369
59935W        W31661  15.062  27.931  11.455
59936W        W31662  10.122  26.722   2.282
59937W        W31663  29.233  25.540   3.338
59938W        W31664  24.171   8.872  12.890
59939W        W31665  43.778  34.023  10.660
59940W        W31666  44.315   3.673   4.574
59941W        W31667  33.545  42.148  12.120
59942W        W31668  14.011   6.684   3.824
59943W        W31669  12.010  42.353  13.443
59944W        W31670  30.198  10.428   2.290
59945W        W31671  33.919  43.019   5.414
59946W        W31672  16.171   9.382   0.254
59947W        W31673  39.406   4.486   4.292
59948W        W31674   7.740  35.877  13.289
59949W        W31675  37.042  10.131  14.952
59950W        W31676  26.920  24.628  12.153
59951W        W31677   8.984   3.410   0.956
59952W        W31678  15.739  32.020  10.941
59953W        W31679   8.898   9.846  13.226
59954W        W31680  36.603  28.216   0.287
59955W        W31681  35.459  18.752   0.355
59956W        W31682  19.250  14.079  10.789
59957W        W31683  19.566   0.718   2.335
59958W        W31684  24.053   7.770  13.519
59959W        W31685  33.374  38.878  14.756
59960W        W31686   2.024   7.493  11.073
59961W        W31687  10.278  27.217  14.002
59962W        W31688   3.732   1.302   4.082
59963W        W31689  13.814  39.554   1.874
59964W        W31690  26.207  21.005   4.081
59965W        W31691  22.963   3.907  10.371
59966W        W31692  33.598  27.464  11.578
59967W        W31693   7.804  12.196  14.072
59968W        W31694  39.837  20.576   3.570
59969W        W31695  11.422  33.353   1.885
59970W        W31696  34.934  38.883  11.575
59971W        W31697   8.898   7.193   3.806
59972W        W31698  17.522  40.239  11.464
59973W        W31699  20.671  18.271   2.660
59974W        W31700   0.051   3.727   1.791
59975W        W31701   3.383  20.208  12.920
59976W        W31702  23.914  25.912   1.324
59977W        W31703  10.428  19.525  14.943
59978W        W31704   2.939  22.484  13.355
59979W        W31705  29.806  14.181   0.132
59980W        W31706   5.660   0.005   3.262
59981W        W31707  35.124   1.035   2.210
59982W        W31708  38.538  40.201  13.825
59983W        W31709   2.153  33.001  12.759
59984W        W31710  38.467  16.875   4.566
59985W        W31711  44.492   8.000   4.044
59986W        W31712  22.138  13.387  14.722
59987W        W31713  35.613   2.799  12.618
59988W        W31714  14.431  25.536  12.534
59989W        W31715   8.301  13.315   0.306
59990W        W31716  26.189   4.832  11.512
59991W        W31717  38.518  36.068   2.729
59992W        W31718  30.565   3.171  11.121
59993W        W31719   4.419  43.966  10.608
59994W        W31720  35.989  32.538   1.956
59995W        W31721   9.265  29.254  12.097
59996W        W31722  10.695  14.871   3.817
59997W        W31723   5.192  11.684  10.446
59998W        W31724   2.776  25.724  14.030
59999W        W31725  42.208   9.098   2.341
60000W        W31726  36.351  17.040   4.048
60001W        W31727   6.932  29.104   2.799
60002W        W31728   2.463  18.564   0.054
60003W        W31729  23.693  25.726   4.826
60004W        W31730  17.629  10.178   4.663
60005W        W31731   9.213   7.900  12.921
60006W        W31732  25.182  21.905  12.013
60007W        W31733  34.416  22.705  10.588
60008W        W31734  11.352  43.424  12.014
60009W        W31735  15.715  41.297  10.835
60010W        W31736  41.219  44.437  13.560
60011W        W31737  21.781  23.045   0.327
60012W        W31738   9.547  30.517  14.757
60013W        W31739  29.510  11.954  11.203
60014W        W31740  32.564  29.527  11.509
60015W        W31741  25.246  27.529   3.701
60016W        W31742  41.752   7.284  12.580
60017W        W31743   2.892  34.191   3.135
60018W        W31744   0.784  30.672  13.769
60019W        W31745  35.008  41.074  12.006
60020W        W31746  20.261  25.669   1.684
60021W        W31747  33.912  37.177   2.266
60022W        W31748   1.652  21.317  12.102
60023W        W31749  26.699   6.671  12.094
60024W        W31750  13.821  33.824  12.052
60025W        W31751   8.413  27.857   5.092
60026W        W31752  32.868  44.727   0.382
60027W        W31753  24.388  26.116  11.673
60028W        W31754  14.386  11.766   2.134
60029W        W31755   9.453   5.329   2.697
60030W        W31756  23.693  19.258   4.801
60031W        W31757   6.928   9.429  12.927
60032W        W31758  26.919   2.891   4.904
60033W        W31759   0.494  19.073   3.777
60034W        W31760  21.315  43.297   2.612
60035W        W31761  43.729   7.420  14.073
60036W        W31762  28.676  32.559  12.359
60037W        W31763  30.457   7.119   1.864
60038W        W31764  41.035  22.455   1.818
60039W        W31765  20.282  43.749   2.938
60040W        W31766   8.581  13.703  14.283
60041W        W31767   1.478  23.383   2.198
60042W        W31768  19.135  40.565   1.181
60043W        W31769  13.435   7.158  11.528
60044W        W31770  10.118   7.424   1.006
60045W        W31771  39.836  21.062   4.244
60046W        W31772  29.773  11.761  11.587
60047W        W31773   9.938  19.381   0.173
60048W        W31774  29.285   0.374   2.392
60049W        W31775  25.054   5.653   1.807
60050W        W31776   1.772  39.549  13.224
60051W        W31777  28.588  21.650   2.028
60052W        W31778  12.715  13.723  10.806
60053W        W31779  17.949   5.515  14.450
60054W        W31780  39.332  23.618   3.161
60055W        W31781  27.588   0.944   4.584
60056W        W31782  26.766  35.765  11.114
60057W        W31783  11.256  36.018   5.323
60058W        W31784  37.126  36.957   3.847
60059W        W31785   9.545  41.241  12.669
60060W        W31786  28.610  28.331  12.539
60061W        W31787  26.947   0.770  14.879
60062W        W31788  35.173   3.399   3.084
60063W        W31789  35.579  21.385  13.272
60064W        W31790  39.947  44.331   3.652
60065W        W31791   1.992  19.158   4.382
60066W        W31792  39.304  35.874  14.982
60067W        W31793  43.950  31.314   4.913
60068W        W31794  22.709  15.361  12.980
60069W        W31795  28.732   3.766  13.311
60070W        W31796  22.995   6.787   3.605
60071W        W31797  14.117  34.354   2.254
60072W        W31798  16.314  25.568   1.738
60073W        W31799   7.313   3.180  11.228
60074W        W31800   2.779   8.229  13.799
60075W        W31801   1.215  18.476  13.492
60076W        W31802  38.422  13.675   4.595
60077W        W31803  42.972  10.722  11.579
60078W        W31804  38.812  27.562  11.095
60079W        W31805  17.029   9.680   2.330
60080W        W31806  27.433  22.242   2.303
60081W        W31807  37.471  17.794   0.298
60082W        W31808   8.568  39.423   0.578
60083W        W31809  36.095  41.865  13.624
60084W        W31810  27.636  32.444   2.282
60085W        W31811   3.881  27.625  11.604
60086W        W31812  22.028   8.754  10.562
60087W        W31813  44.429  20.992  14.035
60088W        W31814   2.346  25.951   1.177
60089W        W31815   4.140  10.273   1.189
60090W        W31816   0.901  24.802   4.366
60091W        W31817   6.638  17.382   3.599
60092W        W31818  29.013  32.850   0.507
60093W        W31819   3.842  21.880  11.838
60094W        W31820  24.735  32.157  13.410
60095W        W31821   6.257  35.798   1.802
60096W        W31822   3.498   9.877   1.631
60097W        W31823   5.008   6.100   0.354
60098W        W31824  43.397  38.715  12.552
60099W        W31825  14.274  37.932  11.506
60100W        W31826   5.423  16.973   0.039
60101W        W31827  25.498   5.396  11.431
60102W        W31828  24.832  20.236  12.511
60103W        W31829   8.540  39.979   4.085
60104W        W31830  24.647  21.052  10.103
60105W        W31831  13.855  17.553   1.712
60106W        W31832  33.401  30.690  13.880
60107W        W31833  24.866  44.547  10.664
60108W        W31834  41.070  14.161   3.152
60109W        W31835  41.352  14.909  11.332
60110W        W31836  41.589  14.819   2.875
60111W        W31837  37.518  21.164   1.377
60112W        W31838  25.697  16.781   2.965
60113W        W31839  18.844  26.381  12.945
60114W        W31840  19.268  14.772   1.373
60115W        W31841  25.440  35.531  14.513
60116W        W31842   8.910  36.942   2.205
60117W        W31843  23.189  42.060  14.499
60118W        W31844   7.465  18.609   1.641
60119W        W31845  14.407  25.476  10.693
60120W        W31846  36.127  28.205   3.868
60121W        W31847  32.050  25.936   4.141
60122W        W31848   1.682  40.825   4.719
60123W        W31849  16.090  18.296  13.898
60124W        W31850   4.924   4.044   2.368
60125W        W31851  44.790   3.988  12.937
60126W        W31852  14.603  20.660  11.459
60127W        W31853  41.536  12.620  11.770
60128W        W31854  25.485  20.267  12.029
60129W        W31855  14.186  20.511  13.803
60130W        W31856  12.315   4.170   3.570
60131W        W31857  41.471  29.966   3.574
60132W        W31858   2.215  29.186  14.410
60133W        W31859   5.356  42.914  13.742
60134W        W31860  32.106   7.338  12.967
60135W        W31861  24.685  21.198   0.355
60136W        W31862  22.165  17.631   4.536
60137W        W31863  12.264  22.082   1.492
60138W        W31864  21.764  11.648   3.591
60139W        W31865  39.064   1.284   3.503
60140W        W31866  21.058  10.290  14.606
60141W        W31867  17.632  28.551  10.718
60142W        W31868  14.852  10.745  11.567
60143W        W31869  42.447  44.211   2.430
60144W        W31870   2.931  11.654  11.701
60145W        W31871  11.411  30.414   0.326
60146W        W31872  25.197   6.175  13.189
60147W        W31873  15.060   9.520   0.180
60148W        W31874   5.217  38.172   3.270
60149W        W31875  29.464  17.610   4.489
60150W        W31876   3.201  43.585  13.628
60151W        W31877  35.499  42.392   3.041
60152W        W31878  12.338  17.201  12.644
60153W        W31879  39.611   1.863  11.137
60154W        W31880  36.468  29.809   2.112
60155W        W31881  11.896  10.258  11.516
60156W        W31882   5.940   5.503   4.969
60157W        W31883  21.592   6.849   4.484
60158W        W31884  17.602   5.857  11.655
60159W        W31885  28.241  39.772  14.453
60160W        W31886   6.872  12.036  12.910
60161W        W31887  43.997  27.698  10.773
60162W        W31888  31.011  32.514  13.292
60163W        W31889  31.413  43.829   5.380
60164W        W31890  43.311  20.629  13.501
60165W        W31891  11.806  28.459   1.365
60166W        W31892   7.762  24.416  12.366
60167W        W31893  12.017  36.787  14.910
60168W        W31894  16.829  10.413   0.981
60169W        W31895   4.688  36.976   0.023
60170W        W31896  33.894   2.922  12.490
60171W        W31897  13.141  34.609   0.740
60172W        W31898   5.182  41.246   0.902
60173W        W31899   2.037  28.191  13.587
60174W        W31900   6.450  15.193  10.931
60175W        W31901   1.969  17.108  14.104
60176W        W31902  35.647  21.526  10.751
60177W        W31903   6.519  30.255   4.276
60178W        W31904  17.720   7.418  12.983
60179W        W31905  12.901  23.051   0.627
60180W        W31906  22.013   2.621   4.851
60181W        W31907   7.937   3.391   0.752
60182W        W31908  21.132   1.288  10.748
60183W        W31909  44.302   9.009   1.340
60184W        W31910  36.860  17.496   1.275
60185W        W31911  30.199  23.974   0.901
60186W        W31912  39.478  10.597  14.961
60187W        W31913  22.297  40.889  13.321
60188W        W31914  18.847  23.233  14.098
60189W        W31915  27.688  16.811  10.750
60190W        W31916  32.838  15.827   3.133
60191W        W31917  29.259  34.900   1.343
60192W        W31918  39.035  36.417   3.738
60193W        W31919  21.260  11.655  14.731
60194W        W31920  32.003  22.892  10.214
60195W        W31921  40.450   5.929  10.539
60196W        W31922  25.845   7.422   3.720
60197W        W31923   0.779  37.636   1.523
60198W        W31924  33.920  11.214   1.693
60199W        W31925  19.264  32.043   9.928
60200W        W31926  34.921   2.908  11.637
60201W        W31927   2.886  11.154  13.004
60202W        W31928  28.684   1.939  10.636
60203W        W31929  43.881  39.943   0.353
60204W        W31930  37.898   1.529  13.906
60205W        W31931  30.203  17.103  13.026
60206W        W31932   5.024  14.258   3.171
60207W        W31933   8.403   5.201  10.242
60208W        W31934  40.018   4.272   1.284
60209W        W31935   0.900  16.758   0.508
60210W        W31936  41.303  30.569   4.267
60211W        W31937  19.785   0.474  12.809
60212W        W31938  25.583  39.758  12.160
60213W        W31939  43.785  44.283   0.735
60214W        W31940  44.812  22.279   4.097
60215W        W31941  10.655  32.891  14.356
60216W        W31942   1.808  42.422  14.521
60217W        W31943  41.045  11.855  12.628
60218W        W31944  37.748  29.386  14.497
60219W        W31945   0.444  38.115  14.602
60220W        W31946   0.833  43.074   1.720
60221W        W31947   3.979  24.013  12.774
60222W        W31948  35.340  35.962  13.114
60223W        W31949   1.726  14.292  11.981
60224W        W31950  34.965  15.856  10.200
60225W        W31951   1.953  28.192   3.222
60226W        W31952  25.498   6.983   4.628
60227W        W31953  10.885  38.374  13.340
60228W        W31954  44.395  33.569   0.797
60229W        W31955  26.621  33.459  12.013
60230W        W31956  40.327  16.480   0.019
60231W        W31957  27.375  16.491  11.692
60232W        W31958  34.381  40.887   0.982
60233W        W31959  42.184  19.557   3.491
60234W        W31960  30.088  24.603  10.658
60235W        W31961  21.022   8.236   3.310
60236W        W31962   5.926  28.447   2.667
60237W        W31963  26.314  42.110  12.135
60238W        W31964  15.027  34.490  12.576
60239W        W31965   7.420  30.726   0.612
60240W        W31966   7.880  27.728  10.768
60241W        W31967  31.109  20.300  11.593
60242W        W31968  43.726  28.902   0.774
60243W        W31969  20.257  27.054   2.006
60244W        W31970  29.864  19.128   3.499
60245W        W31971  16.707  16.484   0.367
60246W        W31972  41.278  13.155   3.380
60247W        W31973   8.774  11.273   2.305
60248W        W31974  25.424  17.424  13.031
60249W        W31975  42.803   2.943  10.925
60250W        W31976  40.020  34.283   2.710
60251W        W31977  35.322  19.190   3.798
60252W        W31978   1.722  16.311   1.261
60253W        W31979   4.837  20.118   1.164
60254W        W31980  21.277  31.835   4.599
60255W        W31981  20.622  26.942   4.692
60256W        W31982  35.941   0.261   1.771
60257W        W31983  41.746  30.356   3.340
60258W        W31984  28.049  14.597  10.333
60259W        W31985  27.916  19.936  11.052
60260W        W31986   3.101  43.749  14.560
60261W        W31987  11.909  34.951  10.638
60262W        W31988  35.423  23.566   0.913
60263W        W31989  23.664  33.056   3.615
60264W        W31990  12.383  10.033   0.581
60265W        W31991  30.999   2.877   2.593
60266W        W31992   2.286  39.366   1.054
60267W        W31993  10.188  42.417   0.950
60268W        W31994  27.561  26.660   3.260
60269W        W31995   2.791  36.445  14.834
60270W        W31996  26.025  21.057   1.681
60271W        W31997  36.934  28.014   0.707
60272W        W31998  15.167  34.489  12.080
60273W        W31999   1.947  28.846  12.022
60274W        W32000   3.861  44.863  10.667
60275W        W32001  12.794   3.964   0.402
60276W        W32002  16.822  29.895   2.732
60277W        W32003  28.876  31.832   4.644
60278W        W32004  38.555  40.817  14.432
60279W        W32005  25.662  37.639  12.902
60280W        W32006  29.932  39.978   0.118
60281W        W32007  37.614  44.505   2.342
60282W        W32008  42.749  15.532  12.952
60283W        W32009  10.908   2.566   2.662
60284W        W32010  19.228  44.007   2.207
60285W        W32011   7.275  34.597   3.317
60286W        W32012   8.144  38.078   0.377
60287W        W32013  30.437  31.491  10.647
60288W        W32014  28.608  39.078  12.034
60289W        W32015  34.335   6.197  14.513
60290W        W32016  38.823  10.056  14.461
60291W        W32017  41.089  19.233  13.336
60292W        W32018  22.295   5.959  12.516
60293W        W32019  44.863   7.890  11.689
60294W        W32020  13.226   8.209  11.728
60295W        W32021  36.126  43.905   4.789
60296W        W32022  36.557  40.715  10.703
60297W        W32023  19.132  16.823   3.866
60298W        W32024  41.916  27.702  10.485
60299W        W32025   9.788  25.534  12.463
60300W        W32026   9.149  26.646   3.164
60301W        W32027  19.831   6.110  14.346
60302W        W32028  22.673  41.735  10.774
60303W        W32029  28.432  18.809  10.632
60304W        W32030  37.339  28.001   3.573
60305W        W32031  43.852   3.543  12.595
60306W        W32032  13.753  39.377  12.509
60307W        W32033   8.385  42.510   2.263
60308W        W32034  40.265  38.998   0.246
60309W        W32035  18.580   3.755   1.914
60310W        W32036  18.661  32.507   4.836
60311W        W32037  18.583  40.004   2.368
60312W        W32038  22.648  29.026  14.446
60313W        W32039  20.931  23.499   4.577
60314W        W32040  10.161  42.894  14.759
60315W        W32041  42.726  13.703   2.655
60316W        W32042  17.357  35.167  11.731
60317W        W32043   6.863  18.582  14.970
60318W        W32044  19.993  27.508   2.805
60319W        W32045  44.869  13.619  11.548
60320W        W32046  43.892  15.092   0.356
60321W        W32047  39.927  38.119   3.299
60322W        W32048  37.419  39.877  12.812
60323W        W32049   5.508  38.446  11.106
60324W        W32050   3.290   1.124   1.918
60325W        W32051  18.707  28.633   1.406
60326W        W32052  31.970  14.688  12.997
60327W        W32053  41.579   8.735  13.056
60328W        W32054   8.994  23.236   5.131
60329W        W32055  18.508  42.437   2.408
60330W        W32056  23.124  36.350  12.875
60331W        W32057  36.424   5.733   4.357
60332W        W32058  22.720  30.854   3.719
60333W        W32059   6.898  40.178  10.999
60334W        W32060  20.273  20.696   0.892
60335W        W32061  30.968  41.526   4.833
60336W        W32062  14.131  16.108  11.569
60337W        W32063   9.891   8.778   0.896
60338W        W32064  44.603  44.883   0.343
60339W        W32065   3.231  37.358  11.875
60340W        W32066  10.507  40.000  13.433
60341W        W32067  17.972   2.875  13.398
60342W        W32068  34.409  31.915   2.722
60343W        W32069  11.536  44.246   4.659
60344W        W32070   4.091   1.338   0.870
60345W        W32071  31.887   1.736  14.399
60346W        W32072  11.617  15.655  14.136
60347W        W32073  42.797  42.793   2.270
60348W        W32074  19.626  12.247  11.978
60349W        W32075  30.934  21.051  14.436
60350W        W32076   0.456  30.567   0.406
60351W        W32077   9.255  26.068   0.367
60352W        W32078  18.158  36.969   4.373
60353W        W32079  29.031  36.605   3.493
60354W        W32080   5.683  28.896   1.340
60355W        W32081   7.134  44.003  13.430
60356W        W32082  41.081  19.792  12.604
60357W        W32083  30.487  10.188   3.540
60358W        W32084  23.865  19.277  14.386
60359W        W32085  16.670   4.777  12.607
60360W        W32086  17.777   3.432   2.445
60361W        W32087  22.633  15.607  13.437
60362W        W32088   9.175  29.653  12.453
60363W        W32089  43.352  17.093   1.516
60364W        W32090   2.551  12.019   2.615
60365W        W32091   8.464  38.366   2.084
60366W        W32092  30.077  15.954  14.502
60367W        W32093  18.772   2.688   4.292
60368W        W32094  37.483  26.094   1.510
60369W        W32095  31.768  18.310   2.375
60370W        W32096  26.027   0.924   3.852
60371W        W32097  23.207   3.442  11.059
60372W        W32098  42.268  39.253   2.289
60373W        W32099  39.730  22.462  14.688
60374W        W32100  32.655  21.742   4.256
60375W        W32101  36.414   7.830  11.805
60376W        W32102  28.721  26.577  13.860
60377W        W32103  23.378  16.018  12.894
60378W        W32104   5.341  20.139   0.975
60379W        W32105  38.249  41.225  12.054
60380W        W32106  29.435  30.924   3.166
60381W        W32107  27.217  22.531   4.000
60382W        W32108   8.852  21.357  14.896
60383W        W32109  10.838   6.640  11.632
60384W        W32110  29.584  13.382   0.363
60385W        W32111  30.190  11.545   4.155
60386W        W32112  37.539  17.032   0.845
60387W        W32113  37.495   1.510  11.992
60388W        W32114  18.221  25.273   1.268
60389W        W32115   3.887   9.688   0.278
60390W        W32116  20.552  20.081  11.583
60391W        W32117  14.616  14.513  13.507
60392W        W32118  21.289  22.242  13.327
60393W        W32119  20.181   8.882  13.569
60394W        W32120   4.808  24.302  13.833
60395W        W32121  44.890  16.260   0.616
60396W        W32122  27.380  10.273  12.944
60397W        W32123  37.089  26.497   1.607
60398W        W32124  11.240  39.325   4.133
60399W        W32125   4.212  22.464   4.938
60400W        W32126  30.598  19.654  11.770
60401W        W32127   3.029  11.192   2.239
60402W        W32128  32.863  10.878   1.422
60403W        W32129   3.473  20.164   4.880
60404W        W32130  42.899  39.121  11.282
60405W        W32131  42.778   9.813  13.801
60406W        W32132  29.573  42.796  12.415
60407W        W32133   6.828  39.980   3.349
60408W        W32134  40.368  22.464   1.304
60409W        W32135  40.540  34.936  12.316
60410W        W32136  13.244   8.371  14.945
60411W        W32137  26.074  36.847  11.450
60412W        W32138  14.276  14.772  10.746
60413W        W32139  43.799  10.293   0.517
60414W        W32140  30.188  14.283   1.325
60415W        W32141  41.854  36.852   0.356
60416W        W32142   1.514  18.515   4.772
60417W        W32143  23.672  13.253  13.101
60418W        W32144  15.009  24.790  12.836
60419W        W32145  29.877   7.194   0.325
60420W        W32146  10.770   9.652   1.475
60421W        W32147  18.864  39.931   0.684
60422W        W32148  24.128  19.412   4.582
60423W        W32149  44.729  34.927  10.786
60424W        W32150  20.010  42.657   1.235
60425W        W32151   4.245  33.771   4.698
60426W        W32152  28.431  26.883   1.673
60427W        W32153  38.909  17.601  12.422
60428W        W32154  42.746  41.141   1.781
60429W        W32155  40.424  35.371  10.663
60430W        W32156  12.258  28.514   1.668
60431W        W32157  39.535   2.250  11.488
60432W        W32158  27.317   4.775  12.620
60433W        W32159  18.471  13.908  14.914
60434W        W32160  20.689  13.096   2.666
60435W        W32161   8.674  35.580   2.810
60436W        W32162  40.461  41.556   2.442
60437W        W32163  27.217   4.523   2.169
60438W        W32164  29.447  19.090  10.716
60439W        W32165   3.858  26.288   2.175
60440W        W32166  18.773  26.278  13.452
60441W        W32167  16.377   3.991  11.230
60442W        W32168  18.133  43.750  13.451
60443W        W32169   8.479  35.620  14.569
60444W        W32170  41.538  42.006   0.744
60445W        W32171  42.697  43.015   0.332
60446W        W32172  18.719  43.340   0.966
60447W        W32173   5.019  42.359   2.344
60448W        W32174  44.095  44.726  14.034
60449W        W32175   7.480  39.984   4.118
60450W        W32176  28.176   6.038   0.821
60451W        W32177  44.048  42.270  14.965
60452W        W32178  20.244  29.580   0.271
60453W        W32179  13.867  19.346  14.069
60454W        W32180  23.841  22.574  12.031
60455W        W32181   0.017  25.964  10.982
60456W        W32182   0.328  42.393  14.294
60457W        W32183  36.020   9.134   0.782
60458W        W32184  18.675   8.818  11.251
60459W        W32185  23.315  13.662  12.313
60460W        W32186  40.334   4.856  10.129
60461W        W32187  25.777  37.539  14.791
60462W        W32188   8.926  16.561   3.836
60463W        W32189   4.920  32.338   4.189
60464W        W32190   3.785  22.407  14.413
60465W        W32191  25.461  15.222   0.363
60466W        W32192   4.455   1.924   3.167
60467W        W32193  38.241  28.976   3.607
60468W        W32194   4.327  43.308   1.472
60469W        W32195   7.264  38.379   2.229
60470W        W32196  28.949  28.014   1.764
60471W        W32197  10.161  17.696  12.676
60472W        W32198  42.390  44.936   4.279
60473W        W32199  20.224  33.437  11.540
60474W        W32200  43.976  42.987  12.987
60475W        W32201  37.137  22.741   0.339
60476W        W32202  15.743   1.943  11.484
60477W        W32203   2.674  16.973   0.491
60478W        W32204   6.256   1.496   3.174
60479W        W32205  36.375  10.323  11.668
60480W        W32206  42.827   2.853   1.922
60481W        W32207  10.119  12.680   0.383
60482W        W32208   7.629   3.807  12.531
60483W        W32209  25.630  34.604  10.505
60484W        W32210  12.868  36.117   4.841
60485W        W32211  20.514  32.105   2.382
60486W        W32212  14.040  19.186  11.596
60487W        W32213  16.766  27.613  11.389
60488W        W32214  22.140  29.994  12.178
60489W        W32215  40.488  17.469  12.438
60490W        W32216   5.540  30.175  11.137
60491W        W32217  11.778  26.539   4.616
60492W        W32218  32.893  19.269   3.746
60493W        W32219  29.992  42.859   0.986
60494W        W32220  10.759  16.248   1.899
60495W        W32221  24.110   2.818   4.669
60496W        W32222  22.985  39.740  13.149
60497W        W32223  19.738   4.266   4.504
60498W        W32224  42.437  39.320  12.308
60499W        W32225  39.978  36.503   0.087
60500W        W32226  13.110   0.864   2.904
60501W        W32227  40.854  26.099  14.307
60502W        W32228   1.921  19.380  13.574
60503W        W32229  29.157  34.579   0.716
60504W        W32230  43.184  11.434  13.582
60505W        W32231  23.583  35.933  13.329
60506W        W32232  24.135  14.988   3.756
60507W        W32233  28.007  28.891   4.662
60508W        W32234  40.328   6.342  14.488
60509W        W32235  12.821  38.560  12.031
60510W        W32236   3.638  31.339   2.862
60511W        W32237  33.329  28.010  14.686
60512W        W32238  26.079  33.238   2.155
60513W        W32239  12.761  23.501  12.517
60514W        W32240  25.196  31.876  11.116
60515W        W32241   5.964   0.227  14.916
60516W        W32242   7.265  43.518  11.561
60517W        W32243  33.144  18.775  11.598
60518W        W32244   3.025   7.539  14.320
60519W        W32245  32.434  38.347  11.511
60520W        W32246  10.625  39.090  11.394
60521W        W32247  37.012  11.651   0.367
60522W        W32248  19.025  15.662   2.663
60523W        W32249  29.492  13.639   1.275
60524W        W32250   4.683  29.179  11.660
60525W        W32251  10.811  38.919  11.834
60526W        W32252   6.346  17.631  13.579
60527W        W32253  13.407   5.927   2.857
60528W        W32254   2.514  34.322   3.793
60529W        W32255  26.532  37.336  13.294
60530W        W32256  21.430  22.081   0.963
60531W        W32257   8.437  30.513  13.846
60532W        W32258  16.615  12.866   4.720
60533W        W32259  21.166  26.283  13.072
60534W        W32260  39.385  30.913   0.288
60535W        W32261  26.616   8.395  12.337
60536W        W32262  27.937   8.336  10.526
60537W        W32263  29.230  41.875  14.906
60538W        W32264  20.870  32.424   2.566
60539W        W32265  44.572  25.168  14.415
60540W        W32266   6.971   6.269  12.000
60541W        W32267  29.781   9.867  12.475
60542W        W32268   0.232   7.311   3.428
60543W        W32269  26.032  30.345  11.100
60544W        W32270  24.509  21.822  11.306
60545W        W32271  42.596  21.809  13.016
60546W        W32272   9.558  37.521   4.582
60547W        W32273  26.119  24.262  11.428
60548W        W32274  32.371  12.749   2.275
60549W        W32275  21.571   3.979  10.510
60550W        W32276  13.686  27.682   0.900
60551W        W32277   4.073   3.608   2.772
60552W        W32278  35.999  43.522  13.996
60553W        W32279  38.486  43.838   2.505
60554W        W32280  36.879  29.150   0.352
60555W        W32281  18.543  26.348   3.244
60556W        W32282   9.227  41.818   5.066
60557W        W32283   7.364  38.994   1.005
60558W        W32284   5.956  15.152  12.605
60559W        W32285  44.885  27.399   4.122
60560W        W32286  32.061   0.349   3.613
60561W        W32287  41.900  42.536  11.535
60562W        W32288  13.173  44.062   0.875
60563W        W32289  25.730  12.224   2.256
60564W        W32290   1.936  19.973  10.747
60565W        W32291  19.634  44.504  12.547
60566W        W32292  16.719  40.797   3.032
60567W        W32293  30.436  44.337  11.459
60568W        W32294  37.010  19.528  11.466
60569W        W32295  29.056  39.471  10.640
60570W        W32296  19.510  40.470   3.174
60571W        W32297  41.841  13.950   2.192
60572W        W32298  23.563  12.380  13.097
60573W        W32299  43.541  20.452   3.174
60574W        W32300  28.001  12.373   2.122
60575W        W32301  18.059  22.261  11.514
60576W        W32302  17.685  30.616  14.993
60577W        W32303  15.686  31.127  12.441
60578W        W32304  29.219  25.677   1.443
60579W        W32305  19.751  42.093  12.832
60580W        W32306  44.947  40.440  11.925
60581W        W32307  35.012  18.566   0.202
60582W        W32308  35.408   2.430  11.999
60583W        W32309  20.550  13.248   4.495
60584W        W32310   2.454  42.840  11.856
60585W        W32311   8.723  14.240   2.278
60586W        W32312  40.986  16.791   2.204
60587W        W32313  22.266  14.708   2.644
60588W        W32314   1.954  25.933   0.833
60589W        W32315  38.383  11.985   4.794
60590W        W32316  38.464  36.817   2.405
60591W        W32317  13.833  30.922  14.118
60592W        W32318  23.405   4.345  11.904
60593W        W32319  33.195   8.791   0.418
60594W        W32320  17.582  17.188  13.895
60595W        W32321  43.274  12.161  12.075
60596W        W32322   7.430  16.607  14.162
60597W        W32323  29.742  22.548  10.836
60598W        W32324  32.008  23.058   1.746
60599W        W32325  40.246   9.407   0.969
60600W        W32326  38.106  34.075   4.593
60601W        W32327  25.451  15.337   3.331
60602W        W32328   7.748   3.787   3.876
60603W        W32329  23.657  44.254  14.419
60604W        W32330   4.329  40.494   2.362
60605W        W32331   8.236  22.318  10.507
60606W        W32332  38.693  18.100  13.504
60607W        W32333  23.567  24.198  11.959
60608W        W32334   4.785  26.727   0.914
60609W        W32335  35.086  39.706  12.068
60610W        W32336   2.701  31.500  14.445
60611W        W32337  33.586  22.977  14.269
60612W        W32338  16.636  10.327   4.682
60613W        W32339  38.420  14.650  13.129
60614W        W32340  30.869   3.268   2.906
60615W        W32341  27.198   0.982  13.713
60616W        W32342  10.742  26.255   4.968
60617W        W32343  33.578  15.310   0.004
60618W        W32344  31.819  42.504  10.907
60619W        W32345   8.627   4.797  12.854
60620W        W32346  16.299  18.709   0.811
60621W        W32347  30.238  15.843   4.818
60622W        W32348   1.779  20.748  11.231
60623W        W32349   2.752   3.922   1.340
60624W        W32350  26.207  27.194   1.637
60625W        W32351  41.940  17.604   1.580
60626W        W32352  28.968  16.210   0.215
60627W        W32353  26.850  32.431  12.934
60628W        W32354  38.337  15.796  13.404
60629W        W32355  34.478  43.493  12.460
60630W        W32356  32.462   6.262  12.484
60631W        W32357  36.302  23.594   4.844
60632W        W32358   8.356  11.270  13.059
60633W        W32359   3.859  40.377  13.601
60634W        W32360  22.165  17.946   0.759
60635W        W32361   2.263  11.127  10.738
60636W        W32362  19.373  34.569  10.600
60637W        W32363  41.061  20.200   0.820
60638W        W32364  33.161  18.746   0.090
60639W        W32365  41.030   4.969   1.186
60640W        W32366   4.910   7.704   1.383
60641W        W32367   7.765   6.232  12.438
60642W        W32368  36.571  37.045  13.884
60643W        W32369   5.206   1.458   3.179
60644W        W32370  44.076  22.070   1.368
60645W        W32371  29.184  32.489  13.263
60646W        W32372  41.672  14.369   1.371
60647W        W32373  37.034  29.134   2.666
60648W        W32374  23.575  29.633  10.999
60649W        W32375  28.177  32.809  11.529
60650W        W32376  18.749  15.782   1.378
60651W        W32377  32.675  12.078  12.660
60652W        W32378  33.436   5.950   2.178
60653W        W32379  15.599  43.193   0.292
60654W        W32380  37.142  22.122   0.954
60655W        W32381  31.969  36.119   0.421
60656W        W32382  31.911   9.889   3.331
60657W        W32383  31.088  13.217   0.652
60658W        W32384  10.278  28.078  10.762
60659W        W32385   3.308  34.068   4.683
60660W        W32386  10.126  22.128   1.343
60661W        W32387  40.582  22.274   0.300
60662W        W32388  25.888  11.163  10.751
60663W        W32389  39.559  39.350   2.794
60664W        W32390  12.418   1.245  12.196
60665W        W32391  38.912  12.859  11.169
60666W        W32392  13.133  25.413  12.920
60667W        W32393  19.043  34.794  13.018
60668W        W32394  10.184  42.743  12.820
60669W        W32395   2.961   4.149  13.761
60670W        W32396  33.799   5.591  14.983
60671W        W32397  19.022  36.616   2.323
60672W        W32398  33.467  35.387   0.363
60673W        W32399   4.705  16.606  13.885
60674W        W32400  11.379  27.297   0.853
60675W        W32401  17.759   1.083  14.069
60676W        W32402  38.918  38.622   3.290
60677W        W32403  27.544  25.125  14.764
60678W        W32404  10.229  26.920  12.525
60679W        W32405  25.495   9.938  11.230
60680W        W32406  28.581  21.191  14.341
60681W        W32407  36.360  21.767   1.169
60682W        W32408  30.232  43.883  11.543
60683W        W32409  42.749  39.939  11.577
60684W        W32410   5.768  43.608  13.532
60685W        W32411  36.346   2.752   1.459
60686W        W32412  29.418  36.941  13.776
60687W        W32413  26.298   1.347   2.170
60688W        W32414   2.874   7.052  11.011
60689W        W32415   8.092  15.205   1.770
60690W        W32416  12.885  40.327   0.866
60691W        W32417  32.849   0.941   3.743
60692W        W32418  14.263  21.921  12.143
60693W        W32419   0.792  19.239  13.814
60694W        W32420  12.910  31.585  14.476
60695W        W32421  18.024  22.331  13.799
60696W        W32422   9.079  10.655   0.356
60697W        W32423  17.667   4.757  10.703
60698W        W32424  28.515  14.231   1.891
60699W        W32425   6.647  16.945   4.539
60700W        W32426  27.090   0.935   0.857
60701W        W32427   3.464  43.435   4.045
60702W        W32428  22.769  40.396   4.688
60703W        W32429  37.796  12.179  11.333
60704W        W32430  42.234  11.120  11.560
60705W        W32431   9.469  36.812   9.708
60706W        W32432  25.720  15.890  13.219
60707W        W32433   3.641  22.734   1.846
60708W        W32434   9.743  43.316   0.828
60709W        W32435  31.333   5.919  10.938
60710W        W32436  27.025   4.916  12.000
60711W        W32437  24.901  17.711  11.612
60712W        W32438   1.899  38.583  13.614
60713W        W32439  15.684  32.565  12.851
60714W        W32440  32.087  24.640   2.746
60715W        W32441  34.476  33.951   1.248
60716W        W32442  18.116  12.891  11.655
60717W        W32443  15.137  37.775   4.583
60718W        W32444   5.588   1.854   0.925
60719W        W32445  21.597  15.961  13.482
60720W        W32446  10.833  10.160  11.630
60721W        W32447  23.428  11.829   4.562
60722W        W32448  29.328  33.709   3.868
60723W        W32449   9.365  40.944   1.622
60724W        W32450   4.398  18.668   2.656
60725W        W32451  37.096  27.715  13.031
60726W        W32452  35.018  19.864  14.098
60727W        W32453  38.019  39.531  11.936
60728W        W32454   9.476   0.435   2.848
60729W        W32455  26.957   3.756   2.808
60730W        W32456  38.357  20.082  12.332
60731W        W32457   0.796  37.360  14.518
60732W        W32458  39.863  14.863   3.640
60733W        W32459  19.651   4.280  13.445
60734W        W32460  41.964  41.515   3.586
60735W        W32461  34.035  33.161  13.864
60736W        W32462  27.386  43.733   4.063
60737W        W32463  19.101   0.263   0.864
60738W        W32464  44.879   8.624  13.950
60739W        W32465  29.747  26.727   2.649
60740W        W32466  28.540  17.033  11.122
60741W        W32467  20.305   5.302   1.972
60742W        W32468  42.340  11.338   1.411
60743W        W32469   7.776   7.099   4.581
60744W        W32470  10.646  36.360   1.344
60745W        W32471  38.774  19.646   3.594
60746W        W32472  20.207   3.739  12.488
60747W        W32473  25.170  23.666  11.503
60748W        W32474  24.964  11.946  10.671
60749W        W32475  39.901   7.145  13.446
60750W        W32476  17.632   5.643  14.019
60751W        W32477   9.585  14.277  14.930
60752W        W32478  44.813   5.079   1.824
60753W        W32479  22.156  26.578   0.876
60754W        W32480   9.895  20.117   1.274
60755W        W32481  31.663  31.935  11.608
60756W        W32482  20.988  38.916  11.072
60757W        W32483   9.687   9.180   3.297
60758W        W32484  35.556  22.335  13.014
60759W        W32485  24.546  26.080  12.689
60760W        W32486  20.174  29.458   2.819
60761W        W32487   2.449  21.167   2.698
60762W        W32488  40.582  10.283  11.587
60763W        W32489  38.829  19.634   2.571
60764W        W32490  35.120  15.481   1.221
60765W        W32491  40.664  14.198   1.310
60766W        W32492  40.394  35.954  14.743
60767W        W32493   4.488  10.877  12.651
60768W        W32494  22.557  10.597   4.149
60769W        W32495  40.377  40.292   0.943
60770W        W32496  26.745   2.257  12.051
60771W        W32497  14.313  23.129   3.098
60772W        W32498  13.181  25.488   0.048
60773W        W32499   7.143  25.595  12.003
60774W        W32500  11.809  10.810  12.456
60775W        W32501  16.550  34.800  12.279
60776W        W32502  25.598   8.884   5.024
60777W        W32503   8.763  28.550  10.446
60778W        W32504  17.972  38.804  10.621
60779W        W32505  35.515  33.623  14.377
60780W        W32506  39.310  32.355  12.199
60781W        W32507  31.210  44.637   5.576
60782W        W32508   6.111   6.301  13.586
60783W        W32509   6.182  11.492   2.403
60784W        W32510  34.529   5.378   0.474
60785W        W32511   2.455  12.752   2.789
60786W        W32512   9.678  29.923  10.863
60787W        W32513  20.221  14.622   0.923
60788W        W32514  24.776   5.338  10.699
60789W        W32515  40.440  30.435   0.440
60790W        W32516  43.106  27.658   2.269
60791W        W32517  42.078  10.474   1.914
60792W        W32518  25.570  39.483   1.725
60793W        W32519  39.076   6.354   1.789
60794W        W32520  36.015   2.924   4.679
60795W        W32521  33.938  29.896  12.555
60796W        W32522  15.095   6.579  13.968
60797W        W32523   9.726  44.306  13.737
60798W        W32524  26.632   0.199   2.195
60799W        W32525  42.500  19.127   3.455
60800W        W32526  43.800  24.034  12.552
60801W        W32527  34.476  12.832  14.000
60802W        W32528  37.347  38.796   3.243
60803W        W32529   0.101   7.381   1.792
60804W        W32530   2.919  21.682  12.972
60805W        W32531  16.289  38.298  12.478
60806W        W32532  34.561  33.570  14.375
60807W        W32533   5.933   2.527  13.405
60808W        W32534   2.439  37.879   4.591
60809W        W32535  29.876  10.073  12.034
60810W        W32536  42.986  30.916  14.501
60811W        W32537   3.898  41.243  14.778
60812W        W32538   4.350  22.660  13.709
60813W        W32539  13.772   7.877   0.449
60814W        W32540   1.509  16.277   4.909
60815W        W32541  12.920   7.587  10.899
60816W        W32542  34.516  37.626  11.945
60817W        W32543  26.793   1.682  14.306
60818W        W32544  42.971  42.205  12.477
60819W        W32545  21.947   8.222   3.261
60820W        W32546  27.920  13.687  14.755
60821W        W32547  18.756  10.662   0.859
60822W        W32548  30.127  15.706   1.469
60823W        W32549  12.441  30.760  12.021
60824W        W32550  40.602  41.479   3.683
60825W        W32551  37.243  10.837   2.311
60826W        W32552  36.504  19.261  10.723
60827W        W32553  14.226  22.756  10.437
60828W        W32554  36.675   8.174  11.348
60829W        W32555   5.237  23.050   3.239
60830W        W32556   5.690  27.699  13.829
60831W        W32557  14.728   0.979   1.708
60832W        W32558  29.936   7.318   3.709
60833W        W32559  14.665  18.368  11.505
60834W        W32560  13.679  42.552  11.620
60835W        W32561  16.102  40.859  13.540
60836W        W32562  29.028  31.897   2.865
60837W        W32563   4.192  15.214   3.830
60838W        W32564  39.717  19.280   2.923
60839W        W32565  27.667  19.240   4.654
60840W        W32566  36.372   1.464  12.045
60841W        W32567  25.057  14.434  14.934
60842W        W32568  21.569  35.008   4.640
60843W        W32569  37.554  44.892  12.316
60844W        W32570  27.700  32.985  10.149
60845W        W32571   0.491  39.465   1.853
60846W        W32572  28.616  38.431   4.522
60847W        W32573   9.827  19.254  12.676
60848W        W32574  28.515   4.916   0.276
60849W        W32575  24.935  34.134  14.518
60850W        W32576  19.641  34.375   4.639
60851W        W32577  34.521  40.425  11.420
60852W        W32578  33.862  18.037  14.007
60853W        W32579   7.909   2.021   0.772
60854W        W32580  35.577  27.394   0.010
60855W        W32581  36.549  26.893  13.937
60856W        W32582  21.462   3.781   0.247
60857W        W32583  40.997  15.189   3.284
60858W        W32584  39.000   5.400   0.051
60859W        W32585  14.677  17.139   3.914
60860W        W32586   4.266  27.438   4.591
60861W        W32587  15.388   7.282   4.947
60862W        W32588  24.039  13.869  13.846
60863W        W32589  11.824  34.210   2.697
60864W        W32590  33.345   4.236   1.351
60865W        W32591  10.872   4.920   1.932
60866W        W32592  20.090  20.023   2.858
60867W        W32593   0.802  30.005  11.547
60868W        W32594   4.425  23.203  14.523
60869W        W32595   9.281   7.794  10.540
60870W        W32596   8.726  29.089  13.830
60871W        W32597  18.293  26.919  12.097
60872W        W32598  29.973  41.795   1.480
60873W        W32599  25.754  39.155   2.633
60874W        W32600  33.682   5.436  13.392
60875W        W32601  15.469  18.264   3.272
60876W        W32602   9.482  22.956  13.573
60877W        W32603  28.568  26.637   3.125
60878W        W32604  38.916  43.960   4.425
60879W        W32605  17.133   3.664  14.774
60880W        W32606  24.941  19.073   1.825
60881W        W32607   7.397  36.341   4.071
60882W        W32608  18.291   7.270  13.348
60883W        W32609   3.382  38.443  12.540
60884W        W32610  14.226  33.826   4.268
60885W        W32611  15.732  13.305   1.810
60886W        W32612  36.592  34.443   2.152
60887W        W32613  11.796   8.816  13.020
60888W        W32614  39.756  34.478   3.546
60889W        W32615  32.950  14.137   2.787
60890W        W32616  11.819  37.014   3.357
60891W        W32617  40.848  35.229   2.218
60892W        W32618  28.665   3.808   1.867
60893W        W32619   4.622  12.121   4.121
60894W        W32620  32.090  34.310   2.323
60895W        W32621   9.692  42.823  13.994
60896W        W32622  25.689   6.844  14.475
60897W        W32623  33.136   8.168  10.467
60898W        W32624   9.859  29.059   4.600
60899W        W32625  21.058  28.997   1.226
60900W        W32626  31.979  27.658  12.449
60901W        W32627  31.538  21.468  14.385
60902W        W32628  37.295  14.097   1.442
60903W        W32629  24.981  11.445  10.535
60904W        W32630  17.450   4.320   2.202
60905W        W32631   9.993  20.320   3.795
60906W        W32632  11.545  16.066  14.511
60907W        W32633  43.883  10.125  12.500
60908W        W32634  38.200  33.343  10.549
60909W        W32635  13.307  26.912  12.465
60910W        W32636  20.590   7.847   2.170
60911W        W32637   0.928   4.345  12.378
60912W        W32638   9.352  27.248   4.618
60913W        W32639  23.333  26.207   3.632
60914W        W32640  35.139  32.655   1.234
60915W        W32641  34.449  39.912   1.861
60916W        W32642  44.958  21.569  11.543
60917W        W32643  13.775  22.694   1.338
60918W        W32644  23.950   9.844  10.656
60919W        W32645  43.296  29.970   2.351
60920W        W32646  32.094  43.723  10.241
60921W        W32647  10.944  42.841  11.480
60922W        W32648  36.568  11.298   1.183
60923W        W32649  22.289  40.520  14.166
60924W        W32650  42.515   2.380   1.435
60925W        W32651  25.759  34.820   0.268
60926W        W32652   5.728  22.267   0.312
60927W        W32653  26.179  10.104  14.414
60928W        W32654   9.103   8.126  11.067
60929W        W32655  13.158  43.163  11.752
60930W        W32656   6.843   7.163  11.473
60931W        W32657  34.658  20.608   0.068
60932W        W32658   4.784  16.675   2.317
60933W        W32659  11.930   0.090  10.343
60934W        W32660  36.502   0.970  13.321
60935W        W32661  20.024  17.709   0.876
60936W        W32662  33.543  22.489  14.094
60937W        W32663  23.253  24.604   2.018
60938W        W32664  31.318  44.782   1.194
60939W        W32665  29.510  27.572   4.591
60940W        W32666  18.310   7.969   2.501
60941W        W32667  34.342  28.159  12.441
60942W        W32668  31.625  13.243  12.558
60943W        W32669  21.052  40.381  14.597
60944W        W32670  40.717   5.699  12.890
60945W        W32671   6.326   2.288  12.655
60946W        W32672   6.898  43.723   2.230
60947W        W32673   1.761   5.185  11.439
60948W        W32674  42.290  26.950   4.671
60949W        W32675  19.607  24.194   4.299
60950W        W32676  36.804  28.174   2.347
60951W        W32677  33.969  25.513  13.400
60952W        W32678  11.916  35.565   1.427
60953W        W32679  43.716   2.764   0.788
60954W        W32680  42.258  31.886   3.786
60955W        W32681   3.868   4.020  12.186
60956W        W32682  39.255  33.474  13.475
60957W        W32683  12.672  41.264   1.913
60958W        W32684  43.833  44.919  12.988
60959W        W32685  16.320  23.141   4.548
60960W        W32686  33.116  12.662   4.257
60961W        W32687  34.978  31.486  10.725
60962W        W32688  20.208  32.968  11.706
60963W        W32689  26.125  40.355   4.769
60964W        W32690   1.813  41.532   3.153
60965W        W32691  19.734   9.781   3.506
60966W        W32692  41.791  34.530  12.563
60967W        W32693  30.486  15.301   1.276
60968W        W32694  36.814  15.654   4.128
60969W        W32695  40.432  29.427  14.401
60970W        W32696  31.260   1.902  11.220
60971W        W32697   3.745  16.685  12.542
60972W        W32698  31.678  36.133  10.696
60973W        W32699   5.313  20.507  12.977
60974W        W32700  37.840  20.571   1.855
60975W        W32701   7.643  42.865   2.723
60976W        W32702   8.797  40.860  10.648
60977W        W32703  19.054  29.275  10.663
60978W        W32704  21.701  43.070   2.285
60979W        W32705  17.263  25.863  11.948
60980W        W32706  35.947  24.526  11.457
60981W        W32707  42.974  38.281   0.420
60982W        W32708   5.800  44.804   1.889
60983W        W32709  30.788  23.520  11.049
60984W        W32710   2.537   7.223  12.183
60985W        W32711   3.655  32.215  12.934
60986W        W32712  35.511  17.725   2.318
60987W        W32713  17.738   2.810  12.884
60988W        W32714  10.890  24.698  12.277
60989W        W32715  32.576  25.062   0.338
60990W        W32716  24.996   9.860   0.464
60991W        W32717   9.984  44.715  12.060
60992W        W32718  20.508  24.180  13.293
60993W        W32719  35.307  38.996   0.994
60994W        W32720  22.762  29.851  13.973
60995W        W32721  31.557   8.929   4.324
60996W        W32722  25.775   2.275   1.800
60997W        W32723  41.388  26.211   1.395
60998W        W32724   7.263  38.868   4.664
60999W        W32725  23.610  35.373  14.473
61000W        W32726  39.806  24.709   0.720
61001W        W32727  27.009  42.268   0.956
61002W        W32728  28.441  28.949   3.421
61003W        W32729  20.734  43.801   1.007
61004W        W32730  25.599   5.528  14.835
61005W        W32731  19.333  23.340   0.405
61006W        W32732  40.373  20.527   3.779
61007W        W32733   6.688  19.653  10.594
61008W        W32734   7.126  38.288  12.728
61009W        W32735  41.231  37.375   4.993
61010W        W32736  39.759   0.664   2.139
61011W        W32737  39.354  42.893   2.017
61012W        W32738  14.831   3.931  10.531
61013W        W32739  38.377  18.706   2.693
61014W        W32740  29.895   8.765  11.350
61015W        W32741  17.716   2.267  12.526
61016W        W32742  13.225  43.527  11.397
61017W        W32743  20.712   0.647   1.812
61018W        W32744  30.562  42.467  11.498
61019W        W32745   2.975   8.341  11.567
61020W        W32746  14.880  17.715  11.350
61021W        W32747  26.199  19.779   4.574
61022W        W32748  12.238   9.372   4.542
61023W        W32749  44.795  31.627  14.814
61024W        W32750   7.940  12.881   2.452
61025W        W32751  10.887  10.822  10.947
61026W        W32752  27.010   9.722  10.722
61027W        W32753   1.776   3.406   0.938
61028W        W32754  33.032  41.615  11.064
61029W        W32755  33.359  39.573   1.031
61030W        W32756  10.123   3.872   3.731
61031W        W32757  22.530  42.368   4.650
61032W        W32758   1.683  37.442   3.765
61033W        W32759  30.403  31.112   4.197
61034W        W32760  23.671  24.981   5.452
61035W        W32761   0.028  37.383   2.839
61036W        W32762   5.363  17.743   3.450
61037W        W32763  17.532  37.931  14.143
61038W        W32764  21.416  40.981  11.976
61039W        W32765  39.351  20.602  10.677
61040W        W32766   1.504  20.879   4.080
61041W        W32767  17.694  19.900  12.342
61042W        W32768   6.666  44.859   3.870
61043W        W32769   2.007  36.088   0.896
61044W        W32770  17.910   8.891   2.695
61045W        W32771  21.107   8.674  12.012
61046W        W32772  31.324  37.471   2.460
61047W        W32773  36.717  40.427   3.618
61048W        W32774  31.830   0.908  14.116
61049W        W32775  33.795   0.828  10.113
61050W        W32776  11.114  27.009  11.127
61051W        W32777  43.637  16.776   0.708
61052W        W32778  11.675   4.107  11.731
61053W        W32779   9.360  38.924  10.555
61054W        W32780  29.078  13.091   0.233
61055W        W32781  41.085  34.196   2.388
61056W        W32782  22.186  30.999   4.260
61057W        W32783  39.199  38.676  11.965
61058W        W32784  16.728   2.544  13.641
61059W        W32785   1.467  32.156  11.130
61060W        W32786  17.260  42.780  11.126
61061W        W32787   6.860  25.589  11.540
61062W        W32788  12.365  34.532  14.946
61063W        W32789  20.219  44.726  10.988
61064W        W32790  40.494   4.960  12.546
61065W        W32791  38.715   1.174  11.230
61066W        W32792  30.650  42.233   3.708
61067W        W32793  12.633  38.405  10.749
61068W        W32794   9.790  15.677   0.015
61069W        W32795  10.111  38.771  13.933
61070W        W32796   1.011  40.181   5.118
61071W        W32797   1.338  28.922   2.859
61072W        W32798  10.291  10.265  10.782
61073W        W32799   5.571  29.202   0.703
61074W        W32800   3.864  43.802  13.731
61075W        W32801   1.943  41.087   2.891
61076W        W32802  29.210  22.623  10.648
61077W        W32803   5.311   9.153   1.593
61078W        W32804   8.241   7.175   2.863
61079W        W32805  31.544  38.012  13.927
61080W        W32806  27.075  18.754  14.496
61081W        W32807   4.694  32.000  14.764
61082W        W32808  31.082   6.695   3.586
61083W        W32809  43.965   7.602   1.387
61084W        W32810  26.669  28.594   1.674
61085W        W32811  12.831  34.571  14.518
61086W        W32812  28.432   5.783   1.829
61087W        W32813  24.667  32.886   2.327
61088W        W32814  38.076  21.005   3.705
61089W        W32815  24.722   3.888   0.449
61090W        W32816  38.042  22.011   0.473
61091W        W32817  26.078  15.469   3.652
61092W        W32818   1.918   0.106  10.564
61093W        W32819  32.672  34.601   4.105
61094W        W32820  19.645  37.933   1.750
61095W        W32821   0.414   4.899   0.204
61096W        W32822  31.116  28.704   2.744
61097W        W32823  19.173  27.373  13.455
61098W        W32824  15.581  18.070   3.757
61099W        W32825  15.629  42.690  10.036
61100W        W32826  44.500  43.995   2.755
61101W        W32827   1.049   6.907  13.824
61102W        W32828  15.162  41.634  11.555
61103W        W32829   6.481  17.664   2.225
61104W        W32830  11.092  25.116   1.043
61105W        W32831   0.410   4.695   2.590
61106W        W32832  13.324  10.276   4.957
61107W        W32833  29.632  25.946   4.256
61108W        W32834  33.374   9.455  12.805
61109W        W32835  26.706   0.982  13.540
61110W        W32836  33.188  36.577   2.714
61111W        W32837  22.197   6.823  11.357
61112W        W32838   8.681  14.561  14.927
61113W        W32839  21.971  37.580  12.906
61114W        W32840  16.818  16.532  12.908
61115W        W32841  43.296  42.721  11.911
61116W        W32842   6.359   7.935  12.439
61117W        W32843  41.456  39.626   1.827
61118W        W32844  35.122   3.727  13.104
61119W        W32845  38.253  10.686   2.194
61120W        W32846  32.669   0.239   0.966
61121W        W32847  44.323  38.618  13.442
61122W        W32848  24.009  29.779   2.756
61123W        W32849  28.409   6.744   2.835
61124W        W32850  11.224  12.124  11.236
61125W        W32851  34.693  15.123  13.924
61126W        W32852  30.434  41.795   2.243
61127W        W32853  31.451  26.918  14.037
61128W        W32854  36.917   0.294   2.462
61129W        W32855  15.869  34.875  10.185
61130W        W32856  19.335  32.446  13.460
61131W        W32857   1.965  14.194  14.536
61132W        W32858  26.909   3.588  13.774
61133W        W32859  30.812  32.873   2.776
61134W        W32860   8.262  37.472   3.304
61135W        W32861  23.478   5.859   3.300
61136W        W32862  14.763  38.921  10.683
61137W        W32863  24.016  12.328   0.755
61138W        W32864  39.323  43.209  10.741
61139W        W32865  40.028  14.015  12.345
61140W        W32866  31.413  42.526  12.080
61141W        W32867  19.518  12.727   1.921
61142W        W32868  28.156  23.506   1.909
61143W        W32869  27.969   8.976  12.953
61144W        W32870  30.003  43.974  10.581
61145W        W32871  40.010  42.001   1.457
61146W        W32872   4.849  40.046  13.522
61147W        W32873  41.320  17.314   0.099
61148W        W32874  29.247   2.809  14.427
61149W        W32875  36.445  38.109   1.440
61150W        W32876   1.860  22.767   2.792
61151W        W32877  23.631  13.568  10.942
61152W        W32878  39.450  32.875   4.687
61153W        W32879  23.984  30.367   1.856
61154W        W32880  38.298  14.299   0.506
61155W        W32881  43.409  22.694   4.414
61156W        W32882   2.407  42.555   0.434
61157W        W32883  11.974  25.782   4.913
61158W        W32884  40.064   6.792  14.402
61159W        W32885  16.393  16.155  10.615
61160W        W32886  16.399  35.024   0.953
61161W        W32887  37.543  33.564   3.273
61162W        W32888  20.957  13.154   4.178
61163W        W32889  28.860  10.625   1.264
61164W        W32890  24.685  18.007   0.888
61165W        W32891  29.693  18.284  14.281
61166W        W32892   1.457  40.402   4.928
61167W        W32893  35.038  22.268  13.393
61168W        W32894  28.333  39.503   4.724
61169W        W32895   2.202  27.265   2.343
61170W        W32896  27.664  26.542   1.459
61171W        W32897   4.370  19.161  10.654
61172W        W32898  34.654  21.401   1.391
61173W        W32899   3.423   5.878  10.678
61174W        W32900   1.912  38.147  11.205
61175W        W32901  35.413   1.456   2.436
61176W        W32902  31.870  40.863   5.301
61177W        W32903  30.342   1.163   0.032
61178W        W32904   0.306  20.009   1.203
61179W        W32905   8.957  20.050  11.647
61180W        W32906   1.783  41.997   3.511
61181W        W32907   8.971  10.239   1.204
61182W        W32908  30.703  41.778  11.028
61183W        W32909   9.957  37.135  10.581
61184W        W32910  13.432  27.643  11.975
61185W        W32911  16.526   8.106   1.022
61186W        W32912  12.230  28.072  11.638
61187W        W32913  15.951  17.267  14.875
61188W        W32914  20.162  37.515   4.090
61189W        W32915  43.183  15.918  14.773
61190W        W32916  27.237  24.593   0.316
61191W        W32917   9.735  11.212   1.429
61192W        W32918  40.736  25.587  12.531
61193W        W32919  31.900  39.908   4.311
61194W        W32920   0.183  18.040   1.762
61195W        W32921  44.169  28.661  10.232
61196W        W32922  15.813  35.952  14.078
61197W        W32923  15.501  11.934  14.864
61198W        W32924  34.754   2.181   3.432
61199W        W32925  10.277   7.065  14.454
61200W        W32926  17.058  27.120  10.722
61201W        W32927  35.442  27.999  10.604
61202W        W32928  31.904   3.930   0.245
61203W        W32929  16.992  36.914  11.471
61204W        W32930  42.378  20.574   4.552
61205W        W32931  27.943  11.918   0.327
61206W        W32932  18.918  32.577   0.528
61207W        W32933  21.214  43.781   2.232
61208W        W32934  22.476  15.286  11.721
61209W        W32935  18.376  27.184  12.936
61210W        W32936  20.997  29.585  12.495
61211W        W32937  18.630  15.582   4.096
61212W        W32938  10.668  12.673   1.620
61213W        W32939  10.621  39.979  11.994
61214W        W32940  17.366  40.487   2.537
61215W        W32941   4.834  42.875   2.331
61216W        W32942  21.624  34.377   4.794
61217W        W32943   1.461  35.022  12.053
61218W        W32944  19.243  40.555   3.685
61219W        W32945   7.837  33.861   1.741
61220W        W32946  39.481  43.283   3.940
61221W        W32947  25.406  21.658  11.584
61222W        W32948  25.363  18.724   4.716
61223W        W32949  33.947  18.202  13.533
61224W        W32950  42.962  20.472  13.846
61225W        W32951  41.914   0.058   1.435
61226W        W32952  42.300  22.455   4.331
61227W        W32953   6.776  42.583  13.500
61228W        W32954  44.951   4.844   1.332
61229W        W32955  11.136  27.504   1.975
61230W        W32956  10.763  32.387  14.418
61231W        W32957  23.971  30.624  14.998
61232W        W32958   9.853  32.773  11.532
61233W        W32959  12.213   3.318   3.261
61234W        W32960  33.978  11.370   4.337
61235W        W32961   9.814  26.682   0.815
61236W        W32962  41.538  37.720  14.292
61237W        W32963  38.848   1.289  12.991
61238W        W32964  26.686  43.791   0.491
61239W        W32965  26.116  38.854   0.838
61240W        W32966  32.967  13.626   3.727
61241W        W32967  19.598  20.614   2.564
61242W        W32968  26.481  22.966   3.736
61243W        W32969  11.163  33.126   1.259
61244W        W32970  27.196  33.991   0.860
61245W        W32971   0.200  16.744   2.779
61246W        W32972  44.390  36.777   4.070
61247W        W32973   3.947  25.592   1.799
61248W        W32974  19.942  32.482   3.797
61249W        W32975  14.611   8.135  11.586
61250W        W32976  23.942  11.273   1.082
61251W        W32977  26.655  28.380   3.724
61252W        W32978  40.164   6.524   1.094
61253W        W32979  34.077  11.655   0.733
61254W        W32980  39.010   9.288  13.969
61255W        W32981  15.291  41.972   3.710
61256W        W32982  32.321  20.763  14.247
61257W        W32983  19.573  18.192  11.585
61258W        W32984   2.400   1.392   4.053
61259W        W32985  13.669  17.559  12.501
61260W        W32986  15.303  19.807   3.906
61261W        W32987  17.644  13.165   2.814
61262W        W32988  27.117   3.878  12.901
61263W        W32989  34.854  19.578   0.559
61264W        W32990   2.251  30.572   4.792
61265W        W32991  33.146  10.711  13.322
61266W        W32992  30.377  34.786   0.777
61267W        W32993  31.340   7.807   4.579
61268W        W32994  31.837  26.902  11.376
61269W        W32995  42.187   3.963   4.058
61270W        W32996   5.856  39.665   1.938
61271W        W32997  12.896  24.017   3.790
61272W        W32998  39.006  26.879  13.540
61273W        W32999   1.891  34.012  13.037
61274W        W33000   8.954  24.720   3.366
61275W        W33001  13.576  28.937   1.261
61276W        W33002  41.990   6.333  12.826
61277W        W33003   1.020  24.674   1.422
61278W        W33004  38.039  28.739   0.499
61279W        W33005  13.978  10.285   2.715
61280W        W33006  37.967  30.621   0.295
61281W        W33007  41.876   0.439   1.782
61282W        W33008  14.890   8.839   1.302
61283W        W33009  35.988   5.635  14.458
61284W        W33010   3.285   4.785   4.222
61285W        W33011  19.493  42.999  14.356
61286W        W33012  39.053  29.330   1.875
61287W        W33013  25.284  17.605   1.795
61288W        W33014  20.551  17.305  11.163
61289W        W33015   2.218  29.546  10.706
61290W        W33016  15.291  43.437   4.573
61291W        W33017  27.322  35.097   4.732
61292W        W33018  13.343   6.455  14.930
61293W        W33019  27.843  36.863   1.371
61294W        W33020  34.188  37.562  13.010
61295W        W33021   6.483  44.875   4.376
61296W        W33022   2.640  27.566  14.030
61297W        W33023   9.857  16.686  14.817
61298W        W33024   0.383  36.468   2.022
61299W        W33025   2.032  18.078  11.950
61300W        W33026  40.624  10.646  12.283
61301W        W33027  29.648  20.486  11.713
61302W        W33028  37.353  37.480   3.767
61303W        W33029  21.202  18.438   5.053
61304W        W33030  19.529  15.107   0.382
61305W        W33031   3.339  42.818   1.801
61306W        W33032   5.217  23.110  14.368
61307W        W33033  44.363  13.543   4.912
61308W        W33034   9.130   8.653  10.989
61309W        W33035  33.624  24.695  10.449
61310W        W33036  34.387   1.992  10.692
61311W        W33037   6.797  44.286   4.687
61312W        W33038  17.700   5.569   2.894
61313W        W33039  10.324  15.256   2.130
61314W        W33040   2.303  43.515  13.125
61315W        W33041   6.787  27.068   4.443
61316W        W33042  34.752  44.717   0.474
61317W        W33043  36.067  29.969   4.724
61318W        W33044   6.170  18.576  10.655
61319W        W33045  36.905  23.493   3.080
61320W        W33046  20.960  38.285   0.150
61321W        W33047  15.066  37.413   4.999
61322W        W33048  44.982   0.904   2.672
61323W        W33049  34.676  25.737   3.634
61324W        W33050  41.909  41.342   4.075
61325W        W33051  19.947  16.306   0.053
61326W        W33052  38.602  33.462   1.069
61327W        W33053  39.077   8.232   0.903
61328W        W33054   3.206  29.680   1.744
61329W        W33055  27.092  36.540   1.770
61330W        W33056  42.490   4.378  11.418
61331W        W33057   0.750   5.267  11.556
61332W        W33058  20.022   9.074   3.910
61333W        W33059   2.871  43.583  12.424
61334W        W33060  15.084  15.823   2.707
61335W        W33061  32.313  32.266  14.257
61336W        W33062  44.342  17.202   0.964
61337W        W33063   3.405  12.343  10.586
61338W        W33064  41.325  15.282   2.887
61339W        W33065  25.806  26.326   3.612
61340W        W33066  23.746   1.584   1.865
61341W        W33067   9.176  32.224   4.189
61342W        W33068  37.619  29.911   3.236
61343W        W33069  21.404  29.995   4.141
61344W        W33070  18.072  21.533  11.129
61345W        W33071  13.212  22.433  11.593
61346W        W33072  37.773  28.408   4.808
61347W        W33073  16.688  22.044   0.931
61348W        W33074  21.110  21.036   4.509
61349W        W33075  16.602   1.417  12.952
61350W        W33076  17.710  25.544   2.827
61351W        W33077  21.338  26.239   4.581
61352W        W33078  34.834   2.458  13.865
61353W        W33079   4.033  41.675  13.114
61354W        W33080  32.505   8.495   2.722
61355W        W33081  32.394  37.603  13.606
61356W        W33082   5.127  13.097  12.140
61357W        W33083  27.434  25.089  12.931
61358W        W33084  19.235  30.870   2.280
61359W        W33085  13.642  13.216   2.695
61360W        W33086  15.191   7.534   1.393
61361W        W33087  32.320  28.144   1.016
61362W        W33088  17.081  20.609   3.609
61363W        W33089  39.108  19.235   2.966
61364W        W33090  22.800  22.229   0.899
61365W        W33091  41.849  27.032   3.352
61366W        W33092  10.888  32.106  14.003
61367W        W33093  21.630  32.540   4.712
61368W        W33094  17.247  28.405   3.265
61369W        W33095  12.639   2.912  11.213
61370W        W33096   1.876   2.385   1.775
61371W        W33097  11.822  22.940  14.169
61372W        W33098  37.007   9.093  11.623
61373W        W33099  11.774  39.094   0.260
61374W        W33100   7.172  10.670  14.271
61375W        W33101  11.733   1.936  12.026
61376W        W33102  23.364  29.497   3.586
61377W        W33103  41.371  40.391   2.413
61378W        W33104  13.112   2.845   3.626
61379W        W33105   1.324  13.842   1.934
61380W        W33106  20.083  30.602   2.872
61381W        W33107   0.206   6.634  12.978
61382W        W33108  16.781  12.925  12.951
61383W        W33109  39.073  43.454  13.423
61384W        W33110  15.647  37.000  10.289
61385W        W33111  31.549  25.225  12.049
61386W        W33112  25.684  33.540   4.154
61387W        W33113   2.086  37.503   3.457
61388W        W33114   8.872   5.329  13.935
61389W        W33115  12.461  21.748  10.414
61390W        W33116  43.803  28.278   1.686
61391W        W33117   2.136   5.214   2.416
61392W        W33118  30.972  16.157  11.937
61393W        W33119  14.580  31.092   0.336
61394W        W33120  20.655  36.497  12.340
61395W        W33121  32.339   7.743   0.309
61396W        W33122  24.191   6.969  13.451
61397W        W33123   4.783  11.371   0.770
61398W        W33124   7.193  21.122  14.451
61399W        W33125  33.811   0.856   3.757
61400W        W33126  14.548  32.227  12.452
61401W        W33127  34.804  22.889   0.469
61402W        W33128  33.341   3.867   2.411
61403W        W33129   5.861  34.069  14.195
61404W        W33130  40.217  38.950  12.110
61405W        W33131  13.798  30.223   4.171
61406W        W33132  25.635  42.344  13.712
61407W        W33133  29.228  27.469  11.638
61408W        W33134  41.515  28.071   4.232
61409W        W33135  40.648  23.261   3.303
61410W        W33136   4.307  11.049   2.859
61411W        W33137  11.049   7.163   0.771
61412W        W33138  21.297  29.030   0.284
61413W        W33139  15.190  31.038   3.319
61414W        W33140  20.552   3.063   1.298
61415W        W33141  22.028  14.373   0.920
61416W        W33142  20.082   9.065   1.687
61417W        W33143   4.640   4.822   1.006
61418W        W33144  31.417  36.905  13.078
61419W        W33145  10.641   0.877  11.238
61420W        W33146  33.823  35.851   2.241
61421W        W33147  44.549  12.735   1.403
61422W        W33148   7.289  41.304   3.325
61423W        W33149  23.608  18.573  12.004
61424W        W33150  39.637  31.033  10.427
61425W        W33151  33.426  22.608  11.798
61426W        W33152  44.230  31.454  13.416
61427W        W33153  42.902  43.206   4.115
61428W        W33154  43.705  38.732   0.969
61429W        W33155   9.161  42.336  10.785
61430W        W33156  28.036   6.455   4.039
61431W        W33157  16.314  31.542   2.329
61432W        W33158  20.770   3.479   0.519
61433W        W33159  28.136  13.807  12.406
61434W        W33160  32.655  15.155   3.475
61435W        W33161   9.925  16.598   4.269
61436W        W33162   2.797   6.629   0.155
61437W        W33163  44.434  18.514  11.128
61438W        W33164  22.556   4.479  12.420
61439W        W33165  36.979  42.924   0.747
61440W        W33166  14.352  43.274  13.031
61441W        W33167  19.341  24.221  12.640
61442W        W33168  33.517  40.938  13.564
61443W        W33169   5.912  36.296   4.309
61444W        W33170  39.421  42.603   0.205
61445W        W33171  38.924  39.994  14.274
61446W        W33172  15.524  24.767  12.845
61447W        W33173   4.929  40.006   0.275
61448W        W33174  32.087  14.655   4.152
61449W        W33175  19.561  38.576   3.109
61450W        W33176  40.256  30.582  12.564
61451W        W33177  20.487  16.069   3.740
61452W        W33178  28.989  25.604  14.085
61453W        W33179   4.277  37.748  13.601
61454W        W33180  17.831  14.707  13.823
61455W        W33181   5.941  26.192  14.415
61456W        W33182  13.853  38.397  11.123
61457W        W33183  17.998   6.939  14.589
61458W        W33184  35.844  43.508  10.620
61459W        W33185  40.405   2.438  10.847
61460W        W33186  17.931  31.207   2.770
61461W        W33187  31.211   5.975  14.431
61462W        W33188  24.139  35.081  14.903
61463W        W33189  39.373   5.784  11.695
61464W        W33190   0.072  30.681   2.122
61465W        W33191  20.233  30.931  14.902
61466W        W33192  10.326  20.064  14.078
61467W        W33193   2.479  34.814  13.504
61468W        W33194  11.997  27.906   1.261
61469W        W33195   6.456  41.277   4.865
61470W        W33196  22.561  35.340  11.571
61471W        W33197   1.396  10.087  12.984
61472W        W33198  27.554  21.266  14.884
61473W        W33199  16.146  14.155   1.835
61474W        W33200  35.456  15.670  11.112
61475W        W33201  38.077  41.460   3.954
61476W        W33202  24.553  28.138  14.991
61477W        W33203  34.082  29.132   2.471
61478W        W33204   1.086  37.684   0.597
61479W        W33205   3.352  24.661   3.673
61480W        W33206  44.229  19.074  14.752
61481W        W33207  31.691  15.791  10.934
61482W        W33208  44.935  19.261  10.800
61483W        W33209  26.711  28.502  12.541
61484W        W33210  38.135  22.074  12.623
61485W        W33211  16.028  41.864   2.076
61486W        W33212  20.709  19.312   1.770
61487W        W33213  12.648  10.892  11.579
61488W        W33214  35.489   4.454   1.323
61489W        W33215  29.621  28.520  10.592
61490W        W33216  29.984  20.794  11.465
61491W        W33217  17.206  33.410   1.975
61492W        W33218   9.072   6.266  14.778
61493W        W33219  20.027  13.823  12.704
61494W        W33220   0.336  23.010  14.585
61495W        W33221  10.525  20.712  11.490
61496W        W33222  12.398  23.215  14.864
61497W        W33223  15.679  32.955  10.943
61498W        W33224  30.879   2.291   5.054
61499W        W33225  28.063  15.030  12.667
61500W        W33226  29.530  36.478   1.763
61501W        W33227  38.436  27.468  12.418
61502W        W33228  33.280   9.181   4.870
61503W        W33229  43.511  32.135   1.794
61504W        W33230  32.536  10.568  12.410
61505W        W33231   6.685  29.375   3.165
61506W        W33232   8.740  38.611  14.632
61507W        W33233  14.274  27.707  13.468
61508W        W33234  24.136  13.392   1.428
61509W        W33235  16.961  16.513   3.590
61510W        W33236  30.087   4.193  13.711
61511W        W33237   1.337  32.676  13.600
61512W        W33238  27.812  16.252   4.827
61513W        W33239   7.336   9.880   1.801
61514W        W33240  30.013  44.993  10.616
61515W        W33241  30.776  19.096  11.199
61516W        W33242  40.010  17.418   1.453
61517W        W33243  38.538  28.384   4.337
61518W        W33244  18.055   7.442  14.725
61519W        W33245   2.294  22.040   0.593
61520W        W33246  18.778  19.029  10.624
61521W        W33247   8.182  18.895  13.766
61522W        W33248  36.256  31.184   0.980
61523W        W33249   4.819  38.564  12.604
61524W        W33250  29.642   5.378   4.025
61525W        W33251  32.963  17.397  12.394
61526W        W33252  22.418  27.566   2.246
61527W        W33253  35.997  16.035  14.301
61528W        W33254  14.265  11.963   0.868
61529W        W33255  40.734   5.241   4.095
61530W        W33256  35.540  37.027  13.840
61531W        W33257   9.017   6.335   1.278
61532W        W33258   4.918   8.734   1.390
61533W        W33259  41.895   5.592   1.261
61534W        W33260  32.610  30.425   3.737
61535W        W33261  35.113   1.983   4.644
61536W        W33262  11.584  24.639   2.643
61537W        W33263  37.095  27.616  12.136
61538W        W33264  24.629   7.721   1.422
61539W        W33265  30.078  44.145  11.091
61540W        W33266  24.654   9.285  12.105
61541W        W33267  30.338  23.164  13.963
61542W        W33268  43.329   3.977   1.549
61543W        W33269   9.396  24.465   4.191
61544W        W33270  12.842  33.631   0.846
61545W        W33271   4.958  44.533   3.128
61546W        W33272  16.228  29.514   1.134
61547W        W33273  25.649   1.927   2.202
61548W        W33274  10.398  14.468  14.269
61549W        W33275   5.429  11.025   2.401
61550W        W33276   5.853  31.118  11.943
61551W        W33277  39.818  29.718  13.049
61552W        W33278  31.025  11.088   0.916
61553W        W33279  27.642  14.479  14.465
61554W        W33280   7.408  28.895   2.894
61555W        W33281  14.380  26.616   3.326
61556W        W33282  26.699  14.303  13.438
61557W        W33283  43.377  18.413   4.248
61558W        W33284  16.093  20.335  11.663
61559W        W33285  22.894  10.358   0.027
61560W        W33286  39.478  16.438  13.842
61561W        W33287  17.891   4.299  13.312
61562W        W33288  30.500  43.309   1.444
61563W        W33289  43.875  34.439   2.973
61564W        W33290   6.969   9.758  13.340
61565W        W33291   4.429  24.165   1.351
61566W        W33292  34.566  12.091  13.855
61567W        W33293  36.019  34.910   4.853
61568W        W33294  27.768  20.199   0.801
61569W        W33295  29.021  38.604  13.460
61570W        W33296   1.448   9.669  10.606
61571W        W33297  27.476  10.128  14.079
61572W        W33298  13.260  23.807   0.764
61573W        W33299   4.139  22.641   1.938
61574W        W33300  23.043  10.649   4.354
61575W        W33301  21.609  26.055  12.884
61576W        W33302  34.460  10.223  11.529
61577W        W33303  35.118  37.352  14.812
61578W        W33304  31.478   1.273   0.885
61579W        W33305  13.159  26.620   3.206
61580W        W33306  26.947   9.547   1.923
61581W        W33307  30.883  43.776  12.429
61582W        W33308  20.990  19.068   0.893
61583W        W33309  37.051  10.336   3.280
61584W        W33310  39.321  25.073   4.530
61585W        W33311  13.218   5.243  10.745
61586W        W33312   9.971  18.255   1.307
61587W        W33313  29.944  35.845   2.283
61588W        W33314  36.871  30.039   2.349
61589W        W33315   8.799  25.016   4.720
61590W        W33316   7.654  13.366  13.315
61591W        W33317  15.279  25.883   3.268
61592W        W33318   9.881   5.888  13.318
61593W        W33319  21.189  38.545   0.990
61594W        W33320  15.185   2.797  12.451
61595W        W33321  18.514  19.034   3.441
61596W        W33322  26.629  26.985  12.603
61597W        W33323  28.211  20.611   3.315
61598W        W33324  32.222  20.206   1.649
61599W        W33325  27.406  29.012   4.121
61600W        W33326  34.462  39.495  11.553
61601W        W33327  40.405   1.110  10.296
61602W        W33328   1.538  19.223   2.561
61603W        W33329  31.846  37.895   2.836
61604W        W33330   3.688  34.960  13.897
61605W        W33331  17.556  42.385  12.019
61606W        W33332  29.340  25.952  13.835
61607W        W33333  26.402   6.980   4.471
61608W        W33334  22.141   3.924   3.251
61609W        W33335  24.167  32.949  13.717
61610W        W33336   5.386  30.299   3.645
61611W        W33337  21.449  40.467  12.149
61612W        W33338  35.968  30.598  12.140
61613W        W33339  23.693  35.206  12.551
61614W        W33340  26.982  44.286  13.993
61615W        W33341  39.257  27.480  11.949
61616W        W33342  42.923   4.639  14.032
61617W        W33343  19.856  23.196  12.208
61618W        W33344  40.821  33.296  14.600
61619W        W33345   2.813  19.483   5.294
61620W        W33346  28.991  15.073  10.401
61621W        W33347  31.502  23.480   3.722
61622W        W33348   2.306   4.694  11.876
61623W        W33349  18.559   5.374  13.796
61624W        W33350  17.925   3.000  14.241
61625W        W33351  39.346  33.640   0.807
61626W        W33352   2.765  36.843   2.850
61627W        W33353   6.668  30.448  12.153
61628W        W33354  18.840  42.328   0.985
61629W        W33355  27.493  18.964  10.674
61630W        W33356   5.375  21.669  12.500
61631W        W33357  17.362   5.436   3.712
61632W        W33358   3.829  34.025   3.994
61633W        W33359  38.188   7.584   2.775
61634W        W33360  29.428  41.457   3.110
61635W        W33361  11.733  13.154  11.968
61636W        W33362  38.996  39.471  14.306
61637W        W33363   1.435  19.408  13.854
61638W        W33364  12.773  35.191   1.861
61639W        W33365  18.239  40.998  13.408
61640W        W33366  28.721  26.575  10.587
61641W        W33367  32.855  20.551  11.609
61642W        W33368  18.439  39.026   3.138
61643W        W33369  12.400  17.060   4.225
61644W        W33370  29.897   5.854  10.732
61645W        W33371  27.497  23.270   4.542
61646W        W33372   0.682  33.082  14.369
61647W        W33373   3.785  29.013   1.406
61648W        W33374  25.717  35.086  10.668
61649W        W33375  38.152  11.884  10.811
61650W        W33376  15.693  10.675   2.323
61651W        W33377  11.556  26.050  11.582
61652W        W33378   3.062  34.367   1.417
61653W        W33379   4.439  41.974   1.667
61654W        W33380  43.309  27.918  12.785
61655W        W33381  37.434  33.527  12.421
61656W        W33382  42.827  26.443   4.148
61657W        W33383   3.692   5.976  14.510
61658W        W33384  35.451  14.632  13.792
61659W        W33385  41.034  31.929   1.825
61660W        W33386  38.361  14.716   3.687
61661W        W33387  30.033  41.527  13.687
61662W        W33388  21.543  29.643  12.049
61663W        W33389  43.612  24.928   2.335
61664W        W33390  25.176  18.216   1.026
61665W        W33391  12.446  17.227  14.558
61666W        W33392  37.028   8.046  11.667
61667W        W33393  12.882  26.172   1.311
61668W        W33394  38.334  20.396   4.100
61669W        W33395  26.171  16.773   3.205
61670W        W33396  10.891  34.697  12.214
61671W        W33397  44.194  11.853   4.024
61672W        W33398  37.535   6.919   4.623
61673W        W33399   4.473  37.294  13.846
61674W        W33400  10.684   8.332  11.167
61675W        W33401  29.701  29.631  12.870
61676W        W33402   0.343  28.975  10.897
61677W        W33403   4.609  36.104  10.134
61678W        W33404  23.541  28.767   2.866
61679W        W33405   5.235   6.253   1.516
61680W        W33406  17.319  42.875  12.927
61681W        W33407  25.511  43.397  14.792
61682W        W33408  42.701   2.889  10.434
61683W        W33409  14.886  39.545  11.629
61684W        W33410  15.082  29.638  14.302
61685W        W33411  39.374  44.766   0.901
61686W        W33412  29.655  19.202   3.976
61687W        W33413   1.342  44.880   0.940
61688W        W33414  22.309   0.958  12.448
61689W        W33415  11.762  21.018   2.842
61690W        W33416  14.068  16.712   1.368
61691W        W33417   0.459  29.037  12.837
61692W        W33418   4.530  16.332  12.572
61693W        W33419   6.684  13.211  10.144
61694W        W33420  34.192  25.013  13.459
61695W        W33421  14.169   8.814  14.001
61696W        W33422  30.513  36.470  11.720
61697W        W33423  40.601   1.354  14.970
61698W        W33424  25.117   8.745   1.548
61699W        W33425  25.068   3.504  11.518
61700W        W33426  28.983  35.930  14.189
61701W        W33427  37.275  16.239  14.225
61702W        W33428  35.401  33.358   1.738
61703W        W33429  16.355  42.917  13.801
61704W        W33430  28.096   7.035   1.014
61705W        W33431  26.715  37.811  10.037
61706W        W33432   6.951   7.808  12.014
61707W        W33433   3.650  15.347   0.250
61708W        W33434  39.453   5.957   3.440
61709W        W33435  10.171  37.062   1.634
61710W        W33436   6.202  14.419  12.622
61711W        W33437  37.363  38.313   0.121
61712W        W33438  23.169  19.924   1.180
61713W        W33439  17.540  14.098  14.436
61714W        W33440  14.577  37.093   2.335
61715W        W33441   8.630  22.580   0.784
61716W        W33442  18.710  40.694   2.685
61717W        W33443  17.585   7.184  14.897
61718W        W33444  33.566  17.205   4.615
61719W        W33445  33.516  29.849   3.697
61720W        W33446  41.787  21.725   2.381
61721W        W33447   1.980  29.942   4.668
61722W        W33448  33.104  12.469  12.595
61723W        W33449  22.297  14.660  13.395
61724W        W33450  11.973  19.320   3.767
61725W        W33451  16.580  38.363  11.613
61726W        W33452   6.617   9.130  11.615
61727W        W33453  15.665  10.397  10.314
61728W        W33454  12.633  44.452   0.711
61729W        W33455  15.642  10.368  13.910
61730W        W33456  13.806  25.129   2.185
61731W        W33457   6.227   3.811  11.583
61732W        W33458  38.917  37.444   0.829
61733W        W33459  19.045  33.211   4.597
61734W        W33460  21.035  27.981   4.441
61735W        W33461  28.258  28.973  12.873
61736W        W33462  41.292   9.724  13.069
61737W        W33463  22.161  34.666   2.160
61738W        W33464   8.183  40.980  11.517
61739W        W33465   3.776  17.290   4.760
61740W        W33466  44.821  38.607   4.225
61741W        W33467  26.572   3.827   4.532
61742W        W33468   2.414   9.842  14.063
61743W        W33469  24.713  18.597   1.828
61744W        W33470  31.152   1.792  12.983
61745W        W33471  28.753  29.964   0.840
61746W        W33472  26.595  13.619  14.361
61747W        W33473   6.755  13.034   0.743
61748W        W33474   4.904  18.723   4.792
61749W        W33475  37.261  28.084  14.045
61750W        W33476   9.916  37.123   2.425
61751W        W33477  44.106   3.327   9.832
61752W        W33478   7.295  43.396   4.599
61753W        W33479  20.458  41.913  11.978
61754W        W33480  12.139  17.651  11.579
61755W        W33481   9.604   7.245  10.764
61756W        W33482  13.899  19.789   0.002
61757W        W33483   4.890  27.754  13.472
61758W        W33484   0.779  27.464   2.107
61759W        W33485   2.843  34.782  13.875
61760W        W33486   0.109  35.360   4.524
61761W        W33487   0.713  12.669   1.491
61762W        W33488  35.508  32.306  14.831
61763W        W33489  29.944  23.771   3.762
61764W        W33490  42.437   8.032   0.091
61765W        W33491  42.771  19.048  11.427
61766W        W33492   1.722  42.038  14.834
61767W        W33493   3.618  22.638  10.176
61768W        W33494   9.522  26.168   1.356
61769W        W33495   4.072  20.290   1.764
61770W        W33496  33.367  24.527   1.219
61771W        W33497  18.193  42.918   3.133
61772W        W33498  24.033  18.907   4.571
61773W        W33499  43.506  14.278  12.166
61774W        W33500   0.614   1.831   0.769
61775W        W33501   5.502  34.814   0.860
61776W        W33502   5.681   3.510  14.360
61777W        W33503   6.898  14.266  14.624
61778W        W33504  23.056  19.584  11.661
61779W        W33505  23.221  13.620  12.834
61780W        W33506  26.273  21.728   2.914
61781W        W33507   6.302  12.692   4.290
61782W        W33508  35.867   2.887   2.763
61783W        W33509  21.657  27.931  11.579
61784W        W33510  27.619   8.409  14.922
61785W        W33511  39.428  32.879   1.204
61786W        W33512  43.152  41.601  14.263
61787W        W33513  19.058   6.244  12.587
61788W        W33514  35.082  13.614   3.274
61789W        W33515  15.050  18.815   3.916
61790W        W33516  43.157  38.270   3.995
61791W        W33517  37.458  10.076  13.227
61792W        W33518  19.258  16.732  13.109
61793W        W33519  44.639  35.078  12.656
61794W        W33520  32.145  14.819   0.272
61795W        W33521   1.877  31.924  14.152
61796W        W33522   0.777  30.646  12.894
61797W        W33523  43.165   6.737   3.652
61798W        W33524   6.383  28.885   0.057
61799W        W33525  40.368  40.486   2.405
61800W        W33526  19.838   5.395  11.629
61801W        W33527  22.695  11.276   1.632
61802W        W33528  35.816  11.147  12.931
61803W        W33529  31.424  12.814  13.941
61804W        W33530   9.844  11.422   0.962
61805W        W33531  11.896  40.957  11.010
61806W        W33532  43.772  32.890   3.307
61807W        W33533  13.287   9.956  14.327
61808W        W33534  26.015  30.897   2.365
61809W        W33535  31.632  34.466   0.317
61810W        W33536   5.759   9.682  11.659
61811W        W33537   4.280   3.409  10.630
61812W        W33538  15.894  34.185   3.629
61813W        W33539  32.056  38.214   4.156
61814W        W33540  26.407  37.409   1.219
61815W        W33541  41.814  12.040  10.658
61816W        W33542  14.838  33.545   1.273
61817W        W33543  35.891  24.493  13.958
61818W        W33544  44.925  26.875   4.161
61819W        W33545  39.979   4.491  11.650
61820W        W33546  14.281  39.529  12.842
61821W        W33547  43.264  13.240   2.225
61822W        W33548  11.625  38.454  14.519
61823W        W33549  24.982   8.996   1.990
61824W        W33550  15.696  40.797  12.514
61825W        W33551  35.170  21.062  11.946
61826W        W33552  16.519  32.061   0.719
61827W        W33553  10.415   0.327   1.753
61828W        W33554  30.985  23.613   0.989
61829W        W33555  13.364   0.667   1.018
61830W        W33556   0.314  23.382  10.875
61831W        W33557  10.853  39.541  11.232
61832W        W33558  15.848  22.241   1.766
61833W        W33559  25.374  43.867   0.007
61834W        W33560  32.998  44.461  13.000
61835W        W33561  36.787  30.921   1.856
61836W        W33562  29.209   8.786   4.387
61837W        W33563  11.414  37.412   1.598
61838W        W33564   7.440  32.212  11.491
61839W        W33565  44.282  40.448  14.672
61840W        W33566   6.795  39.826  12.027
61841W        W33567  43.916  13.856  10.763
61842W        W33568  35.080  36.439  13.073
61843W        W33569  21.350  19.658  10.800
61844W        W33570  19.130   9.756  11.160
61845W        W33571   5.954  31.992   0.398
61846W        W33572  16.583   5.250   4.114
61847W        W33573  43.020  26.990   1.433
61848W        W33574  29.075  39.118   4.704
61849W        W33575  39.950  34.876   3.838
61850W        W33576   5.931  20.571  12.345
61851W        W33577  22.140   5.270   0.204
61852W        W33578  33.914  42.831  10.431
61853W        W33579   5.485   3.856   3.152
61854W        W33580  11.151   0.501  13.102
61855W        W33581  10.859  39.423  11.992
61856W        W33582  16.648  23.943   4.775
61857W        W33583  24.235  43.062   0.850
61858W        W33584  44.998   6.127   1.909
61859W        W33585  28.917   6.648  12.471
61860W        W33586   2.163  15.273  11.162
61861W        W33587  24.811  44.909  12.881
61862W        W33588   6.625  12.279  12.399
61863W        W33589   4.927  31.581   3.608
61864W        W33590  10.718   9.220  11.178
61865W        W33591  33.395  17.785  12.519
61866W        W33592  13.562  15.648   4.138
61867W        W33593  26.015  19.957  11.489
61868W        W33594  23.662  15.793   2.112
61869W        W33595  25.977  42.486  13.268
61870W        W33596  13.121   5.181  13.746
61871W        W33597   1.422   9.350   0.088
61872W        W33598   9.745  27.971  10.694
61873W        W33599  10.395  29.943   3.161
61874W        W33600  38.531  44.284   0.033
61875W        W33601   9.212  23.992  14.297
61876W        W33602  40.209  29.048   1.740
61877W        W33603   3.573   3.392  11.901
61878W        W33604  42.397  11.894   4.575
61879W        W33605  26.510  14.048  12.652
61880W        W33606  11.482  12.288   0.815
61881W        W33607  16.029   5.246  13.876
61882W        W33608  40.290  20.994   0.828
61883W        W33609  41.744  40.751  11.164
61884W        W33610  37.466   6.734  13.442
61885W        W33611  25.310  21.122   1.004
61886W        W33612  43.227  29.744  12.866
61887W        W33613  39.597   3.428   1.715
61888W        W33614  15.122  33.978   1.343
61889W        W33615  37.778  24.132  14.320
61890W        W33616  34.268  16.762   1.964
61891W        W33617   2.767   8.481   1.242
61892W        W33618  22.311  21.568   0.579
61893W        W33619   9.584  20.693  13.891
61894W        W33620  41.729  17.175   1.824
61895W        W33621  17.167   7.954  14.501
61896W        W33622  38.793  19.802  14.403
61897W        W33623  41.415  10.381   2.785
61898W        W33624  12.397  43.979  13.955
61899W        W33625  16.356  20.472   0.540
61900W        W33626   4.001  35.940   3.685
61901W        W33627  40.805  22.219   1.146
61902W        W33628  15.308  25.016  13.256
61903W        W33629  30.402  16.813  12.604
61904W        W33630  21.725  11.705  13.951
61905W        W33631  42.414  30.981   3.636
61906W        W33632  29.653   2.144  14.794
61907W        W33633  20.674   8.278   1.260
61908W        W33634   7.773  30.869   4.164
61909W        W33635  44.835  12.903  14.011
61910W        W33636  10.387  12.895   0.806
61911W        W33637  29.666  30.881  13.349
61912W        W33638  10.437  37.097  10.764
61913W        W33639  11.550  30.375   4.588
61914W        W33640  40.119   0.979   2.635
61915W        W33641   8.910   9.689  11.542
61916W        W33642  22.064   6.137   1.280
61917W        W33643  31.943  24.048   0.638
61918W        W33644  35.413  34.629  14.377
61919W        W33645  22.602  44.763  10.639
61920W        W33646  41.323  25.702   1.199
61921W        W33647   3.658  17.611  14.591
61922W        W33648   6.645  18.336   1.837
61923W        W33649  12.279  30.496  14.710
61924W        W33650  43.792  27.003  14.465
61925W        W33651  13.630  12.438  13.375
61926W        W33652  36.621   4.953   2.126
61927W        W33653  21.980  44.030  13.398
61928W        W33654  26.100  20.489   2.155
61929W        W33655   4.775  37.051   3.320
61930W        W33656  15.257  19.501  12.144
61931W        W33657  19.723  28.962  12.983
61932W        W33658  35.466  33.350   0.805
61933W        W33659  38.307  32.512  11.961
61934W        W33660   3.279  44.429  13.991
61935W        W33661   7.793   9.801  10.722
61936W        W33662  15.792  17.275  10.641
61937W        W33663  36.563  13.344   1.913
61938W        W33664  42.947  40.164   0.314
61939W        W33665  21.169  26.782   9.727
61940W        W33666  22.126  12.531   1.760
61941W        W33667  22.393  11.892   0.950
61942W        W33668   3.167  35.558   0.671
61943W        W33669  19.520  30.894   1.820
61944W        W33670  13.676  38.473   5.054
61945W        W33671  40.888   6.672  10.884
61946W        W33672  30.478  14.623  13.935
61947W        W33673   7.957   1.874  10.991
61948W        W33674  42.557   6.842  14.708
61949W        W33675  25.790  10.598  13.482
61950W        W33676  25.652  41.033   3.597
61951W        W33677  21.312  33.828  12.448
61952W        W33678  29.232  15.155   0.421
61953W        W33679  38.953  23.988   1.407
61954W        W33680  25.153  41.099   3.473
61955W        W33681  28.125  31.407   3.795
61956W        W33682  10.411  13.235   3.196
61957W        W33683  29.995  14.104   0.877
61958W        W33684  18.385   6.793  10.372
61959W        W33685  19.210  32.861   0.204
61960W        W33686  15.254  39.820   0.392
61961W        W33687   6.139  15.355   1.766
61962W        W33688  34.339  32.098  12.127
61963W        W33689  38.469  22.724   0.364
61964W        W33690  27.344  35.462   0.390
61965W        W33691  11.357  42.261   1.269
61966W        W33692  41.023  35.482  10.639
61967W        W33693  31.138  37.642  12.825
61968W        W33694  34.003   5.756  14.515
61969W        W33695  17.793  31.459  12.593
61970W        W33696  17.245  29.709   2.949
61971W        W33697  19.472  25.133  13.121
61972W        W33698  23.186  13.872   3.254
61973W        W33699  20.986  22.210   2.731
61974W        W33700  17.543  23.077  10.859
61975W        W33701   4.529   2.504  11.047
61976W        W33702   7.685  15.970  12.608
61977W        W33703  34.128  19.356  13.814
61978W        W33704  10.730   8.677  11.545
61979W        W33705  37.570  25.966  11.954
61980W        W33706  36.506  11.892   3.683
61981W        W33707  18.506   6.386   0.393
61982W        W33708  41.717  13.059  12.025
61983W        W33709  22.154  42.441  11.079
61984W        W33710  11.259  28.591  13.657
61985W        W33711   5.986  13.942   1.822
61986W        W33712  13.087  28.036  12.033
61987W        W33713   6.932   8.590   1.638
61988W        W33714  22.252   1.794   0.346
61989W        W33715  16.724   8.779  10.754
61990W        W33716  36.408  21.196  12.963
61991W        W33717  39.474  42.276   3.965
61992W        W33718   4.756  28.713  11.489
61993W        W33719  30.268  33.550   2.776
61994W        W33720   8.718  33.746   2.778
61995W        W33721  25.514  18.877  14.032
61996W        W33722   9.649   7.855  14.901
61997W        W33723  25.575  42.090   1.406
61998W        W33724   4.821  30.485   2.483
61999W        W33725  24.906  31.891   1.424
62000W        W33726  16.737  20.595  14.097
62001W        W33727  23.984  25.511  12.992
62002W        W33728  41.133  31.589  12.399
62003W        W33729  36.552  31.372   2.292
62004W        W33730  27.517  20.001   3.632
62005W        W33731  37.218  32.452   2.386
62006W        W33732  38.477  31.419  11.691
62007W        W33733  26.077  42.358  14.826
62008W        W33734  16.771  11.540  11.185
62009W        W33735  25.679   4.013  14.961
62010W        W33736  37.439   2.870   3.260
62011W        W33737  15.147   1.224  14.381
62012W        W33738  11.589  23.356   1.782
62013W        W33739  10.344   2.978  13.752
62014W        W33740   1.720  36.757  12.908
62015W        W33741  15.864  17.934  11.947
62016W        W33742  17.045  40.360   5.054
62017W        W33743  30.702  36.987   3.336
62018W        W33744   1.962  19.155   2.872
62019W        W33745  39.675  16.311   0.543
62020W        W33746  33.892   1.414   4.612
62021W        W33747  21.667  24.583   3.133
62022W        W33748  38.471  40.316  12.074
62023W        W33749  26.875  34.170   3.101
62024W        W33750   6.679  42.523   4.647
62025W        W33751  33.179  18.742  13.193
62026W        W33752  43.296  29.265  12.526
62027W        W33753  22.662  17.205   2.212
62028W        W33754   1.319   7.739   4.674
62029W        W33755  20.527  35.925   1.915
62030W        W33756  31.255  35.172  13.165
62031W        W33757   7.124  25.478   2.719
62032W        W33758   4.902  33.379   4.249
62033W        W33759  36.581  27.486  13.061
62034W        W33760  38.811  39.700  13.850
62035W        W33761  28.232  37.772   0.363
62036W        W33762   4.116  12.036  11.096
62037W        W33763  18.853  26.896  12.945
62038W        W33764  10.665  43.362  12.375
62039W        W33765  12.833  41.448  14.346
62040W        W33766   0.624  25.592  13.015
62041W        W33767  22.113  29.921  14.926
62042W        W33768  37.166  12.168  13.941
62043W        W33769  30.620   9.783   4.441
62044W        W33770   4.711  41.401   0.088
62045W        W33771   1.958  26.923  13.837
62046W        W33772   1.883  34.345  12.553
62047W        W33773  33.044  27.089   0.922
62048W        W33774  27.965   2.124  10.744
62049W        W33775  42.317   4.830  12.093
62050W        W33776  34.766  11.745  14.829
62051W        W33777  14.518  21.946   0.768
62052W        W33778  21.027  39.176   1.815
62053W        W33779   0.210  26.189   1.749
62054W        W33780  40.358  44.468   0.290
62055W        W33781   2.756  39.303   3.322
62056W        W33782   6.171  26.917  13.406
62057W        W33783  11.133   9.759   2.809
62058W        W33784   5.029  15.586  11.934
62059W        W33785   9.285  10.669  11.532
62060W        W33786  29.602  19.169   2.223
62061W        W33787  30.647  20.092   1.892
62062W        W33788  37.753   2.032   3.110
62063W        W33789  19.177  44.930  14.761
62064W        W33790  32.934  38.422   2.734
62065W        W33791   1.402  15.632   0.224
62066W        W33792  15.276  39.295  14.349
62067W        W33793  42.748  31.370   0.395
62068W        W33794   1.695  17.229   3.686
62069W        W33795  28.444   2.511  11.403
62070W        W33796  34.605   7.880  13.549
62071W        W33797  34.854  39.291   1.705
62072W        W33798  21.390  15.134   4.120
62073W        W33799  37.804  27.159   4.637
62074W        W33800  17.385   9.331   1.770
62075W        W33801  22.980   4.214  11.654
62076W        W33802   5.132   7.687  11.178
62077W        W33803  41.414   6.403  14.553
62078W        W33804   9.688  14.216   4.636
62079W        W33805  40.978  29.823   0.153
62080W        W33806  27.054  17.825  11.661
62081W        W33807  17.468  27.328   4.133
62082W        W33808  19.075  38.052   2.129
62083W        W33809  27.734   5.357  12.907
62084W        W33810  30.004  41.717  12.977
62085W        W33811  29.971   6.303  11.014
62086W        W33812  29.344   2.457  11.167
62087W        W33813  12.485   0.465   0.755
62088W        W33814  10.426  41.497  12.098
62089W        W33815  32.485  40.212  13.867
62090W        W33816   8.876  29.003  11.562
62091W        W33817  33.561  14.449  11.748
62092W        W33818  11.880   2.334  14.403
62093W        W33819  19.483  36.999   0.409
62094W        W33820  35.871   5.677   1.420
62095W        W33821  12.624  37.312   1.908
62096W        W33822  35.923  33.341  13.093
62097W        W33823  12.624  31.533  11.632
62098W        W33824  34.063  12.671  11.661
62099W        W33825  25.689  40.511  13.802
62100W        W33826  10.897  24.440  13.103
62101W        W33827  34.581   4.504  10.423
62102W        W33828   0.495   2.378  11.371
62103W        W33829  29.508  39.031  11.874
62104W        W33830  13.561   8.343   0.344
62105W        W33831  20.263  22.165  13.358
62106W        W33832  15.080  15.779   4.111
62107W        W33833  20.858  18.543  13.977
62108W        W33834  22.326  32.970   2.849
62109W        W33835  35.089   5.525  13.513
62110W        W33836  18.149  38.256   3.392
62111W        W33837  30.574   4.169   3.287
62112W        W33838   6.161  28.420   4.738
62113W        W33839  22.805  37.782   1.922
62114W        W33840  27.883  18.392   1.249
62115W        W33841  32.027   3.783   2.152
62116W        W33842  15.950  13.785   2.639
62117W        W33843   2.712  40.065  10.756
62118W        W33844  37.543  44.017   0.371
62119W        W33845  10.414  35.170  10.641
62120W        W33846   7.646   4.548   3.049
62121W        W33847  20.132  28.417   1.762
62122W        W33848   7.455  11.810   2.203
62123W        W33849  17.528   2.954   3.778
62124W        W33850  22.132  44.715   4.242
62125W        W33851  38.956   4.744  13.865
62126W        W33852   6.262  17.865  12.603
62127W        W33853  29.913  20.829   1.372
62128W        W33854  19.459   2.846  12.508
62129W        W33855   2.829  34.924   0.830
62130W        W33856  15.051  18.765  10.734
62131W        W33857  30.412  44.001  13.936
62132W        W33858  40.279  33.501   4.568
62133W        W33859  30.965  19.181  14.452
62134W        W33860   2.346   4.055   3.396
62135W        W33861  21.734  42.102   4.306
62136W        W33862  33.337  12.116  11.817
62137W        W33863  10.034  40.845  14.505
62138W        W33864  38.859   1.322  13.924
62139W        W33865  39.135  25.121  13.838
62140W        W33866  20.309   5.176  11.616
62141W        W33867  30.862  13.725   1.500
62142W        W33868  15.236  22.304  14.430
62143W        W33869  17.845  25.804  13.077
62144W        W33870   1.685  22.166   3.822
62145W        W33871  23.504  29.112   1.239
62146W        W33872  23.631  28.549   3.891
62147W        W33873  11.623  34.955   2.185
62148W        W33874  30.168  43.343   0.957
62149W        W33875  15.518  22.737   0.957
62150W        W33876  31.642   3.875  12.445
62151W        W33877  27.882  24.212  11.020
62152W        W33878  34.674  41.900  12.936
62153W        W33879  39.294  21.162  12.074
62154W        W33880  11.879  20.744   4.239
62155W        W33881  14.841  36.401   3.534
62156W        W33882  39.001  35.560   3.072
62157W        W33883   4.966  44.370  14.336
62158W        W33884  39.908  25.036  10.966
62159W        W33885  32.586  24.051   3.185
62160W        W33886  26.468  24.910  12.161
62161W        W33887  41.406  13.347  10.718
62162W        W33888  24.005  18.490  10.708
62163W        W33889  17.760   8.693  12.416
62164W        W33890  13.303  19.863  11.083
62165W        W33891  43.333  25.229  12.090
62166W        W33892  29.596  44.313  11.144
62167W        W33893  37.569   3.303   1.021
62168W        W33894  14.871  39.943   4.583
62169W        W33895  28.582   9.749  11.411
62170W        W33896  20.852   3.985  14.567
62171W        W33897  30.065  18.772   4.951
62172W        W33898  30.696  43.276  13.492
62173W        W33899  14.139  36.205   1.898
62174W        W33900  20.163  39.920  11.583
62175W        W33901  41.360  42.237   1.289
62176W        W33902  18.686   6.389  10.645
62177W        W33903  35.385  42.014   1.282
62178W        W33904  28.121   6.984   3.986
62179W        W33905  26.079  35.588   2.645
62180W        W33906  38.570  24.146   4.113
62181W        W33907  41.781  38.760  10.699
62182W        W33908  31.084  19.174  10.801
62183W        W33909  37.564  36.467   2.314
62184W        W33910  44.903  14.225   1.656
62185W        W33911   7.194  29.055   4.355
62186W        W33912  28.086  28.671   3.776
62187W        W33913  16.059  13.268  13.541
62188W        W33914   2.855  19.170  12.453
62189W        W33915  38.433  22.284  10.878
62190W        W33916  14.540  35.790   1.147
62191W        W33917  38.896  16.061   4.539
62192W        W33918  42.987  10.231  12.146
62193W        W33919  19.023  22.548  14.560
62194W        W33920   9.344  28.769  13.015
62195W        W33921  21.225  13.228   1.056
62196W        W33922  39.676  16.696  11.064
62197W        W33923  29.142  13.659  11.996
62198W        W33924   7.844  43.703   1.292
62199W        W33925  14.104   8.864  14.532
62200W        W33926  17.262  43.295  11.171
62201W        W33927   0.197  11.638   1.191
62202W        W33928  19.660   7.514  12.002
62203W        W33929  38.506  22.790   2.760
62204W        W33930  14.137  36.347  12.412
62205W        W33931   5.507  27.869   2.222
62206W        W33932  30.567   4.673   3.324
62207W        W33933   7.297  42.362   3.813
62208W        W33934  43.201  44.349  14.407
62209W        W33935  28.639   6.307  14.602
62210W        W33936   4.176  23.984  14.086
62211W        W33937  25.805  13.935   0.902
62212W        W33938  38.030   1.947  12.434
62213W        W33939  33.081   1.366   0.019
62214W        W33940   4.893  44.516   0.745
62215W        W33941  28.026  30.203  10.827
62216W        W33942  30.169  21.874  13.973
62217W        W33943   7.191  24.990   0.214
62218W        W33944   1.356  20.663  10.951
62219W        W33945   9.645   0.061   1.885
62220W        W33946  18.208  36.406  11.982
62221W        W33947  13.451   4.833   4.748
62222W        W33948  19.283  15.716   1.333
62223W        W33949  39.964  22.234   2.100
62224W        W33950  27.952  33.528  12.142
62225W        W33951  31.672  27.223  10.741
62226W        W33952   7.130  21.292  13.577
62227W        W33953  27.024   9.424  12.027
62228W        W33954   3.745  13.700  14.230
62229W        W33955  17.765  28.996  10.990
62230W        W33956  26.463  38.327   4.581
62231W        W33957  28.424  25.207   4.107
62232W        W33958   0.599  33.924  12.343
62233W        W33959  14.622   4.452   0.629
62234W        W33960  13.648  19.242   2.702
62235W        W33961  28.311  29.141   0.338
62236W        W33962  40.738  10.667   1.834
62237W        W33963  23.707  34.271   3.111
62238W        W33964  32.123   2.981  12.355
62239W        W33965   8.923   4.306  13.073
62240W        W33966   7.822  14.357   2.752
62241W        W33967   9.414  32.037   4.592
62242W        W33968   3.125  10.275  13.429
62243W        W33969   1.916   6.407  14.923
62244W        W33970  10.653  43.188  13.657
62245W        W33971  28.658  27.830  12.652
62246W        W33972  17.189  42.085  14.756
62247W        W33973  37.075  16.565  14.794
62248W        W33974  28.232   5.249  10.484
62249W        W33975  16.032  31.086   3.943
62250W        W33976  41.811  42.341   1.809
62251W        W33977  21.459  40.814  13.992
62252W        W33978  26.577  39.897   3.148
62253W        W33979  32.570  26.031   3.073
62254W        W33980  23.494   2.292  11.676
62255W        W33981  42.803  12.272   1.180
62256W        W33982   0.365  14.786  12.788
62257W        W33983  40.908   2.692   3.209
62258W        W33984  18.091  34.367   0.509
62259W        W33985  15.124  36.027   0.309
62260W        W33986  35.541  19.645   4.611
62261W        W33987   5.470  31.680   2.316
62262W        W33988  34.847  35.514   3.892
62263W        W33989  29.088  25.149   2.135
62264W        W33990  35.254  12.659  14.452
62265W        W33991  10.702  12.201   2.411
62266W        W33992   4.611   7.610  11.109
62267W        W33993  24.570  20.067  12.939
62268W        W33994  17.324  28.682   2.824
62269W        W33995  28.834  15.937  12.340
62270W        W33996  18.112  22.452   1.443
62271W        W33997  43.942  13.762   0.872
62272W        W33998   6.223  13.000   5.064
62273W        W33999  30.196  24.414  14.851
62274W        W34000   9.230  28.141   2.459
62275W        W34001  19.845  26.081   2.343
62276W        W34002   7.095   3.171   3.577
62277W        W34003  41.732  25.972  10.757
62278W        W34004   3.248  27.706   3.746
62279W        W34005  19.012  30.621   0.212
62280W        W34006  28.196  15.785   1.772
62281W        W34007  16.368  28.044   1.765
62282W        W34008  33.662  25.986   0.472
62283W        W34009  13.072  15.475   4.094
62284W        W34010  16.187   0.373  13.757
62285W        W34011  16.146  26.048   1.888
62286W        W34012  14.667  21.864   4.264
62287W        W34013  18.696  29.350  11.618
62288W        W34014  23.730  17.221  14.280
62289W        W34015  41.966   5.208   0.815
62290W        W34016  39.962   9.427   2.309
62291W        W34017   0.337  42.737   4.250
62292W        W34018   6.643  41.795  13.751
62293W        W34019   7.842  14.107   3.278
62294W        W34020  30.468   7.208   4.654
62295W        W34021  24.282   2.251   2.864
62296W        W34022  37.923  37.761  14.557
62297W        W34023  24.398  14.135  10.555
62298W        W34024  32.872  22.172  14.402
62299W        W34025   1.317  30.132   2.949
62300W        W34026  24.091  41.932  14.033
62301W        W34027   8.366  20.223  14.589
62302W        W34028   9.367  29.965  13.158
62303W        W34029  17.920  17.286  10.452
62304W        W34030   7.916  19.027  10.809
62305W        W34031  18.647   3.743  14.455
62306W        W34032  22.184   4.649  14.365
62307W        W34033  43.745  44.395  13.532
62308W        W34034  34.997  15.021  12.389
62309W        W34035   5.788  37.212  12.985
62310W        W34036  35.166  34.868   3.163
62311W        W34037  33.709  25.506   3.632
62312W        W34038  16.304  28.079  13.445
62313W        W34039   6.233  42.913   3.161
62314W        W34040   3.622   2.256  13.643
62315W        W34041  32.915   1.317  14.540
62316W        W34042  42.829   1.909   2.213
62317W        W34043   2.029  29.146  12.572
62318W        W34044  21.381  18.008   4.188
62319W        W34045  11.637  32.877  11.638
62320W        W34046   9.256  43.363  13.076
62321W        W34047   9.339   0.314  13.943
62322W        W34048  10.182  30.259   4.822
62323W        W34049  37.881  20.509   3.785
62324W        W34050  30.441  32.090   2.578
62325W        W34051  24.465  14.147  10.048
62326W        W34052   6.631  33.522   1.846
62327W        W34053  32.802  38.286  11.157
62328W        W34054  31.996  18.759   2.522
62329W        W34055  33.698  18.195   0.711
62330W        W34056  39.908  32.040  12.349
62331W        W34057  44.450  42.244  12.824
62332W        W34058  36.987  24.591   2.201
62333W        W34059  19.121  26.586  10.905
62334W        W34060   9.728   3.202   3.294
62335W        W34061  28.496  21.590   1.021
62336W        W34062  25.826  31.832  14.956
62337W        W34063  10.161  31.871   1.487
62338W        W34064   6.932   8.839  11.269
62339W        W34065   4.749  21.369  13.074
62340W        W34066  28.098  15.216  11.145
62341W        W34067  24.684  18.982  13.483
62342W        W34068  36.013   5.455  12.428
62343W        W34069   8.737  40.266   1.522
62344W        W34070  44.965  39.363  10.876
62345W        W34071   1.071  27.935   2.230
62346W        W34072  30.826  37.084   3.850
62347W        W34073  11.608  27.567  12.218
62348W        W34074   2.298  34.392  14.420
62349W        W34075  32.679   4.666  11.462
62350W        W34076   7.708  25.934  12.549
62351W        W34077   1.178  14.013  13.848
62352W        W34078   4.391  42.296   3.479
62353W        W34079   0.278  19.735  14.317
62354W        W34080  23.466  25.763  14.941
62355W        W34081   8.821   6.343   2.493
62356W        W34082  34.973   0.942  13.399
62357W        W34083  15.231   2.267   1.153
62358W        W34084  21.553   5.654  13.979
62359W        W34085  39.014  37.467  13.086
62360W        W34086  22.140  41.720  11.579
62361W        W34087  35.678  15.023   2.042
62362W        W34088  37.164  16.082  11.477
62363W        W34089  11.896  37.488   4.138
62364W        W34090  38.043  15.408   0.790
62365W        W34091  18.964  10.349  14.143
62366W        W34092  33.977  41.759   0.594
62367W        W34093  17.856  13.874   2.592
62368W        W34094  21.085   2.643   0.540
62369W        W34095   4.420   5.436  12.854
62370W        W34096  35.996  13.349  11.624
62371W        W34097  30.065  30.618   0.780
62372W        W34098  10.426  30.498  13.403
62373W        W34099  13.576  28.906   2.696
62374W        W34100  35.816  23.439   2.634
62375W        W34101  25.282  43.594   0.805
62376W        W34102  16.344  39.919   3.143
62377W        W34103  37.550  14.038   2.762
62378W        W34104  35.765   8.629   3.378
62379W        W34105  31.452  20.364  11.229
62380W        W34106  24.010   8.402  10.648
62381W        W34107   3.801  37.133  12.875
62382W        W34108   2.462  28.894  11.737
62383W        W34109  36.865  42.254  11.555
62384W        W34110  17.080  11.635  10.131
62385W        W34111   3.923   8.833   5.150
62386W        W34112  33.013  21.323  12.343
62387W        W34113  34.652  34.060   1.748
62388W        W34114  14.390  21.252  11.475
62389W        W34115  14.620  40.869  13.902
62390W        W34116   2.366   7.136   2.247
62391W        W34117  20.073  35.597   3.706
62392W        W34118   8.237  15.842  12.521
62393W        W34119  12.887  33.413   1.336
62394W        W34120  34.679   1.643   2.876
62395W        W34121  38.500  34.297   1.458
62396W        W34122   3.911   0.701   3.571
62397W        W34123  39.314   4.597   0.374
62398W        W34124  38.927   4.622   0.740
62399W        W34125   6.698  31.085  10.406
62400W        W34126  11.946  34.420   1.385
62401W        W34127   2.976   0.923   0.633
62402W        W34128  32.394  40.956   1.903
62403W        W34129  12.073  14.267   2.545
62404W        W34130  20.281  34.159  13.425
62405W        W34131  12.284  29.176   0.966
62406W        W34132  43.180   5.253   1.315
62407W        W34133  15.400  33.179  10.029
62408W        W34134  44.453  43.732   2.294
62409W        W34135  41.383  31.988  12.649
62410W        W34136  20.980  19.244  13.545
62411W        W34137   8.500   5.168   0.451
62412W        W34138  17.207   0.331   1.852
62413W        W34139   5.677  42.605   3.158
62414W        W34140  17.678   6.994  13.942
62415W        W34141   4.998  23.346   0.167
62416W        W34142   7.919  11.693  13.828
62417W        W34143  11.073   0.792  11.591
62418W        W34144   7.311  30.618  14.792
62419W        W34145   0.326  11.167  10.772
62420W        W34146  15.118  37.567   9.786
62421W        W34147   1.444  22.498   3.514
62422W        W34148  40.453   8.216  13.870
62423W        W34149  23.458  16.581   2.166
62424W        W34150  12.191  18.022   1.481
62425W        W34151  30.742  17.642  10.560
62426W        W34152   4.571  39.735   3.213
62427W        W34153  28.471  26.726   0.702
62428W        W34154  35.292   4.131  11.369
62429W        W34155  14.778  22.828  14.047
62430W        W34156  22.121  31.994   1.878
62431W        W34157  28.090  31.411   4.338
62432W        W34158   6.305  28.662   2.328
62433W        W34159   3.974  33.100   0.429
62434W        W34160   3.705   6.078   3.665
62435W        W34161  32.422  41.255  14.084
62436W        W34162   8.610  20.133   0.366
62437W        W34163   8.073   6.266  14.555
62438W        W34164   3.332  37.531   2.660
62439W        W34165  27.143  40.855  10.972
62440W        W34166  39.493  41.355  13.408
62441W        W34167  39.076  17.265  11.538
62442W        W34168   5.121  38.880  10.372
62443W        W34169  30.529  35.973  12.816
62444W        W34170   2.813  10.932  13.500
62445W        W34171   4.654  23.645  10.180
62446W        W34172  10.241   3.697   0.464
62447W        W34173  42.124  12.312  14.954
62448W        W34174  21.475  34.576  12.839
62449W        W34175   5.368  40.325  11.397
62450W        W34176  22.211  15.959   1.799
62451W        W34177  39.072  18.568  12.675
62452W        W34178   0.190  23.140  11.765
62453W        W34179  44.223   8.598  13.580
62454W        W34180  34.184   1.932  13.121
62455W        W34181  16.346   5.916   3.064
62456W        W34182   6.827  27.522   4.713
62457W        W34183  25.803   1.543   0.768
62458W        W34184  21.220  37.067  14.506
62459W        W34185  31.532  42.102  14.847
62460W        W34186   3.113  16.562   1.856
62461W        W34187  18.287  27.566   0.189
62462W        W34188  33.925  44.400   2.742
62463W        W34189  24.729   0.411   3.735
62464W        W34190  25.260  22.275   3.606
62465W        W34191   0.004  21.029   2.715
62466W        W34192  27.634  15.499   2.806
62467W        W34193  14.219  30.327   2.746
62468W        W34194  21.080  18.153  11.034
62469W        W34195   0.272  12.076  10.573
62470W        W34196  24.482  35.963  13.494
62471W        W34197  30.566  36.578  10.496
62472W        W34198  17.873  18.345  13.365
62473W        W34199  14.202  27.941   4.154
62474W        W34200  30.557  10.212   1.721
62475W        W34201  32.440  32.829   0.387
62476W        W34202  17.828  14.056   1.455
62477W        W34203  12.114  15.571   0.243
62478W        W34204   4.877  13.290  10.270
62479W        W34205   7.641  31.959   1.454
62480W        W34206   9.511  28.075  14.346
62481W        W34207   8.679  31.899   1.694
62482W        W34208  24.521  28.747  13.443
62483W        W34209  31.936   6.768   2.915
62484W        W34210  14.719  15.202  14.664
62485W        W34211  32.855  39.631  12.079
62486W        W34212   1.452  42.336   2.366
62487W        W34213  16.512   0.807  11.504
62488W        W34214  29.499  24.319  10.112
62489W        W34215  17.763  33.545  10.629
62490W        W34216  17.167  15.067  10.557
62491W        W34217   0.251  30.065   1.415
62492W        W34218  31.691   7.647  11.941
62493W        W34219  34.826  10.138   3.774
62494W        W34220   2.200  15.811  11.215
62495W        W34221  17.380  24.736  11.115
62496W        W34222  28.191  31.667  12.200
62497W        W34223  36.131  44.782   0.462
62498W        W34224  44.737  41.242  12.503
62499W        W34225  17.389  13.283   2.340
62500W        W34226   6.743  15.576  12.520
62501W        W34227  15.021   3.289  12.416
62502W        W34228  15.280   0.255  13.610
62503W        W34229  24.426  25.039  13.522
62504W        W34230  12.654  13.917  14.492
62505W        W34231  42.952   5.766   3.536
62506W        W34232   9.130   6.787   0.083
62507W        W34233  29.498   1.481  13.739
62508W        W34234  40.200  10.035   0.148
62509W        W34235   5.897  39.975   0.708
62510W        W34236  35.490  20.294   1.939
62511W        W34237   4.430   5.272  10.908
62512W        W34238  40.312   3.394  14.372
62513W        W34239  25.082  23.414  11.971
62514W        W34240  15.721  26.168   3.169
62515W        W34241  27.066  40.433   2.920
62516W        W34242  10.154  10.221  12.865
62517W        W34243  22.794  14.100   3.019
62518W        W34244  44.357  18.859   4.511
62519W        W34245  40.911  27.184   0.648
62520W        W34246  12.649  12.159  13.489
62521W        W34247  22.452   5.381   4.547
62522W        W34248   3.816  29.630   2.352
62523W        W34249  36.011  42.684  13.539
62524W        W34250  44.796   9.459   3.221
62525W        W34251  42.067  28.555  12.870
62526W        W34252  10.259  35.969  13.991
62527W        W34253   0.557  24.911  14.353
62528W        W34254  30.121  26.618  14.744
62529W        W34255   4.713  27.003  11.549
62530W        W34256  19.016  33.019   3.724
62531W        W34257  34.041  30.946  14.805
62532W        W34258  19.606  27.967   2.374
62533W        W34259   2.005  21.656   2.573
62534W        W34260  19.333   6.801   3.800
62535W        W34261  29.203  43.799  13.225
62536W        W34262   1.314  15.787  14.215
62537W        W34263  19.257  12.937  13.848
62538W        W34264  26.199  28.967  11.809
62539W        W34265   5.682  15.238  13.475
62540W        W34266  20.947  30.792   1.206
62541W        W34267  37.667  33.610   3.769
62542W        W34268   8.764  38.013   2.814
62543W        W34269  44.251  26.200   3.305
62544W        W34270  18.134  24.882   0.898
62545W        W34271  11.367  18.238  12.911
62546W        W34272   9.289   8.610   1.589
62547W        W34273   0.509  20.210  11.560
62548W        W34274  11.671  24.297  14.944
62549W        W34275  36.421  36.622   4.198
62550W        W34276   7.359  36.658  13.288
62551W        W34277  37.030   1.303  14.500
62552W        W34278  26.988  38.221   0.277
62553W        W34279  29.736  42.335  10.921
62554W        W34280  38.542  41.471   1.689
62555W        W34281   3.967   1.634  11.661
62556W        W34282  23.944  25.520  14.983
62557W        W34283  32.894  36.509  14.865
62558W        W34284  23.064  41.670  11.440
62559W        W34285  39.688  39.299   1.199
62560W        W34286  37.934   7.796   3.152
62561W        W34287  20.490  32.338   2.921
62562W        W34288   3.155  44.437  10.258
62563W        W34289  28.884  42.274  14.946
62564W        W34290  39.082  10.270  14.047
62565W        W34291  26.607  25.573  10.625
62566W        W34292  17.586  33.675  13.405
62567W        W34293  39.410  23.767   1.367
62568W        W34294  16.322  11.805   3.292
62569W        W34295  19.261   1.649  13.987
62570W        W34296  22.151  14.563   2.105
62571W        W34297   5.250  32.121  12.419
62572W        W34298  17.155  14.126   3.611
62573W        W34299  40.898  31.463   3.268
62574W        W34300  39.795   7.619  11.061
62575W        W34301  42.153  31.073  14.271
62576W        W34302  34.023  11.631  12.864
62577W        W34303  34.935   1.807  11.475
62578W        W34304   6.630  17.237  10.717
62579W        W34305   2.874   3.260  13.619
62580W        W34306  35.041  10.739  14.864
62581W        W34307  27.781   0.050  10.533
62582W        W34308  12.362   4.816  11.646
62583W        W34309  25.005   9.088   2.752
62584W        W34310  42.266  41.096   2.802
62585W        W34311  42.320  41.423   4.397
62586W        W34312   6.441  36.733  12.441
62587W        W34313  26.689  33.573  12.972
62588W        W34314  13.762  38.372  13.420
62589W        W34315  10.747   9.983   2.533
62590W        W34316  26.811   6.260  10.838
62591W        W34317  21.281  39.938  11.484
62592W        W34318  22.073  14.162  13.011
62593W        W34319   8.581  20.761  14.254
62594W        W34320  12.342  13.636   3.707
62595W        W34321   7.635   2.383   1.359
62596W        W34322  36.089  14.473   2.758
62597W        W34323  36.124  29.577   4.134
62598W        W34324  13.864  38.405   1.327
62599W        W34325   8.199  20.972  13.847
62600W        W34326  34.943  31.023   2.652
62601W        W34327  36.178   9.802  13.004
62602W        W34328  13.116  35.754   5.085
62603W        W34329  20.515  19.654   1.386
62604W        W34330  30.067  32.362  14.244
62605W        W34331  38.538  16.030  10.447
62606W        W34332  24.994  13.060  12.605
62607W        W34333  31.423  40.421  13.844
62608W        W34334  28.036  14.699  11.207
62609W        W34335  39.597  35.916  12.016
62610W        W34336  33.537  29.723   0.508
62611W        W34337  36.543  11.748   1.833
62612W        W34338  13.345  14.033  13.982
62613W        W34339  43.874  27.941  14.716
62614W        W34340  29.196   2.248   1.328
62615W        W34341   0.422  30.341  13.991
62616W        W34342  26.601  21.375  12.627
62617W        W34343  44.883  36.406   1.878
62618W        W34344   9.484   2.321   2.833
62619W        W34345  20.801   6.346  13.987
62620W        W34346  10.340  34.691  14.347
62621W        W34347  12.431   9.665   4.156
62622W        W34348   3.292  11.322   1.812
62623W        W34349   6.714  43.282   0.003
62624W        W34350  39.402  20.054  11.497
62625W        W34351  28.046  15.610  14.982
62626W        W34352  32.987  19.152   1.726
62627W        W34353   9.540  21.257   3.783
62628W        W34354  42.560   3.493  11.602
62629W        W34355  39.057   2.297  10.054
62630W        W34356  21.919  34.900   2.545
62631W        W34357  14.144  23.572   4.471
62632W        W34358  44.727   1.770   1.258
62633W        W34359  12.805  35.188  11.579
62634W        W34360  11.387  27.538   2.420
62635W        W34361  39.809  16.078  13.603
62636W        W34362   6.364  43.305   2.320
62637W        W34363  44.266   9.189  12.067
62638W        W34364  30.191   9.683  12.208
62639W        W34365   5.435   0.467  10.375
62640W        W34366   5.411  41.319  13.097
62641W        W34367  37.606  34.493   1.857
62642W        W34368  14.130  43.386  12.528
62643W        W34369  28.049  15.522   3.123
62644W        W34370  44.051  29.952  13.773
62645W        W34371  39.516  18.208   3.134
62646W        W34372  31.200  20.489  15.000
62647W        W34373  10.826  32.695  14.818
62648W        W34374  12.717  37.123   3.120
62649W        W34375  37.430  22.778   5.045
62650W        W34376  40.906   2.435  11.128
62651W        W34377  42.338  26.689  13.235
62652W        W34378  20.325  26.722  10.013
62653W        W34379  27.849  21.310  12.039
62654W        W34380  20.055  19.108  11.613
62655W        W34381   6.943  20.375   1.728
62656W        W34382   9.272  13.303  11.247
62657W        W34383   2.640   7.905  12.051
62658W        W34384  40.979  21.065   1.403
62659W        W34385  20.867  15.493  12.944
62660W        W34386  44.899   9.971   4.270
62661W        W34387  16.585  22.848  13.857
62662W        W34388  29.414  22.143  10.681
62663W        W34389  40.621  35.855  10.569
62664W        W34390  29.020  13.282   2.296
62665W        W34391   4.215  26.915   0.250
62666W        W34392  17.350  41.484   3.160
62667W        W34393  40.927  26.415   2.805
62668W        W34394   7.598   8.503   0.401
62669W        W34395  14.434   1.653   0.886
62670W        W34396   1.682  13.760  14.753
62671W        W34397   6.346  39.133  13.431
62672W        W34398  22.703   1.299   1.160
62673W        W34399   3.400  37.459  12.828
62674W        W34400  38.798   9.115   0.910
62675W        W34401  22.578  16.724   3.699
62676W        W34402  37.388   2.292  10.467
62677W        W34403   7.934  10.757  13.288
62678W        W34404  40.148   8.773   3.666
62679W        W34405  40.872   4.504   2.548
62680W        W34406  44.262   7.652  10.603
62681W        W34407  15.906  22.068  13.313
62682W        W34408   9.284  31.670   2.735
62683W        W34409   6.371   0.391   1.674
62684W        W34410   3.274  36.498  13.591
62685W        W34411  14.667   0.966  13.377
62686W        W34412  25.677  38.021  14.303
62687W        W34413  38.459  40.520  10.709
62688W        W34414  19.233   2.196  14.056
62689W        W34415  43.813  36.075   1.287
62690W        W34416  12.888   2.616  11.548
62691W        W34417   1.030  28.480  14.301
62692W        W34418  14.896  16.047  11.944
62693W        W34419  41.400  21.240   3.246
62694W        W34420   7.377  12.623  10.744
62695W        W34421  24.532  11.331  13.018
62696W        W34422   5.849   5.872  11.614
62697W        W34423  22.510   0.217  12.616
62698W        W34424  24.668  16.257   0.803
62699W        W34425  16.363  36.381   1.416
62700W        W34426   6.130  41.799   4.109
62701W        W34427  30.987  17.109   0.582
62702W        W34428  33.338  13.241  12.614
62703W        W34429  39.450  26.048   4.562
62704W        W34430  42.384  23.737  14.101
62705W        W34431  39.457  23.506  13.536
62706W        W34432   1.947  37.832  12.491
62707W        W34433  29.808  10.110   0.469
62708W        W34434  44.264  44.708   3.272
62709W        W34435   7.994   0.837  14.896
62710W        W34436   9.581  35.195  13.377
62711W        W34437  29.287  25.070  11.926
62712W        W34438  12.731  39.053   1.341
62713W        W34439  27.435  12.895   3.765
62714W        W34440  13.748  35.368   0.198
62715W        W34441  28.924   3.452  12.943
62716W        W34442   2.166  13.670  10.464
62717W        W34443   7.680  42.361  10.839
62718W        W34444  11.916   9.720   3.284
62719W        W34445  22.007   9.826   0.335
62720W        W34446  44.939  23.053  14.277
62721W        W34447  35.998   0.294   4.073
62722W        W34448  26.100  17.059  11.908
62723W        W34449  13.031  20.084  11.992
62724W        W34450   0.989  34.798  12.895
62725W        W34451  19.434  33.826   0.956
62726W        W34452  17.249  33.500  13.937
62727W        W34453  17.178  14.326   3.090
62728W        W34454  10.278  44.789   3.385
62729W        W34455  16.614  25.119   4.838
62730W        W34456   9.190  36.578  12.584
62731W        W34457  11.438   0.883  13.426
62732W        W34458  43.673  26.592   3.790
62733W        W34459  18.675  14.824  13.119
62734W        W34460   2.424  14.968  11.507
62735W        W34461  25.859  18.328   1.222
62736W        W34462  25.200   1.556   5.415
62737W        W34463  20.720  24.493   3.298
62738W        W34464  22.989  28.624  10.517
62739W        W34465   5.123  37.983  13.953
62740W        W34466  18.043  44.885   1.467
62741W        W34467  38.026   7.570  14.884
62742W        W34468  10.670  23.582   3.972
62743W        W34469  16.982  18.660  14.519
62744W        W34470  37.391   4.429   4.318
62745W        W34471  18.136  12.877  10.539
62746W        W34472  33.885  30.673   3.556
62747W        W34473   9.942  41.402  12.974
62748W        W34474  37.001  21.143  14.969
62749W        W34475  10.739   1.785  12.539
62750W        W34476  29.948  29.692   2.257
62751W        W34477  30.657  31.646  11.974
62752W        W34478  28.473  41.555  14.428
62753W        W34479  17.639  40.726   0.420
62754W        W34480   7.302  28.630   4.627
62755W        W34481   1.442  22.758  11.572
62756W        W34482  28.963  14.964  12.132
62757W        W34483  14.866   2.446  10.729
62758W        W34484  20.483  28.714  12.517
62759W        W34485  44.880  33.654  14.524
62760W        W34486   9.647  21.787  10.907
62761W        W34487  21.762  12.364  14.131
62762W        W34488   0.524  38.932   1.343
62763W        W34489  33.763  16.528   3.270
62764W        W34490  34.983  12.126  14.565
62765W        W34491   0.417  37.988   4.570
62766W        W34492  19.409   2.556   1.674
62767W        W34493  40.693  32.558  12.459
62768W        W34494  18.367  44.888  13.038
62769W        W34495  17.433  12.509   1.726
62770W        W34496  14.252  31.970  10.646
62771W        W34497  19.129  14.100  11.806
62772W        W34498   6.995  17.440   4.404
62773W        W34499  26.027   0.942   2.877
62774W        W34500  21.121  28.449   0.422
62775W        W34501  10.407  44.970  14.985
62776W        W34502   8.777  15.793   1.602
62777W        W34503  11.778  32.647   3.580
62778W        W34504  23.945  21.017  12.888
62779W        W34505  24.548  10.188  10.854
62780W        W34506  43.722  33.424  13.354
62781W        W34507  43.999   5.172   3.833
62782W        W34508  34.292  43.786   0.834
62783W        W34509  29.600  24.968   3.349
62784W        W34510   8.831   6.788  12.351
62785W        W34511  35.101  41.339  12.867
62786W        W34512  32.524  40.733   2.921
62787W        W34513  32.579   1.217   3.387
62788W        W34514  23.462  40.419  13.429
62789W        W34515  10.283   5.572  10.285
62790W        W34516  10.780  19.157   3.469
62791W        W34517  35.176  25.887   2.437
62792W        W34518  36.389  26.705   0.874
62793W        W34519  19.730  17.875   2.707
62794W        W34520  43.105  18.278   3.326
62795W        W34521  12.916  33.152  12.983
62796W        W34522  31.437   0.720   3.241
62797W        W34523  32.784  26.208   2.641
62798W        W34524   5.464   0.089  14.799
62799W        W34525  39.812  26.983   2.869
62800W        W34526  24.285  44.811   4.510
62801W        W34527  40.507   5.275  11.528
62802W        W34528   4.763  34.426   4.331
62803W        W34529   4.818  32.589  10.646
62804W        W34530  43.791  31.961  13.924
62805W        W34531   5.305  11.250  12.154
62806W        W34532  25.677  38.227   0.576
62807W        W34533   0.246  23.975  12.631
62808W        W34534  35.085  21.530  12.132
62809W        W34535  17.295  23.197   4.786
62810W        W34536   8.310  30.538  12.975
62811W        W34537  43.248  34.951  13.943
62812W        W34538   4.269  32.999   1.045
62813W        W34539  37.168   7.027   4.262
62814W        W34540  34.977  19.718   2.816
62815W        W34541  22.836  25.004   2.338
62816W        W34542  28.315  23.658  13.840
62817W        W34543  14.137  38.407   1.809
62818W        W34544   7.733  26.198  13.413
62819W        W34545  19.920  14.720  12.786
62820W        W34546  34.995  42.999  11.914
62821W        W34547   9.723  27.965  12.943
62822W        W34548  23.615   1.091   0.425
62823W        W34549  15.810  41.292   3.703
62824W        W34550   1.831   7.606   4.520
62825W        W34551   3.237   6.421  14.180
62826W        W34552   9.190  12.333  14.099
62827W        W34553  21.452  16.782   3.818
62828W        W34554  38.377  33.791  11.460
62829W        W34555  22.053  39.598  13.682
62830W        W34556  36.722   8.605  11.064
62831W        W34557  35.247  29.504   4.616
62832W        W34558  30.208  37.684   4.717
62833W        W34559  38.759   5.898  14.987
62834W        W34560  28.503   9.154   1.890
62835W        W34561  43.226  35.479  14.481
62836W        W34562   4.059  13.129   4.460
62837W        W34563   6.685  14.349  11.439
62838W        W34564  12.187   9.635  13.896
62839W        W34565  35.624  37.069  14.796
62840W        W34566   6.124  36.365  13.009
62841W        W34567   4.183  36.421   3.669
62842W        W34568  25.026  24.860   0.336
62843W        W34569   5.758   2.970   4.569
62844W        W34570  37.502  21.556  13.363
62845W        W34571   4.744   7.301  11.519
62846W        W34572  12.978  44.483   3.817
62847W        W34573  13.582  39.528   0.697
62848W        W34574  27.388   3.076  12.637
62849W        W34575   4.972   9.171  14.889
62850W        W34576   2.182  15.275  13.789
62851W        W34577   8.434  34.070  11.730
62852W        W34578  10.345  15.401   1.636
62853W        W34579   3.350   6.387   1.736
62854W        W34580  16.106   5.673  13.365
62855W        W34581  13.389   4.672  11.523
62856W        W34582  17.171  19.672  10.776
62857W        W34583  32.761  40.775  10.641
62858W        W34584  40.512  34.332   3.191
62859W        W34585  11.206  44.468  12.372
62860W        W34586  13.837  34.907  12.105
62861W        W34587  17.650  39.735   2.799
62862W        W34588  35.288   6.039   2.351
62863W        W34589  31.008  27.160  13.890
62864W        W34590  23.161  38.855   4.288
62865W        W34591   2.469  36.021  14.187
62866W        W34592  17.383  33.884   4.832
62867W        W34593   4.029  42.174  14.870
62868W        W34594  37.623  41.808   2.189
62869W        W34595  32.889  20.751   2.196
62870W        W34596  21.069   7.795  10.616
62871W        W34597   1.197  37.412   1.298
62872W        W34598  10.281  27.907  13.873
62873W        W34599  30.927  18.940   3.745
62874W        W34600  33.557  25.937  10.050
62875W        W34601  33.670   7.756   4.632
62876W        W34602  18.810  15.645  14.575
62877W        W34603  17.555  18.540  13.961
62878W        W34604  34.697  39.527   4.317
62879W        W34605  17.682  21.212   0.333
62880W        W34606  16.207  17.445   2.199
62881W        W34607  22.546  24.041  13.338
62882W        W34608   8.677  13.056  13.991
62883W        W34609  40.144  37.395  14.437
62884W        W34610  41.228  21.376   1.043
62885W        W34611  41.859   5.410  12.656
62886W        W34612   9.530  42.030  10.348
62887W        W34613  20.978  38.997  13.488
62888W        W34614   6.676   2.289   0.369
62889W        W34615  33.709  40.478  13.343
62890W        W34616  27.417  43.187  11.811
62891W        W34617  42.889  32.709  13.098
62892W        W34618   4.043  27.745   0.379
62893W        W34619   5.654  24.867   2.866
62894W        W34620  16.094  13.735   2.153
62895W        W34621   7.226  12.182  14.937
62896W        W34622  10.688  30.694  11.613
62897W        W34623  11.797  42.781  14.363
62898W        W34624  20.223  32.962   0.009
62899W        W34625   2.485  38.048   4.089
62900W        W34626  38.051  13.690  14.729
62901W        W34627  17.988  13.187   4.150
62902W        W34628  19.005  41.028   4.853
62903W        W34629  28.961  11.880   3.747
62904W        W34630  40.455   5.250  12.979
62905W        W34631  14.011  44.353   0.568
62906W        W34632  40.479   9.460  12.051
62907W        W34633  41.044  20.236  10.867
62908W        W34634  33.824  11.554  10.800
62909W        W34635  37.542  40.802   5.091
62910W        W34636  25.169  35.775  12.009
62911W        W34637  28.581  25.988   1.932
62912W        W34638  17.159  38.391   0.971
62913W        W34639  25.680  22.627   4.114
62914W        W34640  11.750  10.188   3.379
62915W        W34641  16.805   3.726  14.015
62916W        W34642  26.088  25.985  12.856
62917W        W34643   8.765  10.268   0.225
62918W        W34644  32.760  17.801   1.661
62919W        W34645   9.525  24.303   0.860
62920W        W34646  16.470  32.507  11.167
62921W        W34647  11.224  43.431   3.621
62922W        W34648  23.201  19.139   4.060
62923W        W34649  22.045   1.743  10.727
62924W        W34650  39.482  24.160  10.899
62925W        W34651  16.848  42.026  13.932
62926W        W34652   8.081   0.736   2.475
62927W        W34653  11.368  37.139  10.415
62928W        W34654  10.777  17.058  12.868
62929W        W34655  41.896   8.157   1.376
62930W        W34656  34.265  33.061   3.798
62931W        W34657  29.483   2.288   3.339
62932W        W34658   4.176  27.597   2.168
62933W        W34659  13.845  23.440   2.689
62934W        W34660  19.563  19.741  12.915
62935W        W34661  27.550   0.692  13.476
62936W        W34662  32.098  42.382  12.906
62937W        W34663   1.397   1.424   3.592
62938W        W34664  34.241  33.918   2.485
62939W        W34665  24.048   5.385  11.628
62940W        W34666  12.665  34.408   0.522
62941W        W34667   9.253  42.401   2.889
62942W        W34668  44.280  17.499  10.586
62943W        W34669  32.123  31.613   4.317
62944W        W34670  14.778  24.501  14.485
62945W        W34671  33.025  23.960   3.799
62946W        W34672  38.923  15.671  12.218
62947W        W34673   3.318  42.746  13.356
62948W        W34674  23.664  25.459   0.834
62949W        W34675  36.492  24.488   2.354
62950W        W34676  20.623  39.521   1.762
62951W        W34677  30.591  19.433   0.360
62952W        W34678   5.453  17.373   2.450
62953W        W34679  41.111  12.342  14.829
62954W        W34680   2.839  20.431   4.353
62955W        W34681  44.203  16.442   3.348
62956W        W34682  23.595  35.441  10.804
62957W        W34683  20.158  43.806   4.637
62958W        W34684  25.238   8.495   1.978
62959W        W34685  28.277   1.430  12.862
62960W        W34686   7.947  12.834  10.163
62961W        W34687  35.044  40.320   4.202
62962W        W34688  25.666  13.662   0.411
62963W        W34689  28.010  36.554  12.028
62964W        W34690  17.787   5.783  13.536
62965W        W34691   3.811  29.143  11.186
62966W        W34692  19.056   5.331  12.439
62967W        W34693  35.401  26.995   0.982
62968W        W34694  41.492  15.078   3.787
62969W        W34695   3.715  23.223  11.377
62970W        W34696  18.956  22.087   2.616
62971W        W34697  36.776  15.098   0.000
62972W        W34698  34.607  17.231   0.755
62973W        W34699  25.883  41.602  13.284
62974W        W34700  13.189  16.680   0.853
62975W        W34701   7.898  44.640  11.088
62976W        W34702  19.814  30.156  14.770
62977W        W34703  29.389  28.001   2.743
62978W        W34704  44.203  11.173  13.871
62979W        W34705   5.874  15.616  12.316
62980W        W34706  27.074  42.851  13.128
62981W        W34707  33.013  18.141  14.468
62982W        W34708  10.889  15.818   1.635
62983W        W34709  22.058   2.456  14.963
62984W        W34710  36.458  10.600  13.493
62985W        W34711  39.300   8.720  12.426
62986W        W34712  12.344  10.964  11.126
62987W        W34713  10.626  16.532  11.083
62988W        W34714  37.947   9.025  12.616
62989W        W34715  24.206  33.070  13.210
62990W        W34716   5.766  30.095  13.793
62991W        W34717   2.912  44.064  13.839
62992W        W34718   8.413  21.567  12.415
62993W        W34719  42.774  21.180   3.200
62994W        W34720   7.183   1.384  14.661
62995W        W34721  11.716  44.224   1.013
62996W        W34722  31.842  16.746   1.778
62997W        W34723  21.261   9.045   9.904
62998W        W34724   6.491  33.611   2.373
62999W        W34725  32.583  33.376  10.446
63000W        W34726  42.583  24.200   2.724
63001W        W34727  26.795  44.265   1.354
63002W        W34728  29.503   8.457   2.735
63003W        W34729   5.778  24.477  14.905
63004W        W34730  28.520  31.217   1.783
63005W        W34731  14.654  23.055  10.454
63006W        W34732  12.787  20.255   3.327
63007W        W34733  13.666  40.631   4.792
63008W        W34734  31.591  25.006  10.593
63009W        W34735   2.899   1.323  14.785
63010W        W34736  16.697   4.345   1.981
63011W        W34737  10.415  30.607  12.057
63012W        W34738  20.825   6.830   1.217
63013W        W34739  40.523  27.940   2.226
63014W        W34740   6.389  13.645  14.616
63015W        W34741  18.666  39.605  12.072
63016W        W34742  34.637  30.516  11.072
63017W        W34743  28.467  43.328  13.068
63018W        W34744  23.632  22.075   4.923
63019W        W34745   8.403   3.857  11.281
63020W        W34746  24.709  35.570   3.588
63021W        W34747  18.253  31.570   1.831
63022W        W34748  38.831  27.071  14.906
63023W        W34749  41.111  16.655   3.088
63024W        W34750  11.399  42.402  12.810
63025W        W34751  29.565  21.601   3.726
63026W        W34752  43.920  40.942   4.743
63027W        W34753   1.190  40.382  12.524
63028W        W34754  18.300  34.898   1.358
63029W        W34755   8.867  15.523  13.021
63030W        W34756   4.363  26.175  12.405
63031W        W34757   9.350  28.508  12.551
63032W        W34758  20.079  31.658   1.329
63033W        W34759  24.305  39.424  11.141
63034W        W34760  36.784  26.468   4.193
63035W        W34761  15.176   7.065   3.697
63036W        W34762  30.706  29.222   1.915
63037W        W34763  34.466  28.348   3.878
63038W        W34764  15.166  15.108   4.652
63039W        W34765  40.418   7.003   0.364
63040W        W34766  27.435  41.729  12.051
63041W        W34767  25.564  29.220   1.267
63042W        W34768  17.003  16.670  13.910
63043W        W34769  18.570   5.698   3.701
63044W        W34770  36.079  21.278  13.423
63045W        W34771   4.702  32.429  11.191
63046W        W34772   8.806  15.054  12.866
63047W        W34773  14.743  26.975  12.639
63048W        W34774  20.049  13.522  14.027
63049W        W34775  16.741   4.287  10.702
63050W        W34776  18.667  24.068  13.013
63051W        W34777   4.901  23.993   1.222
63052W        W34778   9.909  31.937  13.983
63053W        W34779  22.022  17.483  14.437
63054W        W34780  21.833  21.133   1.371
63055W        W34781   8.811  20.684   1.970
63056W        W34782  21.095   6.141  12.060
63057W        W34783  26.159  30.208  13.555
63058W        W34784  22.535   4.389  13.579
63059W        W34785  20.522   4.915  14.836
63060W        W34786  19.679   9.390  11.411
63061W        W34787  33.781  14.889  12.044
63062W        W34788   0.495   9.513   0.311
63063W        W34789  10.697  20.796   1.447
63064W        W34790  33.262  21.424   3.130
63065W        W34791  32.420  24.044  14.243
63066W        W34792   5.811   4.029   2.515
63067W        W34793  22.514   8.910   0.440
63068W        W34794  41.290   9.245  10.758
63069W        W34795   4.636  16.689   5.038
63070W        W34796   5.662  17.876   0.263
63071W        W34797  15.605  40.767   1.308
63072W        W34798   5.318  43.326   0.912
63073W        W34799  22.152  31.341   3.323
63074W        W34800  36.726   9.909   3.167
63075W        W34801  44.443   9.606  14.832
63076W        W34802   1.598   5.870   4.131
63077W        W34803   8.899  36.146   4.183
63078W        W34804  21.764  35.532   3.368
63079W        W34805   2.382  18.174   1.868
63080W        W34806  32.068  17.581  14.485
63081W        W34807  23.699  42.481  11.012
63082W        W34808  38.922   2.980   1.273
63083W        W34809  20.867  26.259   3.254
63084W        W34810  30.107  30.643  10.666
63085W        W34811  42.331   5.763   4.076
63086W        W34812  12.773  35.938  14.655
63087W        W34813  38.601  36.110   3.691
63088W        W34814  15.842  24.198   3.621
63089W        W34815  18.799  40.108  12.030
63090W        W34816  33.627  26.204   0.939
63091W        W34817  26.299  24.091   1.145
63092W        W34818  26.131  17.337   0.341
63093W        W34819  23.157  19.812  13.867
63094W        W34820  39.351  10.270  12.179
63095W        W34821  38.491  15.331  11.136
63096W        W34822  24.399  21.552   1.649
63097W        W34823  15.817  36.642   0.365
63098W        W34824  33.979   5.350  10.642
63099W        W34825  38.491  26.763   1.312
63100W        W34826  40.649  43.969  14.106
63101W        W34827   6.207   8.963   4.241
63102W        W34828  20.552  42.437  10.612
63103W        W34829  19.622  25.514  11.110
63104W        W34830  37.617   2.502   2.943
63105W        W34831  32.627  11.060  12.542
63106W        W34832  22.230  34.491  14.345
63107W        W34833  10.177  20.358   4.602
63108W        W34834  28.818   9.609   1.530
63109W        W34835   9.412  23.663   0.751
63110W        W34836   0.883  14.892  12.899
63111W        W34837   7.863  33.456   1.438
63112W        W34838  44.095  22.660  11.004
63113W        W34839   3.111  12.723   1.803
63114W        W34840  20.749  29.039   4.040
63115W        W34841  24.422  37.413   3.664
63116W        W34842  21.594  18.641   0.184
63117W        W34843  25.570  37.252   2.162
63118W        W34844  30.970   0.262  12.098
63119W        W34845   0.377  37.080  12.795
63120W        W34846  34.621   8.092   0.919
63121W        W34847  32.554  20.037   4.698
63122W        W34848  38.245   2.407   0.307
63123W        W34849  17.531  32.969   2.654
63124W        W34850  24.528   7.734   4.809
63125W        W34851   1.343  30.010   4.822
63126W        W34852   2.343  36.351   0.052
63127W        W34853  40.299  10.380   1.874
63128W        W34854  32.726   7.630  12.557
63129W        W34855  44.939  41.414  12.020
63130W        W34856  34.016  41.858   1.097
63131W        W34857   3.463  19.579  12.410
63132W        W34858  22.517   4.504   2.899
63133W        W34859   2.026   2.172   1.306
63134W        W34860  23.870  31.079   0.356
63135W        W34861   1.991  34.806  12.288
63136W        W34862  31.066  31.206  11.276
63137W        W34863  32.338  41.133   5.395
63138W        W34864  39.185   9.359  13.464
63139W        W34865  31.547  35.621  10.623
63140W        W34866  31.436  12.431  13.009
63141W        W34867  27.615  28.228   1.127
63142W        W34868   1.964   8.881  12.911
63143W        W34869  12.130  16.844   0.288
63144W        W34870  43.475  36.042  13.508
63145W        W34871   5.534  25.169  11.590
63146W        W34872  25.136  36.881  14.868
63147W        W34873   5.402  13.374   5.032
63148W        W34874   9.168   7.369  11.535
63149W        W34875  10.714  28.488   4.675
63150W        W34876  16.712  40.110  11.933
63151W        W34877  31.085  37.309  13.328
63152W        W34878   8.298  38.395  14.766
63153W        W34879  34.443  30.084  13.381
63154W        W34880  27.018   5.915   0.375
63155W        W34881  41.018  32.414   2.802
63156W        W34882  31.777   4.349  14.982
63157W        W34883  35.897  31.402   2.777
63158W        W34884  40.967   7.705  13.319
63159W        W34885  42.387  30.627   1.881
63160W        W34886   4.569  37.766   0.423
63161W        W34887  37.546  17.049   1.712
63162W        W34888  35.149  33.498   2.195
63163W        W34889  28.588  23.758  13.337
63164W        W34890   3.297   3.969   3.167
63165W        W34891   9.146  31.479   0.906
63166W        W34892  13.567  32.853   2.271
63167W        W34893  40.163  24.925   1.455
63168W        W34894  39.874  32.158   0.435
63169W        W34895  11.803  18.467  12.404
63170W        W34896  22.670   6.185  13.324
63171W        W34897   0.248   0.452   0.856
63172W        W34898  15.710  14.237   3.761
63173W        W34899  21.775  16.607  14.925
63174W        W34900  15.847  37.698   5.269
63175W        W34901  40.785  27.056  14.260
63176W        W34902  34.810  33.616  11.264
63177W        W34903  15.211  17.834  12.818
63178W        W34904  38.585  36.308  12.511
63179W        W34905   0.843  18.035   0.980
63180W        W34906  11.077   1.474   0.159
63181W        W34907  33.456  21.037  12.057
63182W        W34908  14.238  37.352   4.654
63183W        W34909  31.560  41.391   1.269
63184W        W34910  28.361  26.972  13.841
63185W        W34911  14.690  18.781  13.989
63186W        W34912  42.795  25.057  12.501
63187W        W34913  14.103   9.279  10.577
63188W        W34914   3.045  36.843  14.034
63189W        W34915  18.216   9.626  12.678
63190W        W34916  37.869   8.209   0.710
63191W        W34917   5.160  37.212   1.320
63192W        W34918  35.606   4.225   1.803
63193W        W34919   7.250  35.020   4.294
63194W        W34920  20.931  17.261   3.562
63195W        W34921  40.865  40.401   4.101
63196W        W34922  35.147  33.324  14.988
63197W        W34923  30.702  29.642  11.198
63198W        W34924  30.341  18.753   4.297
63199W        W34925  20.773   4.012  12.015
63200W        W34926  36.557   0.397  14.934
63201W        W34927   2.321   6.408  12.812
63202W        W34928  23.958  29.609  13.793
63203W        W34929  41.411  22.941  12.929
63204W        W34930  37.714  36.090  11.993
63205W        W34931   1.245  23.968   4.158
63206W        W34932   2.168  20.099  14.909
63207W        W34933  44.517  38.231   3.115
63208W        W34934   4.873  24.931  13.356
63209W        W34935   1.795  42.984  13.409
63210W        W34936  26.291  16.521  14.906
63211W        W34937  25.754  12.358  13.481
63212W        W34938   4.765  35.168  10.702
63213W        W34939  26.588   1.975  10.358
63214W        W34940  29.566  37.934   3.203
63215W        W34941  30.619  41.513  14.864
63216W        W34942   9.846   5.495  10.800
63217W        W34943   0.057  22.538  14.296
63218W        W34944  39.411  27.304   0.272
63219W        W34945  34.369  22.836   4.076
63220W        W34946  38.846   9.695  11.491
63221W        W34947  11.225  19.531   0.259
63222W        W34948  40.249  31.148  12.442
63223W        W34949  10.532  29.503   4.058
63224W        W34950  37.586  14.735   3.302
63225W        W34951  41.510   8.705   4.051
63226W        W34952  32.472  11.603   0.372
63227W        W34953  24.508  32.022   1.067
63228W        W34954   3.796  32.945  11.167
63229W        W34955  34.747  32.011  14.009
63230W        W34956  42.575  30.377  12.808
63231W        W34957  30.063  43.509  10.349
63232W        W34958  34.913   9.997  11.662
63233W        W34959  23.470   1.315  12.064
63234W        W34960  10.629  27.963   3.405
63235W        W34961  38.338  24.714   1.526
63236W        W34962  21.535  38.973  13.489
63237W        W34963  34.325  32.575   3.983
63238W        W34964  16.819  23.055   3.202
63239W        W34965  35.450   5.432   1.584
63240W        W34966  26.073   8.318  11.143
63241W        W34967  11.164  42.867  12.837
63242W        W34968  32.678  43.092   4.055
63243W        W34969   0.857  41.305  11.188
63244W        W34970  17.722  18.554   1.269
63245W        W34971  21.599  29.538   2.730
63246W        W34972   3.330  27.069  10.878
63247W        W34973  43.529  37.016  13.324
63248W        W34974   3.207   4.404   3.453
63249W        W34975  40.521   4.287  14.452
63250W        W34976  30.155  33.858   0.700
63251W        W34977  19.382   7.767   3.665
63252W        W34978  27.982  38.335  10.986
63253W        W34979   2.899  36.978   3.810
63254W        W34980  43.518   3.642   1.911
63255W        W34981  38.812   5.388   3.074
63256W        W34982   6.365  22.792   3.701
63257W        W34983   1.011  38.281  12.504
63258W        W34984  34.854  16.085  14.230
63259W        W34985  38.122  26.058   4.702
63260W        W34986  25.455  31.361   3.812
63261W        W34987  29.859  40.279  12.907
63262W        W34988   7.669  24.557  11.005
63263W        W34989   3.932  18.148  13.931
63264W        W34990  35.668  36.104   2.720
63265W        W34991  16.568  38.551  12.855
63266W        W34992  14.641  31.050   4.583
63267W        W34993  32.135   6.311   2.805
63268W        W34994  44.385  10.424   2.697
63269W        W34995  20.618  31.839  12.391
63270W        W34996  35.871   6.377  14.901
63271W        W34997  11.085  40.601   4.524
63272W        W34998  36.672  17.841   1.629
63273W        W34999  28.259  39.307  13.345
63274W        W35000  23.056  20.959   2.720
63275W        W35001  40.383  23.514   1.315
63276W        W35002  30.951  36.923  10.718
63277W        W35003  40.840  27.483  13.553
63278W        W35004  11.783  41.852   3.169
63279W        W35005  32.776  44.999   2.190
63280W        W35006  34.286  23.784   4.589
63281W        W35007  26.454   0.767   0.061
63282W        W35008   2.360   1.602   2.763
63283W        W35009  31.706   9.153   3.838
63284W        W35010  39.784  29.121   4.124
63285W        W35011   5.383  44.983  13.025
63286W        W35012  29.365  44.753   2.089
63287W        W35013   7.841   1.348   0.150
63288W        W35014   2.791  43.195  12.007
63289W        W35015  30.417  22.132   3.218
63290W        W35016  19.502  31.308   0.539
63291W        W35017  17.284  18.880  11.199
63292W        W35018  39.776   1.284  10.943
63293W        W35019  10.726  13.236  10.884
63294W        W35020  31.106  33.628  11.179
63295W        W35021  25.956   7.264   4.616
63296W        W35022  43.430   6.224  13.816
63297W        W35023  33.941  13.192   1.595
63298W        W35024  24.360  39.958   2.325
63299W        W35025   2.298  12.062   4.946
63300W        W35026  38.038  23.704  12.481
63301W        W35027   4.709   3.167  14.313
63302W        W35028   4.670  37.088   2.226
63303W        W35029  28.880  19.652  11.834
63304W        W35030   9.384  16.652  12.410
63305W        W35031  13.023  44.392  13.338
63306W        W35032  20.647   4.738   3.061
63307W        W35033  38.938  30.706  10.251
63308W        W35034  22.218  29.696  10.530
63309W        W35035   8.096  14.554   4.203
63310W        W35036  18.252  10.434   0.880
63311W        W35037  34.756   9.244  14.909
63312W        W35038  36.547   9.094  13.529
63313W        W35039  18.567  13.221  14.353
63314W        W35040  32.328  24.653   1.267
63315W        W35041  19.936  10.688   4.508
63316W        W35042  38.124   2.997  13.880
63317W        W35043   3.646   3.428   4.174
63318W        W35044  18.579   2.814  11.264
63319W        W35045  30.214  13.864  11.197
63320W        W35046  15.735   8.556  14.410
63321W        W35047   4.188   7.673   3.444
63322W        W35048  44.764  44.756  14.870
63323W        W35049  33.395  43.899  13.536
63324W        W35050  15.053  41.775  14.912
63325W        W35051  30.860   0.951   4.251
63326W        W35052  23.637  12.255   5.417
63327W        W35053  22.147  39.141   4.157
63328W        W35054  33.358  40.164   4.732
63329W        W35055   7.892   1.957   2.264
63330W        W35056  33.458  24.606  14.423
63331W        W35057   8.909  14.195  12.335
63332W        W35058  11.201  39.047  12.129
63333W        W35059  12.615  38.208   3.905
63334W        W35060  19.581  29.452  14.071
63335W        W35061  17.717   3.912  11.735
63336W        W35062  16.844  40.822   0.849
63337W        W35063  25.612  11.377  13.764
63338W        W35064  23.623  15.883   0.235
63339W        W35065  15.926  24.657   5.188
63340W        W35066  35.375   6.853  14.735
63341W        W35067  21.031   6.099  13.443
63342W        W35068   0.524  26.271  10.964
63343W        W35069   0.639   2.465   1.351
63344W        W35070  17.239   3.611  13.337
63345W        W35071  16.966   8.975  12.000
63346W        W35072  33.993  29.421   0.724
63347W        W35073  37.061  29.109  13.183
63348W        W35074  26.768  16.745  12.030
63349W        W35075  35.686   7.751   1.477
63350W        W35076   5.912  26.802  10.108
63351W        W35077  28.409  44.996  12.407
63352W        W35078  42.279   5.196   1.852
63353W        W35079   7.848  35.836   3.616
63354W        W35080   4.457  29.953  11.979
63355W        W35081  38.859  39.615  12.956
63356W        W35082   8.185  15.760   2.277
63357W        W35083  17.208  30.463   0.188
63358W        W35084  22.541  11.415   0.823
63359W        W35085   8.096  35.634   1.823
63360W        W35086   9.198  20.495  11.600
63361W        W35087   7.719   6.381  13.862
63362W        W35088  23.456  28.787  10.594
63363W        W35089   1.217  42.086  14.752
63364W        W35090  35.358   0.488   0.397
63365W        W35091  22.135  27.705   5.139
63366W        W35092  12.676  33.917   0.301
63367W        W35093  20.021   0.995   2.277
63368W        W35094  43.794  44.012   3.977
63369W        W35095  37.469  33.004   4.112
63370W        W35096   8.836   0.923   3.539
63371W        W35097  16.302  24.144   2.719
63372W        W35098  12.807  28.724  14.449
63373W        W35099  23.966  10.282   3.329
63374W        W35100  15.614  22.974   0.521
63375W        W35101  32.631   3.687  12.454
63376W        W35102  35.525  37.176  12.571
63377W        W35103  31.524   4.734   2.799
63378W        W35104   8.839  18.842  13.347
63379W        W35105   6.399  44.435   2.388
63380W        W35106   9.158  20.207  12.089
63381W        W35107   4.577  27.680  13.887
63382W        W35108  30.607   0.904   2.699
63383W        W35109  19.766  40.011   1.708
63384W        W35110   9.286  42.569  12.167
63385W        W35111  31.181   1.498  11.563
63386W        W35112  28.094   7.449  13.125
63387W        W35113  43.878  42.627  11.646
63388W        W35114  21.634  29.070  12.003
63389W        W35115  33.415   8.741  14.886
63390W        W35116  11.748  42.466  12.422
63391W        W35117  21.476   8.920   0.228
63392W        W35118   6.401  43.889   1.697
63393W        W35119  10.291  20.872  11.929
63394W        W35120  39.756   2.283   4.246
63395W        W35121  33.576  35.473  10.313
63396W        W35122  21.170  24.904  12.278
63397W        W35123  29.928  25.983  10.540
63398W        W35124  13.732  15.999   3.684
63399W        W35125  36.256  35.387   3.704
63400W        W35126  20.752   4.493  14.579
63401W        W35127  39.442  14.320   4.111
63402W        W35128  32.174  42.098  14.265
63403W        W35129   6.091  30.338  13.464
63404W        W35130  22.687   1.176   2.152
63405W        W35131  26.221  37.169  11.091
63406W        W35132  39.880  44.584  10.987
63407W        W35133  27.601   1.698  13.381
63408W        W35134  43.843  12.294   3.135
63409W        W35135  29.622  11.121  14.042
63410W        W35136  16.070  34.672  12.391
63411W        W35137   5.191  13.371  11.491
63412W        W35138  19.972  31.373  12.888
63413W        W35139  15.749  27.660   2.164
63414W        W35140  40.407  19.771  10.949
63415W        W35141  21.803  11.879  13.438
63416W        W35142   3.305  37.462  13.395
63417W        W35143   5.796   7.240  14.428
63418W        W35144  15.308  39.814   2.627
63419W        W35145   6.126  20.994   2.872
63420W        W35146   0.755   2.000  14.337
63421W        W35147   4.163  21.981  12.633
63422W        W35148  33.558  10.913  14.273
63423W        W35149  10.932  38.553  12.849
63424W        W35150  21.238   7.251   2.403
63425W        W35151  15.242  21.010  10.983
63426W        W35152   2.942  29.870   2.258
63427W        W35153  31.926  38.425  14.535
63428W        W35154  32.177  13.792   0.983
63429W        W35155  19.169  27.919  10.993
63430W        W35156  34.850   4.333  13.782
63431W        W35157  15.749  24.162  10.979
63432W        W35158   5.759  12.814  14.563
63433W        W35159  33.568  14.562  13.143
63434W        W35160  35.960  44.960   4.891
63435W        W35161  37.883  35.021   3.210
63436W        W35162  13.330  41.828  13.425
63437W        W35163  31.639   9.176   1.288
63438W        W35164  12.751  24.514   4.018
63439W        W35165   5.848  10.520   3.599
63440W        W35166  11.939  37.518  11.580
63441W        W35167   4.065  14.083   3.195
63442W        W35168   8.327   5.611   3.656
63443W        W35169   1.960  13.107   1.261
63444W        W35170   2.821  13.248  14.830
63445W        W35171  19.983  20.880   3.810
63446W        W35172  28.058  43.384   0.743
63447W        W35173   1.055  13.965  14.479
63448W        W35174  28.217  36.821   0.437
63449W        W35175  25.022  26.887  13.397
63450W        W35176  33.026  14.860  12.524
63451W        W35177  36.566  24.883  10.410
63452W        W35178   1.069  29.145  12.105
63453W        W35179  20.016   1.464   4.498
63454W        W35180  33.475   4.383  11.000
63455W        W35181  30.967   7.716  13.904
63456W        W35182  42.687   4.786   2.871
63457W        W35183  10.942  18.266   3.673
63458W        W35184  32.571  44.514   2.775
63459W        W35185  12.607  36.497   2.385
63460W        W35186  40.010  15.261  11.118
63461W        W35187  19.071  31.572  13.277
63462W        W35188  41.125  13.125  13.861
63463W        W35189  43.303   2.945  14.435
63464W        W35190   2.502   6.384  11.598
63465W        W35191   4.881  16.043  13.414
63466W        W35192  27.561  22.223  13.535
63467W        W35193  37.303  12.316  11.142
63468W        W35194   0.174   2.149   3.579
63469W        W35195  43.447   2.688   2.351
63470W        W35196  44.472  39.329  11.161
63471W        W35197  37.169  17.690   4.417
63472W        W35198  35.831  37.502  14.538
63473W        W35199  32.438   5.355   0.210
63474W        W35200  18.529   5.708   0.871
63475W        W35201  11.208  42.439   0.804
63476W        W35202   6.923  11.751   3.683
63477W        W35203  21.388  17.051  12.005
63478W        W35204  21.370  38.664   5.036
63479W        W35205   6.877   3.285   0.541
63480W        W35206  40.802  31.171  11.265
63481W        W35207  33.968   0.717  10.615
63482W        W35208   2.749  44.168   0.946
63483W        W35209  36.480  37.457  11.512
63484W        W35210  20.069  40.987   5.121
63485W        W35211   9.291  11.133   0.268
63486W        W35212  30.089   0.369  14.523
63487W        W35213  23.674  29.700   3.203
63488W        W35214  44.938  29.985   4.889
63489W        W35215  14.167  26.741   3.786
63490W        W35216  32.692  39.056  10.763
63491W        W35217  23.995  28.705  13.422
63492W        W35218   6.882   9.700  10.737
63493W        W35219  39.897   5.797  10.951
63494W        W35220   8.605   9.411   3.444
63495W        W35221  28.500  22.255   2.191
63496W        W35222  30.140   9.100   0.442
63497W        W35223   7.123  31.050   3.171
63498W        W35224  42.202  24.994   1.277
63499W        W35225  29.633  39.407  12.650
63500W        W35226  40.789   2.375  13.343
63501W        W35227  22.758  16.572  11.456
63502W        W35228  29.404  33.620  12.583
63503W        W35229  11.116  18.639   1.734
63504W        W35230  42.405  27.125  13.968
63505W        W35231  12.779  35.035  11.080
63506W        W35232  32.134  35.866  14.989
63507W        W35233  11.418  23.656  11.517
63508W        W35234  32.017   3.779  10.725
63509W        W35235  25.720   9.888   1.081
63510W        W35236   5.889  21.154  14.018
63511W        W35237  11.606  13.856  12.492
63512W        W35238  41.396  19.693  11.455
63513W        W35239  38.308  19.239  10.698
63514W        W35240  22.095  38.478   3.398
63515W        W35241  39.207   6.200  13.018
63516W        W35242   0.426  13.121  10.500
63517W        W35243   9.651  14.803   0.878
63518W        W35244  17.162  16.648  12.531
63519W        W35245   2.282   8.305   1.316
63520W        W35246   0.698  26.926  11.688
63521W        W35247  33.589  21.617   3.878
63522W        W35248  22.144  22.410  10.472
63523W        W35249  21.038  16.809  13.112
63524W        W35250  39.270  14.405  11.961
63525W        W35251  18.067  28.403   0.229
63526W        W35252  17.128  22.740  10.757
63527W        W35253  35.064  28.645  12.057
63528W        W35254  34.033  15.312  11.209
63529W        W35255  42.569  22.297  12.042
63530W        W35256  36.435  30.502  11.906
63531W        W35257  26.465  22.467   0.421
63532W        W35258  14.217  29.234  14.312
63533W        W35259  29.197   5.200   0.780
63534W        W35260  11.637  37.945  11.975
63535W        W35261  30.453  32.590  13.989
63536W        W35262  32.972   2.828  13.918
63537W        W35263  33.951   5.717   2.173
63538W        W35264  44.347  29.405  10.297
63539W        W35265  25.998  31.260  13.084
63540W        W35266  22.135   3.810  12.426
63541W        W35267   8.298  35.599   3.644
63542W        W35268  42.338  31.885  11.166
63543W        W35269  37.756   5.749  14.795
63544W        W35270  18.047   5.698  14.950
63545W        W35271  27.500  34.474   3.658
63546W        W35272  17.605  37.514  13.819
63547W        W35273  16.677   6.794  12.409
63548W        W35274  44.306   0.930   3.866
63549W        W35275  20.600  27.654   4.043
63550W        W35276  14.756   7.272  11.732
63551W        W35277  18.304  11.358   3.736
63552W        W35278  29.749  23.133  11.123
63553W        W35279  20.964  35.944   3.673
63554W        W35280  32.087  17.745   2.767
63555W        W35281  28.160  27.477   2.338
63556W        W35282   8.917  31.607  12.008
63557W        W35283  20.485  16.577   2.350
63558W        W35284  21.607  40.006  11.955
63559W        W35285   4.001  26.078   3.075
63560W        W35286  30.086   8.928   1.774
63561W        W35287  18.231  26.411  10.904
63562W        W35288  15.361  42.921  11.648
63563W        W35289  15.654  11.395  12.117
63564W        W35290   0.034  11.237   0.449
63565W        W35291   2.310  25.462  13.281
63566W        W35292  27.048  36.981  13.837
63567W        W35293  31.611  25.718  11.146
63568W        W35294  17.730  28.680   4.447
63569W        W35295  42.835  19.151  13.455
63570W        W35296  29.382  27.114   4.346
63571W        W35297  16.577   6.353  12.130
63572W        W35298   6.184   5.219  10.041
63573W        W35299  41.386  35.565   4.274
63574W        W35300   8.657  38.509  12.884
63575W        W35301   0.988  15.392  11.584
63576W        W35302  30.589  16.042  12.247
63577W        W35303  10.133  17.274  12.403
63578W        W35304   0.299   5.695   3.813
63579W        W35305  38.385  37.900  13.579
63580W        W35306   7.010  40.403  11.567
63581W        W35307  19.496  26.449   3.119
63582W        W35308  21.929  43.241  12.477
63583W        W35309  41.302  13.311   4.384
63584W        W35310  10.208  36.873   4.607
63585W        W35311  32.434  22.595   3.027
63586W        W35312  18.626  37.855   0.948
63587W        W35313  32.700   6.797  11.771
63588W        W35314   8.524  35.481  12.940
63589W        W35315  23.965  31.739   3.681
63590W        W35316  12.364  30.933   3.141
63591W        W35317  40.529  28.430   3.418
63592W        W35318  10.526  23.115  12.802
63593W        W35319  28.903  13.977   5.063
63594W        W35320  14.673  11.891   1.709
63595W        W35321  34.991  17.148   2.876
63596W        W35322  24.448   3.843  12.222
63597W        W35323   6.693  37.913   1.548
63598W        W35324  31.435   1.729  14.982
63599W        W35325   7.670  34.833   5.505
63600W        W35326  35.081  16.257   1.977
63601W        W35327  24.691  24.726   3.637
63602W        W35328  25.514   0.294   4.171
63603W        W35329  22.598  37.139   1.155
63604W        W35330  15.899  16.648   1.569
63605W        W35331  29.410  17.076   0.480
63606W        W35332  12.205   7.320   0.955
63607W        W35333  14.061  22.221   0.830
63608W        W35334  16.193  44.892  14.002
63609W        W35335   3.941   2.807  10.763
63610W        W35336  37.037  35.130  12.656
63611W        W35337  32.637  14.222   1.476
63612W        W35338   7.101   6.018  12.904
63613W        W35339  30.153  13.616   0.837
63614W        W35340  33.402  44.006  10.998
63615W        W35341  21.771  22.775  10.266
63616W        W35342  21.514  19.196   0.879
63617W        W35343  11.891  18.219   4.913
63618W        W35344  11.744  34.879  13.237
63619W        W35345   4.974   4.445   3.690
63620W        W35346  24.289   6.235   3.172
63621W        W35347   3.259  19.403  14.697
63622W        W35348   1.729   7.472  11.890
63623W        W35349  14.016  19.160  12.184
63624W        W35350  14.337  30.848  12.618
63625W        W35351  17.214   6.163  12.926
63626W        W35352  19.272  26.422   1.602
63627W        W35353  42.358   0.822   3.676
63628W        W35354  41.745  35.878   0.453
63629W        W35355  29.980   3.547   1.592
63630W        W35356  26.176  30.691  12.429
63631W        W35357   9.503  22.027   5.369
63632W        W35358  27.254  36.871  11.639
63633W        W35359  31.776   4.160  13.567
63634W        W35360  12.240  13.264  12.018
63635W        W35361  12.091  30.055  10.441
63636W        W35362  30.937  31.428   3.219
63637W        W35363  40.780   9.838  13.344
63638W        W35364  10.928  10.828  13.036
63639W        W35365  25.715  14.854  14.239
63640W        W35366  12.282  35.141  14.214
63641W        W35367  44.061  10.274   0.040
63642W        W35368  15.272  26.634   1.474
63643W        W35369  40.916   8.172   2.189
63644W        W35370  40.509   6.408   1.965
63645W        W35371  24.699  39.012  12.865
63646W        W35372  33.501  25.165   0.910
63647W        W35373   7.319  38.870  13.933
63648W        W35374  43.865  37.448   1.956
63649W        W35375  18.274  44.769  12.561
63650W        W35376  22.338   0.449   1.815
63651W        W35377  12.166  41.047   4.284
63652W        W35378  43.889   4.537  12.844
63653W        W35379  40.771  31.902  13.863
63654W        W35380  23.979  31.162  14.856
63655W        W35381  27.448  11.265   4.264
63656W        W35382  28.546  24.779  14.446
63657W        W35383  36.476  28.916  10.675
63658W        W35384   9.363   7.258   4.645
63659W        W35385  29.946  18.036  12.600
63660W        W35386  32.476  31.839  11.953
63661W        W35387  11.771  21.786  14.937
63662W        W35388  36.454  21.064  10.358
63663W        W35389  39.947  44.264  13.586
63664W        W35390  18.377  26.593   3.635
63665W        W35391  39.015  19.379   9.796
63666W        W35392  39.812  36.158   0.459
63667W        W35393  23.840  27.738   5.533
63668W        W35394  22.016  27.309   0.118
63669W        W35395  34.546  42.358   3.383
63670W        W35396  19.215  22.678  11.534
63671W        W35397  23.210   7.722   0.963
63672W        W35398  23.552  29.454  12.831
63673W        W35399  32.660  19.960   2.382
63674W        W35400  21.219   1.421  13.727
63675W        W35401  25.710  44.364   1.407
63676W        W35402  23.188  40.042  13.998
63677W        W35403  33.556  43.465  12.321
63678W        W35404  11.648  35.058  14.835
63679W        W35405  31.426   6.347  13.638
63680W        W35406  22.755  24.683  12.515
63681W        W35407  29.427  13.174  11.665
63682W        W35408  17.734  32.836   0.766
63683W        W35409  24.563  22.208   3.221
63684W        W35410  14.433  27.090  10.632
63685W        W35411  40.423  11.299   4.213
63686W        W35412  13.065  11.499   3.123
63687W        W35413  29.460   3.487   2.742
63688W        W35414  37.580  34.845   0.216
63689W        W35415  21.765  29.057   1.731
63690W        W35416  40.281  10.134   3.852
63691W        W35417  10.893  44.112  12.096
63692W        W35418  36.654  17.306  13.733
63693W        W35419  31.065  18.710  11.045
63694W        W35420  34.822   7.677   1.772
63695W        W35421  23.241  20.803  13.865
63696W        W35422  37.607  26.974   4.154
63697W        W35423  30.561  38.396   0.709
63698W        W35424   2.730  31.081   0.317
63699W        W35425  33.980   9.900   5.046
63700W        W35426   2.108  40.213   0.503
63701W        W35427  31.445  25.730   0.320
63702W        W35428  34.137  23.338   2.282
63703W        W35429  26.034   4.474   2.947
63704W        W35430  33.596  24.279  14.799
63705W        W35431  10.602   2.441   0.842
63706W        W35432  18.252  41.521  13.431
63707W        W35433  31.055  23.435   1.469
63708W        W35434  31.888   4.877   0.780
63709W        W35435  40.798  39.366   3.359
63710W        W35436  21.567  39.415  14.739
63711W        W35437  12.611  31.525   3.139
63712W        W35438  10.624  17.021  13.984
63713W        W35439  29.945   8.400  14.350
63714W        W35440  23.998   6.742  11.870
63715W        W35441  18.691  43.293   1.994
63716W        W35442  36.688  19.197   0.540
63717W        W35443  18.609  37.511  13.553
63718W        W35444   9.450  41.426  13.928
63719W        W35445  13.564  27.144  12.048
63720W        W35446  21.765  35.665  12.817
63721W        W35447  15.743  22.140   3.656
63722W        W35448   4.338  17.217   1.125
63723W        W35449   4.458  26.021   3.341
63724W        W35450  38.558  17.114   0.815
63725W        W35451  35.658   3.893  14.001
63726W        W35452  24.575   5.389   1.880
63727W        W35453  44.430  34.675  13.980
63728W        W35454  37.894  34.065   1.859
63729W        W35455  14.842  35.541  11.596
63730W        W35456  33.290  27.538  11.984
63731W        W35457   5.560  44.202  14.673
63732W        W35458   1.697  40.062  12.885
63733W        W35459  26.449  31.591  11.918
63734W        W35460  12.103  37.378   2.756
63735W        W35461  37.548  33.532   0.064
63736W        W35462  35.495  35.463  13.809
63737W        W35463  23.082  26.102  11.668
63738W        W35464   8.813  38.028  12.775
63739W        W35465  16.364  10.230  12.070
63740W        W35466  23.921   0.329  10.230
63741W        W35467  32.381  34.377  13.126
63742W        W35468  13.690  15.627  11.469
63743W        W35469  22.662  20.798   1.859
63744W        W35470  30.872  33.936   2.249
63745W        W35471  10.569   6.850   3.142
63746W        W35472   0.922   8.713  12.391
63747W        W35473  39.705  30.631  11.193
63748W        W35474  43.439  24.756   0.287
63749W        W35475  37.060   9.513   1.350
63750W        W35476  17.218  34.920   0.284
63751W        W35477  39.182   5.835   0.903
63752W        W35478  10.236   3.913  10.882
63753W        W35479   5.519  12.267   2.367
63754W        W35480   1.842  35.564  10.684
63755W        W35481  25.138  25.490  12.950
63756W        W35482   5.749  25.033  13.403
63757W        W35483   5.289   6.715   1.304
63758W        W35484  25.177  27.495   4.237
63759W        W35485  26.868  14.459  11.169
63760W        W35486  31.495  30.443   2.454
63761W        W35487  16.552   8.869  13.379
63762W        W35488  15.163  35.347   4.097
63763W        W35489  17.181   6.457   4.985
63764W        W35490  27.036  33.953  12.997
63765W        W35491  19.596  11.789  14.457
63766W        W35492  40.828  28.639  14.484
63767W        W35493  13.723  26.232  14.072
63768W        W35494  30.998  42.460  11.791
63769W        W35495  31.854  16.575   4.465
63770W        W35496   6.388   2.502   0.795
63771W        W35497  44.332  39.138  14.960
63772W        W35498  31.071   4.713  12.852
63773W        W35499   6.977  25.258   4.120
63774W        W35500  40.902  42.124  12.518
63775W        W35501   6.513  36.136   1.478
63776W        W35502  19.254  27.324  10.277
63777W        W35503  22.242  29.699   1.246
63778W        W35504   4.326  41.000  12.529
63779W        W35505   5.309  34.542   0.415
63780W        W35506   0.265   5.499  13.473
63781W        W35507  19.658  24.608  14.850
63782W        W35508  19.049  43.374  12.983
63783W        W35509  22.062  14.066   0.485
63784W        W35510   1.458  18.575   1.913
63785W        W35511  12.668  26.080  14.390
63786W        W35512  27.689  26.774   4.614
63787W        W35513  25.283  35.591  11.138
63788W        W35514  36.884   8.012  14.523
63789W        W35515   6.535  21.170  11.657
63790W        W35516  35.086   1.527  13.891
63791W        W35517  24.758  21.658  12.164
63792W        W35518  42.996  14.328   2.849
63793W        W35519   4.859   5.258   0.807
63794W        W35520  24.596  11.391  12.145
63795W        W35521  10.705  22.330  11.633
63796W        W35522  16.925  36.466  10.658
63797W        W35523  11.593   1.232   0.310
63798W        W35524  35.329   9.322  12.121
63799W        W35525   0.838  11.419  10.795
63800W        W35526  30.029  43.501   0.470
63801W        W35527   9.196  31.542  11.572
63802W        W35528  41.570  34.110  12.406
63803W        W35529   8.586  29.796   4.544
63804W        W35530  16.668  18.771   1.868
63805W        W35531  35.432  28.192   4.271
63806W        W35532  25.630  25.719  12.954
63807W        W35533  40.617  23.452  13.142
63808W        W35534   8.859  29.050   0.481
63809W        W35535  14.751   8.149  12.998
63810W        W35536  12.302  40.940  13.838
63811W        W35537  42.145  35.961   2.809
63812W        W35538  43.929  42.071   3.323
63813W        W35539  28.329  32.420  11.099
63814W        W35540   7.599  32.038  12.066
63815W        W35541  17.753  43.323   3.364
63816W        W35542  38.072  36.880   0.829
63817W        W35543   3.244  25.509  14.177
63818W        W35544  32.563  15.068  12.398
63819W        W35545  36.826  11.733   1.388
63820W        W35546  27.570   7.661  13.354
63821W        W35547   5.336   5.745   0.178
63822W        W35548  20.581  28.588   4.327
63823W        W35549  39.061   2.677  11.375
63824W        W35550  32.628  35.499   2.688
63825W        W35551   0.043   6.750  11.199
63826W        W35552   1.162   9.221   1.991
63827W        W35553   3.722  19.693   4.978
63828W        W35554   1.000  31.079  13.501
63829W        W35555   5.668  33.598   4.967
63830W        W35556  17.721  36.447  14.970
63831W        W35557  26.741  22.161  14.259
63832W        W35558  11.330  21.043  11.488
63833W        W35559   6.247  26.505   4.717
63834W        W35560   2.842  10.766   2.436
63835W        W35561  26.046  44.885   0.332
63836W        W35562  14.001  30.954   0.083
63837W        W35563  37.140  14.834   2.462
63838W        W35564   8.378  38.887   3.238
63839W        W35565  44.346  17.989   0.401
63840W        W35566  23.208  24.517   3.449
63841W        W35567  23.755  41.749   3.010
63842W        W35568  21.693  39.970   3.051
63843W        W35569  44.246  34.899  10.272
63844W        W35570   3.496  39.067   2.269
63845W        W35571   6.362  24.254   2.089
63846W        W35572   5.390  16.877  12.491
63847W        W35573  31.575  25.676   1.309
63848W        W35574  39.664   2.436   4.738
63849W        W35575  31.173  19.739   1.145
63850W        W35576  30.634  19.128   0.792
63851W        W35577  31.616  41.513  10.321
63852W        W35578  12.370  22.029   0.526
63853W        W35579  44.027   5.792   1.651
63854W        W35580  44.883  31.808   4.789
63855W        W35581   7.223  44.039   3.480
63856W        W35582  18.795  28.992   1.816
63857W        W35583  34.953  43.687   0.480
63858W        W35584  39.922  18.224   2.708
63859W        W35585  33.804  20.253  12.700
63860W        W35586  14.271   4.736  12.939
63861W        W35587   6.288  16.085  13.408
63862W        W35588  29.193  28.952  11.601
63863W        W35589  40.692  21.646   3.836
63864W        W35590  30.426  18.045   4.628
63865W        W35591  21.525   6.265  11.117
63866W        W35592  10.135  18.140   2.633
63867W        W35593   2.730  22.660  14.735
63868W        W35594  32.973  23.421   3.841
63869W        W35595   0.033  11.143  11.226
63870W        W35596  37.377   7.257   2.731
63871W        W35597  18.059  27.309  11.125
63872W        W35598   6.886  41.593   1.331
63873W        W35599  43.709   2.038  11.552
63874W        W35600  41.838  24.500  10.735
63875W        W35601  29.495  34.165  14.486
63876W        W35602   8.499  31.674   3.139
63877W        W35603   2.408  39.459  14.345
63878W        W35604  30.142   4.839  14.907
63879W        W35605  14.640   7.233  12.217
63880W        W35606  11.817  15.111   0.488
63881W        W35607  36.658  35.546  10.797
63882W        W35608   6.836  43.315  14.082
63883W        W35609  39.867  26.203   1.446
63884W        W35610  31.567  34.889  11.184
63885W        W35611   3.908  11.177  12.902
63886W        W35612   7.729  25.064  11.572
63887W        W35613  18.160   3.354  10.669
63888W        W35614   8.793  27.802  14.891
63889W        W35615   4.947   4.887   1.423
63890W        W35616  13.721  17.922   0.266
63891W        W35617   6.727   5.672  14.120
63892W        W35618  19.762  32.974  10.450
63893W        W35619   2.528  21.087   3.594
63894W        W35620  33.316   2.000   0.960
63895W        W35621  40.798   7.366   0.396
63896W        W35622  17.713   9.854  12.034
63897W        W35623   1.268  36.454  11.096
63898W        W35624  25.095  39.218  11.449
63899W        W35625  44.816  28.589  10.889
63900W        W35626   5.816  18.583   0.199
63901W        W35627  15.705  30.949   2.586
63902W        W35628  29.058  24.087   5.194
63903W        W35629  37.537  35.600  11.979
63904W        W35630   6.908  24.987  12.497
63905W        W35631  24.604  41.777  11.145
63906W        W35632   6.267  13.696  12.091
63907W        W35633  25.689  17.540  12.091
63908W        W35634  41.931  19.213   2.657
63909W        W35635  23.057  28.539   0.470
63910W        W35636  24.053  30.298  14.405
63911W        W35637  25.448  36.056   3.585
63912W        W35638  44.071  11.632   0.731
63913W        W35639  43.501  11.393   2.697
63914W        W35640   3.658  18.242  13.503
63915W        W35641  12.446  40.853   2.828
63916W        W35642  20.433  33.935   3.240
63917W        W35643  14.522  34.969   2.414
63918W        W35644  33.450  27.741  11.147
63919W        W35645  31.332  22.235   0.601
63920W        W35646  24.853  10.325   4.153
63921W        W35647  39.325  42.869  12.917
63922W        W35648   2.180  24.972  13.126
63923W        W35649  43.446  41.787   3.244
63924W        W35650  29.097  33.822   3.403
63925W        W35651  21.689   1.456  14.306
63926W        W35652  13.828  22.832  12.124
63927W        W35653   6.278  41.456  12.965
63928W        W35654   3.877   1.227   0.404
63929W        W35655   9.964  33.097  12.037
63930W        W35656  12.731  19.558  13.550
63931W        W35657  41.472  18.847  11.163
63932W        W35658   5.477   8.629  12.953
63933W        W35659  44.550  34.065   2.813
63934W        W35660  38.264  29.557   0.046
63935W        W35661   8.752  35.418  12.483
63936W        W35662  34.979  38.461   4.607
63937W        W35663   9.107  38.107   1.334
63938W        W35664  27.473  18.648  14.125
63939W        W35665   6.092  16.589   3.186
63940W        W35666  30.371  43.826   0.818
63941W        W35667   5.387  36.123   2.593
63942W        W35668  40.904  38.032   4.482
63943W        W35669  29.932  39.533   4.633
63944W        W35670   6.470  20.169  13.368
63945W        W35671   8.273  39.933   3.182
63946W        W35672  40.742  33.440   3.309
63947W        W35673  16.045   6.780   4.135
63948W        W35674  43.387  32.053  14.780
63949W        W35675  30.047  33.073   1.247
63950W        W35676  24.080  10.653   4.698
63951W        W35677  41.394  26.444   5.107
63952W        W35678  28.507  36.565  13.552
63953W        W35679  41.603  33.307  10.271
63954W        W35680   3.397  39.652   0.837
63955W        W35681   1.688  37.000   2.385
63956W        W35682  43.198  17.536   1.304
63957W        W35683   9.597  32.493  11.892
63958W        W35684  14.697  17.976   0.410
63959W        W35685   6.966  16.378  13.007
63960W        W35686  41.612   5.871   2.156
63961W        W35687  12.002  22.512  14.489
63962W        W35688  32.957  43.948  11.289
63963W        W35689  19.674  26.111  14.939
63964W        W35690  37.842  32.029   1.873
63965W        W35691  14.356   1.827  12.113
63966W        W35692  27.472   5.806  12.926
63967W        W35693  44.086   8.873   3.200
63968W        W35694   0.275  18.095   4.587
63969W        W35695  31.597  34.346  14.433
63970W        W35696  36.121  13.575  14.023
63971W        W35697  13.453   6.279   1.723
63972W        W35698  30.014  25.482   0.747
63973W        W35699   4.243  12.395   4.366
63974W        W35700  21.227  40.990   0.786
63975W        W35701   9.211  17.198  11.519
63976W        W35702  27.143  34.824   3.816
63977W        W35703   1.785  27.713  14.358
63978W        W35704   1.434  21.499  11.236
63979W        W35705  21.955   9.131   4.903
63980W        W35706  37.271   1.909  10.817
63981W        W35707   9.655  14.518   0.436
63982W        W35708   8.821  26.000   2.062
63983W        W35709  36.340   3.947  13.505
63984W        W35710  30.766  27.689  14.486
63985W        W35711  39.472   8.625   0.080
63986W        W35712  24.646   3.244   3.673
63987W        W35713  31.083   7.146   0.770
63988W        W35714  32.939  25.076   0.786
63989W        W35715  32.336  21.797  13.936
63990W        W35716  16.948   9.582   0.961
63991W        W35717  22.124  15.289   0.998
63992W        W35718  26.683   4.982  11.595
63993W        W35719  39.609  36.544   4.552
63994W        W35720   6.705  26.041  13.268
63995W        W35721  44.361  41.564   4.436
63996W        W35722  20.209  17.199   4.192
63997W        W35723  41.837  33.047  11.183
63998W        W35724  22.782  42.609  12.536
63999W        W35725  33.870  26.966   4.556
64000W        W35726  42.953  27.530  12.186
64001W        W35727   9.934  28.958  11.578
64002W        W35728  10.133  12.376  14.962
64003W        W35729  27.173  13.496  12.064
64004W        W35730  31.173  35.148   2.478
64005W        W35731   5.262  30.483  12.880
64006W        W35732  14.903  37.058   0.312
64007W        W35733   9.256  37.058   4.572
64008W        W35734  21.066   9.883  13.439
64009W        W35735  23.094   8.403  10.617
64010W        W35736  27.616  15.054   1.700
64011W        W35737  20.449  27.510   0.777
64012W        W35738  28.859  38.609  14.086
64013W        W35739   4.310  36.386  10.968
64014W        W35740  27.163   5.153   2.141
64015W        W35741   0.791   2.326   0.847
64016W        W35742  32.478   1.312  11.245
64017W        W35743  43.598   9.843  11.860
64018W        W35744  24.131  31.481   1.838
64019W        W35745  21.086  36.928   4.873
64020W        W35746  30.664  18.862   1.240
64021W        W35747  40.470   1.003   3.025
64022W        W35748   5.160   6.507   4.042
64023W        W35749  21.799  15.726  13.038
64024W        W35750  28.515   5.922  11.849
64025W        W35751   6.190  44.378   0.414
64026W        W35752   6.483  23.770   4.260
64027W        W35753  17.238  10.795  12.953
64028W        W35754  36.988   6.439  13.473
64029W        W35755  21.054  43.335  11.484
64030W        W35756  25.324  43.938   2.624
64031W        W35757  28.379   3.482  13.075
64032W        W35758   4.413   1.116  11.087
64033W        W35759  41.062  30.306  12.915
64034W        W35760  36.913   3.733  12.298
64035W        W35761   7.486  29.521  14.215
64036W        W35762  36.991   8.817  13.375
64037W        W35763  33.135  33.570  11.796
64038W        W35764  32.341   5.336  11.989
64039W        W35765  28.651   5.454  14.413
64040W        W35766  10.364  25.662  13.004
64041W        W35767  38.925  17.263  10.623
64042W        W35768   2.412  19.076   3.191
64043W        W35769  23.155   5.018   4.662
64044W        W35770  38.060   0.436  14.795
64045W        W35771  17.124  20.921  14.370
64046W        W35772  16.041  37.456   9.771
64047W        W35773  20.289   7.303  13.904
64048W        W35774  21.617  37.561  12.513
64049W        W35775  40.502  39.217  11.440
64050W        W35776  28.950  35.011   0.911
64051W        W35777  18.250  15.675  12.146
64052W        W35778  16.168  19.015   0.398
64053W        W35779  13.194   3.905  13.093
64054W        W35780   7.254  20.148  12.388
64055W        W35781  35.326  38.971   3.781
64056W        W35782   5.607  28.458  10.661
64057W        W35783  11.705  25.938   0.502
64058W        W35784   2.207  41.536   2.815
64059W        W35785  13.372  14.385  13.514
64060W        W35786  41.785   9.807  13.328
64061W        W35787  34.986   8.884   4.078
64062W        W35788   0.191  25.699   0.945
64063W        W35789  17.508  11.498   0.954
64064W        W35790  39.325  25.627   2.832
64065W        W35791  31.364   6.914  12.966
64066W        W35792   0.280  36.118   1.646
64067W        W35793   8.722  19.241  11.207
64068W        W35794  13.888  37.944  10.402
64069W        W35795   4.427   5.984   4.119
64070W        W35796   6.700   4.781   1.655
64071W        W35797  12.821  43.821   4.874
64072W        W35798   2.818   7.399   3.950
64073W        W35799  25.408   8.884   2.284
64074W        W35800  25.881   8.268   2.765
64075W        W35801  25.579  26.289  14.073
64076W        W35802  15.394  15.943  14.878
64077W        W35803   5.929  10.753  12.567
64078W        W35804  23.501   1.970   1.450
64079W        W35805  32.431  35.167  12.732
64080W        W35806  26.974  20.053  10.641
64081W        W35807  14.718  42.092   1.255
64082W        W35808  24.417  25.072   1.257
64083W        W35809  17.531   8.356   0.883
64084W        W35810   9.680   1.593  11.669
64085W        W35811   7.522   6.748  13.071
64086W        W35812  16.120  22.501   3.142
64087W        W35813   1.001  41.992   2.307
64088W        W35814  15.138  31.412   2.841
64089W        W35815  30.980  18.125   2.055
64090W        W35816  42.285  14.089  12.095
64091W        W35817  29.951   2.148   4.093
64092W        W35818  31.078  30.107  14.884
64093W        W35819  19.181  36.478  11.918
64094W        W35820   0.235  26.146   3.278
64095W        W35821  27.719   9.481  11.525
64096W        W35822  33.068   3.472  12.558
64097W        W35823  31.193  37.844  11.468
64098W        W35824  30.573  23.496  13.591
64099W        W35825  40.893   8.865   9.938
64100W        W35826  20.726  13.733  14.550
64101W        W35827  43.329  41.910   0.561
64102W        W35828  13.030   4.494  12.022
64103W        W35829  34.979  23.040  14.983
64104W        W35830  39.346  25.695  13.266
64105W        W35831   9.232  23.107   1.347
64106W        W35832  30.658  16.061   4.604
64107W        W35833  19.527  18.128  14.003
64108W        W35834  36.049  13.257   3.282
64109W        W35835  28.585  39.785   2.810
64110W        W35836  24.101  12.311  13.927
64111W        W35837  11.244   3.197   0.522
64112W        W35838  25.061   1.665   0.423
64113W        W35839  16.890  32.600  14.734
64114W        W35840  17.100  38.706   3.786
64115W        W35841  37.122  37.331  13.400
64116W        W35842   0.384  27.020  10.565
64117W        W35843  24.875   6.885  14.842
64118W        W35844  39.221  34.568  14.942
64119W        W35845  11.168   1.773   2.861
64120W        W35846  26.077   0.284   1.668
64121W        W35847  41.138   2.995  11.631
64122W        W35848   4.164   9.223  14.473
64123W        W35849   9.718  40.599   1.349
64124W        W35850  10.193  25.114   3.308
64125W        W35851  10.179  26.496  13.564
64126W        W35852  41.701  34.956   4.200
64127W        W35853  11.463  23.163   3.123
64128W        W35854  10.626   3.570   4.960
64129W        W35855  27.896  39.627  13.170
64130W        W35856  35.654  20.323   0.048
64131W        W35857  23.929  24.166  11.092
64132W        W35858  21.048  37.773  12.749
64133W        W35859  23.797   2.829   1.473
64134W        W35860  39.607  25.457   1.907
64135W        W35861  22.540  33.950   3.666
64136W        W35862  19.746  37.082  14.971
64137W        W35863   7.689  16.233  14.529
64138W        W35864  35.483  14.672   4.651
64139W        W35865   7.780  25.172   1.846
64140W        W35866  11.118  11.078  13.473
64141W        W35867   3.683  32.457  14.002
64142W        W35868  44.570  28.307  14.176
64143W        W35869  43.723  43.254  12.582
64144W        W35870  10.279  23.547   3.065
64145W        W35871   2.615  14.999   0.453
64146W        W35872  10.874  20.085  11.124
64147W        W35873   3.849  29.093   0.462
64148W        W35874  32.526   5.693  14.792
64149W        W35875  33.913  10.730   3.107
64150W        W35876  15.339  15.828   3.139
64151W        W35877  42.299   5.208   4.101
64152W        W35878  16.599  15.254  11.623
64153W        W35879  14.199  33.291   0.764
64154W        W35880   9.195  10.971  12.618
64155W        W35881  32.422   9.306  11.064
64156W        W35882  42.455  39.503  13.152
64157W        W35883  31.902   7.231   2.739
64158W        W35884  38.957  40.219  12.482
64159W        W35885  24.804  23.144  11.095
64160W        W35886  27.985  37.294  10.991
64161W        W35887   5.891  13.916   0.964
64162W        W35888  40.964  27.656   4.806
64163W        W35889  14.793   0.431  13.452
64164W        W35890  25.284  36.463   2.304
64165W        W35891  27.017  44.903  14.721
64166W        W35892  15.517  26.568   2.321
64167W        W35893  14.354  43.291  13.921
64168W        W35894  27.955  33.577  13.224
64169W        W35895  23.302  39.758  11.536
64170W        W35896  39.834   2.024   2.691
64171W        W35897  34.332  11.477   0.302
64172W        W35898  37.041  15.522   1.771
64173W        W35899  10.022  43.748   4.810
64174W        W35900  37.046  24.798   0.271
64175W        W35901  10.829  35.563  13.336
64176W        W35902  11.869  13.931   1.736
64177W        W35903  21.239  27.097  11.489
64178W        W35904  41.155  24.666   4.387
64179W        W35905   5.131  17.260  10.676
64180W        W35906  32.391  11.071  11.451
64181W        W35907  24.630  28.163   2.253
64182W        W35908  36.900  35.097  10.526
64183W        W35909  26.742  38.491   3.289
64184W        W35910  20.779  14.380  11.424
64185W        W35911  34.048  16.552   2.378
64186W        W35912  24.799  44.445   0.380
64187W        W35913  22.764  44.246  12.429
64188W        W35914  35.624  38.823   1.851
64189W        W35915   4.596  44.367   5.066
64190W        W35916   7.357  44.997   0.210
64191W        W35917  12.666  18.751   4.454
64192W        W35918  14.454   5.159   1.854
64193W        W35919   6.925  14.846   0.281
64194W        W35920  34.004   8.024   3.187
64195W        W35921  17.734  40.009  11.936
64196W        W35922  27.243  34.549   3.199
64197W        W35923   3.299  15.302  11.522
64198W        W35924  23.790  10.239   4.338
64199W        W35925  24.445  37.886  13.299
64200W        W35926  20.038   0.631   3.732
64201W        W35927  37.757   8.379   0.210
64202W        W35928  41.614  20.645  12.092
64203W        W35929  13.010   9.097  13.111
64204W        W35930   3.106   2.121  12.360
64205W        W35931  42.047  38.241  11.234
64206W        W35932   5.956  17.898  11.990
64207W        W35933  17.163   4.368  14.446
64208W        W35934   0.057  23.665   4.674
64209W        W35935  38.821   3.453  10.628
64210W        W35936  15.065  22.637   3.683
64211W        W35937  12.761  40.267   4.071
64212W        W35938  13.336  35.798   3.401
64213W        W35939  30.122  26.021   5.466
64214W        W35940  36.936   5.402   2.800
64215W        W35941  26.585  22.538  11.223
64216W        W35942  44.472   2.811   4.381
64217W        W35943  20.718  41.940  10.539
64218W        W35944  42.988  28.378  11.124
64219W        W35945  27.038  43.454   4.320
64220W        W35946   0.048  18.559   0.877
64221W        W35947  14.909  11.868   2.262
64222W        W35948   7.348  14.543   2.654
64223W        W35949  20.859  36.931  13.043
64224W        W35950   6.765  32.905   0.713
64225W        W35951  13.866  17.480  14.969
64226W        W35952  18.187  37.676   0.468
64227W        W35953  13.697   8.847  13.802
64228W        W35954  29.718  13.317  13.103
64229W        W35955  32.329   8.709  14.455
64230W        W35956  22.713  39.153  11.890
64231W        W35957  11.254  28.849  10.495
64232W        W35958  25.150  28.174   1.628
64233W        W35959  44.485  28.990  10.015
64234W        W35960   4.703  23.268  13.908
64235W        W35961  37.831  41.993  10.932
64236W        W35962  30.328  28.391   2.363
64237W        W35963  21.243   2.698  14.455
64238W        W35964  28.426  22.748  10.140
64239W        W35965  33.525  19.130  10.721
64240W        W35966  16.632  23.782  13.764
64241W        W35967  16.159  30.580  10.739
64242W        W35968  34.934  23.408   0.353
64243W        W35969  34.159   3.101   2.759
64244W        W35970  10.286   7.335   2.435
64245W        W35971  10.385  38.819  12.566
64246W        W35972   1.737  11.958  12.981
64247W        W35973  12.564  34.117   3.397
64248W        W35974  10.237  28.096  14.876
64249W        W35975  14.018  37.014   0.903
64250W        W35976  17.665  43.373  10.887
64251W        W35977  37.772  18.177   4.727
64252W        W35978  43.496   1.229  14.984
64253W        W35979  22.641  14.513   1.878
64254W        W35980  43.852  26.773   0.407
64255W        W35981  36.891   4.316   4.150
64256W        W35982   2.478   7.262   1.325
64257W        W35983  21.958  26.109   0.405
64258W        W35984  34.904  24.557   4.441
64259W        W35985  10.876   0.987   4.652
64260W        W35986  21.869  19.928  14.843
64261W        W35987  24.872  40.767  10.810
64262W        W35988  22.104   3.397   3.305
64263W        W35989   7.695  41.864  13.047
64264W        W35990   8.761  10.144   1.699
64265W        W35991   6.666  17.150   4.064
64266W        W35992   9.164  13.804   3.417
64267W        W35993  43.933   8.959  13.812
64268W        W35994   3.287  44.767   2.914
64269W        W35995   6.200  28.015  11.114
64270W        W35996   2.899  15.575  10.723
64271W        W35997  27.993   7.334  10.179
64272W        W35998  38.612   1.352   3.775
64273W        W35999  14.383  43.751   2.663
64274W        W36000  28.586  20.555  12.843
64275W        W36001  24.724  12.447   3.728
64276W        W36002  24.482  37.915  14.922
64277W        W36003   8.817  37.512  10.255
64278W        W36004  25.177  18.160   0.499
64279W        W36005  14.575  21.260  13.462
64280W        W36006  38.982  34.664  10.124
64281W        W36007  22.725  28.851   5.042
64282W        W36008   2.497  28.378  12.780
64283W        W36009   1.369  22.150   1.681
64284W        W36010  30.086  10.723   1.742
64285W        W36011  42.472   3.257  11.155
64286W        W36012  16.382  25.115   3.600
64287W        W36013  32.633  43.336  14.571
64288W        W36014  33.192  43.697  13.957
64289W        W36015  43.741  23.306   1.821
64290W        W36016  37.475  44.703   2.839
64291W        W36017  41.539  27.079  14.836
64292W        W36018   5.007  38.005  11.031
64293W        W36019  28.595  33.095   4.635
64294W        W36020  27.667   4.256   0.792
64295W        W36021  25.751  26.026   3.165
64296W        W36022  22.999   8.065   0.568
64297W        W36023  23.410  10.078   2.747
64298W        W36024  33.166  25.708  12.461
64299W        W36025  35.316  13.702   1.962
64300W        W36026  35.801  32.621   2.419
64301W        W36027  29.993  41.873   0.473
64302W        W36028  39.293  28.512  11.199
64303W        W36029  21.109  29.196  14.389
64304W        W36030   2.202  38.580  14.272
64305W        W36031  39.985  35.882   1.810
64306W        W36032  18.932   6.659   0.442
64307W        W36033  21.734  22.176  10.747
64308W        W36034  10.419  11.294   3.305
64309W        W36035   2.390  31.494  12.919
64310W        W36036  14.094  40.243   3.297
64311W        W36037   3.148  25.109  10.251
64312W        W36038  18.141  28.767  12.611
64313W        W36039  31.529  29.364   3.246
64314W        W36040  38.706   0.748   0.687
64315W        W36041  25.578   5.533   1.244
64316W        W36042   0.782  33.163   0.199
64317W        W36043   9.417  22.234  14.827
64318W        W36044  24.717  27.585   3.695
64319W        W36045  13.952   8.062  12.559
64320W        W36046  20.185  30.976   0.777
64321W        W36047  25.606  42.578  11.145
64322W        W36048  43.544   0.768  13.249
64323W        W36049   3.856   5.148   1.802
64324W        W36050  30.949  23.579   3.746
64325W        W36051   7.101  29.639   2.995
64326W        W36052  10.654  12.680  13.092
64327W        W36053  42.345  43.140  10.501
64328W        W36054  31.491  44.550   0.759
64329W        W36055  18.576  20.986  11.556
64330W        W36056  42.574  38.870  14.736
64331W        W36057   1.855  28.654   4.109
64332W        W36058   3.965  40.263   1.655
64333W        W36059  30.848  26.208   1.122
64334W        W36060   1.942  42.862  14.761
64335W        W36061  28.217   2.902   0.869
64336W        W36062  14.767   8.097   0.747
64337W        W36063  31.092   5.837   2.868
64338W        W36064  42.156  10.854  14.925
64339W        W36065  11.686  15.192   2.834
64340W        W36066   5.160  12.203   3.667
64341W        W36067   6.345  23.995   5.035
64342W        W36068  10.278   5.929  11.574
64343W        W36069  23.852   2.347  14.325
64344W        W36070   2.709  37.959   2.154
64345W        W36071  21.183  12.742   0.936
64346W        W36072  35.796  41.955   3.073
64347W        W36073  12.161  26.722   4.300
64348W        W36074  14.744  37.349  10.651
64349W        W36075  16.108   8.496   3.780
64350W        W36076   3.799  37.898   4.879
64351W        W36077  17.601  24.081   4.557
64352W        W36078  37.245   6.470  12.994
64353W        W36079  32.539  31.474  13.818
64354W        W36080  18.159   6.984   1.279
64355W        W36081  18.300  31.105  14.009
64356W        W36082   3.518  38.845   4.110
64357W        W36083  22.228  30.731  11.136
64358W        W36084  16.053  33.521  13.608
64359W        W36085  14.429  16.141  14.735
64360W        W36086  37.960  10.771  13.576
64361W        W36087   5.948  37.718   2.099
64362W        W36088  22.774  10.183   4.407
64363W        W36089  23.553   9.747   4.153
64364W        W36090  20.445  41.545   2.026
64365W        W36091  40.008  11.406  13.821
64366W        W36092  23.310   6.982  13.017
64367W        W36093  21.371  14.844   9.435
64368W        W36094  41.388   3.204   1.314
64369W        W36095  18.781  29.602   3.411
64370W        W36096  14.081  16.827  11.966
64371W        W36097  39.637  42.010   4.766
64372W        W36098   5.219  38.949  10.857
64373W        W36099   8.836  26.488  11.386
64374W        W36100  40.573   3.683   1.190
64375W        W36101  42.468   0.003  10.733
64376W        W36102  13.361  20.254   4.607
64377W        W36103   5.727   9.213  13.357
64378W        W36104  44.731  39.376  12.975
64379W        W36105  42.078  30.420  12.850
64380W        W36106  27.966  44.232  11.634
64381W        W36107  43.282  12.091   3.766
64382W        W36108  40.179  10.687  12.569
64383W        W36109  42.400  29.637  11.948
64384W        W36110  41.268  44.557  14.501
64385W        W36111  15.762   4.371   3.399
64386W        W36112   8.006  31.588   4.140
64387W        W36113   3.481  26.539   0.543
64388W        W36114  14.554   2.806  13.929
64389W        W36115   6.922  22.988  12.454
64390W        W36116  24.733   1.270   1.820
64391W        W36117  20.263  12.263  12.897
64392W        W36118  42.485   2.645  12.840
64393W        W36119  26.519  44.648   3.842
64394W        W36120  38.607  11.809   2.693
64395W        W36121   9.278  27.969   1.042
64396W        W36122  41.276   3.294   2.284
64397W        W36123  19.051  29.517   0.328
64398W        W36124  40.930   3.435   1.492
64399W        W36125  17.392   8.737  12.810
64400W        W36126  27.005  41.756  14.470
64401W        W36127  40.948  32.947   1.792
64402W        W36128  34.356  27.298   0.029
64403W        W36129   6.281  27.675  10.731
64404W        W36130  16.969   6.922   0.761
64405W        W36131   8.730  15.935  13.625
64406W        W36132  18.047  29.626  12.064
64407W        W36133  10.687  27.084  14.326
64408W        W36134   8.175  39.176  12.493
64409W        W36135  20.543  15.104  14.404
64410W        W36136  24.674  10.889   3.917
64411W        W36137  14.588  18.084  14.896
64412W        W36138  31.891   6.331   1.482
64413W        W36139  37.093   6.805  10.684
64414W        W36140   1.337   3.396   0.655
64415W        W36141  44.650  43.944   3.755
64416W        W36142   9.441   4.431   2.887
64417W        W36143  14.536  16.962   0.409
64418W        W36144  36.361  32.581   1.001
64419W        W36145  39.852  38.008  10.837
64420W        W36146   5.174  43.703   4.315
64421W        W36147  38.046  16.589  14.946
64422W        W36148  35.057   0.586   4.862
64423W        W36149  32.087  38.022  11.976
64424W        W36150   6.029  38.896   2.924
64425W        W36151  33.780   1.421   1.368
64426W        W36152  15.204  27.607   1.895
64427W        W36153  41.883   2.338   2.823
64428W        W36154   8.212  43.225  10.652
64429W        W36155   3.675   9.127  12.379
64430W        W36156  17.683  16.153  13.838
64431W        W36157  17.657   4.278  13.763
64432W        W36158  25.214  25.294   2.800
64433W        W36159  37.224  35.424   3.256
64434W        W36160  32.607  44.490  10.120
64435W        W36161   2.750  10.246  14.065
64436W        W36162  32.026  14.731   1.112
64437W        W36163  22.574   3.361  14.893
64438W        W36164  14.804  20.713  10.942
64439W        W36165  24.427  35.300   2.272
64440W        W36166  18.963  37.447   3.334
64441W        W36167   2.042  33.038  10.920
64442W        W36168  41.564   4.262  12.890
64443W        W36169  24.933   6.505  14.453
64444W        W36170  13.243  27.439   4.322
64445W        W36171  17.875  32.342  12.421
64446W        W36172  18.821  11.278   5.032
64447W        W36173   0.648  19.816  11.070
64448W        W36174  11.726  13.204  11.167
64449W        W36175  29.838  30.153   0.856
64450W        W36176  30.578   4.495  11.547
64451W        W36177  20.184   8.414  14.405
64452W        W36178  29.098  13.587   1.887
64453W        W36179  29.353   7.573   2.231
64454W        W36180  14.520  26.216   3.752
64455W        W36181   0.278  11.221   3.684
64456W        W36182  40.880   2.710   4.142
64457W        W36183  22.638  41.302   3.735
64458W        W36184   2.036  30.119  14.635
64459W        W36185  43.526   5.309   0.936
64460W        W36186  14.588  27.409   2.802
64461W        W36187   2.758  43.046   2.248
64462W        W36188  27.907  40.845  12.058
64463W        W36189  42.508  40.859   3.675
64464W        W36190   6.295  29.995  14.502
64465W        W36191  16.868  27.421   2.930
64466W        W36192  35.138   7.767  13.580
64467W        W36193  43.909   7.783  13.329
64468W        W36194  43.283  24.622   1.686
64469W        W36195   0.068  38.156  13.902
64470W        W36196  28.898  18.117  13.025
64471W        W36197  11.272  29.141  13.759
64472W        W36198  15.236  10.039   3.786
64473W        W36199  37.640   1.539  11.015
64474W        W36200  26.007  34.033   3.301
64475W        W36201  32.818  35.866   0.451
64476W        W36202  27.717  36.958  14.589
64477W        W36203  29.654  22.616   3.091
64478W        W36204  28.912   5.226  13.508
64479W        W36205  26.241   7.330   3.141
64480W        W36206   4.339  37.913  12.609
64481W        W36207   1.158  14.719   2.485
64482W        W36208  42.677  36.628   3.446
64483W        W36209  14.341  24.050   3.765
64484W        W36210   6.306  17.387  12.442
64485W        W36211  28.085  23.485  14.280
64486W        W36212  18.794  14.872  14.763
64487W        W36213  31.970  22.646   3.251
64488W        W36214  42.461   1.186   0.890
64489W        W36215   3.160  13.145   2.906
64490W        W36216  33.062   8.262   1.946
64491W        W36217  40.307  37.800  14.096
64492W        W36218   5.806  43.418  12.527
64493W        W36219  14.405  38.464  10.269
64494W        W36220  22.134  23.318   3.419
64495W        W36221   2.141  34.944   1.562
64496W        W36222  31.987  43.458   2.184
64497W        W36223  44.293  22.985   2.711
64498W        W36224  44.085  16.083  12.917
64499W        W36225  13.612  42.242   3.247
64500W        W36226  27.660  17.362  11.929
64501W        W36227  25.646  38.149   2.670
64502W        W36228  38.431  17.576   2.772
64503W        W36229  21.232  31.629  11.607
64504W        W36230  23.106  33.099   0.935
64505W        W36231  16.247  34.565   3.701
64506W        W36232  26.654  32.926   1.380
64507W        W36233  44.093  27.279  11.967
64508W        W36234  43.335  18.976   2.178
64509W        W36235   2.405  32.080  13.384
64510W        W36236  24.539  21.523   0.760
64511W        W36237   4.718  25.119  12.872
64512W        W36238  36.987  23.413  13.095
64513W        W36239  37.989  10.830  12.057
64514W        W36240  16.475  21.228  14.884
64515W        W36241  24.017  37.554  14.489
64516W        W36242  19.236  35.491  10.716
64517W        W36243  10.170   7.329   4.204
64518W        W36244   8.880  32.399   0.060
64519W        W36245  16.181  38.631   3.878
64520W        W36246  37.331  24.777  11.972
64521W        W36247  28.281  44.957  10.616
64522W        W36248   3.892   9.357  10.372
64523W        W36249   2.261   0.349   0.189
64524W        W36250  39.863  16.199   1.790
64525W        W36251  25.866  30.026   3.281
64526W        W36252  18.194  27.130  14.847
64527W        W36253  44.963  24.005   3.220
64528W        W36254   8.649  37.470  13.953
64529W        W36255  10.313  15.958  10.831
64530W        W36256  30.161  39.563   4.107
64531W        W36257   5.708  43.459   4.556
64532W        W36258   8.144  26.743  11.940
64533W        W36259  33.355  41.919  11.687
64534W        W36260   8.439  36.924   3.105
64535W        W36261   5.469  14.731   0.429
64536W        W36262  37.927  25.540  13.943
64537W        W36263  43.263  40.582   1.222
64538W        W36264  23.528  42.944  13.028
64539W        W36265  22.049  40.018  13.352
64540W        W36266  13.182  16.289  14.860
64541W        W36267  38.758  22.605   4.071
64542W        W36268  11.966   5.944   2.647
64543W        W36269  33.541  34.058  14.968
64544W        W36270  32.857  27.808  14.521
64545W        W36271   1.915  29.406   4.737
64546W        W36272  29.750   3.855  13.458
64547W        W36273  42.021  13.894   4.639
64548W        W36274  30.048   4.734   0.425
64549W        W36275  26.194  25.981   2.308
64550W        W36276  30.504  27.037   9.960
64551W        W36277  20.199  10.755  10.299
64552W        W36278  21.826  31.750  11.100
64553W        W36279  41.771  34.164   0.790
64554W        W36280  43.035  22.689  14.422
64555W        W36281  16.912  20.717   4.117
64556W        W36282  37.285  23.499   1.736
64557W        W36283  12.559  20.722  11.635
64558W        W36284  37.885   4.861  14.215
64559W        W36285  15.990   4.355   0.807
64560W        W36286  16.780   6.270   4.148
64561W        W36287   9.735   8.359  14.771
64562W        W36288  19.187  10.125   0.829
64563W        W36289   2.718  16.976  14.456
64564W        W36290  17.738  20.881   2.802
64565W        W36291  20.360  43.894  11.567
64566W        W36292  20.687  24.680  13.258
64567W        W36293  43.435   6.382  14.969
64568W        W36294  39.771   9.330  10.535
64569W        W36295  36.296   1.686  13.444
64570W        W36296  24.391  36.774  11.557
64571W        W36297  33.990  41.621  12.582
64572W        W36298  40.304  35.891   2.223
64573W        W36299   3.433  33.487   0.977
64574W        W36300  16.061  25.956   4.635
64575W        W36301   3.267  12.559  11.063
64576W        W36302   7.873  19.789  10.770
64577W        W36303  31.184  18.244   0.988
64578W        W36304  31.924  18.773   4.608
64579W        W36305   9.372  25.532  12.790
64580W        W36306  38.330  37.566   1.706
64581W        W36307  34.968  26.419   4.124
64582W        W36308  27.707   3.839  12.070
64583W        W36309  19.651  11.315  11.133
64584W        W36310   7.609  12.317   4.804
64585W        W36311  34.514   2.072   0.284
64586W        W36312   8.713   1.278   4.329
64587W        W36313  30.456  11.206   1.921
64588W        W36314  44.115  43.266  11.207
64589W        W36315   8.206   0.261   0.906
64590W        W36316   6.502   4.296   3.732
64591W        W36317  28.844   8.038  12.031
64592W        W36318  37.629   8.765  14.884
64593W        W36319  24.174  11.441  13.385
64594W        W36320  44.533   8.241   1.742
64595W        W36321  39.596  17.640   1.682
64596W        W36322  10.958  28.731   1.832
64597W        W36323  43.775  13.405   1.294
64598W        W36324  27.135  13.500   0.891
64599W        W36325  26.576  28.087   4.633
64600W        W36326  31.759  21.654   3.283
64601W        W36327   4.446  39.868   4.215
64602W        W36328  37.646   3.916   2.315
64603W        W36329   2.629   0.155  12.335
64604W        W36330  44.714  39.956   2.046
64605W        W36331  19.729  36.563   1.456
64606W        W36332  18.804  21.930   0.332
64607W        W36333  24.991  36.154  13.434
64608W        W36334  28.378  13.571  14.416
64609W        W36335  18.749  39.571   3.685
64610W        W36336  36.708   7.662  11.441
64611W        W36337   4.657  21.059   2.754
64612W        W36338  11.360  20.326  11.073
64613W        W36339   8.718   8.653  14.461
64614W        W36340  20.050   7.455  14.417
64615W        W36341  21.597  33.018  11.948
64616W        W36342  27.541  21.002  10.860
64617W        W36343  30.843  39.620  11.484
64618W        W36344  18.764  32.723  12.289
64619W        W36345  21.046  41.023   3.708
64620W        W36346  38.815  19.316  13.816
64621W        W36347   9.627  27.005   2.889
64622W        W36348  44.322  20.773  13.278
64623W        W36349  15.018  14.614   4.771
64624W        W36350  25.891  31.411   0.379
64625W        W36351  35.044   0.028   0.757
64626W        W36352   8.389  31.967  14.799
64627W        W36353  39.134  37.563   1.824
64628W        W36354  37.730  44.221   2.758
64629W        W36355  16.756  41.847   0.952
64630W        W36356  38.292  18.866   4.268
64631W        W36357  27.179   4.371  14.695
64632W        W36358  33.480  11.788  13.592
64633W        W36359  36.393  14.799  11.546
64634W        W36360  19.838  16.316   0.831
64635W        W36361  19.286  41.473   1.205
64636W        W36362  17.802  17.561  11.660
64637W        W36363  26.210  20.124  11.917
64638W        W36364   5.664  36.928   2.262
64639W        W36365  37.382   3.859   3.661
64640W        W36366  41.387  34.030  10.875
64641W        W36367  17.846  23.801   4.158
64642W        W36368   3.499  35.969   3.682
64643W        W36369  42.252  16.866  12.542
64644W        W36370  20.573   4.744   4.546
64645W        W36371  30.438  18.451  10.418
64646W        W36372  11.202   4.289  14.880
64647W        W36373  19.304  44.777  12.881
64648W        W36374  16.638   0.520  11.111
64649W        W36375   6.731  19.657   2.316
64650W        W36376  22.785  27.066   2.825
64651W        W36377  32.458  30.396  11.257
64652W        W36378  43.903  21.618  13.228
64653W        W36379   0.510  23.971   0.365
64654W        W36380  36.505  12.065  11.040
64655W        W36381  36.873  37.141  12.988
64656W        W36382  44.334   6.195   1.446
64657W        W36383  20.198  24.073  12.180
64658W        W36384  42.860  34.092   2.542
64659W        W36385  27.667  40.433  12.877
64660W        W36386  15.094  14.265   3.131
64661W        W36387  25.206  25.911   1.778
64662W        W36388  17.166   5.798   2.805
64663W        W36389  44.165  36.213   2.944
64664W        W36390  18.753   5.814   4.181
64665W        W36391  19.719   5.707  12.493
64666W        W36392  22.704  17.773   0.008
64667W        W36393  23.154  28.126   2.323
64668W        W36394  32.546  44.764   3.240
64669W        W36395  10.730  28.395  10.875
64670W        W36396  28.952   6.790  11.542
64671W        W36397   7.206  15.124  14.911
64672W        W36398  14.855   6.436   4.752
64673W        W36399  20.001  21.121  13.814
64674W        W36400  41.310  25.637   4.332
64675W        W36401  20.148   0.521  10.042
64676W        W36402  19.518  37.110  13.128
64677W        W36403  14.180  40.991   1.417
64678W        W36404  35.625   8.860   4.739
64679W        W36405  40.829  34.997   1.333
64680W        W36406  10.145   4.166  12.458
64681W        W36407  27.923  28.779   3.253
64682W        W36408  11.876   6.251  12.875
64683W        W36409  14.261  15.637   2.358
64684W        W36410  44.316  37.059   4.534
64685W        W36411  27.367  21.966  14.850
64686W        W36412   9.383  23.991   1.276
64687W        W36413  34.145  40.767  12.405
64688W        W36414  38.731  34.131   2.847
64689W        W36415  24.457  20.580  14.493
64690W        W36416   7.767   1.986   2.786
64691W        W36417  14.443  15.533  13.827
64692W        W36418  18.470  39.832   4.574
64693W        W36419  30.980   4.271   3.633
64694W        W36420  17.326  25.451   0.899
64695W        W36421  35.093  23.377   2.189
64696W        W36422  12.418  19.359   3.562
64697W        W36423  27.726   8.367   0.783
64698W        W36424  27.897  30.481   2.353
64699W        W36425  16.202   1.812   0.652
64700W        W36426  24.234  39.449   3.186
64701W        W36427  42.478  30.971   0.632
64702W        W36428   4.831  26.587   2.252
64703W        W36429   1.561  43.557   2.181
64704W        W36430  18.917  44.498   3.292
64705W        W36431   7.369  14.379  14.421
64706W        W36432  29.098  26.952  11.359
64707W        W36433   4.719   7.549   3.323
64708W        W36434  25.467  35.060   2.205
64709W        W36435   5.328   4.938  12.362
64710W        W36436  11.852  21.984   1.799
64711W        W36437   3.587  19.576   4.508
64712W        W36438  20.959   4.759  14.137
64713W        W36439  27.772   9.650   3.691
64714W        W36440   2.786  22.131   1.399
64715W        W36441  28.748  33.338   2.289
64716W        W36442  30.161  21.146   1.035
64717W        W36443  10.344  11.105  10.132
64718W        W36444  14.142  16.794  13.364
64719W        W36445  12.512  28.957   4.205
64720W        W36446  11.095  18.542   0.624
64721W        W36447   4.086   9.704  13.861
64722W        W36448   8.651  30.625  14.375
64723W        W36449   0.753  30.725  14.752
64724W        W36450  14.578   5.407  13.830
64725W        W36451  33.857  14.601   4.890
64726W        W36452  21.101  25.706   9.796
64727W        W36453  43.949   6.341   4.600
64728W        W36454  41.926  14.864   4.555
64729W        W36455  37.401  36.484  11.931
64730W        W36456  20.807  19.046   3.735
64731W        W36457  17.465  17.425   1.896
64732W        W36458  35.404  11.216   2.419
64733W        W36459  27.058  30.932   3.110
64734W        W36460   7.347  16.161  14.939
64735W        W36461  40.407  13.386  14.389
64736W        W36462  20.168  13.928   2.292
64737W        W36463  18.950  24.439  13.505
64738W        W36464  31.821   1.877   4.114
64739W        W36465  43.042   5.270   3.482
64740W        W36466   9.684   5.235   4.682
64741W        W36467   7.696   5.806   0.179
64742W        W36468   3.390  36.972  14.407
64743W        W36469  10.884  23.106  14.261
64744W        W36470  43.704   4.845   0.359
64745W        W36471  18.981  30.559   3.405
64746W        W36472  18.172   6.232   4.953
64747W        W36473  22.251  26.396  11.127
64748W        W36474  43.373   1.758  14.989
64749W        W36475  21.953  37.914   2.736
64750W        W36476  26.030  43.837   2.171
64751W        W36477   8.185  36.324  11.241
64752W        W36478  21.564  35.472   3.837
64753W        W36479   9.404  37.100   2.276
64754W        W36480   7.304   6.927  11.520
64755W        W36481  36.991   6.387  11.424
64756W        W36482  41.097   9.021   3.340
64757W        W36483  24.155  25.496   0.979
64758W        W36484  11.766   1.678   2.248
64759W        W36485  12.802   8.513  11.701
64760W        W36486  14.590  12.452  10.469
64761W        W36487   8.900  10.180   2.801
64762W        W36488  27.526  25.615  14.961
64763W        W36489  17.953  38.022   5.713
64764W        W36490  29.849  14.625  10.762
64765W        W36491  16.800  36.531  13.576
64766W        W36492  37.409   8.921   3.105
64767W        W36493  18.541  33.132  13.484
64768W        W36494   5.285  13.295   0.346
64769W        W36495  27.477   3.723   2.411
64770W        W36496   0.329   0.509  11.509
64771W        W36497   3.397  13.873  12.547
64772W        W36498   4.830  36.560   3.135
64773W        W36499  20.268  10.306   0.261
64774W        W36500  43.405  31.089  14.932
64775W        W36501  40.756   2.816  13.015
64776W        W36502  33.976   7.740   3.621
64777W        W36503  37.575  38.561   0.832
64778W        W36504   5.977   5.293  13.305
64779W        W36505  27.600  15.215  10.351
64780W        W36506   6.053  39.807   3.418
64781W        W36507  40.236  10.295  12.242
64782W        W36508   1.092  32.827   0.945
64783W        W36509  25.529   4.702   2.749
64784W        W36510   8.271  32.201   4.663
64785W        W36511   4.193  17.351  11.959
64786W        W36512   9.168  24.423   1.519
64787W        W36513  18.583  33.830   0.759
64788W        W36514  30.087   1.561  11.637
64789W        W36515  17.710  33.281  14.806
64790W        W36516  25.127  31.078  12.403
64791W        W36517  33.758  40.565   0.376
64792W        W36518   6.384  40.887   0.777
64793W        W36519  28.053  41.254  14.433
64794W        W36520   6.479   5.625   4.937
64795W        W36521  30.503  35.348   4.528
64796W        W36522  38.404   0.986  12.999
64797W        W36523  30.589  41.220   3.613
64798W        W36524   6.823  35.911   4.710
64799W        W36525  20.501   3.094   0.793
64800W        W36526  23.307  26.948  11.606
64801W        W36527  43.926  10.076  10.828
64802W        W36528  31.176  12.433  12.556
64803W        W36529  34.490  39.597  13.489
64804W        W36530  37.485  29.593   2.223
64805W        W36531  13.226  15.738  14.543
64806W        W36532   8.545  33.377  13.479
64807W        W36533  16.593  37.347  14.610
64808W        W36534  37.995  11.754  10.171
64809W        W36535  23.090  42.414  13.387
64810W        W36536   6.407  15.956  10.449
64811W        W36537  18.775  33.838   2.219
64812W        W36538  19.610   1.303   2.283
64813W        W36539  34.767  22.274   4.759
64814W        W36540  39.870  35.898   3.991
64815W        W36541  25.014   7.209  11.205
64816W        W36542  43.844   8.200   0.340
64817W        W36543  32.482  13.606  14.465
64818W        W36544  16.084  19.525   0.373
64819W        W36545  11.608  33.080   1.485
64820W        W36546  39.920  33.135   4.732
64821W        W36547  37.106  44.544   3.208
64822W        W36548  27.329   4.004  11.142
64823W        W36549   0.308   8.292  12.770
64824W        W36550  33.985  40.312  12.197
64825W        W36551  40.288  20.808  10.687
64826W        W36552  23.083  30.197  11.528
64827W        W36553  28.608  15.671  10.704
64828W        W36554  36.140  18.296   0.229
64829W        W36555  23.934   3.154  13.165
64830W        W36556   9.676  27.972  12.017
64831W        W36557   6.864  26.087  11.406
64832W        W36558  37.522  38.975  12.811
64833W        W36559  38.329  18.885  12.039
64834W        W36560  23.169  30.295   0.873
64835W        W36561  27.786  13.727   2.688
64836W        W36562  40.494   6.473   0.088
64837W        W36563  38.633   8.401   0.042
64838W        W36564  20.661  11.456  11.986
64839W        W36565   4.376  33.522  12.391
64840W        W36566  24.097  13.382  10.682
64841W        W36567  22.990  35.035   0.423
64842W        W36568  23.201   8.944   1.499
64843W        W36569  44.752  35.217  12.024
64844W        W36570  12.494  28.090  12.083
64845W        W36571  44.198  39.798   3.780
64846W        W36572   9.075  13.474  10.811
64847W        W36573   6.501  32.606  12.965
64848W        W36574  17.947  19.819  14.906
64849W        W36575  39.344  24.027  12.515
64850W        W36576  35.852   3.714  14.463
64851W        W36577  22.404  38.918  12.231
64852W        W36578  29.798  21.267   5.083
64853W        W36579  22.099  28.626  13.259
64854W        W36580   0.998  14.087   3.671
64855W        W36581  37.872  23.158   4.094
64856W        W36582  35.965  35.070  12.639
64857W        W36583  21.962  38.875  14.446
64858W        W36584   4.261  41.764  14.359
64859W        W36585   1.694  42.849   1.143
64860W        W36586  38.379   8.848  12.363
64861W        W36587  30.700  30.978   4.617
64862W        W36588  14.670  42.460   3.092
64863W        W36589  37.416   4.588  10.293
64864W        W36590  36.699  38.910  11.088
64865W        W36591  21.422  43.564   0.390
64866W        W36592  26.272  37.546  10.741
64867W        W36593   5.066  18.798   1.108
64868W        W36594  14.387  43.587   2.169
64869W        W36595   8.079   7.232   4.194
64870W        W36596   8.670  11.138  13.864
64871W        W36597  16.055  38.259  11.519
64872W        W36598   1.295  15.644  12.853
64873W        W36599   7.760  27.477   0.516
64874W        W36600  20.300  12.875  11.597
64875W        W36601  38.368  30.986   2.921
64876W        W36602  31.371   5.834   1.859
64877W        W36603  29.062  15.734  13.748
64878W        W36604  14.198  44.697  14.740
64879W        W36605  30.479  13.223   4.058
64880W        W36606   8.723   0.295  14.686
64881W        W36607  25.601  33.476   2.241
64882W        W36608  37.795  39.813   3.432
64883W        W36609   4.904  34.972  12.215
64884W        W36610  16.148  21.749  12.218
64885W        W36611   8.638  29.199  12.555
64886W        W36612  14.124  14.819  14.379
64887W        W36613  27.041   2.621  13.419
64888W        W36614  15.820  17.868   3.253
64889W        W36615   7.869  32.072  10.001
64890W        W36616  40.318  14.314   2.801
64891W        W36617  43.455   0.466   1.873
64892W        W36618  18.799  18.649   4.588
64893W        W36619  14.673  30.214  12.192
64894W        W36620  12.888  12.860  11.516
64895W        W36621   8.403   5.477   4.152
64896W        W36622  10.263   6.914   2.706
64897W        W36623  37.345  37.970  13.462
64898W        W36624  29.511   5.924   4.872
64899W        W36625  44.949  17.529  12.337
64900W        W36626  17.594  38.335   5.502
64901W        W36627  35.188  43.988   4.554
64902W        W36628  41.947   8.178  14.961
64903W        W36629  43.334  20.455   1.547
64904W        W36630  32.928  40.482  11.073
64905W        W36631  23.841   5.418  12.546
64906W        W36632  33.720  32.599   4.522
64907W        W36633  27.650  38.369  11.368
64908W        W36634  28.614  36.741   3.227
64909W        W36635  43.128  32.273  11.484
64910W        W36636  25.157   9.603   2.847
64911W        W36637  20.010  30.018  13.526
64912W        W36638  21.669  43.840  11.894
64913W        W36639   3.808  15.223  12.459
64914W        W36640  28.176  42.921   0.929
64915W        W36641  16.746  20.116   2.373
64916W        W36642  12.613  14.617  13.350
64917W        W36643  30.219  13.316  11.236
64918W        W36644  22.165  18.504  11.571
64919W        W36645  17.577  40.965   4.599
64920W        W36646  17.457  31.421   2.883
64921W        W36647  19.075  33.906  13.924
64922W        W36648  18.985  17.526   0.354
64923W        W36649   1.761  17.741   2.929
64924W        W36650  19.799   6.691  11.619
64925W        W36651  28.178   6.822   2.383
64926W        W36652  35.187  34.536   2.225
64927W        W36653  42.504   7.681  13.405
64928W        W36654  11.395  27.730  14.994
64929W        W36655  10.975  27.438   0.044
64930W        W36656   0.626   4.301   1.330
64931W        W36657  27.685  35.489  12.033
64932W        W36658  31.390  18.065   3.746
64933W        W36659  38.001   2.817  12.301
64934W        W36660  35.981  24.685  14.426
64935W        W36661  41.490  16.816  11.175
64936W        W36662  18.754  14.700  14.192
64937W        W36663  42.975  11.115   1.825
64938W        W36664  41.631  22.489  14.744
64939W        W36665  14.147  12.860   3.763
64940W        W36666  44.756  41.173   3.727
64941W        W36667  44.101  44.067   0.367
64942W        W36668  33.411  26.134  12.058
64943W        W36669  27.779  39.786  11.441
64944W        W36670  42.302  17.515   0.706
64945W        W36671  15.600  27.199  14.935
64946W        W36672  28.744  23.113   3.240
64947W        W36673  15.156  37.926   2.126
64948W        W36674  28.695   6.325   2.710
64949W        W36675  11.119   9.893  11.175
64950W        W36676  16.118  32.874  12.955
64951W        W36677  11.316  18.634   2.855
64952W        W36678  32.754  28.839   2.123
64953W        W36679  12.355  15.577   1.246
64954W        W36680  14.445  19.988   4.023
64955W        W36681  23.208  42.784   4.129
64956W        W36682  38.253  24.839  11.978
64957W        W36683  14.065   3.420   0.196
64958W        W36684  15.639  31.147  11.023
64959W        W36685  22.205   0.921  14.973
64960W        W36686  32.170  28.453  14.669
64961W        W36687  24.572  34.404   3.186
64962W        W36688  31.138  23.771   5.472
64963W        W36689  36.055  41.008   3.406
64964W        W36690  10.822   2.005   1.851
64965W        W36691   6.602   1.240  11.224
64966W        W36692   1.834  20.810  14.506
64967W        W36693  38.898  28.719  14.524
64968W        W36694  44.818  30.593   2.736
64969W        W36695  41.922  11.011   2.084
64970W        W36696  33.629  30.289   5.164
64971W        W36697  13.329  10.815   4.220
64972W        W36698  11.879   3.479  11.139
64973W        W36699  41.326   7.351  13.481
64974W        W36700   4.685   6.367   3.837
64975W        W36701  10.853   7.857   4.664
64976W        W36702  33.754  19.052  12.119
64977W        W36703   1.925  33.572   0.869
64978W        W36704  43.882  42.869  13.536
64979W        W36705  18.118  23.254  10.393
64980W        W36706  21.886  26.672   2.464
64981W        W36707  39.844  27.601   0.285
64982W        W36708  34.982  22.518   1.941
64983W        W36709  21.772  11.243   1.940
64984W        W36710  18.622  16.805   4.502
64985W        W36711  11.667  44.656  10.442
64986W        W36712  10.120   7.796   4.712
64987W        W36713  28.697   7.099  13.353
64988W        W36714  20.515  43.899  11.047
64989W        W36715  42.530   6.638  12.399
64990W        W36716  11.398  21.043  14.883
64991W        W36717  17.641  41.470   4.434
64992W        W36718  38.068  10.794  11.063
64993W        W36719  44.181  44.138   5.205
64994W        W36720  20.962  29.736  11.122
64995W        W36721   8.170  28.625   3.371
64996W        W36722   1.492  24.302   0.361
64997W        W36723  22.027  19.495   3.685
64998W        W36724  33.935  26.360  13.005
64999W        W36725   6.418  13.196  12.000
65000W        W36726  38.288  24.009  14.523
65001W        W36727   9.676   7.361   1.257
65002W        W36728  11.806  34.929   4.589
65003W        W36729  28.694  28.127   0.306
65004W        W36730  35.007  22.684  12.166
65005W        W36731  17.177   4.870  14.355
65006W        W36732  28.863  31.903   0.449
65007W        W36733   5.427   4.724   1.435
65008W        W36734   8.684  22.605  11.132
65009W        W36735  35.256  33.900  11.139
65010W        W36736   7.748  40.023  10.952
65011W        W36737  16.041  10.626  12.860
65012W        W36738   5.790  15.653   2.018
65013W        W36739   7.736   5.771  10.290
65014W        W36740  42.705  33.463  13.312
65015W        W36741  28.913  30.178  12.087
65016W        W36742  24.573  14.363   0.431
65017W        W36743  42.833   3.347  10.214
65018W        W36744   6.060  19.065   2.878
65019W        W36745  25.982  12.794   4.215
65020W        W36746  31.365  16.773   3.988
65021W        W36747  16.757  13.886  12.945
65022W        W36748  15.081  36.854  14.359
65023W        W36749  17.526  20.123  13.673
65024W        W36750  28.395  25.072   1.294
65025W        W36751  42.730  26.677  14.660
65026W        W36752  28.379   9.364  14.439
65027W        W36753  28.675  26.642   1.170
65028W        W36754  34.979  41.984   0.934
65029W        W36755  28.546  32.736   0.207
65030W        W36756  34.255  27.636  12.518
65031W        W36757   3.823   9.747  11.587
65032W        W36758  29.061  27.034  11.879
65033W        W36759   8.193  16.237   1.900
65034W        W36760  40.029  12.140   4.571
65035W        W36761  23.644  43.424  12.900
65036W        W36762  20.092  25.638   4.389
65037W        W36763  11.260  17.177   0.766
65038W        W36764   5.840  29.110  11.159
65039W        W36765   9.359  16.411   2.220
65040W        W36766  38.347  24.140   2.786
65041W        W36767   6.167  26.030   4.191
65042W        W36768  12.238  22.056  13.423
65043W        W36769  14.261   9.949   4.546
65044W        W36770   7.441   6.149   3.537
65045W        W36771  38.913  40.810  11.586
65046W        W36772  13.784   8.885   4.217
65047W        W36773  37.578   0.263  14.831
65048W        W36774   3.645  12.542   1.903
65049W        W36775  17.042  39.328   1.774
65050W        W36776  17.578   2.072  12.029
65051W        W36777  29.630  17.883   3.453
65052W        W36778  39.701  40.897  10.513
65053W        W36779  37.724  21.116  13.563
65054W        W36780  14.412  16.689   2.370
65055W        W36781   7.152  35.056  10.565
65056W        W36782  17.103  28.542   4.355
65057W        W36783  20.246  21.944   2.183
65058W        W36784  42.385  11.348   4.413
65059W        W36785  44.314  14.860  13.464
65060W        W36786  31.341  29.108  12.503
65061W        W36787   6.817  42.304   2.533
65062W        W36788  22.264  42.299  13.038
65063W        W36789  36.416  43.025   4.132
65064W        W36790  19.658   1.937   0.270
65065W        W36791   0.298  10.125  10.656
65066W        W36792  29.084  24.150   1.820
65067W        W36793  20.122  18.764  12.378
65068W        W36794   4.889   2.886   4.021
65069W        W36795  38.574  17.113  11.514
65070W        W36796  37.599  44.854  13.966
65071W        W36797  20.944  39.813  12.572
65072W        W36798  17.588  40.768   1.352
65073W        W36799   6.167  24.329   1.045
65074W        W36800  44.697  10.183   4.695
65075W        W36801  36.443  40.830  14.915
65076W        W36802  36.059  20.613   2.682
65077W        W36803  20.068  15.487  12.619
65078W        W36804   2.444  21.017   4.618
65079W        W36805   1.215  26.751  11.669
65080W        W36806  15.166  22.134   0.499
65081W        W36807  23.496  17.989  13.261
65082W        W36808  12.301  26.201  14.853
65083W        W36809  32.922  24.933  11.091
65084W        W36810   1.026  20.052   0.834
65085W        W36811  43.707  28.962  14.834
65086W        W36812  37.810  10.709   3.148
65087W        W36813  12.844  27.063   4.346
65088W        W36814  26.878   9.488  14.430
65089W        W36815  16.098   9.283   2.902
65090W        W36816  35.930  23.448  13.647
65091W        W36817  38.830  27.804  12.929
65092W        W36818  24.016  21.648   4.337
65093W        W36819  31.448   3.950  10.699
65094W        W36820  26.083  25.058  13.993
65095W        W36821   5.098  28.553  14.128
65096W        W36822   9.211   1.066   0.214
65097W        W36823  10.252  25.038  10.222
65098W        W36824  22.201  32.712   2.417
65099W        W36825  42.661  19.564  10.798
65100W        W36826   7.517  37.446   4.689
65101W        W36827  14.216  10.873  12.788
65102W        W36828  16.641   3.464  11.933
65103W        W36829  30.446  29.507   3.824
65104W        W36830  21.986  28.348   0.599
65105W        W36831   7.034  43.451  13.445
65106W        W36832   6.443  10.350   2.413
65107W        W36833  41.973  12.203  11.104
65108W        W36834  24.480  18.698  10.871
65109W        W36835  22.070   4.964   3.333
65110W        W36836  33.398  12.725   0.365
65111W        W36837   7.991   3.335   4.029
65112W        W36838  28.668  15.667   2.418
65113W        W36839  34.060  22.664  10.151
65114W        W36840   3.449   3.383   2.476
65115W        W36841   0.048   5.583  12.947
65116W        W36842   4.816  35.621  10.153
65117W        W36843  24.300  34.112   1.382
65118W        W36844  20.741   2.109   0.725
65119W        W36845   6.080  44.026  11.825
65120W        W36846  27.699  22.247   0.966
65121W        W36847  16.718  14.037   0.019
65122W        W36848  21.451   7.295   0.807
65123W        W36849  25.625  12.776   2.855
65124W        W36850   5.357  33.805  14.875
65125W        W36851  32.384  27.075   1.777
65126W        W36852  16.438  34.395   4.194
65127W        W36853   8.453   1.890   4.139
65128W        W36854   1.405  39.324  14.055
65129W        W36855  17.124  11.422   0.213
65130W        W36856  34.634  13.196  11.153
65131W        W36857  27.492  31.915   4.306
65132W        W36858  10.341  37.887  12.548
65133W        W36859  27.882  19.359   2.625
65134W        W36860  34.250  30.354  14.247
65135W        W36861  23.158  41.502  11.914
65136W        W36862  43.554  14.673  10.661
65137W        W36863   8.384  18.526   1.700
65138W        W36864   2.707  30.982   1.430
65139W        W36865  23.066   1.458   0.806
65140W        W36866   7.161  40.623   2.780
65141W        W36867   2.158   0.242   4.685
65142W        W36868  38.427  43.194   3.364
65143W        W36869   4.693   6.797   2.049
65144W        W36870  21.202  14.141   0.168
65145W        W36871   6.479  34.164  12.023
65146W        W36872  35.086  35.172  10.705
65147W        W36873  41.632   6.814  13.249
65148W        W36874   5.220  25.165  12.944
65149W        W36875  22.712  28.518  11.095
65150W        W36876  23.514   5.248  12.946
65151W        W36877  15.961  15.519   0.853
65152W        W36878  41.713  27.117   0.330
65153W        W36879  24.073  17.121   0.079
65154W        W36880   1.167  22.185   3.818
65155W        W36881  28.555  34.815  13.611
65156W        W36882  20.719  30.112  10.703
65157W        W36883   8.799   1.528  10.457
65158W        W36884  24.557  13.837   0.438
65159W        W36885  15.962  18.582   4.110
65160W        W36886  19.242  35.920   4.005
65161W        W36887  41.736   2.824   2.788
65162W        W36888  41.900   0.250   3.735
65163W        W36889  32.388  41.982   1.009
65164W        W36890  41.678  31.332  10.936
65165W        W36891   4.753  30.841   4.200
65166W        W36892  10.673  13.737   2.284
65167W        W36893  16.398  31.452  13.392
65168W        W36894   1.406  26.897  13.840
65169W        W36895  30.058  25.237   3.537
65170W        W36896  33.443  17.264  12.529
65171W        W36897  44.813   6.224   0.441
65172W        W36898  29.137  30.532  13.955
65173W        W36899  29.864   8.730   1.333
65174W        W36900  23.692  32.648   0.732
65175W        W36901  41.061  40.883  14.170
65176W        W36902  41.005  11.758   1.776
65177W        W36903   8.757  38.088  10.896
65178W        W36904  40.555  20.089   3.195
65179W        W36905  28.049  15.784   2.671
65180W        W36906  21.065   2.781  12.129
65181W        W36907   0.393  22.123  14.376
65182W        W36908  31.648  22.700   0.310
65183W        W36909   9.264   0.281  12.513
65184W        W36910  37.132   7.700   2.677
65185W        W36911   9.336  19.153  11.355
65186W        W36912   1.343  42.857   2.375
65187W        W36913   3.405   0.392   2.694
65188W        W36914  21.453  33.553  13.108
65189W        W36915  15.613  17.707   4.134
65190W        W36916  30.259  25.136   1.510
65191W        W36917  21.588   0.875  11.636
65192W        W36918   5.174  18.178  11.660
65193W        W36919  12.885  10.566   4.287
65194W        W36920  28.611  12.225  12.925
65195W        W36921  31.695  26.296   9.862
65196W        W36922  18.506  41.888   4.788
65197W        W36923  27.864  37.013   2.165
65198W        W36924  37.302  22.613  13.336
65199W        W36925   7.969  39.056   4.081
65200W        W36926  39.461   9.823  10.916
65201W        W36927  17.266   3.233   1.675
65202W        W36928  38.162  16.581   2.178
65203W        W36929  43.694  43.583   0.405
65204W        W36930  40.886  25.061  14.430
65205W        W36931  19.426   5.503  11.983
65206W        W36932  39.457  44.479   3.712
65207W        W36933  12.194   5.204   4.727
65208W        W36934  16.852  36.789   0.431
65209W        W36935  12.347  34.225  14.494
65210W        W36936  35.960  31.395  11.111
65211W        W36937  43.398  36.513  13.245
65212W        W36938  14.329  42.629   2.447
65213W        W36939   2.051  14.700  11.890
65214W        W36940  19.746   7.536  11.091
65215W        W36941  11.203  35.971  13.314
65216W        W36942  38.057  29.474   4.219
65217W        W36943  16.247  43.983   2.293
65218W        W36944  11.305  10.197   2.586
65219W        W36945  26.998   3.046   1.306
65220W        W36946  10.517  21.519   4.039
65221W        W36947   7.758  21.978   3.264
65222W        W36948  38.097  42.722   9.875
65223W        W36949  18.382   3.277  11.129
65224W        W36950   5.154   6.125   3.298
65225W        W36951   6.828  20.972  12.604
65226W        W36952  33.377   2.237   0.510
65227W        W36953   8.395  38.331  14.265
65228W        W36954  26.415  36.670  14.887
65229W        W36955   3.814  22.127  11.387
65230W        W36956   7.140  13.259  13.342
65231W        W36957  24.042   7.884  10.472
65232W        W36958  28.985  21.526  14.464
65233W        W36959   9.320  31.022  13.870
65234W        W36960  19.276  40.998   3.944
65235W        W36961  40.572  18.526   1.322
65236W        W36962  22.175  39.781  10.607
65237W        W36963  23.330  19.773  14.959
65238W        W36964  27.732  23.678  12.469
65239W        W36965  40.276  44.311   3.256
65240W        W36966   5.654   2.845  12.479
65241W        W36967  32.309   4.252  13.682
65242W        W36968  16.796   5.814  10.673
65243W        W36969  36.408  28.088   0.759
65244W        W36970  40.389   1.487   3.168
65245W        W36971   6.912  12.581   1.649
65246W        W36972  17.578  13.954   4.426
65247W        W36973   5.773  28.542   4.034
65248W        W36974   4.260   0.770  11.431
65249W        W36975   9.218  41.271   4.798
65250W        W36976  12.645  21.700  14.337
65251W        W36977  13.761  21.970  12.276
65252W        W36978  31.868  39.951   0.304
65253W        W36979  20.739  38.763  14.878
65254W        W36980  34.984  32.319   0.289
65255W        W36981  34.088  16.225   4.474
65256W        W36982   0.527  15.552  13.402
65257W        W36983  14.681  23.709   0.280
65258W        W36984   5.243  17.612   0.445
65259W        W36985  27.500   2.296  14.208
65260W        W36986  17.791  39.279   0.236
65261W        W36987  10.435   5.787  12.435
65262W        W36988  15.812   5.225   4.738
65263W        W36989  16.027  14.338  11.884
65264W        W36990  43.419  14.115  12.645
65265W        W36991  38.934  42.497   0.374
65266W        W36992   5.321   2.917   1.613
65267W        W36993   6.701   4.374  12.014
65268W        W36994  20.552   7.432  13.456
65269W        W36995  13.136  44.747   3.369
65270W        W36996  29.248  40.273  12.992
65271W        W36997  13.689  40.768   2.456
65272W        W36998  29.716   8.631  14.792
65273W        W36999  33.200  38.806  13.400
65274W        W37000  17.588  40.866   2.219
65275W        W37001  28.020   1.500   0.903
65276W        W37002  13.401   5.501  11.148
65277W        W37003  29.911   8.914   3.684
65278W        W37004  40.595  36.525   3.717
65279W        W37005   1.324  30.250   2.445
65280W        W37006  37.835  41.553  12.081
65281W        W37007   8.610   9.680   1.478
65282W        W37008  16.586  42.551   0.232
65283W        W37009  39.273  29.013   4.139
65284W        W37010  24.687   9.097  14.396
65285W        W37011  10.709  11.782   0.406
65286W        W37012  23.549  37.949  13.436
65287W        W37013  43.990  29.598   1.945
65288W        W37014  13.101  24.420  14.985
65289W        W37015  23.537  30.771   1.872
65290W        W37016  14.307   4.504  10.784
65291W        W37017  15.776   3.302  10.314
65292W        W37018   9.265  19.796   4.737
65293W        W37019   0.756  11.942  13.963
65294W        W37020  27.205   3.954  12.076
65295W        W37021  37.325  30.585   1.368
65296W        W37022  23.796  19.182   0.729
65297W        W37023  27.858   6.228   4.519
65298W        W37024  15.105   2.988  11.981
65299W        W37025  38.663  23.193  14.099
65300W        W37026   6.581  30.397  14.335
65301W        W37027  22.752  11.734   2.819
65302W        W37028  21.509  11.263   3.837
65303W        W37029   5.982  34.899   2.790
65304W        W37030   0.721  40.036   2.199
65305W        W37031   6.592  41.407   0.478
65306W        W37032  20.706   0.916   4.588
65307W        W37033  11.725  36.814   2.874
65308W        W37034  25.993  20.535   1.641
65309W        W37035   8.774  26.614   0.295
65310W        W37036  44.407  26.518   1.602
65311W        W37037  21.735  44.374   3.556
65312W        W37038   5.235  38.536  12.944
65313W        W37039   6.823   1.689  14.470
65314W        W37040   8.859   0.135  12.883
65315W        W37041  15.377  39.308  13.573
65316W        W37042  34.402  29.344   3.730
65317W        W37043  33.545  28.839   3.732
65318W        W37044   0.863  24.612  12.690
65319W        W37045  42.447  15.907   3.316
65320W        W37046  42.051  31.107  13.352
65321W        W37047  32.349  41.895   1.938
65322W        W37048   8.914  37.129  10.609
65323W        W37049  28.593  17.324   0.507
65324W        W37050  16.259   9.204   4.245
65325W        W37051  17.723  14.537  11.647
65326W        W37052  26.238  31.497   1.765
65327W        W37053   8.180  36.246   4.657
65328W        W37054  36.517  17.673   3.305
65329W        W37055  24.925  43.779   3.750
65330W        W37056  25.238  26.073   0.960
65331W        W37057   6.991  13.872  10.749
65332W        W37058   2.354   9.628  10.634
65333W        W37059  36.546  20.453   4.139
65334W        W37060  30.366   5.426  14.339
65335W        W37061   0.802   0.492   3.617
65336W        W37062  12.776  22.550   0.467
65337W        W37063   0.658   7.498   9.996
65338W        W37064  37.158  18.701  12.549
65339W        W37065  44.258  40.781  11.173
65340W        W37066   8.220  38.238   1.245
65341W        W37067  25.014   4.154  12.810
65342W        W37068  26.713  14.142  14.422
65343W        W37069  37.566  27.550   3.661
65344W        W37070  24.034  24.448  14.049
65345W        W37071  37.980  40.354   0.472
65346W        W37072  27.155  44.917   3.266
65347W        W37073  15.292  21.217  11.485
65348W        W37074  38.432  16.653   1.012
65349W        W37075  20.535  21.704  13.342
65350W        W37076  10.528  21.214   3.625
65351W        W37077  11.041  22.963   0.931
65352W        W37078  11.074  12.576   1.232
65353W        W37079   4.630  13.942  14.182
65354W        W37080  37.529   7.771  12.578
65355W        W37081  24.339  22.451  11.963
65356W        W37082  24.988  43.764  10.744
65357W        W37083  13.758  44.534  13.062
65358W        W37084   3.933  36.679  11.141
65359W        W37085  12.824   8.300   3.234
65360W        W37086  38.960  19.285  14.375
65361W        W37087   8.936  29.941  11.595
65362W        W37088  35.025  11.861   2.610
65363W        W37089  21.237   2.314  10.427
65364W        W37090  13.038   9.673  12.785
65365W        W37091  42.067  21.025  14.113
65366W        W37092  11.825  35.970  10.746
65367W        W37093   7.001  40.248   1.156
65368W        W37094  11.398  36.920   3.810
65369W        W37095  16.150   8.168  14.996
65370W        W37096  39.890  44.894  13.370
65371W        W37097   1.443   2.742   3.995
65372W        W37098  33.080  33.904  10.943
65373W        W37099  29.818  33.411   1.721
65374W        W37100  31.991  18.562  12.523
65375W        W37101   9.737  30.005   1.722
65376W        W37102  41.554  12.715   2.091
65377W        W37103  41.980  18.296   4.811
65378W        W37104  18.867  26.764   3.701
65379W        W37105  24.710  11.883   2.864
65380W        W37106  33.382  11.785  10.659
65381W        W37107  11.713  22.237  12.601
65382W        W37108  32.034  14.240   1.636
65383W        W37109  13.553  16.279   3.267
65384W        W37110  30.937   2.251  12.956
65385W        W37111  30.521  30.963  12.431
65386W        W37112  34.508   8.707   4.256
65387W        W37113  29.681  35.492   0.999
65388W        W37114   8.768  21.957  11.934
65389W        W37115  10.183  13.872  13.574
65390W        W37116   4.205  15.371   2.380
65391W        W37117  24.669  29.455   0.384
65392W        W37118  32.823  43.704   1.812
65393W        W37119  29.244  39.234   2.043
65394W        W37120   3.413  44.601   1.000
65395W        W37121  20.759  26.629   0.876
65396W        W37122  24.571   1.410   0.446
65397W        W37123  19.721  21.287  10.476
65398W        W37124   8.292   8.006   2.191
65399W        W37125  27.649  42.858   3.352
65400W        W37126  16.226  38.140   1.736
65401W        W37127  36.991   6.081   4.167
65402W        W37128  35.497  44.512  12.859
65403W        W37129  27.639   1.813  14.339
65404W        W37130  18.550  26.861   3.212
65405W        W37131  27.850  31.790   9.893
65406W        W37132  21.158   8.688   0.850
65407W        W37133   5.316  30.540   0.855
65408W        W37134   8.124  16.763  13.022
65409W        W37135  27.712  29.972   4.317
65410W        W37136   4.461  39.969   0.478
65411W        W37137  42.440  19.195  14.000
65412W        W37138  33.488  32.881   1.435
65413W        W37139  34.688   0.463  13.982
65414W        W37140  16.054  18.176  13.396
65415W        W37141  15.199   1.345   3.701
65416W        W37142  13.519   4.950  14.956
65417W        W37143  37.646  33.396   4.647
65418W        W37144   1.903  36.642   0.861
65419W        W37145   2.191  44.051  14.462
65420W        W37146  41.516   3.442  14.072
65421W        W37147  30.641  42.068  10.560
65422W        W37148  32.056  42.052  13.774
65423W        W37149  16.070  33.191   2.792
65424W        W37150  18.710  27.237   3.574
65425W        W37151  39.409  21.976   1.445
65426W        W37152   3.691  43.474  12.815
65427W        W37153  23.200   8.760   1.987
65428W        W37154  30.735  25.870  13.753
65429W        W37155   5.966  12.409   3.231
65430W        W37156  17.015  23.686   2.374
65431W        W37157  42.331  26.496  12.336
65432W        W37158  11.174  41.947  12.855
65433W        W37159   1.828   5.853   3.657
65434W        W37160  32.310  19.018  12.384
65435W        W37161  37.298  26.427   3.305
65436W        W37162  18.359   8.786   2.934
65437W        W37163  35.153  13.754  14.018
65438W        W37164  31.338  34.521   4.499
65439W        W37165  35.805  31.069  10.717
65440W        W37166   1.814  35.352   3.742
65441W        W37167   1.251  16.813   2.276
65442W        W37168  21.242   7.643  12.086
65443W        W37169  31.433  24.763  11.033
65444W        W37170   8.319  34.762  12.388
65445W        W37171  33.380   8.301  13.873
65446W        W37172   8.103  42.717   3.681
65447W        W37173  39.155  27.946   2.525
65448W        W37174  16.717  21.626   4.372
65449W        W37175   8.621  28.977   1.546
65450W        W37176   3.536  14.205  13.537
65451W        W37177  13.635  37.065   0.538
65452W        W37178  15.298  16.148  11.410
65453W        W37179   2.625  42.252   1.960
65454W        W37180  27.137   1.626   9.508
65455W        W37181  17.796  25.951  14.382
65456W        W37182  21.621  14.497  12.554
65457W        W37183  32.116  12.041   2.110
65458W        W37184   3.730  11.795   3.265
65459W        W37185  35.133  19.338  12.154
65460W        W37186  18.292  33.359   2.950
65461W        W37187  17.666  41.860  14.715
65462W        W37188  14.855  23.671   4.559
65463W        W37189  37.156  23.649  12.105
65464W        W37190  20.711   0.949  14.118
65465W        W37191  29.492  38.408  11.561
65466W        W37192  12.156   6.122   3.171
65467W        W37193  42.097  32.021  11.615
65468W        W37194  20.283   7.679  11.670
65469W        W37195  17.258  36.163   2.199
65470W        W37196  12.363  43.904   2.232
65471W        W37197  41.249  33.579   2.238
65472W        W37198  38.121   6.192   1.338
65473W        W37199  15.243   5.485   0.048
65474W        W37200   5.373  43.529  10.653
65475W        W37201  29.168  41.192  13.972
65476W        W37202  11.494  24.191   5.172
65477W        W37203  28.658  15.580  13.477
65478W        W37204  19.054  19.261   4.388
65479W        W37205  11.347  31.860  13.986
65480W        W37206  44.418  11.289   2.796
65481W        W37207  42.373  32.318   2.681
65482W        W37208  20.136  27.433   3.304
65483W        W37209  32.115  33.690   1.499
65484W        W37210   1.016  44.918  13.052
65485W        W37211   4.758  41.589   0.982
65486W        W37212  14.902   1.908  12.154
65487W        W37213  21.957   7.872  10.368
65488W        W37214  26.443  18.240  13.521
65489W        W37215  27.054  15.415  11.975
65490W        W37216  17.524   8.248   3.707
65491W        W37217  11.618   3.237  10.712
65492W        W37218   0.327  26.955   0.292
65493W        W37219  27.891  30.100   3.805
65494W        W37220  22.407  33.519  12.679
65495W        W37221  33.631   8.040  14.337
65496W        W37222  33.070  30.298  14.093
65497W        W37223  35.464  28.670   1.285
65498W        W37224  28.538  28.364   1.839
65499W        W37225  39.411  31.200  12.916
65500W        W37226  16.387  37.874  13.389
65501W        W37227  21.780  15.659   4.684
65502W        W37228  42.550   0.224   2.230
65503W        W37229  36.324   5.903  11.550
65504W        W37230  40.085  25.220  10.529
65505W        W37231   9.234  27.115   2.106
65506W        W37232  19.689  30.483   2.098
65507W        W37233  22.170  41.357  13.535
65508W        W37234  35.406  25.814  13.857
65509W        W37235  13.099  42.332   3.084
65510W        W37236  32.483  25.084  13.522
65511W        W37237  27.707  16.858  12.431
65512W        W37238  30.984  28.426  12.399
65513W        W37239  38.535  42.114  11.217
65514W        W37240  15.849   4.765  13.902
65515W        W37241  33.876  14.835   0.315
65516W        W37242   9.478  29.043  14.348
65517W        W37243  34.706  38.620  11.123
65518W        W37244  36.099   8.290   1.830
65519W        W37245   1.995  31.834   1.381
65520W        W37246   4.633  37.149   1.374
65521W        W37247  34.601  27.400  14.569
65522W        W37248  37.605  21.375   0.911
65523W        W37249  38.833   8.871  12.643
65524W        W37250  10.266  35.086  12.961
65525W        W37251   6.219  39.885   1.516
65526W        W37252  42.232  40.494   3.930
65527W        W37253   4.127  24.255   3.297
65528W        W37254   0.935  26.675  13.947
65529W        W37255  18.286  42.317   0.997
65530W        W37256  39.763   7.247   4.595
65531W        W37257  26.946  42.923   3.113
65532W        W37258  30.696   2.110  11.217
65533W        W37259  39.761  27.628   1.657
65534W        W37260  26.183   5.691   1.511
65535W        W37261  11.419  35.937   2.625
65536W        W37262   4.448  44.808   4.828
65537W        W37263  28.197   5.922  13.195
65538W        W37264  35.972  44.031  13.893
65539W        W37265  40.094  26.122   4.285
65540W        W37266  22.185   3.666   0.810
65541W        W37267  13.355   3.095   2.778
65542W        W37268  15.346  12.188   2.391
65543W        W37269  11.198  32.986  10.668
65544W        W37270  44.439   0.041  13.671
65545W        W37271  34.087  18.371  13.065
65546W        W37272  28.576  39.560  11.889
65547W        W37273  30.192  36.897   1.199
65548W        W37274  28.575  31.645   2.757
65549W        W37275  36.795   9.140   4.296
65550W        W37276  29.405   4.766  12.168
65551W        W37277  13.051  13.107  13.788
65552W        W37278   9.835  13.043  13.361
65553W        W37279  32.978  37.035   4.656
65554W        W37280  38.567  31.865   3.638
65555W        W37281   9.776  37.145  14.343
65556W        W37282  44.969   9.447   0.919
65557W        W37283  18.615  30.001  13.347
65558W        W37284  17.169  35.543   3.835
65559W        W37285  16.109  39.587  14.348
65560W        W37286   3.406  18.765  11.376
65561W        W37287   6.698   0.820  12.323
65562W        W37288   2.410  25.472   0.264
65563W        W37289   2.195  21.934   4.206
65564W        W37290  28.986  43.120   3.842
65565W        W37291  40.347  15.935  10.974
65566W        W37292  22.316  13.476   3.565
65567W        W37293   3.276   9.885  10.800
65568W        W37294  25.444  30.462   1.901
65569W        W37295  39.508  39.275   1.893
65570W        W37296   3.994  11.678  11.915
65571W        W37297  25.643  22.680  12.322
65572W        W37298  10.611  18.089  12.034
65573W        W37299  10.853  35.682  14.901
65574W        W37300  10.162   0.845  12.563
65575W        W37301  41.872  13.614  13.871
65576W        W37302  24.533  26.576   2.623
65577W        W37303  28.163   7.783   4.925
65578W        W37304   6.284  37.358  11.120
65579W        W37305   7.775   4.322  14.006
65580W        W37306   6.676  18.259   3.377
65581W        W37307   1.026  38.934   2.239
65582W        W37308  25.783  31.995   5.077
65583W        W37309  11.873  20.220   2.249
65584W        W37310   6.174   8.758   0.087
65585W        W37311  30.001  42.544   4.641
65586W        W37312  15.877  12.267  10.695
65587W        W37313  42.215  12.428   4.871
65588W        W37314  11.792  24.700   3.208
65589W        W37315   1.890  16.038  12.911
65590W        W37316  40.964  18.969  11.261
65591W        W37317   7.645  19.191  13.516
65592W        W37318  21.172   2.784  11.125
65593W        W37319  28.340  24.311  10.709
65594W        W37320  34.175  12.834  12.916
65595W        W37321  40.558  18.314   3.732
65596W        W37322  11.482  39.894  12.443
65597W        W37323  23.445  35.216   4.715
65598W        W37324   0.277  16.243   2.347
65599W        W37325   6.731  15.561   5.416
65600W        W37326  41.404  19.558  10.575
65601W        W37327  12.201  12.118   2.160
65602W        W37328  21.573   5.242   4.388
65603W        W37329  21.547  31.581   3.238
65604W        W37330   9.832  42.461   2.203
65605W        W37331  22.946  13.374  12.080
65606W        W37332  21.188  20.512  12.906
65607W        W37333  29.134  22.252  12.397
65608W        W37334   1.388  25.683   3.656
65609W        W37335  44.362  31.663   4.949
65610W        W37336  20.923  35.958   0.567
65611W        W37337  19.085  23.599   2.937
65612W        W37338  30.352  39.907  10.683
65613W        W37339  12.226  25.179  11.105
65614W        W37340  38.493  11.898   1.853
65615W        W37341  10.341   9.410  13.922
65616W        W37342   9.115  42.882   4.754
65617W        W37343  17.628  24.293   2.292
65618W        W37344  30.655  25.468   1.411
65619W        W37345  22.734  18.490  12.103
65620W        W37346  26.954  27.678  12.630
65621W        W37347  38.484  34.442  13.126
65622W        W37348  29.060  43.844   3.312
65623W        W37349  11.421  30.973  12.198
65624W        W37350  13.358  14.206  13.027
65625W        W37351  19.237  41.955  12.933
65626W        W37352   7.768   2.383  13.798
65627W        W37353  27.987  27.002   4.205
65628W        W37354  17.101  42.301  11.151
65629W        W37355  41.427  13.633   1.440
65630W        W37356  13.807  32.100  10.906
65631W        W37357  13.379   4.919  11.090
65632W        W37358  26.693  20.579   4.437
65633W        W37359  17.167  44.154  13.397
65634W        W37360  14.332  27.860   2.743
65635W        W37361  34.036  35.905   3.133
65636W        W37362  10.188   2.352   3.687
65637W        W37363  18.990   8.575  14.079
65638W        W37364  33.483  40.000  13.424
65639W        W37365  15.033  12.677  10.636
65640W        W37366   8.203  23.569   0.201
65641W        W37367  27.371  37.941  12.633
65642W        W37368  27.312  26.517  12.256
65643W        W37369  29.966   3.148   3.356
65644W        W37370  10.368  30.825  10.617
65645W        W37371  33.091   6.179  13.297
65646W        W37372  16.689  38.942   4.730
65647W        W37373  11.879  37.487   0.702
65648W        W37374  18.571  32.681  14.393
65649W        W37375  31.677   7.820  11.085
65650W        W37376   4.976  43.929   1.206
65651W        W37377  26.118  24.085  13.461
65652W        W37378  42.082   3.509  11.411
65653W        W37379  38.305  14.717   0.824
65654W        W37380   7.685  42.961   0.062
65655W        W37381  38.318   9.103  13.027
65656W        W37382   5.975  24.282   3.687
65657W        W37383  20.531  14.763   1.809
65658W        W37384  18.285  13.904  11.693
65659W        W37385   6.352   9.622   0.855
65660W        W37386  33.313  27.326   3.707
65661W        W37387  35.941   4.955   2.685
65662W        W37388  24.749  27.370   1.955
65663W        W37389  38.949  36.429   2.006
65664W        W37390  43.353   3.383  10.251
65665W        W37391  41.959  15.114   0.741
65666W        W37392  44.319  35.803  12.703
65667W        W37393  32.704  21.248  11.175
65668W        W37394  26.184  11.638   3.807
65669W        W37395   0.664  34.327  11.265
65670W        W37396   4.086  15.282  12.940
65671W        W37397  39.765   9.449   0.749
65672W        W37398   0.939  43.250  13.790
65673W        W37399  35.842  44.564  12.010
65674W        W37400  42.929  20.821  12.812
65675W        W37401  43.281  17.777  13.021
65676W        W37402   4.438   8.321   0.164
65677W        W37403  25.203  27.443  12.346
65678W        W37404  32.938  44.276   0.117
65679W        W37405  35.996  28.594   1.212
65680W        W37406  34.412   9.899   2.632
65681W        W37407  22.554  36.182  14.956
65682W        W37408  23.251  13.312  14.047
65683W        W37409   3.890  14.085   4.450
65684W        W37410  33.933  39.125   1.338
65685W        W37411  44.310  26.922   5.041
65686W        W37412  36.263  19.659   1.814
65687W        W37413  18.730  23.121   0.131
65688W        W37414  32.353  19.768  13.943
65689W        W37415   3.217  24.937  12.823
65690W        W37416  18.879  36.212  10.381
65691W        W37417  17.803  24.758  14.489
65692W        W37418   9.551  11.314  11.316
65693W        W37419  22.154   5.488   0.686
65694W        W37420   9.761   3.690  13.856
65695W        W37421  24.255   1.625  10.310
65696W        W37422  41.541  30.669  13.507
65697W        W37423  22.641  10.118  12.600
65698W        W37424   9.530  23.200  11.259
65699W        W37425  34.807  11.216  10.722
65700W        W37426   0.206  34.367   1.373
65701W        W37427   2.289   8.458  13.865
65702W        W37428  37.677  14.347   4.577
65703W        W37429  39.280  28.239  10.264
65704W        W37430   2.907  23.881   2.802
65705W        W37431  36.051   1.888  14.994
65706W        W37432   6.369  37.145   0.863
65707W        W37433  18.009   0.587   0.845
65708W        W37434  39.094  32.881   2.574
65709W        W37435   9.668  17.428  11.514
65710W        W37436  36.757   5.444  11.453
65711W        W37437  15.536   3.759  14.017
65712W        W37438  14.817  26.712   1.218
65713W        W37439   3.364  30.205  13.433
65714W        W37440  34.527   6.953   3.786
65715W        W37441  10.142  18.902   1.918
65716W        W37442  10.214  41.063   4.567
65717W        W37443  13.705  20.291  13.781
65718W        W37444  41.444   5.344   0.611
65719W        W37445  21.331  12.902   5.110
65720W        W37446  33.943  15.347   0.364
65721W        W37447  39.414  37.990   1.636
65722W        W37448  13.849   8.357  11.198
65723W        W37449  37.307  34.467  10.384
65724W        W37450  22.135  43.961   0.350
65725W        W37451  36.027   1.676  11.192
65726W        W37452  42.417  21.818   1.692
65727W        W37453  12.138  30.573  11.644
65728W        W37454  30.638  24.625  10.661
65729W        W37455  29.880  38.716  13.006
65730W        W37456  10.806   4.993  13.393
65731W        W37457  22.107   4.750  12.421
65732W        W37458  42.235  31.356   3.287
65733W        W37459  37.597  23.461  12.465
65734W        W37460  19.154  19.311   0.889
65735W        W37461  40.545  32.097  14.336
65736W        W37462  22.315  12.689  13.423
65737W        W37463  19.666  39.633   0.343
65738W        W37464  11.255  33.866   1.848
65739W        W37465  26.686  26.476  11.500
65740W        W37466  34.998  24.947  13.266
65741W        W37467   5.740  44.511   0.622
65742W        W37468  33.014  10.422  12.453
65743W        W37469   6.365  20.522   0.466
65744W        W37470  28.523   5.863   4.454
65745W        W37471   2.155  10.598  13.410
65746W        W37472  36.852   1.860  11.135
65747W        W37473  39.775  32.228  13.270
65748W        W37474  11.409   4.519  11.847
65749W        W37475  32.942  38.346  11.689
65750W        W37476  22.998  37.357  11.599
65751W        W37477  12.386   5.920  14.511
65752W        W37478   3.816  33.135   3.918
65753W        W37479   1.818   8.297  12.408
65754W        W37480  30.523  26.859   0.031
65755W        W37481  15.571  37.023   2.516
65756W        W37482  14.850  25.289   0.474
65757W        W37483  23.046  16.320   1.778
65758W        W37484   4.177  35.815  12.511
65759W        W37485  29.634  21.094   3.624
65760W        W37486  41.781  32.830  12.174
65761W        W37487  35.496  14.592   1.207
65762W        W37488   6.902  20.895   3.222
65763W        W37489  11.768  11.786   0.501
65764W        W37490  10.639  41.326   4.230
65765W        W37491  38.076   4.433   0.609
65766W        W37492  32.367  42.879  13.282
65767W        W37493   6.995  12.924  10.447
65768W        W37494  42.531   7.841  13.894
65769W        W37495  30.184  15.261  13.885
65770W        W37496  40.922  44.049   1.292
65771W        W37497  40.592  25.206  10.411
65772W        W37498  29.486  26.245  13.212
65773W        W37499  29.527  33.166   1.348
65774W        W37500  12.285  24.190  14.480
65775W        W37501  33.989  29.007   1.966
65776W        W37502   8.198  34.672   0.868
65777W        W37503  24.644  23.279   1.437
65778W        W37504   2.486  35.262  11.584
65779W        W37505  34.874  29.136   2.953
65780W        W37506  43.850  13.256  14.837
65781W        W37507  28.105  15.252   2.653
65782W        W37508  34.820  22.510  10.873
65783W        W37509  14.853  38.142  10.242
65784W        W37510  21.657  27.165  13.743
65785W        W37511  42.019   1.436  13.893
65786W        W37512  39.624  13.723   0.503
65787W        W37513  28.715   0.231  14.200
65788W        W37514  34.088  19.397  13.050
65789W        W37515   5.812  27.618  10.448
65790W        W37516  27.015  17.578   3.292
65791W        W37517  19.082  34.762  11.210
65792W        W37518  32.547  10.153   1.929
65793W        W37519  38.085  30.899  11.874
65794W        W37520  19.099  24.690  12.456
65795W        W37521  13.004  39.491  13.882
65796W        W37522   1.966  17.853   1.606
65797W        W37523  16.254  26.581   0.375
65798W        W37524  10.914  14.937  12.150
65799W        W37525   6.860  21.110   1.229
65800W        W37526  35.579  12.198   0.614
65801W        W37527  29.926  23.022  12.874
65802W        W37528  43.801  19.259  13.976
65803W        W37529  19.528  24.721  12.176
65804W        W37530   2.396  20.335   0.324
65805W        W37531   3.952  30.997   0.173
65806W        W37532  32.166  43.368  11.584
65807W        W37533   3.963  18.264  12.069
65808W        W37534   0.844  17.102   1.304
65809W        W37535  22.503  23.208   0.668
65810W        W37536   7.353  23.294   4.070
65811W        W37537  31.107  42.862  14.936
65812W        W37538   1.861  12.390  13.889
65813W        W37539   9.840  22.931  13.968
65814W        W37540  35.933  41.339   3.782
65815W        W37541  12.312  30.177  14.290
65816W        W37542   0.145   7.429  10.805
65817W        W37543   3.315  27.497  11.172
65818W        W37544   6.284  13.262   9.808
65819W        W37545  41.505   9.206   2.243
65820W        W37546  32.077   2.902  10.607
65821W        W37547  24.359  31.835  13.571
65822W        W37548  32.258   0.512  14.944
65823W        W37549  18.017  14.269  12.065
65824W        W37550  20.102  33.405  14.802
65825W        W37551  15.742  20.049  13.117
65826W        W37552   7.489   8.309  13.611
65827W        W37553  23.249   2.852  14.726
65828W        W37554  40.779  41.474  13.071
65829W        W37555  36.312  19.723  10.667
65830W        W37556  30.558  32.137   3.082
65831W        W37557  39.800  14.054  13.310
65832W        W37558   1.404  31.989   4.637
65833W        W37559  36.102  18.826  10.779
65834W        W37560   6.974  25.234   3.229
65835W        W37561   2.990   1.585  12.461
65836W        W37562  12.233  41.929  14.812
65837W        W37563  15.088  14.301   0.280
65838W        W37564  32.459  43.031   3.230
65839W        W37565  28.228  29.018   2.417
65840W        W37566  32.921   9.196  13.995
65841W        W37567   3.945  28.571   2.438
65842W        W37568   1.221  20.121  10.978
65843W        W37569   1.395   6.969   1.955
65844W        W37570   6.916  31.911  14.383
65845W        W37571  13.711   2.925   2.422
65846W        W37572   7.926  35.427   4.095
65847W        W37573  42.286  12.715   2.739
65848W        W37574  37.112  17.018   0.125
65849W        W37575  28.913  19.452  11.065
65850W        W37576  36.327  32.678   2.344
65851W        W37577   3.913   1.927   3.267
65852W        W37578  42.133  35.313   0.939
65853W        W37579  38.970   0.290   0.481
65854W        W37580  30.172  40.945  14.044
65855W        W37581  21.569  18.251  13.024
65856W        W37582  18.626  41.345   5.058
65857W        W37583  34.410  42.624  11.554
65858W        W37584  13.137  32.822  13.803
65859W        W37585  36.513  20.966  13.415
65860W        W37586  24.736  10.687   3.432
65861W        W37587  20.600   7.744   0.245
65862W        W37588  33.494  11.150  10.858
65863W        W37589  19.638  18.860  13.345
65864W        W37590  29.971  11.745  11.109
65865W        W37591  28.481  41.019  13.004
65866W        W37592  37.973  42.898  12.534
65867W        W37593   0.198  21.791  13.438
65868W        W37594  32.917  42.400   1.845
65869W        W37595   8.847  41.399   4.179
65870W        W37596  31.921  19.298   0.341
65871W        W37597  20.955  33.029  14.435
65872W        W37598  14.941  29.404   1.449
65873W        W37599  36.261  35.842  10.957
65874W        W37600   2.820  40.630   4.140
65875W        W37601  33.883  21.315   3.252
65876W        W37602  28.222  19.744  11.464
65877W        W37603  25.895  26.077   4.509
65878W        W37604  40.031   6.534   2.760
65879W        W37605  34.041  28.618   2.339
65880W        W37606   3.193  20.296   4.004
65881W        W37607  18.245   0.310   2.820
65882W        W37608  25.730   9.501  11.058
65883W        W37609  26.414  16.043   2.199
65884W        W37610  15.393  32.135  12.889
65885W        W37611  12.541   1.776   2.662
65886W        W37612   2.456  29.442   0.434
65887W        W37613  42.805  19.849  13.025
65888W        W37614  21.086   6.137  14.388
65889W        W37615  39.533  12.377  12.979
65890W        W37616   6.797  26.326   1.362
65891W        W37617  16.686  12.275  12.027
65892W        W37618  26.596  41.828  13.499
65893W        W37619  42.500  41.045  14.294
65894W        W37620  19.296  29.975   0.886
65895W        W37621   1.566   5.969  13.961
65896W        W37622  14.513  26.525  12.857
65897W        W37623  11.091  25.556  14.824
65898W        W37624  22.802   4.295  13.044
65899W        W37625  17.778  31.100  14.785
65900W        W37626   7.122  34.092   4.171
65901W        W37627   1.762  39.553  13.740
65902W        W37628  19.676  15.342   0.844
65903W        W37629  18.425  41.007  12.904
65904W        W37630  27.017  14.167   4.601
65905W        W37631  30.391  39.874   0.380
65906W        W37632   8.698   6.748  14.271
65907W        W37633   2.764  31.358   4.468
65908W        W37634  33.533   0.682  13.439
65909W        W37635  29.083   6.676   0.777
65910W        W37636  25.450  13.098  10.791
65911W        W37637  34.956  33.642  13.955
65912W        W37638  39.845  30.737   4.933
65913W        W37639  16.113   4.774   3.846
65914W        W37640   9.192  41.193  14.359
65915W        W37641   3.739   3.509  12.403
65916W        W37642   5.621  12.066  12.281
65917W        W37643  27.987  35.408   3.617
65918W        W37644  18.281  16.748  11.626
65919W        W37645  31.321  12.386  10.269
65920W        W37646   8.531  40.750  13.956
65921W        W37647  39.453  23.056  12.520
65922W        W37648  22.559  18.592   4.612
65923W        W37649   5.715  14.089   3.927
65924W        W37650   1.238  42.637   0.403
65925W        W37651  25.273  19.617  13.029
65926W        W37652   6.153  36.272   0.568
65927W        W37653  17.588  15.650   0.950
65928W        W37654  42.110   2.778   3.153
65929W        W37655   3.007  12.280  13.048
65930W        W37656  23.626   4.362  12.389
65931W        W37657  39.410  43.309   4.593
65932W        W37658  27.796  22.662  12.288
65933W        W37659   2.483  21.643   2.376
65934W        W37660   4.386   9.285   0.901
65935W        W37661  26.507  18.196   2.726
65936W        W37662  22.661  20.047   1.343
65937W        W37663  11.261  10.786  11.274
65938W        W37664  32.502  34.937  11.772
65939W        W37665  44.570  33.522  14.948
65940W        W37666  44.241  37.791  13.068
65941W        W37667  32.128  42.897   1.790
65942W        W37668  34.500  37.141  12.906
65943W        W37669  37.765  34.488  14.872
65944W        W37670  41.404  19.207  11.580
65945W        W37671  41.538  24.162   1.853
65946W        W37672  14.279  41.814   0.994
65947W        W37673  37.558  13.662  13.427
65948W        W37674   9.886  35.954   1.079
65949W        W37675  30.755  36.450  12.548
65950W        W37676  27.329  42.386  11.128
65951W        W37677  44.985  18.547  13.928
65952W        W37678   7.193  20.953   2.793
65953W        W37679   3.442  38.428  14.959
65954W        W37680  14.689  12.709   1.300
65955W        W37681   4.304  41.964   4.449
65956W        W37682  38.772  18.019   3.318
65957W        W37683  28.982  41.834  12.965
65958W        W37684  16.670  15.870   2.331
65959W        W37685   4.823  43.030  11.529
65960W        W37686   8.330   2.013   0.482
65961W        W37687  43.557  18.517   3.329
65962W        W37688   9.711  39.909   3.605
65963W        W37689  37.122  10.872  11.196
65964W        W37690  12.712  31.589  12.474
65965W        W37691   3.261  29.716   0.958
65966W        W37692   4.704  11.456  11.597
65967W        W37693   1.299  10.092   0.319
65968W        W37694  11.574   7.285  10.543
65969W        W37695  32.138  33.191   0.162
65970W        W37696  26.710   0.314  12.958
65971W        W37697  40.083   9.699  12.628
65972W        W37698  42.237  24.626  14.592
65973W        W37699  35.067  36.871   3.705
65974W        W37700  19.052  22.354   0.450
65975W        W37701  15.983   4.384  12.459
65976W        W37702  17.107  23.413   4.093
65977W        W37703  42.674  26.144  12.014
65978W        W37704  23.114  18.232   0.478
65979W        W37705  29.705   5.917   1.183
65980W        W37706  34.305  13.909  12.076
65981W        W37707  15.795  30.667  13.562
65982W        W37708  29.046  30.013  14.051
65983W        W37709   1.428  38.303  13.651
65984W        W37710  20.484  20.865  13.769
65985W        W37711  28.547   2.184   3.842
65986W        W37712  23.134   2.968  11.220
65987W        W37713   6.923  19.802  12.927
65988W        W37714  16.210  23.636   4.092
65989W        W37715   2.664  30.671   0.984
65990W        W37716   6.437  39.817   3.058
65991W        W37717  36.786  42.047  14.375
65992W        W37718  22.384  20.552  14.996
65993W        W37719  23.585  31.049   1.446
65994W        W37720   0.304   2.297  14.456
65995W        W37721  15.747  37.752   3.903
65996W        W37722   0.236  36.671  14.046
65997W        W37723  12.037   5.688   4.589
65998W        W37724  14.075  13.115  12.437
65999W        W37725  21.230  28.691  14.339
66000W        W37726  43.649   3.841   3.660
66001W        W37727  41.653  31.108  14.326
66002W        W37728  21.802  25.661  12.374
66003W        W37729   1.512  37.823  11.104
66004W        W37730  13.275   6.162   4.858
66005W        W37731  11.398  39.744  11.505
66006W        W37732  41.030  38.570  14.141
66007W        W37733   4.671  19.565   2.312
66008W        W37734   2.818   3.829   3.280
66009W        W37735  27.971  27.047  11.204
66010W        W37736  42.862  25.044   4.034
66011W        W37737  29.494  11.072   4.542
66012W        W37738   8.891  24.659  14.264
66013W        W37739  44.251  19.046   0.882
66014W        W37740  21.165  33.498   4.650
66015W        W37741  34.899  34.914  12.679
66016W        W37742  17.065  18.142   0.247
66017W        W37743  44.432  17.062  10.835
66018W        W37744   2.986  21.224   1.309
66019W        W37745   8.258  18.328  11.678
66020W        W37746   9.515  29.555  13.930
66021W        W37747  10.845  31.438  13.550
66022W        W37748  22.894  42.703  14.715
66023W        W37749  18.650  12.157  14.029
66024W        W37750  17.835   4.447  12.815
66025W        W37751  33.134  34.078  11.999
66026W        W37752  22.720  34.959   0.954
66027W        W37753  36.972  37.806   0.770
66028W        W37754  17.753  16.527   0.088
66029W        W37755  22.214  22.041  14.345
66030W        W37756  17.088  15.350  13.442
66031W        W37757  18.302   8.609  10.660
66032W        W37758  39.191  12.458   2.699
66033W        W37759  30.039  44.499  10.442
66034W        W37760  41.477  10.895  12.619
66035W        W37761   9.726  22.893   1.190
66036W        W37762  12.332  31.880   3.421
66037W        W37763   4.533  35.994   2.801
66038W        W37764  27.456  22.037   4.374
66039W        W37765  31.655   8.705  12.538
66040W        W37766  26.841  43.570  14.679
66041W        W37767  16.277  17.638   4.781
66042W        W37768  27.927  38.654   1.621
66043W        W37769  28.035  40.753  11.171
66044W        W37770   6.878  38.682   0.346
66045W        W37771  37.404  37.458  13.803
66046W        W37772  24.019  19.684  10.674
66047W        W37773  17.040  38.021  11.420
66048W        W37774  10.395  10.378  12.421
66049W        W37775  26.531  40.338  13.388
66050W        W37776  18.583  33.643  13.513
66051W        W37777  32.801  14.834  13.425
66052W        W37778  35.640  42.832   1.698
66053W        W37779  18.752  21.070   3.804
66054W        W37780  31.205   5.176   3.660
66055W        W37781   6.144  10.251  13.382
66056W        W37782  14.950   2.156   0.676
66057W        W37783  27.157  41.751   3.105
66058W        W37784   0.936  27.465   4.786
66059W        W37785  11.555  37.389   4.574
66060W        W37786  14.073   1.943  14.006
66061W        W37787  11.681   7.305   1.756
66062W        W37788   3.334   0.449  10.686
66063W        W37789  11.373  23.235  12.995
66064W        W37790  22.802  11.474   0.368
66065W        W37791  41.371   8.890  14.307
66066W        W37792  14.362   8.322  14.021
66067W        W37793   2.402   3.227  11.320
66068W        W37794  27.964  21.382   4.675
66069W        W37795  38.006  10.161   4.246
66070W        W37796  15.142  24.449   0.766
66071W        W37797   8.894   2.876  11.929
66072W        W37798  10.751  41.290   3.285
66073W        W37799   4.263  41.647  14.875
66074W        W37800  18.614  15.220  11.080
66075W        W37801  43.979   0.276  13.834
66076W        W37802   2.762  36.616   1.334
66077W        W37803   3.787  36.294  10.705
66078W        W37804  31.627  42.062  11.113
66079W        W37805  14.766   2.988   0.944
66080W        W37806  15.915  37.196   5.235
66081W        W37807  33.929   7.430   4.078
66082W        W37808   6.534   6.926  12.085
66083W        W37809  31.364   2.183  13.280
66084W        W37810   5.825  20.330   3.401
66085W        W37811  39.358  25.436  14.219
66086W        W37812  39.913  43.725  13.457
66087W        W37813  43.945  31.891   4.728
66088W        W37814  14.313  29.610  14.769
66089W        W37815  20.742  23.261  14.012
66090W        W37816  35.867  28.999   3.423
66091W        W37817  19.750  17.118  10.686
66092W        W37818   4.084  23.091  11.709
66093W        W37819  25.885  19.074   1.213
66094W        W37820  15.078  29.497   4.306
66095W        W37821  24.637  11.651  13.528
66096W        W37822  27.952  18.261  13.999
66097W        W37823   4.762  42.966  12.044
66098W        W37824  14.091  41.919   0.007
66099W        W37825  33.030  24.473   3.695
66100W        W37826  23.947   1.184  12.914
66101W        W37827  28.555  16.530   2.359
66102W        W37828  27.572   8.719  11.823
66103W        W37829  35.353  11.816  13.808
66104W        W37830   5.331  38.073   1.461
66105W        W37831   9.183  15.678  11.296
66106W        W37832  18.260  44.446  14.258
66107W        W37833  30.487  15.795   0.264
66108W        W37834   3.412   6.874  11.642
66109W        W37835  18.545  31.523  12.151
66110W        W37836  36.497   3.173   4.534
66111W        W37837  30.347  43.845   4.563
66112W        W37838  14.053  11.502   3.210
66113W        W37839   9.627  14.729  14.605
66114W        W37840  32.399  18.466  13.540
66115W        W37841  36.071  26.022   2.693
66116W        W37842  10.229  26.408  14.364
66117W        W37843   7.717  41.568  12.064
66118W        W37844   8.571  22.450  13.810
66119W        W37845  27.177  16.221  11.215
66120W        W37846  33.038  43.362   0.393
66121W        W37847  29.403  36.602  12.581
66122W        W37848  32.568   5.913   2.399
66123W        W37849   5.619  41.575   3.168
66124W        W37850  24.321  29.668  13.420
66125W        W37851  42.493  33.196  12.878
66126W        W37852  42.801  20.655  13.392
66127W        W37853  12.117   1.161   1.798
66128W        W37854  17.375  42.044  14.066
66129W        W37855  29.802  27.392   4.190
66130W        W37856  29.728  39.772  12.313
66131W        W37857  30.096  11.354  13.263
66132W        W37858   4.826  37.499   1.944
66133W        W37859   9.405  27.675  10.387
66134W        W37860  18.004  31.924   3.760
66135W        W37861  18.099  26.465   4.031
66136W        W37862  32.384   1.359   4.647
66137W        W37863  12.814  33.038  13.478
66138W        W37864  40.106   5.464   3.624
66139W        W37865  27.683  29.436  11.084
66140W        W37866  26.419  16.177  10.539
66141W        W37867   4.779  40.300  13.974
66142W        W37868  24.453   9.018  11.630
66143W        W37869  24.172  14.850  13.886
66144W        W37870  18.321  44.106   4.108
66145W        W37871  14.627   5.321  11.878
66146W        W37872   9.098  39.235  14.441
66147W        W37873  24.481   8.262   1.095
66148W        W37874  26.842  39.975   3.661
66149W        W37875  28.591  16.697  12.597
66150W        W37876  41.063   5.085   0.389
66151W        W37877  43.564  12.124  14.551
66152W        W37878  19.354   8.707  13.098
66153W        W37879  43.486  36.499  11.590
66154W        W37880  28.447  17.574  12.427
66155W        W37881   5.194  10.382   4.276
66156W        W37882   9.201  32.918   4.116
66157W        W37883   0.864  12.833  10.593
66158W        W37884  10.648  27.643  13.122
66159W        W37885   5.582  18.518  14.316
66160W        W37886  21.749  43.250   3.775
66161W        W37887  28.444   9.153   4.617
66162W        W37888  30.526  14.816   3.864
66163W        W37889  32.195   2.751  11.915
66164W        W37890  30.430  42.828  14.356
66165W        W37891  31.641  25.566  13.961
66166W        W37892  15.488  26.294  10.269
66167W        W37893  36.808   1.654   3.323
66168W        W37894  31.498  16.271  10.721
66169W        W37895  24.688  12.270   1.935
66170W        W37896  33.594  29.524   4.135
66171W        W37897  29.950  14.620   0.993
66172W        W37898  33.994  38.320   3.788
66173W        W37899  16.192  36.629  12.936
66174W        W37900  38.644  37.111   0.500
66175W        W37901  31.973   6.714  13.821
66176W        W37902   3.075  15.407  12.933
66177W        W37903  23.547  36.636  12.124
66178W        W37904  30.215  35.016  13.063
66179W        W37905  39.828  37.935   0.530
66180W        W37906  22.093  12.794  12.018
66181W        W37907  12.313   5.684   0.953
66182W        W37908  43.355  16.209  11.188
66183W        W37909  24.221  34.369  13.456
66184W        W37910  22.469  34.308  12.942
66185W        W37911  32.618  23.976  14.746
66186W        W37912   0.399  38.039  11.078
66187W        W37913  20.497  10.346   1.202
66188W        W37914  38.421   4.450   4.370
66189W        W37915  35.385  43.801  14.545
66190W        W37916  16.304  42.912   0.488
66191W        W37917  38.945   6.262  14.659
66192W        W37918  15.280  37.833  10.212
66193W        W37919  34.410  36.014   4.843
66194W        W37920  11.650  28.200  13.786
66195W        W37921   8.364   0.789   3.828
66196W        W37922  42.070  31.529  14.005
66197W        W37923  40.015  43.298  14.561
66198W        W37924  28.181  30.889   3.686
66199W        W37925   4.583  14.317   4.962
66200W        W37926  28.656   0.699   1.654
66201W        W37927  44.600  36.632  10.829
66202W        W37928  30.208   6.227   0.677
66203W        W37929  22.732   8.783   1.709
66204W        W37930  12.673  38.561   3.539
66205W        W37931   4.421  22.725   0.506
66206W        W37932  16.708  31.867   2.384
66207W        W37933  39.478   1.805   1.492
66208W        W37934  36.008  36.516   2.927
66209W        W37935  31.421  21.651  11.287
66210W        W37936  10.074  13.769  10.730
66211W        W37937  10.264  28.335  13.357
66212W        W37938  34.044  35.076   2.724
66213W        W37939  40.437  36.398   2.240
66214W        W37940  42.285  38.878  10.651
66215W        W37941  43.338  28.501  10.724
66216W        W37942  44.526  24.479  13.818
66217W        W37943   4.455   6.999  12.953
66218W        W37944  33.172   6.023  12.690
66219W        W37945  32.343  20.519  11.666
66220W        W37946  44.782   3.548  14.400
66221W        W37947  37.619  31.049  13.545
66222W        W37948  19.570  36.213  12.132
66223W        W37949  39.745   7.187  14.364
66224W        W37950   4.336  40.435   4.381
66225W        W37951  29.097  10.323  10.634
66226W        W37952  22.561  13.005  11.114
66227W        W37953  24.527  38.187   4.912
66228W        W37954   9.180  38.725   3.727
66229W        W37955  23.810  37.739   3.334
66230W        W37956  30.857   9.753  13.864
66231W        W37957   9.584  28.553   0.504
66232W        W37958  23.173  12.162   0.807
66233W        W37959  17.111  42.254   4.300
66234W        W37960  34.194  18.379   2.175
66235W        W37961  16.675  20.946  12.056
66236W        W37962  30.753  14.824  13.531
66237W        W37963  22.721   3.067  10.472
66238W        W37964   6.178  40.245   3.148
66239W        W37965  13.683   5.508  14.067
66240W        W37966  35.885   7.705   1.943
66241W        W37967  23.225   1.951   2.691
66242W        W37968  21.504   1.499   0.480
66243W        W37969   8.836   0.861   4.050
66244W        W37970  22.281  24.018  13.815
66245W        W37971  11.725   4.342  12.233
66246W        W37972  36.466   0.492  13.035
66247W        W37973  42.373  29.810   4.613
66248W        W37974  27.988  29.520  14.570
66249W        W37975  40.832  42.297  11.527
66250W        W37976   2.924  11.327   3.858
66251W        W37977   7.069   3.460   2.695
66252W        W37978  30.654  30.850   2.449
66253W        W37979  28.954  17.733  14.825
66254W        W37980  38.940  14.876   3.103
66255W        W37981  18.625  20.760   3.128
66256W        W37982  36.481  32.993  14.296
66257W        W37983  35.819   9.908   0.291
66258W        W37984  21.037   3.266  14.027
66259W        W37985  33.656  21.641  13.477
66260W        W37986   7.540  14.316  11.959
66261W        W37987  10.184  15.767   3.872
66262W        W37988  17.457  39.092   3.764
66263W        W37989  25.434  34.659   3.286
66264W        W37990  38.360  35.788   2.323
66265W        W37991  36.667  35.470  12.469
66266W        W37992  14.217  40.321  13.381
66267W        W37993  24.954  22.558  11.009
66268W        W37994  23.173  21.487   2.724
66269W        W37995  19.636  20.194   1.248
66270W        W37996  12.240  10.133   2.546
66271W        W37997  26.058   4.962  12.037
66272W        W37998  39.721  28.104   0.330
66273W        W37999  11.502  19.251   3.592
66274W        W38000   4.495  35.015  14.365
66275W        W38001  30.888  22.241   1.998
66276W        W38002  39.873  33.038   3.220
66277W        W38003  14.337  21.409  14.879
66278W        W38004  26.567  31.016   2.925
66279W        W38005  35.691   6.296   2.560
66280W        W38006   7.170  20.813  13.378
66281W        W38007   5.951  30.043   3.253
66282W        W38008   5.228  34.171  12.539
66283W        W38009  44.644  22.125   2.062
66284W        W38010  28.686  25.682  10.711
66285W        W38011  15.529   2.722  12.065
66286W        W38012  16.131  37.371  11.113
66287W        W38013  27.586  16.731  13.993
66288W        W38014  35.131  43.059   4.643
66289W        W38015   6.933   9.753   0.222
66290W        W38016  15.694  32.495   2.219
66291W        W38017  43.593   8.850  12.753
66292W        W38018  28.151   9.336  11.264
66293W        W38019  34.822  14.231   3.628
66294W        W38020  34.930  29.023   1.933
66295W        W38021  28.608   0.668  12.047
66296W        W38022   1.502  27.044  11.334
66297W        W38023  29.348  18.791   4.083
66298W        W38024  10.221  10.328  14.762
66299W        W38025   2.920  29.616   2.848
66300W        W38026  10.825  10.985   2.729
66301W        W38027   9.365  17.783   0.034
66302W        W38028   6.198   9.290  10.929
66303W        W38029  44.936  41.846  14.284
66304W        W38030  42.876  12.604  11.049
66305W        W38031   0.184  26.589   3.561
66306W        W38032   5.963  12.554   1.457
66307W        W38033  31.203  36.492   4.449
66308W        W38034   4.832  24.238  12.834
66309W        W38035  18.192   3.112   4.686
66310W        W38036   6.386  23.988   0.689
66311W        W38037  32.561  24.147   1.324
66312W        W38038  13.781  34.281   1.875
66313W        W38039  17.565  12.048  10.778
66314W        W38040  39.554  39.725  12.060
66315W        W38041  42.788   9.148   4.577
66316W        W38042  21.096  35.948   2.779
66317W        W38043  23.475  15.772   4.163
66318W        W38044  40.383  37.095   1.987
66319W        W38045  24.195  32.041   0.145
66320W        W38046   0.476  18.234   3.569
66321W        W38047  27.705  21.444  14.103
66322W        W38048  36.361   2.517  14.481
66323W        W38049   4.227  29.004  12.565
66324W        W38050  32.383   1.716   0.676
66325W        W38051  44.428  19.150   2.387
66326W        W38052  12.728  35.900  10.486
66327W        W38053   8.452   9.655   4.652
66328W        W38054  36.022   3.930   4.780
66329W        W38055   5.517  15.489   1.026
66330W        W38056  30.114   2.380   0.790
66331W        W38057  37.141  12.838  11.033
66332W        W38058   3.210   3.900   4.141
66333W        W38059   2.075   0.835   3.643
66334W        W38060  28.155  19.260   1.823
66335W        W38061  18.337   9.130  12.526
66336W        W38062   7.602  39.482   1.514
66337W        W38063  21.728  16.624  14.009
66338W        W38064  36.039  36.364   2.416
66339W        W38065   8.706  12.972   1.671
66340W        W38066  11.614   0.648  10.058
66341W        W38067  32.344  39.336  13.874
66342W        W38068  36.756  30.017   3.871
66343W        W38069  18.622  35.006   2.861
66344W        W38070   4.707   5.550   9.628
66345W        W38071  19.774  10.389   2.637
66346W        W38072  43.504  19.375  12.480
66347W        W38073  39.111  37.639   1.298
66348W        W38074   0.299  10.910   4.106
66349W        W38075  40.539   7.035   3.789
66350W        W38076  22.209  43.798   2.112
66351W        W38077  20.468  39.154   4.994
66352W        W38078  14.831  11.137  11.200
66353W        W38079  23.112  12.132   1.854
66354W        W38080  35.520  35.402  14.874
66355W        W38081   4.604  25.664  14.511
66356W        W38082  29.219   7.342   3.185
66357W        W38083  14.885  32.119  12.820
66358W        W38084   5.404  34.332  11.586
66359W        W38085  44.858   6.848   1.608
66360W        W38086  43.768  29.310  11.680
66361W        W38087  43.928  25.244  10.643
66362W        W38088  27.081   1.348   0.444
66363W        W38089  43.740  24.376  12.972
66364W        W38090  39.598  18.837   0.484
66365W        W38091   7.919   5.269   1.975
66366W        W38092  15.252  16.874  12.880
66367W        W38093   9.636   6.839  13.873
66368W        W38094  43.987  36.074   2.321
66369W        W38095   8.819  17.528   4.823
66370W        W38096  10.888  15.818   3.716
66371W        W38097   2.796  33.920   1.405
66372W        W38098  24.094   0.900   5.233
66373W        W38099   4.031   6.921  10.922
66374W        W38100  24.678  35.584  11.832
66375W        W38101  42.938  27.930  11.869
66376W        W38102  11.176   7.251  13.152
66377W        W38103   6.500  34.570   4.657
66378W        W38104   4.123  22.672   4.379
66379W        W38105  19.589   2.315   3.160
66380W        W38106  24.682  41.759  14.942
66381W        W38107  21.911  18.343   2.738
66382W        W38108  15.516  32.933   3.352
66383W        W38109   2.877  18.289  14.908
66384W        W38110  13.316  10.955  13.224
66385W        W38111  21.815  27.891   4.759
66386W        W38112  24.639  38.751   3.732
66387W        W38113  34.852   5.143   3.161
66388W        W38114  20.165   3.210  11.579
66389W        W38115  20.442  42.820  14.621
66390W        W38116  35.123  26.441  13.604
66391W        W38117  36.087  16.071   2.790
66392W        W38118   4.748  30.234  14.247
66393W        W38119  38.345  12.257   1.417
66394W        W38120  16.293  44.918   4.457
66395W        W38121  16.733   6.774   1.430
66396W        W38122  10.956  35.125  13.588
66397W        W38123  30.537  20.157   5.116
66398W        W38124  31.571  21.780   0.220
66399W        W38125  33.475  42.084   3.263
66400W        W38126  25.542   4.726  12.643
66401W        W38127  21.596   2.716  14.835
66402W        W38128  33.415  22.118  13.426
66403W        W38129  19.488   8.230   1.989
66404W        W38130  42.593  42.079   1.715
66405W        W38131   1.813  39.486   1.234
66406W        W38132  21.291  12.610  12.483
66407W        W38133  23.189   0.817   0.326
66408W        W38134   8.774  10.261   2.290
66409W        W38135   1.698   3.787  12.477
66410W        W38136  35.450   8.377   4.572
66411W        W38137  13.998  33.100   0.336
66412W        W38138   9.273  29.158   2.401
66413W        W38139  31.977   1.377   2.727
66414W        W38140  43.215  25.105   3.637
66415W        W38141  14.255  26.566   1.800
66416W        W38142  27.095  33.518  14.294
66417W        W38143   1.337  22.201  14.813
66418W        W38144  29.507  23.502  11.421
66419W        W38145  32.468  34.197  14.797
66420W        W38146   0.684   0.153  14.796
66421W        W38147  32.755  43.018  13.618
66422W        W38148  24.157   5.882   4.470
66423W        W38149  20.677  12.181   4.577
66424W        W38150  29.160  26.306  14.825
66425W        W38151  44.143  26.918  10.910
66426W        W38152  25.257  11.827   5.018
66427W        W38153  33.540  30.156  11.418
66428W        W38154  36.076  10.657  13.843
66429W        W38155  41.543  22.966  12.203
66430W        W38156   1.342  20.672  12.968
66431W        W38157   9.807  27.226   0.825
66432W        W38158  39.975   4.354  14.447
66433W        W38159  13.795   6.146  14.819
66434W        W38160  11.139   8.395   2.186
66435W        W38161  22.707  33.150   3.159
66436W        W38162  41.830  20.650   1.501
66437W        W38163  34.579  44.973  13.052
66438W        W38164  18.698  16.494  10.218
66439W        W38165  10.821  12.774  11.099
66440W        W38166   3.729  24.932  12.913
66441W        W38167   2.480  34.152   2.414
66442W        W38168  43.854  22.169   0.887
66443W        W38169   1.376  12.218  14.863
66444W        W38170  40.877  39.847   3.126
66445W        W38171  40.497  15.448  11.025
66446W        W38172  23.569  22.123  14.513
66447W        W38173  10.018  16.591  11.406
66448W        W38174   3.329  19.962   3.103
66449W        W38175  20.290  35.485   3.144
66450W        W38176  34.060  25.354  12.917
66451W        W38177  28.114  33.088  12.988
66452W        W38178  29.721   9.798  13.360
66453W        W38179  31.050  34.928   4.627
66454W        W38180  34.590  17.306  12.536
66455W        W38181  37.112  32.306  13.919
66456W        W38182  39.109  29.248  11.558
66457W        W38183   9.364  40.350   2.233
66458W        W38184   3.707  17.646  10.800
66459W        W38185  10.894  33.168   4.682
66460W        W38186  17.740  32.152   3.356
66461W        W38187  15.649  20.034   3.072
66462W        W38188  38.908  18.852  13.554
66463W        W38189  16.642  30.851  12.516
66464W        W38190  19.645   7.424   2.170
66465W        W38191  12.042   8.592   4.211
66466W        W38192   7.333   4.200   0.178
66467W        W38193  19.739  13.090  10.686
66468W        W38194  17.825  43.958  12.718
66469W        W38195  25.444  15.870   2.418
66470W        W38196  26.036  41.921   2.658
66471W        W38197  25.366  20.031   1.919
66472W        W38198  42.038  42.816  12.812
66473W        W38199   2.140  16.507   2.406
66474W        W38200  17.067  42.623  13.338
66475W        W38201  42.422  37.889   1.402
66476W        W38202  25.040   9.538   1.909
66477W        W38203  13.384  28.521   2.377
66478W        W38204  22.991  30.326   0.250
66479W        W38205   1.016  22.425   4.255
66480W        W38206  18.056  41.107   4.353
66481W        W38207  10.272  19.453  11.025
66482W        W38208  17.119  11.172  11.024
66483W        W38209  10.292   9.963  13.419
66484W        W38210   7.223  14.260   0.870
66485W        W38211  44.268  27.518  14.747
66486W        W38212  42.587  33.501  14.809
66487W        W38213  10.332  20.490  14.375
66488W        W38214   9.331  15.373  14.149
66489W        W38215   7.225   0.701  12.509
66490W        W38216  18.251  17.453  12.293
66491W        W38217  18.271  33.820   1.987
66492W        W38218   4.181  35.838   1.333
66493W        W38219  14.636  25.509  14.550
66494W        W38220   4.097  27.218  13.562
66495W        W38221  29.060  40.324  14.378
66496W        W38222  24.933  14.582  11.120
66497W        W38223  30.106   9.092   3.235
66498W        W38224  31.126  28.980  11.548
66499W        W38225  14.101  14.804  12.990
66500W        W38226  42.314  10.292   0.057
66501W        W38227  25.213  28.518  11.542
66502W        W38228  25.213  22.418  11.964
66503W        W38229  27.544  41.506   4.117
66504W        W38230  34.860   4.763   0.875
66505W        W38231  36.342  32.047  13.334
66506W        W38232  44.937  29.061   2.770
66507W        W38233   3.947  39.101   1.132
66508W        W38234  27.986  38.004   2.147
66509W        W38235  22.455  25.449   1.478
66510W        W38236   4.459   6.844  10.511
66511W        W38237  34.960  13.752   3.750
66512W        W38238  17.376  44.287   1.816
66513W        W38239   3.882  23.536  12.561
66514W        W38240   1.693   5.348   0.449
66515W        W38241  31.943  27.212  13.967
66516W        W38242   4.939  17.083  13.301
66517W        W38243  26.120  36.484   4.095
66518W        W38244  10.166  12.587   4.922
66519W        W38245  20.870  14.889   1.455
66520W        W38246   3.147  12.444   1.283
66521W        W38247   9.864  26.056  12.328
66522W        W38248  39.909  11.335  11.658
66523W        W38249  44.027   1.235   0.789
66524W        W38250  21.542   7.991   0.283
66525W        W38251  15.847  21.533   3.079
66526W        W38252  44.358   6.668   4.559
66527W        W38253  31.492  37.349  12.068
66528W        W38254  23.178   1.864  13.806
66529W        W38255  31.154  22.473   2.794
66530W        W38256  28.967  21.213   4.584
66531W        W38257  27.037  30.227  14.571
66532W        W38258  13.072  24.533  14.034
66533W        W38259  17.825  35.989   0.883
66534W        W38260   6.006  40.043   4.294
66535W        W38261   0.843  21.738   0.499
66536W        W38262   3.409  34.840  11.647
66537W        W38263  40.254  34.880  14.239
66538W        W38264  16.805  13.588   3.247
66539W        W38265  21.205  19.428   0.174
66540W        W38266   6.403  44.393  12.823
66541W        W38267  24.349  14.348   4.928
66542W        W38268  16.161  17.921   0.302
66543W        W38269  11.088  13.563  10.733
66544W        W38270   9.133  39.904  12.996
66545W        W38271   5.810  10.890  12.046
66546W        W38272  12.071   9.409  13.445
66547W        W38273  25.418  32.174   0.493
66548W        W38274  12.572  14.038   4.044
66549W        W38275  31.358  44.900  12.045
66550W        W38276  18.179  35.944   3.789
66551W        W38277  33.637  35.713   4.187
66552W        W38278  37.932  23.563  11.603
66553W        W38279   7.491  13.070   3.225
66554W        W38280   6.340   8.718   0.615
66555W        W38281  15.569  44.928   1.393
66556W        W38282  15.275  27.032  12.710
66557W        W38283  16.685  12.324   3.754
66558W        W38284  39.365  22.486   2.362
66559W        W38285  18.872  42.123  11.119
66560W        W38286  19.544  29.542  11.598
66561W        W38287  43.053  34.650   3.182
66562W        W38288  24.071  44.251   2.012
66563W        W38289  18.830  12.682   4.015
66564W        W38290  12.923  38.331   2.464
66565W        W38291  41.939   0.571   3.315
66566W        W38292   3.233  23.626   3.212
66567W        W38293  19.281  32.691   1.976
66568W        W38294  13.081  36.641  12.493
66569W        W38295  32.562  30.376   4.854
66570W        W38296  23.430  14.896  10.616
66571W        W38297  17.224  44.499  11.507
66572W        W38298   8.448  19.296  11.705
66573W        W38299  12.770  23.003   2.847
66574W        W38300   7.883  26.775  12.738
66575W        W38301   1.907  41.680  12.928
66576W        W38302   5.710  42.254  10.482
66577W        W38303  36.339  37.896  13.385
66578W        W38304  32.531  27.142   0.886
66579W        W38305  12.811  21.710   4.786
66580W        W38306  12.013  27.613   0.082
66581W        W38307  19.595  23.286   2.856
66582W        W38308  34.513  31.597   4.178
66583W        W38309  17.335  10.385  13.635
66584W        W38310  26.638  26.529  10.597
66585W        W38311  29.937  15.113   3.203
66586W        W38312  10.211   8.078   1.769
66587W        W38313  14.625  36.070   4.706
66588W        W38314  41.577   7.538  11.401
66589W        W38315  33.568   8.302   1.780
66590W        W38316   2.684   5.843  10.502
66591W        W38317   0.246  40.924  14.948
66592W        W38318   1.906  44.697   3.485
66593W        W38319   3.307  14.604   0.784
66594W        W38320  38.013  28.200  11.527
66595W        W38321  41.849  29.226   1.940
66596W        W38322  11.254  39.923   0.875
66597W        W38323   8.093  27.662  13.966
66598W        W38324   5.882   0.458  12.566
66599W        W38325  38.147   5.647  14.480
66600W        W38326  27.687  24.712  10.819
66601W        W38327   2.975  34.492   4.556
66602W        W38328  24.743  12.649  13.448
66603W        W38329  40.204   0.829  12.955
66604W        W38330  28.094  39.677  13.958
66605W        W38331  36.432  20.967   4.090
66606W        W38332  16.099   9.784  12.066
66607W        W38333   9.801  31.493   0.265
66608W        W38334  30.228  38.596  14.828
66609W        W38335  15.523  34.066   2.613
66610W        W38336   9.910  21.368   2.032
66611W        W38337  35.780   7.889  13.138
66612W        W38338  19.769  39.475   3.261
66613W        W38339  36.015  44.082  12.090
66614W        W38340  34.896  14.116   0.687
66615W        W38341  37.569  10.178   0.014
66616W        W38342  11.736  27.421  11.206
66617W        W38343  23.060  24.993   0.273
66618W        W38344  23.112  19.297  12.075
66619W        W38345   4.539  11.641  14.044
66620W        W38346  14.756  25.488   0.943
66621W        W38347  23.272  13.406  11.680
66622W        W38348  41.238  38.092   1.931
66623W        W38349   6.887  14.984  11.109
66624W        W38350  42.457  39.649  14.359
66625W        W38351  19.161  35.871   1.186
66626W        W38352   8.941   7.191  14.439
66627W        W38353   5.424  17.576  13.728
66628W        W38354  14.580   1.144  11.078
66629W        W38355  40.749  38.016   3.527
66630W        W38356  42.897  40.301  14.021
66631W        W38357  19.965   9.027   4.441
66632W        W38358  40.279  24.717   2.843
66633W        W38359   8.340   0.566   1.317
66634W        W38360  22.628  13.196   2.248
66635W        W38361  31.112  42.216  13.360
66636W        W38362   1.310  21.513   0.792
66637W        W38363  23.504  16.266   3.851
66638W        W38364  41.974  36.270   2.394
66639W        W38365   8.495  41.819  14.377
66640W        W38366  42.482   3.361   1.340
66641W        W38367  23.262  10.691  10.613
66642W        W38368  17.033  17.654  13.573
66643W        W38369   5.294  36.002   3.365
66644W        W38370  26.786  12.687   2.862
66645W        W38371  38.654  18.577   1.373
66646W        W38372  27.432  18.230  12.329
66647W        W38373  40.044   2.774  10.733
66648W        W38374   7.705  10.614  14.266
66649W        W38375  22.145  12.027   1.760
66650W        W38376   0.566  23.998   1.282
66651W        W38377  35.501  41.212  11.918
66652W        W38378  23.747  10.789   0.908
66653W        W38379  19.056  16.327  10.584
66654W        W38380  12.985  23.537   2.084
66655W        W38381  32.446   2.387   0.360
66656W        W38382  30.989  26.181  11.385
66657W        W38383  19.308  24.946   3.588
66658W        W38384  40.883   0.270  10.589
66659W        W38385  33.951  11.451  13.905
66660W        W38386  18.549  40.310   0.568
66661W        W38387  21.814  11.590  10.939
66662W        W38388  33.881  44.294  12.325
66663W        W38389  14.053   3.754   1.392
66664W        W38390  10.843  24.146   2.510
66665W        W38391  13.658   2.924  11.191
66666W        W38392  23.770  43.949  11.067
66667W        W38393   4.196  26.473   1.797
66668W        W38394  14.791   4.994   0.530
66669W        W38395  36.039   4.501   0.140
66670W        W38396  23.079  33.311  11.582
66671W        W38397  32.052   2.804   4.591
66672W        W38398  30.567  32.956  14.944
66673W        W38399  33.864  33.363  12.409
66674W        W38400  26.146   7.633   1.409
66675W        W38401   9.305  43.406  13.992
66676W        W38402  40.024  22.002  12.208
66677W        W38403  42.761  41.974  13.362
66678W        W38404  18.389  28.153   4.311
66679W        W38405  36.139  16.298   1.887
66680W        W38406  26.602  25.584   4.877
66681W        W38407  10.389  40.717   3.675
66682W        W38408  20.908  37.443   2.734
66683W        W38409  43.899   1.230  13.798
66684W        W38410  31.857  26.301   3.206
66685W        W38411  42.251   9.939  11.640
66686W        W38412  27.692   0.240  14.960
66687W        W38413  12.781   2.231   2.644
66688W        W38414  20.995  38.719   4.145
66689W        W38415  37.349  13.772   0.446
66690W        W38416  16.516  32.816   2.514
66691W        W38417   8.133  23.036   5.635
66692W        W38418  26.251   2.878   2.157
66693W        W38419   2.757  35.619   3.835
66694W        W38420  44.027   3.263   3.734
66695W        W38421  10.235   4.000  14.933
66696W        W38422  38.508   8.661  10.712
66697W        W38423  42.503   6.974  12.869
66698W        W38424  25.211  35.822  12.947
66699W        W38425  21.774  19.114   0.429
66700W        W38426  39.488  18.655   0.959
66701W        W38427  18.683   8.125  14.186
66702W        W38428  15.037  33.511  11.058
66703W        W38429  22.980  17.299  10.488
66704W        W38430  24.689  40.755  12.089
66705W        W38431  44.347  34.954  12.229
66706W        W38432  26.616  37.844  13.365
66707W        W38433  40.742  27.028  12.844
66708W        W38434  24.275  21.533   0.293
66709W        W38435  30.380  37.490   2.394
66710W        W38436   5.947  30.409   3.639
66711W        W38437  42.450  12.252   2.416
66712W        W38438   6.425  16.012  11.610
66713W        W38439  30.615   5.688   4.725
66714W        W38440   5.239  32.281  13.568
66715W        W38441  25.688  18.114  12.516
66716W        W38442  22.528  19.079   1.375
66717W        W38443  22.170  21.567  14.538
66718W        W38444  35.307   6.789  10.723
66719W        W38445   2.824  38.038  13.851
66720W        W38446  16.399  11.825   1.416
66721W        W38447  39.556  22.164  12.906
66722W        W38448   6.338   1.747  11.233
66723W        W38449   0.321  43.576  14.919
66724W        W38450  14.710  32.434   4.279
66725W        W38451   2.236  28.108   3.671
66726W        W38452  28.651  38.970  13.524
66727W        W38453  31.299   1.669   1.354
66728W        W38454  36.476   8.356   4.236
66729W        W38455  25.522  35.491  12.686
66730W        W38456  27.147  26.705   3.663
66731W        W38457  14.732  11.680   0.720
66732W        W38458  28.382   0.867  10.712
66733W        W38459  40.589  34.381   2.293
66734W        W38460  17.107  35.947  11.543
66735W        W38461   1.909  24.654  13.734
66736W        W38462  33.406  13.846   5.006
66737W        W38463  24.532  42.205  13.987
66738W        W38464  18.167  18.304   1.420
66739W        W38465   2.300  20.328  13.099
66740W        W38466  41.554  25.988  11.245
66741W        W38467   2.530   0.096  11.165
66742W        W38468  36.961   6.303   3.276
66743W        W38469  34.136  39.559   1.119
66744W        W38470  28.415   9.242   0.851
66745W        W38471   1.431  36.884   1.941
66746W        W38472  18.531  32.491  13.023
66747W        W38473  21.339  28.699   2.894
66748W        W38474  40.349  28.191   4.957
66749W        W38475  37.036  28.060  11.149
66750W        W38476  27.584  18.527  13.178
66751W        W38477  30.528  17.328   3.248
66752W        W38478  31.474  20.309  11.986
66753W        W38479   6.264  38.334  12.202
66754W        W38480  28.012  39.434   4.326
66755W        W38481  10.851  43.519   3.253
66756W        W38482  22.567  30.026   0.473
66757W        W38483  21.003  33.553  11.951
66758W        W38484   5.381  32.551   0.597
66759W        W38485  23.072  20.759   3.209
66760W        W38486  15.804  31.434   2.335
66761W        W38487  19.764  33.485  10.673
66762W        W38488  35.878  37.049   0.403
66763W        W38489   6.715  11.844  10.595
66764W        W38490  24.508  36.469  12.350
66765W        W38491  33.567  34.590   0.843
66766W        W38492  16.288  42.515   3.739
66767W        W38493  19.728  23.451   2.266
66768W        W38494  38.514   8.010  12.020
66769W        W38495  12.074  39.218   1.013
66770W        W38496  10.170  11.146   0.171
66771W        W38497  23.055  38.930   1.285
66772W        W38498  42.183  32.991   4.253
66773W        W38499  17.774  24.481  14.036
66774W        W38500  33.101   1.955   4.526
66775W        W38501  37.855  44.989  11.534
66776W        W38502  21.370  32.338   2.762
66777W        W38503   9.646  29.513  12.349
66778W        W38504  11.835  14.373  10.835
66779W        W38505  23.207  25.852   4.648
66780W        W38506   1.510  38.259   0.695
66781W        W38507  15.389   5.017  14.935
66782W        W38508  35.045   8.020  11.213
66783W        W38509  39.967   2.255   3.116
66784W        W38510  30.162  28.445   4.625
66785W        W38511   6.827  21.737   2.871
66786W        W38512  43.426  16.993  13.500
66787W        W38513   5.357  17.774   1.762
66788W        W38514  42.198  10.580  11.015
66789W        W38515  43.187  19.782  12.416
66790W        W38516  12.850  24.538   1.030
66791W        W38517  25.618  32.493  10.613
66792W        W38518  28.175  27.441   3.261
66793W        W38519  12.123  43.463  11.544
66794W        W38520  17.569  27.627   3.699
66795W        W38521  28.104  12.152  12.774
66796W        W38522  22.664  11.161  14.915
66797W        W38523  37.934  29.642  11.594
66798W        W38524   5.937   7.386   5.008
66799W        W38525  26.080  14.101  11.627
66800W        W38526  28.058  18.803  13.941
66801W        W38527  33.427   0.694   2.266
66802W        W38528  34.345  21.227   2.963
66803W        W38529  30.462  30.814  13.834
66804W        W38530  30.805  11.842  11.516
66805W        W38531  18.166  33.044  13.063
66806W        W38532  28.121  33.323   4.679
66807W        W38533  32.177  27.077  14.437
66808W        W38534  37.096  31.349   1.785
66809W        W38535  22.940  37.407   0.135
66810W        W38536   5.009  35.072   0.811
66811W        W38537  43.423   7.985  13.384
66812W        W38538   2.835  31.902   1.437
66813W        W38539  23.053  19.932  14.534
66814W        W38540  30.015  39.346   3.618
66815W        W38541  26.125  31.005  11.574
66816W        W38542  41.535  11.193   2.352
66817W        W38543  35.650  39.924   0.367
66818W        W38544  22.184  38.002   4.292
66819W        W38545  27.336  31.802   3.170
66820W        W38546  43.552  18.552  13.457
66821W        W38547  20.617   4.305   3.323
66822W        W38548  43.351  34.670   1.397
66823W        W38549  18.039  21.695   4.055
66824W        W38550   7.190   5.591  10.951
66825W        W38551  15.669  26.109   2.141
66826W        W38552   9.650  26.119   4.366
66827W        W38553  35.114   9.020  11.774
66828W        W38554  25.019  34.114   3.076
66829W        W38555  30.985   8.162  13.613
66830W        W38556   6.815  33.444  11.122
66831W        W38557  24.739  13.768  11.998
66832W        W38558   6.097  39.744   4.730
66833W        W38559  19.993   3.498  12.032
66834W        W38560  39.387  19.328  11.135
66835W        W38561   6.584   9.434   4.148
66836W        W38562  32.644  28.762   2.608
66837W        W38563  27.050  31.164  12.484
66838W        W38564   7.770   7.440  11.614
66839W        W38565  15.513  21.925   3.184
66840W        W38566   8.555  27.289   0.764
66841W        W38567  44.870  16.884   2.390
66842W        W38568  22.255  44.816  12.977
66843W        W38569   8.520  39.296   1.163
66844W        W38570  10.747  33.079   1.545
66845W        W38571  37.020  32.646   1.854
66846W        W38572   8.109  22.547   4.101
66847W        W38573  39.525   6.712   2.904
66848W        W38574  32.195  28.776  11.890
66849W        W38575   2.935  44.789   1.681
66850W        W38576   6.432   6.657  13.854
66851W        W38577  12.629  14.701   0.371
66852W        W38578   3.522  41.753  11.664
66853W        W38579  32.365  44.249   5.425
66854W        W38580  40.388   6.945  12.083
66855W        W38581   6.753  16.094  12.469
66856W        W38582  30.339  11.657  14.541
66857W        W38583  28.456  37.284   0.612
66858W        W38584  16.848  23.477   4.956
66859W        W38585  18.733  40.224   2.865
66860W        W38586  34.685   6.481   2.747
66861W        W38587  21.266  10.253   4.126
66862W        W38588   7.226   5.483  12.001
66863W        W38589  33.355  43.705   4.471
66864W        W38590  40.338  16.773   0.498
66865W        W38591  16.834  25.625   1.160
66866W        W38592  43.043   7.745  11.595
66867W        W38593  36.892  18.874   2.666
66868W        W38594  28.710  26.193   3.383
66869W        W38595  12.014  28.844   4.174
66870W        W38596  30.688  28.990   2.647
66871W        W38597  23.032  30.948   0.790
66872W        W38598   3.075   8.856  13.414
66873W        W38599   5.155  35.182  11.051
66874W        W38600  29.702  19.167  13.822
66875W        W38601  13.345   3.386  13.385
66876W        W38602  36.263   7.838  12.999
66877W        W38603  39.075  32.980  12.010
66878W        W38604   4.015  12.255   2.172
66879W        W38605  16.053  43.398  14.738
66880W        W38606  17.742   8.654  10.726
66881W        W38607  35.873  31.197   4.534
66882W        W38608  29.688  18.648  10.585
66883W        W38609  24.420  14.315   3.188
66884W        W38610  40.572  19.637   2.726
66885W        W38611  11.659  19.331   1.183
66886W        W38612   5.615  18.282  11.913
66887W        W38613  13.362  11.162  11.010
66888W        W38614  32.180   5.272  14.744
66889W        W38615  11.620   9.112  13.420
66890W        W38616  33.657  36.055   0.851
66891W        W38617  13.361   8.821  13.397
66892W        W38618  43.914   6.770  11.814
66893W        W38619  17.628   6.896  11.142
66894W        W38620  37.574   3.519   1.970
66895W        W38621  13.202  14.233  10.463
66896W        W38622  14.795  34.678  14.436
66897W        W38623   8.344  40.497  11.315
66898W        W38624  44.944  18.519  11.270
66899W        W38625   2.667  23.220   0.527
66900W        W38626  36.089  14.627   0.649
66901W        W38627  44.442  36.315   2.231
66902W        W38628  32.690  20.101  11.815
66903W        W38629   7.858  31.951   0.956
66904W        W38630  11.955  21.698   1.263
66905W        W38631  28.973  35.958  13.665
66906W        W38632  11.869  19.531  14.869
66907W        W38633   6.690   9.595  13.764
66908W        W38634  11.733   8.951   2.766
66909W        W38635  29.517  38.542   3.579
66910W        W38636  42.412   5.796  10.730
66911W        W38637  25.392   2.604   1.001
66912W        W38638  15.154  29.459  13.824
66913W        W38639  21.834  30.318  14.384
66914W        W38640   8.765   0.834   1.429
66915W        W38641  42.113  39.516  13.950
66916W        W38642   7.293  18.828   0.143
66917W        W38643  40.025   1.956  13.498
66918W        W38644  38.136  11.209   4.447
66919W        W38645  23.913  10.137   1.864
66920W        W38646  19.486   8.524  11.061
66921W        W38647  23.424  41.850   3.592
66922W        W38648  40.889  28.054  11.689
66923W        W38649  29.729   4.100   4.939
66924W        W38650  16.667  18.310  12.612
66925W        W38651   6.063  10.102   3.843
66926W        W38652  21.795  39.493   3.277
66927W        W38653   2.498   9.138   3.304
66928W        W38654  36.458  24.290  13.441
66929W        W38655  43.245  27.929   3.312
66930W        W38656  37.386  37.517   1.926
66931W        W38657  37.366  23.499   4.361
66932W        W38658  15.780  12.559   1.431
66933W        W38659   4.313  24.005   0.849
66934W        W38660   0.400  15.570   1.848
66935W        W38661  33.366   3.745  13.264
66936W        W38662   6.360  34.665   3.168
66937W        W38663  41.983  15.308  14.383
66938W        W38664  37.524  23.168   2.130
66939W        W38665  18.231  42.780   1.697
66940W        W38666  14.516  22.459  14.915
66941W        W38667  35.339  39.191   4.978
66942W        W38668  39.583  29.775   2.429
66943W        W38669  31.033  41.968   4.555
66944W        W38670   3.891  10.754  14.470
66945W        W38671  41.446  12.915   0.687
66946W        W38672  25.277   5.225  14.069
66947W        W38673   2.566  41.523   4.009
66948W        W38674  38.521   2.011   0.496
66949W        W38675   4.971  20.967   0.295
66950W        W38676   1.033  34.499   3.718
66951W        W38677   6.908  16.673  14.276
66952W        W38678  18.086  44.470  14.775
66953W        W38679  31.450  17.752  12.188
66954W        W38680  36.305  31.083  10.690
66955W        W38681  34.167  21.602   1.513
66956W        W38682  30.027   0.444   0.938
66957W        W38683  11.654  30.587  13.972
66958W        W38684  31.919  40.077   4.815
66959W        W38685  37.770  35.815   4.086
66960W        W38686  13.595  27.533  14.438
66961W        W38687  32.616   4.719  12.384
66962W        W38688  13.155  44.893  12.563
66963W        W38689  28.380  34.532  12.998
66964W        W38690   1.454   6.542  13.088
66965W        W38691  33.560  32.429   1.185
66966W        W38692  40.586  40.885  14.450
66967W        W38693  18.098  27.220  12.489
66968W        W38694   8.292  29.593  11.919
66969W        W38695  21.303  14.590  11.675
66970W        W38696  36.027  12.814   3.034
66971W        W38697  20.825  33.658   1.414
66972W        W38698  37.864   7.769   4.342
66973W        W38699  25.349  33.101  14.386
66974W        W38700  31.033  14.036  13.265
66975W        W38701  12.808  35.016  14.227
66976W        W38702   9.288  28.230  13.017
66977W        W38703  35.874  11.273   4.599
66978W        W38704   7.294  15.725   9.968
66979W        W38705  37.912   1.112   2.941
66980W        W38706  13.364   3.674   0.788
66981W        W38707  23.751  27.435   4.527
66982W        W38708   8.624   3.931  13.310
66983W        W38709  14.843   3.877   2.891
66984W        W38710  24.514  40.715   2.779
66985W        W38711   7.629  41.472   0.907
66986W        W38712  35.463  26.992   1.860
66987W        W38713  38.087  28.624   2.062
66988W        W38714  27.675  34.849   1.468
66989W        W38715  17.835  29.681   4.289
66990W        W38716   2.729  12.108   4.438
66991W        W38717   5.828   9.255   1.760
66992W        W38718  37.127  36.243  14.098
66993W        W38719  11.343  32.986  11.186
66994W        W38720   9.937  10.041   0.496
66995W        W38721   3.786   3.895  14.377
66996W        W38722  15.722  12.928   4.487
66997W        W38723  22.968  35.494  12.402
66998W        W38724  22.316  32.049  11.921
66999W        W38725  39.992   0.281  13.710
67000W        W38726  28.065  17.776   1.674
67001W        W38727  43.416  18.648   1.789
67002W        W38728  34.574  25.970  14.984
67003W        W38729  22.143   3.227   3.801
67004W        W38730  15.558  42.955   4.682
67005W        W38731  16.557   8.193   2.812
67006W        W38732  39.875  40.029  12.357
67007W        W38733  15.151   8.325  13.241
67008W        W38734  38.058  26.468  14.509
67009W        W38735   3.420  29.651   2.693
67010W        W38736  23.643  11.160  10.943
67011W        W38737  17.838  14.860   1.919
67012W        W38738   3.316  11.302  10.398
67013W        W38739   6.947  11.052   4.200
67014W        W38740  24.659  20.086   2.387
67015W        W38741  27.519  38.319   4.354
67016W        W38742  32.759   0.048   3.681
67017W        W38743   5.946   8.579  11.939
67018W        W38744  28.967  35.832  11.556
67019W        W38745  20.498  41.982  14.336
67020W        W38746  25.171  31.032  10.629
67021W        W38747  22.789  43.043  11.070
67022W        W38748  37.284  38.539  12.974
67023W        W38749  33.526  35.992  11.188
67024W        W38750  10.945   5.205  13.861
67025W        W38751   2.531  35.520   1.827
67026W        W38752  11.134  11.175   0.470
67027W        W38753  30.785   1.823   4.184
67028W        W38754   5.480  31.510  12.966
67029W        W38755   9.415   8.238   2.917
67030W        W38756  42.317  28.417  11.536
67031W        W38757  12.208  11.172  13.098
67032W        W38758   8.818  15.616   4.137
67033W        W38759  35.329  29.668  12.842
67034W        W38760   6.772  31.053  13.954
67035W        W38761  14.245  17.976  13.988
67036W        W38762  40.646  41.445  12.001
67037W        W38763   3.862  40.916   4.384
67038W        W38764  39.249  29.341  13.845
67039W        W38765   5.984  26.948   4.631
67040W        W38766  23.372   0.038   4.598
67041W        W38767  39.748  43.919  13.917
67042W        W38768  19.596  18.050   0.823
67043W        W38769   2.703  15.659  14.073
67044W        W38770  41.065   3.508  12.535
67045W        W38771  37.528   9.935  10.463
67046W        W38772   9.210  14.984   1.712
67047W        W38773  30.416  15.259   4.098
67048W        W38774  30.395  38.330  14.294
67049W        W38775  14.622  30.918   4.082
67050W        W38776  31.453  35.571  12.923
67051W        W38777  44.463  42.528   0.852
67052W        W38778  41.981  21.664  11.470
67053W        W38779   0.733  20.350   2.649
67054W        W38780  33.586  24.927   5.187
67055W        W38781  31.430  42.279  10.668
67056W        W38782  30.400   5.815   0.407
67057W        W38783  13.622  31.470  12.980
67058W        W38784  34.964  15.799  12.957
67059W        W38785   1.732  24.591   4.144
67060W        W38786  32.943  41.368  13.884
67061W        W38787  31.112  40.583   2.301
67062W        W38788  21.006   2.053   4.159
67063W        W38789  40.052  17.495  14.823
67064W        W38790  10.434  39.295   3.061
67065W        W38791  23.336  43.128   2.892
67066W        W38792   0.883  42.058   4.566
67067W        W38793  38.414  35.983  10.902
67068W        W38794  22.803   9.127  11.112
67069W        W38795  41.333  26.157   3.628
67070W        W38796   5.155  37.861  10.501
67071W        W38797  24.275  31.432  11.022
67072W        W38798  14.459  27.418  11.859
67073W        W38799  35.408  21.266  11.133
67074W        W38800  26.003  15.951   3.776
67075W        W38801  42.469  14.308   1.709
67076W        W38802   5.732  11.203  12.461
67077W        W38803   7.367  36.072   3.640
67078W        W38804   2.438  30.525  11.428
67079W        W38805   9.558   9.681   0.498
67080W        W38806  40.274  33.977   2.321
67081W        W38807  24.582  17.731   4.955
67082W        W38808   7.026  11.221   0.941
67083W        W38809  26.456  39.019   3.179
67084W        W38810  41.979   7.834   4.743
67085W        W38811  23.504  28.971  14.748
67086W        W38812  25.113  34.155   2.101
67087W        W38813   5.153   7.019   1.960
67088W        W38814  28.455  36.580  14.891
67089W        W38815  34.893  16.891   4.716
67090W        W38816  14.548  33.089  13.850
67091W        W38817  23.068  28.111  14.023
67092W        W38818  35.828  44.478   2.367
67093W        W38819   0.531  40.442   3.892
67094W        W38820   8.453  22.481   4.529
67095W        W38821  44.578  33.028   9.867
67096W        W38822  22.587  10.126  11.049
67097W        W38823  14.214  33.847  12.521
67098W        W38824  11.574  26.217   3.338
67099W        W38825  40.295   7.805   3.281
67100W        W38826  24.384  30.600   4.643
67101W        W38827  10.598  13.612   0.401
67102W        W38828   4.284  14.675  10.235
67103W        W38829  32.854  33.898   2.365
67104W        W38830  11.793  33.699   2.688
67105W        W38831  34.193  42.058  12.778
67106W        W38832  44.784  15.774   0.793
67107W        W38833  28.473  14.265   2.839
67108W        W38834   1.830  23.636  13.843
67109W        W38835  36.483   4.336  13.807
67110W        W38836  10.223  14.918  14.071
67111W        W38837   3.817   5.551  10.784
67112W        W38838   1.296  11.125  10.768
67113W        W38839  15.270  44.821   0.965
67114W        W38840  31.679   6.393   0.094
67115W        W38841   1.885  24.967   4.495
67116W        W38842  23.931  17.766   0.744
67117W        W38843  38.238   9.026  13.565
67118W        W38844  41.237  23.362  14.796
67119W        W38845   9.930  38.033  10.733
67120W        W38846  42.895  27.464  11.360
67121W        W38847  28.624  13.217   3.658
67122W        W38848  44.207   0.448   3.717
67123W        W38849  12.584   8.768   3.813
67124W        W38850  14.229   0.503  11.281
67125W        W38851  32.978  34.604   0.758
67126W        W38852  17.975  30.086  13.922
67127W        W38853  16.581  37.352   3.390
67128W        W38854  30.163  30.511   3.769
67129W        W38855  13.271  34.560  12.891
67130W        W38856  33.412   8.345   0.216
67131W        W38857  30.953  36.116  14.834
67132W        W38858  14.923   5.291  12.879
67133W        W38859   7.446   8.841  11.430
67134W        W38860  16.365  31.614  10.997
67135W        W38861  16.021  36.998  12.616
67136W        W38862  42.722   5.673  12.120
67137W        W38863  37.559  13.885   1.852
67138W        W38864  26.660  34.850   3.603
67139W        W38865  25.524  20.997  10.303
67140W        W38866  25.253  40.789   4.950
67141W        W38867  35.010   4.681  12.937
67142W        W38868  15.876  44.125   4.599
67143W        W38869  40.607  15.211   3.663
67144W        W38870   0.367  10.180   1.247
67145W        W38871  41.330  42.867   3.418
67146W        W38872  40.585  21.424   1.413
67147W        W38873  38.842  35.303  14.689
67148W        W38874  24.107  22.554   2.172
67149W        W38875   9.647   4.687  11.192
67150W        W38876   0.250  16.713  12.487
67151W        W38877  18.677  19.983   4.936
67152W        W38878   2.831  40.588   2.218
67153W        W38879  30.767  44.852   0.312
67154W        W38880  44.778  31.325   0.252
67155W        W38881  24.275  26.975   3.257
67156W        W38882  34.948  39.766   1.947
67157W        W38883  16.289  23.020   1.821
67158W        W38884   5.791  27.592   0.761
67159W        W38885  11.782   3.731  14.082
67160W        W38886  18.022  39.050  11.083
67161W        W38887  19.699  33.628  13.023
67162W        W38888   8.829   7.343  14.935
67163W        W38889  44.510  11.620   3.673
67164W        W38890  42.767  43.541  14.490
67165W        W38891  30.624   0.671   2.244
67166W        W38892  30.032  44.404  12.437
67167W        W38893  32.077  14.217  10.706
67168W        W38894   7.445  24.528   2.874
67169W        W38895  36.126  24.090   4.941
67170W        W38896  44.813  35.883   4.460
67171W        W38897  28.964   8.686   1.308
67172W        W38898  43.697  16.628   3.014
67173W        W38899   2.794  36.314   1.979
67174W        W38900   2.880  24.186   3.676
67175W        W38901  17.839   0.867   2.249
67176W        W38902  16.350  10.370   2.232
67177W        W38903  35.377   1.461  14.935
67178W        W38904  14.303  39.725   1.892
67179W        W38905  37.099  12.654  14.085
67180W        W38906  14.797  22.069   2.493
67181W        W38907  40.008  16.681   1.934
67182W        W38908  18.191  36.463  11.476
67183W        W38909   8.300   1.563   0.243
67184W        W38910  16.230   2.711  12.455
67185W        W38911  41.304  11.162  14.259
67186W        W38912  26.355  31.179   0.371
67187W        W38913  28.766   9.846   4.178
67188W        W38914  16.129  11.977   1.854
67189W        W38915   8.360  28.612   2.896
67190W        W38916  37.985  23.243   1.216
67191W        W38917  24.072   4.407  10.680
67192W        W38918  37.917  30.460  12.063
67193W        W38919   3.965  33.010  13.163
67194W        W38920  34.576  22.207   1.993
67195W        W38921  25.745  18.697   1.766
67196W        W38922   2.611  36.335   2.847
67197W        W38923  30.247  21.216  11.415
67198W        W38924  33.908   2.444  12.294
67199W        W38925  14.265  22.983   0.286
67200W        W38926  23.986  29.010   2.903
67201W        W38927  33.668  23.069  13.403
67202W        W38928  14.140   1.443   3.642
67203W        W38929  22.337  41.326   4.482
67204W        W38930  13.330  13.087  14.677
67205W        W38931  23.741  42.438   2.257
67206W        W38932  27.261  28.850   0.308
67207W        W38933  15.645  21.599   3.557
67208W        W38934  37.014   6.263  11.940
67209W        W38935  40.017  42.262  13.475
67210W        W38936  12.082  18.122   4.122
67211W        W38937   0.327  20.975   0.386
67212W        W38938  10.285  16.622  13.873
67213W        W38939  36.385   7.639   2.435
67214W        W38940  39.688  37.277  12.075
67215W        W38941  43.046   0.561  12.046
67216W        W38942  14.613   1.510   1.354
67217W        W38943  44.218  21.234  13.551
67218W        W38944  21.081   3.363   0.107
67219W        W38945  13.889   3.783  10.688
67220W        W38946  34.476  31.203  14.777
67221W        W38947  31.497   5.967   1.367
67222W        W38948  38.731   8.318   0.537
67223W        W38949  41.074  41.973   0.373
67224W        W38950  19.258   7.779  11.691
67225W        W38951  13.584   2.023   2.675
67226W        W38952  31.324  38.952  11.940
67227W        W38953  24.859   2.264  14.415
67228W        W38954  37.564  32.550   4.381
67229W        W38955  28.959   2.417   1.975
67230W        W38956  14.636  22.728  13.032
67231W        W38957   8.381  18.287   2.206
67232W        W38958  35.849  11.958  12.620
67233W        W38959  39.320  40.632  11.277
67234W        W38960  11.264  18.000   0.499
67235W        W38961  34.179  41.258   4.311
67236W        W38962   3.937   4.163   3.685
67237W        W38963  28.390  11.607   1.278
67238W        W38964  32.398  41.734   4.227
67239W        W38965   9.327  22.540  12.412
67240W        W38966   7.810  33.130   3.355
67241W        W38967  42.235  36.989   0.974
67242W        W38968   7.527  12.320   1.647
67243W        W38969  41.474   4.385  10.955
67244W        W38970  29.981  12.275   4.793
67245W        W38971   3.280  20.668  11.273
67246W        W38972  23.653   6.198  10.500
67247W        W38973  26.012   4.680   4.676
67248W        W38974   7.403  17.847  10.713
67249W        W38975   3.617  16.462   1.632
67250W        W38976  28.870  32.040  14.938
67251W        W38977  24.566  17.607   2.191
67252W        W38978  14.754  37.725  13.991
67253W        W38979  22.548  26.653   3.059
67254W        W38980   6.342  35.444  11.907
67255W        W38981   3.932   3.272   0.612
67256W        W38982  34.610  15.296   3.949
67257W        W38983  30.968  38.096   0.893
67258W        W38984  25.307   6.443   2.268
67259W        W38985  44.990  25.695  13.788
67260W        W38986   0.094  34.841   1.080
67261W        W38987  27.882  32.622  11.944
67262W        W38988   0.706   9.755  13.515
67263W        W38989  17.058  32.013  14.982
67264W        W38990  38.229  13.143   2.272
67265W        W38991  33.623  18.484   0.252
67266W        W38992  40.566  13.604  11.667
67267W        W38993   3.190  15.899  12.884
67268W        W38994  35.344   6.402  12.919
67269W        W38995  32.356  12.812  11.590
67270W        W38996  34.442  17.830   0.273
67271W        W38997   1.821   4.169   3.175
67272W        W38998  27.055  28.241   1.676
67273W        W38999  38.408  40.587  11.623
67274W        W39000  36.319  44.569  10.365
67275W        W39001  31.602  34.838   2.621
67276W        W39002   2.521   2.064  10.208
67277W        W39003  33.919   8.320   0.347
67278W        W39004  31.686   5.599  13.348
67279W        W39005  29.160  31.114   2.270
67280W        W39006   7.737  42.533  10.353
67281W        W39007  32.688  44.064  11.705
67282W        W39008  15.699  41.440  14.257
67283W        W39009  34.224  37.380   4.817
67284W        W39010   9.230  42.380   4.908
67285W        W39011  23.646  30.145  11.024
67286W        W39012  41.344  27.723   2.824
67287W        W39013  25.945  11.125   1.316
67288W        W39014  11.662  10.728  10.640
67289W        W39015  10.184  23.480   4.101
67290W        W39016  33.728   7.307  13.332
67291W        W39017  41.017  40.469  11.603
67292W        W39018   6.006  32.968   2.752
67293W        W39019  17.051  42.784   4.762
67294W        W39020  14.789   6.743   3.527
67295W        W39021  25.478  26.185   1.427
67296W        W39022  42.430  24.467   0.454
67297W        W39023   5.637   1.812  14.835
67298W        W39024   5.980   0.542   4.092
67299W        W39025  42.366  15.767  11.422
67300W        W39026  38.332   9.290  14.998
67301W        W39027   1.776  11.871  10.856
67302W        W39028  25.671  35.884   0.991
67303W        W39029  32.081  15.519  12.630
67304W        W39030   8.439  20.097  11.682
67305W        W39031  15.625  16.209  14.422
67306W        W39032  27.090  42.464  13.818
67307W        W39033  22.300  27.944   2.565
67308W        W39034  36.955  16.812  11.974
67309W        W39035  24.062   7.898   4.979
67310W        W39036  42.350  43.789  11.471
67311W        W39037  41.562  27.645  12.851
67312W        W39038  22.395  38.300  11.002
67313W        W39039  14.072   3.961  13.449
67314W        W39040   6.339  35.170   3.178
67315W        W39041   9.218  22.003   2.214
67316W        W39042  31.107  35.667   2.673
67317W        W39043  19.170  25.530   3.448
67318W        W39044  42.704  38.401  10.480
67319W        W39045  34.444  43.231   3.712
67320W        W39046  18.702  38.592   1.452
67321W        W39047  18.398  14.094  10.867
67322W        W39048  31.126  15.103   1.859
67323W        W39049  38.481  34.967   2.846
67324W        W39050  18.257  24.602   3.307
67325W        W39051  33.959   7.687  13.057
67326W        W39052  24.953   8.313   1.296
67327W        W39053  42.607   0.124   0.948
67328W        W39054  44.891  23.151   1.922
67329W        W39055  14.265  39.541   2.379
67330W        W39056  15.061  13.409   4.091
67331W        W39057  41.211   0.445   1.122
67332W        W39058  43.147   5.395  12.282
67333W        W39059  29.523  16.199  10.680
67334W        W39060  30.228   6.937  14.063
67335W        W39061  24.277   4.002  13.737
67336W        W39062  21.013  18.383   4.233
67337W        W39063  43.012   7.849  12.573
67338W        W39064   4.798  42.224   4.222
67339W        W39065  32.125  11.128   4.157
67340W        W39066  22.561  17.030  11.511
67341W        W39067   6.605   4.562   2.787
67342W        W39068  24.885  42.792   2.645
67343W        W39069  42.322   9.705  14.709
67344W        W39070  21.336  35.869  12.481
67345W        W39071   1.497  19.044  12.452
67346W        W39072  26.022  39.346   0.827
67347W        W39073  27.519  17.662  11.074
67348W        W39074  29.459   5.968  13.486
67349W        W39075  28.671  34.504   4.160
67350W        W39076  10.816  34.683   1.892
67351W        W39077  25.479  39.414  13.097
67352W        W39078   5.652  26.042   4.198
67353W        W39079  21.829  17.303  11.939
67354W        W39080   4.590  31.749   1.829
67355W        W39081  41.503  30.622   4.739
67356W        W39082  34.345   8.740   3.737
67357W        W39083   6.891  20.603  11.171
67358W        W39084  13.527  18.616   1.957
67359W        W39085  18.300  24.916  14.571
67360W        W39086   5.512  26.556   0.207
67361W        W39087   1.291  35.890  12.644
67362W        W39088  20.279  33.729  14.323
67363W        W39089  36.048   8.608  11.833
67364W        W39090  30.603  36.500   2.469
67365W        W39091  43.023  36.822  11.219
67366W        W39092  43.299  17.577   2.380
67367W        W39093  28.815  18.706  14.691
67368W        W39094  10.154  29.998   1.415
67369W        W39095   3.657  27.014   1.353
67370W        W39096  30.947  23.726   1.903
67371W        W39097  28.081   9.843   0.204
67372W        W39098   1.392  15.528   2.795
67373W        W39099   6.641   2.353   3.044
67374W        W39100  30.370  42.461   1.912
67375W        W39101  12.455  20.410  14.759
67376W        W39102  37.578  20.635  14.817
67377W        W39103  31.864  24.336   4.339
67378W        W39104  18.851  10.648  10.474
67379W        W39105  16.087  34.435  12.836
67380W        W39106  31.181   7.066  14.784
67381W        W39107  37.400  31.865   0.472
67382W        W39108  22.796   1.868   0.505
67383W        W39109   5.199  14.010  13.370
67384W        W39110  15.175  42.056   2.366
67385W        W39111  42.021  30.471   4.131
67386W        W39112  14.830   6.334   3.858
67387W        W39113   6.255   5.570  14.262
67388W        W39114   4.882  31.866   1.198
67389W        W39115  22.025  30.257  11.228
67390W        W39116  34.458  18.132   1.769
67391W        W39117   3.990  42.829  13.906
67392W        W39118  12.272  39.519  11.393
67393W        W39119  36.024  37.537  10.875
67394W        W39120  31.417   2.461  14.451
67395W        W39121  15.795  18.200  10.544
67396W        W39122   0.916  13.733  10.674
67397W        W39123  35.317  17.606  12.401
67398W        W39124   2.255  23.597  11.416
67399W        W39125  13.722  33.216   4.818
67400W        W39126  41.795   1.257   4.502
67401W        W39127   2.076  44.409   1.830
67402W        W39128  23.985  16.222   0.103
67403W        W39129  36.071   9.127  13.767
67404W        W39130  20.958  18.595   0.699
67405W        W39131  34.106  13.168  14.908
67406W        W39132  11.068  43.910   2.777
67407W        W39133  36.771  21.281   0.978
67408W        W39134  42.892  32.596   3.878
67409W        W39135  18.058   5.007  14.419
67410W        W39136  28.784  33.888  12.452
67411W        W39137   6.624   5.240   1.372
67412W        W39138  34.418  42.061  14.776
67413W        W39139  33.984  18.645   4.739
67414W        W39140   1.163  27.715   3.070
67415W        W39141  43.422  28.082  11.937
67416W        W39142  34.809  14.594   0.504
67417W        W39143  44.100  31.966  13.482
67418W        W39144   3.310   6.890  10.750
67419W        W39145  19.115  25.415  13.364
67420W        W39146  25.706  28.895   2.630
67421W        W39147  37.341  21.243  14.526
67422W        W39148  23.259   0.367   0.018
67423W        W39149  28.400   9.318  12.189
67424W        W39150  15.330  14.136  12.880
67425W        W39151  11.150   9.209   0.235
67426W        W39152  21.494  27.513  11.352
67427W        W39153  32.597  18.024   0.387
67428W        W39154  20.110  35.492   4.530
67429W        W39155  25.967  42.892   1.167
67430W        W39156  27.697   5.482  14.013
67431W        W39157  42.091  31.007  12.084
67432W        W39158   3.719  15.508  14.291
67433W        W39159  25.528  24.553   2.397
67434W        W39160   5.821  41.563  14.725
67435W        W39161  30.203  27.098  12.930
67436W        W39162   6.530  41.691  11.723
67437W        W39163   7.726  35.061  13.946
67438W        W39164  43.856   4.059  13.051
67439W        W39165  23.313  19.052   2.013
67440W        W39166   9.003   2.216   4.251
67441W        W39167  12.072  26.392   1.754
67442W        W39168  20.951  16.266  14.805
67443W        W39169  15.280  12.377  14.975
67444W        W39170   3.329  39.697  13.363
67445W        W39171  24.661  29.617   4.392
67446W        W39172  34.707  35.531   3.386
67447W        W39173   0.913  10.074  10.352
67448W        W39174  22.527  10.630   1.395
67449W        W39175  29.032   7.444  14.138
67450W        W39176  34.030   0.980   2.373
67451W        W39177  39.876  15.284  14.880
67452W        W39178  32.499   2.629   2.847
67453W        W39179  40.479   8.300  14.404
67454W        W39180   6.161   8.914  12.475
67455W        W39181  22.266  11.315  11.113
67456W        W39182  19.160   2.415  10.704
67457W        W39183  42.535  21.305  12.899
67458W        W39184  24.548  42.006   0.376
67459W        W39185  44.824  26.147  12.576
67460W        W39186   3.821  28.754  13.069
67461W        W39187  37.605  21.645   1.886
67462W        W39188  10.796   9.158  11.697
67463W        W39189  12.195   8.303   0.344
67464W        W39190  28.125  12.660  11.628
67465W        W39191   2.199  13.871  13.783
67466W        W39192   9.165  29.888  10.776
67467W        W39193  22.960  41.546   1.312
67468W        W39194   1.033  27.099  12.050
67469W        W39195  13.794  30.934   3.871
67470W        W39196  25.408  30.258   2.374
67471W        W39197  33.667   5.786  10.676
67472W        W39198   0.777  27.645  10.900
67473W        W39199  20.119   9.400   1.231
67474W        W39200  11.221  15.587   1.322
67475W        W39201   8.298   6.966  10.670
67476W        W39202  12.220   1.774  12.949
67477W        W39203  36.935  40.164   3.219
67478W        W39204   5.636   3.769  10.748
67479W        W39205   3.981  36.427   4.896
67480W        W39206  14.206  29.589   3.650
67481W        W39207  26.198  12.319  11.090
67482W        W39208  27.128   0.427  14.504
67483W        W39209  26.662  27.211   1.342
67484W        W39210   3.178  30.973  11.497
67485W        W39211  12.659  43.812  13.496
67486W        W39212  30.244  12.384   1.325
67487W        W39213  35.523  40.560   4.136
67488W        W39214   3.706  28.371  13.988
67489W        W39215  34.451   3.413   0.115
67490W        W39216   2.074  12.992   3.670
67491W        W39217   3.485  22.990  14.456
67492W        W39218   8.811  40.610  11.111
67493W        W39219  38.053   7.134   1.594
67494W        W39220  13.786  39.746  14.021
67495W        W39221  27.884  31.002   4.098
67496W        W39222  24.331   2.223  11.937
67497W        W39223  40.861  22.654   2.283
67498W        W39224   4.796   4.729   4.087
67499W        W39225  16.725  10.702   2.374
67500W        W39226   4.772  27.991  14.944
67501W        W39227  33.289   7.898   0.480
67502W        W39228  30.716  34.860   2.628
67503W        W39229  41.366  44.903  13.364
67504W        W39230   6.168   3.533   4.269
67505W        W39231  28.898  38.998  12.478
67506W        W39232  30.843   4.141   4.128
67507W        W39233   0.730  11.298  14.940
67508W        W39234  31.788   5.363  14.399
67509W        W39235  34.413  44.990   4.402
67510W        W39236  17.966  36.046   1.714
67511W        W39237   3.246   9.190  14.174
67512W        W39238  36.083  11.618   3.700
67513W        W39239   1.899   2.078   4.220
67514W        W39240  25.985  12.573  14.864
67515W        W39241  29.006  39.824  12.912
67516W        W39242   1.176  24.719   0.320
67517W        W39243  17.181  11.169   0.705
67518W        W39244  12.353  43.790  11.131
67519W        W39245  20.624  17.653   3.843
67520W        W39246  26.699   6.157  12.059
67521W        W39247  16.375  24.238  13.870
67522W        W39248   7.752  32.872  13.476
67523W        W39249  22.407  26.192   1.319
67524W        W39250  15.176  15.362   0.402
67525W        W39251  29.990  29.814   1.238
67526W        W39252  12.600   0.769  12.321
67527W        W39253  20.265   8.639   4.115
67528W        W39254  31.536   0.542   0.325
67529W        W39255  20.744  22.673   1.851
67530W        W39256   5.259  40.352  11.908
67531W        W39257   0.947   3.497  11.928
67532W        W39258  42.316  25.844   2.263
67533W        W39259   4.156  36.925   1.410
67534W        W39260  39.696   0.071  12.103
67535W        W39261   1.456  23.052  11.137
67536W        W39262  39.497  44.827  10.739
67537W        W39263  32.901  26.206  13.843
67538W        W39264  35.493   7.474   2.364
67539W        W39265  12.372  31.698   2.627
67540W        W39266  27.193  41.330  11.167
67541W        W39267  24.677  18.100  10.679
67542W        W39268  13.885  29.455  10.730
67543W        W39269  33.729  16.675   1.954
67544W        W39270  18.633  30.862  11.045
67545W        W39271  40.765  44.347   3.017
67546W        W39272  38.509  36.935  12.469
67547W        W39273  35.937   1.038   1.411
67548W        W39274   6.492  33.126   2.609
67549W        W39275   7.718  13.059  12.441
67550W        W39276  38.010   7.344  11.488
67551W        W39277  14.848  43.674   2.463
67552W        W39278  32.445  18.522   0.475
67553W        W39279  11.289  17.859   1.462
67554W        W39280   0.263   3.307  14.402
67555W        W39281  29.725   4.336  11.647
67556W        W39282  35.349   7.713   3.288
67557W        W39283  13.392  32.409   3.776
67558W        W39284   8.679  15.781   0.832
67559W        W39285  18.561  43.712   4.690
67560W        W39286  44.463  36.682  12.361
67561W        W39287  41.960   6.173  11.772
67562W        W39288  30.122  27.146  14.878
67563W        W39289  37.355  15.815  14.525
67564W        W39290  22.067   6.208  13.494
67565W        W39291   8.992   0.346   4.949
67566W        W39292  12.403  20.173  12.939
67567W        W39293   5.423  20.830   4.198
67568W        W39294  38.750   6.254   3.153
67569W        W39295  11.286  27.033  12.583
67570W        W39296  22.033  19.224   1.319
67571W        W39297  34.399   2.929   1.398
67572W        W39298   8.004   5.878  11.168
67573W        W39299  22.635  30.750  10.310
67574W        W39300  41.550  33.188   0.366
67575W        W39301  22.101  15.625   5.093
67576W        W39302   2.404   4.249  11.632
67577W        W39303  15.687  24.670  10.995
67578W        W39304  24.081  17.079  10.273
67579W        W39305  26.686  28.122   0.316
67580W        W39306  16.785   8.165   1.503
67581W        W39307  19.309  40.047   0.432
67582W        W39308  40.591  40.707   2.883
67583W        W39309  12.231  40.113   4.016
67584W        W39310  16.578   0.215  10.717
67585W        W39311  10.729  38.584  11.471
67586W        W39312   2.836  18.090  10.930
67587W        W39313  33.044  14.049  10.574
67588W        W39314   8.631  25.167  12.993
67589W        W39315  19.271   1.697   3.704
67590W        W39316  11.802  15.453  11.848
67591W        W39317  19.647  14.594  14.240
67592W        W39318  28.722  10.256   2.428
67593W        W39319  31.694  41.831   3.169
67594W        W39320   6.744  19.324  14.857
67595W        W39321   9.834  13.131   0.378
67596W        W39322  33.041   5.675   2.395
67597W        W39323  43.554   0.463   4.109
67598W        W39324  18.300  15.856  13.600
67599W        W39325   2.325  44.991   3.421
67600W        W39326   8.568  15.077  14.788
67601W        W39327  42.776   6.679   4.613
67602W        W39328  14.281   8.676  13.451
67603W        W39329   5.139  27.446   3.650
67604W        W39330  37.554  44.022  14.444
67605W        W39331  39.177  24.510  11.122
67606W        W39332  22.254  21.624  11.142
67607W        W39333  12.758  21.741  12.063
67608W        W39334  14.821   9.156   1.799
67609W        W39335  38.377  20.925   5.043
67610W        W39336  13.361  21.218  11.507
67611W        W39337  14.888  37.374  14.353
67612W        W39338  14.182  39.972   2.836
67613W        W39339   5.998   8.362  10.592
67614W        W39340  29.455  16.803   4.178
67615W        W39341   4.873  20.698   5.104
67616W        W39342  32.450  43.267  12.002
67617W        W39343   2.675  21.148  10.047
67618W        W39344  31.963  41.805   5.528
67619W        W39345  20.626  33.175  11.930
67620W        W39346   8.528   1.469   2.757
67621W        W39347  11.303  44.002   3.643
67622W        W39348  32.537  26.689  11.037
67623W        W39349   1.198  12.852  12.046
67624W        W39350  16.848  14.300   4.220
67625W        W39351  25.533  42.175  13.255
67626W        W39352  21.220  24.012   2.228
67627W        W39353   1.879   1.076  10.948
67628W        W39354   1.880  36.913  10.446
67629W        W39355  39.095   3.353   1.604
67630W        W39356  21.906  18.664   2.300
67631W        W39357   0.848  12.198  11.284
67632W        W39358   8.731   5.708  12.824
67633W        W39359  18.329  25.084  11.249
67634W        W39360  13.538  24.686   2.207
67635W        W39361  17.349  14.116   1.199
67636W        W39362  22.100  34.085   3.911
67637W        W39363  31.609  29.600   4.667
67638W        W39364  27.679   7.723   4.267
67639W        W39365   8.794  12.970  12.573
67640W        W39366  27.291  18.330   2.232
67641W        W39367  31.505  15.471   1.701
67642W        W39368  33.951  10.238  12.661
67643W        W39369   2.396  25.495  14.302
67644W        W39370  27.168  10.818  14.063
67645W        W39371   9.803  31.358  13.401
67646W        W39372   3.990   5.639  12.051
67647W        W39373  21.551  23.787   4.735
67648W        W39374  24.136  23.213  10.357
67649W        W39375  27.210  26.031  12.115
67650W        W39376  14.495  12.769  13.600
67651W        W39377  39.958  25.750  14.532
67652W        W39378  20.128  19.568   3.366
67653W        W39379  10.219  30.114  12.021
67654W        W39380  28.587  26.163  14.341
67655W        W39381  36.755   0.871  12.821
67656W        W39382  43.912   3.964   3.185
67657W        W39383  12.142  29.181  10.724
67658W        W39384  11.370  12.585  10.979
67659W        W39385  34.539  10.810  13.257
67660W        W39386   0.848  21.503   4.148
67661W        W39387   7.256  20.846  12.876
67662W        W39388  33.585  17.213  13.754
67663W        W39389  17.555  20.376   3.622
67664W        W39390  33.936  24.879  13.036
67665W        W39391  11.125   9.464  11.434
67666W        W39392   0.744  20.734   0.153
67667W        W39393  26.412  27.524   3.446
67668W        W39394  37.417  13.894   0.981
67669W        W39395  11.210  36.938   2.773
67670W        W39396  21.967  27.887  11.990
67671W        W39397  32.043   8.409   4.999
67672W        W39398  19.363  38.318  13.878
67673W        W39399  44.465  10.338   1.298
67674W        W39400  42.253  15.705  12.996
67675W        W39401  32.904  17.833  12.707
67676W        W39402  21.247  20.791  11.554
67677W        W39403  14.893  19.603   5.106
67678W        W39404  18.802  26.998  12.101
67679W        W39405  24.541   0.396  10.772
67680W        W39406  39.993   5.014  11.610
67681W        W39407  17.132   3.809   0.287
67682W        W39408   6.973  28.595   2.916
67683W        W39409  16.365  29.173   2.795
67684W        W39410   4.590   4.459  11.926
67685W        W39411  31.031   2.968  11.044
67686W        W39412  44.814  36.174  11.202
67687W        W39413  20.248   9.653  12.402
67688W        W39414  36.131  14.100  12.921
67689W        W39415  44.855  34.053  13.299
67690W        W39416  38.861  18.667  14.544
67691W        W39417  32.167   6.899  13.250
67692W        W39418  27.456  29.220  10.627
67693W        W39419  28.197  11.794  11.528
67694W        W39420  27.450   5.977  14.042
67695W        W39421  19.819  21.239   0.242
67696W        W39422   9.226  29.168  12.631
67697W        W39423   2.176  12.808  10.418
67698W        W39424  19.597  26.596  11.637
67699W        W39425  21.286  12.268   1.205
67700W        W39426  29.129   3.737   3.148
67701W        W39427  41.048   5.001  13.598
67702W        W39428  26.894  27.952  10.459
67703W        W39429  13.117   8.089  13.004
67704W        W39430   9.428  33.374  12.935
67705W        W39431  13.226  32.944   2.707
67706W        W39432   5.091  13.412   4.580
67707W        W39433  37.869  17.135  10.354
67708W        W39434  13.842  20.644  11.951
67709W        W39435  28.964  40.526   2.744
67710W        W39436  21.478   3.534   2.364
67711W        W39437  22.786  38.891  14.126
67712W        W39438  18.449  17.867  12.528
67713W        W39439  38.805   5.919   1.814
67714W        W39440  15.122  26.734  14.940
67715W        W39441   2.931  27.154   1.995
67716W        W39442  31.697  29.111  14.247
67717W        W39443  23.054  42.954   0.142
67718W        W39444  30.987  13.915  14.511
67719W        W39445   0.445  24.067  13.946
67720W        W39446  32.460  44.089  14.905
67721W        W39447  29.050  35.478  13.897
67722W        W39448   5.370  28.052  11.515
67723W        W39449   2.740  25.180   4.553
67724W        W39450  36.122  26.730   1.318
67725W        W39451  18.727  36.134   1.280
67726W        W39452  37.541  21.111   0.035
67727W        W39453  29.596  15.217  11.544
67728W        W39454   5.979   2.180   0.748
67729W        W39455  21.572   6.791  11.858
67730W        W39456   2.975   3.699  11.201
67731W        W39457  19.295  38.851   4.544
67732W        W39458   1.436  15.391   3.720
67733W        W39459  21.772  34.764  12.454
67734W        W39460   5.824   7.486   9.835
67735W        W39461   2.198   9.793  12.018
67736W        W39462  42.130  40.518   2.762
67737W        W39463  25.523   2.907   3.785
67738W        W39464  32.406  24.890  11.575
67739W        W39465  18.336   9.692   3.106
67740W        W39466   7.686  19.858  13.496
67741W        W39467  30.561  29.841   4.895
67742W        W39468  32.094  15.626  11.754
67743W        W39469  18.699  11.186  13.804
67744W        W39470   7.966  44.960  10.685
67745W        W39471  31.176  15.867   1.447
67746W        W39472  35.562  28.908  12.461
67747W        W39473  18.714   0.901  14.491
67748W        W39474  31.206  36.030   1.974
67749W        W39475  27.639  38.456  12.855
67750W        W39476  39.821  12.186   1.642
67751W        W39477   4.784   7.102  12.540
67752W        W39478   7.943  32.900  11.698
67753W        W39479  16.846  32.408  13.339
67754W        W39480   7.234   0.019  13.371
67755W        W39481  36.463  27.439   2.684
67756W        W39482   7.122  11.148  14.061
67757W        W39483  20.207  38.044  13.864
67758W        W39484   7.567  37.781   2.752
67759W        W39485  21.091  20.914  13.880
67760W        W39486  25.667  22.472  11.358
67761W        W39487  29.188  40.710  11.684
67762W        W39488   3.373  32.280   5.033
67763W        W39489  42.877   2.472   3.697
67764W        W39490  23.075  34.646   1.174
67765W        W39491  30.989  31.240   0.419
67766W        W39492   8.672  16.336   0.954
67767W        W39493  28.368  29.142   4.919
67768W        W39494  22.201  14.781   3.625
67769W        W39495  33.065  23.857  12.560
67770W        W39496   2.137   8.853   1.645
67771W        W39497  40.738  35.996   0.523
67772W        W39498  10.413  25.659   3.887
67773W        W39499  36.412   1.849   4.156
67774W        W39500  28.777   2.983   3.344
67775W        W39501   9.999  44.337  14.745
67776W        W39502  41.978  41.780  12.002
67777W        W39503  32.083  36.870   3.197
67778W        W39504  18.961  25.972   0.210
67779W        W39505  29.185  37.269  12.050
67780W        W39506  40.302  33.366  10.539
67781W        W39507  24.410   5.221   0.776
67782W        W39508   8.409  37.641  13.467
67783W        W39509  42.998  33.020  13.516
67784W        W39510  22.658  27.995  14.814
67785W        W39511  33.137   6.396  14.669
67786W        W39512  23.849  19.626   4.194
67787W        W39513  37.126  15.191   4.043
67788W        W39514  44.601  17.774   3.179
67789W        W39515  42.951  24.656  13.991
67790W        W39516  10.362  21.145  11.226
67791W        W39517   4.685   7.863   0.897
67792W        W39518  43.470  37.325  14.685
67793W        W39519  10.233   3.921  11.946
67794W        W39520  11.689  24.343  12.051
67795W        W39521   5.306  24.978  14.175
67796W        W39522  24.912   9.304   4.589
67797W        W39523  17.231  38.832  14.241
67798W        W39524   3.338  24.082  12.069
67799W        W39525   7.921  27.174  13.964
67800W        W39526   4.504  10.394   2.108
67801W        W39527  16.651  26.412  11.565
67802W        W39528   5.277  16.230   9.674
67803W        W39529  15.692  44.554  12.585
67804W        W39530  19.169  29.170  11.537
67805W        W39531   4.398  17.420  10.342
67806W        W39532  25.210  14.944   3.599
67807W        W39533  20.607  28.158   4.631
67808W        W39534  24.099  36.673   1.790
67809W        W39535  29.179  22.374   1.629
67810W        W39536  19.209  22.415  11.980
67811W        W39537  42.390  29.371  13.006
67812W        W39538   9.183   5.446   1.170
67813W        W39539  14.469  36.295   0.641
67814W        W39540  14.344  17.463  12.437
67815W        W39541   4.648  27.670   3.752
67816W        W39542  11.225  24.371  13.879
67817W        W39543  38.940  11.125   2.456
67818W        W39544   9.322  26.021  12.945
67819W        W39545  30.857  10.723   1.273
67820W        W39546   1.825  11.878  10.341
67821W        W39547  12.358  13.302   4.976
67822W        W39548   9.311  19.054  11.996
67823W        W39549   5.855  17.572  13.378
67824W        W39550  31.688  11.769   0.828
67825W        W39551  43.877  32.092  14.927
67826W        W39552  29.807  26.057  14.093
67827W        W39553   6.768   6.453   0.818
67828W        W39554  25.102   2.476  11.456
67829W        W39555  23.774  38.779  12.717
67830W        W39556   0.447  10.314  11.144
67831W        W39557   2.381  24.874  14.512
67832W        W39558  10.374   9.077  12.017
67833W        W39559  31.057  35.325   1.106
67834W        W39560  20.157   8.021   0.341
67835W        W39561  37.906   1.783  14.782
67836W        W39562  34.285   5.763  10.619
67837W        W39563  28.083  13.651  12.884
67838W        W39564  18.181  31.339   4.580
67839W        W39565  26.490  33.870   3.280
67840W        W39566  30.906  25.324  14.726
67841W        W39567  11.676  13.952  13.617
67842W        W39568  32.909  12.239  11.183
67843W        W39569  23.911  20.074   1.716
67844W        W39570  40.580   2.874  14.007
67845W        W39571   2.299  35.829   3.887
67846W        W39572  23.145  40.717  11.314
67847W        W39573  19.465   9.911  13.925
67848W        W39574  20.785  37.376  14.423
67849W        W39575  11.680  24.914   3.745
67850W        W39576  10.275   4.333  14.496
67851W        W39577  32.064  16.755   2.645
67852W        W39578  38.106   9.285   0.497
67853W        W39579  13.842  21.784  13.552
67854W        W39580   4.977  37.454   4.691
67855W        W39581   6.810  34.900  13.465
67856W        W39582  30.224   5.298   1.684
67857W        W39583  18.798  37.368   2.838
67858W        W39584  30.651   8.660   3.959
67859W        W39585   8.220  13.301  13.340
67860W        W39586  28.655  35.074  14.512
67861W        W39587  39.475  26.264  14.040
67862W        W39588  21.431  37.961  11.844
67863W        W39589   0.927   2.441  12.054
67864W        W39590  41.386  20.229  14.763
67865W        W39591  23.703   4.796  13.160
67866W        W39592  14.784  33.461   4.040
67867W        W39593  12.337   7.176  12.990
67868W        W39594  42.872  29.960  13.584
67869W        W39595   5.252   5.951  14.706
67870W        W39596  22.511   1.417   3.074
67871W        W39597  15.580   3.899  12.942
67872W        W39598  21.928  33.961   4.950
67873W        W39599   2.501  16.286  11.161
67874W        W39600  21.181  31.688  10.629
67875W        W39601  39.668  37.527   0.769
67876W        W39602  41.482  41.171  11.635
67877W        W39603  19.516  11.937  12.537
67878W        W39604  11.475  43.262   1.237
67879W        W39605  35.465  17.081   3.176
67880W        W39606  42.275  11.244   2.439
67881W        W39607  19.285  33.527   1.391
67882W        W39608   7.230   6.727  12.059
67883W        W39609  41.165  11.850  12.115
67884W        W39610  30.395  42.510   0.948
67885W        W39611   9.266  35.553  12.473
67886W        W39612  33.773   5.691   0.497
67887W        W39613  10.725  33.347  13.303
67888W        W39614   9.025  43.428  14.429
67889W        W39615  25.535   4.411  13.430
67890W        W39616   5.386  34.315  14.929
67891W        W39617   4.204  24.661  10.676
67892W        W39618  27.604  19.650  12.638
67893W        W39619  19.606  35.107  10.693
67894W        W39620  44.880   1.214  12.061
67895W        W39621  35.908  33.536  10.603
67896W        W39622  30.479  24.757   0.637
67897W        W39623  30.682  20.295   4.139
67898W        W39624  16.459   4.742   4.242
67899W        W39625  38.801  39.405   2.420
67900W        W39626  44.373  23.435   0.275
67901W        W39627  42.857  19.654  11.889
67902W        W39628  23.582   1.502   1.258
67903W        W39629   5.380  39.349  10.523
67904W        W39630  38.900  29.067   2.292
67905W        W39631  27.731   1.675  10.786
67906W        W39632   2.402  33.518  10.299
67907W        W39633   7.893   7.380  14.888
67908W        W39634  40.238  26.127   1.807
67909W        W39635  27.948  38.252   0.289
67910W        W39636  32.610   7.466   2.355
67911W        W39637  35.079  26.010  14.841
67912W        W39638  19.788  24.413  10.788
67913W        W39639  15.340   2.358   0.309
67914W        W39640  15.349   5.109   2.378
67915W        W39641  26.167  24.183   2.813
67916W        W39642   2.953  22.572  11.279
67917W        W39643   1.993  34.856  10.739
67918W        W39644  30.841   8.677   1.099
67919W        W39645   6.346   8.419   2.466
67920W        W39646  14.788  36.304  14.780
67921W        W39647   0.948   3.030   1.825
67922W        W39648   4.970  44.054   4.932
67923W        W39649  28.846  20.619   0.441
67924W        W39650  16.173  34.094   0.380
67925W        W39651  19.329  21.062  14.398
67926W        W39652  28.737  16.697  14.986
67927W        W39653  38.615  33.002  11.092
67928W        W39654  10.759  37.804   1.407
67929W        W39655   1.172  25.007  11.151
67930W        W39656   5.884  14.718  12.897
67931W        W39657   3.364   9.807  13.430
67932W        W39658  27.324  39.969   0.304
67933W        W39659   4.804  22.190   3.415
67934W        W39660  17.036   1.636  12.757
67935W        W39661  24.001  27.899   4.477
67936W        W39662  28.083  39.167   5.224
67937W        W39663  25.456  28.963  13.736
67938W        W39664  19.749  14.146  10.639
67939W        W39665  18.261  38.767  12.037
67940W        W39666  36.943  12.256   0.850
67941W        W39667  20.909  34.449   0.558
67942W        W39668  21.988  24.271  12.472
67943W        W39669  11.844  34.080  13.190
67944W        W39670  33.489  15.611   0.435
67945W        W39671  36.811  35.871   4.178
67946W        W39672  30.570   1.186  12.585
67947W        W39673   0.507  27.164   1.666
67948W        W39674  34.769  33.640  14.863
67949W        W39675  15.472   8.340   0.554
67950W        W39676   7.451  15.578  12.873
67951W        W39677  30.668   6.812  14.381
67952W        W39678  39.940  34.036   4.482
67953W        W39679  10.147  12.975   9.980
67954W        W39680  31.685  16.726  10.926
67955W        W39681  17.606  42.449   2.709
67956W        W39682   1.990  11.108  12.449
67957W        W39683  39.757  38.328  14.755
67958W        W39684  37.255  20.130   1.100
67959W        W39685   2.444  26.652  11.131
67960W        W39686   9.761  35.236   0.484
67961W        W39687  13.342  16.563  10.755
67962W        W39688   8.303   0.091  14.410
67963W        W39689   9.669  29.438   3.729
67964W        W39690  21.699   0.072   2.228
67965W        W39691  15.576  38.933  14.024
67966W        W39692  30.565  40.738  12.697
67967W        W39693  44.236  41.359  14.650
67968W        W39694  34.880  28.046  11.381
67969W        W39695  36.555   9.102   3.800
67970W        W39696  38.820  28.960  12.012
67971W        W39697   9.627  41.418  13.389
67972W        W39698  17.543  18.004  11.438
67973W        W39699  42.947  31.020  11.105
67974W        W39700  21.781  19.485   0.070
67975W        W39701  18.775  15.845   0.049
67976W        W39702  23.078  29.127  10.383
67977W        W39703  23.759  43.531  13.911
67978W        W39704   2.226   7.451  13.984
67979W        W39705  22.699  20.823   0.920
67980W        W39706   3.414  20.807  12.197
67981W        W39707  12.603  44.461  11.960
67982W        W39708  25.804  36.752   2.905
67983W        W39709  19.716  38.930   2.782
67984W        W39710  35.623  31.450  13.966
67985W        W39711  35.490  20.611  13.370
67986W        W39712  26.674  23.415   2.886
67987W        W39713  35.297  15.769   1.924
67988W        W39714  36.411  10.188   4.594
67989W        W39715  28.680  14.501   3.675
67990W        W39716  33.916  42.295   1.882
67991W        W39717  44.668  38.493  13.800
67992W        W39718  20.884  16.383   3.918
67993W        W39719  11.579  10.299  13.881
67994W        W39720  23.484  27.056  10.315
67995W        W39721   7.716   0.823   0.335
67996W        W39722  28.504  18.404   4.943
67997W        W39723  27.551  35.062  11.719
67998W        W39724  25.428  15.277  14.820
67999W        W39725  27.486   6.611   0.431
68000W        W39726   3.384  24.922   2.395
68001W        W39727  14.188  21.997  14.059
68002W        W39728  31.007  38.122  12.873
68003W        W39729  38.010   1.003  12.409
68004W        W39730  41.967   4.794   4.102
68005W        W39731  38.871   7.771  10.979
68006W        W39732  14.321  22.648  11.983
68007W        W39733  32.714  25.970  12.552
68008W        W39734   2.940  19.538  11.123
68009W        W39735  32.884  15.318   1.698
68010W        W39736   9.272   6.903  13.039
68011W        W39737  22.382  44.745  11.577
68012W        W39738  15.376  25.934   0.020
68013W        W39739  30.550  33.120  14.452
68014W        W39740   8.327  38.233   2.575
68015W        W39741  33.961  32.471  10.975
68016W        W39742  18.957  35.451  12.474
68017W        W39743  15.006  26.499   4.657
68018W        W39744  13.037  34.947  14.906
68019W        W39745  42.807  27.455   2.674
68020W        W39746  20.035  21.434   3.440
68021W        W39747   2.464  12.238   3.085
68022W        W39748  17.587  26.444   4.055
68023W        W39749   8.438   1.513  12.954
68024W        W39750  40.483  29.539   0.889
68025W        W39751   9.886  16.270  13.681
68026W        W39752  38.496  41.810   0.764
68027W        W39753   9.763  28.726   0.945
68028W        W39754   7.843  14.471  12.376
68029W        W39755  23.433  15.639   0.635
68030W        W39756  32.651  25.196   1.766
68031W        W39757  22.069  32.900   0.206
68032W        W39758  18.133  12.566  13.126
68033W        W39759  32.488  11.959  12.210
68034W        W39760  11.461  23.109   4.501
68035W        W39761  23.998  28.004  10.873
68036W        W39762  29.643   7.288  10.751
68037W        W39763   1.875   3.155   3.161
68038W        W39764  11.399  27.465  10.369
68039W        W39765  21.323  11.930   0.371
68040W        W39766  12.889  14.987  14.064
68041W        W39767  43.562  32.993  11.507
68042W        W39768   5.843  18.031   0.959
68043W        W39769  23.613   0.497  10.605
68044W        W39770  29.907  20.218  12.933
68045W        W39771  30.629   4.361  12.897
68046W        W39772  13.233   0.394  12.443
68047W        W39773   2.822   5.808   2.179
68048W        W39774  22.497  11.200  14.402
68049W        W39775  38.070  26.041  13.877
68050W        W39776   8.419  11.431   4.156
68051W        W39777  35.363  34.322  14.804
68052W        W39778  12.712  38.772   2.329
68053W        W39779  21.119  27.516   4.183
68054W        W39780  29.887   6.747   0.025
68055W        W39781  20.800  24.045   1.433
68056W        W39782  41.516  31.648   4.549
68057W        W39783  39.093   7.820  12.557
68058W        W39784   6.275  25.762   0.857
68059W        W39785  19.992   3.669   0.326
68060W        W39786   3.376   0.062  11.410
68061W        W39787  38.459  23.590  10.712
68062W        W39788   2.250  43.832  12.171
68063W        W39789   9.651  43.416  10.709
68064W        W39790  30.534  19.458  13.994
68065W        W39791   2.366  10.206   0.381
68066W        W39792  36.530  12.541   2.479
68067W        W39793  27.733   8.921  14.820
68068W        W39794  34.615  27.253   4.238
68069W        W39795   3.376   9.596   0.292
68070W        W39796  16.382  39.894   3.661
68071W        W39797  40.046  15.120   3.226
68072W        W39798   2.960  35.817   1.634
68073W        W39799  41.885   6.808   3.680
68074W        W39800  44.984  34.441   0.758
68075W        W39801  41.271  28.018   0.992
68076W        W39802  20.569  19.076  13.910
68077W        W39803  23.587  15.087   4.618
68078W        W39804  15.152  39.113  12.756
68079W        W39805  27.187  22.427  14.375
68080W        W39806  29.001   9.318  11.545
68081W        W39807  19.754   9.466   4.235
68082W        W39808  24.186  20.131   0.343
68083W        W39809  22.530  33.378   0.782
68084W        W39810   3.843   1.845   1.475
68085W        W39811   3.898   1.196  13.959
68086W        W39812  12.043  29.346   4.221
68087W        W39813   8.289  22.912  11.671
68088W        W39814  28.339  10.561   1.229
68089W        W39815  42.156   3.868   3.567
68090W        W39816  28.923  12.037  13.929
68091W        W39817  26.988  44.749   4.615
68092W        W39818  25.580   7.409   0.017
68093W        W39819   8.492  33.870   4.471
68094W        W39820  41.330   1.797  11.582
68095W        W39821  42.761  27.646   4.309
68096W        W39822  36.561  41.746   0.605
68097W        W39823  38.588  20.239  14.137
68098W        W39824  38.623   2.863  14.028
68099W        W39825   3.957   0.679  13.940
68100W        W39826  38.703   3.648  14.299
68101W        W39827   8.808   0.987   2.993
68102W        W39828  39.125  42.829   1.175
68103W        W39829  42.800  16.288   3.399
68104W        W39830  11.865  39.979   3.160
68105W        W39831  40.994   1.420   4.620
68106W        W39832  35.672  40.865  11.538
68107W        W39833  24.499   4.399   0.194
68108W        W39834  21.015  28.081  13.494
68109W        W39835  18.147   6.816  14.103
68110W        W39836  20.211  12.776   3.656
68111W        W39837  30.619  20.969  11.131
68112W        W39838  16.184  37.566   3.080
68113W        W39839   2.900  37.212   4.970
68114W        W39840  10.217  23.484  12.571
68115W        W39841   6.205  21.708   1.307
68116W        W39842  25.950  41.519   2.968
68117W        W39843  26.068  42.154  14.361
68118W        W39844  25.226   6.616  14.000
68119W        W39845  34.425  31.996   1.067
68120W        W39846  13.916  14.883  11.106
68121W        W39847  38.063  34.902   0.739
68122W        W39848  21.084  11.932   1.955
68123W        W39849  28.728  39.537  13.309
68124W        W39850  37.780   6.774  11.401
68125W        W39851  14.035  27.487   0.409
68126W        W39852   9.718  35.185   4.256
68127W        W39853  19.142  19.738   3.646
68128W        W39854  42.952  33.878   1.413
68129W        W39855  44.353  17.987  10.764
68130W        W39856  37.506  12.048  12.128
68131W        W39857   1.330  13.888   1.402
68132W        W39858   2.913  27.683  13.038
68133W        W39859  14.734  19.830   0.747
68134W        W39860   1.723  29.169   2.598
68135W        W39861  25.932   7.749   1.902
68136W        W39862  25.541  28.989   0.239
68137W        W39863  43.797  19.121   1.512
68138W        W39864  35.032  26.844  10.155
68139W        W39865  10.856  26.875  12.865
68140W        W39866   7.748  17.660  13.381
68141W        W39867  11.298   4.366   1.026
68142W        W39868  13.448  26.820   2.341
68143W        W39869  16.042  39.078  13.035
68144W        W39870  42.293   9.731   3.183
68145W        W39871  14.534   1.942   4.612
68146W        W39872  31.922  40.517  12.957
68147W        W39873  14.744   4.875   1.542
68148W        W39874  30.155  42.405  13.771
68149W        W39875  43.928  22.146  12.513
68150W        W39876  33.005  38.352  13.480
68151W        W39877  43.985  34.870   0.734
68152W        W39878  15.077  40.303  11.957
68153W        W39879  31.044  37.112  11.965
68154W        W39880  16.746  22.749   2.374
68155W        W39881  34.581  37.320   2.321
68156W        W39882  43.990   3.285   4.691
68157W        W39883  16.728  39.595  11.955
68158W        W39884   7.754   9.134  13.296
68159W        W39885  23.094  29.088  13.546
68160W        W39886  24.097  39.953  14.518
68161W        W39887  17.085  32.559  13.781
68162W        W39888  16.333   3.451  12.924
68163W        W39889  32.347  34.701  14.899
68164W        W39890  31.448  37.571   1.960
68165W        W39891   1.637  32.445   2.691
68166W        W39892  27.347  13.222   4.165
68167W        W39893  23.741  25.625  14.508
68168W        W39894  11.629   4.417  13.369
68169W        W39895  39.943  12.328   0.713
68170W        W39896  13.630  44.238   2.464
68171W        W39897  39.082  36.890  14.010
68172W        W39898  39.122  27.559   4.603
68173W        W39899  21.285  33.664   2.275
68174W        W39900  16.845   5.828   3.208
68175W        W39901   7.351  19.670  14.167
68176W        W39902  37.403   9.164   3.581
68177W        W39903  20.752  17.514   4.854
68178W        W39904  24.520   5.534  13.043
68179W        W39905  10.270  32.738   4.048
68180W        W39906   2.221  39.226  11.953
68181W        W39907  31.989  29.247   0.891
68182W        W39908  20.319   6.705   3.401
68183W        W39909  15.702  37.526  10.261
68184W        W39910  28.374  10.320  11.829
68185W        W39911  24.468  35.358  10.452
68186W        W39912   6.996  29.486  10.537
68187W        W39913  12.671   1.280  11.535
68188W        W39914  15.337   6.263  14.838
68189W        W39915  24.775   1.639  12.055
68190W        W39916  43.275  36.965  14.286
68191W        W39917  41.242  34.209   1.801
68192W        W39918  21.735  37.810   4.464
68193W        W39919  31.629  35.075   4.565
68194W        W39920  41.777  16.577   0.512
68195W        W39921  23.551  12.599   0.756
68196W        W39922  15.692  12.654   0.285
68197W        W39923  41.736  11.158   1.294
68198W        W39924   2.964   3.293   2.514
68199W        W39925  14.616  10.702  14.097
68200W        W39926   8.376  29.438   0.994
68201W        W39927  34.593  42.006  13.764
68202W        W39928   9.864  24.974  13.852
68203W        W39929  36.433  35.070   1.315
68204W        W39930   3.530  41.759   1.700
68205W        W39931  40.523   3.689  13.524
68206W        W39932  26.143  27.629  11.384
68207W        W39933   4.498   0.362  10.541
68208W        W39934  23.206  42.568  14.331
68209W        W39935  21.600  23.734   1.993
68210W        W39936  20.853  37.858   4.213
68211W        W39937  39.610  30.060   4.369
68212W        W39938  21.665  31.401  11.420
68213W        W39939  19.593  30.946  14.423
68214W        W39940  28.976   7.918  11.151
68215W        W39941  11.307  11.630   0.272
68216W        W39942  38.833  44.841   3.242
68217W        W39943   4.002  15.395   3.288
68218W        W39944  26.520  22.786  14.977
68219W        W39945  11.447  39.792  13.879
68220W        W39946   7.279  19.272   4.289
68221W        W39947  20.345  15.547  13.058
68222W        W39948   4.610  17.261  14.686
68223W        W39949  32.273  31.082   4.311
68224W        W39950   9.674   6.398  10.920
68225W        W39951   6.721   0.986   0.852
68226W        W39952  33.502  18.474   1.163
68227W        W39953  31.710   9.720  13.322
68228W        W39954  39.098  21.009   1.316
68229W        W39955   4.673  30.152  10.742
68230W        W39956   1.392  23.163   4.613
68231W        W39957  11.788  23.104   3.823
68232W        W39958  42.134   8.376   0.961
68233W        W39959  19.725  33.027  11.957
68234W        W39960  27.112  23.557  13.484
68235W        W39961  28.121  18.295  11.224
68236W        W39962  41.104  15.391   1.804
68237W        W39963  37.988   4.131   3.144
68238W        W39964  11.252   1.916  14.965
68239W        W39965  15.164   1.755  14.359
68240W        W39966  29.523  22.190   2.840
68241W        W39967  24.514  11.822   0.363
68242W        W39968   3.998   7.979  14.425
68243W        W39969  31.227  30.062  14.384
68244W        W39970  19.216  34.342  12.796
68245W        W39971   7.799  24.600   0.921
68246W        W39972   5.297   8.764  13.962
68247W        W39973  35.438  24.982   3.355
68248W        W39974   7.285  11.670   0.861
68249W        W39975  28.900  35.835   4.179
68250W        W39976  33.944   4.269   4.525
68251W        W39977  27.479  11.103  13.542
68252W        W39978  43.013  13.251  12.815
68253W        W39979  40.387  33.029   2.792
68254W        W39980  20.256   2.709  11.504
68255W        W39981  31.634   9.951   1.698
68256W        W39982   2.523  28.004  13.171
68257W        W39983  13.238  21.704   0.524
68258W        W39984  42.406  41.441   0.068
68259W        W39985  11.343  18.142  11.548
68260W        W39986  11.600  31.468   3.312
68261W        W39987  23.301   9.355   0.339
68262W        W39988  19.670  19.442  14.446
68263W        W39989   9.370  12.124  10.655
68264W        W39990  15.538  42.882  10.540
68265W        W39991  26.563  39.533  12.870
68266W        W39992   9.799  33.019  12.976
68267W        W39993  25.720  31.851  13.376
68268W        W39994  20.683  41.335  13.222
68269W        W39995   0.971  12.168   1.396
68270W        W39996  12.758   5.484  13.473
68271W        W39997  20.354  32.077   1.270
68272W        W39998  19.845  17.231   0.686
68273W        W39999   6.294  21.501  13.884
68274W        W40000  12.530  42.811   4.635
68275W        W40001   5.790  40.848  14.343
68276W        W40002  38.748  14.189   2.782
68277W        W40003  35.720  20.969  12.022
68278W        W40004  10.900  22.340   1.623
68279W        W40005   9.907  34.147  12.833
68280W        W40006  44.096  37.056  12.064
68281W        W40007   8.398  23.456   2.845
68282W        W40008   1.349  21.957  12.544
68283W        W40009   0.417   5.231  12.936
68284W        W40010  28.901  42.451  14.464
68285W        W40011  24.022  41.840   0.407
68286W        W40012   4.214  23.300   3.130
68287W        W40013  25.961  19.692  11.975
68288W        W40014  32.973  13.628   2.884
68289W        W40015  26.453  37.521  14.255
68290W        W40016  15.275   3.532  13.119
68291W        W40017   0.950  15.187   2.227
68292W        W40018  30.501  26.137   5.099
68293W        W40019   4.728  25.144   0.399
68294W        W40020   0.907  31.630   4.486
68295W        W40021  19.509  31.963   2.245
68296W        W40022  38.097  18.512  13.025
68297W        W40023  15.639  36.791   1.629
68298W        W40024  32.432   2.616  14.407
68299W        W40025  33.314  30.686   2.770
68300W        W40026   5.365  21.643  11.585
68301W        W40027  30.896  27.921   1.206
68302W        W40028  42.138  22.512   3.816
68303W        W40029  19.353  32.206   1.402
68304W        W40030   3.098  22.186   3.636
68305W        W40031   8.631   4.319  11.323
68306W        W40032   7.880   3.345  12.177
68307W        W40033   2.895  13.761  12.606
68308W        W40034   3.095  19.636   4.649
68309W        W40035  36.849   1.514  12.192
68310W        W40036  39.625   4.483  14.817
68311W        W40037  28.659  13.367   1.742
68312W        W40038   7.063   7.436   4.197
68313W        W40039   5.147  43.879  11.082
68314W        W40040  29.964  37.350   0.318
68315W        W40041  17.761  18.471  12.610
68316W        W40042   7.181  42.905  13.482
68317W        W40043   4.791  14.214  13.146
68318W        W40044  31.092   9.300  14.231
68319W        W40045   3.786  25.662   2.834
68320W        W40046   3.320  35.323   4.952
68321W        W40047  12.712  29.957  12.044
68322W        W40048  14.159  24.273   0.819
68323W        W40049  33.946  44.229   0.939
68324W        W40050  19.331   0.391  12.072
68325W        W40051   5.199  29.088  10.661
68326W        W40052  22.167  23.648  10.803
68327W        W40053  38.975  14.289   0.722
68328W        W40054  38.101  39.014   3.644
68329W        W40055  23.069   2.149   3.149
68330W        W40056   3.410  25.601  11.181
68331W        W40057  20.794  19.617  13.018
68332W        W40058  43.891  30.601   3.494
68333W        W40059   0.425  41.472   0.343
68334W        W40060  41.452  25.605   0.075
68335W        W40061   1.296  21.677  12.108
68336W        W40062  12.125  17.289  14.964
68337W        W40063  36.571  36.140  10.640
68338W        W40064  19.694  40.025  12.013
68339W        W40065  18.079   4.731   3.749
68340W        W40066  41.884  20.323  12.612
68341W        W40067  16.561  10.120  13.931
68342W        W40068  23.785  39.579  12.503
68343W        W40069   3.269  24.686   1.924
68344W        W40070  13.652  16.352   1.325
68345W        W40071   8.114  20.417   3.697
68346W        W40072  34.471   4.836  11.670
68347W        W40073   8.582   3.827   1.895
68348W        W40074  43.258   8.472  14.788
68349W        W40075   5.877  13.330   4.791
68350W        W40076  24.313  34.056   4.778
68351W        W40077  23.933  25.004   1.440
68352W        W40078  34.230  39.896  12.040
68353W        W40079  18.375  13.368  13.529
68354W        W40080   9.889  40.351  14.413
68355W        W40081  23.732  36.337   3.438
68356W        W40082  41.120  19.573  14.958
68357W        W40083  39.821  44.059  11.034
68358W        W40084   3.242  37.973  13.527
68359W        W40085  35.588  13.683   4.330
68360W        W40086  20.534  31.692   0.047
68361W        W40087  29.469  15.350   4.672
68362W        W40088   1.126   8.600  13.399
68363W        W40089   6.217  30.196   0.529
68364W        W40090  38.970   9.149   4.152
68365W        W40091  43.328  19.411   4.149
68366W        W40092   8.242  14.017  10.699
68367W        W40093  13.683  23.763   4.697
68368W        W40094  21.758  21.044   2.303
68369W        W40095  44.064  39.581  11.525
68370W        W40096  32.590   2.412  11.928
68371W        W40097   0.283  22.499  10.653
68372W        W40098  37.868  32.950   4.466
68373W        W40099  13.115   1.675   4.441
68374W        W40100   3.683  23.941   4.109
68375W        W40101  18.559   8.441  13.768
68376W        W40102  19.486  31.590  12.962
68377W        W40103   1.278  14.903  13.554
68378W        W40104  25.783  29.117  12.846
68379W        W40105  22.002  37.802  11.665
68380W        W40106   5.930  22.159   1.192
68381W        W40107  12.751  30.556  14.924
68382W        W40108  22.576  34.461   1.267
68383W        W40109  32.703  42.344  10.699
68384W        W40110   7.155  20.970   3.674
68385W        W40111   8.104  29.702  12.839
68386W        W40112  41.387  13.679   2.481
68387W        W40113  18.088   5.280   4.589
68388W        W40114   1.818  11.299  13.519
68389W        W40115  37.479  20.343  10.538
68390W        W40116  34.200  44.809   2.875
68391W        W40117  17.412  18.535  13.432
68392W        W40118  10.167  27.829   2.853
68393W        W40119  14.683  18.491   0.322
68394W        W40120   8.293   2.428   0.026
68395W        W40121  36.781  19.019  14.788
68396W        W40122  21.617  31.770  13.400
68397W        W40123  39.294  41.333  12.933
68398W        W40124   0.766  43.307   4.995
68399W        W40125   5.924  32.050   1.731
68400W        W40126  33.974  28.534  14.649
68401W        W40127  41.675  15.744  10.468
68402W        W40128  13.345   1.553  13.469
68403W        W40129  40.999  39.101  12.417
68404W        W40130  36.282  34.444   4.796
68405W        W40131  27.549  19.584   3.344
68406W        W40132  37.913   9.264  10.407
68407W        W40133  16.397  30.670  11.186
68408W        W40134  22.643   2.420   3.987
68409W        W40135   2.297   7.466   1.836
68410W        W40136  12.768  31.312   0.283
68411W        W40137  16.568   7.336   4.213
68412W        W40138  40.963  36.626  12.729
68413W        W40139  36.003   4.264  13.223
68414W        W40140  28.842  44.222  14.437
68415W        W40141  33.078  26.082  10.341
68416W        W40142   8.803  12.794   0.817
68417W        W40143  13.551  22.640   3.093
68418W        W40144  16.844  27.923   2.764
68419W        W40145  33.682  42.894   4.965
68420W        W40146  38.775  38.076   4.736
68421W        W40147  22.713  26.429   4.661
68422W        W40148  13.679  23.568  14.293
68423W        W40149  16.022  31.463  13.012
68424W        W40150   7.897  11.352   4.779
68425W        W40151   2.377  16.715  11.959
68426W        W40152  34.055  23.285  14.931
68427W        W40153  17.545   2.390  14.932
68428W        W40154  26.871  14.115  12.996
68429W        W40155   9.929  17.610   2.679
68430W        W40156  18.712  15.316   0.065
68431W        W40157   1.442  26.916  12.305
68432W        W40158  21.070  23.618   1.240
68433W        W40159  12.653  30.612   3.611
68434W        W40160  27.290  25.274  11.085
68435W        W40161  11.146  25.158  13.129
68436W        W40162  20.317  36.426   2.067
68437W        W40163  15.557  41.901   2.847
68438W        W40164   6.774  21.735  12.937
68439W        W40165  38.038  15.166  14.217
68440W        W40166  23.194  44.934   3.159
68441W        W40167  24.966  25.096  14.420
68442W        W40168   5.533  39.042   3.081
68443W        W40169  43.901  10.620   2.699
68444W        W40170  29.513  37.401  10.422
68445W        W40171  12.716  16.017  13.366
68446W        W40172  21.633  33.984   0.552
68447W        W40173  18.518  25.053   4.402
68448W        W40174  11.700  30.327  12.931
68449W        W40175  35.140  43.409  12.187
68450W        W40176  10.229  28.672   0.713
68451W        W40177  28.086  21.977  14.278
68452W        W40178  41.563  28.098  11.137
68453W        W40179   9.867  31.404   3.290
68454W        W40180  15.613   4.150  13.375
68455W        W40181  10.830  28.917  13.679
68456W        W40182  12.673  10.321  12.209
68457W        W40183  25.512   5.314   0.297
68458W        W40184   7.344   8.912   0.811
68459W        W40185  16.049  22.897   2.816
68460W        W40186  25.187  18.851  13.416
68461W        W40187  35.656  15.003   3.255
68462W        W40188  13.056   0.007  13.980
68463W        W40189  13.841  32.343  14.087
68464W        W40190  12.076  28.718   3.685
68465W        W40191  17.279  43.207   4.499
68466W        W40192  31.389   0.290   0.950
68467W        W40193  25.456  35.579   0.027
68468W        W40194  14.203  40.299   0.694
68469W        W40195  30.965  10.949  12.907
68470W        W40196   6.110  13.860  14.242
68471W        W40197  26.593   3.710   0.447
68472W        W40198  34.119   5.827   2.887
68473W        W40199   1.965  22.034  13.479
68474W        W40200  39.346  28.197   3.741
68475W        W40201  24.146   3.981   3.245
68476W        W40202   9.125   8.785   3.578
68477W        W40203  23.770  19.160  11.259
68478W        W40204   2.207   3.949  12.494
68479W        W40205  23.720  27.494  10.270
68480W        W40206  14.387  27.512  10.944
68481W        W40207  25.101  13.354   2.507
68482W        W40208  17.746   4.370   1.767
68483W        W40209  33.565  38.323   2.321
68484W        W40210  30.584  13.332  11.629
68485W        W40211  21.562   1.781  13.885
68486W        W40212   5.010  22.976  12.095
68487W        W40213  12.265  33.898   3.758
68488W        W40214  37.089  35.479  11.770
68489W        W40215  16.757  30.407  14.486
68490W        W40216  44.898  40.359   0.806
68491W        W40217   9.574  23.044  14.406
68492W        W40218  21.607  31.959  11.510
68493W        W40219  16.245   4.902  12.322
68494W        W40220   6.343  21.335   4.586
68495W        W40221  40.947  42.534   1.288
68496W        W40222  24.140  22.333   1.702
68497W        W40223   0.856   2.778   3.632
68498W        W40224  41.549  14.858   0.175
68499W        W40225  44.002   4.991   3.308
68500W        W40226  43.048  30.176   3.279
68501W        W40227  20.867  37.291   1.816
68502W        W40228  42.796  32.421  14.031
68503W        W40229  18.230  12.676   2.265
68504W        W40230  11.676   8.852   4.473
68505W        W40231  20.391  28.011   1.951
68506W        W40232  30.381  40.957   5.023
68507W        W40233  18.049  39.437  11.543
68508W        W40234  32.404   5.368  12.912
68509W        W40235   2.145  25.919   0.336
68510W        W40236  44.430  12.725  11.617
68511W        W40237  25.070  33.074   0.221
68512W        W40238  43.865  37.752   1.176
68513W        W40239  27.444  39.166   0.058
68514W        W40240  30.410  34.077  10.776
68515W        W40241  41.039  32.571   2.218
68516W        W40242  35.592   1.939   0.734
68517W        W40243  23.618   1.518   0.735
68518W        W40244  12.137  37.942   4.056
68519W        W40245  39.789  25.672  13.007
68520W        W40246  34.924   0.552   2.188
68521W        W40247  34.842  18.160   4.813
68522W        W40248  44.570  15.901   0.345
68523W        W40249  21.046  34.929   2.744
68524W        W40250  20.618  22.545  11.103
68525W        W40251  11.401  12.140   0.331
68526W        W40252  29.321  28.391   3.343
68527W        W40253   6.171  33.735   1.362
68528W        W40254   1.700  30.438   3.770
68529W        W40255   2.026  44.727   4.569
68530W        W40256  33.092  10.851  10.755
68531W        W40257  30.622  37.123  11.183
68532W        W40258   2.100  30.694  14.144
68533W        W40259  12.561  22.020   0.052
68534W        W40260   4.306  22.673   3.864
68535W        W40261  28.545  44.972   1.393
68536W        W40262  22.708  22.653  14.971
68537W        W40263  10.158  15.773  11.705
68538W        W40264  20.705  31.617   2.435
68539W        W40265   8.321  30.643   1.600
68540W        W40266  41.779  19.253  14.447
68541W        W40267  39.112  39.156  13.048
68542W        W40268   2.377  34.907  14.387
68543W        W40269  10.908  42.867  14.889
68544W        W40270   6.964  13.828   2.321
68545W        W40271   9.521  18.861  12.522
68546W        W40272  16.125  27.623   4.068
68547W        W40273  43.369  21.840  11.945
68548W        W40274   1.165   8.018   1.331
68549W        W40275   9.942  28.652  13.629
68550W        W40276   4.377  15.632   0.475
68551W        W40277   6.405  41.847   1.266
68552W        W40278  41.828  40.269  10.549
68553W        W40279   8.925   6.679  11.859
68554W        W40280  32.984  39.428  12.525
68555W        W40281  24.969  44.815   0.741
68556W        W40282  40.366  33.548  12.442
68557W        W40283  20.040   6.671  10.967
68558W        W40284  33.388  27.231  12.907
68559W        W40285   2.576  28.888  13.568
68560W        W40286  18.024  40.574   4.298
68561W        W40287  42.316  35.859  14.855
68562W        W40288  28.836  37.288  13.001
68563W        W40289  15.533  35.056  14.012
68564W        W40290  30.474  31.687   3.319
68565W        W40291   8.284  28.219   0.087
68566W        W40292  40.762  33.162   0.109
68567W        W40293  37.547  30.904   0.510
68568W        W40294  24.438  26.972   0.780
68569W        W40295  28.063  40.440   0.668
68570W        W40296  28.130  18.626  12.496
68571W        W40297  29.675  44.759   4.043
68572W        W40298  27.314  21.430   1.835
68573W        W40299  28.185  36.448  13.935
68574W        W40300   5.629  14.791   4.790
68575W        W40301  12.837  11.369   4.536
68576W        W40302  39.093  18.785   1.248
68577W        W40303  42.591  29.545   0.842
68578W        W40304  27.602  40.982  14.085
68579W        W40305  14.601  36.009   0.262
68580W        W40306  12.719  29.006  12.560
68581W        W40307  34.493  30.168   0.814
68582W        W40308   8.464  31.177   4.670
68583W        W40309  40.341  42.912   3.092
68584W        W40310  14.398   4.856   2.773
68585W        W40311  35.855  44.202   0.895
68586W        W40312   4.359  33.880   1.819
68587W        W40313  33.667  20.560  14.903
68588W        W40314  43.538  24.022   4.213
68589W        W40315  26.705  21.594  12.182
68590W        W40316  20.554  10.384   3.076
68591W        W40317  44.933  33.100  13.386
68592W        W40318   3.190  28.744   3.656
68593W        W40319  33.606   2.134   4.105
68594W        W40320  43.776  26.063   3.057
68595W        W40321  38.833  36.189  12.963
68596W        W40322  10.853   1.456  10.606
68597W        W40323  39.161  39.324   4.257
68598W        W40324   1.948  43.494  12.504
68599W        W40325  38.076  35.830   2.780
68600W        W40326  36.074  37.025   1.828
68601W        W40327  42.396  21.158   1.294
68602W        W40328   7.624  16.484  13.699
68603W        W40329  44.885  32.863  11.526
68604W        W40330  32.596  15.554   1.322
68605W        W40331  33.000   1.168  11.937
68606W        W40332  28.886  44.712   2.798
68607W        W40333  39.413  35.368   2.705
68608W        W40334  27.573  28.473   3.902
68609W        W40335  43.864  13.036  14.329
68610W        W40336  22.630  21.850   4.659
68611W        W40337   3.908  41.199   2.927
68612W        W40338  41.381  43.820   0.999
68613W        W40339  38.377   3.051  13.033
68614W        W40340  15.573  21.235   0.360
68615W        W40341  31.155  38.941   2.967
68616W        W40342  24.872  38.882   1.375
68617W        W40343  20.099  36.351  14.420
68618W        W40344  19.393  23.882   0.441
68619W        W40345  11.884  10.759   3.049
68620W        W40346  36.536  29.234  12.448
68621W        W40347  18.489  30.086  13.842
68622W        W40348  28.317  36.462   0.810
68623W        W40349  20.859   6.282   4.562
68624W        W40350   7.723  35.095   3.156
68625W        W40351  10.168   3.122   1.200
68626W        W40352   5.870   0.841   0.137
68627W        W40353  13.130  28.979   3.229
68628W        W40354  14.084  37.296   0.473
68629W        W40355  23.182  43.508   4.701
68630W        W40356  21.145  41.894  12.290
68631W        W40357  42.476  23.430   0.556
68632W        W40358  14.320  33.961  11.143
68633W        W40359   5.275  43.692   3.815
68634W        W40360  27.551  36.000   2.337
68635W        W40361  16.043  41.930   3.104
68636W        W40362  29.536  20.978  11.670
68637W        W40363  43.472  21.548   2.402
68638W        W40364  42.496   2.523   0.483
68639W        W40365  34.014  27.094   2.666
68640W        W40366  12.126  14.665  10.506
68641W        W40367  39.845  31.643   3.942
68642W        W40368  28.284  13.340  14.917
68643W        W40369  36.013  25.260  14.281
68644W        W40370  27.848  36.654  10.965
68645W        W40371  25.526  24.709   0.041
68646W        W40372  40.343  17.158  12.826
68647W        W40373  37.492  12.078   1.365
68648W        W40374   6.785  32.086  11.550
68649W        W40375   5.713  44.209   0.187
68650W        W40376  25.668  40.276  10.752
68651W        W40377   1.697  12.709   1.504
68652W        W40378  37.858  38.807   3.248
68653W        W40379  13.056  13.526   3.255
68654W        W40380  16.292  19.093  13.073
68655W        W40381  21.637   9.089   4.494
68656W        W40382  16.843  40.312  12.596
68657W        W40383  36.686  14.325  11.663
68658W        W40384  28.135   6.870  13.408
68659W        W40385  35.092  31.235  11.167
68660W        W40386  15.598  19.303  12.839
68661W        W40387  15.139  24.990   0.799
68662W        W40388  17.832   1.792   3.100
68663W        W40389  41.183  12.858   0.218
68664W        W40390  24.777  41.736   4.147
68665W        W40391  11.457  22.176  11.867
68666W        W40392  28.973   7.221   0.412
68667W        W40393  41.527  37.329  12.323
68668W        W40394  33.361  35.984  14.482
68669W        W40395  35.169  23.154  12.984
68670W        W40396  19.381  27.226   4.148
68671W        W40397  40.817  30.734   1.627
68672W        W40398  32.359  18.046   3.653
68673W        W40399  39.397  29.350   1.497
68674W        W40400  32.048  22.095  10.922
68675W        W40401  44.688  36.608  13.002
68676W        W40402  23.532  20.204  12.012
68677W        W40403  14.749  16.074   4.552
68678W        W40404  27.092   4.826   0.440
68679W        W40405  30.266  22.639   5.054
68680W        W40406  12.165  15.201   4.654
68681W        W40407  13.724  22.285   4.593
68682W        W40408  12.642  39.132  13.917
68683W        W40409  34.020   4.268   1.942
68684W        W40410  29.677  20.132  13.386
68685W        W40411  35.893  38.089  11.681
68686W        W40412  36.365  33.238  13.822
68687W        W40413  44.443  18.222   2.349
68688W        W40414  24.263   6.350  11.630
68689W        W40415  24.284  39.204   0.736
68690W        W40416  22.822   2.780   1.717
68691W        W40417  30.836   3.463  12.461
68692W        W40418  27.103   3.585  10.473
68693W        W40419  15.038   1.813   3.686
68694W        W40420  25.096  16.348  11.642
68695W        W40421  21.619   7.463  10.386
68696W        W40422  13.274  13.019  11.225
68697W        W40423   2.672  34.836  11.317
68698W        W40424  29.448  26.125   1.283
68699W        W40425   5.880  44.276  11.406
68700W        W40426  22.591  40.289   2.594
68701W        W40427   8.634   4.402   3.281
68702W        W40428  15.355  42.345   1.921
68703W        W40429  36.285  29.500   4.629
68704W        W40430  26.122   1.220  12.399
68705W        W40431  19.319  35.056  14.359
68706W        W40432   5.238  27.956   3.079
68707W        W40433  30.354   1.937   3.375
68708W        W40434  15.084  35.664   1.765
68709W        W40435  28.648  15.533   1.842
68710W        W40436   6.806  26.548  11.674
68711W        W40437  12.821   2.337   4.645
68712W        W40438   6.571   4.469   0.883
68713W        W40439   6.833  38.379   1.358
68714W        W40440  14.713  26.597  13.994
68715W        W40441  37.420  15.220   2.245
68716W        W40442  12.625  31.621  14.894
68717W        W40443  22.098  16.505   0.338
68718W        W40444  28.025  12.903  14.372
68719W        W40445   4.263   7.419  12.008
68720W        W40446  20.586  38.583   3.317
68721W        W40447  39.669  13.301   1.387
68722W        W40448  11.150  38.520   2.796
68723W        W40449  32.931  12.985  12.858
68724W        W40450  14.481  10.689   4.134
68725W        W40451   8.368  35.378   9.842
68726W        W40452  13.069  13.323  11.613
68727W        W40453  32.139  44.148   4.974
68728W        W40454   4.186   8.821  11.187
68729W        W40455  15.980  34.015  11.889
68730W        W40456   3.443   2.861  10.691
68731W        W40457   2.015  17.509  13.404
68732W        W40458  23.281   9.744  14.509
68733W        W40459  34.490   4.261  12.396
68734W        W40460  11.734  17.968   1.238
68735W        W40461   0.435  42.545  11.779
68736W        W40462  37.766  24.928   2.241
68737W        W40463   0.936   5.343  12.899
68738W        W40464  26.618  27.483   1.803
68739W        W40465   6.275  17.734   2.725
68740W        W40466  18.314   7.262  14.325
68741W        W40467  37.528  17.716   4.765
68742W        W40468  37.844  27.155   0.017
68743W        W40469   2.774  20.547  11.261
68744W        W40470  14.877   1.511  12.571
68745W        W40471  24.703  18.328   0.346
68746W        W40472   6.210  36.165   3.291
68747W        W40473  30.664  36.109   0.298
68748W        W40474  30.020  30.396  12.601
68749W        W40475  43.733  21.066  12.713
68750W        W40476  36.863  15.853  11.111
68751W        W40477   0.252  31.138  11.941
68752W        W40478   1.693   1.520  14.472
68753W        W40479  22.232  38.466  13.360
68754W        W40480  14.199  17.757   1.381
68755W        W40481  20.095  27.879   0.819
68756W        W40482   9.433  10.381  11.078
68757W        W40483  42.988  41.596   9.797
68758W        W40484   9.395  14.323  14.416
68759W        W40485  40.289  27.714  10.698
68760W        W40486  38.805  18.943  14.972
68761W        W40487   6.130  22.963   1.653
68762W        W40488  23.826  13.844   0.944
68763W        W40489   1.442  37.364  13.345
68764W        W40490  39.393  20.573  14.359
68765W        W40491  37.571  42.875  13.964
68766W        W40492  42.936  20.767  14.279
68767W        W40493  32.776   9.221   4.750
68768W        W40494   1.171  37.027   4.428
68769W        W40495  11.806   3.198  14.058
68770W        W40496  38.991  28.824  10.342
68771W        W40497  26.915  23.100   2.151
68772W        W40498  31.157   5.272  12.337
68773W        W40499  19.168  11.715   1.823
68774W        W40500  21.895  41.991  11.172
68775W        W40501   2.227  13.225  10.758
68776W        W40502   3.533   3.028  12.460
68777W        W40503   5.273   7.615  10.702
68778W        W40504  42.360  29.594  10.474
68779W        W40505  11.678   3.638   4.118
68780W        W40506   8.529  23.092  11.219
68781W        W40507   7.871  26.635   4.989
68782W        W40508  24.542  13.992  13.419
68783W        W40509   2.947  38.935  14.535
68784W        W40510  34.921   1.789   1.702
68785W        W40511  30.326  22.772   3.681
68786W        W40512  22.490  10.444  13.093
68787W        W40513  14.877  21.563   2.636
68788W        W40514  44.025   4.444   0.244
68789W        W40515  22.623  37.464   3.734
68790W        W40516  17.481  16.246  12.472
68791W        W40517  35.577  23.061  10.658
68792W        W40518  31.679   6.207  14.593
68793W        W40519  12.825   2.688  14.968
68794W        W40520  35.640  30.794  14.962
68795W        W40521  17.143  20.264  11.589
68796W        W40522  19.940  12.642   2.892
68797W        W40523  14.987   2.705  12.933
68798W        W40524  38.952  36.273   2.494
68799W        W40525   2.324  22.011  14.562
68800W        W40526  38.825   9.262  13.019
68801W        W40527   0.254  12.146   3.747
68802W        W40528  37.916  39.950  12.652
68803W        W40529  11.899  13.784  14.839
68804W        W40530  41.023   4.776   1.670
68805W        W40531  35.801  36.870   2.337
68806W        W40532  16.333  14.158   0.895
68807W        W40533  34.333  19.741  11.220
68808W        W40534  42.245  34.404   0.874
68809W        W40535  35.873  32.542   0.774
68810W        W40536  31.885   6.789   0.392
68811W        W40537  25.031  21.722   0.786
68812W        W40538  38.455  28.574   3.859
68813W        W40539  31.431  15.317  11.485
68814W        W40540  26.373   3.396   2.772
68815W        W40541   1.934   8.951  10.479
68816W        W40542  26.746  17.317   3.652
68817W        W40543  16.542  13.189   4.150
68818W        W40544  39.764  16.274   3.446
68819W        W40545  14.185  11.927   3.615
68820W        W40546  42.214  30.484   3.110
68821W        W40547  34.773  42.827   3.246
68822W        W40548   3.738  24.234   4.550
68823W        W40549  34.463  17.189   4.591
68824W        W40550  15.148   5.945   0.255
68825W        W40551  32.579  41.706   2.971
68826W        W40552  21.104  33.036  12.112
68827W        W40553  13.503  28.045  14.325
68828W        W40554  40.786  41.811  11.648
68829W        W40555  16.678  21.740  10.999
68830W        W40556  28.481  14.014  13.471
68831W        W40557   3.633  38.532   4.510
68832W        W40558   7.756  16.066  10.932
68833W        W40559  34.362  12.822   2.244
68834W        W40560  30.588  10.280  12.475
68835W        W40561   6.122  13.570   1.312
68836W        W40562   4.454  16.846  12.440
68837W        W40563  10.410  33.538   1.885
68838W        W40564  37.982  19.805  11.994
68839W        W40565  11.196   8.435  14.758
68840W        W40566   4.933  39.568  14.389
68841W        W40567   1.172  34.161   4.579
68842W        W40568  41.431  29.003   1.698
68843W        W40569  26.005  41.824  14.746
68844W        W40570  43.976  15.582   4.504
68845W        W40571   3.213  10.053  13.894
68846W        W40572  20.662  35.189  14.868
68847W        W40573   9.361   1.539  11.207
68848W        W40574  20.886  38.821  11.958
68849W        W40575  40.390  29.347   3.614
68850W        W40576  44.111  31.997  10.478
68851W        W40577  13.125  37.808  11.916
68852W        W40578  35.088  37.576  10.795
68853W        W40579  21.020   0.447  14.396
68854W        W40580  36.556  10.436   3.311
68855W        W40581  25.032  29.086   0.251
68856W        W40582  36.578  19.588   3.160
68857W        W40583  21.329  33.521   1.373
68858W        W40584  42.530  21.110  14.353
68859W        W40585  30.587  28.537  11.109
68860W        W40586  14.010  41.064   4.886
68861W        W40587  38.988  42.490   2.770
68862W        W40588  26.489  35.021  13.641
68863W        W40589  14.724  24.273   0.405
68864W        W40590  35.361   0.330   1.392
68865W        W40591  20.305   3.476  13.296
68866W        W40592   4.939   3.378  13.851
68867W        W40593  14.378  39.393   9.974
68868W        W40594   7.900  43.743   0.285
68869W        W40595  27.767  17.762  13.932
68870W        W40596   3.159  13.394   4.939
68871W        W40597  19.404   6.105  11.160
68872W        W40598   5.429  32.065   1.961
68873W        W40599  43.275  10.245  11.731
68874W        W40600  44.721  12.166   0.704
68875W        W40601  27.046  25.501   3.367
68876W        W40602   0.433  10.668  14.701
68877W        W40603  34.373  13.069   2.849
68878W        W40604  35.054  21.261  10.463
68879W        W40605  22.467   0.734   2.329
68880W        W40606  37.467  29.846  11.498
68881W        W40607   3.802  11.363   3.597
68882W        W40608  43.491  29.712   1.848
68883W        W40609  15.694  10.112   1.214
68884W        W40610   3.320  22.212   1.674
68885W        W40611  42.920  19.113  11.907
68886W        W40612  31.442  42.508   1.968
68887W        W40613   2.731   2.331   2.994
68888W        W40614  35.466  27.464  11.221
68889W        W40615  27.173  18.809   4.465
68890W        W40616  30.908  38.182  14.279
68891W        W40617   6.212  33.861  14.999
68892W        W40618   8.823   5.331  12.508
68893W        W40619   2.527   4.752  14.313
68894W        W40620  38.564   5.363   4.953
68895W        W40621   1.454  39.945  13.318
68896W        W40622  32.783  35.081   0.909
68897W        W40623  26.283   7.749  14.067
68898W        W40624  16.742   5.865  12.170
68899W        W40625  42.582   7.752  12.895
68900W        W40626  44.914   2.962   3.643
68901W        W40627  28.983  39.887   3.144
68902W        W40628  41.832  23.229   0.200
68903W        W40629  37.387   5.215  12.503
68904W        W40630  42.888  15.744  14.314
68905W        W40631  28.086  19.212   4.981
68906W        W40632   7.829  31.129   0.436
68907W        W40633   6.732  11.194   4.689
68908W        W40634  32.446  35.562   2.195
68909W        W40635  34.112   6.913   4.975
68910W        W40636  24.637  23.976  11.586
68911W        W40637  40.770  24.242  12.888
68912W        W40638  27.543  19.596  11.176
68913W        W40639  32.465  22.706  13.917
68914W        W40640  13.252  12.281  14.720
68915W        W40641  29.653   9.606  12.031
68916W        W40642  34.985  29.186  12.093
68917W        W40643  19.275  42.661   2.438
68918W        W40644  35.982  33.038   2.176
68919W        W40645   2.218  33.032  10.416
68920W        W40646  23.707  38.342  11.197
68921W        W40647  30.031  35.142   3.043
68922W        W40648  18.724  40.583   4.690
68923W        W40649  31.883  20.730   2.272
68924W        W40650  23.005   8.102   4.625
68925W        W40651  18.590  29.410  12.136
68926W        W40652  13.810  14.665   4.869
68927W        W40653  38.666   2.390  11.635
68928W        W40654  34.967  39.163  14.336
68929W        W40655  26.834  32.632   3.371
68930W        W40656   5.469  30.102   4.142
68931W        W40657  32.352  29.537   1.160
68932W        W40658  13.708  35.175   4.558
68933W        W40659  32.696  10.137  11.526
68934W        W40660  21.951   7.791   4.227
68935W        W40661  18.778  37.009  10.644
68936W        W40662  40.834   7.858   4.103
68937W        W40663   4.850  32.091  10.704
68938W        W40664  40.498  32.131   0.838
68939W        W40665  40.843  31.560   0.433
68940W        W40666  31.522  36.335   0.347
68941W        W40667  19.778  29.571   1.513
68942W        W40668  37.258  19.590   5.094
68943W        W40669  26.197  15.984  14.910
68944W        W40670  21.234  27.280  14.072
68945W        W40671  26.981   3.266   3.997
68946W        W40672   8.742  39.961  12.069
68947W        W40673  12.210  32.878  14.259
68948W        W40674   5.185   5.336   9.696
68949W        W40675  43.832  20.594   1.908
68950W        W40676  20.567  22.307   0.490
68951W        W40677  22.947  26.016  14.259
68952W        W40678  34.315  19.488   1.404
68953W        W40679   9.317  19.514  14.532
68954W        W40680   0.471  39.951   3.563
68955W        W40681  11.591  31.499   2.396
68956W        W40682  37.325  13.748   2.282
68957W        W40683  17.719  40.135   4.226
68958W        W40684  13.126   3.832   2.436
68959W        W40685  10.846  13.094  12.821
68960W        W40686   7.178  20.223   0.246
68961W        W40687   3.502   5.071  10.147
68962W        W40688   8.895  33.067  13.712
68963W        W40689  39.310   8.089   3.262
68964W        W40690   3.237   5.775  13.389
68965W        W40691   1.579  11.191   3.427
68966W        W40692  26.680  29.846  14.658
68967W        W40693  25.293  27.133  12.927
68968W        W40694  11.873  36.967  12.221
68969W        W40695  23.662   1.051   0.961
68970W        W40696  22.896   9.368   2.777
68971W        W40697  40.347  22.313  10.761
68972W        W40698   9.978  17.584  13.209
68973W        W40699  22.977  12.797   2.328
68974W        W40700   8.850  39.381  12.080
68975W        W40701  43.469  41.746  11.971
68976W        W40702   6.988  13.712   3.758
68977W        W40703  25.621   0.865   5.089
68978W        W40704  16.424   2.178   4.575
68979W        W40705  38.071  19.013   0.081
68980W        W40706  43.793  14.627   2.595
68981W        W40707  43.050  25.101   0.895
68982W        W40708  27.250  43.986   1.342
68983W        W40709  41.980  22.725   4.635
68984W        W40710  12.928  34.142   0.899
68985W        W40711   9.914  34.881   2.792
68986W        W40712  36.669  27.953   1.168
68987W        W40713  43.037  34.136  12.109
68988W        W40714  20.580  20.046  12.525
68989W        W40715  25.054  39.398   4.614
68990W        W40716  32.820  33.627   2.787
68991W        W40717  30.804  19.808  12.830
68992W        W40718   6.211  13.690   2.643
68993W        W40719  39.421  32.838  11.327
68994W        W40720  20.704   8.532  11.671
68995W        W40721  40.854  12.919   1.783
68996W        W40722  24.001  40.264   5.102
68997W        W40723  29.685  11.586  13.030
68998W        W40724  27.207   0.559   4.621
68999W        W40725   5.395  20.682   0.221
69000W        W40726  23.725   6.373  11.641
69001W        W40727  41.964  28.085  12.646
69002W        W40728  35.802  37.453   1.849
69003W        W40729  14.675  30.023   1.696
69004W        W40730  38.527  29.390   1.848
69005W        W40731  38.575   3.482   0.717
69006W        W40732  18.782  24.584   0.202
69007W        W40733  13.133   4.518   2.459
69008W        W40734  31.830  23.372  11.097
69009W        W40735  35.475  25.108   1.892
69010W        W40736  18.601  40.850   3.197
69011W        W40737  15.686  23.684  11.141
69012W        W40738  26.630   2.586   2.942
69013W        W40739  15.678   3.279   3.471
69014W        W40740  17.692   2.887  14.983
69015W        W40741   0.434  22.486  13.914
69016W        W40742  21.796  19.595  13.125
69017W        W40743   1.285  26.471   1.076
69018W        W40744   4.412  34.635  11.539
69019W        W40745  39.657  25.165  13.855
69020W        W40746  15.336  23.072   3.572
69021W        W40747  30.878  26.691  14.286
69022W        W40748   2.264  12.383   0.006
69023W        W40749  23.257   7.744   3.445
69024W        W40750   8.749   9.318  13.278
69025W        W40751   5.281  16.060  11.041
69026W        W40752  21.580   6.374   4.243
69027W        W40753  20.012  15.145  14.492
69028W        W40754  33.026   6.621  13.622
69029W        W40755   8.677  41.259   2.202
69030W        W40756  30.652  41.050  10.451
69031W        W40757   1.976   9.090   2.371
69032W        W40758  41.070  42.440  14.942
69033W        W40759  41.887  34.688  13.854
69034W        W40760  41.852  15.569  12.664
69035W        W40761  11.516   8.584   3.030
69036W        W40762  38.298  35.542   0.510
69037W        W40763  40.952  16.972   4.429
69038W        W40764  28.881  14.551   0.419
69039W        W40765  19.937  16.563   4.799
69040W        W40766  44.121   4.225   1.284
69041W        W40767  40.763  43.653  12.068
69042W        W40768  42.156  14.432  11.149
69043W        W40769  32.114  28.247  11.987
69044W        W40770   4.001   0.403   0.697
69045W        W40771  25.059  18.553   3.751
69046W        W40772  32.960  42.695  14.022
69047W        W40773  29.333  44.368   1.556
69048W        W40774   3.733  32.643   2.186
69049W        W40775  20.808  37.633   1.292
69050W        W40776  15.010  31.570  12.871
69051W        W40777  33.121   4.464   2.636
69052W        W40778  13.142   5.684   0.196
69053W        W40779  37.123  22.786  12.065
69054W        W40780  37.510  41.931  12.128
69055W        W40781   8.229  40.468   3.255
69056W        W40782  17.060  42.907  12.472
69057W        W40783  18.318  20.747   2.219
69058W        W40784  31.534  24.187   2.880
69059W        W40785  21.660   2.579   2.240
69060W        W40786  36.457  40.968  12.946
69061W        W40787  19.056  18.308  14.854
69062W        W40788  23.472  37.351  10.813
69063W        W40789   0.751  41.310  12.555
69064W        W40790  11.233  25.637  14.319
69065W        W40791  43.240  28.532   4.113
69066W        W40792  39.851  16.582   1.433
69067W        W40793   5.758  25.402   2.888
69068W        W40794  28.591  35.577   2.763
69069W        W40795   5.294  36.734  14.369
69070W        W40796  26.844  40.858   1.718
69071W        W40797  27.621   2.268   1.254
69072W        W40798  44.603  11.926  14.793
69073W        W40799  29.114   6.522  10.506
69074W        W40800  14.032  42.009  14.504
69075W        W40801  34.313   1.290   2.062
69076W        W40802  13.735  40.608  12.318
69077W        W40803  41.808  12.838  13.473
69078W        W40804  15.367  21.721  11.580
69079W        W40805  33.466   8.892   3.317
69080W        W40806   6.756  15.572   4.050
69081W        W40807  26.005  34.388  14.768
69082W        W40808  40.002  10.460  11.031
69083W        W40809  43.289  24.059   4.651
69084W        W40810  28.382  26.860  12.428
69085W        W40811   0.991  37.998  13.838
69086W        W40812  15.301  42.349   2.768
69087W        W40813  12.133  18.070  12.479
69088W        W40814  29.510  10.286   1.835
69089W        W40815   7.793  37.107   2.175
69090W        W40816  26.506  29.425  13.333
69091W        W40817  21.285   9.635   2.155
69092W        W40818   2.725  13.116  11.594
69093W        W40819  27.520  38.602   1.332
69094W        W40820  30.612   9.066  11.549
69095W        W40821  26.154  20.668   0.767
69096W        W40822  31.096   7.665   0.725
69097W        W40823   7.594  25.758  13.985
69098W        W40824   2.698  19.603   0.515
69099W        W40825  42.634  18.704   3.734
69100W        W40826   0.878   9.891  11.685
69101W        W40827  41.872   0.745   0.309
69102W        W40828  28.407  16.827   0.371
69103W        W40829  20.064  15.050   2.866
69104W        W40830  14.909  13.947   4.018
69105W        W40831  39.128   0.526  10.582
69106W        W40832  36.470  27.695   3.154
69107W        W40833   4.189  32.344   0.421
69108W        W40834  18.687  23.566  14.900
69109W        W40835  36.081  33.120  11.485
69110W        W40836  18.230  35.633  10.413
69111W        W40837   7.699  33.091   0.388
69112W        W40838  13.276  28.180  11.563
69113W        W40839   2.300  41.343   2.358
69114W        W40840   0.490  10.735   3.647
69115W        W40841   1.357  41.092   0.353
69116W        W40842  42.411  20.473  12.618
69117W        W40843   1.895  22.696   1.031
69118W        W40844  32.048  36.066  14.497
69119W        W40845   3.372  13.174   0.502
69120W        W40846  23.513  33.917  14.478
69121W        W40847  11.058  42.319  13.343
69122W        W40848  30.040  35.356  10.483
69123W        W40849  39.237  14.899  14.455
69124W        W40850  15.596  13.352  13.247
69125W        W40851  28.811  34.200   0.624
69126W        W40852   0.863  42.778  14.223
69127W        W40853  19.764  27.895  14.776
69128W        W40854  11.850   1.937  10.174
69129W        W40855  27.036  44.638   3.686
69130W        W40856  15.442  44.831  12.975
69131W        W40857   2.672  31.736  11.116
69132W        W40858  13.739  27.031   3.739
69133W        W40859   9.589  39.218  12.565
69134W        W40860  13.401  41.889   3.653
69135W        W40861  16.151   1.869   1.160
69136W        W40862   1.342  27.447   2.628
69137W        W40863  41.529   4.205  14.487
69138W        W40864   8.482  34.356  13.962
69139W        W40865   7.820  20.412   4.126
69140W        W40866  13.628  31.428  13.912
69141W        W40867  23.930  36.871  12.475
69142W        W40868  29.684  39.787   5.025
69143W        W40869  28.051   9.232   2.667
69144W        W40870  40.046  36.822   3.845
69145W        W40871  34.687  20.901   3.241
69146W        W40872  43.197   0.231   3.651
69147W        W40873  39.970  29.432  11.116
69148W        W40874  21.315  43.829   4.378
69149W        W40875  39.353  35.784   4.836
69150W        W40876   6.308   9.161   3.764
69151W        W40877  33.992   6.192  10.607
69152W        W40878  20.190  38.572   4.119
69153W        W40879  29.306  39.625  10.202
69154W        W40880  22.712  29.222  13.232
69155W        W40881  38.299  37.347   0.842
69156W        W40882  39.897  33.676  13.890
69157W        W40883  19.487   1.198  11.393
69158W        W40884  38.003  39.790   1.280
69159W        W40885  29.369  36.453   0.833
69160W        W40886  17.058   8.538   4.614
69161W        W40887  12.377  40.833  11.126
69162W        W40888   3.093  13.191   4.470
69163W        W40889  14.107  27.509   4.919
69164W        W40890  36.136  25.790   2.233
69165W        W40891  16.440  26.547  12.009
69166W        W40892  28.341  27.971   4.664
69167W        W40893   1.924  36.069  10.791
69168W        W40894  41.281   7.310  14.018
69169W        W40895   1.180  27.517   3.965
69170W        W40896   9.847  42.902  10.670
69171W        W40897  32.447  30.172   2.626
69172W        W40898   2.704  28.064  13.871
69173W        W40899  11.246  28.650   3.272
69174W        W40900  28.985   7.624   1.835
69175W        W40901  38.276  16.231   3.196
69176W        W40902  23.107  17.465  12.169
69177W        W40903  37.463  28.992  11.191
69178W        W40904   3.482  14.194   1.310
69179W        W40905   4.311   3.927   0.019
69180W        W40906   1.218  14.460  14.309
69181W        W40907  11.966  24.966  10.705
69182W        W40908   8.248  26.218   1.321
69183W        W40909   7.852  29.861  11.562
69184W        W40910  33.868  25.903  11.136
69185W        W40911   7.245   2.476  11.487
69186W        W40912  16.115  35.885   1.322
69187W        W40913   2.422  37.793  10.653
69188W        W40914   4.528  44.903   0.513
69189W        W40915  23.470  39.754   2.710
69190W        W40916  30.014  30.367  13.186
69191W        W40917   4.724  11.102   1.264
69192W        W40918  24.287  37.943  10.619
69193W        W40919   0.865  39.158  12.197
69194W        W40920   1.905   3.963   4.915
69195W        W40921  42.888   2.426   2.863
69196W        W40922  32.863  44.835  11.753
69197W        W40923  17.790  26.632  13.685
69198W        W40924  28.884  17.792   0.801
69199W        W40925  20.868  12.644   5.026
69200W        W40926  41.027  10.005   2.637
69201W        W40927  41.881  11.959   0.760
69202W        W40928  37.485   3.344   2.460
69203W        W40929  31.871  27.556   2.282
69204W        W40930  13.884  11.170  12.490
69205W        W40931  42.251  41.420   0.942
69206W        W40932  35.824  39.862   0.872
69207W        W40933  20.608  26.100   2.824
69208W        W40934  37.539   9.152   1.337
69209W        W40935  12.961   5.961  13.494
69210W        W40936  37.563  38.469  13.417
69211W        W40937  19.691  18.196   3.149
69212W        W40938  42.699  31.062   4.108
69213W        W40939  29.667   4.977  11.753
69214W        W40940  27.939  11.178   2.815
69215W        W40941  23.139   0.690   4.028
69216W        W40942  39.868   6.846  10.575
69217W        W40943  18.864   4.305  11.321
69218W        W40944  14.796  42.808   2.686
69219W        W40945  31.184  20.427   0.770
69220W        W40946  34.930  11.805   3.158
69221W        W40947  27.355  15.364   3.221
69222W        W40948  11.428   3.702  11.516
69223W        W40949   7.800  25.642  10.680
69224W        W40950  27.715  26.198   0.715
69225W        W40951  20.687  24.494  11.542
69226W        W40952  28.103  43.999   2.945
69227W        W40953  39.768   0.490   3.700
69228W        W40954  17.514   4.482  12.400
69229W        W40955  14.205  21.500   0.373
69230W        W40956   9.061   9.665  13.994
69231W        W40957  27.597  31.868  13.786
69232W        W40958  11.501  27.633  12.746
69233W        W40959  40.449  33.163   1.817
69234W        W40960  26.739  15.194   0.076
69235W        W40961  19.842  15.206   2.421
69236W        W40962  17.257  25.197  12.927
69237W        W40963  23.106   6.659  10.458
69238W        W40964  36.959  41.086  12.987
69239W        W40965   2.363   4.239   4.348
69240W        W40966  38.141  17.364  14.354
69241W        W40967  42.710  15.490   3.775
69242W        W40968  24.990  12.392  13.808
69243W        W40969  30.748  10.321   0.297
69244W        W40970   6.792  26.955   1.892
69245W        W40971  25.486  38.352  10.575
69246W        W40972   8.362  23.570  10.002
69247W        W40973  41.327  36.844   0.451
69248W        W40974  30.122  25.091  13.477
69249W        W40975  44.178  34.899   5.155
69250W        W40976  28.465  26.717  14.332
69251W        W40977  27.229  39.026  13.447
69252W        W40978   6.649  33.742  12.362
69253W        W40979  38.060  37.217   1.427
69254W        W40980   5.859  38.443   3.683
69255W        W40981   8.695  14.086  13.323
69256W        W40982  41.810  24.727  11.647
69257W        W40983  42.588  15.784  13.393
69258W        W40984  17.003   2.985   3.953
69259W        W40985  11.728   7.102   4.085
69260W        W40986  30.131  44.469   3.605
69261W        W40987  16.113  12.287  13.781
69262W        W40988  10.230   9.220   2.932
69263W        W40989  34.106  17.506   2.406
69264W        W40990  15.889  43.457  12.865
69265W        W40991   0.035  43.319  13.395
69266W        W40992  42.983   2.604   1.480
69267W        W40993  20.671  18.452  10.584
69268W        W40994  33.248  37.330  11.627
69269W        W40995  27.539  22.652   0.282
69270W        W40996   9.608  13.107  12.105
69271W        W40997  22.514  22.133  14.978
69272W        W40998  11.543   6.551   0.345
69273W        W40999  41.839   7.803   4.118
69274W        W41000  33.369   1.787  14.763
69275W        W41001  15.344  38.034   3.630
69276W        W41002  30.837   2.958  12.414
69277W        W41003  36.483   3.221   1.614
69278W        W41004  13.933  12.398   1.270
69279W        W41005  12.950  38.427   4.825
69280W        W41006   1.185  19.317   2.129
69281W        W41007   0.389  25.992  12.757
69282W        W41008  41.969   3.122   2.317
69283W        W41009   0.281  34.193  13.027
69284W        W41010   7.297   3.762   2.320
69285W        W41011   8.667  27.049   1.737
69286W        W41012  33.058  33.614   1.690
69287W        W41013  37.976  27.266   3.822
69288W        W41014  29.950  38.430   2.619
69289W        W41015  32.873   1.416  12.630
69290W        W41016  39.605  15.968   0.941
69291W        W41017  22.903  12.906   1.426
69292W        W41018  31.766   0.834   4.308
69293W        W41019  33.524  15.235  12.600
69294W        W41020  15.253  21.381   2.353
69295W        W41021   6.591   6.753  10.723
69296W        W41022  39.004  34.321  14.486
69297W        W41023  16.708  11.345   0.517
69298W        W41024  30.184  38.566   4.765
69299W        W41025  34.127  25.494   2.819
69300W        W41026   8.485   4.834   2.348
69301W        W41027   8.311   2.533  11.568
69302W        W41028  42.081  36.655  11.970
69303W        W41029   4.508   7.135  10.943
69304W        W41030  10.619  42.316   2.771
69305W        W41031  24.564  13.357  10.173
69306W        W41032  43.574  15.144  11.622
69307W        W41033   0.607   9.865   0.691
69308W        W41034  37.523  23.447  10.359
69309W        W41035  39.915  31.124   0.389
69310W        W41036  11.418   5.394   2.160
69311W        W41037   6.277  38.151  11.665
69312W        W41038   0.994   8.955   0.918
69313W        W41039  36.324  44.252  12.543
69314W        W41040  42.765   6.182  12.185
69315W        W41041   7.998  44.108   3.200
69316W        W41042  29.590   1.317   3.586
69317W        W41043   7.856  34.128  10.801
69318W        W41044  37.201  34.197   2.650
69319W        W41045  23.237  23.095  13.800
69320W        W41046  11.507   2.781  13.208
69321W        W41047  39.921  20.812   1.112
69322W        W41048  11.112   9.317  14.370
69323W        W41049  43.305   8.396   2.815
69324W        W41050   4.691   8.376   0.903
69325W        W41051  24.124   9.134  12.004
69326W        W41052  29.388  20.158  13.806
69327W        W41053   5.599  17.339   1.952
69328W        W41054  10.589  24.512  13.519
69329W        W41055  11.462   5.820   2.836
69330W        W41056  29.215  19.161   0.785
69331W        W41057  29.039  24.774  10.568
69332W        W41058  40.601  20.511  13.071
69333W        W41059   8.714   5.839   9.977
69334W        W41060  38.636  29.188  14.812
69335W        W41061  30.748  29.350   4.822
69336W        W41062  42.027  32.380   1.416
69337W        W41063  33.538  26.133   5.319
69338W        W41064  11.655  32.651  12.381
69339W        W41065  28.755   0.475   2.327
69340W        W41066   8.322  31.187   0.735
69341W        W41067  31.537  27.451   0.757
69342W        W41068  43.881  44.511  12.624
69343W        W41069  30.071  31.070   3.778
69344W        W41070  39.756  17.368   2.082
69345W        W41071   0.156   2.768  11.181
69346W        W41072  33.121  30.305  12.524
69347W        W41073  42.473  25.717  13.540
69348W        W41074  35.116  22.108  12.867
69349W        W41075  33.245  33.118   1.842
69350W        W41076  11.685  40.896   1.018
69351W        W41077   1.014  11.169  11.200
69352W        W41078  26.142  36.773  12.364
69353W        W41079  35.805   8.325   2.255
69354W        W41080  11.507   3.446  11.947
69355W        W41081  19.548  31.038   3.538
69356W        W41082   6.596  37.768  12.828
69357W        W41083  11.553  28.932   1.334
69358W        W41084  34.534   6.769   0.599
69359W        W41085  21.052   1.876   1.101
69360W        W41086  37.357  41.423  11.957
69361W        W41087  10.672   5.886  12.875
69362W        W41088  40.436  38.735  11.568
69363W        W41089   3.250  30.198  10.998
69364W        W41090  18.559  29.903  14.788
69365W        W41091  15.227  35.163   0.311
69366W        W41092  27.025  18.073  12.573
69367W        W41093  44.175  17.668   0.007
69368W        W41094  32.196  42.869   4.941
69369W        W41095  35.040   0.458  14.840
69370W        W41096  42.555  29.497   3.224
69371W        W41097  16.600  20.334   1.895
69372W        W41098  33.280  27.103  14.733
69373W        W41099  33.486   9.769  10.054
69374W        W41100   6.439   9.058  14.742
69375W        W41101  23.366  37.866   1.922
69376W        W41102  29.811   1.458  11.181
69377W        W41103  32.781   0.819   3.132
69378W        W41104  23.533  10.232  10.690
69379W        W41105  10.161   7.602  11.957
69380W        W41106   4.141  28.296   3.688
69381W        W41107  10.411  42.014   4.269
69382W        W41108  22.272  18.515  13.412
69383W        W41109  22.910  26.271   1.186
69384W        W41110  26.495  26.732  14.953
69385W        W41111  38.439   8.729   0.417
69386W        W41112  17.778   0.109   1.047
69387W        W41113   1.693  37.567   1.310
69388W        W41114  23.578  16.245   1.788
69389W        W41115  17.298  24.281  12.867
69390W        W41116   8.862   5.244  13.023
69391W        W41117  25.792  44.217   2.430
69392W        W41118  25.135  43.961   0.459
69393W        W41119  18.248   3.201   2.457
69394W        W41120  25.791  24.026  11.747
69395W        W41121   3.119   2.730  13.325
69396W        W41122   8.894   3.902  11.148
69397W        W41123  14.851  42.846  12.426
69398W        W41124   9.307   2.918  13.679
69399W        W41125  26.054   1.397   3.082
69400W        W41126  25.630  36.308   0.467
69401W        W41127  13.047  36.098  13.473
69402W        W41128  13.806  14.284  14.087
69403W        W41129  40.711  10.752  12.790
69404W        W41130  27.146  33.537  12.036
69405W        W41131  21.194  28.491  10.238
69406W        W41132  28.991  29.208  13.696
69407W        W41133  35.085   9.750   1.225
69408W        W41134  22.838  42.005  14.928
69409W        W41135   8.039   8.749   2.086
69410W        W41136  36.247  24.161   2.702
69411W        W41137  35.901   3.234   3.743
69412W        W41138  17.152  41.348   4.127
69413W        W41139  13.214   7.218  12.444
69414W        W41140  29.108   2.221   2.971
69415W        W41141  23.065  20.242   4.887
69416W        W41142   9.070   6.733   3.247
69417W        W41143  22.009   9.194   0.786
69418W        W41144  44.578   9.442   1.241
69419W        W41145  23.655   5.759  10.770
69420W        W41146  35.146  44.865   1.234
69421W        W41147  15.706  23.193   0.066
69422W        W41148  31.075  42.910   4.184
69423W        W41149  34.576  33.955   4.631
69424W        W41150   3.629  14.064   0.031
69425W        W41151   9.323  41.483   1.391
69426W        W41152   9.681  41.482   4.740
69427W        W41153   7.645  13.553   4.181
69428W        W41154  20.023   2.281   4.257
69429W        W41155  33.074  16.716  11.617
69430W        W41156  34.812  44.274  14.554
69431W        W41157  33.448  29.949  12.376
69432W        W41158  29.972  34.597   4.639
69433W        W41159  34.435  35.896   2.812
69434W        W41160  10.701  26.212  12.581
69435W        W41161  21.425  10.430   3.652
69436W        W41162  34.094  14.859   1.891
69437W        W41163   5.795   3.496   2.399
69438W        W41164  33.740  44.355  11.838
69439W        W41165  36.005   8.768   2.954
69440W        W41166  15.715   7.333   4.553
69441W        W41167  31.808  14.469   2.466
69442W        W41168   8.826   9.043  11.183
69443W        W41169  41.297  40.768   0.870
69444W        W41170  26.962   9.929   4.665
69445W        W41171  28.400  28.504   2.344
69446W        W41172  23.105  40.770  11.812
69447W        W41173  25.345  37.433  11.119
69448W        W41174   5.327  29.639   1.346
69449W        W41175  22.036   6.404  11.116
69450W        W41176  15.166  10.879  13.408
69451W        W41177  30.180  37.235  12.844
69452W        W41178   8.398  19.647  11.027
69453W        W41179  34.125  14.039   3.385
69454W        W41180  17.598  19.932   0.825
69455W        W41181  12.075  23.768  13.781
69456W        W41182  26.371  14.861   4.390
69457W        W41183   4.685  26.173   4.653
69458W        W41184  11.733   0.806   3.622
69459W        W41185  15.260  27.435   3.242
69460W        W41186  29.866  16.577   1.232
69461W        W41187  11.559  17.675  11.664
69462W        W41188  29.472  43.715  12.425
69463W        W41189   8.623   0.944  13.523
69464W        W41190  28.326  32.914   5.077
69465W        W41191  16.332  26.980  12.862
69466W        W41192  25.979  23.133   2.156
69467W        W41193  43.327  43.352   0.699
69468W        W41194  40.514   1.717   1.418
69469W        W41195   8.175  29.002   1.170
69470W        W41196   2.497  11.408  14.624
69471W        W41197  41.193  32.616  11.554
69472W        W41198  17.677  37.814   5.294
69473W        W41199  30.891  26.977  14.696
69474W        W41200   6.921  12.971   1.285
69475W        W41201  17.829  37.509   1.889
69476W        W41202  23.684  18.484   2.374
69477W        W41203  15.238  16.249  14.077
69478W        W41204  30.473  17.753  14.503
69479W        W41205  39.305  15.593   2.221
69480W        W41206  11.850  22.121   0.459
69481W        W41207  43.796  21.215   2.665
69482W        W41208  17.056   2.537  11.632
69483W        W41209  14.805   1.240  14.819
69484W        W41210  39.802  27.948  12.177
69485W        W41211  26.594  36.811  11.063
69486W        W41212  30.064  42.294   5.473
69487W        W41213   6.592  41.312   2.912
69488W        W41214  10.836  35.910  11.063
69489W        W41215  11.741  15.521  13.317
69490W        W41216   1.743  41.351  11.556
69491W        W41217  41.042  29.344   1.786
69492W        W41218   9.657  11.704   0.372
69493W        W41219   9.279  41.255   2.939
69494W        W41220   7.604  16.318   4.942
69495W        W41221   5.355  34.844  14.961
69496W        W41222  31.479  25.887  10.679
69497W        W41223  27.356  23.574  13.027
69498W        W41224  23.116  35.299  12.857
69499W        W41225  12.894  30.378   0.399
69500W        W41226   9.673   7.222  13.122
69501W        W41227  41.069  16.735   4.874
69502W        W41228   7.027  24.591  14.347
69503W        W41229  40.459  11.516  11.958
69504W        W41230  38.361   0.003   3.838
69505W        W41231  28.756  30.623   0.476
69506W        W41232  36.368  18.448   2.411
69507W        W41233   4.069  13.079   3.272
69508W        W41234  43.192   5.848  12.026
69509W        W41235  38.468   6.331  14.902
69510W        W41236  14.712   9.149   4.568
69511W        W41237  37.843  41.052   3.729
69512W        W41238  21.026  40.291  12.386
69513W        W41239   6.188  30.689  12.063
69514W        W41240  21.114  35.457   4.629
69515W        W41241  20.700  40.900  10.666
69516W        W41242  22.120  14.759  13.989
69517W        W41243  18.474   8.358  11.094
69518W        W41244  30.463  24.113   4.977
69519W        W41245  30.627  14.879   4.396
69520W        W41246  14.060  16.168   3.310
69521W        W41247  27.865  12.401  12.395
69522W        W41248   4.263  28.141   0.015
69523W        W41249  12.582  30.605  12.516
69524W        W41250  17.039  28.187   5.000
69525W        W41251  13.404  44.913  14.404
69526W        W41252  11.859  28.453  13.398
69527W        W41253   1.193  42.756  10.393
69528W        W41254  40.820  17.245  10.810
69529W        W41255  32.548  15.272   0.306
69530W        W41256  22.809  13.271   1.778
69531W        W41257  32.232  20.504  14.828
69532W        W41258  25.969  21.734  12.427
69533W        W41259   5.859   9.284  12.038
69534W        W41260  41.970  39.285   4.678
69535W        W41261  27.378  24.553  12.977
69536W        W41262  29.669  34.968   2.637
69537W        W41263  20.220  44.961   1.221
69538W        W41264   8.926  16.263   1.421
69539W        W41265  14.016  11.663  13.452
69540W        W41266  19.793  16.844   1.426
69541W        W41267  37.374  20.776   1.656
69542W        W41268  19.561   0.171   4.167
69543W        W41269  44.681  24.566  12.084
69544W        W41270  26.670   2.901  10.740
69545W        W41271  29.478  11.852   3.776
69546W        W41272  21.042  12.145  14.737
69547W        W41273   9.810  41.876  13.188
69548W        W41274  29.673  19.320  11.994
69549W        W41275  34.693  29.602   3.176
69550W        W41276  17.227  27.431   0.749
69551W        W41277   9.245  26.640  11.851
69552W        W41278  35.149   6.465  14.294
69553W        W41279  12.913   7.415   2.872
69554W        W41280  27.395  28.827   2.233
69555W        W41281  25.177  32.058  11.587
69556W        W41282  21.298  13.659  11.227
69557W        W41283  28.627   9.656   2.902
69558W        W41284  34.372   4.443  10.888
69559W        W41285  13.582  40.274   3.263
69560W        W41286   6.619  22.653   0.961
69561W        W41287  29.665  23.715   1.196
69562W        W41288  24.895  36.222   4.564
69563W        W41289  10.338  38.877   0.271
69564W        W41290  22.340  24.652   3.865
69565W        W41291  10.307  36.805   2.620
69566W        W41292   7.889  24.711   4.140
69567W        W41293  30.672  10.614   2.462
69568W        W41294  10.479  43.841  12.217
69569W        W41295   9.170   0.917  12.447
69570W        W41296  35.832  15.729  12.892
69571W        W41297  22.715   6.300  10.309
69572W        W41298  23.692  26.078  13.929
69573W        W41299  36.839   3.874   2.721
69574W        W41300  17.208  31.767  11.113
69575W        W41301  10.503  37.884   0.940
69576W        W41302   4.260  16.829  11.938
69577W        W41303  44.913  21.982   3.064
69578W        W41304   8.748   8.932   4.322
69579W        W41305  11.189  36.866   0.789
69580W        W41306  44.910  21.689  12.987
69581W        W41307  36.421  21.497   4.156
69582W        W41308  38.609  44.006  13.044
69583W        W41309  32.950  39.529  13.018
69584W        W41310  17.767  29.986   2.334
69585W        W41311  16.774  21.153  10.135
69586W        W41312   9.659  38.509  11.647
69587W        W41313  12.151   3.943  13.796
69588W        W41314  43.929  18.059   1.259
69589W        W41315  11.528  19.048  11.567
69590W        W41316   5.802  28.614   3.529
69591W        W41317  12.048   8.119  14.177
69592W        W41318   4.681  26.008  10.748
69593W        W41319  31.524   3.353   4.115
69594W        W41320  33.161  27.682  10.647
69595W        W41321   0.296  25.385   0.477
69596W        W41322  44.041  26.086   2.613
69597W        W41323  35.428   8.637  11.895
69598W        W41324  40.718   6.681   1.163
69599W        W41325  13.561   1.394   0.954
69600W        W41326  19.047   1.249   0.624
69601W        W41327  32.218  36.408   4.650
69602W        W41328  20.743  21.837   4.037
69603W        W41329  18.744  38.411   0.137
69604W        W41330  37.256   2.478   0.507
69605W        W41331   8.716  25.934  13.522
69606W        W41332  38.538   3.050  12.104
69607W        W41333  39.473  31.741   1.245
69608W        W41334  38.809  43.381  11.636
69609W        W41335  30.410  17.806   0.517
69610W        W41336   8.742  21.835   0.582
69611W        W41337   8.189   6.398   1.780
69612W        W41338  21.153  12.507   5.453
69613W        W41339  33.312  24.104  14.352
69614W        W41340  24.365  28.377   1.261
69615W        W41341  17.816   6.002  14.428
69616W        W41342  13.545  42.004  10.849
69617W        W41343  14.129  32.876   2.644
69618W        W41344  31.936  30.282   1.739
69619W        W41345   9.781  17.877  12.413
69620W        W41346   1.948  29.378  11.111
69621W        W41347  39.432  20.105  14.802
69622W        W41348  39.948  28.453  12.097
69623W        W41349   0.523  40.865   1.346
69624W        W41350  31.622  36.040  13.570
69625W        W41351  23.246   5.982   0.425
69626W        W41352  43.976  30.000  12.586
69627W        W41353  37.917   2.288  11.965
69628W        W41354  18.714  13.107  13.867
69629W        W41355  10.448  44.891  14.124
69630W        W41356  41.638  23.086   3.351
69631W        W41357  38.829  21.827  13.857
69632W        W41358  34.500  14.295   2.505
69633W        W41359   2.299  23.637   0.426
69634W        W41360  16.604  21.253   1.064
69635W        W41361   9.214  43.834  11.533
69636W        W41362  15.494   6.353  11.029
69637W        W41363  19.820  24.262   0.444
69638W        W41364  27.643   7.898  13.807
69639W        W41365  40.847  11.766  14.000
69640W        W41366  17.112  13.722   1.449
69641W        W41367  43.850  10.247  13.469
69642W        W41368  26.829   5.513   2.752
69643W        W41369   4.272  22.663   1.025
69644W        W41370   1.326  35.415  11.116
69645W        W41371  42.775  32.338   4.905
69646W        W41372  27.995  20.230  14.797
69647W        W41373   5.569  38.063   2.920
69648W        W41374  10.693  21.987  13.338
69649W        W41375  14.929   9.906   4.178
69650W        W41376   7.638  26.114   2.471
69651W        W41377  24.289  37.635   3.159
69652W        W41378   9.299  28.494  13.471
69653W        W41379  11.385  43.478   4.608
69654W        W41380  31.017  43.803   1.852
69655W        W41381  15.703  19.097   1.246
69656W        W41382   3.834  34.774  10.736
69657W        W41383  28.961  14.439   2.758
69658W        W41384  31.315   8.735  12.933
69659W        W41385  33.304  20.190   4.793
69660W        W41386   0.842  33.672  10.615
69661W        W41387  20.233   4.224   1.806
69662W        W41388  41.505  41.671   0.340
69663W        W41389   5.743  25.144   4.613
69664W        W41390   5.489   8.715   1.379
69665W        W41391  32.085   8.814   2.162
69666W        W41392  19.409  25.970   1.840
69667W        W41393  23.322  18.479   3.541
69668W        W41394  20.096   7.208   4.137
69669W        W41395   4.500  31.484  14.935
69670W        W41396   0.740  35.399  14.293
69671W        W41397   0.882   1.360  12.124
69672W        W41398  31.100   0.055   2.083
69673W        W41399  39.888  31.374  12.965
69674W        W41400  10.928  17.714   3.709
69675W        W41401  39.531   5.367   1.511
69676W        W41402  19.254  41.355  10.719
69677W        W41403  37.189  19.538   3.804
69678W        W41404  12.240  39.482  10.875
69679W        W41405  30.043  18.809  12.572
69680W        W41406  11.666  44.383  12.613
69681W        W41407   8.294   3.319   0.377
69682W        W41408  44.125   0.374  12.887
69683W        W41409  19.283  37.929   4.595
69684W        W41410  14.027  29.131   2.227
69685W        W41411  22.480  35.722   4.449
69686W        W41412  23.296  28.455   0.932
69687W        W41413  32.817  30.131   4.102
69688W        W41414  12.232  33.404  11.415
69689W        W41415  11.288   2.859   2.379
69690W        W41416  29.814  43.337  10.767
69691W        W41417  11.101  12.435   2.855
69692W        W41418  42.471   6.286  10.971
69693W        W41419  25.338  32.137  12.062
69694W        W41420  42.291  36.148  12.561
69695W        W41421  19.718  21.748   0.426
69696W        W41422  10.637  36.061  13.382
69697W        W41423   5.903   9.406  12.916
69698W        W41424  20.222  29.623   1.200
69699W        W41425  16.296  37.216   3.874
69700W        W41426  10.246  20.965  14.855
69701W        W41427  11.117  41.354   1.814
69702W        W41428   6.809   3.256  11.533
69703W        W41429   5.294  32.916  12.001
69704W        W41430  31.087  15.144   0.952
69705W        W41431  38.698  19.640  11.498
69706W        W41432  28.110   8.259   2.037
69707W        W41433  39.845   7.856   0.725
69708W        W41434  22.448  43.434   0.375
69709W        W41435  30.362  38.056  11.204
69710W        W41436  29.197   7.027  10.755
69711W        W41437   4.667  20.580   0.921
69712W        W41438  23.522  37.696   3.750
69713W        W41439  10.936   7.311   4.505
69714W        W41440  35.823   5.171   3.179
69715W        W41441  27.409  10.697  11.059
69716W        W41442   1.531   3.801  12.992
69717W        W41443   3.925  44.674   1.191
69718W        W41444  27.029  44.787   1.872
69719W        W41445   1.852  30.166  12.840
69720W        W41446  23.679  14.321  11.464
69721W        W41447  40.029  31.445   2.938
69722W        W41448   6.979  33.986   2.849
69723W        W41449  16.156  10.548   4.680
69724W        W41450  22.363   4.802   0.242
69725W        W41451  20.519  16.759  13.314
69726W        W41452  26.121   6.454   3.014
69727W        W41453   4.300   2.433  10.591
69728W        W41454  32.873  28.897  14.949
69729W        W41455  12.820  27.943   0.980
69730W        W41456  30.636  11.227  12.599
69731W        W41457  27.539  22.480  13.995
69732W        W41458   6.720  20.782  14.921
69733W        W41459  26.634  43.543   0.924
69734W        W41460  41.900   4.734  14.443
69735W        W41461  32.360  44.687   2.334
69736W        W41462  42.669  11.624   4.995
69737W        W41463  20.600  15.168  13.312
69738W        W41464  21.016  31.517   3.271
69739W        W41465  25.489  30.607  13.052
69740W        W41466   6.601  36.500  12.889
69741W        W41467  40.561  35.923  12.300
69742W        W41468   8.877  15.386  14.506
69743W        W41469  25.424  39.150  10.275
69744W        W41470   8.765  15.625   4.656
69745W        W41471  44.049   6.461   3.676
69746W        W41472  32.524  20.744   2.828
69747W        W41473   2.395   6.832   3.279
69748W        W41474  33.323  18.318  12.503
69749W        W41475   7.862   0.059  12.842
69750W        W41476  18.690   2.984  13.050
69751W        W41477   9.190  25.373   3.863
69752W        W41478  23.656  42.588  13.396
69753W        W41479  26.560  10.799   2.725
69754W        W41480  16.717  43.381   1.083
69755W        W41481  31.066  42.354  14.883
69756W        W41482  17.581  41.426  11.145
69757W        W41483  17.627  18.111  14.830
69758W        W41484  25.760  36.842   4.629
69759W        W41485  31.795  30.670  14.826
69760W        W41486  38.224  13.297   0.024
69761W        W41487  43.448  42.310  13.730
69762W        W41488   4.823  43.919  14.564
69763W        W41489   7.200  35.934  14.885
69764W        W41490  27.956  19.241   4.201
69765W        W41491   1.504  13.470   0.342
69766W        W41492   3.873  31.925  13.820
69767W        W41493  28.349   1.158   4.171
69768W        W41494  26.219  39.429   4.879
69769W        W41495  30.163   4.663  12.933
69770W        W41496  28.419  41.593   3.333
69771W        W41497  11.677  11.801   3.388
69772W        W41498  11.593  19.991   4.416
69773W        W41499  22.118  32.096   0.429
69774W        W41500  19.906  22.830   0.778
69775W        W41501  16.395  19.793   0.711
69776W        W41502  25.471  40.099  11.200
69777W        W41503  23.412  41.394   0.899
69778W        W41504  12.648  12.888   0.401
69779W        W41505  30.098  11.216  14.403
69780W        W41506  33.915  39.418  11.915
69781W        W41507   7.042   4.735  12.131
69782W        W41508  22.277  18.728  12.020
69783W        W41509  15.159  18.112  14.917
69784W        W41510  11.291  42.781   1.193
69785W        W41511  29.008  36.485   1.845
69786W        W41512  16.849  39.270   4.374
69787W        W41513  21.023  41.869  14.363
69788W        W41514  31.610  44.083   4.967
69789W        W41515  37.019  35.826   0.935
69790W        W41516  35.304  13.191  13.911
69791W        W41517  13.256  29.146   1.752
69792W        W41518  19.019  29.354   3.820
69793W        W41519  14.684   6.476   2.226
69794W        W41520   3.354  31.460  10.750
69795W        W41521  23.165  26.652   1.409
69796W        W41522  30.561   4.181  11.102
69797W        W41523  36.270  30.443   0.779
69798W        W41524  32.408   1.766   1.208
69799W        W41525  33.458  40.465  13.791
69800W        W41526  31.976   5.333   0.487
69801W        W41527  14.424  29.071  11.067
69802W        W41528  34.590  11.733   0.712
69803W        W41529  34.657  34.107   2.752
69804W        W41530  20.240  37.341  11.940
69805W        W41531  35.813   3.649   0.013
69806W        W41532  23.750  15.384   0.304
69807W        W41533  30.840  43.104   0.295
69808W        W41534  22.287  15.121   4.521
69809W        W41535  16.741   0.421  13.022
69810W        W41536   7.115  15.228  11.507
69811W        W41537  35.947  19.423   3.305
69812W        W41538   4.379  33.346   1.900
69813W        W41539  22.164  43.846   4.089
69814W        W41540   2.771  28.874  10.516
69815W        W41541  32.689  18.547  11.667
69816W        W41542  38.294  12.628   2.381
69817W        W41543   0.486  36.981   4.616
69818W        W41544   8.898  23.800  12.910
69819W        W41545  17.495  37.120   2.621
69820W        W41546  42.036  12.075   3.167
69821W        W41547  37.907  41.854   0.017
69822W        W41548   6.968   0.088   4.223
69823W        W41549   1.711  14.270  12.999
69824W        W41550  39.104   8.266  14.910
69825W        W41551   3.553  39.937   2.678
69826W        W41552  14.139  14.093  11.272
69827W        W41553   5.357  41.590  13.549
69828W        W41554  10.338  38.250  13.910
69829W        W41555  10.845  10.727   0.525
69830W        W41556   9.570   6.672   3.240
69831W        W41557  12.877  27.554  10.828
69832W        W41558  24.825  17.996   2.390
69833W        W41559  31.902  37.511   2.435
69834W        W41560  23.345   5.648   3.798
69835W        W41561  40.032  10.878  13.872
69836W        W41562   0.695  17.128   0.809
69837W        W41563  42.297  37.185  13.110
69838W        W41564  31.477  11.918   3.290
69839W        W41565  33.931  39.133  10.960
69840W        W41566  29.466   4.181   1.170
69841W        W41567  39.319   1.878   0.945
69842W        W41568  31.130  44.748  11.086
69843W        W41569  10.333  33.919   2.332
69844W        W41570  35.712  42.297   2.432
69845W        W41571  25.562  17.079   1.145
69846W        W41572  40.402  38.302   0.743
69847W        W41573  13.822  15.479   3.738
69848W        W41574  37.389  23.468  14.819
69849W        W41575  14.647  10.834  12.517
69850W        W41576  43.051   9.191  13.541
69851W        W41577  23.062  22.597  13.782
69852W        W41578  34.142   2.148   4.152
69853W        W41579  23.772  20.732  10.725
69854W        W41580  28.075   3.741   4.571
69855W        W41581  31.859  41.497  12.327
69856W        W41582  34.604  34.898   3.753
69857W        W41583   3.697   9.381   1.395
69858W        W41584  39.976  30.628   0.465
69859W        W41585  10.101  35.977  13.483
69860W        W41586  26.124  10.706   1.070
69861W        W41587  16.834   7.544   4.611
69862W        W41588   5.450  38.376  14.809
69863W        W41589   0.893  25.067   0.032
69864W        W41590   8.597   5.869  11.922
69865W        W41591  44.416  31.003  11.236
69866W        W41592  24.319  43.932   1.156
69867W        W41593  40.937  44.416   3.952
69868W        W41594  36.545  40.742  12.478
69869W        W41595   6.783  31.054  10.900
69870W        W41596  15.345  17.319   0.597
69871W        W41597  12.194  14.762  14.226
69872W        W41598  40.382  28.401  14.330
69873W        W41599  44.901  21.212   4.090
69874W        W41600  27.618  39.264  14.596
69875W        W41601  43.549   3.253   0.921
69876W        W41602  39.554   0.859   3.145
69877W        W41603  37.886  33.847   4.189
69878W        W41604   7.797  42.763   5.011
69879W        W41605  27.743  41.425  12.920
69880W        W41606  11.692   1.031  11.053
69881W        W41607  14.302  22.492   0.431
69882W        W41608   2.339  32.889   0.408
69883W        W41609  32.550  11.334  10.516
69884W        W41610   7.985  11.308   2.722
69885W        W41611  34.347  13.093  12.518
69886W        W41612  14.864  32.524   3.287
69887W        W41613  42.848   8.187  11.914
69888W        W41614  28.894  25.234  10.785
69889W        W41615  16.801   2.408   0.333
69890W        W41616  10.331  33.075   2.675
69891W        W41617  41.670  22.757  11.043
69892W        W41618  18.145  28.762  10.751
69893W        W41619  43.274  15.365   3.575
69894W        W41620  16.221   0.750   2.770
69895W        W41621  11.919  33.628   4.057
69896W        W41622   5.202  37.253  14.347
69897W        W41623  29.963  29.464  14.290
69898W        W41624  35.370  38.048   1.392
69899W        W41625  22.207   6.406  14.968
69900W        W41626  20.674  11.372   4.173
69901W        W41627  32.629  18.127  11.952
69902W        W41628  10.892   9.824  12.328
69903W        W41629  33.577  15.579  14.548
69904W        W41630   7.746  44.421  14.880
69905W        W41631  17.646  39.658  12.395
69906W        W41632  32.386  19.689   1.602
69907W        W41633  20.903  41.154  12.033
69908W        W41634   0.679   6.438   3.122
69909W        W41635  35.575  16.775  14.367
69910W        W41636  17.693  34.485  12.921
69911W        W41637  32.103  31.186  11.184
69912W        W41638  29.506  17.415   3.268
69913W        W41639  23.991   5.933  14.883
69914W        W41640  27.140  15.370   4.939
69915W        W41641  12.563  29.151   1.461
69916W        W41642  27.273   4.809  14.947
69917W        W41643  31.795  19.060  14.883
69918W        W41644   3.479  33.315   4.288
69919W        W41645   0.676  11.311  14.427
69920W        W41646  35.204  41.828  13.009
69921W        W41647   6.952  24.264  12.126
69922W        W41648  23.945  38.633   3.189
69923W        W41649  33.092  40.940   3.753
69924W        W41650   6.421  40.371   0.810
69925W        W41651   8.704  24.701  12.737
69926W        W41652   0.089  22.606   4.558
69927W        W41653  27.607  17.262   1.481
69928W        W41654  17.615  33.548  14.331
69929W        W41655  21.138   4.297   1.506
69930W        W41656  31.691  22.597  11.040
69931W        W41657  17.041   3.019  14.028
69932W        W41658  29.761  16.001  12.080
69933W        W41659  43.100  13.844  11.008
69934W        W41660  28.179  23.709   2.391
69935W        W41661   1.526  25.022   2.714
69936W        W41662  14.101  10.152  10.694
69937W        W41663  20.991  17.750   3.422
69938W        W41664  25.507   2.311   0.244
69939W        W41665  30.563  23.294   0.456
69940W        W41666  33.838  22.185  11.117
69941W        W41667  28.359  38.485   4.073
69942W        W41668  39.985  36.089  13.844
69943W        W41669  13.735   5.227  10.877
69944W        W41670  11.384  23.650   2.724
69945W        W41671   3.241  41.424  11.404
69946W        W41672  27.103  16.553   3.335
69947W        W41673  13.774   6.453  13.794
69948W        W41674   5.579  34.451  11.135
69949W        W41675   3.777  24.673   4.824
69950W        W41676  31.206   0.462  13.082
69951W        W41677  18.779   1.367  13.897
69952W        W41678  21.889  23.981   2.328
69953W        W41679  31.199  37.645  14.802
69954W        W41680  27.017  17.931   0.862
69955W        W41681   5.332  12.691   0.856
69956W        W41682  31.355  14.359   4.614
69957W        W41683   8.146  44.028   2.233
69958W        W41684   5.345  22.491  13.741
69959W        W41685   3.661  41.825  10.658
69960W        W41686  42.244  31.875   2.356
69961W        W41687  39.498  13.239  13.654
69962W        W41688  25.762   2.522  14.199
69963W        W41689  28.456  38.946   2.138
69964W        W41690  19.213  18.315  12.155
69965W        W41691  21.090  22.478   0.084
69966W        W41692   6.305   3.841   1.305
69967W        W41693  18.746  13.190   1.791
69968W        W41694  30.971  16.675  12.974
69969W        W41695  16.032   3.004   4.003
69970W        W41696  19.776  13.097   5.112
69971W        W41697  14.214  43.962  13.374
69972W        W41698  13.671   7.246  14.366
69973W        W41699  11.260  14.604  11.951
69974W        W41700   2.390  26.578   2.867
69975W        W41701  36.654  22.639   1.257
69976W        W41702  17.848  39.597  10.248
69977W        W41703   4.770  22.968  10.698
69978W        W41704  40.393   0.456   0.058
69979W        W41705  33.149   7.663  14.806
69980W        W41706   0.949  28.608  13.774
69981W        W41707  24.736  16.341  12.610
69982W        W41708  34.364  33.447  11.029
69983W        W41709   1.873  16.180   3.197
69984W        W41710  25.117  38.302  13.936
69985W        W41711  22.033  39.967   4.986
69986W        W41712  17.084   4.158  14.918
69987W        W41713   6.726  35.523  11.582
69988W        W41714   8.279  39.768   4.474
69989W        W41715  42.992   8.868   1.009
69990W        W41716   1.557   0.930   3.678
69991W        W41717  16.002  10.581   1.895
69992W        W41718  34.350  33.534  12.198
69993W        W41719  33.612  21.188  11.571
69994W        W41720  40.066  15.407  11.603
69995W        W41721  24.003  19.595  13.517
69996W        W41722  19.735  37.995  10.384
69997W        W41723  35.449  40.380  12.915
69998W        W41724  18.825  15.349  10.631
69999W        W41725  43.531  21.509  12.880
70000W        W41726  38.407  17.404  12.362
70001W        W41727  16.813   9.658   1.863
70002W        W41728   9.392  37.938   1.773
70003W        W41729   8.362  28.213   3.610
70004W        W41730  18.192  10.601   3.197
70005W        W41731  19.798  13.136   1.708
70006W        W41732   0.568  38.516   0.886
70007W        W41733  43.328   1.984  14.520
70008W        W41734  15.310  39.829  11.445
70009W        W41735  25.075  20.165  12.961
70010W        W41736  26.971   9.924  14.029
70011W        W41737  24.713  26.390  14.502
70012W        W41738  39.006  27.011   0.389
70013W        W41739   2.206   0.469   3.271
70014W        W41740   9.671  29.509   1.516
70015W        W41741  13.156  12.886   0.507
70016W        W41742   9.829   7.920   3.004
70017W        W41743  26.009  15.762  14.472
70018W        W41744  40.219   7.843  13.141
70019W        W41745  21.236  17.178   0.407
70020W        W41746  22.655  19.235   0.064
70021W        W41747  15.102  11.169  14.008
70022W        W41748  13.357  43.881   2.729
70023W        W41749  33.103  20.734  13.552
70024W        W41750   3.130  31.193   3.768
70025W        W41751  31.092  39.277   4.248
70026W        W41752  14.339  24.919  13.290
70027W        W41753   8.215  36.883  14.971
70028W        W41754  10.083  37.519   4.600
70029W        W41755   9.368  20.152  13.358
70030W        W41756  30.141   4.278  11.351
70031W        W41757  12.317  23.117   2.582
70032W        W41758  14.412  27.125   4.707
70033W        W41759  30.608  36.952  13.086
70034W        W41760  20.172  40.106   0.770
70035W        W41761  16.290   2.458  12.879
70036W        W41762  39.455  24.668   2.457
70037W        W41763  24.588  41.214  13.075
70038W        W41764   0.427   1.390   0.967
70039W        W41765  34.873  20.162  11.487
70040W        W41766  16.332  14.401   4.221
70041W        W41767   9.084  43.351  11.602
70042W        W41768  39.808   7.640  13.403
70043W        W41769   2.702  43.671   0.841
70044W        W41770  44.507  15.245   3.741
70045W        W41771  10.036  15.983   3.234
70046W        W41772  23.723  32.427  12.541
70047W        W41773  28.046  10.198   0.942
70048W        W41774  44.835   6.138  14.270
70049W        W41775  15.311  31.827  12.481
70050W        W41776  21.244  24.141  13.882
70051W        W41777  10.640  32.878   0.644
70052W        W41778  16.422   1.766   0.185
70053W        W41779  38.745  40.132   2.657
70054W        W41780  22.790  40.320  11.269
70055W        W41781   0.997  29.619  11.840
70056W        W41782   6.573  19.028  13.251
70057W        W41783  41.338  32.107   3.893
70058W        W41784  12.074   4.709  14.467
70059W        W41785  44.040  25.464  11.570
70060W        W41786  43.219   2.140   3.184
70061W        W41787  43.475  21.155  10.307
70062W        W41788  42.792   0.923  13.885
70063W        W41789  21.005  44.860  12.845
70064W        W41790  37.110  13.755   2.819
70065W        W41791   9.833  17.173  11.099
70066W        W41792  41.582   1.976  13.421
70067W        W41793  26.160   0.786   1.859
70068W        W41794  36.296  21.781  11.596
70069W        W41795  18.189  14.415   4.662
70070W        W41796  22.496   6.287   1.541
70071W        W41797   6.789  24.426   0.744
70072W        W41798  36.569  40.298   2.277
70073W        W41799  14.265  31.577   3.903
70074W        W41800   8.737   7.682  12.101
70075W        W41801  36.752  28.318  12.601
70076W        W41802  13.799  22.866  13.422
70077W        W41803  21.814  41.813   1.743
70078W        W41804   6.466  24.657   0.255
70079W        W41805  31.624   5.109   2.435
70080W        W41806   5.183  44.268   0.049
70081W        W41807  24.495  22.074  14.356
70082W        W41808  17.357   0.389  11.842
70083W        W41809  24.481  44.433  11.055
70084W        W41810  14.091   5.174  13.875
70085W        W41811  36.988  17.337  13.357
70086W        W41812  35.062  38.945   4.393
70087W        W41813  35.164  11.332  13.451
70088W        W41814  18.796  31.661   3.476
70089W        W41815  24.713  37.418  14.833
70090W        W41816   9.497   1.869   1.984
70091W        W41817  20.104  28.961   1.105
70092W        W41818  18.610  20.597   3.628
70093W        W41819  24.495   2.187   2.154
70094W        W41820   0.276   1.336  13.966
70095W        W41821  29.065  18.753   2.634
70096W        W41822  10.432  26.574  11.085
70097W        W41823  28.045  24.360  13.039
70098W        W41824  27.109  17.319  11.930
70099W        W41825  17.729  21.006  10.405
70100W        W41826  29.385  17.790   0.976
70101W        W41827  25.307  24.148  11.634
70102W        W41828  19.154   2.178   1.435
70103W        W41829  26.490  41.529  14.298
70104W        W41830  12.517   0.795  11.343
70105W        W41831  32.371  15.321   1.722
70106W        W41832  14.495  29.679   4.477
70107W        W41833  35.949  29.600  14.443
70108W        W41834  33.426  12.201  12.301
70109W        W41835   3.847  34.532   3.984
70110W        W41836  30.825  44.851   5.278
70111W        W41837  26.027  12.715   4.732
70112W        W41838  32.527   9.785   4.057
70113W        W41839   4.821  42.087   0.860
70114W        W41840  13.510  41.976   2.777
70115W        W41841   8.396  33.630   3.211
70116W        W41842  11.833  22.088   3.644
70117W        W41843  41.707   7.460  10.762
70118W        W41844   5.019   5.738  10.007
70119W        W41845  38.860  33.779   5.121
70120W        W41846  35.293   7.445   4.546
70121W        W41847  22.534   4.015  12.184
70122W        W41848  41.991   6.659  11.578
70123W        W41849  38.763  43.814   3.402
70124W        W41850   4.041  31.441   1.238
70125W        W41851  18.534  30.037   1.443
70126W        W41852  29.865  13.301  12.605
70127W        W41853  43.999   4.821  13.248
70128W        W41854  13.138  41.975  11.208
70129W        W41855   7.479   4.750  11.902
70130W        W41856  21.736   7.273   4.191
70131W        W41857  10.899  33.537  12.844
70132W        W41858  23.965  28.985  10.831
70133W        W41859   1.374   7.128   0.824
70134W        W41860   6.477   2.404   3.800
70135W        W41861  29.117   9.796  13.372
70136W        W41862  27.914   5.252  14.471
70137W        W41863  14.277  19.620   3.693
70138W        W41864  34.840  44.278   4.945
70139W        W41865  41.321  41.716  11.601
70140W        W41866  27.099  14.518   2.734
70141W        W41867  14.336  39.913   4.586
70142W        W41868   3.506  21.065   5.121
70143W        W41869   0.526  34.119  11.850
70144W        W41870  35.578  31.880  12.560
70145W        W41871  16.519  15.303   2.749
70146W        W41872   8.944  13.167  13.054
70147W        W41873   1.825  41.469   1.639
70148W        W41874  31.237  43.554  11.574
70149W        W41875  13.286  16.501   4.108
70150W        W41876  13.699  32.936  13.221
70151W        W41877  14.695  27.434  13.455
70152W        W41878  13.450  28.180  14.851
70153W        W41879  29.593  19.633  14.121
70154W        W41880  12.237  31.031  13.457
70155W        W41881  14.138  44.513  13.416
70156W        W41882  23.412  41.371   4.590
70157W        W41883  23.528  29.863  13.630
70158W        W41884  24.217  32.181   3.715
70159W        W41885  29.662  34.492  12.428
70160W        W41886  29.311  38.783  13.868
70161W        W41887  35.827  25.537   1.801
70162W        W41888  19.624  27.426   3.170
70163W        W41889   8.662  33.398  14.884
70164W        W41890  23.074  42.795   0.647
70165W        W41891  18.765  25.564   0.933
70166W        W41892  33.310  33.512   3.903
70167W        W41893  35.711  29.406   3.143
70168W        W41894  21.552  12.227   4.575
70169W        W41895  16.853  44.453  11.162
70170W        W41896  33.397  39.824   1.800
70171W        W41897  24.470   4.196   1.225
70172W        W41898  19.985  35.406  13.205
70173W        W41899  35.025  26.922   4.192
70174W        W41900  13.465  32.155   0.745
70175W        W41901  33.348  32.484   3.234
70176W        W41902  14.133  40.928  12.480
70177W        W41903   0.347  37.831   2.616
70178W        W41904   9.258   0.708   0.847
70179W        W41905  16.748   2.410   2.317
70180W        W41906  30.659  31.977  10.711
70181W        W41907  22.902  43.939  13.745
70182W        W41908  10.642  17.251  10.741
70183W        W41909  15.174  39.509   4.906
70184W        W41910   4.293  30.351  12.370
70185W        W41911  43.059  18.118  12.331
70186W        W41912  43.343  29.847  10.679
70187W        W41913  44.545  35.571  11.577
70188W        W41914   1.617   5.207   2.385
70189W        W41915  34.420  14.047  12.794
70190W        W41916  43.901   5.270   0.558
70191W        W41917  26.064  24.167  12.480
70192W        W41918  10.051   6.814  14.854
70193W        W41919  27.880  10.281  14.968
70194W        W41920  12.689  32.063   2.815
70195W        W41921  26.534  10.208   1.507
70196W        W41922  11.566  25.241   4.141
70197W        W41923  31.421  18.872  13.568
70198W        W41924  37.994   9.636  14.832
70199W        W41925  40.114  13.771   0.660
70200W        W41926  13.265  10.592   0.179
70201W        W41927  12.103  17.347   0.469
70202W        W41928  42.900  27.134   0.913
70203W        W41929  33.311  25.059   2.338
70204W        W41930  19.833   1.060  11.046
70205W        W41931   3.472  40.580   0.813
70206W        W41932  37.257   9.244   4.470
70207W        W41933  37.267  29.983  13.632
70208W        W41934  11.801  31.213   4.812
70209W        W41935  10.887   7.451   3.144
70210W        W41936  16.056   8.880  13.147
70211W        W41937  34.014  38.559   3.199
70212W        W41938   1.057  23.201  14.908
70213W        W41939  24.081   9.262  13.771
70214W        W41940  31.221  34.288  10.105
70215W        W41941  26.067  36.383   1.774
70216W        W41942   4.910  27.007  14.810
70217W        W41943   7.823  43.261  13.408
70218W        W41944   3.052   2.216  11.844
70219W        W41945  13.748  44.749   1.726
70220W        W41946  37.869   4.065  11.088
70221W        W41947  37.474  36.512  13.810
70222W        W41948  14.290  12.245  10.898
70223W        W41949  40.945  42.833  13.005
70224W        W41950  15.364  44.805   3.715
70225W        W41951  19.020  32.443   3.150
70226W        W41952  16.523  16.122  14.406
70227W        W41953  37.559   3.025   1.773
70228W        W41954  25.188  13.089  11.611
70229W        W41955  44.949  15.868  14.852
70230W        W41956  33.746  37.273  13.973
70231W        W41957  24.538  19.788  12.529
70232W        W41958  26.922  35.135   5.045
70233W        W41959  43.081  24.692   4.882
70234W        W41960   5.467  39.517  14.015
70235W        W41961  37.846   0.059   3.798
70236W        W41962  19.459  42.877   4.571
70237W        W41963  20.600  34.015   4.120
70238W        W41964  19.928  27.523  14.366
70239W        W41965  32.703  21.738   3.372
70240W        W41966  14.407  21.702  14.438
70241W        W41967  36.216  26.457   1.741
70242W        W41968   5.469  37.394  14.761
70243W        W41969  40.319  30.436  10.784
70244W        W41970   1.700  44.935  11.829
70245W        W41971   2.904  30.137   1.802
70246W        W41972   7.327  30.924   2.717
70247W        W41973  15.311  20.840   3.116
70248W        W41974  27.511  18.461   0.123
70249W        W41975  18.305  27.327   4.279
70250W        W41976  44.548   8.994  13.556
70251W        W41977   3.862  29.621  12.886
70252W        W41978  34.120  44.174   3.721
70253W        W41979  21.548  34.426   3.846
70254W        W41980  20.322  25.650   2.924
70255W        W41981  10.168   4.719   3.125
70256W        W41982  38.408  12.416   0.901
70257W        W41983  38.351  38.470  11.716
70258W        W41984  16.671  27.666  10.333
70259W        W41985  38.634   6.862  12.889
70260W        W41986  35.576  24.970  14.285
70261W        W41987  26.649  24.175   1.640
70262W        W41988  16.824   4.900   3.300
70263W        W41989  16.469   3.372   2.334
70264W        W41990   9.195   7.612  14.674
70265W        W41991  34.309  10.264   0.433
70266W        W41992  37.311   8.686  12.971
70267W        W41993  34.619  24.065   2.243
70268W        W41994  40.579  34.088   2.743
70269W        W41995  17.869   6.851   1.702
70270W        W41996  33.911  36.409   4.174
70271W        W41997  17.054  18.123  11.407
70272W        W41998  35.087   5.948  10.247
70273W        W41999  23.609  26.939  14.444
70274W        W42000  11.178   8.628   3.844
70275W        W42001  13.618  15.260   3.291
70276W        W42002  20.149  39.854   3.390
70277W        W42003  36.124  27.138  13.744
70278W        W42004  14.646  35.581  13.980
70279W        W42005  23.151   6.165  10.624
70280W        W42006  25.008  14.306  14.419
70281W        W42007  26.707  44.476  10.887
70282W        W42008  44.903  28.763   0.329
70283W        W42009  36.048   8.354  10.621
70284W        W42010  23.145   8.671  13.046
70285W        W42011  32.646  41.281   4.987
70286W        W42012   1.999  44.214   3.667
70287W        W42013  40.029   5.944  12.762
70288W        W42014   9.147  27.766  11.256
70289W        W42015   4.302  42.001  12.787
70290W        W42016  43.218  26.123   0.169
70291W        W42017  36.103  19.572  11.622
70292W        W42018  30.160  35.336   1.398
70293W        W42019   2.838  15.170  11.736
70294W        W42020   3.874  21.637  12.297
70295W        W42021  42.745   4.808  14.726
70296W        W42022  27.051  26.826   1.493
70297W        W42023  31.233  30.199   3.704
70298W        W42024  36.897   8.621  12.572
70299W        W42025  26.279  17.386   5.049
70300W        W42026  30.223   3.799   4.617
70301W        W42027  25.180  33.071   4.906
70302W        W42028  43.040   9.304  12.620
70303W        W42029   6.352  35.682  13.385
70304W        W42030  17.321  31.668   2.042
70305W        W42031  20.974   9.136   3.588
70306W        W42032  28.494   5.604  13.489
70307W        W42033   0.504  13.281   0.358
70308W        W42034  24.458  44.933   2.965
70309W        W42035  14.238   9.365  14.553
70310W        W42036  40.585  13.015   2.667
70311W        W42037  14.219   5.672   0.421
70312W        W42038  41.262  42.982   2.452
70313W        W42039  28.783  20.997  11.961
70314W        W42040  16.836  25.674  12.181
70315W        W42041   7.626  28.025  12.400
70316W        W42042  37.553  39.425  14.059
70317W        W42043  17.785  40.053  13.369
70318W        W42044  20.150   6.736   4.411
70319W        W42045  27.393  27.841  10.386
70320W        W42046   8.213   3.256  12.634
70321W        W42047  31.468  18.773   4.352
70322W        W42048  11.367  21.085  12.956
70323W        W42049  39.804  34.133   0.354
70324W        W42050  18.542  30.649   4.149
70325W        W42051  42.556   3.290  14.984
70326W        W42052  11.210  14.713  10.571
70327W        W42053  13.003  28.745   0.803
70328W        W42054  43.886  37.313  13.542
70329W        W42055  33.945  22.871   2.425
70330W        W42056  35.436  15.827   1.449
70331W        W42057  31.337  22.197   4.147
70332W        W42058  13.862  42.860   4.634
70333W        W42059  33.000  21.194  13.864
70334W        W42060  41.500  16.124   2.710
70335W        W42061  36.163   7.994  12.518
70336W        W42062   0.711  22.265   3.625
70337W        W42063  39.930   1.950   3.853
70338W        W42064  38.332  41.831  14.713
70339W        W42065   9.512  29.591  14.815
70340W        W42066  37.557  40.271   3.384
70341W        W42067  39.782  21.756  12.621
70342W        W42068  22.542  16.827   1.374
70343W        W42069  33.449  30.655  12.324
70344W        W42070   4.855   2.884  12.897
70345W        W42071  44.992  15.238   4.612
70346W        W42072  28.699  12.549   2.707
70347W        W42073  40.333  40.716   1.244
70348W        W42074  44.863  28.526   3.676
70349W        W42075  37.816  10.375  11.206
70350W        W42076  25.420  21.015   3.185
70351W        W42077  12.563  18.562   4.949
70352W        W42078   9.925  11.218  14.382
70353W        W42079  11.721   4.022   0.398
70354W        W42080  18.528  28.516  12.341
70355W        W42081   9.025   9.704  12.435
70356W        W42082  16.487  39.132   1.153
70357W        W42083  35.905  34.567   2.855
70358W        W42084  27.887   1.929  11.226
70359W        W42085  27.981  32.986   2.897
70360W        W42086  42.459   3.479   3.752
70361W        W42087  18.558  28.542  10.526
70362W        W42088   3.054  23.582  11.858
70363W        W42089  14.790  21.000  13.082
70364W        W42090  40.506  25.255   0.830
70365W        W42091   8.770  23.326  13.179
70366W        W42092  43.348  42.364   0.329
70367W        W42093  11.418  37.036   1.236
70368W        W42094  40.032   3.213   3.373
70369W        W42095  33.463  11.674  12.120
70370W        W42096  31.511  37.184  12.596
70371W        W42097   8.678   9.555  12.830
70372W        W42098  21.145  24.474  13.256
70373W        W42099   6.600  33.403  13.493
70374W        W42100   2.811  29.674  13.929
70375W        W42101  22.117  13.719  12.427
70376W        W42102  20.636  15.654  13.529
70377W        W42103  27.647   3.447   3.803
70378W        W42104   6.655  33.054   1.639
70379W        W42105   8.050  35.538  13.089
70380W        W42106   0.274  26.002   4.167
70381W        W42107  42.323  15.329  11.157
70382W        W42108  19.680  35.611  12.829
70383W        W42109  22.716  12.047   0.598
70384W        W42110   9.695  29.455   2.481
70385W        W42111   7.389  43.885   1.473
70386W        W42112  41.557  43.889   3.414
70387W        W42113   4.638   5.032   3.715
70388W        W42114  34.319  30.681   1.002
70389W        W42115  43.347  26.438  12.706
70390W        W42116   4.976  15.101   4.127
70391W        W42117  30.992   8.858  10.601
70392W        W42118  32.411   7.392  11.159
70393W        W42119  15.286  40.800   3.000
70394W        W42120  37.321   9.920   2.636
70395W        W42121   8.153  23.030   3.884
70396W        W42122   3.400  43.005   4.321
70397W        W42123  10.270  23.484  14.852
70398W        W42124  36.854  43.194  11.381
70399W        W42125  35.656  33.701  12.051
70400W        W42126  21.507  25.256  12.374
70401W        W42127   0.483  32.344   2.836
70402W        W42128  27.609  38.437   3.289
70403W        W42129   5.774  13.771   5.057
70404W        W42130  29.238  23.207  11.094
70405W        W42131  10.875  11.052  14.049
70406W        W42132   3.454  28.466  12.790
70407W        W42133  32.663  18.260   0.871
70408W        W42134  18.703  26.459  12.072
70409W        W42135  31.450  23.262   9.956
70410W        W42136   9.107  20.037   0.257
70411W        W42137  17.546   8.865  14.446
70412W        W42138  35.853  20.107  12.443
70413W        W42139  34.477  42.306   5.089
70414W        W42140  39.311   2.907   2.566
70415W        W42141  32.699  40.282   3.339
70416W        W42142  40.383  38.467   2.974
70417W        W42143  30.687  23.519   4.220
70418W        W42144   5.691  31.668  11.081
70419W        W42145  44.830  41.560   1.648
70420W        W42146  36.636  10.115  13.537
70421W        W42147  12.259  42.729   5.086
70422W        W42148  19.611  27.979   0.677
70423W        W42149  30.441  28.079  14.810
70424W        W42150  16.527  23.437  12.313
70425W        W42151  44.304  18.978  10.886
70426W        W42152  30.084  40.900   3.554
70427W        W42153  27.116   7.794  14.579
70428W        W42154   1.893   6.645   3.196
70429W        W42155  26.045  41.872  11.124
70430W        W42156   0.399   6.219   3.795
70431W        W42157  24.078  21.527  14.805
70432W        W42158  31.556  42.728   4.174
70433W        W42159  43.507  10.724   0.474
70434W        W42160  21.033  20.455   1.428
70435W        W42161  19.380  17.959  10.686
70436W        W42162  38.419   7.963   4.673
70437W        W42163  34.019  28.003  13.499
70438W        W42164  33.622  39.486  13.589
70439W        W42165  35.126  15.774   4.522
70440W        W42166  17.804  16.814   3.886
70441W        W42167  42.568  21.110  13.397
70442W        W42168  35.456  31.590   4.866
70443W        W42169  33.951  44.895   3.334
70444W        W42170   0.871  42.462   3.194
70445W        W42171   3.758   3.375   2.094
70446W        W42172  44.782  13.194  13.279
70447W        W42173  25.112  43.081   3.017
70448W        W42174  14.529   4.204  11.854
70449W        W42175  26.038  44.291  11.579
70450W        W42176  28.963  34.797  11.904
70451W        W42177  28.762  23.339  10.985
70452W        W42178  16.589  42.782  13.369
70453W        W42179  36.459  19.795   2.665
70454W        W42180  37.017  24.079   3.154
70455W        W42181   7.326  38.508   1.208
70456W        W42182  24.130   5.439  13.389
70457W        W42183  10.239   6.205  14.080
70458W        W42184  20.179  16.791  10.727
70459W        W42185  29.617  18.284  13.278
70460W        W42186  20.045  21.960  12.928
70461W        W42187  18.698  31.819   1.027
70462W        W42188  30.545  11.128   1.136
70463W        W42189  42.089   1.003   3.025
70464W        W42190   1.148   5.188   2.191
70465W        W42191  34.474   3.130   3.242
70466W        W42192  42.995  21.282   1.398
70467W        W42193  41.530  26.065  13.045
70468W        W42194  42.918   1.105   1.132
70469W        W42195  31.658  35.396  11.060
70470W        W42196   4.741  30.133  11.585
70471W        W42197   8.916  27.323   4.335
70472W        W42198  18.825   5.026   2.344
70473W        W42199  11.295  32.874  14.892
70474W        W42200   4.751  16.090  13.935
70475W        W42201  34.744  18.134   0.758
70476W        W42202  29.781  34.001   0.323
70477W        W42203  18.126  17.311  14.695
70478W        W42204  34.528  30.568  13.579
70479W        W42205  40.416  15.438  14.877
70480W        W42206  30.759  26.437  12.563
70481W        W42207  18.312   9.777   2.060
70482W        W42208  22.572  13.870   0.991
70483W        W42209  13.848  40.370  11.396
70484W        W42210   4.679   5.112   5.017
70485W        W42211  37.378  37.154  13.004
70486W        W42212  40.497   2.983   3.253
70487W        W42213  30.903  21.263   5.000
70488W        W42214  40.488  18.552  10.532
70489W        W42215  25.808   0.788  10.238
70490W        W42216  34.461  26.542  11.928
70491W        W42217  20.462  13.248  10.504
70492W        W42218  36.868  25.474  10.910
70493W        W42219   9.775  41.805  13.702
70494W        W42220  19.640   8.171   0.235
70495W        W42221  44.482   5.182   4.096
70496W        W42222  33.065  26.222   3.127
70497W        W42223   6.948   2.437   4.018
70498W        W42224  32.975  32.975   0.428
70499W        W42225  18.522  22.135  10.693
70500W        W42226   0.985  32.818  14.052
70501W        W42227   8.116  30.973  12.701
70502W        W42228  36.507  23.241  14.941
70503W        W42229   2.787  43.346  14.385
70504W        W42230  36.334  18.029  12.904
70505W        W42231   9.512   9.638  12.687
70506W        W42232  19.506  32.313   3.286
70507W        W42233   4.269   7.370  14.940
70508W        W42234  41.889  14.618   0.519
70509W        W42235  12.082  34.079   3.227
70510W        W42236   5.434   7.848   4.673
70511W        W42237  26.683   0.983   9.924
70512W        W42238  24.231   6.699  13.000
70513W        W42239   0.038  44.720  12.890
70514W        W42240  13.854  12.731   1.947
70515W        W42241  13.323  13.420  12.045
70516W        W42242  20.097  24.779  13.913
70517W        W42243  33.607  16.087  14.726
70518W        W42244  16.264  16.410   4.109
70519W        W42245  40.219   8.214  11.426
70520W        W42246  11.922  27.162  13.895
70521W        W42247  34.424  30.652   2.348
70522W        W42248   5.722   9.694   3.830
70523W        W42249  35.612   5.269  10.776
70524W        W42250   6.813  29.952  14.380
70525W        W42251  11.094   7.711  13.909
70526W        W42252  37.917  19.472  14.352
70527W        W42253   8.212  36.392   2.308
70528W        W42254  36.063   7.831  14.585
70529W        W42255  44.188  15.834  11.147
70530W        W42256  22.446  17.850  14.565
70531W        W42257  23.572  27.933  14.186
70532W        W42258  24.428  37.098  12.543
70533W        W42259  33.544  36.873   2.484
70534W        W42260   7.169   7.904   0.894
70535W        W42261  26.664  42.648   4.418
70536W        W42262  25.607  11.185   2.482
70537W        W42263  11.902  39.303  13.031
70538W        W42264   2.449  37.752   2.859
70539W        W42265  23.927  32.632   1.354
70540W        W42266   5.730  26.266  12.962
70541W        W42267  40.894  43.695   2.774
70542W        W42268   7.808  22.265   3.693
70543W        W42269   4.146  10.369   1.732
70544W        W42270   0.721  29.512  11.435
70545W        W42271  20.114  12.796   0.167
70546W        W42272   7.344  10.250  11.644
70547W        W42273  41.069  14.659  14.992
70548W        W42274  36.904  35.274  14.807
70549W        W42275  44.787  32.409   3.928
70550W        W42276  16.856  23.961  12.423
70551W        W42277  37.646  17.300  12.593
70552W        W42278  10.739  29.138   4.386
70553W        W42279  26.393  18.756  12.161
70554W        W42280  29.123   3.873  14.784
70555W        W42281  23.426   1.186  12.858
70556W        W42282  42.294  16.666  14.326
70557W        W42283  34.977  33.940   1.341
70558W        W42284  12.431  41.354  13.096
70559W        W42285   5.631   3.239  12.093
70560W        W42286  18.299   9.123   4.252
70561W        W42287  28.987   6.419   4.052
70562W        W42288  11.789  20.758  11.929
70563W        W42289  30.704  23.088   1.673
70564W        W42290  24.753   8.373  13.890
70565W        W42291  43.039  24.166   0.909
70566W        W42292  16.117  38.558   0.246
70567W        W42293  14.778   4.779  13.712
70568W        W42294  23.570  32.866   4.660
70569W        W42295  10.579  14.685  14.745
70570W        W42296   8.151   5.933   4.108
70571W        W42297  24.696  21.508   2.057
70572W        W42298  25.529   4.838  12.136
70573W        W42299  41.205  41.009   4.610
70574W        W42300  26.167  25.504   2.124
70575W        W42301  30.972  30.691   1.788
70576W        W42302  23.973  11.935  12.443
70577W        W42303  42.428   4.612   1.973
70578W        W42304  17.691  16.137   3.165
70579W        W42305  31.993  36.859  14.017
70580W        W42306  25.061  13.054  13.580
70581W        W42307   0.314   5.467  14.282
70582W        W42308   6.949  32.004   4.023
70583W        W42309  42.643  12.317  14.909
70584W        W42310   0.486  16.120  11.685
70585W        W42311   0.922  40.642   1.071
70586W        W42312  24.031  43.489   4.222
70587W        W42313   6.677  43.088  13.306
70588W        W42314  31.394  25.946  12.702
70589W        W42315  12.389   7.770  10.793
70590W        W42316  16.486  19.270  14.804
70591W        W42317  21.069  33.090  10.083
70592W        W42318  25.940   0.755   1.409
70593W        W42319   1.884   3.673   3.189
70594W        W42320  32.159  28.851  14.347
70595W        W42321  15.854   9.624  12.506
70596W        W42322  15.337   2.776  14.451
70597W        W42323  22.046   1.557  11.264
70598W        W42324  43.279  36.554  12.068
70599W        W42325  33.372  22.211  14.489
70600W        W42326  32.841   9.432  14.924
70601W        W42327   0.964   5.465  11.142
70602W        W42328  19.583  41.319  14.052
70603W        W42329   0.402  37.843  10.599
70604W        W42330   5.681  16.332  12.073
70605W        W42331  22.524  11.302   3.080
70606W        W42332  44.287  29.186  13.021
70607W        W42333  30.494  12.724  14.277
70608W        W42334  22.706  17.589  11.873
70609W        W42335  13.106  19.460  13.926
70610W        W42336  10.862  43.027   2.103
70611W        W42337  26.546  36.124   0.530
70612W        W42338   2.258  13.927   4.136
70613W        W42339  26.500  20.217   3.686
70614W        W42340   6.017  19.749   0.906
70615W        W42341  42.497  18.936   4.368
70616W        W42342  29.985  32.521   4.104
70617W        W42343  18.705  13.917  12.037
70618W        W42344  25.101  36.064  11.198
70619W        W42345  26.110   6.349   2.505
70620W        W42346  38.810   3.921   0.910
70621W        W42347   4.003  27.621   2.675
70622W        W42348  43.552  27.217   4.271
70623W        W42349  12.897  16.179  13.829
70624W        W42350  13.798  20.757  13.568
70625W        W42351  26.145   9.670   0.199
70626W        W42352  12.509  30.099   4.791
70627W        W42353  10.388  44.982  13.589
70628W        W42354  25.537  12.699   4.565
70629W        W42355  39.957  41.742   2.369
70630W        W42356  11.204  14.369  11.503
70631W        W42357  33.329  44.018   0.868
70632W        W42358  33.887  35.701   0.513
70633W        W42359   2.339  36.886  10.675
70634W        W42360  40.792  28.722  12.551
70635W        W42361  10.285  16.649  13.344
70636W        W42362  27.827  40.520  14.801
70637W        W42363   3.701  12.186  11.888
70638W        W42364  39.438  13.396   3.706
70639W        W42365   8.656  41.607  13.652
70640W        W42366  44.424  29.947   0.956
70641W        W42367  19.942   6.271  11.230
70642W        W42368  21.989   1.004   1.405
70643W        W42369  36.960  32.774  14.950
70644W        W42370  17.050  14.760   4.398
70645W        W42371  25.204  32.632   3.961
70646W        W42372  44.495  37.773  10.382
70647W        W42373  32.231  44.669   5.024
70648W        W42374  13.052  17.813   2.109
70649W        W42375  23.185  22.221  10.715
70650W        W42376  38.858   9.314  14.983
70651W        W42377  28.019  40.759   0.251
70652W        W42378  20.820   2.391  14.388
70653W        W42379   1.517  28.345   0.872
70654W        W42380  29.058   4.342  10.582
70655W        W42381  20.200   3.966  12.014
70656W        W42382  29.600  10.243   3.137
70657W        W42383   9.697  28.480   1.394
70658W        W42384  27.677  22.070  13.039
70659W        W42385  25.742  26.896  13.910
70660W        W42386  28.578   3.929  10.591
70661W        W42387  14.416  28.601  12.504
70662W        W42388   3.781  36.625  12.922
70663W        W42389  41.565  35.464   0.189
70664W        W42390  44.019  42.796  14.978
70665W        W42391  29.481   9.220   4.347
70666W        W42392   0.395  15.124  14.937
70667W        W42393  20.515  27.412   2.689
70668W        W42394  41.804  38.050  13.001
70669W        W42395  25.598  22.536   1.454
70670W        W42396  11.765  19.093   0.174
70671W        W42397  14.870   6.605   1.707
70672W        W42398  39.641  23.552  12.478
70673W        W42399   7.452  15.623   1.230
70674W        W42400  15.702  30.068   2.179
70675W        W42401  23.599  32.316  13.875
70676W        W42402   3.769  42.067   0.764
70677W        W42403  29.412  42.390   3.119
70678W        W42404  14.228  43.767   4.552
70679W        W42405  11.767  26.254  10.291
70680W        W42406  28.356  17.613   4.635
70681W        W42407  17.596  28.546   1.614
70682W        W42408  20.800   5.590  12.458
70683W        W42409   7.134   4.301  10.091
70684W        W42410  19.710   1.241  12.327
70685W        W42411  19.089  34.585   0.791
70686W        W42412  22.895  29.078  14.006
70687W        W42413  24.732  44.944  14.223
70688W        W42414   8.183  25.289   3.716
70689W        W42415  43.880  14.204   3.199
70690W        W42416  19.345  28.371  10.742
70691W        W42417   7.904  33.516   2.441
70692W        W42418  21.197  39.397  10.941
70693W        W42419  21.261  42.322   2.406
70694W        W42420  13.350  43.007  11.318
70695W        W42421   0.229  30.395   4.980
70696W        W42422  40.401  11.745   0.452
70697W        W42423  23.973  38.307  10.768
70698W        W42424  21.533  14.595   0.866
70699W        W42425  22.953   5.651  14.215
70700W        W42426  43.810  15.900   0.925
70701W        W42427  38.824  44.947   2.716
70702W        W42428   6.938  42.821  10.603
70703W        W42429  36.887  21.733   4.513
70704W        W42430  26.215   2.204  12.046
70705W        W42431  29.253  17.792   3.022
70706W        W42432  26.700  15.731  13.412
70707W        W42433   5.822  27.393  12.218
70708W        W42434  35.292  19.545   4.172
70709W        W42435  21.723  38.413  12.955
70710W        W42436  12.692  44.914   3.154
70711W        W42437  39.210   0.649   1.390
70712W        W42438  35.331  23.556  10.694
70713W        W42439   6.023  21.214  11.665
70714W        W42440  11.321  22.897  13.938
70715W        W42441  39.482   6.195   4.215
70716W        W42442  40.712  15.780  11.331
70717W        W42443  41.527  39.382   1.282
70718W        W42444  15.004  39.512   2.912
70719W        W42445  27.197  10.764  12.862
70720W        W42446  16.188  25.072   4.064
70721W        W42447   5.504   5.431  12.399
70722W        W42448  37.768  28.034  13.993
70723W        W42449  22.034  13.298   4.469
70724W        W42450  34.325  34.711  13.608
70725W        W42451  16.661  24.069   4.247
70726W        W42452  13.271  28.578  13.118
70727W        W42453  10.117  41.388   4.960
70728W        W42454  32.504  29.053   4.633
70729W        W42455   2.908  10.366  12.093
70730W        W42456  30.434  38.548  11.072
70731W        W42457  43.087  37.479  11.470
70732W        W42458  27.001   1.762  13.083
70733W        W42459  17.505  24.842  12.088
70734W        W42460  11.234  29.152  11.080
70735W        W42461   8.203  11.200  14.962
70736W        W42462  42.141  20.443   3.150
70737W        W42463  40.113  43.848   3.721
70738W        W42464  22.353  33.574   1.326
70739W        W42465  34.953   4.768   2.342
70740W        W42466  14.777  29.255  13.092
70741W        W42467  36.165  34.522   1.830
70742W        W42468  23.659  25.969   0.863
70743W        W42469   8.345  33.836  14.941
70744W        W42470  20.307   9.811   4.905
70745W        W42471  43.463  18.170  10.758
70746W        W42472  28.128   1.351   1.467
70747W        W42473  29.416  34.456   1.965
70748W        W42474  24.239   9.615  12.104
70749W        W42475   8.909  27.162  12.513
70750W        W42476  20.044  15.978  12.452
70751W        W42477  44.166   0.455   0.997
70752W        W42478  29.357  18.637   4.574
70753W        W42479  15.987  19.408  11.418
70754W        W42480  35.487  28.049   2.740
70755W        W42481  37.185  10.259   0.857
70756W        W42482  22.789  36.713  14.119
70757W        W42483  18.031  31.700  11.251
70758W        W42484  19.749  12.652   0.482
70759W        W42485  32.232  25.257  12.481
70760W        W42486  11.934  14.331   2.056
70761W        W42487  44.826  19.283  11.992
70762W        W42488  40.116  19.403   1.342
70763W        W42489   9.688   6.013   3.961
70764W        W42490   6.685  28.125   0.837
70765W        W42491  28.586   1.758  14.813
70766W        W42492  39.024  15.591  13.928
70767W        W42493   7.514  23.773   4.150
70768W        W42494  36.045  20.413   5.017
70769W        W42495  25.719  22.101   1.708
70770W        W42496  39.818  24.075   1.859
70771W        W42497   1.781  38.822   3.671
70772W        W42498  25.993  32.529  12.457
70773W        W42499  24.053  32.941   4.847
70774W        W42500  19.104  32.684   4.526
70775W        W42501  21.767  44.352  13.803
70776W        W42502   0.492  43.383  12.459
70777W        W42503  23.116  22.248   4.429
70778W        W42504  18.045  30.412   0.338
70779W        W42505  42.812   3.978  11.547
70780W        W42506  18.043   6.264  12.371
70781W        W42507  37.021  38.745  14.108
70782W        W42508  13.093   2.184   3.399
70783W        W42509  19.728  19.699   2.633
70784W        W42510   0.327   9.272  12.909
70785W        W42511   1.329  41.091  11.421
70786W        W42512  33.711  25.461   1.922
70787W        W42513   5.224  39.357   4.689
70788W        W42514   4.696  12.026   2.757
70789W        W42515  16.736   4.801  10.730
70790W        W42516  22.477  18.687   3.087
70791W        W42517   1.350  43.526   0.619
70792W        W42518   6.921  27.479   2.031
70793W        W42519  28.520  24.232   0.759
70794W        W42520  28.051   9.205  10.757
70795W        W42521  14.717  43.662  13.930
70796W        W42522  13.640   6.923   0.249
70797W        W42523  29.187  35.047   0.443
70798W        W42524  13.647  44.409   1.351
70799W        W42525  13.080   1.739  14.787
70800W        W42526   5.019  37.670   3.222
70801W        W42527  36.314  11.124   1.652
70802W        W42528  12.848   8.670  13.377
70803W        W42529  27.406  19.342  13.508
70804W        W42530  10.066  41.935   4.847
70805W        W42531   3.370  32.933   1.277
70806W        W42532  21.936  40.490  12.588
70807W        W42533  28.841  37.601  13.400
70808W        W42534  11.823  24.977  14.327
70809W        W42535   3.026  17.409   1.675
70810W        W42536  15.318  12.658  13.886
70811W        W42537  44.841  11.611  14.418
70812W        W42538  41.302   2.396  13.384
70813W        W42539   7.491  34.586  13.885
70814W        W42540  32.250   2.952   3.253
70815W        W42541  27.453  16.820   1.253
70816W        W42542  32.074  17.377   4.167
70817W        W42543   4.655  26.895   4.135
70818W        W42544  25.198  12.147  14.840
70819W        W42545  31.693  41.817   2.632
70820W        W42546  41.737  14.043  14.684
70821W        W42547   4.931  12.152  14.843
70822W        W42548   4.310   3.483   0.316
70823W        W42549  44.158  14.622  11.241
70824W        W42550  41.287  28.342  11.479
70825W        W42551  12.645   5.231   4.420
70826W        W42552  40.732  32.796  12.016
70827W        W42553   5.504   6.126  11.306
70828W        W42554  15.810  35.963  13.524
70829W        W42555   7.168   5.395   1.293
70830W        W42556   3.403  26.655  10.121
70831W        W42557  35.856   1.479  14.705
70832W        W42558  11.167  43.754  13.054
70833W        W42559  17.615   7.272   1.963
70834W        W42560  20.304  37.529  10.659
70835W        W42561   5.540  28.112   1.754
70836W        W42562  26.393  32.719   0.977
70837W        W42563  38.714   5.615   0.872
70838W        W42564  37.958   9.579   0.903
70839W        W42565   0.729  12.343   0.495
70840W        W42566  33.144  30.884  14.813
70841W        W42567  34.962  35.535  11.057
70842W        W42568  40.154  25.231  13.801
70843W        W42569   5.396  13.980   1.846
70844W        W42570   9.170  41.449  13.056
70845W        W42571  13.842  23.418  11.053
70846W        W42572  36.061  19.751   3.712
70847W        W42573  35.310   5.167  11.186
70848W        W42574  35.314   3.844   2.696
70849W        W42575  17.245   9.361  13.851
70850W        W42576  20.670  37.450   3.941
70851W        W42577   9.342  35.442   2.317
70852W        W42578  36.953  16.613  11.502
70853W        W42579  26.752  43.753   1.377
70854W        W42580  12.862  23.493   3.641
70855W        W42581  32.959  26.132  14.795
70856W        W42582  11.297  35.146  13.189
70857W        W42583  10.317  27.551   0.836
70858W        W42584  25.915  11.095   3.529
70859W        W42585  41.068   2.838  13.424
70860W        W42586  37.416  19.651   2.964
70861W        W42587  27.484   2.189  11.055
70862W        W42588  33.236  29.920   2.279
70863W        W42589   6.699   9.335   1.372
70864W        W42590  12.651  27.049   1.389
70865W        W42591  33.573  19.578   4.184
70866W        W42592  24.671  24.067  13.556
70867W        W42593  17.805  14.225   0.960
70868W        W42594  24.261  36.954  12.073
70869W        W42595  34.885  21.020   1.754
70870W        W42596  19.470  23.414  11.957
70871W        W42597   7.836  43.636  11.156
70872W        W42598  27.705  19.799  14.899
70873W        W42599  27.401  26.479  14.620
70874W        W42600  28.265  24.667   0.421
70875W        W42601   0.377  37.872   4.080
70876W        W42602   9.149  30.204  11.185
70877W        W42603  44.535  10.880  12.442
70878W        W42604   8.704  41.858  11.524
70879W        W42605   4.922  38.964   0.223
70880W        W42606   5.010  19.869  14.657
70881W        W42607  42.420  33.939  13.305
70882W        W42608   8.290  27.176   1.234
70883W        W42609  27.638  38.801   3.669
70884W        W42610   2.882  16.442   2.303
70885W        W42611  28.156  18.243  13.526
70886W        W42612  26.650  23.927   2.861
70887W        W42613  10.731   5.448   0.268
70888W        W42614  22.629  31.414   1.691
70889W        W42615  30.873  24.265   1.824
70890W        W42616  10.693   4.417  12.929
70891W        W42617   2.955   3.767  13.004
70892W        W42618   2.364   5.302   0.865
70893W        W42619   9.988   0.921  14.485
70894W        W42620   7.009  29.133  13.821
70895W        W42621   2.217   3.748  11.603
70896W        W42622  27.034  43.585   0.163
70897W        W42623  10.087  38.889   3.774
70898W        W42624  12.921  19.584   1.698
70899W        W42625  31.012   3.217   4.323
70900W        W42626  25.667  25.555   3.413
70901W        W42627  12.864  27.106   0.907
70902W        W42628  44.406   1.810  13.416
70903W        W42629  24.520  30.880   3.330
70904W        W42630  16.193  40.368   3.558
70905W        W42631  33.638  18.363  14.421
70906W        W42632  21.108  27.457   5.153
70907W        W42633   1.059  19.195  13.363
70908W        W42634  16.709  38.899  11.635
70909W        W42635  19.292  18.504   3.313
70910W        W42636  17.846   8.371   4.097
70911W        W42637  25.890  37.454   1.126
70912W        W42638  31.674  21.833   0.714
70913W        W42639  27.219  28.256  14.372
70914W        W42640  33.125  14.987  10.844
70915W        W42641  23.177  42.380   2.928
70916W        W42642  31.356  41.816   4.119
70917W        W42643  35.482  31.585   0.363
70918W        W42644  34.923  39.193  12.104
70919W        W42645  44.521   6.180  12.041
70920W        W42646  22.132  10.336   3.987
70921W        W42647  29.645   3.405  13.753
70922W        W42648  36.836  19.638  10.617
70923W        W42649  21.889  34.421   4.242
70924W        W42650  21.981  41.304   1.764
70925W        W42651  19.809  30.846   4.038
70926W        W42652  33.528  29.490   2.314
70927W        W42653  32.777  26.176  10.753
70928W        W42654  36.351   9.377   4.198
70929W        W42655  18.154  17.472   0.166
70930W        W42656  37.087  19.048   3.913
70931W        W42657   9.400  33.644   2.951
70932W        W42658   9.701  32.100   1.645
70933W        W42659  10.752  24.610   2.266
70934W        W42660  38.214  43.194  14.450
70935W        W42661  24.140   3.960  11.593
70936W        W42662  25.097  12.638  14.973
70937W        W42663  16.235  36.173   3.077
70938W        W42664  11.214  22.020  10.583
70939W        W42665  22.958   4.657  11.353
70940W        W42666  25.050  44.685  10.203
70941W        W42667   5.521   3.919   4.885
70942W        W42668  16.841   2.902   2.624
70943W        W42669  35.098  25.493  14.781
70944W        W42670  20.590  24.019  11.343
70945W        W42671  30.591   8.936   3.203
70946W        W42672  14.032  40.065   4.156
70947W        W42673  44.349  44.061  13.407
70948W        W42674  18.596  16.302   1.362
70949W        W42675  23.693  44.316  11.462
70950W        W42676  32.178   7.680   4.962
70951W        W42677  12.633   7.647  14.030
70952W        W42678  30.019  19.238  14.590
70953W        W42679   8.113   7.242  12.387
70954W        W42680  30.562  37.904  13.994
70955W        W42681  38.484   1.773  12.567
70956W        W42682   1.454  35.498  13.832
70957W        W42683  18.208   0.822  14.318
70958W        W42684  23.419  36.561  10.713
70959W        W42685  26.700  38.926  14.477
70960W        W42686   8.434  24.500  10.515
70961W        W42687  36.630  39.434  14.312
70962W        W42688  26.332   6.364   3.716
70963W        W42689  30.232  13.282  13.001
70964W        W42690  12.506   5.700  11.235
70965W        W42691  35.286  41.873   3.184
70966W        W42692  18.149  41.503   0.360
70967W        W42693  30.253  33.543   4.624
70968W        W42694   6.360  12.095  13.123
70969W        W42695  18.254  14.811   3.794
70970W        W42696  40.518   7.332  14.964
70971W        W42697  29.490  36.042   4.052
70972W        W42698   5.431  39.614  14.913
70973W        W42699  27.019  39.039   2.317
70974W        W42700  18.750  44.433   0.389
70975W        W42701  35.473  39.956  14.423
70976W        W42702   7.669  34.024   0.732
70977W        W42703  21.639   5.510  10.446
70978W        W42704   6.305   6.422   4.676
70979W        W42705  31.788  36.976   3.670
70980W        W42706  20.789  17.965  11.433
70981W        W42707  40.945  26.462  12.839
70982W        W42708   3.775  27.596  14.368
70983W        W42709  28.161  11.910   2.292
70984W        W42710  38.973  31.223  11.587
70985W        W42711  18.651  20.521  13.974
70986W        W42712  30.909  19.569   1.715
70987W        W42713  44.391  41.516   1.946
70988W        W42714  36.896  39.840   3.792
70989W        W42715  33.545  25.573  12.923
70990W        W42716  30.172  14.298  14.192
70991W        W42717  18.688   3.970  14.930
70992W        W42718   3.847  21.992  13.506
70993W        W42719   5.204  18.275  10.767
70994W        W42720  32.388   6.785   0.508
70995W        W42721   1.532  43.508   2.728
70996W        W42722  27.345  16.689  13.079
70997W        W42723   6.403   3.152   0.158
70998W        W42724  39.841  25.567  13.510
70999W        W42725  30.240  12.190   3.437
71000W        W42726  10.763  28.672  10.443
71001W        W42727  25.213  20.208  11.183
71002W        W42728  22.268  17.493  14.902
71003W        W42729  15.405  14.034  14.943
71004W        W42730  19.018  15.632  14.092
71005W        W42731  11.889  44.808  12.794
71006W        W42732   7.933  28.435  12.465
71007W        W42733   5.927  12.650   0.579
71008W        W42734  39.580  35.223  12.436
71009W        W42735  34.310  19.036  13.444
71010W        W42736   6.686   8.293  13.326
71011W        W42737  18.034  31.557  13.937
71012W        W42738  44.229  17.162  11.849
71013W        W42739  19.908  36.849  13.344
71014W        W42740  41.555  16.161  14.301
71015W        W42741  43.607   8.611   3.214
71016W        W42742   4.161  18.168  14.418
71017W        W42743   6.625  14.076  11.014
71018W        W42744  23.976   8.439   3.230
71019W        W42745  33.096   4.967  11.554
71020W        W42746  22.172  29.192  10.532
71021W        W42747  16.113  13.268  14.054
71022W        W42748   7.702  23.577  11.744
71023W        W42749  20.465  21.811  12.026
71024W        W42750   1.158  15.598  10.339
71025W        W42751  15.237  26.277   1.856
71026W        W42752   2.391  23.967   2.937
71027W        W42753   3.531   6.367  10.815
71028W        W42754  10.575  30.394   2.701
71029W        W42755  14.567  38.589   2.679
71030W        W42756  13.145  21.593   4.395
71031W        W42757  24.780  38.073   0.337
71032W        W42758  20.540  33.211   1.543
71033W        W42759  38.572  29.062  14.314
71034W        W42760  34.972  42.092  12.027
71035W        W42761  28.614  40.687  13.362
71036W        W42762  13.783  12.980   4.935
71037W        W42763  13.687  18.270   3.200
71038W        W42764  10.356   0.236   3.675
71039W        W42765  33.954  31.048  11.064
71040W        W42766  28.394  22.130   3.463
71041W        W42767   8.784  28.180   0.278
71042W        W42768   9.743  42.403   4.921
71043W        W42769  40.172  39.466   3.624
71044W        W42770  35.361  29.101   4.153
71045W        W42771  26.995  27.584   2.205
71046W        W42772  17.637  32.421  14.520
71047W        W42773  37.897  35.487  14.356
71048W        W42774   7.402  14.781  12.347
71049W        W42775  26.636  22.945   0.433
71050W        W42776  14.435  25.877   4.176
71051W        W42777   1.446  22.558   1.398
71052W        W42778  12.745  35.962  13.888
71053W        W42779  34.084   9.389  11.470
71054W        W42780  26.063  17.397   2.027
71055W        W42781  36.836  16.285  11.945
71056W        W42782  18.200  13.633   3.198
71057W        W42783  38.424  12.107  14.425
71058W        W42784  44.445  26.000  10.540
71059W        W42785  18.577  33.734   5.177
71060W        W42786   0.897  30.560   0.713
71061W        W42787  14.824   4.954   3.855
71062W        W42788   3.698  24.957   2.997
71063W        W42789  24.097  41.313  11.827
71064W        W42790  29.380  22.198  13.967
71065W        W42791   8.870  39.965   0.541
71066W        W42792  24.983  42.712   2.134
71067W        W42793  17.812  38.992  11.864
71068W        W42794   5.413  38.957   4.431
71069W        W42795  25.542  37.176   1.563
71070W        W42796  29.724   0.595  13.798
71071W        W42797  12.791  18.618   3.933
71072W        W42798   9.149   3.291  11.171
71073W        W42799  43.173  23.227  13.402
71074W        W42800   4.229  17.221   3.782
71075W        W42801  36.034  17.531   2.424
71076W        W42802   0.991   4.212   2.405
71077W        W42803   6.852  17.756  13.806
71078W        W42804  37.831  25.703   1.731
71079W        W42805  25.750   9.696  14.844
71080W        W42806  18.099  35.389  12.740
71081W        W42807  22.609  11.247   4.604
71082W        W42808  30.918   9.245   1.907
71083W        W42809  13.372  17.528  10.441
71084W        W42810  27.762   9.412   3.212
71085W        W42811  23.136  26.110   1.618
71086W        W42812   1.815  24.014  10.684
71087W        W42813  20.746   3.320   4.042
71088W        W42814   7.972  21.595   0.311
71089W        W42815   2.573  37.027  13.932
71090W        W42816  31.129  38.833   3.967
71091W        W42817  23.152   6.295  14.816
71092W        W42818  35.294  41.449  13.365
71093W        W42819  22.659  20.790   3.805
71094W        W42820  28.988  18.928   0.388
71095W        W42821  34.383  44.332  10.862
71096W        W42822   7.991  42.965   0.957
71097W        W42823  21.490  10.587  11.557
71098W        W42824  15.888  27.916   0.296
71099W        W42825  35.523  44.657  13.352
71100W        W42826  29.510  21.462  14.411
71101W        W42827  29.422  36.520  11.102
71102W        W42828  23.196  17.705   1.845
71103W        W42829  18.868  17.829  11.317
71104W        W42830   5.262  20.189  14.987
71105W        W42831  14.409  39.536  10.989
71106W        W42832  23.577  36.894  13.445
71107W        W42833  17.749  21.471  14.049
71108W        W42834  42.317  36.022  13.876
71109W        W42835   4.533  29.389  13.388
71110W        W42836  11.801  37.789   2.743
71111W        W42837   4.934  38.831   0.923
71112W        W42838  11.078  14.545   3.559
71113W        W42839  11.676   0.210   2.397
71114W        W42840   9.399  26.569   2.703
71115W        W42841  28.669  35.756   3.269
71116W        W42842  36.479  17.662  14.060
71117W        W42843  44.934   1.975   4.022
71118W        W42844  26.107   0.905   2.352
71119W        W42845  40.483  16.808   4.596
71120W        W42846  25.164  39.544  12.344
71121W        W42847  35.939  18.993   2.998
71122W        W42848  36.766  43.862  10.653
71123W        W42849  19.626  14.130  11.143
71124W        W42850   2.912  38.363  12.935
71125W        W42851  20.036  41.942   4.450
71126W        W42852  14.235  22.185   4.634
71127W        W42853  17.875   6.866   3.900
71128W        W42854  12.360  36.831   1.664
71129W        W42855   8.312  30.239   4.492
71130W        W42856   0.692   7.250   0.316
71131W        W42857  37.488  33.280  11.240
71132W        W42858   7.087  41.131   2.880
71133W        W42859  36.112  15.005   2.834
71134W        W42860  32.856   5.750   4.653
71135W        W42861  20.562  24.924   1.628
71136W        W42862  11.184  19.545   1.284
71137W        W42863  38.896  21.602  12.961
71138W        W42864  16.636  33.059   4.036
71139W        W42865  16.538  37.248  10.836
71140W        W42866  23.995  44.374   3.225
71141W        W42867  19.486  43.934   2.659
71142W        W42868  42.190  11.770   2.622
71143W        W42869   4.268  23.112  10.696
71144W        W42870  15.084  23.519   0.549
71145W        W42871  32.511  29.104   1.455
71146W        W42872  36.042  29.571   0.842
71147W        W42873  31.050  10.236  13.669
71148W        W42874  15.020  36.176   1.667
71149W        W42875   6.914  17.892   4.652
71150W        W42876  36.830  33.961  13.402
71151W        W42877  44.844  38.453   0.258
71152W        W42878  21.001  39.864  14.511
71153W        W42879   2.020  33.612   0.008
71154W        W42880  29.585  37.109  11.746
71155W        W42881   7.643  32.097  12.597
71156W        W42882  31.483  16.638  12.864
71157W        W42883  29.122  20.669  11.691
71158W        W42884  38.414  11.030  13.004
71159W        W42885  18.555   7.377   1.971
71160W        W42886  36.697  37.888  12.401
71161W        W42887  29.467  29.716   1.347
71162W        W42888   3.866   0.449  12.982
71163W        W42889  18.689   3.687   4.113
71164W        W42890   8.953  10.535  12.812
71165W        W42891  38.095  39.281  14.809
71166W        W42892  38.964  44.274  14.714
71167W        W42893  44.999  36.593   3.268
71168W        W42894   5.368  12.592   1.984
71169W        W42895  35.068  27.127  10.582
71170W        W42896  17.567  40.403   3.304
71171W        W42897  31.002   6.864  11.743
71172W        W42898  36.112  25.168  12.332
71173W        W42899  39.776  40.854   1.791
71174W        W42900  25.728  24.603   1.532
71175W        W42901  22.770  34.435   3.728
71176W        W42902  14.826   5.446   4.012
71177W        W42903  42.230   4.296   0.924
71178W        W42904  36.079  10.703  12.922
71179W        W42905  39.603   0.992   2.648
71180W        W42906  35.035  10.186  11.189
71181W        W42907   7.713  19.916   3.190
71182W        W42908   5.881  23.531   2.751
71183W        W42909  20.223  26.391  13.321
71184W        W42910   0.506  40.818  11.631
71185W        W42911  23.616  15.126   2.810
71186W        W42912  11.001  23.025   9.920
71187W        W42913  38.247   8.253   0.358
71188W        W42914   4.713  21.523  13.558
71189W        W42915  44.901  39.376  13.485
71190W        W42916  36.173   8.188  11.511
71191W        W42917  10.872  23.996   4.213
71192W        W42918  10.357  27.513  11.059
71193W        W42919   1.732  16.161   1.789
71194W        W42920  22.731  32.958   4.535
71195W        W42921  41.338  35.510  11.076
71196W        W42922  14.198   0.539   2.408
71197W        W42923  26.924  10.541  14.956
71198W        W42924   8.923  23.589   4.702
71199W        W42925   4.375  43.457   4.101
71200W        W42926  38.303  36.306   3.162
71201W        W42927   6.310  34.527   0.649
71202W        W42928  19.442  41.086  11.166
71203W        W42929  11.927  29.887   9.975
71204W        W42930   9.653  16.122   0.572
71205W        W42931  30.146  42.753   0.050
71206W        W42932   3.958  29.982   3.183
71207W        W42933  33.564  10.706  10.591
71208W        W42934  22.330   1.789  12.346
71209W        W42935  26.004   7.984  10.752
71210W        W42936  24.580  18.746  12.381
71211W        W42937  33.900   9.975   4.373
71212W        W42938  23.471   1.328  13.693
71213W        W42939   0.743  29.414  14.349
71214W        W42940  20.657  41.068   1.861
71215W        W42941  14.852  20.107   3.736
71216W        W42942  15.367   4.250   2.063
71217W        W42943  10.714  31.871  14.451
71218W        W42944  34.182  14.757   2.771
71219W        W42945  13.746  12.895   4.320
71220W        W42946  30.836  10.766  12.419
71221W        W42947  22.829  30.736  13.487
71222W        W42948  40.031  41.925   0.264
71223W        W42949  18.719   4.491  14.782
71224W        W42950   3.377  39.966  11.875
71225W        W42951  18.222  14.415  11.617
71226W        W42952  41.752   0.269  10.993
71227W        W42953  40.426  20.641  11.542
71228W        W42954   2.010  18.822  13.025
71229W        W42955  31.129  25.221   1.473
71230W        W42956  22.668  36.999  10.452
71231W        W42957  16.307   8.594  13.736
71232W        W42958  30.149  15.398   1.903
71233W        W42959  34.827   6.887  13.559
71234W        W42960  25.241   5.254  14.574
71235W        W42961  10.422  36.225  12.938
71236W        W42962   9.783  15.075  12.903
71237W        W42963  27.628  35.068  10.718
71238W        W42964  39.890  38.582   2.316
71239W        W42965   4.116  16.263   1.740
71240W        W42966   3.778  10.718   1.836
71241W        W42967  30.332  10.668   1.270
71242W        W42968  12.553  43.387   0.441
71243W        W42969  13.555  34.919   1.412
71244W        W42970  30.877  24.016  12.613
71245W        W42971  31.867  13.929  13.723
71246W        W42972  39.170  20.761  11.123
71247W        W42973  34.040  30.439  13.424
71248W        W42974  42.944  14.842   2.744
71249W        W42975  27.599  38.453  10.423
71250W        W42976  40.486  40.957  10.792
71251W        W42977  24.615   3.751  11.714
71252W        W42978  17.622   7.022  12.055
71253W        W42979   3.272   9.473   4.695
71254W        W42980  33.026  27.498   2.868
71255W        W42981  25.954  14.108   2.284
71256W        W42982  44.757  38.928  12.617
71257W        W42983   9.354  31.620  13.444
71258W        W42984  36.002  23.393   0.006
71259W        W42985  33.205  42.534  11.995
71260W        W42986   8.259   1.882   1.875
71261W        W42987  15.163   6.725  11.145
71262W        W42988  43.327  39.528   4.595
71263W        W42989   1.101  44.888  14.827
71264W        W42990  44.472  34.874  13.105
71265W        W42991  41.510  44.763   3.320
71266W        W42992   7.999  17.247   4.139
71267W        W42993   1.705  27.203   2.266
71268W        W42994   5.172  24.344   0.854
71269W        W42995  19.472  32.115  11.481
71270W        W42996  43.626   4.151   1.934
71271W        W42997   0.962  33.831  11.893
71272W        W42998  22.985   6.324   5.019
71273W        W42999   9.397   9.492   2.068
71274W        W43000   4.447   1.356   3.672
71275W        W43001  39.422  29.903  13.361
71276W        W43002  40.757  32.086   3.321
71277W        W43003  27.386  41.000   4.137
71278W        W43004  16.085   4.809  13.312
71279W        W43005  31.124  17.862   2.708
71280W        W43006  16.712  31.845  12.446
71281W        W43007  44.002   9.621  12.480
71282W        W43008  23.621  42.765  11.522
71283W        W43009  11.245  33.710   0.497
71284W        W43010   8.067  22.374  13.861
71285W        W43011   2.966   4.480  14.171
71286W        W43012  42.567  14.061  13.063
71287W        W43013  18.031  21.834  12.338
71288W        W43014  29.013  40.985  13.482
71289W        W43015  44.158  34.917   2.378
71290W        W43016  36.526  14.880  12.452
71291W        W43017   0.826  36.144  11.125
71292W        W43018  16.544   1.393   1.363
71293W        W43019  14.687  28.490   4.616
71294W        W43020  10.862  25.537   4.164
71295W        W43021  27.123  23.013   9.759
71296W        W43022   7.378  18.368  10.775
71297W        W43023   0.956  40.642  12.122
71298W        W43024  32.787  29.191  10.760
71299W        W43025   9.678  18.485   4.727
71300W        W43026  34.410  23.969  14.992
71301W        W43027  34.345  25.206  11.075
71302W        W43028   3.532  26.962  11.951
71303W        W43029  40.851  30.618  13.522
71304W        W43030  10.128  25.499  10.655
71305W        W43031   6.343  35.172   1.378
71306W        W43032   1.804  12.110   4.785
71307W        W43033  26.981   5.432  13.375
71308W        W43034   2.414   7.773   2.282
71309W        W43035   7.235  12.151  11.597
71310W        W43036  16.488   2.913  10.773
71311W        W43037   2.871  18.131   4.092
71312W        W43038  25.586  40.577   4.343
71313W        W43039  38.592  10.568   0.447
71314W        W43040  13.262  25.300   4.984
71315W        W43041  42.014  24.280  11.517
71316W        W43042  33.056  36.015  14.985
71317W        W43043  35.291  42.694  13.017
71318W        W43044   2.770   0.316   0.035
71319W        W43045  10.191  29.387  14.193
71320W        W43046  16.569   1.284  14.356
71321W        W43047   9.151  37.898  11.135
71322W        W43048  17.163  44.739   3.658
71323W        W43049   9.223  34.983  14.582
71324W        W43050  16.475  41.956   2.361
71325W        W43051  24.216  34.628   4.775
71326W        W43052   6.187  27.479  11.218
71327W        W43053  25.386  43.942  13.417
71328W        W43054   5.226  32.379   0.128
71329W        W43055  17.409  10.571   1.069
71330W        W43056  11.306  26.141   2.296
71331W        W43057  25.962  35.887  10.616
71332W        W43058  15.045   8.999  11.691
71333W        W43059  35.941  17.656   0.474
71334W        W43060  44.579   5.409  13.021
71335W        W43061  34.969  11.795  12.090
71336W        W43062  18.109  12.881   2.742
71337W        W43063  41.450   4.364  11.446
71338W        W43064  23.788  13.712   4.352
71339W        W43065  40.929  12.284  11.484
71340W        W43066  33.434  22.822   4.159
71341W        W43067   0.704  17.323   3.644
71342W        W43068  16.302   1.557  10.775
71343W        W43069  27.785  12.646  11.260
71344W        W43070   2.696  20.698   2.479
71345W        W43071   4.187  26.662  10.684
71346W        W43072  29.816  16.725  11.348
71347W        W43073  26.561   3.593   4.049
71348W        W43074   6.674  13.832   5.023
71349W        W43075  32.458   1.359   1.960
71350W        W43076  38.455  35.229   4.245
71351W        W43077  11.807   7.284   4.998
71352W        W43078   4.234  19.639  10.488
71353W        W43079  39.399   5.407  14.212
71354W        W43080  16.309  14.365   3.352
71355W        W43081   7.764  26.231   3.903
71356W        W43082  25.859  13.356   1.802
71357W        W43083  17.264  27.084   2.955
71358W        W43084  39.133   3.758  11.142
71359W        W43085  12.164  32.539  13.369
71360W        W43086  18.537   0.971  10.770
71361W        W43087  17.109  32.417  12.294
71362W        W43088   1.047  35.001  13.818
71363W        W43089   7.466  11.315   2.740
71364W        W43090  39.676  28.067   2.633
71365W        W43091  44.197  30.963   4.533
71366W        W43092  12.667  40.741  10.706
71367W        W43093  28.610  29.422  10.675
71368W        W43094   7.206  44.837   1.699
71369W        W43095  39.220  30.536  11.100
71370W        W43096  21.748  22.004  12.436
71371W        W43097  14.276  18.019  13.074
71372W        W43098  30.971   3.908  11.202
71373W        W43099  37.479  10.116  12.379
71374W        W43100  31.546  28.590  12.492
71375W        W43101   2.923  39.717  12.613
71376W        W43102   5.337  29.031   0.282
71377W        W43103   5.537  19.722   0.736
71378W        W43104  42.001  39.523   1.021
71379W        W43105  35.589   0.830   2.280
71380W        W43106  41.809   9.340   1.826
71381W        W43107  23.951  40.541   2.705
71382W        W43108  17.351  24.063  12.405
71383W        W43109   7.638  16.905   4.205
71384W        W43110  26.593  41.916   4.713
71385W        W43111  39.582  26.668  12.529
71386W        W43112  16.256  28.440   2.088
71387W        W43113  15.579  37.631  12.944
71388W        W43114  42.048   4.411  12.741
71389W        W43115   9.718  43.965   4.415
71390W        W43116  20.614   7.756  13.906
71391W        W43117  42.061  27.044   1.279
71392W        W43118  18.212  35.994  11.686
71393W        W43119  31.113   3.254   3.821
71394W        W43120   8.490  30.050  12.901
71395W        W43121  35.275  11.782  14.840
71396W        W43122  11.755   9.378  13.841
71397W        W43123  11.299  32.335   1.846
71398W        W43124   6.154  42.730   1.171
71399W        W43125  17.182  38.170   2.259
71400W        W43126  37.096  43.333   3.931
71401W        W43127  43.024  40.161   4.132
71402W        W43128  32.968  25.493   1.466
71403W        W43129   4.829   9.782   2.759
71404W        W43130  24.702  26.963   2.939
71405W        W43131  28.429  32.981   3.189
71406W        W43132  21.679  37.537   1.213
71407W        W43133  14.888  38.285   3.673
71408W        W43134  19.747  29.941  13.041
71409W        W43135  33.635  25.471   2.678
71410W        W43136  36.354  44.431   0.968
71411W        W43137  27.473  39.906  10.596
71412W        W43138   7.405   6.918   2.358
71413W        W43139  14.226  14.324   1.325
71414W        W43140  33.469  33.307   4.685
71415W        W43141  18.384  19.588   5.081
71416W        W43142   4.943  40.451   3.535
71417W        W43143  24.313  33.262  14.121
71418W        W43144  28.090  28.590   2.761
71419W        W43145  29.647  29.694   5.159
71420W        W43146   9.392  42.438  13.795
71421W        W43147  43.538   6.460  11.972
71422W        W43148  20.044   3.017   1.406
71423W        W43149  23.000  34.658  14.229
71424W        W43150  37.108  29.762   3.206
71425W        W43151  42.444  13.352   1.862
71426W        W43152  40.627   6.387  14.071
71427W        W43153  36.164  33.025  10.595
71428W        W43154  39.987  28.088  11.733
71429W        W43155  11.512  44.863  14.250
71430W        W43156   7.861  25.726   4.000
71431W        W43157  15.631  27.120   0.469
71432W        W43158   4.992  36.012  13.103
71433W        W43159  13.269   1.924  12.840
71434W        W43160  39.966  33.359   1.791
71435W        W43161  36.537  38.404  13.407
71436W        W43162  11.505  17.533  14.417
71437W        W43163  18.998   1.087  12.575
71438W        W43164  23.747  35.739  12.101
71439W        W43165  14.600  19.270   1.607
71440W        W43166  23.036   7.297  14.804
71441W        W43167  18.442   0.212   1.636
71442W        W43168  11.000  10.585   1.270
71443W        W43169  30.901   5.205  12.792
71444W        W43170  35.277  16.318   1.503
71445W        W43171  41.371  13.556  14.022
71446W        W43172  12.040  39.590   1.403
71447W        W43173   8.158  20.702   1.427
71448W        W43174   3.942   1.340  13.454
71449W        W43175   7.941  16.222   2.345
71450W        W43176  40.258  38.210  14.867
71451W        W43177  32.716  35.615   1.764
71452W        W43178  26.669  24.265   5.028
71453W        W43179  37.516  13.249   3.428
71454W        W43180  19.244  30.503  14.387
71455W        W43181  35.003  39.818  13.577
71456W        W43182  13.883   2.445  11.054
71457W        W43183  19.105  10.173   1.729
71458W        W43184  25.496   8.770   4.203
71459W        W43185   7.661  26.677   1.646
71460W        W43186  14.082   7.708   0.056
71461W        W43187  32.619  11.452   1.502
71462W        W43188  18.919  10.327  12.055
71463W        W43189  26.141  40.062  10.650
71464W        W43190  29.861  15.777   3.139
71465W        W43191   1.376  20.063   3.687
71466W        W43192   0.117  14.118   4.754
71467W        W43193  23.438   0.450  11.852
71468W        W43194   7.621  32.546   2.684
71469W        W43195  31.373  22.306  10.752
71470W        W43196   7.627   4.747   0.784
71471W        W43197   9.140  12.225  12.228
71472W        W43198  26.137  17.256  11.024
71473W        W43199  11.762   2.547   4.164
71474W        W43200  24.129  35.502   0.827
71475W        W43201  16.059   6.503  14.308
71476W        W43202   5.797   8.696  11.414
71477W        W43203  43.322  29.003   1.375
71478W        W43204  32.119  37.780   3.278
71479W        W43205  29.651   7.019   3.186
71480W        W43206   6.455  20.591   4.153
71481W        W43207   1.381  37.301   0.822
71482W        W43208  17.499   2.554  11.880
71483W        W43209  16.249   3.208  11.703
71484W        W43210  22.042  33.545  14.422
71485W        W43211   0.399   3.820  14.215
71486W        W43212  35.476  36.050  14.581
71487W        W43213   6.752  24.545   1.834
71488W        W43214  22.936  38.050   0.459
71489W        W43215   8.253  37.743  11.571
71490W        W43216  18.359  32.892   2.223
71491W        W43217  16.634  36.023   4.697
71492W        W43218  36.830  22.671   3.219
71493W        W43219  18.763   3.169  12.082
71494W        W43220  42.097  21.566   3.856
71495W        W43221  41.736  34.312   3.387
71496W        W43222  31.470  14.832  11.600
71497W        W43223  30.138   3.779  11.507
71498W        W43224  40.281  19.259  14.951
71499W        W43225  11.653   6.335  11.365
71500W        W43226  34.222  11.853  10.661
71501W        W43227   2.297  21.514  12.497
71502W        W43228  15.438  31.508   3.298
71503W        W43229   4.184   8.119   0.986
71504W        W43230  39.783  21.781  11.228
71505W        W43231  35.556   3.259  11.225
71506W        W43232  28.363  24.661   3.771
71507W        W43233  23.644  15.505   4.997
71508W        W43234  25.685  18.185   0.304
71509W        W43235   0.414  21.206   3.695
71510W        W43236  12.357  44.282   1.851
71511W        W43237  34.033  36.778  14.058
71512W        W43238  39.510  43.743  10.765
71513W        W43239  13.328  10.874   1.271
71514W        W43240   4.410  12.193  11.473
71515W        W43241  10.729  18.132  10.613
71516W        W43242  33.899  28.036   2.593
71517W        W43243  31.923  21.162   4.148
71518W        W43244  16.227  13.898   4.293
71519W        W43245   2.693   3.282  12.138
71520W        W43246  42.208   5.737  11.222
71521W        W43247  38.012  32.531   4.044
71522W        W43248  40.468  12.520   0.691
71523W        W43249  38.088  14.822   3.253
71524W        W43250  12.628  11.288   1.707
71525W        W43251  34.827  17.633  12.152
71526W        W43252  38.902  28.592   1.394
71527W        W43253  38.822  14.510  10.690
71528W        W43254  37.069  11.818  14.461
71529W        W43255   3.509  24.779   0.624
71530W        W43256   2.462  25.291  14.783
71531W        W43257  19.749   9.355   0.859
71532W        W43258  16.591   1.908   1.440
71533W        W43259  10.769  34.592   5.215
71534W        W43260  35.522  35.492  11.514
71535W        W43261   6.764  29.941  10.519
71536W        W43262  36.178  11.459  13.489
71537W        W43263  20.953  24.948   3.149
71538W        W43264   7.368  26.195  14.363
71539W        W43265   2.943  10.889   1.471
71540W        W43266  32.448  25.153  12.998
71541W        W43267   6.589  42.913   3.548
71542W        W43268   2.173  18.925  13.496
71543W        W43269  28.561  33.101  11.656
71544W        W43270  24.473  30.676  14.892
71545W        W43271  42.324   1.485  10.542
71546W        W43272   0.767  27.871   4.500
71547W        W43273   8.319  43.753  14.968
71548W        W43274  29.028  21.462  11.978
71549W        W43275  30.186  15.393   5.064
71550W        W43276   8.482  34.154  10.395
71551W        W43277  44.283   3.855  12.158
71552W        W43278  43.548  25.964  12.816
71553W        W43279  18.238  26.482  11.408
71554W        W43280  14.206  40.918   4.438
71555W        W43281   5.248   6.865   0.229
71556W        W43282  40.839  18.045  13.084
71557W        W43283   0.576   7.849  12.855
71558W        W43284   5.214   2.027   1.253
71559W        W43285  15.588  35.091  13.464
71560W        W43286  38.865  17.741   3.746
71561W        W43287   7.626  18.865   4.072
71562W        W43288  13.781  28.401  13.338
71563W        W43289   3.262  13.243   1.592
71564W        W43290  10.261  22.263  13.196
71565W        W43291  17.667   6.718   1.272
71566W        W43292  20.494  23.510   3.338
71567W        W43293  20.077  38.339   4.568
71568W        W43294   5.769  41.432  12.284
71569W        W43295  38.487  20.661  13.836
71570W        W43296  27.262   1.431  14.337
71571W        W43297  44.761  21.324  12.010
71572W        W43298   9.855   0.831  10.740
71573W        W43299  17.749  25.382   1.453
71574W        W43300  16.584  19.084   3.799
71575W        W43301  34.566   3.925   3.670
71576W        W43302  38.074  14.888  11.070
71577W        W43303  41.000   7.688  13.834
71578W        W43304  41.845  18.463   3.376
71579W        W43305   3.731  42.483  14.560
71580W        W43306  19.537  20.634  14.132
71581W        W43307  30.875  24.599  11.576
71582W        W43308  39.869  33.216   0.425
71583W        W43309  27.059  29.932  11.562
71584W        W43310  35.816  29.116   1.978
71585W        W43311  38.484  38.527  12.575
71586W        W43312  43.782   8.895   3.616
71587W        W43313  24.615  43.097   3.186
71588W        W43314  41.560  28.437  12.752
71589W        W43315  26.716  38.443  12.357
71590W        W43316   8.160  41.806   1.729
71591W        W43317  12.060  38.563   2.657
71592W        W43318  39.085  24.133   4.130
71593W        W43319  21.681  15.141  11.128
71594W        W43320  14.670   1.728  13.044
71595W        W43321  41.651  16.291   4.298
71596W        W43322  11.317   5.221   3.608
71597W        W43323   1.963   1.937   2.872
71598W        W43324  29.467  31.444   0.885
71599W        W43325   7.869  36.856  12.929
71600W        W43326  38.899   2.796   9.931
71601W        W43327   5.773  15.991  11.702
71602W        W43328  16.289  18.498  11.166
71603W        W43329  25.623   8.663   0.729
71604W        W43330  20.086  15.628   9.849
71605W        W43331  31.144   7.639  11.944
71606W        W43332  41.896  39.256  10.735
71607W        W43333  28.985  19.279   5.072
71608W        W43334  23.447  19.580  14.459
71609W        W43335  18.879   1.993  14.849
71610W        W43336  26.145  11.689  13.506
71611W        W43337  13.303   9.153  14.507
71612W        W43338  39.677  13.142  14.128
71613W        W43339  14.051  24.144   4.732
71614W        W43340  24.083  32.234   5.325
71615W        W43341  25.004   9.220  13.263
71616W        W43342  15.280  32.878  12.584
71617W        W43343  21.974  30.157  13.581
71618W        W43344  26.264   2.881   2.687
71619W        W43345  36.967   7.991   4.953
71620W        W43346  32.799  18.839  10.779
71621W        W43347  43.849  21.313   0.743
71622W        W43348  11.670   2.766   3.712
71623W        W43349  13.663  24.203   4.410
71624W        W43350  12.786  13.353   3.658
71625W        W43351  25.611   5.912   4.554
71626W        W43352  14.498  32.149  13.536
71627W        W43353   1.000  21.286   3.703
71628W        W43354  25.512   3.801  11.561
71629W        W43355   8.234  40.086  13.007
71630W        W43356   8.354  28.072   4.629
71631W        W43357  20.320  24.055  12.713
71632W        W43358   4.889  11.648   2.459
71633W        W43359   8.665  13.739   3.403
71634W        W43360  40.217  31.208  14.041
71635W        W43361  20.648  14.078  11.002
71636W        W43362  10.573  42.700  14.533
71637W        W43363   8.149  11.722  11.536
71638W        W43364  29.611  44.398   3.649
71639W        W43365  33.026  14.283   0.511
71640W        W43366  39.556   3.073   1.338
71641W        W43367  15.289   8.930   2.810
71642W        W43368  13.517   4.722  14.426
71643W        W43369  28.134  25.254  10.773
71644W        W43370   1.807  22.941   3.294
71645W        W43371  36.929   7.459  13.725
71646W        W43372  14.014  22.356   0.002
71647W        W43373  39.999  25.636   0.370
71648W        W43374   6.137  40.561  11.974
71649W        W43375   9.372  36.326  12.999
71650W        W43376   7.207  43.502  12.491
71651W        W43377  25.612   4.242  12.418
71652W        W43378  22.220   5.681  12.093
71653W        W43379  19.655  23.128  13.966
71654W        W43380  21.023  13.521  13.351
71655W        W43381  41.013  44.478  12.993
71656W        W43382  42.608  25.919  14.294
71657W        W43383   4.811   2.340  12.889
71658W        W43384  27.961   7.413   4.584
71659W        W43385  12.211  32.355   3.644
71660W        W43386  24.497  44.715   0.990
71661W        W43387  22.063   2.012  13.865
71662W        W43388  31.991   9.159   0.457
71663W        W43389   3.392  40.994   4.627
71664W        W43390  25.016  32.522  11.411
71665W        W43391  24.842  13.340   5.597
71666W        W43392  32.156  16.546  12.610
71667W        W43393  21.479  22.144  12.850
71668W        W43394  43.285  25.060  11.199
71669W        W43395  25.158  22.181  12.455
71670W        W43396  24.027   6.418  14.295
71671W        W43397  41.321   0.130  11.259
71672W        W43398  23.021  23.050  14.771
71673W        W43399   1.736  36.257  11.253
71674W        W43400  41.653  25.896  12.081
71675W        W43401  23.619  36.788  14.522
71676W        W43402  15.252  42.717  13.278
71677W        W43403  19.476  28.955  13.911
71678W        W43404  20.319  30.926   4.125
71679W        W43405   2.327   8.148   2.784
71680W        W43406   4.852  20.730   1.907
71681W        W43407  25.929  37.544  14.288
71682W        W43408  34.265  28.630   3.276
71683W        W43409  25.205  39.947  13.250
71684W        W43410  22.315   0.377   2.682
71685W        W43411  34.070  30.425   3.154
71686W        W43412  25.136  42.715   3.973
71687W        W43413  40.839  14.675   3.241
71688W        W43414  41.109  25.003  13.946
71689W        W43415   8.353   8.340   3.677
71690W        W43416   4.751  21.239   4.521
71691W        W43417  41.007  17.222   3.134
71692W        W43418   0.516  11.384  11.192
71693W        W43419  44.900   8.440   0.739
71694W        W43420  23.702   1.171   2.452
71695W        W43421  22.293  39.383   0.703
71696W        W43422  34.100   6.223   0.455
71697W        W43423  42.228  17.406   3.227
71698W        W43424  42.349  14.872   0.993
71699W        W43425   9.275   0.689  11.577
71700W        W43426   0.788  41.513   2.212
71701W        W43427  44.858  11.662   0.169
71702W        W43428  12.366  26.495  11.562
71703W        W43429  14.838  24.443   3.248
71704W        W43430  37.414   0.530   0.266
71705W        W43431   2.534  20.260  13.581
71706W        W43432  33.012  27.405   4.850
71707W        W43433   7.877   5.465   3.438
71708W        W43434  25.055  31.839  13.046
71709W        W43435  25.583   2.265   4.456
71710W        W43436  11.319  33.620   3.187
71711W        W43437   7.190  13.160  12.464
71712W        W43438  16.550  35.489   1.876
71713W        W43439  38.572  35.552   2.747
71714W        W43440  36.805  22.678   4.129
71715W        W43441   1.301   0.754   4.120
71716W        W43442   9.340  23.773  13.811
71717W        W43443  39.970  34.386   4.042
71718W        W43444  10.415  10.906  13.062
71719W        W43445  10.289  27.427  14.470
71720W        W43446  27.686  39.906   2.217
71721W        W43447  15.588  18.963   3.882
71722W        W43448  41.831   2.836   3.650
71723W        W43449   7.225   9.023  13.367
71724W        W43450   7.928  17.727  11.913
71725W        W43451  28.263  21.745  14.887
71726W        W43452  36.321   3.550  11.053
71727W        W43453  22.177   8.456  12.623
71728W        W43454  30.287  27.968  13.449
71729W        W43455  43.791  14.075  13.621
71730W        W43456  27.898  31.471  14.274
71731W        W43457  24.536  41.984  12.587
71732W        W43458  30.492   6.040   2.017
71733W        W43459   5.339  42.991  13.219
71734W        W43460  35.376   6.487  13.833
71735W        W43461  13.805  27.490   3.467
71736W        W43462  15.396  12.543   0.700
71737W        W43463   1.803  18.545  10.734
71738W        W43464  36.906  16.714   4.454
71739W        W43465   9.811  22.533  13.315
71740W        W43466  30.592  30.987  11.485
71741W        W43467   4.306  34.020   3.291
71742W        W43468   7.371  28.992  11.524
71743W        W43469  40.426  24.456   2.349
71744W        W43470   1.311   1.554   2.537
71745W        W43471  18.054  14.324   3.735
71746W        W43472  21.445  22.565   4.218
71747W        W43473  43.805   9.263  13.021
71748W        W43474  35.104   9.005   0.747
71749W        W43475  25.294  35.336   1.735
71750W        W43476  33.291  32.542  14.464
71751W        W43477  10.808  43.175   3.850
71752W        W43478  16.883  44.885  11.577
71753W        W43479  32.112  20.515  12.547
71754W        W43480  31.042  11.906   3.558
71755W        W43481  13.716  34.986  11.225
71756W        W43482  23.717  43.000  11.055
71757W        W43483  21.110  33.855   2.707
71758W        W43484  35.912  43.720  13.465
71759W        W43485  26.530   7.168  14.416
71760W        W43486  30.944  21.636   1.325
71761W        W43487   9.155   3.779  13.857
71762W        W43488  22.366  10.919  12.818
71763W        W43489  33.645   0.068  11.941
71764W        W43490   2.322  32.046  12.870
71765W        W43491   4.157  22.713   3.331
71766W        W43492  41.426  36.899  12.048
71767W        W43493  19.636   5.612   2.313
71768W        W43494   8.413  34.624   4.052
71769W        W43495   4.694  33.324  10.217
71770W        W43496   4.985  32.851  11.083
71771W        W43497   6.992   8.316  13.739
71772W        W43498  23.751   3.634   3.384
71773W        W43499  26.232  23.288  12.346
71774W        W43500  13.268   3.463  10.286
71775W        W43501  29.331  34.218   3.746
71776W        W43502  29.244  32.643   4.807
71777W        W43503  39.808   5.225   4.640
71778W        W43504   1.171  20.548   0.930
71779W        W43505  44.025  31.489  12.911
71780W        W43506  38.387  33.945  12.429
71781W        W43507  37.806  43.443   4.581
71782W        W43508  26.500  21.104  13.091
71783W        W43509  39.804  32.084  11.456
71784W        W43510   1.327  34.834   0.319
71785W        W43511  37.388  17.184   3.080
71786W        W43512   5.353   9.082   3.384
71787W        W43513  10.545  37.400  14.482
71788W        W43514  26.915   6.729  11.639
71789W        W43515  44.346  31.126  14.457
71790W        W43516   6.069  15.856  13.811
71791W        W43517  17.206  43.915   4.543
71792W        W43518  39.427  41.867   4.307
71793W        W43519  42.735  17.629   1.492
71794W        W43520  14.837   7.153  13.211
71795W        W43521  18.244  18.354  11.879
71796W        W43522   6.896   5.728   3.720
71797W        W43523  36.844  37.925   3.203
71798W        W43524  10.599  14.048   4.910
71799W        W43525  24.843  29.084  11.079
71800W        W43526  37.025  25.198  11.884
71801W        W43527  12.155  35.098   4.258
71802W        W43528   5.263   9.733   3.585
71803W        W43529  14.321  42.907   2.884
71804W        W43530   2.322  31.145  14.333
71805W        W43531  19.342  24.670  12.922
71806W        W43532  17.472  38.809  12.969
71807W        W43533  30.287  15.789   3.401
71808W        W43534  28.058   0.227   0.355
71809W        W43535  32.388  41.346   2.290
71810W        W43536  10.786   6.070  11.559
71811W        W43537  36.511   4.310  12.006
71812W        W43538   0.930  25.041  10.689
71813W        W43539  24.380  18.775   1.318
71814W        W43540  11.721  43.960   1.960
71815W        W43541  41.494  22.546   4.592
71816W        W43542  41.941  10.628  14.478
71817W        W43543  18.237  28.432   2.859
71818W        W43544  10.693  12.269  11.910
71819W        W43545  24.735  13.334  11.632
71820W        W43546   7.277   5.677   1.787
71821W        W43547  25.890  11.844   1.880
71822W        W43548   6.220  13.676   0.132
71823W        W43549  44.338  28.456  10.679
71824W        W43550   1.154  10.261  13.928
71825W        W43551  43.045   9.263   2.203
71826W        W43552  38.574  13.788  10.972
71827W        W43553  18.954  39.186   0.844
71828W        W43554  41.991   8.310  11.849
71829W        W43555  19.971  26.078   1.832
71830W        W43556  30.695  28.004   2.352
71831W        W43557  25.726   9.623  11.997
71832W        W43558  23.279  37.085   0.389
71833W        W43559  36.106  23.669  11.741
71834W        W43560   0.841   3.963  11.729
71835W        W43561   5.758  25.216   0.316
71836W        W43562   8.339   1.728   2.356
71837W        W43563   4.246  15.805   1.521
71838W        W43564  17.531  22.082   3.441
71839W        W43565  24.976  12.450   2.939
71840W        W43566  17.166  26.481  14.395
71841W        W43567  31.944  10.106   1.318
71842W        W43568   0.740  18.666   3.601
71843W        W43569  32.054  35.100   2.831
71844W        W43570   7.878   9.245   3.743
71845W        W43571  26.094   7.958  11.521
71846W        W43572   7.631  20.660   3.703
71847W        W43573   0.661  11.779  14.765
71848W        W43574   9.792  28.491  10.729
71849W        W43575  41.863   2.191   2.050
71850W        W43576  19.316   1.979  12.565
71851W        W43577  26.066  31.378  11.088
71852W        W43578  11.820  23.446  12.831
71853W        W43579  14.303   8.313   0.813
71854W        W43580  17.059  23.247  10.947
71855W        W43581  23.202   8.389  11.612
71856W        W43582  26.009  12.076  14.716
71857W        W43583   0.827  30.883   2.622
71858W        W43584   1.280  40.544  10.747
71859W        W43585  35.905  26.136  13.970
71860W        W43586  31.549  30.451   2.959
71861W        W43587   2.161  29.518  12.970
71862W        W43588  17.504  38.991  11.020
71863W        W43589  36.112  27.692   2.360
71864W        W43590  11.211   9.595   1.217
71865W        W43591  14.762   2.323  13.873
71866W        W43592  10.342   2.578   0.342
71867W        W43593  41.924   2.547  11.200
71868W        W43594  35.194  24.057  13.437
71869W        W43595  22.316  29.524   3.675
71870W        W43596   9.768  23.549  10.930
71871W        W43597  16.876  44.801   0.720
71872W        W43598   7.154  31.456  11.599
71873W        W43599  12.174  36.616  10.667
71874W        W43600   0.024   9.170  13.515
71875W        W43601  11.679  26.672  12.581
71876W        W43602  20.994  41.025   2.731
71877W        W43603  33.335  24.706  13.554
71878W        W43604  19.328  15.539  14.498
71879W        W43605  40.872   4.873  11.931
71880W        W43606  11.973  23.576   3.735
71881W        W43607  39.300   6.204  12.056
71882W        W43608  16.226  37.471  14.273
71883W        W43609   4.398   5.267  11.889
71884W        W43610  21.065  21.661   1.041
71885W        W43611  33.148  29.519  12.342
71886W        W43612   1.437  20.176  14.393
71887W        W43613   1.230  43.994   0.850
71888W        W43614   2.904  40.438  14.020
71889W        W43615  34.819   2.904   1.728
71890W        W43616  29.974  12.284  14.077
71891W        W43617   1.452   6.132  14.846
71892W        W43618  25.042  17.089  11.831
71893W        W43619   8.742  30.976   2.641
71894W        W43620  26.315  23.945   3.286
71895W        W43621  26.663   8.432  11.207
71896W        W43622  15.158  27.448  11.574
71897W        W43623  12.132  33.621   2.302
71898W        W43624  10.188  18.463   3.826
71899W        W43625  29.297   4.351  14.899
71900W        W43626  21.566  26.077  14.801
71901W        W43627   4.756   3.438  10.995
71902W        W43628  19.109  23.851   4.844
71903W        W43629  25.683  35.525  10.371
71904W        W43630  21.603  24.396   2.219
71905W        W43631   2.294  18.056   1.264
71906W        W43632   0.070   6.910  14.701
71907W        W43633  29.358   7.801  14.904
71908W        W43634  43.236  17.662   0.279
71909W        W43635  44.150  32.448  10.785
71910W        W43636  44.897  37.693   2.410
71911W        W43637  26.167   3.630  14.354
71912W        W43638  18.226  28.568   4.580
71913W        W43639  24.080  26.968  12.115
71914W        W43640  28.282  41.928   2.593
71915W        W43641   9.048  25.878  12.090
71916W        W43642  12.897  28.654   4.043
71917W        W43643   7.703   4.268  11.855
71918W        W43644  43.575  44.109  14.728
71919W        W43645  37.875   4.318  14.253
71920W        W43646  23.026  11.209   3.853
71921W        W43647  24.798  41.864   0.796
71922W        W43648  44.211  33.924   3.213
71923W        W43649  41.129  20.773  14.008
71924W        W43650  33.350  29.915  14.372
71925W        W43651  22.528   0.224  14.520
71926W        W43652   0.365  20.616  11.839
71927W        W43653  41.921  32.288   2.391
71928W        W43654   1.571  24.317  13.544
71929W        W43655   0.172  21.953   4.304
71930W        W43656  11.283  27.048   2.736
71931W        W43657  19.177  39.221  13.581
71932W        W43658  31.955  16.257  10.954
71933W        W43659  36.137  13.601   1.794
71934W        W43660   5.822  13.398   3.226
71935W        W43661   0.376  34.528  13.392
71936W        W43662   0.350  17.282   1.190
71937W        W43663  41.609  19.699  13.487
71938W        W43664   0.891  30.574   4.306
71939W        W43665  38.951  31.924  12.893
71940W        W43666  33.058  13.096   0.494
71941W        W43667   4.313   2.979   0.101
71942W        W43668  27.882  27.680  12.719
71943W        W43669  10.775  33.906  11.489
71944W        W43670  18.146  10.177   1.351
71945W        W43671   1.065   2.375   3.264
71946W        W43672   0.136  20.050  14.736
71947W        W43673  17.557  18.036  12.374
71948W        W43674  41.707   6.637  11.127
71949W        W43675  44.018  20.227  12.564
71950W        W43676  32.856  31.154   3.301
71951W        W43677   5.919   2.676   0.939
71952W        W43678  28.038  38.376  11.979
71953W        W43679  33.970  27.889  11.078
71954W        W43680  11.441  13.220   0.489
71955W        W43681  29.683  38.965   2.909
71956W        W43682  17.599  13.507  12.562
71957W        W43683  37.160  23.968   4.512
71958W        W43684  14.692   4.387  12.294
71959W        W43685   4.228  20.088  11.932
71960W        W43686   2.294  14.054   0.315
71961W        W43687  21.002  40.831  13.763
71962W        W43688   4.212  14.699  13.873
71963W        W43689  23.826   9.936  13.782
71964W        W43690  10.459  11.908  14.970
71965W        W43691  22.648  39.803   4.539
71966W        W43692  32.877  31.775   0.972
71967W        W43693  32.747   3.036  14.359
71968W        W43694   3.084   3.523   3.818
71969W        W43695   6.275  34.126  14.531
71970W        W43696   6.258   8.308   2.968
71971W        W43697  23.520  16.516  13.029
71972W        W43698  10.131  17.110  11.515
71973W        W43699  16.776   7.733   1.845
71974W        W43700  13.876  43.859   2.749
71975W        W43701  42.483  37.434   1.175
71976W        W43702   7.633   7.605   4.559
71977W        W43703   8.598   5.487  13.525
71978W        W43704   9.233   9.651  14.896
71979W        W43705  29.808  35.621   3.325
71980W        W43706   4.846  28.999  12.465
71981W        W43707   0.293  30.075   0.357
71982W        W43708  31.669  33.955   0.384
71983W        W43709  36.292  31.033   2.897
71984W        W43710  39.768  37.290   2.909
71985W        W43711  19.021  19.686  11.098
71986W        W43712  23.042   7.866  12.533
71987W        W43713  30.609  44.003  12.938
71988W        W43714  24.022  22.118   4.578
71989W        W43715   0.998  15.064   4.614
71990W        W43716   9.368   4.573   3.774
71991W        W43717  23.552  12.841  12.790
71992W        W43718  30.017  24.975   0.678
71993W        W43719  34.769   5.827  12.402
71994W        W43720  43.362  20.834  11.668
71995W        W43721  15.294  25.775   1.912
71996W        W43722   7.379   0.760   4.125
71997W        W43723  36.803  23.341   1.702
71998W        W43724  17.058   3.499  11.162
71999W        W43725  14.818  36.989  13.922
72000W        W43726  38.286  32.172   3.341
72001W        W43727  24.530  31.414  11.533
72002W        W43728  33.505  44.441  10.216
72003W        W43729  42.669  28.041   5.163
72004W        W43730  40.466  21.434   2.286
72005W        W43731  28.600  43.510  11.497
72006W        W43732  20.114  16.025  14.286
72007W        W43733   1.568   5.844   0.325
72008W        W43734  25.238  15.852  11.710
72009W        W43735  40.250   5.193   4.314
72010W        W43736  21.214   3.594  10.491
72011W        W43737  41.480  16.179   0.824
72012W        W43738   8.412  25.056  12.070
72013W        W43739   5.306   5.962   5.016
72014W        W43740   2.434  36.605   1.749
72015W        W43741  43.795  34.886  10.554
72016W        W43742  32.348  33.955   3.220
72017W        W43743  26.147   5.476  14.087
72018W        W43744  27.794   2.308  13.450
72019W        W43745   3.437   2.932   0.119
72020W        W43746  20.805   0.325  13.845
72021W        W43747  15.872  44.635   4.466
72022W        W43748  42.256  29.708  14.483
72023W        W43749  39.070  44.750   0.423
72024W        W43750  33.860   1.338  14.278
72025W        W43751  10.113  34.351   2.234
72026W        W43752  38.790  12.897  12.964
72027W        W43753   7.747   2.743  14.825
72028W        W43754  18.738  35.120   1.529
72029W        W43755   9.780   9.277  12.446
72030W        W43756   8.950  42.019  10.440
72031W        W43757  29.321  43.304  10.961
72032W        W43758  29.643   5.433  12.631
72033W        W43759  32.525   2.669  12.354
72034W        W43760  21.805  18.292  13.491
72035W        W43761  15.755  16.807  13.086
72036W        W43762   4.959  43.408  12.314
72037W        W43763  32.806  42.343  11.414
72038W        W43764  30.296  10.344  12.058
72039W        W43765  41.749  27.651  13.358
72040W        W43766  27.041   9.175  11.559
72041W        W43767  23.694  42.935   4.337
72042W        W43768  27.960  15.599   3.622
72043W        W43769  30.433   3.349   3.613
72044W        W43770  18.220  14.597   0.344
72045W        W43771  24.079  21.287   0.717
72046W        W43772  10.917  35.792  10.580
72047W        W43773  32.420  32.657  13.314
72048W        W43774  40.875   8.646  12.419
72049W        W43775  26.244  18.668   1.970
72050W        W43776  14.680   5.609   2.001
72051W        W43777  44.572  30.435  11.564
72052W        W43778  38.833   0.625  11.944
72053W        W43779   9.951   3.228   4.743
72054W        W43780  28.184  11.632   3.933
72055W        W43781  10.404  27.702   9.711
72056W        W43782   3.156  33.503  12.899
72057W        W43783  26.609  24.969  11.646
72058W        W43784  32.937  39.015  14.505
72059W        W43785   2.754  12.475  12.645
72060W        W43786  44.783   8.171  11.166
72061W        W43787  43.811  27.989  12.570
72062W        W43788   2.198  10.690   0.309
72063W        W43789  15.382   8.794  14.033
72064W        W43790  10.070   0.398   1.310
72065W        W43791  21.232   0.825  12.543
72066W        W43792  28.450  12.265  11.552
72067W        W43793  24.977   0.112   5.051
72068W        W43794  29.138  35.446  11.268
72069W        W43795  24.172  38.022  14.289
72070W        W43796   1.946  35.003  13.272
72071W        W43797  41.090   4.884   4.068
72072W        W43798   0.191  32.341   2.372
72073W        W43799  27.589  25.273   2.263
72074W        W43800  44.795  25.137  14.923
72075W        W43801  13.330  14.103  14.989
72076W        W43802   4.359  38.313  12.274
72077W        W43803  12.789   7.093  10.690
72078W        W43804  44.466  23.115   3.543
72079W        W43805   5.038  26.570   0.443
72080W        W43806  16.666   7.321  11.148
72081W        W43807  36.379  31.649   3.667
72082W        W43808   0.840  43.513   1.973
72083W        W43809  23.142  32.133   1.817
72084W        W43810  40.834   6.570   3.880
72085W        W43811  35.409  43.809  10.557
72086W        W43812  16.047  36.927   2.277
72087W        W43813   2.283  20.880   1.952
72088W        W43814  25.209  39.809   4.352
72089W        W43815   7.198  38.701  12.344
72090W        W43816   9.317   0.621   4.657
72091W        W43817  21.720  26.818   3.396
72092W        W43818  35.008  41.281   4.284
72093W        W43819   7.661  35.441   1.196
72094W        W43820   2.647  39.586   0.317
72095W        W43821  20.187  39.840   0.300
72096W        W43822  12.671  33.167   3.706
72097W        W43823  40.742  31.117   4.116
72098W        W43824  32.451  39.888  10.248
72099W        W43825  14.589  19.738  13.656
72100W        W43826  32.570  10.868   4.092
72101W        W43827   5.282  15.989  14.778
72102W        W43828  12.310  43.796   4.786
72103W        W43829  36.608  20.735  14.306
72104W        W43830  29.047  10.381   0.829
72105W        W43831  14.131  38.927  14.685
72106W        W43832  40.610  28.867   3.691
72107W        W43833  10.573  15.255  12.815
72108W        W43834   0.336  11.255  12.060
72109W        W43835  17.850  32.061  12.876
72110W        W43836  16.123  17.228  12.379
72111W        W43837  41.400  10.243   1.363
72112W        W43838  42.053  28.001  12.156
72113W        W43839   8.805  22.777  11.588
72114W        W43840  13.253  36.015   1.913
72115W        W43841  10.298  12.278   3.210
72116W        W43842   6.372  42.953  12.889
72117W        W43843   1.261  19.188  14.662
72118W        W43844  23.107  30.924   1.299
72119W        W43845  17.402  17.212  10.480
72120W        W43846   4.002  26.567  11.152
72121W        W43847  37.898  41.959   3.201
72122W        W43848   2.323  24.342   2.559
72123W        W43849  16.116  12.272   3.207
72124W        W43850  38.428  14.454  12.192
72125W        W43851   5.391  32.084  11.327
72126W        W43852  24.377   4.385   1.918
72127W        W43853   8.140  33.209   0.636
72128W        W43854  18.605   7.675  14.801
72129W        W43855  44.207  14.119  11.106
72130W        W43856   8.720  35.876   3.789
72131W        W43857  28.169  29.760  11.112
72132W        W43858  31.672  18.514  11.484
72133W        W43859  12.780  44.999  11.935
72134W        W43860  12.876  24.036   0.313
72135W        W43861   0.293  26.508  12.896
72136W        W43862  12.450  37.070  14.388
72137W        W43863  33.881   1.452  12.014
72138W        W43864  43.423  41.482   4.061
72139W        W43865  26.032  34.196   3.789
72140W        W43866  31.093   9.325  13.710
72141W        W43867   0.294  13.502  12.670
72142W        W43868   2.786  36.624  11.624
72143W        W43869  36.861  20.190   3.780
72144W        W43870  30.978  27.044   1.696
72145W        W43871  42.636  32.136  11.502
72146W        W43872  25.700  33.358  12.490
72147W        W43873   4.488   3.040   2.733
72148W        W43874   2.442  43.695  10.762
72149W        W43875  38.060  44.940  10.706
72150W        W43876  44.758  37.389   3.764
72151W        W43877   7.268   0.415   4.531
72152W        W43878  10.619  30.974  13.341
72153W        W43879  19.548  21.132  12.772
72154W        W43880  33.017  18.142   1.344
72155W        W43881  10.520  17.599   2.038
72156W        W43882  32.605  11.233   2.330
72157W        W43883   7.726  22.434   1.192
72158W        W43884  38.980  44.458  10.475
72159W        W43885  19.647  27.657   0.232
72160W        W43886  23.763  24.077  10.589
72161W        W43887   0.327   7.821   2.084
72162W        W43888  30.701  23.939   4.551
72163W        W43889  38.350  44.353   2.886
72164W        W43890  27.742   3.689  14.305
72165W        W43891  18.220   3.818  14.741
72166W        W43892  20.665  44.313   4.038
72167W        W43893   1.392  30.642  14.973
72168W        W43894   8.752  31.952   2.195
72169W        W43895  39.730  25.965   1.872
72170W        W43896  44.271  35.255  13.407
72171W        W43897  25.648  24.514  11.522
72172W        W43898  10.268  11.747  12.476
72173W        W43899  26.115  12.882   0.252
72174W        W43900  37.852  42.919  11.078
72175W        W43901  24.752   8.760  12.562
72176W        W43902  22.969  42.793   2.701
72177W        W43903  41.355  33.715   1.740
72178W        W43904   8.231  40.295   4.425
72179W        W43905  42.784  15.059   1.195
72180W        W43906   9.800  13.603  11.200
72181W        W43907   9.981  23.011  13.455
72182W        W43908  21.719  14.483  14.495
72183W        W43909  37.908  22.354   3.188
72184W        W43910  18.239   1.925   4.647
72185W        W43911   8.281   0.343   4.194
72186W        W43912  19.334  38.790   4.033
72187W        W43913  23.763   7.149  13.257
72188W        W43914  42.952  28.095   4.091
72189W        W43915   9.305  24.958   5.039
72190W        W43916  15.985  30.959   0.229
72191W        W43917  24.658   7.802   0.885
72192W        W43918  44.653   7.439  11.787
72193W        W43919  14.309   4.424   2.432
72194W        W43920   9.643  26.559   2.241
72195W        W43921  19.822  32.734   3.307
72196W        W43922   7.287   4.307   2.732
72197W        W43923  31.913  31.664  10.413
72198W        W43924  14.346  34.461   1.214
72199W        W43925  17.383  38.238  10.622
72200W        W43926  38.039   1.957   1.290
72201W        W43927  31.618   3.066   0.304
72202W        W43928  14.912  33.978  14.968
72203W        W43929  11.106  40.862   2.423
72204W        W43930  20.741   6.866   2.726
72205W        W43931   6.472  24.767  12.701
72206W        W43932  17.692  16.678  13.109
72207W        W43933   2.045  11.083  14.543
72208W        W43934  26.154   0.724  12.183
72209W        W43935  22.088   7.346  14.488
72210W        W43936  27.481  15.567  11.733
72211W        W43937  31.678  37.730  11.365
72212W        W43938  38.915   4.453   4.143
72213W        W43939  23.111  22.773   4.554
72214W        W43940  16.823  22.210   2.927
72215W        W43941  29.768   0.143   2.488
72216W        W43942  32.901  36.357   2.361
72217W        W43943   1.864  43.051  11.090
72218W        W43944  16.627   0.253  14.079
72219W        W43945  35.384  22.499   3.196
72220W        W43946   5.214  22.006   3.189
72221W        W43947   9.651   3.300  10.412
72222W        W43948  44.753  39.054  13.935
72223W        W43949  16.126  24.572   0.741
72224W        W43950  44.126  36.590  10.635
72225W        W43951   7.462  21.242  13.177
72226W        W43952   0.392  36.527  13.537
72227W        W43953  42.966  39.795  13.026
72228W        W43954  28.401  19.699  12.052
72229W        W43955  19.089  33.349   3.332
72230W        W43956   4.917  35.358  13.943
72231W        W43957  29.205  43.334  13.493
72232W        W43958  38.169  39.537   2.627
72233W        W43959  24.018   4.907   2.575
72234W        W43960  10.322  24.697   0.926
72235W        W43961  14.767  11.371   1.460
72236W        W43962  37.338   7.807   4.588
72237W        W43963  11.996  16.345  13.995
72238W        W43964  28.472  33.606  11.572
72239W        W43965   0.893  21.744   1.040
72240W        W43966  36.497  11.352  12.454
72241W        W43967  23.181  37.003  12.011
72242W        W43968  39.981  19.931  13.547
72243W        W43969  29.996  25.649  10.162
72244W        W43970   8.823  41.402   2.682
72245W        W43971  33.898  41.834   1.602
72246W        W43972  37.072  32.033   1.433
72247W        W43973  26.046  40.164  13.337
72248W        W43974  30.689   0.342  10.403
72249W        W43975  12.149  16.647   1.187
72250W        W43976   2.549   4.242   2.291
72251W        W43977   5.777  11.606  14.423
72252W        W43978  18.678  43.930  14.222
72253W        W43979  33.517  35.339  13.069
72254W        W43980   4.817  34.484  12.476
72255W        W43981  22.953  20.167  12.957
72256W        W43982  13.504  24.954  10.725
72257W        W43983   2.948  13.650  14.516
72258W        W43984  25.018  23.773   4.599
72259W        W43985   9.851  43.697  12.032
72260W        W43986  33.338   9.515  14.071
72261W        W43987  11.170  17.256  13.172
72262W        W43988  28.903   4.372   3.701
72263W        W43989  32.371  11.233   0.004
72264W        W43990   2.798  18.117   2.349
72265W        W43991  19.716  15.798   4.563
72266W        W43992  12.763  43.866   2.985
72267W        W43993  36.506  19.481   2.239
72268W        W43994  36.940  44.504  13.895
72269W        W43995  38.200  32.862  14.520
72270W        W43996  43.742  43.044   0.457
72271W        W43997  18.556  17.603  14.860
72272W        W43998   9.216   5.609  12.999
72273W        W43999  20.878  28.128   1.839
72274W        W44000   8.322   6.451  10.712
72275W        W44001  11.043   5.341   1.207
72276W        W44002  38.638  11.831   3.714
72277W        W44003   0.922  29.146  12.621
72278W        W44004   9.968  10.172  11.598
72279W        W44005  22.273   3.870  13.525
72280W        W44006  34.897  33.608   2.640
72281W        W44007  32.475  39.238   2.797
72282W        W44008  36.154  11.160  11.213
72283W        W44009   4.482  28.091   0.890
72284W        W44010   1.213  35.491   1.337
72285W        W44011  19.351  16.796  13.594
72286W        W44012  26.048  38.541   1.814
72287W        W44013  36.122  36.104  13.988
72288W        W44014  37.280  13.905  14.262
72289W        W44015  22.220  42.587  13.523
72290W        W44016   5.158  41.428  11.005
72291W        W44017  32.233  38.310  14.128
72292W        W44018  23.177  32.134   4.603
72293W        W44019  22.198  39.503   4.570
72294W        W44020  25.166  27.038   2.310
72295W        W44021  39.401  11.601   3.029
72296W        W44022  44.707  14.554  12.138
72297W        W44023   6.679  21.973   3.289
72298W        W44024  18.251  32.976  11.128
72299W        W44025  18.256  11.678  13.019
72300W        W44026  17.317   9.199  12.498
72301W        W44027  26.047  39.828   0.989
72302W        W44028  40.110  28.600  10.688
72303W        W44029  28.197  38.940  11.530
72304W        W44030   2.268  17.852   0.374
72305W        W44031  15.618  19.739   0.337
72306W        W44032   8.579  17.712  13.848
72307W        W44033  10.713   2.264   3.703
72308W        W44034  13.239  44.787  14.881
72309W        W44035  26.694  36.130  12.820
72310W        W44036  28.548   2.011   4.334
72311W        W44037  12.865  39.782   3.161
72312W        W44038   5.764  29.655   5.027
72313W        W44039   4.369  32.705   2.582
72314W        W44040  29.200  33.422  10.955
72315W        W44041  39.922  25.970  11.252
72316W        W44042  39.143  32.485   3.205
72317W        W44043  15.540  31.482  12.126
72318W        W44044   6.834  12.822  13.369
72319W        W44045  15.979  30.079   0.369
72320W        W44046  20.605  21.071   0.940
72321W        W44047  33.359  37.826  12.891
72322W        W44048  43.649  42.553   1.678
72323W        W44049  17.232  42.590   3.363
72324W        W44050  35.993   0.313   2.711
72325W        W44051  18.902  25.187   2.152
72326W        W44052  21.307   0.287  13.993
72327W        W44053  23.258  21.579  12.005
72328W        W44054   5.204   8.976   4.268
72329W        W44055   7.907  18.131  13.552
72330W        W44056  29.178   4.764  14.593
72331W        W44057  33.910   1.349   3.774
72332W        W44058  25.163  27.174   1.502
72333W        W44059   2.933  10.629   4.195
72334W        W44060  41.709  29.482   0.023
72335W        W44061  26.493   4.030  13.494
72336W        W44062  44.344  18.064  14.201
72337W        W44063  17.610  35.510   0.767
72338W        W44064  18.360  28.082   3.790
72339W        W44065  14.403  29.362  11.485
72340W        W44066  32.990  23.965   1.899
72341W        W44067  32.371   7.344   3.191
72342W        W44068  43.901  43.811  14.976
72343W        W44069  42.153   8.609   1.450
72344W        W44070  27.763   1.354  12.918
72345W        W44071  33.652   6.852  13.050
72346W        W44072  13.366  17.963  13.845
72347W        W44073  28.545   4.444   2.248
72348W        W44074  30.668   1.792   1.888
72349W        W44075  41.387  11.811  14.891
72350W        W44076  10.849   7.749   0.793
72351W        W44077  11.911  37.030   2.430
72352W        W44078  21.713  30.616  11.052
72353W        W44079  12.096   1.129  13.405
72354W        W44080  39.011  21.790   1.715
72355W        W44081  42.318  38.130   4.237
72356W        W44082  37.401  40.063   3.842
72357W        W44083  35.954  33.591   0.730
72358W        W44084  20.491  29.095  13.753
72359W        W44085  40.283  27.228   0.275
72360W        W44086  42.314  41.490  14.085
72361W        W44087  25.431   0.742  13.099
72362W        W44088  30.109   0.601  11.227
72363W        W44089  19.032  35.479   4.591
72364W        W44090  18.485  41.139   1.203
72365W        W44091   5.014  40.419  11.046
72366W        W44092  24.481  28.031  13.845
72367W        W44093   0.052  24.392  13.833
72368W        W44094   3.191  44.271   4.081
72369W        W44095  42.996  19.239   3.429
72370W        W44096  10.397  21.198   0.853
72371W        W44097  21.041  25.994   1.392
72372W        W44098   3.275  42.893   0.842
72373W        W44099   0.169   7.287   4.983
72374W        W44100  34.394  43.437  10.336
72375W        W44101  12.800  33.171   1.795
72376W        W44102  32.862  33.906   3.245
72377W        W44103  37.952  31.335  12.160
72378W        W44104   9.333   3.082   1.189
72379W        W44105  42.254  32.292   0.105
72380W        W44106   5.447  11.970   0.493
72381W        W44107  38.925  27.588   3.045
72382W        W44108  25.154  17.342   1.354
72383W        W44109  40.865  40.524  11.119
72384W        W44110  35.520  37.936  14.068
72385W        W44111  22.770  40.276   0.270
72386W        W44112   0.230  26.207  11.365
72387W        W44113  33.377  42.915   2.198
72388W        W44114   6.422  26.985  12.950
72389W        W44115  18.191   9.706   1.543
72390W        W44116  39.890  17.662  11.632
72391W        W44117   2.990  13.639   2.793
72392W        W44118  42.349   3.907  10.657
72393W        W44119   5.645  27.041  12.600
72394W        W44120  32.646   5.594  14.273
72395W        W44121  24.464  14.091   2.309
72396W        W44122  36.515  11.411  10.533
72397W        W44123  31.355  26.546   4.272
72398W        W44124  28.381   3.831  11.462
72399W        W44125   5.202  38.515   1.213
72400W        W44126  17.495   4.344  11.564
72401W        W44127   6.172  13.584  13.407
72402W        W44128   7.921  42.212   0.366
72403W        W44129  17.889   9.729   2.838
72404W        W44130  44.950  17.129   4.087
72405W        W44131  35.729   0.342  10.690
72406W        W44132  12.880  25.535   3.291
72407W        W44133  28.621  14.853   4.049
72408W        W44134  24.762   9.318   3.145
72409W        W44135  36.581  40.874  13.440
72410W        W44136   5.828  22.720   4.609
72411W        W44137  38.518  21.032   0.542
72412W        W44138  24.056  19.021  10.835
72413W        W44139  29.119  42.305   2.180
72414W        W44140  41.963  40.825   4.221
72415W        W44141   6.884  13.541  14.771
72416W        W44142  16.112  20.228   0.907
72417W        W44143  17.564  20.739   1.781
72418W        W44144  30.921  31.713   3.638
72419W        W44145  14.726   5.347  13.345
72420W        W44146  42.810  15.659   1.234
72421W        W44147  36.147  11.328  12.077
72422W        W44148  27.186  13.100  13.962
72423W        W44149  41.010   6.969   3.593
72424W        W44150  26.602  34.404  14.409
72425W        W44151  30.125   9.304  14.047
72426W        W44152  37.049  18.254  13.449
72427W        W44153  36.935   2.675   3.331
72428W        W44154  44.983  42.702  11.998
72429W        W44155  25.142   2.113   0.992
72430W        W44156  39.856  35.383   2.964
72431W        W44157  28.917  16.764   3.096
72432W        W44158  11.383  30.205  11.293
72433W        W44159   1.255  36.489   2.617
72434W        W44160   9.802  23.210  14.862
72435W        W44161  20.195  44.860  14.806
72436W        W44162  19.208  25.494   1.602
72437W        W44163  25.083  35.770   3.865
72438W        W44164  19.678   6.295  10.777
72439W        W44165  25.720   0.935   3.332
72440W        W44166   2.608  28.721   3.003
72441W        W44167  37.517  37.033   3.541
72442W        W44168  29.698  24.239   3.719
72443W        W44169  25.217  20.139   0.380
72444W        W44170  12.124   2.002  14.944
72445W        W44171   1.219  20.457   2.807
72446W        W44172  39.229  40.896  13.243
72447W        W44173  39.565  36.803  13.847
72448W        W44174  37.144  16.039   1.704
72449W        W44175   3.647   5.398   2.256
72450W        W44176  42.740   4.965   3.746
72451W        W44177  22.896   0.427  11.888
72452W        W44178  37.111  27.942  12.559
72453W        W44179  10.397  37.509   1.806
72454W        W44180  31.311   5.507   1.161
72455W        W44181  12.583  21.372  12.444
72456W        W44182  29.746  11.864   1.798
72457W        W44183  36.435  23.274   2.908
72458W        W44184  25.033  41.931  13.356
72459W        W44185  20.173  27.987  14.482
72460W        W44186  15.747  37.699  12.036
72461W        W44187  30.078  31.036  14.880
72462W        W44188  18.683   1.076   0.994
72463W        W44189  21.210  20.755   2.817
72464W        W44190   4.071  26.214  11.522
72465W        W44191  33.093  19.613  13.098
72466W        W44192  43.900  34.442  12.505
72467W        W44193  21.675  43.727  11.058
72468W        W44194  39.862  31.559   2.150
72469W        W44195  35.916   1.382   4.562
72470W        W44196   3.722  16.397  13.609
72471W        W44197  19.072  20.688   3.398
72472W        W44198   3.972  31.530   3.197
72473W        W44199  36.521  13.189  11.952
72474W        W44200  25.524   1.066   3.798
72475W        W44201  21.493  42.016   1.384
72476W        W44202   9.345  43.533   0.229
72477W        W44203   7.316  19.763   4.467
72478W        W44204  42.776  21.985   0.868
72479W        W44205  24.040  15.205   2.153
72480W        W44206  17.754  31.497   0.916
72481W        W44207  26.175  43.370   4.204
72482W        W44208  37.221   3.308  12.407
72483W        W44209  38.311  19.750   2.469
72484W        W44210  27.205  37.371   0.032
72485W        W44211   7.803  12.417  11.599
72486W        W44212  27.452  36.018   4.161
72487W        W44213   5.287  41.417   4.115
72488W        W44214  11.375  20.489  14.823
72489W        W44215  39.843  26.103   3.811
72490W        W44216   4.875  25.528  12.480
72491W        W44217  39.325  26.732  10.724
72492W        W44218  22.758  14.266  10.294
72493W        W44219   8.176   4.743   0.479
72494W        W44220  32.620  26.153   2.140
72495W        W44221  11.097  44.276   1.484
72496W        W44222  39.181  16.290   0.687
72497W        W44223  25.628   0.065   1.859
72498W        W44224   8.272  30.705   0.873
72499W        W44225  35.481  20.029   1.025
72500W        W44226  40.380  28.554   2.934
72501W        W44227  11.830  31.950   2.484
72502W        W44228  19.553   6.357   4.152
72503W        W44229  30.568  41.294   2.164
72504W        W44230  36.940  32.069  11.147
72505W        W44231  17.715  12.309   4.500
72506W        W44232  15.437   0.759  13.903
72507W        W44233  23.970  27.077   3.682
72508W        W44234  24.391  21.062  14.248
72509W        W44235  13.613  37.988  14.907
72510W        W44236   6.683  18.860   1.802
72511W        W44237  23.929  14.316   1.105
72512W        W44238  39.544  38.838   4.886
72513W        W44239  13.620  33.490   2.280
72514W        W44240  43.828  43.629  11.439
72515W        W44241  38.819  29.975  14.196
72516W        W44242  33.389  23.473  12.076
72517W        W44243  40.269  16.120   2.088
72518W        W44244  22.463  39.030  14.539
72519W        W44245  12.705   0.457   2.153
72520W        W44246   5.314   4.389  12.537
72521W        W44247  15.742  20.109   4.560
72522W        W44248  26.683  21.494   2.702
72523W        W44249  29.404  29.225   3.754
72524W        W44250  37.401  39.537   2.351
72525W        W44251   0.863  11.794   2.564
72526W        W44252  44.039   8.176  10.560
72527W        W44253   8.178  43.450   0.959
72528W        W44254  29.657  18.179   2.545
72529W        W44255  15.123  12.867  11.111
72530W        W44256  24.421  38.207   1.939
72531W        W44257  17.326  29.696  10.803
72532W        W44258   0.598   2.777   4.093
72533W        W44259   8.604  28.040  11.376
72534W        W44260  33.371   4.782  14.438
72535W        W44261  36.306  15.531   4.206
72536W        W44262   5.907  17.228   1.493
72537W        W44263  39.390  35.628   3.638
72538W        W44264  27.676  40.485  13.387
72539W        W44265   1.702  18.468  11.905
72540W        W44266  37.812  26.203  10.165
72541W        W44267  28.511  39.410   4.198
72542W        W44268  16.331  21.077   3.293
72543W        W44269  15.328  35.321  14.427
72544W        W44270  23.522  30.952  11.446
72545W        W44271  42.754  25.458   0.621
72546W        W44272   8.327   5.724  13.130
72547W        W44273  37.903   0.244   1.295
72548W        W44274  14.626  24.513   0.873
72549W        W44275   4.747  11.769  13.086
72550W        W44276  30.578  17.327  13.478
72551W        W44277  40.268  25.570  12.290
72552W        W44278  31.818  23.876  12.275
72553W        W44279  37.818  25.230  11.074
72554W        W44280  16.591  18.306  14.506
72555W        W44281  18.697  13.074   4.508
72556W        W44282   3.937   8.889  10.640
72557W        W44283  33.975  25.133   0.189
72558W        W44284  31.472  27.435  13.995
72559W        W44285  44.230  28.610   1.653
72560W        W44286  34.638   2.266   1.098
72561W        W44287   2.333   8.388  11.202
72562W        W44288  23.425  21.851   3.780
72563W        W44289  27.068  32.370  11.677
72564W        W44290   7.253  14.826   3.790
72565W        W44291  15.188  25.652  13.816
72566W        W44292   5.393  11.861   1.359
72567W        W44293  26.018  16.426   3.573
72568W        W44294  35.921  42.956   2.254
72569W        W44295   0.254  35.008  14.936
72570W        W44296  41.845  27.174   4.507
72571W        W44297  27.240  25.526   0.384
72572W        W44298   1.475  17.581  13.387
72573W        W44299  41.416  44.741  14.940
72574W        W44300   9.148   2.439  14.881
72575W        W44301  24.973   6.167  12.056
72576W        W44302   1.471  16.816  11.984
72577W        W44303   4.513   2.207  13.319
72578W        W44304  12.327  26.682   3.387
72579W        W44305  22.459   4.734  11.058
72580W        W44306  20.551  23.514   4.232
72581W        W44307  44.724   1.695   3.129
72582W        W44308   9.867  27.727   0.635
72583W        W44309  22.464  40.012   1.295
72584W        W44310  43.961  36.735  12.454
72585W        W44311  28.038  15.416   1.342
72586W        W44312  19.824  24.773  13.107
72587W        W44313   0.573   5.895   4.211
72588W        W44314  24.180   2.028  12.420
72589W        W44315  32.152  39.051   3.678
72590W        W44316  44.548  36.598  11.357
72591W        W44317  25.342  41.451   3.790
72592W        W44318  41.983  19.331   3.974
72593W        W44319  26.434  12.093   3.691
72594W        W44320  11.860  38.497  13.049
72595W        W44321  36.919  22.590   0.805
72596W        W44322   8.949  13.453   3.077
72597W        W44323  33.011  30.753  10.470
72598W        W44324  27.870  14.215   3.668
72599W        W44325  17.292  18.454   2.720
72600W        W44326  26.160  31.060  13.549
72601W        W44327  19.990  43.545   1.697
72602W        W44328  26.107  44.978   3.839
72603W        W44329  42.678   9.312  14.776
72604W        W44330  28.052  11.723   2.851
72605W        W44331  40.040  35.452  12.589
72606W        W44332  36.647  17.237   0.850
72607W        W44333  30.599  37.940   3.662
72608W        W44334  25.928  26.943  12.090
72609W        W44335  12.090  39.250  14.377
72610W        W44336  30.102   3.282  11.764
72611W        W44337  20.781   8.070  11.444
72612W        W44338  41.016  33.494  11.488
72613W        W44339  25.998  27.671  12.939
72614W        W44340  40.437   1.698  11.490
72615W        W44341  31.652  11.545   2.348
72616W        W44342  42.077  31.949   0.476
72617W        W44343   9.406  24.420   3.300
72618W        W44344  22.825  40.714  13.452
72619W        W44345  28.189  28.867   0.784
72620W        W44346  29.356  42.358   4.080
72621W        W44347  38.022   4.503  12.913
72622W        W44348  31.592  31.342  11.125
72623W        W44349  22.064   3.648  14.432
72624W        W44350  24.178  26.008   0.876
72625W        W44351   2.939  18.613  13.292
72626W        W44352  37.339  32.492   1.477
72627W        W44353  34.341  42.084   1.681
72628W        W44354   6.628  44.082  13.410
72629W        W44355  18.259  33.915   0.358
72630W        W44356  35.044  24.991   4.130
72631W        W44357  21.768   3.763  14.833
72632W        W44358  44.969  42.703   2.755
72633W        W44359  41.338   1.269   2.512
72634W        W44360  11.130  40.655  12.711
72635W        W44361  36.457  12.809   0.948
72636W        W44362   7.898  18.988  12.494
72637W        W44363  39.852   3.286  10.598
72638W        W44364  31.849  34.056   3.232
72639W        W44365  13.849   1.150   4.454
72640W        W44366  27.015  36.006   1.756
72641W        W44367  28.100  20.904   3.772
72642W        W44368  43.412  26.176  14.694
72643W        W44369  19.647  12.001   3.512
72644W        W44370  10.151  16.007   0.256
72645W        W44371  30.375  35.527  11.438
72646W        W44372  35.600  41.308   2.400
72647W        W44373  27.439  28.080   4.220
72648W        W44374  19.287   1.189  13.771
72649W        W44375  33.210  13.829  12.510
72650W        W44376  37.802   9.107   1.773
72651W        W44377  29.969  16.722  12.317
72652W        W44378  34.563  17.384  13.475
72653W        W44379   6.282   4.219  11.138
72654W        W44380   0.721  19.722  12.585
72655W        W44381  42.009  25.689  12.403
72656W        W44382  23.611  19.237   2.821
72657ION    NA+44383  38.647  21.433  11.169
72658ION    NA+44384   5.845  37.609  11.014
72659ION    NA+44385  12.106   6.076  11.946
72660ION    NA+44386  36.640   0.218  11.665
72661ION    NA+44387  18.484   1.528   2.756
72662ION    NA+44388  30.077  13.896  13.888
72663ION    NA+44389  11.029  14.658   1.831
72664ION    NA+44390  18.360  17.734   1.438
72665ION    NA+44391  26.018  30.119   4.604
72666ION    NA+44392  34.773  44.290  12.342
72667ION    NA+44393  26.618  42.260  13.788
72668ION    NA+44394  22.919  25.263   1.486
72669ION    NA+44395   5.946  29.500   4.283
72670ION    NA+44396  44.625   2.948   2.158
72671ION    NA+44397  27.372  17.022   2.573
72672ION    NA+44398  16.331  39.422  14.865
72673ION    NA+44399  11.917  29.697   3.876
72674ION    NA+44400  28.544  29.387  12.388
72675ION    NA+44401   1.280   2.838  13.177
72676ION    NA+44402  39.570  42.529   3.457
72677ION    NA+44403  18.174  26.663   0.036
72678ION    NA+44404  12.075  26.183   4.148
72679ION    NA+44405   6.993  16.668   3.205
72680ION    NA+44406  23.512  39.913   0.250
72681ION    NA+44407  42.312  20.988  12.553
72682ION    NA+44408   6.981  31.043  14.760
72683ION    NA+44409  27.975  33.673  14.790
72684ION    NA+44410   4.354   2.833  12.126
72685ION    NA+44411   6.131  44.416  12.122
72686ION    NA+44412  41.555  26.016   0.357
72687ION    NA+44413  38.564   7.003   1.576
72688ION    NA+44414  11.148  12.411  14.977
72689ION    NA+44415  42.100   6.894  13.811
72690ION    NA+44416  15.670  36.095   0.443
72691ION    NA+44417   2.261  11.542  13.768
72692ION    NA+44418   5.441  39.013  10.011
72693ION    NA+44419   5.118  14.102  14.152
72694ION    NA+44420  33.407   6.644  11.209
72695ION    NA+44421  21.103  15.994  12.952
72696ION    NA+44422  42.256  25.441   2.623
72697ION    NA+44423  41.167  44.211   1.728
72698ION    NA+44424  37.073  21.092  11.657
72699ION    NA+44425  12.996   9.871  14.745
72700ION    NA+44426  39.703   7.354   0.681
72701ION    NA+44427  33.025  13.673   4.243
72702ION    NA+44428   3.492  24.329   0.397
72703ION    NA+44429  27.047  10.065   0.092
72704ION    NA+44430  27.461  23.179  13.456
72705ION    NA+44431  13.776  10.921  10.200
72706ION    NA+44432  15.401   1.141  13.559
72707ION    NA+44433   0.396  23.527  11.365
72708ION    NA+44434  15.600  28.605   4.400
72709ION    NA+44435  13.354  11.886   1.859
72710ION    NA+44436  35.328  18.032  13.788
72711ION    NA+44437  16.106   2.074  13.144
72712ION    NA+44438   4.771  37.336   2.901
72713ION    NA+44439  15.277   4.184   3.489
72714ION    NA+44440  15.100  23.214  14.734
72715ION    NA+44441  38.555  28.671   3.318
72716ION    NA+44442  14.538  22.443   0.897
72717ION    NA+44443   1.560  10.974  12.117
72718ION    NA+44444  42.012  43.106  12.366
72719ION    NA+44445  34.755  27.856  12.509
72720ION    NA+44446  39.908  40.319   3.556
72721ION    NA+44447   3.756  34.334  14.558
72722ION    NA+44448  31.992  33.477  12.326
72723ION    NA+44449  22.663  17.904  10.818
72724ION    NA+44450   8.743   6.813   0.446
72725ION    NA+44451  40.504   1.507   4.387
72726ION    NA+44452  37.143   2.904  14.581
72727ION    NA+44453  23.636  17.699  10.927
72728ION    NA+44454   9.919   1.302   4.152
72729ION    NA+44455   0.720  36.621   1.251
72730ION    NA+44456   4.808   5.240  14.769
72731ION    NA+44457  44.615   8.918   3.262
72732ION    NA+44458  44.071   6.998   0.446
72733ION    NA+44459  25.293  43.025   2.417
72734ION    NA+44460  40.932  19.499  13.744
72735ION    NA+44461   1.764   2.224  12.502
72736ION    NA+44462   0.636  34.672   1.365
72737ION    NA+44463   0.755  33.652   4.055
72738ION    NA+44464  31.861  24.290  10.263
72739ION    NA+44465  36.426   2.328  14.961
72740ION    NA+44466   8.805  41.072  14.696
72741ION    NA+44467  32.344   6.756   4.686
72742ION    NA+44468  12.677   9.213   4.062
72743ION    NA+44469  34.975  16.309  12.926
72744ION    NA+44470  39.661  10.051   3.666
72745ION    NA+44471   9.363  41.352  12.190
72746ION    NA+44472   6.390  34.952  11.596
72747ION    NA+44473  11.091   8.811   2.852
72748ION    NA+44474  33.574  18.388  13.146
72749ION    NA+44475  15.633   6.409  11.525
72750ION    NA+44476  31.854  23.389  10.244
72751ION    NA+44477   9.306   3.824   3.614
72752ION    NA+44478  24.378   8.319   0.586
72753ION    NA+44479  20.462  32.674  13.622
72754ION    NA+44480  43.059   4.964   4.177
72755ION    NA+44481  17.749  33.952  11.636
72756ION    NA+44482  26.127  22.046  10.783
72757ION    NA+44483  10.649  38.684  13.945
72758ION    NA+44484  21.886   9.776   1.302
72759ION    NA+44485  10.558   0.984   0.755
72760ION    NA+44486  30.464   2.604  12.430
72761ION    NA+44487  30.579  25.712  13.138
72762ION    NA+44488  25.267  44.352  13.131
72763ION    NA+44489  37.811  10.560   4.543
72764ION    NA+44490  43.247   4.354  13.714
72765ION    NA+44491  28.838   2.496  11.025
72766ION    NA+44492  39.179  42.008   2.681
72767ION    NA+44493  18.122   0.126  12.228
72768ION    NA+44494  37.717  25.108   3.598
72769ION    NA+44495  10.063   3.596   3.180
72770ION    NA+44496  32.539  43.083  10.162
72771ION    NA+44497  38.745  16.325  11.745
72772ION    NA+44498   9.447  37.355  11.857
72773ION    NA+44499  31.556  10.851   3.226
72774ION    NA+44500  11.723   0.700   2.288
72775ION    NA+44501  39.873   3.969  11.656
72776ION    NA+44502  33.075  38.554   3.208
72777ION    NA+44503  22.924  33.917   4.590
72778ION    NA+44504  24.299  28.777   4.299
72779ION    NA+44505   6.364   4.297  11.653
72780ION    NA+44506  28.703   1.974   2.149
72781ION    NA+44507   7.898   5.683   5.089
72782ION    NA+44508  10.938  26.469  14.791
72783ION    NA+44509  22.237  15.225  13.142
72784ION    NA+44510  30.596  40.301   4.522
72785ION    NA+44511   1.057   6.794   3.326
72786ION    NA+44512  22.854  10.028   1.302
72787ION    NA+44513  23.028  35.124   3.875
72788ION    NA+44514   1.297  26.500  14.277
72789ION    NA+44515  32.481   2.678   1.808
72790ION    NA+44516  10.152  37.531   3.614
72791ION    NA+44517  18.276  37.879   1.418
72792ION    NA+44518  26.961  11.870   4.197
72793ION    NA+44519  30.304  29.781   2.627
72794ION    NA+44520  26.763  32.141  14.286
72795ION    NA+44521  22.976  22.172  13.000
72796ION    NA+44522  38.481   0.983   0.268
72797ION    NA+44523  22.228  15.064  10.495
72798ION    NA+44524   7.429  23.688  10.511
72799ION    NA+44525  36.692  42.704  11.723
72800ION    NA+44526  22.097  19.731   2.246
72801ION    NA+44527  36.450  40.644   1.816
72802ION    NA+44528   8.359  26.621  11.488
72803ION    NA+44529  32.661  16.666   2.167
72804ION    NA+44530  33.074  41.480  10.587
72805ION    NA+44531  40.817  19.557   9.900
72806ION    NA+44532  34.604  20.464   3.593
72807ION    NA+44533   6.145  43.239  13.345
72808ION    NA+44534  27.929  31.404   2.432
72809ION    NA+44535  28.270  40.787  14.787
72810ION    NA+44536  11.747  42.726   0.962
72811ION    NA+44537  27.119   2.804   2.655
72812ION    NA+44538  32.993  19.981   2.780
72813ION    NA+44539   2.494  19.797   2.865
72814ION    NA+44540  28.460  21.123   0.786
72815ION    NA+44541  20.886  32.843   1.718
72816ION    NA+44542   1.791  15.513  13.056
72817ION    NA+44543  24.755  37.484   3.277
72818ION    NA+44544  29.347  12.223  14.898
72819ION    NA+44545  27.611  20.031  12.048
72820ION    NA+44546  34.605  32.146  12.567
72821ION    NA+44547  36.756   8.845  14.170
72822ION    NA+44548  40.617   6.119   0.450
72823ION    NA+44549  35.841  21.757  13.510
72824ION    NA+44550  14.544   7.808   3.546
72825ION    NA+44551  40.839   2.190   3.272
72826ION    NA+44552  26.048  10.333  10.453
72827ION    NA+44553  20.096   8.781   3.106
72828ION    NA+44554  21.214  38.363  12.724
72829ION    NA+44555  12.040  31.906   3.929
72830ION    NA+44556  17.001  12.293  11.610
72831ION    NA+44557  34.680  28.693   4.205
72832ION    NA+44558  31.706   9.490   3.044
72833ION    NA+44559  22.508  27.976  10.303
72834ION    NA+44560  26.945  42.252  14.641
72835ION    NA+44561  41.633  16.919   2.535
72836ION    NA+44562  38.059  39.591   2.137
72837ION    NA+44563  38.640  14.382  12.668
72838ION    NA+44564   9.654  43.870  14.038
72839ION    NA+44565   0.328  15.129  13.703
72840ION    NA+44566  33.486  17.733   0.740
72841ION    NA+44567  18.268  23.309   1.838
72842ION    NA+44568  23.696  34.297   3.631
72843ION    NA+44569   1.856  14.213   3.938
72844ION    NA+44570  35.680  28.731   0.779
72845ION    NA+44571  27.508  44.455   5.236
72846ION    NA+44572  40.403   6.947  10.685
72847ION    NA+44573   5.938  20.726   4.221
72848ION    NA+44574  39.846  31.440  13.757
72849ION    NA+44575  13.963  29.756  14.396
72850ION    NA+44576  20.827  40.322   4.663
72851ION    NA+44577  33.610  27.963   2.169
72852ION    NA+44578  38.332  42.860  14.854
72853ION    NA+44579  31.611  14.142  12.495
72854ION    NA+44580  13.773  34.132   0.996
72855ION    NA+44581  25.443  25.967   3.618
72856ION    NA+44582  17.422   5.649  14.498
72857ION    NA+44583  37.772  24.590  12.485
72858ION    NA+44584  14.120  20.557  14.961
72859ION    NA+44585   4.583  27.884   0.417
72860ION    NA+44586  24.782  39.802   2.815
72861ION    NA+44587  21.348  44.218  14.097
72862ION    NA+44588  19.473  21.836  14.719
72863ION    NA+44589   1.644  13.623  11.673
72864ION    NA+44590  35.158  20.351   4.317
72865ION    NA+44591  23.741  27.813   4.902
72866ION    NA+44592  27.311  18.737  11.662
72867ION    NA+44593  27.544  44.669  13.979
72868ION    NA+44594  44.257  32.475  13.074
72869ION    NA+44595  33.003  19.535   1.057
72870ION    NA+44596  41.014  25.322  14.881
72871ION    NA+44597  21.345   3.515   1.079
72872ION    NA+44598  13.586  29.733  11.069
72873ION    NA+44599  44.881  16.154  11.831
72874ION    NA+44600  35.762   8.904  12.186
72875ION    NA+44601  12.262  34.932  12.463
72876ION    NA+44602  22.873  32.295  14.857
72877ION    NA+44603  24.543   9.036   4.332
72878ION    NA+44604   8.196  42.362  10.692
72879ION    NA+44605  36.046  15.292   4.952
72880ION    NA+44606  37.094  33.016  13.239
72881ION    NA+44607  16.349  33.935  12.227
72882ION    NA+44608  38.183   4.011   2.406
72883ION    NA+44609  41.764  31.305   3.090
72884ION    NA+44610  20.224  21.557   0.379
72885ION    NA+44611  15.359  32.730   2.556
72886ION    NA+44612  17.777  27.487  10.289
72887ION    NA+44613  11.084   5.623  14.259
72888ION    NA+44614   1.436  37.311  13.876
72889ION    NA+44615  40.327  43.629   4.128
72890ION    NA+44616  18.509   0.386  12.991
72891ION    NA+44617   1.068  44.500   0.152
72892ION    NA+44618  26.396  23.482  13.191
72893ION    NA+44619   4.848   9.407  12.374
72894ION    NA+44620  17.459  17.745   1.488
72895ION    NA+44621   3.743  22.205  10.871
72896ION    NA+44622  34.344  20.216  12.417
72897ION    NA+44623  38.562  31.745   4.545
72898ION    NA+44624  11.973  44.662  14.412
72899ION    NA+44625  43.272   0.698   3.795
72900ION    NA+44626  15.913  16.262  10.766
72901ION    NA+44627  27.121  36.039  13.499
72902ION    NA+44628  21.278  18.982   0.460
72903ION    NA+44629  14.841  13.273  11.275
72904ION    NA+44630  14.442   9.666   4.130
72905ION    NA+44631   2.496  44.877   1.378
72906ION    NA+44632  11.400   6.472   2.326
72907ION    NA+44633  17.965  30.186  14.423
72908ION    NA+44634  19.119  35.561  14.877
72909ION    NA+44635  27.731  37.759   0.413
72910ION    NA+44636  35.279  10.501   9.697
72911ION    NA+44637  38.588  30.156   1.570
72912ION    NA+44638  28.540  29.845   2.216
72913ION    NA+44639  20.583  31.795  13.406
72914ION    NA+44640  17.861  14.404   4.251
72915ION    NA+44641   4.239  26.531   3.110
72916ION    NA+44642  27.211  38.687   0.187
72917ION    NA+44643   5.826  36.797  11.614
72918ION    NA+44644   3.512   0.368  13.819
72919ION    NA+44645  24.232  39.296  12.592
72920ION    NA+44646  11.125  42.016  13.770
72921ION    NA+44647  37.722  39.049  10.140
72922ION    NA+44648  19.071   2.347   2.868
72923ION    NA+44649  35.023  12.222  11.099
72924ION    NA+44650  43.904   1.738  12.425
72925ION    NA+44651  20.612  29.947   1.346
72926ION    NA+44652  35.142  13.830  13.012
72927ION    NA+44653  20.201  42.071   3.524
72928ION    NA+44654  26.393   6.141   4.172
72929ION    NA+44655   8.362  40.853  13.471
72930ION    NA+44656   6.184  11.103   3.593
72931ION    NA+44657  32.707  16.584   4.656
72932ION    NA+44658  35.082   3.798  11.736
72933ION    NA+44659  35.726  14.935   1.520
72934ION    NA+44660  29.180  24.550   0.121
72935ION    NA+44661   3.249  31.906  12.816
72936ION    NA+44662  38.136  23.190  14.161
72937ION    NA+44663  17.697   0.612   3.661
72938ION    NA+44664  21.761  43.821   2.780
72939ION    NA+44665  29.230  34.825   2.367
72940ION    NA+44666  26.573  42.671   2.300
72941ION    NA+44667   9.933  27.504  13.748
72942ION    NA+44668  23.243  43.176  11.240
72943ION    NA+44669  43.039  42.815  14.972
72944ION    NA+44670  26.043  32.191   3.846
72945ION    NA+44671  17.231  16.287  13.527
72946ION    NA+44672  36.070  37.866   0.806
72947ION    NA+44673  16.211   5.316   0.480
72948ION    NA+44674   0.562   3.579   4.766
72949ION    NA+44675  22.770  19.174   3.587
72950ION    NA+44676   0.070  31.987   1.251
72951ION    NA+44677  15.028  43.238   1.577
72952ION    NA+44678  33.476  28.947  11.342
72953ION    NA+44679  23.340   2.440   2.759
72954ION    NA+44680  32.830  10.781  13.741
72955ION    NA+44681  28.515  27.763  11.697
72956ION    NA+44682  37.552  26.631  14.170
72957ION    NA+44683   6.908   2.197  14.440
72958ION    NA+44684   7.107  33.258  13.417
72959ION    NA+44685  35.252  36.015  10.209
72960ION    NA+44686  38.595   4.025  13.447
72961ION    NA+44687  28.086  22.054   0.259
72962ION    NA+44688  13.204  37.640  14.959
72963ION    NA+44689   1.819  17.082   1.711
72964ION    NA+44690  33.233  34.415  11.535
72965ION    NA+44691  26.996   6.385   4.999
72966ION    NA+44692  18.037   5.487   3.281
72967ION    NA+44693  15.255  38.846  11.243
72968ION    NA+44694  10.584  34.947  11.111
72969ION    NA+44695  43.993  13.396  12.985
72970ION    NA+44696  13.921   7.806  12.995
72971ION    NA+44697  24.157  41.468  13.284
72972ION    NA+44698  20.304   3.582   0.769
72973ION    NA+44699  16.014  34.345  13.345
72974ION    NA+44700   5.253  26.948   0.724
72975ION    NA+44701   9.265  10.996   2.208
72976ION    NA+44702  19.865   0.981   4.459
72977ION    NA+44703  44.198  18.954   3.998
72978ION    NA+44704  44.726  44.573  10.642
72979ION    NA+44705  10.937  42.803   3.187
72980ION    NA+44706  17.540  43.852  10.768
72981ION    NA+44707  12.738  20.788  14.490
72982ION    NA+44708  29.491   1.753  11.620
72983ION    NA+44709  32.398  25.005   2.193
72984ION    NA+44710  24.411  15.762   0.863
72985ION    NA+44711  38.115   2.321  14.329
72986ION    NA+44712  24.411  35.003   0.371
72987ION    NA+44713  20.106  23.793  11.143
72988ION    NA+44714  28.466  17.170   1.461
72989ION    NA+44715  12.705  35.048   4.395
72990ION    NA+44716  38.981  38.124   1.398
72991ION    NA+44717  21.929  23.206  10.926
72992ION    NA+44718   8.333  33.779   2.433
72993ION    NA+44719  25.903  17.240  12.937
72994ION    NA+44720  23.488  40.909  13.992
72995ION    NA+44721  31.449  11.559  13.151
72996ION    NA+44722  23.876   4.185  11.973
72997ION    NA+44723  19.804  38.559  14.109
72998ION    NA+44724  14.306  35.106  11.978
72999ION    NA+44725   9.333  21.001   1.264
73000ION    NA+44726  16.807   3.943   4.129
73001ION    NA+44727  40.361   8.613   4.548
73002ION    NA+44728  14.359   0.742  10.828
73003ION    NA+44729   4.661  38.571   1.285
73004ION    NA+44730  44.109   2.364  11.672
73005ION    NA+44731   0.066  28.186  13.466
73006ION    NA+44732   8.128  41.470  11.139
73007ION    NA+44733  35.733   4.741  13.692
73008ION    NA+44734   8.472   8.505   2.232
73009ION    NA+44735   9.962  40.011  10.330
73010ION    NA+44736   0.734  31.872  10.331
73011ION    NA+44737  44.902  33.115   0.765
73012ION    NA+44738   4.378  29.647  12.965
73013ION    NA+44739   2.785  41.582  13.038
73014ION    NA+44740  41.542  17.150  12.065
73015ION    NA+44741  40.070   8.439   0.867
73016ION    NA+44742  44.851  21.923   0.999
73017ION    NA+44743   2.884  37.456   3.584
73018ION    NA+44744  25.159  41.086  13.832
73019ION    NA+44745  37.228  34.410  12.485
73020ION    NA+44746   6.766  21.748  13.941
73021ION    NA+44747  15.045  40.117  14.039
73022ION    NA+44748  40.394  42.426  14.531
73023ION    NA+44749   2.577  17.700   4.028
73024ION    NA+44750   2.281   9.569   3.542
73025ION    NA+44751   3.667  10.413  13.358
73026ION    NA+44752  35.022  33.126   0.968
73027ION    NA+44753  41.796  15.901   5.225
73028ION    NA+44754  43.694   5.582  12.916
73029ION    NA+44755  22.662  37.452   1.557
73030ION    NA+44756  33.824   2.679   1.693
73031ION    NA+44757   3.050   9.406  10.720
73032ION    NA+44758  10.966  28.154   4.335
73033ION    NA+44759  10.879  43.072  14.372
73034ION    NA+44760  36.363  39.996  13.569
73035ION    NA+44761  36.918   2.232  14.096
73036ION    NA+44762  27.067  36.498   3.579
73037ION    NA+44763  25.045   7.565  13.511
73038ION    NA+44764  41.560  16.765   1.538
73039ION    NA+44765  38.383  37.644  11.832
73040ION    NA+44766  35.979  32.285  14.287
73041ION    NA+44767  40.178  41.259  12.078
73042ION    NA+44768  31.467  23.593   5.026
73043ION    NA+44769  30.570  35.011  14.430
73044ION    NA+44770   7.604   5.038  12.965
73045ION    NA+44771   5.568  25.999  10.975
73046ION    NA+44772  24.333   3.496   0.479
73047ION    NA+44773  44.545   6.859  13.929
73048ION    NA+44774  42.389  15.744  12.492
73049ION    NA+44775   4.396  36.666  11.398
73050ION    NA+44776  14.850  21.061   3.661
73051ION    NA+44777  42.843  34.874  11.525
73052ION    NA+44778   4.473  27.954   2.396
73053ION    NA+44779  19.287  27.398   2.260
73054ION    NA+44780  30.563  12.169   0.717
73055ION    NA+44781  34.151  18.338  14.361
73056ION    NA+44782  32.648  38.113   2.419
73057ION    NA+44783  30.093  43.087  11.137
73058ION    NA+44784  32.953  22.752   2.285
73059ION    NA+44785  14.664  42.521   0.710
73060ION    NA+44786  11.661  42.659   3.695
73061ION    NA+44787  17.195  20.852  11.619
73062ION    NA+44788  30.273  36.259  12.462
73063ION    NA+44789   8.107  29.444   3.418
73064ION    NA+44790  28.884  35.499  13.082
73065ION    NA+44791  33.544  14.191  12.689
73066ION    NA+44792  24.936  30.066   2.185
73067ION    NA+44793  25.322  29.094   2.915
73068ION    NA+44794  32.837  23.457   4.707
73069ION    NA+44795   1.699   2.033  14.579
73070ION    NA+44796   8.570   5.120   5.313
73071ION    NA+44797  21.558  29.228   3.656
73072ION    NA+44798   1.432  23.326  12.752
73073ION    NA+44799  37.510  33.659   2.388
73074ION    NA+44800  40.659  40.699  13.342
73075ION    NA+44801  10.111  15.417  12.671
73076ION    NA+44802  30.704  27.184   4.451
73077ION    NA+44803   3.446  12.695   3.814
73078ION    NA+44804  18.219  19.318  11.134
73079ION    NA+44805   2.773  23.018   3.641
73080ION    NA+44806  28.468  44.926  14.992
73081ION    NA+44807   5.039  44.450   2.364
73082ION    NA+44808  28.420  32.251   1.906
73083ION    NA+44809  10.385  42.243  11.065
73084ION    NA+44810  25.990  35.985   4.374
73085ION    NA+44811  26.077  27.242   2.619
73086ION    NA+44812  16.787  33.434   3.126
73087ION    NA+44813  21.027  39.343  14.488
73088ION    NA+44814  35.831  22.612  10.777
73089ION    NA+44815   4.601  44.024   3.056
73090ION    NA+44816  42.645  13.292   4.937
73091ION    NA+44817  24.875  14.324  13.897
73092ION    NA+44818  40.526  21.150  11.397
73093ION    NA+44819  16.773  36.446   3.909
73094ION    NA+44820  22.233  16.553  12.510
73095ION    NA+44821  17.337  25.416   1.825
73096ION    NA+44822   6.497  31.377  14.991
73097ION    NA+44823  31.857  33.223   4.390
73098ION    NA+44824  38.866  32.777  12.468
73099ION    NA+44825  11.171  19.309   4.001
73100ION    NA+44826   5.720  33.642  12.899
73101ION    NA+44827   0.532  39.676  14.066
73102ION    NA+44828   0.329  22.435   0.285
73103ION    NA+44829  44.260  10.824   3.042
73104ION    NA+44830  36.919  29.531   2.240
73105ION    NA+44831  24.911  14.951   4.934
73106ION    NA+44832  15.511  15.258  12.673
73107ION    NA+44833  12.844  33.401   3.161
73108ION    NA+44834  29.129  33.589   4.660
73109ION    NA+44835  30.053  41.371   2.247
73110ION    NA+44836   5.935  39.293  10.416
73111ION    NA+44837   6.765  27.622  13.799
73112ION    NA+44838  17.063   5.839   0.514
73113ION    NA+44839  44.922  16.316  14.576
73114ION    NA+44840   0.258  20.671  10.259
73115ION    NA+44841   9.264  36.001   0.496
73116ION    NA+44842  38.557  36.146   1.748
73117ION    NA+44843  44.271  35.481   1.188
73118ION    NA+44844  15.702  15.381  10.799
73119ION    NA+44845  28.158  38.838   3.715
73120ION    NA+44846  44.144  31.633   1.381
73121ION    NA+44847   6.109  18.170   0.161
73122ION    NA+44848  37.929  40.505   0.963
73123ION    NA+44849  42.729  10.516  10.951
73124ION    NA+44850  34.032  25.723   4.433
73125ION    NA+44851  30.637  35.992   3.258
73126ION    NA+44852  26.972  42.347   1.547
73127ION    NA+44853  30.183  27.665  11.434
73128ION    NA+44854  11.876  17.438   2.627
73129ION    NA+44855  26.226  43.822   3.062
73130ION    NA+44856  22.491  39.085  11.085
73131ION    NA+44857  10.541  22.770  14.113
73132ION    NA+44858   1.811  13.132   4.135
73133ION    NA+44859  14.126  28.207  12.088
73134ION    NA+44860  19.264  42.933  13.857
73135ION    NA+44861  10.651  10.571   4.401
73136ION    NA+44862  15.399  12.106  13.015
73137ION    NA+44863  36.346  33.070   0.275
73138ION    NA+44864  31.668  22.332   1.568
73139ION    NA+44865  14.899  27.487  13.942
73140ION    NA+44866  35.348  34.688   1.720
73141ION    NA+44867   8.982  44.762   2.345
73142ION    NA+44868  22.083  24.486   2.400
73143ION    NA+44869  31.920  23.560  12.874
73144ION    NA+44870   1.486  41.307   1.259
73145ION    NA+44871  38.647   3.662  11.102
73146ION    NA+44872   0.359   9.749   1.679
73147ION    NA+44873  30.013  42.746   3.243
73148ION    NA+44874  18.228  40.484  10.751
73149ION    NA+44875  20.805   9.578   1.936
73150ION    NA+44876   3.747  22.188   1.373
73151ION    NA+44877  43.318   0.863  12.791
73152ION    NA+44878  35.650  35.915  14.002
73153ION    NA+44879  19.696   1.923  13.905
73154ION    NA+44880  40.654  16.014   2.438
73155ION    NA+44881  36.846  35.128  12.074
73156ION    NA+44882  38.234  17.533   0.964
73157ION    NA+44883  31.057  27.592  11.913
73158ION    NA+44884  36.937  21.985  13.114
73159ION    NA+44885  21.162  27.325  14.627
73160ION    NA+44886  14.874  24.901  11.542
73161ION    NA+44887  39.559  18.902   1.499
73162ION    NA+44888  23.564   3.885   1.017
73163ION    NA+44889   2.199  14.518   2.251
73164ION    NA+44890  19.546  20.158   3.961
73165ION    NA+44891  10.348  40.892   5.078
73166ION    NA+44892  22.901  20.370   2.945
73167ION    NA+44893  43.548  26.303   5.427
73168ION    NA+44894  12.131  27.036   1.344
73169ION    NA+44895  32.845  40.265  10.598
73170ION    NA+44896   9.767  32.430  14.025
73171ION    NA+44897  32.756  44.081  10.456
73172ION    NA+44898  20.276  34.208  14.747
73173ION    NA+44899  20.290  33.469   9.923
73174ION    NA+44900   6.217  32.563  12.512
73175ION    NA+44901  10.538  24.771   1.803
73176ION    NA+44902   0.692  32.058   0.106
73177ION    NA+44903  43.309  38.448   1.304
73178ION    NA+44904  38.282   0.004  12.200
73179ION    NA+44905   3.795  18.709   3.389
73180ION    NA+44906  12.226   7.314  13.510
73181ION    NA+44907  40.403   6.678  11.648
73182ION    NA+44908   3.918  33.575   4.214
73183ION    NA+44909  18.128  19.199  12.799
73184ION    NA+44910  24.918   7.225   1.882
73185ION    NA+44911  40.489  23.750  12.186
73186ION    NA+44912  31.275   0.587   4.405
73187ION    NA+44913  32.066  25.569   1.199
73188ION    NA+44914  13.390  32.263  13.616
73189ION    NA+44915  16.346  40.994   5.086
73190ION    NA+44916  32.696  42.240  12.779
73191ION    NA+44917  15.824  11.699   0.212
73192ION    NA+44918  10.592  40.149  14.009
73193ION    NA+44919  24.322  25.885   0.132
73194ION    NA+44920  10.955  31.798   4.581
73195ION    NA+44921  30.270   1.522   3.065
73196ION    NA+44922  36.321  35.599   4.175
73197ION    NA+44923   5.794  22.791  10.665
73198ION    NA+44924  33.233  28.635   3.371
73199ION    NA+44925  39.265  28.300   0.144
73200ION    NA+44926  42.588   8.100   0.928
73201ION    NA+44927  19.156  36.790  13.330
73202ION    NA+44928  23.180   1.101  13.321
73203ION    NA+44929  14.214   9.817  14.281
73204ION    NA+44930  42.408  39.137  14.297
73205ION    NA+44931  32.385  33.502  14.830
73206ION    NA+44932  44.100  36.391  12.103
73207ION    NA+44933  27.873   0.282  11.741
73208ION    NA+44934  17.460   2.556   0.733
73209ION    NA+44935  35.285   0.117  10.854
73210ION    NA+44936  23.416   7.553   1.828
73211ION    NA+44937  19.765  26.518   3.595
73212ION    NA+44938  37.423  40.630   4.625
73213ION    NA+44939  21.577  20.388   0.973
73214ION    NA+44940  28.728  44.084   4.645
73215ION    NA+44941  24.666  12.824  11.072
73216ION    NA+44942  38.378   1.645   2.330
73217ION    NA+44943  40.416   4.014   3.159
73218ION    NA+44944  39.334  15.650  11.900
73219ION    NA+44945  15.820   0.864   4.075
73220ION    NA+44946  37.875   3.038   2.183
73221ION    NA+44947   1.704   1.027  14.686
73222ION    NA+44948  37.972  11.221  11.354
73223ION    NA+44949  15.051  12.039  12.177
73224ION    NA+44950  18.516   6.950   0.331
73225ION    NA+44951  26.191   6.711  11.061
73226ION    NA+44952   2.018   1.720   0.474
73227ION    NA+44953  11.436  35.359   4.721
73228ION    NA+44954  41.609  16.317   3.183
73229ION    NA+44955  27.056  27.221   2.835
73230ION    NA+44956  23.410  24.246   0.886
73231ION    NA+44957   3.901  34.397   4.508
73232ION    NA+44958  30.905  21.490   2.625
73233ION    NA+44959  18.952  28.342  14.900
73234ION    NA+44960   4.223  12.377   3.271
73235ION    NA+44961   5.770  29.925   1.264
73236ION    NA+44962  32.895  37.262   3.261
73237ION    NA+44963  11.794   5.163  14.553
73238ION    NA+44964  29.565  23.575   0.293
73239ION    NA+44965  38.900   2.439   2.013
73240ION    NA+44966  12.401  27.229   3.514
73241ION    NA+44967  20.298  24.537  12.521
73242ION    NA+44968  30.361  35.262   4.024
73243ION    NA+44969  10.595   7.607  13.957
73244ION    NA+44970  33.312   6.621  14.097
73245ION    NA+44971  22.275  23.579  14.715
73246ION    NA+44972  14.569  26.041  12.607
73247ION    NA+44973  20.939  28.064  11.606
73248ION    NA+44974  21.789   6.189  13.968
73249ION    NA+44975  29.495  30.610  14.358
73250ION    NA+44976  22.345   3.014   4.698
73251ION    NA+44977   5.933  14.682   2.195
73252ION    NA+44978  14.536  28.604  11.227
73253ION    NA+44979   7.208   7.522   3.245
73254ION    NA+44980  26.559   9.829   2.274
73255ION    NA+44981  19.066   4.702   2.787
73256ION    NA+44982  15.499  17.576  11.957
73257ION    NA+44983  28.596  39.917   1.176
73258ION    NA+44984  13.316   3.149  14.305
73259ION    NA+44985  22.435  20.244  12.873
73260ION    NA+44986  12.750  44.905   0.009
73261ION    NA+44987  16.091  27.670  14.394
73262ION    NA+44988  24.795  18.444  10.080
73263ION    NA+44989  10.979  19.608   3.179
73264ION    NA+44990   4.301   6.518   4.143
73265ION    NA+44991  23.077  30.250  12.874
73266ION    NA+44992  32.298  43.723   0.735
73267ION    NA+44993   5.250   7.580   0.119
73268ION    NA+44994  30.120  18.287  10.792
73269ION    NA+44995  11.368   4.728  10.000
73270ION    NA+44996  29.299  24.371  11.721
73271ION    NA+44997   5.383  24.824   2.427
73272ION    NA+44998  42.955   8.715  13.425
73273ION    NA+44999   0.850  14.073   2.816
73274ION    NA+45000  40.726  26.127  14.808
73275ION    NA+45001  30.237   5.150  13.396
73276ION    NA+45002  25.354  32.399   3.112
73277ION    NA+45003   4.915  16.765   0.717
73278ION    NA+45004  36.928  24.110  12.099
73279ION    NA+45005  44.427  11.547  12.061
73280ION    NA+45006  12.103  37.564   0.235
73281ION    NA+45007  12.126  17.399   4.515
73282ION    NA+45008  19.604  29.278  14.913
73283ION    NA+45009   9.528  15.332   0.414
73284ION    NA+45010  25.460  22.774   2.970
73285ION    NA+45011  41.434  11.301  14.732
73286ION    NA+45012  36.020  39.860  14.499
73287ION    NA+45013  29.470  39.090   2.477
73288ION    NA+45014  26.980  23.242   0.200
73289ION    NA+45015  31.826  38.922  12.111
73290ION    NA+45016  31.498   2.312   4.256
73291ION    NA+45017  27.933   3.180  14.389
73292ION    NA+45018  35.993  18.951   0.713
73293ION    NA+45019   0.226  30.876   4.728
73294ION    NA+45020  40.950  22.639   0.414
73295ION    NA+45021   7.149  35.979  12.345
73296ION    NA+45022  43.138   0.756  11.447
73297ION    NA+45023  13.855  30.716   4.316
73298ION    NA+45024   4.710  34.144  10.778
73299ION    NA+45025  27.543  10.795   0.657
73300ION    NA+45026  30.353  26.765   0.507
73301ION    NA+45027   3.092  20.383   2.716
73302ION    NA+45028  39.468  36.789  11.012
73303ION    NA+45029  16.080  36.716   5.058
73304ION    NA+45030  19.666  27.005  14.318
73305ION    NA+45031  32.156  11.303  12.649
73306ION    NA+45032  38.778  19.687   0.307
73307ION    NA+45033  14.032  22.147   2.577
73308ION    NA+45034  33.768  35.197   3.624
73309ION    NA+45035  27.203  24.197  12.079
73310ION    NA+45036  35.027   0.704  14.343
73311ION    NA+45037  16.082  17.131  14.390
73312ION    NA+45038   0.874  43.908   2.294
73313ION    NA+45039  11.493  22.849  14.721
73314ION    NA+45040  27.176   8.296   3.010
73315ION    NA+45041  28.274  17.280   3.624
73316ION    NA+45042  21.175  33.144  11.624
73317ION    NA+45043   1.034  32.546   3.425
73318ION    NA+45044  16.530  23.707  11.466
73319ION    NA+45045  23.724   8.820   0.978
73320ION    NA+45046  24.170   4.919  13.388
73321ION    NA+45047  16.176  26.738   5.145
73322ION    NA+45048  11.429   6.268  13.199
73323ION    NA+45049  21.956  26.586  11.524
73324ION    NA+45050  13.188  40.737   3.106
73325ION    NA+45051  16.368  17.715  11.330
73326ION    NA+45052  35.211   5.576  12.270
73327ION    NA+45053  26.025  11.065  14.486
73328ION    NA+45054  37.333  39.464   4.600
73329ION    NA+45055   3.888  40.317   4.143
73330ION    NA+45056  10.285   9.251   2.406
73331ION    NA+45057   3.622  17.260   0.359
73332ION    NA+45058  21.498  43.757   3.743
73333ION    NA+45059  25.880   5.195   4.685
73334ION    NA+45060   2.356  29.148  12.175
73335ION    NA+45061  17.337   7.422   4.731
73336ION    NA+45062  43.708  39.807   3.068
73337ION    NA+45063   9.081  15.787   1.184
73338ION    NA+45064  40.819  33.992  13.351
73339ION    NA+45065  22.129  21.033  12.327
73340ION    NA+45066  43.770   0.141   0.847
73341ION    NA+45067  38.028  20.188   1.383
73342ION    NA+45068   0.382  19.421   1.018
73343ION    NA+45069  43.932   1.623  13.418
73344ION    NA+45070  35.238   8.600   1.618
73345ION    NA+45071  24.009  37.096  11.631
73346ION    NA+45072  26.308  36.645   2.170
73347ION    NA+45073  18.255  36.967  10.730
73348ION    NA+45074  23.649  29.754  12.409
73349ION    NA+45075  19.146  18.175  13.065
73350ION    NA+45076   1.247  40.730  13.548
73351ION    NA+45077  38.635   2.974   3.827
73352ION    NA+45078   3.653  16.240   4.806
73353ION    NA+45079  17.352  18.831  12.537
73354ION    NA+45080  30.964  14.137   4.340
73355ION    NA+45081  12.010  41.186   3.056
73356ION    NA+45082  27.244  34.675  12.691
73357ION    NA+45083  26.246  32.642   0.463
73358ION    NA+45084  14.522   9.324  12.451
73359ION    NA+45085  29.281  39.804   3.561
73360ION    NA+45086  30.460  38.901   5.087
73361ION    NA+45087  36.879   8.199  10.795
73362ION    NA+45088  26.717   7.207   4.132
73363ION    NA+45089  25.752  20.621  14.919
73364ION    NA+45090  43.798  20.262   3.573
73365ION    NA+45091  31.205   1.188   3.183
73366ION    NA+45092   8.375  36.080   1.827
73367ION    NA+45093  24.348  20.162   3.367
73368ION    NA+45094  31.620  10.177  12.380
73369ION    NA+45095   1.515  26.622   0.151
73370ION    NA+45096  16.570  13.204  13.706
73371ION    NA+45097   3.943  11.249   1.235
73372ION    NA+45098  27.311   4.280   4.550
73373ION    NA+45099  34.155   0.359  13.996
73374ION    NA+45100  41.808  29.617   0.525
73375ION    NA+45101   6.447  22.000   1.702
73376ION    NA+45102  17.317  39.727  14.395
73377ION    NA+45103  42.581  38.686  11.205
73378ION    NA+45104   8.642  37.177   0.479
73379ION    NA+45105  27.161   5.944   4.113
73380ION    NA+45106  17.821  23.139   3.418
73381ION    NA+45107  14.014  43.512   1.808
73382ION    NA+45108  41.584  43.630  13.102
73383ION    NA+45109  11.352  17.731   0.959
73384ION    NA+45110  23.021  16.071  14.496
73385ION    NA+45111  36.564  13.070   4.519
73386ION    NA+45112  16.072  17.425   3.211
73387ION    NA+45113  26.006   9.525   4.662
73388ION    NA+45114  11.892  11.609  11.519
73389ION    NA+45115  15.329  18.863  12.932
73390ION    NA+45116  40.002   2.224  13.954
73391ION    NA+45117  44.563   2.635   0.369
73392ION    NA+45118  31.935  17.091   4.584
73393ION    NA+45119  34.313  36.679   1.480
73394ION    NA+45120  27.715  10.613   2.227
73395ION    NA+45121   3.026  32.336  12.085
73396ION    NA+45122   8.490  36.077  12.037
73397ION    NA+45123   6.712  32.046   1.293
73398ION    NA+45124  18.679  27.492  10.973
73399ION    NA+45125  39.266  35.472   2.207
73400ION    NA+45126  33.069   8.106  13.403
73401ION    NA+45127  40.833  39.034   1.815
73402ION    NA+45128  34.358  40.688   1.975
73403ION    NA+45129  21.125  42.212  10.786
73404ION    NA+45130  38.933  18.282   1.024
73405ION    NA+45131  17.977  41.325   1.341
73406ION    NA+45132  25.843   3.928  12.799
73407ION    NA+45133  18.744  19.826   2.360
73408ION    NA+45134   2.899  31.082   2.458
73409ION    NA+45135  25.052  19.133  12.974
73410ION    NA+45136  37.016  36.281   0.110
73411ION    NA+45137  26.239  34.973   3.327
73412ION    NA+45138  18.236  25.694   2.715
73413ION    NA+45139  13.707  12.825  12.971
73414ION    NA+45140   9.361  11.157   4.282
73415ION    NA+45141  39.609  42.272   0.977
73416ION    NA+45142  28.728  27.546  14.696
73417ION    NA+45143   1.155  34.037  13.302
73418ION    NA+45144  21.462   9.825   3.829
73419ION    NA+45145  18.261  44.032   2.844
73420ION    NA+45146   5.864   8.726  14.078
73421ION    NA+45147  18.773  34.090  11.050
73422ION    NA+45148  32.359  39.882   4.564
73423ION    NA+45149  30.505  26.337  10.642
73424ION    NA+45150   4.120  29.446  13.915
73425ION    NA+45151  38.293  44.175   3.414
73426ION    NA+45152  44.846  19.691  14.027
73427ION    NA+45153  19.736  32.121   2.696
73428ION    NA+45154   4.624   5.769   2.751
73429ION    NA+45155   3.933  44.020  11.743
73430ION    NA+45156  37.031  20.605  10.741
73431ION    NA+45157  36.027  20.863  13.062
73432ION    NA+45158   3.267  42.450  12.916
73433ION    NA+45159   3.511  28.633   2.127
73434ION    NA+45160  31.623  23.248  14.769
73435ION    NA+45161  10.732  35.417   0.438
73436ION    NA+45162   7.911  43.884   0.800
73437ION    NA+45163  17.604  15.905   0.475
73438ION    NA+45164  16.169  38.429  11.048
73439ION    NA+45165   2.137  19.841  12.280
73440ION    NA+45166   6.621  30.785   0.578
73441ION    NA+45167   0.607   4.941   3.003
73442ION    NA+45168   8.476  12.528  12.375
73443ION    NA+45169  36.096  37.044   4.501
73444ION    NA+45170  16.864  21.588  14.370
73445ION    NA+45171   2.855  43.313  11.045
73446ION    NA+45172  32.758  40.808  14.263
73447ION    NA+45173  27.514  43.885  14.441
73448ION    NA+45174   7.234  26.170   3.929
73449ION    NA+45175   1.491  34.511  14.802
73450ION    NA+45176  36.802  39.846   1.836
73451ION    NA+45177   8.893  34.600   4.188
73452ION    NA+45178  31.652  41.259  13.440
73453ION    NA+45179  22.495  30.058   2.042
73454ION    NA+45180  24.189  42.083   2.908
73455ION    NA+45181   3.523  25.285  13.220
73456ION    NA+45182  26.293  40.443  12.925
73457ION    NA+45183   5.069  20.954  13.063
73458ION    NA+45184  12.599  39.907  10.819
73459ION    NA+45185   5.659  10.875  13.878
73460ION    NA+45186  13.081  30.320   3.684
73461ION    NA+45187  38.129  34.259  14.591
73462ION    NA+45188  31.964  25.958  10.851
73463ION    NA+45189  18.558   6.262   3.638
73464ION    NA+45190  29.936  32.200   2.596
73465ION    NA+45191  23.453  11.230   0.900
73466ION    NA+45192  10.342  32.674  13.244
73467ION    NA+45193  29.050  37.997  14.818
73468ION    NA+45194  24.074  11.852  10.527
73469ION    NA+45195  25.657  22.213  13.161
73470ION    NA+45196  34.206  15.559  11.647
73471ION    NA+45197  20.539  34.501  13.768
73472ION    NA+45198  16.133  40.361   4.096
73473ION    NA+45199  43.153  36.078  12.044
73474ION    NA+45200  42.264  29.296   4.604
73475ION    NA+45201   0.699  25.489  14.794
73476ION    NA+45202  22.561  33.621  13.552
73477ION    NA+45203  16.605  44.728   0.280
73478ION    NA+45204   2.110  37.053   4.128
73479ION    NA+45205  40.239  43.270  12.701
73480ION    NA+45206  27.219  14.795  14.445
73481ION    NA+45207  16.103  44.921  10.769
73482ION    NA+45208  39.570  33.458  12.667
73483ION    NA+45209  26.946  35.796   0.417
73484ION    NA+45210  28.079  30.489   2.827
73485ION    NA+45211  29.761  20.518  13.762
73486ION    NA+45212   9.726   0.987  11.578
73487ION    NA+45213  24.838  19.881   4.192
73488ION    NA+45214   0.496  23.190   4.820
73489ION    NA+45215  36.256  21.697   2.138
73490ION    NA+45216  16.984  36.193  11.110
73491ION    NA+45217  37.422  30.179   2.813
73492ION    NA+45218  30.901  19.778  13.802
73493ION    NA+45219  22.012  11.960   3.930
73494ION    NA+45220  37.775   3.721   4.098
73495ION    NA+45221  24.523  17.509  14.392
73496ION    NA+45222  28.156  31.397   1.458
73497ION    NA+45223  35.567  19.087  13.990
73498ION    NA+45224  37.093   9.195   2.724
73499ION    NA+45225  15.592   0.196  11.609
73500ION    NA+45226  15.981  33.449  11.110
73501ION    NA+45227  11.240   5.651   3.298
73502ION    NA+45228   7.204  20.415   2.905
73503ION    NA+45229   5.188   2.970   0.056
73504ION    NA+45230   6.876  14.042   1.220
73505ION    NA+45231  22.648  20.948   2.350
73506ION    NA+45232  19.124   9.674  12.925
73507ION    NA+45233   6.954  12.660   2.676
73508ION    NA+45234   4.267  23.697   0.407
73509ION    NA+45235  20.389  15.024  10.713
73510ION    NA+45236  40.310  31.014   2.804
73511ION    NA+45237  12.039   6.123  11.095
73512ION    NA+45238   5.157  27.684  13.927
73513ION    NA+45239   5.873  26.104   3.702
73514ION    NA+45240   0.118  35.663   4.088
73515ION    NA+45241  36.089  38.943   0.738
73516ION    NA+45242  37.952  20.568  14.459
73517ION    NA+45243  30.189  17.836   1.737
73518ION    NA+45244  25.218  38.714   0.962
73519ION    NA+45245  16.306  36.930   1.329
73520ION    NA+45246  12.820   4.854  11.027
73521ION    NA+45247  36.079  17.567  13.157
73522ION    NA+45248  20.305  23.434   0.353
73523ION    NA+45249  38.783  35.094  10.884
73524ION    NA+45250  34.947  10.828  11.018
73525ION    NA+45251   8.080  44.906   1.936
73526ION    NA+45252  24.136  38.240   0.620
73527ION    NA+45253  23.561  29.592   4.506
73528ION    NA+45254   5.751  37.044   0.069
73529ION    NA+45255  27.190   1.901  14.068
73530ION    NA+45256  28.651   6.735  12.953
73531ION    NA+45257  41.947   5.953   1.725
73532ION    NA+45258   0.755  31.534  13.547
73533ION    NA+45259   1.515  36.265  12.971
73534ION    NA+45260  16.597  26.417   3.118
73535ION    NA+45261  27.107   1.738   1.788
73536ION    NA+45262  30.776  29.461  14.020
73537ION    NA+45263  22.438  36.247  10.156
73538ION    NA+45264  22.250   9.139   4.064
73539ION    NA+45265  19.819  14.270  12.520
73540ION    NA+45266   3.309  42.691  14.348
73541ION    NA+45267  24.006  12.601  11.806
73542ION    NA+45268  32.291  12.519  13.319
73543ION    NA+45269  34.216  34.551  11.408
73544ION    NA+45270  43.944  26.914   2.218
73545ION    NA+45271  13.772  39.602   4.010
73546ION    NA+45272  22.741  15.845   1.799
73547ION    NA+45273  11.958  28.475  12.600
73548ION    NA+45274   0.942  23.208   2.334
73549ION    NA+45275  10.275  36.100   1.831
73550ION    NA+45276  34.002   2.319  11.803
73551ION    NA+45277  43.494   0.723   2.341
73552ION    NA+45278   5.312  39.023  13.876
73553ION    NA+45279  21.786   4.925  13.457
73554ION    NA+45280   9.155  25.691  13.978
73555ION    NA+45281  28.506  39.963   4.173
73556ION    NA+45282  35.792  19.739  10.714
73557ION    NA+45283  12.918  14.211  13.719
73558ION    NA+45284  33.081  19.723   0.078
73559ION    NA+45285  32.335   7.550  14.455
73560ION    NA+45286   6.516  37.615  10.393
73561ION    NA+45287  43.939  13.005   0.300
73562ION    NA+45288   3.181  20.350  14.974
73563ION    NA+45289  21.963   6.455   0.888
73564ION    NA+45290  18.625   5.902  12.153
73565ION    NA+45291  28.751  37.010  10.554
73566ION    NA+45292  21.216  44.236  11.516
73567ION    NA+45293   1.058  15.536   0.598
73568ION    NA+45294  15.220  34.641   1.690
73569ION    NA+45295   8.878  13.185   2.122
73570ION    NA+45296  27.637  41.728   0.165
73571ION    NA+45297  28.073  39.253   0.329
73572ION    NA+45298  22.989  29.048   1.232
73573ION    NA+45299  25.435  12.177  10.702
73574ION    NA+45300   6.909   9.852   3.322
73575ION    NA+45301  11.602  24.183   2.922
73576ION    NA+45302  14.701  22.319  14.126
73577ION    NA+45303  42.902  17.986   0.713
73578ION    NA+45304  33.111  23.535  13.828
73579ION    NA+45305  10.459   4.373  12.061
73580ION    NA+45306   7.502   6.265  10.148
73581ION    NA+45307  36.543  38.404  11.191
73582ION    NA+45308  40.532  26.222  13.073
73583ION    NA+45309  14.954   2.435   4.139
73584ION    NA+45310  10.527  24.922  14.570
73585ION    NA+45311  20.126  26.035   4.710
73586ION    NA+45312  12.443  10.359  14.215
73587ION    NA+45313   6.328  10.664   1.064
73588ION    NA+45314   2.306   9.818   1.638
73589ION    NA+45315   2.577  20.113   1.719
73590ION    NA+45316  43.461  25.640  11.828
73591ION    NA+45317  33.065  24.356  12.740
73592ION    NA+45318  35.771  32.672   4.295
73593ION    NA+45319  18.221  35.392   1.221
73594ION    NA+45320  15.894   6.062  13.613
73595ION    NA+45321   1.459  16.083  10.865
73596ION    NA+45322   7.896  35.351   4.608
73597ION    NA+45323  32.586  15.298   2.955
73598ION    NA+45324   4.051   3.114   3.642
73599ION    NA+45325  12.638  42.761  12.749
73600ION    NA+45326  42.197  32.855  14.190
73601ION    NA+45327  38.605  34.026   3.783
73602ION    NA+45328  41.277  31.039  13.859
73603ION    NA+45329  25.647   7.926   1.193
73604ION    NA+45330  38.922   5.709   4.730
73605ION    NA+45331  40.179  41.634   0.666
73606ION    NA+45332  21.137  25.475   1.366
73607ION    NA+45333  42.154  20.749   2.520
73608ION    NA+45334  35.976  14.549  13.669
73609ION    NA+45335  20.837   1.782   2.824
73610ION    NA+45336  40.712  40.893  12.154
73611ION    NA+45337  28.560  30.882  12.483
73612ION    NA+45338   6.004  31.605  12.943
73613ION    NA+45339  21.524  19.149  13.536
73614ION    NA+45340  33.390  22.808   3.183
73615ION    NA+45341  40.198  21.963  13.147
73616ION    NA+45342  42.969  13.320   3.991
73617ION    NA+45343   9.163  26.030   0.899
73618ION    NA+45344  42.380  15.774  10.907
73619ION    NA+45345  28.200  20.565   4.958
73620ION    NA+45346   7.776  20.046   0.847
73621ION    NA+45347   3.428  35.553  10.677
73622ION    NA+45348   0.005  35.388  10.779
73623ION    NA+45349  20.048  14.708   3.803
73624ION    NA+45350   8.080  25.041   0.857
73625ION    NA+45351   2.728   2.719  11.227
73626ION    NA+45352  40.156  42.440   5.110
73627ION    NA+45353  14.658  43.428  11.658
73628ION    NA+45354  44.571  38.029   4.576
73629ION    NA+45355  32.156  18.981  12.886
73630ION    NA+45356  20.822  38.410  11.128
73631ION    NA+45357   7.872   8.949  14.043
73632ION    NA+45358   5.264   1.740   3.604
73633ION    NA+45359  36.199   1.574  10.720
73634ION    NA+45360   7.869   5.003   3.244
73635ION    NA+45361  11.363  37.984  13.959
73636ION    NA+45362  16.044   0.416   0.930
73637ION    NA+45363  37.615  25.375  12.669
73638ION    NA+45364  33.939   6.658   1.138
73639ION    NA+45365  35.727  17.729   0.946
73640ION    NA+45366  15.893   9.247   3.368
73641ION    NA+45367  31.665   1.395  11.497
73642ION    NA+45368  39.477  28.998  14.677
73643ION    NA+45369  36.884  18.328  10.757
73644ION    NA+45370  34.994   2.421   3.043
73645ION    NA+45371  19.603   5.228  14.495
73646ION    NA+45372  17.494  24.728  13.108
73647ION    NA+45373   7.781  41.049   4.920
73648ION    NA+45374  26.513  16.072   1.292
73649ION    NA+45375   4.475  35.613  10.542
73650ION    NA+45376  17.219  30.612   3.855
73651ION    NA+45377   5.834  32.355   0.755
73652ION    NA+45378  14.083   5.583   1.333
73653ION    NA+45379   4.380  12.852   4.136
73654ION    NA+45380  10.886   2.285  14.566
73655ION    NA+45381  42.853  14.354   9.858
73656ION    NA+45382  10.377  11.342  12.779
73657ION    NA+45383   2.837  27.929   2.390
73658ION    NA+45384  39.533   1.271   4.341
73659ION    NA+45385   0.135   9.309  11.020
73660ION    NA+45386  24.151  30.677   3.691
73661ION    NA+45387   6.147  40.946   1.791
73662ION    NA+45388   5.551  24.130   3.150
73663ION    NA+45389  28.108   6.637  10.997
73664ION    NA+45390   5.866  22.587   3.756
73665ION    NA+45391  21.702  44.085  12.407
73666ION    NA+45392   9.855   7.509   1.736
73667ION    NA+45393  19.598  16.732   3.472
73668ION    NA+45394   8.798   5.942  13.855
73669ION    NA+45395  20.988  14.842  11.368
73670ION    NA+45396  40.748  32.160   4.008
73671ION    NA+45397   4.338   6.443   1.264
73672ION    NA+45398  35.282  15.919  12.058
73673ION    NA+45399   7.226  25.752  12.655
73674ION    NA+45400  17.763  31.647  10.755
73675ION    NA+45401  39.091  14.607  14.903
73676ION    NA+45402  30.702  13.610   2.433
73677ION    NA+45403  44.353  30.093   3.281
73678ION    NA+45404  16.961   2.907  11.269
73679ION    NA+45405  18.859  41.364   0.871
73680ION    NA+45406  13.204   4.258   3.461
73681ION    NA+45407  41.115   0.127   1.870
73682ION    NA+45408  15.806   5.248  13.379
73683ION    NA+45409  43.653  36.801  11.254
73684ION    NA+45410  43.576  21.753   0.711
73685ION    NA+45411   1.959  11.791  11.335
73686ION    NA+45412   1.778  32.431  10.309
73687ION    NA+45413  12.571   2.070  10.931
73688ION    NA+45414  34.186  35.502   1.822
73689ION    NA+45415   3.798  38.054   4.348
73690ION    NA+45416  37.152  42.313   4.139
73691ION    NA+45417  44.142  18.519   0.474
73692ION    NA+45418  31.060  24.692   4.336
73693ION    NA+45419  26.128   9.569   3.166
73694ION    NA+45420  37.944  28.946  13.751
73695ION    NA+45421  41.775   2.043   0.720
73696ION    NA+45422   3.667  44.129   9.580
73697ION    NA+45423  15.048  12.022   2.811
73698ION    NA+45424  19.726  16.366  14.194
73699ION    NA+45425  44.875  19.749  12.207
73700ION    NA+45426  38.703  41.410  11.066
73701ION    NA+45427  19.094  12.398  10.919
73702ION    NA+45428   9.474  27.228  14.834
73703ION    NA+45429  26.989  27.282  13.499
73704ION    NA+45430  40.764  39.010  10.644
73705ION    NA+45431   4.299   0.536  12.697
73706ION    NA+45432  19.639  20.619  10.784
73707ION    NA+45433  19.043  16.730   2.640
73708ION    NA+45434  15.843  10.554   4.269
73709ION    NA+45435  13.106  12.448   2.754
73710ION    NA+45436  19.499  12.242   0.332
73711ION    NA+45437   1.401   7.719   0.579
73712ION    NA+45438  32.528  32.666  14.552
73713ION    NA+45439   5.673   0.924   3.692
73714ION    NA+45440   2.096  33.846  12.531
73715ION    NA+45441   1.704  39.572  12.713
73716ION    NA+45442  34.132  31.265   4.185
73717ION    NA+45443  33.029   1.654  12.131
73718ION    NA+45444  23.234  25.706   0.647
73719ION    NA+45445  39.599  39.041  13.116
73720ION    NA+45446  16.594  34.417   2.373
73721ION    NA+45447   0.426   0.582   1.321
73722ION    NA+45448  11.593  36.497   0.817
73723ION    NA+45449  34.862   1.187  10.642
73724ION    NA+45450   0.124  17.454  11.816
73725ION    NA+45451  26.925  11.359  11.669
73726ION    NA+45452  20.234  34.298   1.007
73727ION    NA+45453  31.099  19.226   2.123
73728ION    NA+45454   3.989  44.556   2.022
73729ION    NA+45455   6.644  31.980  10.746
73730ION    NA+45456  11.605  20.286  13.512
73731ION    NA+45457  44.032  14.160   2.672
73732ION    NA+45458  36.528  28.787   2.379
73733ION    NA+45459  39.449  12.893   3.896
73734ION    NA+45460   6.482  32.717   2.920
73735ION    NA+45461  32.205  18.412   1.091
73736ION    NA+45462  31.515  26.892  12.576
73737ION    NA+45463   9.312  33.472  12.441
73738ION    NA+45464  18.225  43.213  14.216
73739ION    NA+45465  21.263   1.457  13.197
73740ION    NA+45466  32.034  35.305   2.355
73741ION    NA+45467  30.259  33.919  13.217
73742ION    NA+45468  41.179   9.191   4.243
73743ION    NA+45469  20.870   4.782   0.234
73744ION    NA+45470   3.718   3.935   4.107
73745ION    NA+45471   4.135  34.751  12.903
73746ION    NA+45472  13.163   4.113   1.965
73747ION    NA+45473  26.576  31.861  13.453
73748ION    NA+45474  33.984   1.974  13.586
73749ION    NA+45475  30.442  14.208  10.703
73750ION    NA+45476  38.273  24.560   0.979
73751ION    NA+45477  41.751   4.121   2.252
73752ION    NA+45478  30.451   5.823  12.087
73753ION    NA+45479   7.167  29.763  11.982
73754ION    NA+45480  39.697   8.484   2.127
73755ION    NA+45481   9.377  16.904   2.027
73756ION    NA+45482  43.777   9.394  14.025
73757ION    NA+45483  21.023  16.029  13.853
73758ION    NA+45484   5.166  43.372  13.568
73759ION    NA+45485  41.729  42.088  14.633
73760ION    NA+45486   7.413  28.380  13.723
73761ION    NA+45487  39.508  40.927   4.242
73762ION    NA+45488  13.738  15.994   0.484
73763ION    NA+45489  19.837  13.094   0.733
73764ION    NA+45490  25.661   1.007  13.502
73765ION    NA+45491  18.258   5.051  12.698
73766ION    NA+45492  20.121   1.150   3.612
73767ION    NA+45493  36.360  24.218  12.915
73768ION    NA+45494  21.806  24.915  11.175
73769ION    NA+45495  29.644  25.394  12.978
73770ION    NA+45496   2.320  12.260  14.463
73771ION    NA+45497  17.593  11.995  13.570
73772ION    NA+45498   2.525  16.797   2.270
73773ION    NA+45499  18.234  17.281   3.743
73774ION    NA+45500   9.795  39.759  13.759
73775ION    NA+45501   2.491   6.693  11.055
73776ION    NA+45502  32.672   1.061  14.927
73777ION    NA+45503  41.029  22.545  13.469
73778ION    NA+45504  43.892  10.615  10.603
73779ION    NA+45505  41.334   2.807   0.442
73780ION    NA+45506   4.951  32.476  14.482
73781ION    NA+45507  43.953  32.880   0.543
73782ION    NA+45508   1.932  14.241  14.032
73783ION    NA+45509  28.172  22.482  13.368
73784ION    NA+45510  27.710  23.982  12.915
73785ION    NA+45511  15.135  19.791  12.612
73786ION    NA+45512   6.117   0.990   9.886
73787ION    NA+45513  41.843  26.967   3.873
73788ION    NA+45514  31.318   9.311   2.259
73789ION    NA+45515  22.948  27.838   4.430
73790ION    NA+45516   1.202  12.330   1.827
73791ION    NA+45517  21.521  37.248   4.060
73792ION    NA+45518  31.035  42.812   2.748
73793ION    NA+45519  25.780  26.570  12.481
73794ION    NA+45520  28.408   2.457   0.020
73795ION    NA+45521  31.287  23.969   3.683
73796ION    NA+45522  39.806   5.511   2.736
73797ION    NA+45523  10.870  36.019   5.008
73798ION    NA+45524  42.954   1.539  14.764
73799ION    NA+45525  21.690  20.141  12.213
73800ION    NA+45526  10.730  25.296  10.233
73801ION    NA+45527  25.604  24.056  10.703
73802ION    NA+45528  18.605  21.512  12.568
73803ION    NA+45529  29.084  41.594  10.742
73804ION    NA+45530  34.141  31.579   0.927
73805ION    NA+45531  43.341  28.036   1.454
73806ION    NA+45532  22.953  13.997   2.471
73807ION    NA+45533  41.677   6.844  12.304
73808ION    NA+45534  11.974   1.002   0.598
73809ION    NA+45535  16.807   3.912   1.696
73810ION    NA+45536   0.812  28.961   2.844
73811ION    NA+45537  23.421  17.467  13.510
73812ION    NA+45538  30.812  35.052  11.372
73813ION    NA+45539  22.778  25.626  10.198
73814ION    NA+45540   4.149  43.572  13.336
73815ION    NA+45541  39.313  15.809   0.486
73816ION    NA+45542  25.419  21.814   2.691
73817ION    NA+45543  25.889  33.999   0.535
73818ION    NA+45544  43.591  37.686  13.736
73819ION    NA+45545  15.237  21.166  14.013
73820ION    NA+45546  14.266  35.617   0.295
73821ION    NA+45547  35.213  36.890   1.533
73822ION    NA+45548  11.236   1.764  10.799
73823ION    NA+45549  44.681   7.642  11.278
73824ION    NA+45550  13.092  17.036  12.682
73825ION    NA+45551  25.053  37.155  11.942
73826ION    NA+45552  12.591  43.290  13.500
73827ION    NA+45553  14.642  35.892  10.246
73828ION    NA+45554  34.528  34.082   0.269
73829ION    NA+45555  11.164   4.778   2.815
73830ION    NA+45556  11.089  29.150   4.003
73831ION    NA+45557  14.478  24.789   3.466
73832ION    NA+45558  28.047  36.501  12.880
73833ION    NA+45559   4.994  34.464  12.966
73834ION    NA+45560  21.436  12.845   1.377
73835ION    NA+45561  22.940   1.922  12.057
73836ION    NA+45562   6.969  30.091   3.727
73837ION    NA+45563  44.486  22.755   3.184
73838ION    NA+45564  42.753  22.526  10.600
73839ION    NA+45565  13.292  29.725   2.651
73840ION    NA+45566  15.211  39.559  10.322
73841ION    NA+45567   5.718  17.512   0.805
73842ION    NA+45568  11.837  31.905   1.932
73843ION    NA+45569  35.387   8.874  13.112
73844ION    NA+45570  34.940  40.876  13.658
73845ION    NA+45571  28.055   7.633  13.994
73846ION    NA+45572  29.320  32.920   3.296
73847ION    NA+45573  20.052  22.370   2.462
73848ION    NA+45574  40.078  16.665   3.251
73849ION    NA+45575  11.025  33.975  14.142
73850ION    NA+45576  16.936   8.817   4.088
73851ION    NA+45577  12.877  35.213   2.420
73852ION    NA+45578  15.340   1.751   1.937
73853ION    NA+45579  33.415   5.737   4.574
73854ION    NA+45580  14.597  22.213  13.137
73855ION    NA+45581  22.784  42.513   0.178
73856ION    NA+45582  38.301  19.480  13.776
73857ION    NA+45583  17.146  30.340   1.161
73858ION    NA+45584  24.119  33.737   4.199
73859ION    NA+45585   4.594  39.800  13.961
73860ION    NA+45586  20.292  29.327  10.272
73861ION    NA+45587  19.307   1.661  11.686
73862ION    NA+45588  24.804  13.521  13.532
73863ION    NA+45589   2.159  28.164  14.517
73864ION    NA+45590  31.397  16.066   2.606
73865ION    NA+45591  32.870  30.049  10.817
73866ION    NA+45592   8.054   5.622  13.541
73867ION    NA+45593  24.916  14.200   0.833
73868ION    NA+45594  25.144  17.559  12.036
73869ION    NA+45595   3.752   4.783  11.906
73870ION    NA+45596  25.888  39.809   4.127
73871ION    NA+45597  16.637  20.784   4.640
73872ION    NA+45598  17.499  30.436   2.564
73873ION    NA+45599  36.828   7.511   4.852
73874ION    NA+45600  35.108  15.305  14.887
73875ION    NA+45601  25.717   2.012  13.536
73876ION    NA+45602   2.016  35.958   1.454
73877ION    NA+45603  34.639   3.541  10.811
73878ION    NA+45604  26.709  37.064   0.910
73879ION    NA+45605  44.290   5.334   2.585
73880ION    NA+45606  12.091   3.972   4.083
73881ION    NA+45607  14.266  32.118   1.206
73882ION    NA+45608  12.015  15.068  13.299
73883ION    NA+45609  44.850  15.318  14.561
73884ION    NA+45610  26.902  10.191   1.131
73885ION    NA+45611  22.581  41.896   1.305
73886ION    NA+45612  42.403  42.532  13.086
73887ION    NA+45613  35.255  44.093  14.991
73888ION    NA+45614  18.246  13.380   3.640
73889ION    NA+45615  29.545  19.105   1.700
73890ION    NA+45616  19.324   2.575  11.629
73891ION    NA+45617  33.743   9.154   4.532
73892ION    NA+45618  11.233   2.484   3.831
73893ION    NA+45619  30.042  17.582  12.337
73894ION    NA+45620  28.488  38.591  11.764
73895ION    NA+45621  23.221  22.300   3.928
73896ION    NA+45622  34.348  41.850   5.541
73897ION    NA+45623   8.247  15.734   1.753
73898ION    NA+45624  34.011  39.885  14.914
73899ION    NA+45625  44.634  39.025   4.651
73900ION    NA+45626  32.729  32.025   3.685
73901ION    NA+45627  15.532  44.429   3.273
73902ION    NA+45628  17.137  34.102   1.406
73903ION    NA+45629  35.085  14.324   9.934
73904ION    NA+45630  40.232  39.797  13.285
73905ION    NA+45631   6.982  28.641  11.057
73906ION    NA+45632  30.248  27.159  12.107
73907ION    NA+45633  41.053   7.284   1.658
73908ION    NA+45634  29.389  22.947   3.627
73909ION    NA+45635  11.515   1.077   4.028
73910ION    NA+45636  16.233  38.736   4.946
73911ION    NA+45637  36.340  42.504   4.691
73912ION    NA+45638  10.116  20.644  13.869
73913ION    NA+45639  37.130  14.570  13.517
73914ION    NA+45640  20.107  42.403   1.691
73915ION    NA+45641  32.112  17.172   3.163
73916ION    NA+45642  13.113  16.649   2.737
73917ION    NA+45643  25.436  18.569   1.351
73918ION    NA+45644  11.401  15.631   2.848
73919ION    NA+45645  30.455   9.281   1.683
73920ION    NA+45646  44.497  20.461  11.067
73921ION    NA+45647  37.073  23.941   1.419
73922ION    NA+45648  13.300  26.962   4.131
73923ION    NA+45649  32.937  24.025  10.638
73924ION    NA+45650  40.520   4.883   2.428
73925ION    NA+45651  33.665  30.871  13.320
73926ION    NA+45652  32.070  38.570  11.207
73927ION    NA+45653  19.823  11.350   4.123
73928ION    NA+45654  31.638  13.823  10.745
73929ION    NA+45655   8.340  15.251   3.645
73930ION    NA+45656  13.114  25.710  11.124
73931ION    NA+45657   3.496  25.176   1.967
73932ION    NA+45658  33.864   5.329   3.546
73933ION    NA+45659   0.968  16.922  11.877
73934ION    NA+45660  21.507  26.652  12.415
73935ION    NA+45661  40.548  42.655   4.078
73936ION    NA+45662  39.328  13.492  14.083
73937ION    NA+45663  26.663  28.561   4.819
73938ION    NA+45664  19.241  34.041   4.621
73939ION    NA+45665  17.630  39.562   0.678
73940ION    NA+45666  30.950  28.819   1.393
73941ION    NA+45667  39.965   1.933  12.582
73942ION    NA+45668  15.012  43.297   2.791
73943ION    NA+45669   2.891  28.880   4.047
73944ION    NA+45670  17.228   8.232   3.259
73945ION    NA+45671  28.888  14.274  12.746
73946ION    NA+45672   9.921   2.473   2.622
73947ION    NA+45673  32.926  15.219   0.692
73948ION    NA+45674  12.609   3.556   2.319
73949ION    NA+45675  31.932  19.646  13.598
73950ION    NA+45676   8.400   6.813  13.566
73951ION    NA+45677  13.323   4.698  13.712
73952ION    NA+45678  41.117  41.834   4.127
73953ION    NA+45679   4.635  40.315  11.843
73954ION    NA+45680  44.764  31.390   4.006
73955ION    NA+45681  22.935  30.094   4.198
73956ION    NA+45682  14.176   6.995   1.680
73957ION    NA+45683  43.783  20.581  11.511
73958ION    NA+45684  42.726  44.292   5.276
73959ION    NA+45685  44.635  34.514   5.198
73960ION    NA+45686   8.388   3.246  10.634
73961ION    NA+45687  24.775  14.081   4.029
73962ION    NA+45688  33.516   5.193   0.402
73963ION    NA+45689  43.517  31.051   1.915
73964ION    NA+45690  11.570  35.606  13.105
73965ION    NA+45691   7.284  24.200   3.966
73966ION    NA+45692  24.105  18.486  14.231
73967ION    NA+45693  30.733  12.193   3.253
73968ION    NA+45694  30.574  16.899   0.843
73969ION    NA+45695   8.982  43.831   0.863
73970ION    NA+45696  19.537  33.584  12.198
73971ION    NA+45697  44.499  29.656  12.977
73972ION    NA+45698  33.704  39.597   1.426
73973ION    NA+45699  23.952  23.212  11.620
73974ION    NA+45700  25.210  34.318   4.578
73975ION    NA+45701  34.494  14.410   4.361
73976ION    NA+45702   8.536  38.105  11.336
73977ION    NA+45703  11.047  19.141  13.396
73978ION    NA+45704   0.933   4.404   4.201
73979ION    NA+45705   8.893  16.735   2.886
73980ION    NA+45706  40.062   3.624  12.575
73981ION    NA+45707  15.550  39.707   1.295
73982ION    NA+45708  10.689  16.498   3.261
73983ION    NA+45709   4.476  36.202  12.329
73984ION    NA+45710  43.173  40.686   2.922
73985ION    NA+45711  39.079  10.183  11.279
73986ION    NA+45712  39.980   9.544   4.661
73987ION    NA+45713  22.610  12.802   1.890
73988ION    NA+45714  21.798  24.860   5.614
73989ION    NA+45715  23.169  35.099  14.427
73990ION    NA+45716  25.105  42.221  11.422
73991ION    NA+45717  10.556  32.054   3.587
73992ION    NA+45718  38.849  10.079   5.523
73993ION    NA+45719  22.632   6.975  11.589
73994ION    NA+45720   4.551  22.959   1.933
73995ION    NA+45721  38.850  39.879   4.638
73996ION    NA+45722   4.244  19.417  13.404
73997ION    NA+45723  17.994  15.391  11.595
73998ION    NA+45724  26.321   9.047   3.997
73999ION    NA+45725  38.844  36.035  11.217
74000ION    NA+45726  32.303  13.812   1.494
74001ION    NA+45727  29.661  16.204   2.906
74002ION    NA+45728  22.240  26.059   0.844
74003ION    NA+45729  31.243  19.528  12.883
74004ION    NA+45730  23.856  18.438   4.734
74005ION    NA+45731  27.165  13.807   2.130
74006ION    NA+45732  22.689  25.768  13.424
74007ION    NA+45733  14.103  16.248   1.613
74008ION    NA+45734  32.386  28.192   5.112
74009ION    NA+45735  31.383  30.874   3.278
74010ION    NA+45736  21.307  32.261  13.557
74011ION    NA+45737  31.666  42.066  14.160
74012ION    NA+45738  21.552  18.983   4.384
74013ION    NA+45739   5.208  34.625   4.454
74014ION    NA+45740  23.774   8.235   1.190
74015ION    NA+45741  26.395  22.553   3.418
74016ION    NA+45742  22.592  35.756  13.415
74017ION    NA+45743  41.972  23.132  10.753
74018ION    NA+45744  37.591   9.579  11.142
74019ION    NA+45745  24.388  41.687   4.606
74020ION    NA+45746  35.562  36.462  11.441
74021ION    NA+45747   5.936  40.668   0.637
74022ION    NA+45748  34.841  42.467   2.385
74023ION    NA+45749  10.252  30.315   3.481
74024ION    NA+45750  41.490   0.942   1.289
74025ION    NA+45751  12.679   3.519   1.323
74026ION    NA+45752   0.922  12.677  12.467
74027ION    NA+45753  12.559  32.382   3.219
74028ION    NA+45754  18.849  13.837   2.167
74029ION    NA+45755  32.539  31.612  13.312
74030ION    NA+45756  22.921  41.962   2.682
74031ION    NA+45757  24.990  26.675   1.356
74032ION    NA+45758  30.096   5.722   0.839
74033ION    NA+45759  22.066  11.243   4.691
74034ION    NA+45760  28.360  20.190   4.152
74035ION    NA+45761  18.084  30.596   0.855
74036ION    NA+45762  15.603  15.029  13.911
74037ION    NA+45763  29.598  19.347   4.456
74038ION    NA+45764   4.442  29.079  12.107
74039ION    NA+45765  19.542  30.118  10.883
74040ION    NA+45766  17.279  12.769   2.301
74041ION    NA+45767  13.546  10.677  11.148
74042ION    NA+45768  23.471  23.122   0.920
74043ION    NA+45769   1.605  39.201   4.026
74044ION    NA+45770   3.697   7.856   3.457
74045ION    NA+45771  33.665   6.642  10.242
74046ION    NA+45772   0.835  33.998  14.249
74047ION    NA+45773  13.058  28.260  14.543
74048ION    NA+45774  15.361  42.835  12.361
74049ION    NA+45775  12.510  26.571   2.509
74050ION    NA+45776  43.783  13.715  11.617
74051ION    NA+45777  26.033  41.820   2.120
74052ION    NA+45778   3.419  23.509   4.224
74053ION    NA+45779  31.215   9.043   1.014
74054ION    NA+45780  17.925  26.941   4.189
74055ION    NA+45781  32.136  21.182  11.857
74056ION    NA+45782  29.966  12.574   4.345
74057ION    NA+45783  37.805  16.276  12.086
74058ION    NA+45784  33.874  13.719   3.716
74059ION    NA+45785   4.480  32.818  13.178
74060ION    NA+45786  34.545  22.698   2.735
74061ION    NA+45787  37.631  22.739   3.771
74062ION    NA+45788  15.650  31.395   2.841
74063ION    NA+45789  19.483  44.451   1.005
74064ION    NA+45790  30.614   3.482  13.410
74065ION    NA+45791  36.721  42.327  13.929
74066ION    NA+45792  20.518  39.531  11.558
74067ION    NA+45793  27.107   2.874  11.567
74068ION    NA+45794  23.290  32.937  13.534
74069ION    NA+45795  24.699  29.731   0.834
74070ION    NA+45796  42.696   2.207   3.290
74071ION    NA+45797   8.954  11.554   1.438
74072ION    NA+45798  10.297  10.186   2.760
74073ION    NA+45799  34.177   1.708  12.641
74074ION    NA+45800  13.288   2.498   4.275
74075ION    NA+45801   6.196  40.472   4.025
74076ION    NA+45802  31.443   9.829   0.194
74077ION    NA+45803  31.900  35.443   1.465
74078ION    NA+45804  13.704  28.825  14.657
74079ION    NA+45805  11.620  21.592  11.145
74080ION    NA+45806  14.209  40.047   2.314
74081ION    NA+45807  12.890  38.959   0.834
74082ION    NA+45808  32.803   6.167   1.045
74083ION    NA+45809  38.528  43.713  14.372
74084ION    NA+45810   6.982   2.758   3.168
74085ION    NA+45811  15.569  17.762  10.680
74086ION    NA+45812   1.850  22.626   2.300
74087ION    NA+45813  32.237   9.307   1.865
74088ION    NA+45814   5.843  28.613  12.863
74089ION    NA+45815   9.704  29.949   1.200
74090ION    NA+45816  24.275  33.478   1.011
74091ION    NA+45817  15.174  28.442  13.832
74092ION    NA+45818   3.783   2.373  10.521
74093ION    NA+45819  31.854   5.315  12.931
74094ION    NA+45820  14.159   3.224   2.439
74095ION    NA+45821  11.045  11.093  11.651
74096ION    NA+45822   1.405  28.757  14.911
74097ION    NA+45823   2.285   0.281  14.170
74098ION    NA+45824  25.631   9.422  12.462
74099ION    NA+45825  41.419  42.089  10.769
74100ION    NA+45826  10.118  34.935   3.687
74101ION    NA+45827  36.559  32.855  11.343
74102ION    NA+45828  44.417  37.029   3.623
74103ION    NA+45829   8.127  18.256  13.090
74104ION    NA+45830   5.471  29.184   2.884
74105ION    NA+45831   0.138  22.998  10.555
74106ION    NA+45832   4.770  19.627   1.376
74107ION    NA+45833  23.442  20.324   3.912
74108ION    NA+45834  24.928   0.551  10.486
74109ION    NA+45835  39.368  35.971  12.997
74110ION    NA+45836  39.777  22.459   0.210
74111ION    NA+45837  16.766  17.003   4.227
74112ION    NA+45838   0.601  39.169   4.377
74113ION    NA+45839  26.011  30.065  10.665
74114ION    NA+45840  40.571  35.399  12.611
74115ION    NA+45841  29.393   7.843  10.356
74116ION    NA+45842  18.320  14.568  11.126
74117ION    NA+45843   2.672  41.830   0.018
74118ION    NA+45844  35.909  32.917  13.513
74119ION    NA+45845  42.933  18.660   4.150
74120ION    NA+45846   3.678  36.472   3.605
74121ION    NA+45847  27.517   7.163  10.025
74122ION    NA+45848   7.393  31.068   3.774
74123ION    NA+45849  11.629  16.999  11.996
74124ION    NA+45850  16.208  13.040  11.716
74125ION    NA+45851  12.465   5.080  13.370
74126ION    NA+45852   0.337  43.983   0.284
74127ION    NA+45853  22.528  28.558  12.047
74128ION    NA+45854   0.488  18.654   0.592
74129ION    NA+45855  42.900   0.032   4.626
74130ION    NA+45856  29.156  21.922   3.796
74131ION    NA+45857  34.801  11.460   1.841
74132ION    NA+45858  17.341  42.970   1.945
74133ION    NA+45859  29.296   4.030   4.631
74134ION    NA+45860   2.229  42.532  10.313
74135ION    NA+45861  43.406  23.939  12.910
74136ION    NA+45862  22.378  12.075  11.853
74137ION    NA+45863  30.431  14.811   0.336
74138ION    NA+45864  33.405   7.964  10.882
74139ION    NA+45865  21.723  33.857   1.379
74140ION    NA+45866  36.671  19.435   1.000
74141ION    NA+45867   0.438  20.682  11.324
74142ION    NA+45868  42.222  25.526   0.686
74143ION    NA+45869  42.301  27.420   4.444
74144ION    NA+45870  23.061   5.215   3.838
74145ION    NA+45871  36.873  36.888  14.329
74146ION    NA+45872  21.213  21.646  14.398
74147ION    NA+45873   4.178  20.267  11.227
74148ION    NA+45874   2.820  30.189  13.941
74149ION    NA+45875  28.125  12.221  11.975
74150ION    NA+45876  16.479  20.719  10.934
74151ION    NA+45877  40.390  12.130  14.358
74152ION    NA+45878  42.301  15.714  13.823
74153ION    NA+45879  44.543  14.028  13.288
74154ION    NA+45880   9.270  40.327  11.151
74155ION    NA+45881  41.371  42.344  12.620
74156ION    NA+45882   5.952  24.371  11.908
74157ION    NA+45883  17.255  15.075   0.911
74158ION    NA+45884   9.782  35.344   4.803
74159ION    NA+45885  18.718  29.737  14.169
74160ION    NA+45886  41.085  25.487   4.775
74161ION    NA+45887   3.817  30.150  14.702
74162ION    NA+45888  31.752   2.411  12.497
74163ION    NA+45889   8.736  40.234   3.269
74164ION    NA+45890  27.190  17.063   0.837
74165ION    NA+45891   5.981  34.688  12.930
74166ION    NA+45892  20.278  16.126  11.979
74167ION    NA+45893  39.923  27.694   4.263
74168ION    NA+45894  33.161  24.137   2.362
74169ION    NA+45895   8.806  12.054  13.881
74170ION    NA+45896   9.212   9.509  13.502
74171ION    NA+45897  23.896  39.110   0.066
74172ION    NA+45898  35.103  36.126   5.084
74173ION    NA+45899  12.036  35.279   1.019
74174ION    NA+45900   2.055  26.244  13.406
74175ION    NA+45901  41.361  26.777  13.002
74176ION    NA+45902  30.017  42.857   1.855
74177ION    NA+45903  39.437  41.170   3.274
74178ION    NA+45904  29.020  23.669   5.533
74179ION    NA+45905  11.977  36.306  13.418
74180ION    NA+45906   7.950  25.451  13.461
74181ION    NA+45907   5.739  40.210  10.766
74182ION    NA+45908  37.437  10.674   0.056
74183ION    NA+45909  33.324  39.370   3.067
74184ION    NA+45910  33.092  15.312  14.700
74185ION    NA+45911  12.937  35.000  10.538
74186ION    NA+45912  29.684  37.653   4.546
74187ION    NA+45913  29.976  39.984   1.862
74188ION    NA+45914  43.486  38.477  11.576
74189ION    NA+45915   9.810  28.231  12.465
74190ION    NA+45916  18.206  11.249  12.547
74191ION    NA+45917  27.258  21.216   0.395
74192ION    NA+45918  15.345  42.204  14.941
74193ION    NA+45919  21.357  21.025   1.583
74194ION    NA+45920  26.276  23.223   2.607
74195ION    NA+45921  42.340  25.157  11.896
74196ION    NA+45922  27.641   5.748  12.427
74197ION    NA+45923  35.357   0.851   4.077
74198ION    NA+45924   7.732  41.966   4.041
74199ION    NA+45925   0.815  25.015  11.525
74200ION    NA+45926  23.338   7.237   4.209
74201ION    NA+45927  17.039  18.776  10.759
74202ION    NA+45928  38.878  31.113   5.253
74203ION    NA+45929  20.682  15.530   2.213
74204ION    NA+45930   0.937  37.185   0.420
74205ION    NA+45931  34.894   9.310  13.966
74206ION    NA+45932  23.487   4.793  12.667
74207ION    NA+45933  30.333   7.149  11.753
74208ION    NA+45934  19.755  28.335   2.727
74209ION    NA+45935  43.679  35.068   2.285
74210ION    NA+45936   0.307  36.509   4.397
74211ION    NA+45937  37.443  37.798  14.342
74212ION    NA+45938  13.613  23.134   3.255
74213ION    NA+45939  26.903   1.987   3.190
74214ION    NA+45940  31.261  35.685   4.131
74215ION    NA+45941  17.835  35.800  10.761
74216ION    NA+45942  25.732   7.972  13.072
74217ION    NA+45943  29.364  26.615   4.110
74218ION    NA+45944  22.912  18.128   1.795
74219ION    NA+45945   9.668  40.064   1.387
74220ION    NA+45946  44.797  41.777  12.375
74221ION    NA+45947  16.623  16.708  12.451
74222ION    NA+45948  21.851  17.315  12.858
74223ION    NA+45949   5.308  26.962   2.178
74224ION    NA+45950   0.375   2.814  13.246
74225ION    NA+45951  38.901   2.434  13.898
74226ION    NA+45952  23.828  43.778   1.249
74227ION    NA+45953  20.837  32.922   2.706
74228ION    NA+45954   6.201  25.013  10.791
74229ION    NA+45955   6.099  35.041  14.770
74230ION    NA+45956   8.849  23.317  14.740
74231ION    NA+45957  38.597  25.058  12.987
74232ION    NA+45958   5.972  44.927   0.404
74233ION    NA+45959  37.368   6.742   3.127
74234ION    NA+45960  22.721  24.818  10.784
74235ION    NA+45961  33.585  31.695  13.882
74236ION    NA+45962  35.054  26.672  14.393
74237ION    NA+45963  14.179  41.747  11.623
74238ION    NA+45964  41.784  11.889   1.741
74239ION    NA+45965  12.836   1.518  13.498
74240ION    NA+45966  22.687  12.178  14.099
74241ION    NA+45967   2.214   9.902  12.911
74242ION    NA+45968  22.010  25.007  13.392
74243ION    NA+45969  44.470  12.423  14.828
74244ION    NA+45970  28.700  28.209  13.912
74245ION    NA+45971  16.020  23.530  12.403
74246ION    NA+45972  20.281  30.659  11.462
74247ION    NA+45973  23.570  20.784  12.622
74248ION    NA+45974  30.728  13.172  12.881
74249ION    NA+45975   2.438  24.959   0.891
74250ION    NA+45976   5.636   6.743  12.350
74251ION    NA+45977  34.076   7.445  11.594
74252ION    NA+45978  17.216   7.310   3.646
74253ION    NA+45979  26.876   6.435   3.516
74254ION    NA+45980  37.795  40.096   2.960
74255ION    NA+45981  22.974  19.092   1.082
74256ION    NA+45982  28.557   7.889   1.970
74257ION    NA+45983  42.356  37.022   0.350
74258ION    NA+45984  13.371  17.785   1.629
74259ION    NA+45985  30.822  15.400  12.597
74260ION    NA+45986  15.956  11.619   2.577
74261ION    NA+45987  26.567  12.190  12.096
74262ION    NA+45988  31.204   6.502  12.073
74263ION    NA+45989   3.851  15.727   2.345
74264ION    NA+45990  32.045  31.600   3.092
74265ION    NA+45991  24.515  10.742   2.440
74266ION    NA+45992  27.650   8.150  13.108
74267ION    NA+45993  17.951  17.960   0.216
74268ION    NA+45994  36.999  24.831  12.788
74269ION    NA+45995  31.322  33.037   0.708
74270ION    NA+45996  32.629  23.241  12.023
74271ION    NA+45997  27.975  14.801  13.512
74272ION    NA+45998   7.485   9.399   0.812
74273ION    NA+45999  31.020  40.089   1.349
74274ION    NA+46000   3.222  26.223  10.929
74275ION    NA+46001  10.240  29.931   4.404
74276ION    NA+46002  14.686  39.401   3.307
74277ION    NA+46003  34.669  38.090  13.111
74278ION    NA+46004  34.858   4.648   4.991
74279ION    NA+46005  17.998  42.708   1.235
74280ION    NA+46006  11.645  17.006   0.335
74281ION    NA+46007  35.527   0.631   5.069
74282ION    NA+46008  20.062  41.359  10.106
74283ION    NA+46009  13.207   0.219   1.232
74284ION    NA+46010   5.522  25.913  14.206
74285ION    NA+46011   2.255  27.037  12.220
74286ION    NA+46012  20.197  33.250   2.011
74287ION    NA+46013  38.410  13.767   3.782
74288ION    NA+46014  37.264  29.189  14.470
74289ION    NA+46015  33.846  42.299   0.842
74290ION    NA+46016   9.267  42.863  12.764
74291ION    NA+46017  29.524  18.749  13.523
74292ION    NA+46018  39.697  31.658  14.629
74293ION    NA+46019  39.787  33.521  11.405
74294ION    NA+46020  21.008  44.671   3.878
74295ION    NA+46021  26.270  22.502  12.076
74296ION    NA+46022  34.346   8.022   0.451
74297ION    NA+46023  23.681  21.584   5.078
74298ION    NA+46024  24.850  22.561   3.733
74299ION    NA+46025  36.056   4.576  12.760
74300ION    NA+46026   7.024  22.005  11.469
74301ION    NA+46027   5.893  38.891   1.346
74302ION    NA+46028  30.690  20.759  13.479
74303ION    NA+46029  41.614  40.404  13.349
74304ION    NA+46030   1.670   5.820  12.616
74305ION    NA+46031   3.295  12.578   2.292
74306ION    NA+46032   9.677  22.935  12.559
74307ION    NA+46033  15.419   5.567  14.070
74308ION    NA+46034  27.278   8.783   3.877
74309ION    NA+46035  39.915  11.852   1.229
74310ION    NA+46036   3.958  17.380  13.242
74311ION    NA+46037   9.278  41.248  10.726
74312ION    NA+46038  27.988   6.806   0.523
74313ION    NA+46039  21.052  37.120   2.351
74314ION    NA+46040   1.637   8.789   1.697
74315ION    NA+46041  19.026  10.695   4.347
74316ION    NA+46042  39.663  22.381   1.298
74317ION    NA+46043  37.065   4.068   4.607
74318ION    NA+46044  18.295  14.892  13.990
74319ION    NA+46045  35.713  42.921  13.182
74320ION    NA+46046   8.350  32.060   2.789
74321ION    NA+46047  15.549  41.377  11.335
74322ION    NA+46048  42.010  43.223   2.718
74323ION    NA+46049  24.824  13.388   3.459
74324ION    NA+46050  13.277  41.866   0.702
74325ION    NA+46051   8.985  42.525  13.495
74326ION    NA+46052   6.916  12.699  12.443
74327ION    NA+46053  28.425  32.475   3.314
74328ION    NA+46054  34.702  34.936  13.149
74329ION    NA+46055  20.727  35.018   0.867
74330ION    NA+46056  33.162   6.691  13.110
74331ION    NA+46057  14.287  25.139  14.302
74332ION    NA+46058  44.002  19.219  11.474
74333ION    NA+46059  19.074   0.217   3.897
74334ION    NA+46060  39.685  33.245  13.642
74335ION    NA+46061  10.792  14.101  11.670
74336ION    NA+46062   8.224  15.415  10.865
74337ION    NA+46063  20.914   6.690  11.141
74338ION    NA+46064  40.254  27.043  14.290
74339ION    NA+46065   9.762   3.844  10.650
74340ION    NA+46066  40.186  17.036  10.307
74341ION    NA+46067  19.492  20.262   1.735
74342ION    NA+46068  21.480  31.067  11.054
74343ION    NA+46069  11.334  41.745  11.987
74344ION    NA+46070  13.606   0.333   3.861
74345ION    NA+46071  26.618  40.231   4.671
74346ION    NA+46072  34.103  24.698  12.156
74347ION    NA+46073  42.742   5.398   0.345
74348ION    NA+46074  10.732  20.231  11.583
74349ION    NA+46075  16.340  17.272   9.909
74350ION    NA+46076   6.930  21.258  14.881
74351ION    NA+46077  27.916  16.273   3.575
74352ION    NA+46078  35.542  20.600   2.767
74353ION    NA+46079  26.250  30.630  14.810
74354ION    NA+46080  24.732  38.373  14.828
74355ION    NA+46081  16.728  12.312  10.648
74356ION    NA+46082  44.069  22.091  13.033
74357ION    NA+46083  31.144  33.026   3.657
74358ION    NA+46084   3.241  40.825  11.912
74359ION    NA+46085   3.688  19.802   4.045
74360ION    NA+46086  43.995   6.168   0.999
74361ION    NA+46087   9.415  22.155  11.180
74362ION    NA+46088  33.444  36.126   3.918
74363ION    NA+46089  21.652  38.306   4.595
74364ION    NA+46090  29.083  36.927   4.882
74365ION    NA+46091  42.170  43.269   4.769
74366ION    NA+46092   1.777  18.161   2.590
74367ION    NA+46093  38.960  10.758  13.887
74368ION    NA+46094  20.321  21.114  14.211
74369ION    NA+46095  30.262  14.562   4.202
74370ION    NA+46096  21.780   1.097   4.025
74371ION    NA+46097  12.260  30.078   1.843
74372ION    NA+46098  39.776  34.277  13.241
74373ION    NA+46099  33.636   5.263   1.416
74374ION    NA+46100  19.658  14.266   2.995
74375ION    NA+46101  29.716   3.090   4.677
74376ION    NA+46102  27.424  29.878   3.589
74377ION    NA+46103  13.211  38.324   3.411
74378ION    NA+46104  26.984  38.397   4.415
74379ION    NA+46105  16.323  40.589   1.764
74380ION    NA+46106  22.143  41.269   0.880
74381ION    NA+46107  16.804   6.923  10.836
74382ION    NA+46108  10.138  31.569   1.069
74383ION    NA+46109  16.085  32.250  10.240
74384ION    NA+46110  11.874  20.213   3.509
74385ION    NA+46111   4.615   4.429  14.487
74386ION    NA+46112  30.466  32.004  12.565
74387ION    NA+46113  23.482  23.699   1.956
74388ION    NA+46114  38.259  35.281   2.392
74389ION    NA+46115  24.042  13.686   0.464
74390ION    NA+46116  34.165  36.475   4.615
74391ION    NA+46117  31.708  13.644  14.121
74392ION    NA+46118  12.049  22.934  11.469
74393ION    NA+46119  33.987  25.856  12.908
74394ION    NA+46120  43.524   0.778  13.766
74395ION    NA+46121  29.604   9.987   4.647
74396ION    NA+46122  23.324  11.828   5.515
74397ION    NA+46123  26.379  28.115   2.611
74398ION    NA+46124  14.592  26.942  13.162
74399ION    NA+46125   5.271  35.525  11.541
74400ION    NA+46126  42.259   3.037   2.735
74401ION    NA+46127  34.042  34.043   4.570
74402ION    NA+46128   6.859  12.856  11.449
74403ION    NA+46129  43.102  44.231  14.916
74404ION    NA+46130  35.137   2.874   3.815
74405ION    NA+46131   2.539  22.478   9.604
74406ION    NA+46132   7.842   2.516   0.920
74407ION    NA+46133  16.230  27.473  13.342
74408ION    NA+46134   2.129  23.676  10.920
74409ION    NA+46135   9.950   5.392   4.027
74410ION    NA+46136  35.580   5.964  14.437
74411ION    NA+46137   9.186   7.356   3.330
74412ION    NA+46138   1.821   3.381   3.627
74413ION    NA+46139  33.406   7.362   0.147
74414ION    NA+46140  19.822  23.603  13.365
74415ION    NA+46141  16.792  31.871  13.401
74416ION    NA+46142   0.041   0.227  11.192
74417ION    NA+46143  30.552  38.132  10.744
74418ION    NA+46144   1.205  44.683  10.605
74419ION    NA+46145  31.371  33.895  11.663
74420ION    NA+46146  22.004   4.953   0.602
74421ION    NA+46147  10.954  22.420  13.258
74422ION    NA+46148  11.887  19.502   1.634
74423ION    NA+46149   9.854  36.102  14.290
74424ION    NA+46150  40.566  39.433  14.199
74425ION    NA+46151   6.204  16.343   5.448
74426ION    NA+46152  35.615  31.060  14.449
74427ION    NA+46153  34.757   4.704  12.087
74428ION    NA+46154  29.560  43.714   4.099
74429ION    NA+46155  12.091  30.899  10.793
74430ION    NA+46156   1.417  11.172   2.390
74431ION    NA+46157  30.210  29.086   0.240
74432ION    NA+46158  26.151  37.905   1.114
74433ION    NA+46159  35.593  41.236  12.991
74434ION    NA+46160  22.581   7.611   2.139
74435ION    NA+46161  10.940  17.239  13.638
74436ION    NA+46162   8.558  37.272  11.046
74437ION    NA+46163  44.271  43.331   3.592
74438ION    NA+46164  23.635  41.265   2.750
74439ION    NA+46165  41.005  21.600   3.366
74440ION    NA+46166  13.484  35.819  13.480
74441ION    NA+46167  11.293   0.056  13.794
74442ION    NA+46168  44.198  31.486  11.145
74443ION    NA+46169  33.734  40.076   3.644
74444ION    NA+46170  16.189  35.081   3.639
74445ION    NA+46171  28.783  40.095  10.843
74446ION    NA+46172  29.653  36.892   2.522
74447ION    NA+46173  27.793  11.105  12.095
74448ION    NA+46174   0.992  29.998  13.664
74449ION    NA+46175   6.846  38.868  11.983
74450ION    NA+46176  36.201  28.091   1.345
74451ION    NA+46177  22.723   8.864   4.902
74452ION    NA+46178  19.574  15.073   3.001
74453ION    NA+46179   5.524  42.827  11.903
74454ION    NA+46180  40.325   4.437  13.477
74455ION    NA+46181  41.576   1.218   3.756
74456ION    NA+46182  24.184  14.748  14.779
74457ION    NA+46183  34.930  42.229   1.389
74458ION    NA+46184   5.882  23.777  12.572
74459ION    NA+46185  18.975  12.504  12.920
74460ION    NA+46186  24.808  42.165   1.796
74461ION    NA+46187  24.240  10.470   0.947
74462ION    NA+46188  14.743  17.036  13.040
74463ION    NA+46189  12.365  44.165   3.177
74464ION    NA+46190  10.867  10.814   2.230
74465ION    NA+46191  37.507  21.890  10.609
74466ION    NA+46192  18.481  37.307   3.235
74467ION    NA+46193  37.343  16.176   2.166
74468ION    NA+46194   5.176   3.419  14.310
74469ION    NA+46195   9.141  12.635  12.943
74470ION    NA+46196  17.472  29.318  14.481
74471ION    NA+46197  33.234  43.497   3.017
74472ION    NA+46198   6.075  23.693   3.741
74473ION    NA+46199  13.382   0.998  10.378
74474ION    NA+46200  36.367   2.517  12.046
74475ION    NA+46201  26.560  36.035  11.514
74476ION    NA+46202  10.810  43.676  13.713
74477ION    NA+46203   0.407   5.995  12.384
74478ION    NA+46204  34.903  17.420   4.655
74479ION    NA+46205   6.496  25.060   4.042
74480ION    NA+46206  20.283  44.392   0.406
74481ION    NA+46207  23.173   0.058  12.107
74482ION    NA+46208  32.233  44.250   1.982
74483ION    NA+46209  34.090  13.367  14.424
74484ION    NA+46210  28.276  21.708  11.391
74485ION    NA+46211   9.689   5.797   3.123
74486ION    NA+46212  42.836  26.875   3.798
74487ION    NA+46213   8.874  25.721   4.148
74488ION    NA+46214   4.465   3.431   4.548
74489ION    CL-46215  11.432  31.843   1.755
74490ION    CL-46216   3.774  22.460   1.018
74491ION    CL-46217   7.769  10.879  14.989
74492ION    CL-46218  13.294   0.241   3.551
74493ION    CL-46219  25.208  14.339   2.740
74494ION    CL-46220  14.242  20.221  12.304
74495ION    CL-46221   2.172  16.937   1.963
74496ION    CL-46222   5.124  32.793  14.750
74497ION    CL-46223  25.214  39.907   2.908
74498ION    CL-46224   6.704   4.010  11.607
74499ION    CL-46225  18.101  28.522   3.571
74500ION    CL-46226  23.365  17.157  13.829
74501ION    CL-46227   4.342  24.169  10.974
74502ION    CL-46228   9.931  26.574   3.627
74503ION    CL-46229  36.545   7.615  13.367
74504ION    CL-46230  25.563  15.614  12.765
74505ION    CL-46231  38.409  13.983   4.173
74506ION    CL-46232   2.829  38.518  14.087
74507ION    CL-46233   0.436   9.302   0.767
74508ION    CL-46234  37.399  29.085   1.286
74509ION    CL-46235  19.409  11.913  13.908
74510ION    CL-46236   7.377  17.124  13.795
74511ION    CL-46237  36.570  17.446   2.491
74512ION    CL-46238   4.730  12.599   4.244
74513ION    CL-46239  22.954  10.727  13.668
74514ION    CL-46240  41.065   3.014  13.920
74515ION    CL-46241  10.330  13.097  14.426
74516ION    CL-46242   5.425  15.412  14.685
74517ION    CL-46243  27.821  44.989  13.812
74518ION    CL-46244  42.271  44.770  14.490
74519ION    CL-46245  20.977  23.196   4.098
74520ION    CL-46246  29.172  28.325   1.022
74521ION    CL-46247  13.080  30.714  14.104
74522ION    CL-46248   7.543  32.520   3.641
74523ION    CL-46249   0.688  18.228  10.866
74524ION    CL-46250   9.712   3.705   3.448
74525ION    CL-46251  14.065  36.069   5.006
74526ION    CL-46252  30.617  17.119   2.776
74527ION    CL-46253  36.502   9.200  14.062
74528ION    CL-46254  42.184  30.230  11.926
74529ION    CL-46255  27.851  40.138  13.818
74530ION    CL-46256  11.562  18.264  11.117
74531ION    CL-46257  16.979  33.738   1.634
74532ION    CL-46258  10.271  21.908   4.276
74533ION    CL-46259  35.087  39.580  13.123
74534ION    CL-46260  39.000   3.336   9.913
74535ION    CL-46261  41.967  29.361   4.959
74536ION    CL-46262  10.346  41.744   1.398
74537ION    CL-46263  35.083  31.192   1.249
74538ION    CL-46264  34.587  27.856  12.099
74539ION    CL-46265  35.536  32.065   3.089
74540ION    CL-46266  37.024  11.851   2.783
74541ION    CL-46267  14.676  38.515  14.390
74542ION    CL-46268  43.774   6.323   4.120
74543ION    CL-46269  19.537   9.620   1.270
74544ION    CL-46270  34.742  36.843   1.486
74545ION    CL-46271   8.901  35.417   3.240
74546ION    CL-46272  30.486  16.068  14.813
74547ION    CL-46273   9.622  31.833   2.094
74548ION    CL-46274   2.270  44.377  12.424
74549ION    CL-46275  16.814  28.977  13.476
74550ION    CL-46276  23.304   1.757  11.828
74551ION    CL-46277  44.571  39.579  11.631
74552ION    CL-46278  13.152  31.884  13.640
74553ION    CL-46279  21.283  16.094  11.267
74554ION    CL-46280   1.073  16.352  10.873
74555ION    CL-46281  41.566  43.219   2.819
74556ION    CL-46282  35.261  28.873   0.861
74557ION    CL-46283  22.892  33.587   1.079
74558ION    CL-46284  21.490  20.698   1.295
74559ION    CL-46285  35.070  23.183   1.345
74560ION    CL-46286  34.350   4.808  13.553
74561ION    CL-46287  14.760  21.266   4.057
74562ION    CL-46288   0.715  26.091   1.885
74563ION    CL-46289  34.507  29.355  11.915
74564ION    CL-46290  42.731  40.825  12.204
74565ION    CL-46291   4.923  27.306  13.968
74566ION    CL-46292  32.525  44.558  13.907
74567ION    CL-46293  31.324  16.222   2.194
74568ION    CL-46294  24.894  37.741   2.937
74569ION    CL-46295  16.607  38.855   3.551
74570ION    CL-46296  28.697   1.535   4.204
74571ION    CL-46297  29.005  21.756  12.416
74572ION    CL-46298  42.433  43.239   2.554
74573ION    CL-46299  31.877  23.839  10.283
74574ION    CL-46300  20.619  16.410  11.945
74575ION    CL-46301  15.182  19.336  14.173
74576ION    CL-46302  25.203  44.415  13.578
74577ION    CL-46303   8.141   2.924  14.325
74578ION    CL-46304  14.769  29.783  13.051
74579ION    CL-46305   5.859  23.695   1.702
74580ION    CL-46306  30.798  17.229  11.200
74581ION    CL-46307  15.821  15.818  10.769
74582ION    CL-46308  41.267  14.284   4.067
74583ION    CL-46309  32.727  40.901  13.820
74584ION    CL-46310  44.481  12.236  14.413
74585ION    CL-46311  44.983  22.760  13.826
74586ION    CL-46312  22.972   7.643   1.904
74587ION    CL-46313  28.367  20.448   4.525
74588ION    CL-46314  33.643  10.923   2.672
74589ION    CL-46315  32.278  26.083  12.215
74590ION    CL-46316  23.450   8.555   1.231
74591ION    CL-46317   3.611  22.193  10.439
74592ION    CL-46318   6.005   3.291   3.811
74593ION    CL-46319  31.557  22.763   1.656
74594ION    CL-46320  35.905  20.294   0.899
74595ION    CL-46321  15.184  30.031  12.083
74596ION    CL-46322   8.755  18.444  14.953
74597ION    CL-46323  41.109  16.077  11.193
74598ION    CL-46324  11.965  41.111   3.498
74599ION    CL-46325  25.969   3.346  11.140
74600ION    CL-46326  30.934  38.953   5.055
74601ION    CL-46327  21.638   4.481  12.405
74602ION    CL-46328  32.168  43.383   4.737
74603ION    CL-46329   5.547   8.806   1.908
74604ION    CL-46330  44.594  17.602  14.260
74605ION    CL-46331  29.631  22.136   0.846
74606ION    CL-46332  19.993  38.945  13.981
74607ION    CL-46333  14.340  30.937  11.535
74608ION    CL-46334  14.884  12.013  11.758
74609ION    CL-46335  41.940  18.411  14.752
74610ION    CL-46336   0.374  16.768   2.282
74611ION    CL-46337  29.224  36.890   2.644
74612ION    CL-46338  35.147  15.128   3.295
74613ION    CL-46339  32.357  15.140   2.601
74614ION    CL-46340  38.193  30.334   1.680
74615ION    CL-46341   5.173  35.343   2.224
74616ION    CL-46342   4.115  39.937   2.819
74617ION    CL-46343  25.550  15.615   3.778
74618ION    CL-46344   3.496  31.929  10.611
74619ION    CL-46345  41.853  30.018   0.717
74620ION    CL-46346  32.321   0.635   0.837
74621ION    CL-46347  42.446  26.620  13.747
74622ION    CL-46348  22.750  28.280  12.319
74623ION    CL-46349  18.889  38.342  10.414
74624ION    CL-46350  25.248  38.922   4.173
74625ION    CL-46351  41.379  30.123   2.556
74626ION    CL-46352  41.831   8.197   2.286
74627ION    CL-46353   6.320  14.750  14.575
74628ION    CL-46354  43.537  23.609   4.600
74629ION    CL-46355  42.176   6.657   0.633
74630ION    CL-46356  42.823  17.870   2.484
74631ION    CL-46357  18.612  11.072  12.481
74632ION    CL-46358  12.655  31.352  10.865
74633ION    CL-46359  42.485   2.118   3.674
74634ION    CL-46360   5.941  25.512  13.331
74635ION    CL-46361   0.995   1.817   3.811
74636ION    CL-46362  41.240  24.578   1.875
74637ION    CL-46363   7.189  40.325   2.357
74638ION    CL-46364  21.703   5.853  12.227
74639ION    CL-46365  34.618  20.889   1.333
74640ION    CL-46366  43.365  30.129  11.455
74641ION    CL-46367  18.667  43.880  12.140
74642ION    CL-46368  37.784  40.610   4.351
74643ION    CL-46369  18.618  41.939  14.747
74644ION    CL-46370  17.786  18.997  12.582
74645ION    CL-46371  30.022  14.861   3.957
74646ION    CL-46372  22.996  44.652  12.205
74647ION    CL-46373   2.560  37.452   3.276
74648ION    CL-46374   7.072   9.436   3.320
74649ION    CL-46375  40.919  33.046  12.438
74650ION    CL-46376  20.532  25.033  11.403
74651ION    CL-46377  13.828  23.177   2.230
74652ION    CL-46378  44.192  13.781  13.136
74653ION    CL-46379  39.838  26.190  10.796
74654ION    CL-46380  25.340   7.735  13.188
74655ION    CL-46381  33.501  39.013  13.765
74656ION    CL-46382  11.926  22.981  14.674
74657ION    CL-46383  10.603  27.132   1.303
74658ION    CL-46384  30.749  26.714  10.570
74659ION    CL-46385  15.706   5.640  13.704
74660ION    CL-46386  20.283  34.113   3.716
74661ION    CL-46387  33.155  26.681   1.820
74662ION    CL-46388  31.802  11.470  12.880
74663ION    CL-46389  22.103  30.434   3.530
74664ION    CL-46390   7.700  44.992   3.641
74665ION    CL-46391   4.260   7.890  14.896
74666ION    CL-46392   2.053   6.417   5.122
74667ION    CL-46393  15.182  12.096  12.617
74668ION    CL-46394  17.378   9.748   2.732
74669ION    CL-46395  38.395   6.176  12.045
74670ION    CL-46396   3.838   7.652   3.075
74671ION    CL-46397  11.783  33.579  10.494
74672ION    CL-46398  22.474  41.509   1.097
74673ION    CL-46399  36.661  36.031   1.880
74674ION    CL-46400   9.661   2.965  14.401
74675ION    CL-46401  43.520  36.528   1.198
74676ION    CL-46402  32.808  34.048  13.970
74677ION    CL-46403  31.077  32.490   2.014
74678ION    CL-46404   8.376  37.714   2.618
74679ION    CL-46405   6.683   1.910   1.190
74680ION    CL-46406  18.106  40.886  12.461
74681ION    CL-46407   9.311   6.797  10.708
74682ION    CL-46408   4.197  17.097  14.394
74683ION    CL-46409  22.119  35.020   3.404
74684ION    CL-46410  26.030   8.217  13.318
74685ION    CL-46411  12.655   2.364  10.571
74686ION    CL-46412  30.567   4.167  14.519
74687ION    CL-46413   1.446   0.582   2.798
74688ION    CL-46414  36.514  28.405  10.757
74689ION    CL-46415  33.077  36.244   4.145
74690ION    CL-46416  24.732  24.660   3.110
74691ION    CL-46417   2.392  31.844   0.308
74692ION    CL-46418   2.831  18.744   4.957
74693ION    CL-46419  22.765  28.129   2.687
74694ION    CL-46420   9.254   9.940  13.614
74695ION    CL-46421  14.160  11.165  12.008
74696ION    CL-46422  15.101   4.310   3.089
74697ION    CL-46423  27.901  24.646   3.515
74698ION    CL-46424   9.367  23.832   4.914
74699ION    CL-46425  14.368  39.524  11.926
74700ION    CL-46426  17.369   3.094  11.192
74701ION    CL-46427  19.217  36.353  13.394
74702ION    CL-46428  14.805  28.972   2.356
74703ION    CL-46429  13.995  20.278   0.287
74704ION    CL-46430  20.118  27.729  13.158
74705ION    CL-46431  40.988  25.776  14.945
74706ION    CL-46432   9.464  19.159  14.919
74707ION    CL-46433  10.996  11.991   0.005
74708ION    CL-46434  38.239  14.716  14.033
74709ION    CL-46435  35.800  17.380  12.861
74710ION    CL-46436  28.480  34.844  12.100
74711ION    CL-46437  18.016  20.125   3.757
74712ION    CL-46438  19.427   0.827   1.124
74713ION    CL-46439   0.807   7.618   1.398
74714ION    CL-46440  19.380  42.323   2.880
74715ION    CL-46441  29.215   4.374  12.483
74716ION    CL-46442  15.937  36.246   5.026
74717ION    CL-46443  20.934  43.365   1.708
74718ION    CL-46444   2.249  40.827  10.274
74719ION    CL-46445  15.406   4.061   3.908
74720ION    CL-46446  13.654  20.515  10.641
74721ION    CL-46447  35.569  33.006   4.075
74722ION    CL-46448  43.752  36.653  11.967
74723ION    CL-46449  36.845  19.854   1.007
74724ION    CL-46450  23.406  43.896  14.085
74725ION    CL-46451   1.445  43.788  13.379
74726ION    CL-46452   7.945  24.366   5.042
74727ION    CL-46453  31.507  38.732  12.361
74728ION    CL-46454  10.020  40.069  14.827
74729ION    CL-46455  40.227  16.581   1.065
74730ION    CL-46456  22.662   8.404   4.847
74731ION    CL-46457   6.722  30.999   0.171
74732ION    CL-46458   5.619  36.366   1.762
74733ION    CL-46459   1.149   6.180  13.463
74734ION    CL-46460  24.261   3.472   0.037
74735ION    CL-46461   9.661  43.384   2.624
74736ION    CL-46462  37.554  26.739  13.734
74737ION    CL-46463  26.813  39.411  14.280
74738ION    CL-46464  40.669  44.129   2.544
74739ION    CL-46465  43.252   0.164   4.360
74740ION    CL-46466  27.100  12.558   0.848
74741ION    CL-46467  21.072  27.688  14.385
74742ION    CL-46468  27.740  12.293  13.984
74743ION    CL-46469  14.187  35.412  14.896
74744ION    CL-46470  12.450   5.294  12.977
74745ION    CL-46471  37.185   9.412  11.232
74746ION    CL-46472  43.519  34.857  13.422
74747ION    CL-46473  35.347   8.323   2.634
74748ION    CL-46474  42.296  14.629  12.902
74749ION    CL-46475  13.281  24.896   4.150
74750ION    CL-46476  33.077  29.016   3.546
74751ION    CL-46477   2.379  35.166   0.704
74752ION    CL-46478   3.045  25.135   2.027
74753ION    CL-46479  33.633  17.947  13.207
74754ION    CL-46480  34.988   4.224   1.576
74755ION    CL-46481  11.601   5.419   4.457
74756ION    CL-46482  41.882  41.464   1.771
74757ION    CL-46483  39.748  13.673  14.083
74758ION    CL-46484   5.438  12.406   3.269
74759ION    CL-46485  20.085  40.326   1.442
74760ION    CL-46486  29.810  15.251  14.232
74761ION    CL-46487  28.461   7.623   2.336
74762ION    CL-46488   5.787   9.198   3.667
74763ION    CL-46489  14.101  14.882  12.088
74764ION    CL-46490  35.291  15.022   1.459
74765ION    CL-46491  34.850  17.176   4.271
74766ION    CL-46492  23.068  32.957  11.971
74767ION    CL-46493  12.337  34.950   1.027
74768ION    CL-46494  22.157   4.952   1.931
74769ION    CL-46495   4.081  19.645  13.750
74770ION    CL-46496  40.960  14.722  13.508
74771ION    CL-46497  34.828  42.746   5.272
74772ION    CL-46498  20.007   1.653   5.009
74773ION    CL-46499  37.482  24.914  12.661
74774ION    CL-46500  41.918   7.519  14.418
74775ION    CL-46501  38.328  34.514   0.983
74776ION    CL-46502  22.453  16.281  12.224
74777ION    CL-46503  15.222  24.700  11.741
74778ION    CL-46504  11.087  19.536   3.616
74779ION    CL-46505  24.948  13.920  13.703
74780ION    CL-46506  40.423  34.047   4.673
74781ION    CL-46507  15.474  43.201   1.591
74782ION    CL-46508   1.269   5.314  11.529
74783ION    CL-46509  29.062  44.428  14.013
74784ION    CL-46510  15.108  44.797  13.392
74785ION    CL-46511  39.436  42.044  13.268
74786ION    CL-46512   9.785  12.148  11.412
74787ION    CL-46513  12.787  38.322   1.963
74788ION    CL-46514  36.663  20.001   0.015
74789ION    CL-46515   2.172  17.966   2.695
74790ION    CL-46516  12.693   2.161  11.386
74791ION    CL-46517  15.128  38.017   5.439
74792ION    CL-46518  17.909  17.722   1.571
74793ION    CL-46519   1.466  15.386   0.708
74794ION    CL-46520  26.224   9.366   4.295
74795ION    CL-46521  13.105  26.209   1.781
74796ION    CL-46522  11.209  26.029  12.562
74797ION    CL-46523  14.113  32.633  11.517
74798ION    CL-46524   3.104  25.150  13.294
74799ION    CL-46525   4.957  20.607  13.324
74800ION    CL-46526  30.495  37.314   0.989
74801ION    CL-46527   9.380  43.233   1.626
74802ION    CL-46528  40.650  19.179  13.578
74803ION    CL-46529  24.746  27.237  11.084
74804ION    CL-46530  11.523  28.204   3.195
74805ION    CL-46531   1.706  41.816  13.405
74806ION    CL-46532   1.450  31.572  14.659
74807ION    CL-46533   6.300  44.760   2.782
74808ION    CL-46534  43.090   4.740  13.555
74809ION    CL-46535  15.704   9.274   3.769
74810ION    CL-46536   9.036  27.313  14.821
74811ION    CL-46537  36.371   1.937  10.914
74812ION    CL-46538   7.043  33.629  13.653
74813ION    CL-46539  34.858   4.303   4.677
74814ION    CL-46540   3.477  40.970  11.562
74815ION    CL-46541   0.983  40.959   4.211
74816ION    CL-46542   2.062  13.544  11.503
74817ION    CL-46543   1.176   7.714  10.740
74818ION    CL-46544  22.309  17.387   4.988
74819ION    CL-46545  12.923  40.612   2.767
74820ION    CL-46546  30.321  17.387   1.805
74821ION    CL-46547   8.766  35.291  10.573
74822ION    CL-46548  23.605   5.281  10.960
74823ION    CL-46549  40.523   1.299   4.801
74824ION    CL-46550  15.839   1.050  13.468
74825ION    CL-46551   8.547   9.821   0.413
74826ION    CL-46552   4.794  39.660   5.006
74827ION    CL-46553  23.727  38.723  10.565
74828ION    CL-46554   7.420  18.735   2.750
74829ION    CL-46555  39.782  22.002  13.319
74830ION    CL-46556  44.051  29.176   1.671
74831ION    CL-46557  10.773  13.478  12.470
74832ION    CL-46558   0.300  33.617   1.981
74833ION    CL-46559  36.443  42.971   0.806
74834ION    CL-46560  42.401  34.599  13.935
74835ION    CL-46561  33.141  23.317  13.437
74836ION    CL-46562  38.483  23.206   1.369
74837ION    CL-46563  32.517  27.314  11.100
74838ION    CL-46564   2.830   2.306  13.027
74839ION    CL-46565   5.659  38.931  10.416
74840ION    CL-46566  43.793  37.790  13.349
74841ION    CL-46567  23.978  44.418   5.095
74842ION    CL-46568  16.612  44.168   5.007
74843ION    CL-46569  40.870  38.468  11.776
74844ION    CL-46570   7.412  37.848   3.262
74845ION    CL-46571  13.131  33.539  14.902
74846ION    CL-46572  35.341  44.530   0.089
74847ION    CL-46573  14.236  24.226   1.979
74848ION    CL-46574   6.932   7.652   2.917
74849ION    CL-46575   8.740   6.482   0.134
74850ION    CL-46576  43.525   5.689  13.756
74851ION    CL-46577  18.615  37.153   3.634
74852ION    CL-46578  11.793  27.866  14.154
74853ION    CL-46579  11.091   1.219   3.991
74854ION    CL-46580  20.854  32.147  13.548
74855ION    CL-46581  25.380   4.237   0.306
74856ION    CL-46582   5.654  26.249  13.943
74857ION    CL-46583  36.567  19.365  11.636
74858ION    CL-46584   8.384  19.230  10.715
74859ION    CL-46585  12.621  24.130  12.636
74860ION    CL-46586   4.876  37.824   5.077
74861ION    CL-46587  10.797  43.419  14.090
74862ION    CL-46588  23.173  29.364  11.199
74863ION    CL-46589  29.173  12.750  13.405
74864ION    CL-46590  30.387  21.759   1.686
74865ION    CL-46591  17.797   9.272   5.059
74866ION    CL-46592  35.671   6.355  14.227
74867ION    CL-46593  20.363  23.017   0.506
74868ION    CL-46594  22.152  41.364  12.557
74869ION    CL-46595   5.390  44.600   2.120
74870ION    CL-46596  26.721  40.615  11.432
74871ION    CL-46597  19.043   9.373  10.828
74872ION    CL-46598  23.740  17.101   4.869
74873ION    CL-46599  37.238  32.985  13.665
74874ION    CL-46600  35.117   4.010  14.059
74875ION    CL-46601  41.935  26.457  10.088
74876ION    CL-46602   8.113   3.411   2.607
74877ION    CL-46603  16.640  19.115  13.449
74878ION    CL-46604   2.645  43.526   3.692
74879ION    CL-46605   5.168  26.958   4.181
74880ION    CL-46606  30.964  33.171  12.484
74881ION    CL-46607  31.258  36.596   0.732
74882ION    CL-46608  36.406   7.733   4.968
74883ION    CL-46609  36.619  29.237   2.405
74884ION    CL-46610  25.505  13.809  11.449
74885ION    CL-46611   3.690  34.646  12.891
74886ION    CL-46612  40.063  24.428   4.051
74887ION    CL-46613  11.200  13.678   3.889
74888ION    CL-46614   1.386  38.567   1.689
74889ION    CL-46615  23.994  21.233   3.614
74890ION    CL-46616  35.451   6.808   1.707
74891ION    CL-46617   9.967  22.587   1.543
74892ION    CL-46618  36.066  38.311   2.239
74893ION    CL-46619  32.533  39.125   4.074
74894ION    CL-46620  21.984  25.094  11.546
74895ION    CL-46621   6.373   7.247   1.802
74896ION    CL-46622   4.477  36.601  14.631
74897ION    CL-46623  17.646  29.146  14.106
74898ION    CL-46624  13.406  19.552  14.931
74899ION    CL-46625  30.444   2.156  12.439
74900ION    CL-46626  16.200  23.867   5.146
74901ION    CL-46627  15.057   5.666  12.557
74902ION    CL-46628   6.788  14.666   4.097
74903ION    CL-46629   7.994  33.936   4.589
74904ION    CL-46630  29.631  20.454  14.181
74905ION    CL-46631   1.392   7.740   3.624
74906ION    CL-46632  36.596  44.902   4.271
74907ION    CL-46633  39.144  24.962   9.890
74908ION    CL-46634  39.462  13.160   4.253
74909ION    CL-46635  35.126  30.208   1.419
74910ION    CL-46636   2.745   4.349   3.242
74911ION    CL-46637   2.414  44.494   3.522
74912ION    CL-46638  41.569   2.442   0.630
74913ION    CL-46639   8.937  13.735   3.870
74914ION    CL-46640  24.754  25.773   0.181
74915ION    CL-46641  33.415  42.662  14.318
74916ION    CL-46642  10.538   2.985  12.883
74917ION    CL-46643  24.295   9.900  11.663
74918ION    CL-46644  13.904  14.518   3.642
74919ION    CL-46645   8.421  41.553   1.349
74920ION    CL-46646   4.806  44.246   2.713
74921ION    CL-46647  19.937  29.128   0.173
74922ION    CL-46648   2.486  16.124   2.391
74923ION    CL-46649  28.487  33.480   0.942
74924ION    CL-46650   4.384  44.379  14.389
74925ION    CL-46651   2.460  42.495   1.002
74926ION    CL-46652  42.054  20.638   0.003
74927ION    CL-46653  38.725   4.102  11.139
74928ION    CL-46654  29.205  25.429  13.041
74929ION    CL-46655  12.628  43.069  13.085
74930ION    CL-46656  23.211  38.460  12.283
74931ION    CL-46657  35.036  32.043  12.521
74932ION    CL-46658   8.095  39.538   1.349
74933ION    CL-46659   7.196   5.484  11.481
74934ION    CL-46660  13.691  41.719   3.241
74935ION    CL-46661  42.362  33.245  14.021
74936ION    CL-46662  21.618   8.458  13.899
74937ION    CL-46663  16.233  36.935  12.151
74938ION    CL-46664  32.901   8.926  14.988
74939ION    CL-46665  34.947  20.420   3.918
74940ION    CL-46666  15.235   4.297  14.470
74941ION    CL-46667   5.168   3.079  14.613
74942ION    CL-46668  32.250   7.985  14.396
74943ION    CL-46669  10.300  28.571   9.647
74944ION    CL-46670   5.477   1.331   3.632
74945ION    CL-46671  34.629  33.359  13.021
74946ION    CL-46672  27.070   6.769   3.275
74947ION    CL-46673  38.055  42.512  14.845
74948ION    CL-46674  37.833  19.310  11.967
74949ION    CL-46675  39.020  15.965  11.805
74950ION    CL-46676  16.302   2.348   1.327
74951ION    CL-46677   8.888  24.753  13.215
74952ION    CL-46678   1.625  15.913  10.381
74953ION    CL-46679  18.338  29.947  14.314
74954ION    CL-46680   4.140  15.842   2.026
74955ION    CL-46681  12.901  27.960  14.850
74956ION    CL-46682  33.711   1.481  11.021
74957ION    CL-46683   7.325  29.595   1.305
74958ION    CL-46684  20.672  14.581   2.270
74959ION    CL-46685   6.375  22.283   2.043
74960ION    CL-46686  31.666  34.689  13.007
74961ION    CL-46687  37.461   2.968  12.080
74962ION    CL-46688  29.381  11.957   0.257
74963ION    CL-46689  31.355  36.407  13.314
74964ION    CL-46690  12.828  20.760  14.052
74965ION    CL-46691  26.023   1.648   1.325
74966ION    CL-46692  17.488  34.806  13.903
74967ION    CL-46693  32.187   6.744  11.879
74968ION    CL-46694  41.226   3.154   0.164
74969ION    CL-46695  36.125  17.543  11.930
74970ION    CL-46696  11.137  35.228   9.774
74971ION    CL-46697  18.228  38.251  12.034
74972ION    CL-46698   2.377   5.585   1.927
74973ION    CL-46699   7.141  21.247   0.275
74974ION    CL-46700  13.255   2.723  14.184
74975ION    CL-46701  21.223   1.840  13.424
74976ION    CL-46702  24.251  25.290   4.877
74977ION    CL-46703  22.961  22.504   3.625
74978ION    CL-46704  14.647  17.030  12.605
74979ION    CL-46705  25.585  12.304   3.151
74980ION    CL-46706  25.190  19.633   4.029
74981ION    CL-46707  35.964  20.039  14.301
74982ION    CL-46708  43.448  41.399   0.287
74983ION    CL-46709  17.806  10.063   1.884
74984ION    CL-46710  31.383  37.016   1.773
74985ION    CL-46711  19.973  40.988  12.845
74986ION    CL-46712  40.834  30.475   4.893
74987ION    CL-46713  36.173   4.953  14.914
74988ION    CL-46714  10.119  22.976  12.502
74989ION    CL-46715  23.021  21.802  14.902
74990ION    CL-46716  12.625   2.914   3.392
74991ION    CL-46717  16.605  27.350   4.142
74992ION    CL-46718   0.519  42.933  12.918
74993ION    CL-46719  20.160  20.542  12.996
74994ION    CL-46720  15.836   5.450   1.759
74995ION    CL-46721  22.009  22.132  12.005
74996ION    CL-46722  22.575  41.233  10.851
74997ION    CL-46723  17.343  39.323   4.215
74998ION    CL-46724   4.868  19.499  12.117
74999ION    CL-46725   7.409  20.497  11.061
75000ION    CL-46726  34.845  15.886   1.692
75001ION    CL-46727  15.644  21.114   1.323
75002ION    CL-46728   4.106  10.177   3.942
75003ION    CL-46729  22.469  32.349  14.643
75004ION    CL-46730  42.569   6.938   1.509
75005ION    CL-46731  31.511   9.484   2.633
75006ION    CL-46732  38.038  17.626  13.936
75007ION    CL-46733  13.719  42.768  14.356
75008ION    CL-46734  36.369  19.084   0.930
75009ION    CL-46735  21.222  11.203   1.484
75010ION    CL-46736  20.705  30.660  14.967
75011ION    CL-46737  26.840   3.920   1.797
75012ION    CL-46738   5.340  42.948  11.518
75013ION    CL-46739  43.934   2.917  12.926
75014ION    CL-46740  16.837  38.562   2.212
75015ION    CL-46741  41.578  28.435   0.995
75016ION    CL-46742   3.021  27.726   2.744
75017ION    CL-46743  26.799  27.672  13.614
75018ION    CL-46744  41.090  36.008  10.472
75019ION    CL-46745  29.624  41.478  11.485
75020ION    CL-46746  19.790  17.643  10.758
75021ION    CL-46747  25.471  44.836   0.521
75022ION    CL-46748  33.415  12.756   2.379
75023ION    CL-46749  27.086  33.652  13.420
75024ION    CL-46750  39.810  10.452   3.823
75025ION    CL-46751  20.500  34.063  13.886
75026ION    CL-46752   6.806   3.370  13.620
75027ION    CL-46753  34.587  16.656   3.315
75028ION    CL-46754  22.561   0.875   3.262
75029ION    CL-46755  33.066  14.919  14.487
75030ION    CL-46756  14.594   8.902  11.267
75031ION    CL-46757  29.166  26.212   4.110
75032ION    CL-46758   0.885   6.282   1.624
75033ION    CL-46759   2.011  42.486   3.336
75034ION    CL-46760  32.637  35.026  13.199
75035ION    CL-46761   0.914  32.398  14.903
75036ION    CL-46762   5.365  19.593  13.104
75037ION    CL-46763  39.878  41.952   0.794
75038ION    CL-46764  38.449   0.229  12.547
75039ION    CL-46765  32.151  18.547   1.516
75040ION    CL-46766  29.040  36.075   1.048
75041ION    CL-46767  23.243  32.303   0.123
75042ION    CL-46768  43.407   6.615  10.551
75043ION    CL-46769  24.601  20.680  12.349
75044ION    CL-46770  17.623   8.921  11.149
75045ION    CL-46771  39.555  12.791  13.316
75046ION    CL-46772  27.754  24.205   1.588
75047ION    CL-46773  18.071   9.589   4.097
75048ION    CL-46774   9.921  39.856   1.692
75049ION    CL-46775   6.728  44.019   4.223
75050ION    CL-46776   5.396  29.569   0.341
75051ION    CL-46777  19.931   1.051   4.014
75052ION    CL-46778   5.221   7.958  11.922
75053ION    CL-46779  41.289  28.523  13.896
75054ION    CL-46780  32.594   3.950   3.292
75055ION    CL-46781  40.902  29.618  14.229
75056ION    CL-46782   6.448  19.457  11.260
75057ION    CL-46783  37.427   0.304   1.126
75058ION    CL-46784  11.911  18.239  12.913
75059ION    CL-46785   9.908  11.334   3.219
75060ION    CL-46786  42.029  24.052   2.837
75061ION    CL-46787  19.638  20.270   5.010
75062ION    CL-46788   6.722  31.383  14.592
75063ION    CL-46789  24.115  15.211   2.682
75064ION    CL-46790  20.557  38.066   0.432
75065ION    CL-46791  10.380  19.660  12.420
75066ION    CL-46792  41.558  43.742   4.987
75067ION    CL-46793  25.724  12.939  12.063
75068ION    CL-46794  13.068   4.510  11.162
75069ION    CL-46795  12.737  32.849   0.511
75070ION    CL-46796  22.040  16.943  12.682
75071ION    CL-46797  11.634  20.551   0.728
75072ION    CL-46798  16.261   2.060   4.087
75073ION    CL-46799  11.834  14.759  13.030
75074ION    CL-46800  14.392  38.352   3.812
75075ION    CL-46801  38.212  44.834  11.195
75076ION    CL-46802  34.652  15.538   9.925
75077ION    CL-46803  28.630  44.244  12.039
75078ION    CL-46804  11.542  42.066  13.619
75079ION    CL-46805  25.739  11.878   0.993
75080ION    CL-46806   6.114  39.051  12.974
75081ION    CL-46807  11.707  36.037  13.169
75082ION    CL-46808  31.982   5.581  12.598
75083ION    CL-46809  20.984  34.467  11.751
75084ION    CL-46810  14.635  26.675   4.000
75085ION    CL-46811  25.272  21.520   0.339
75086ION    CL-46812  29.649   3.410   0.262
75087ION    CL-46813  30.786  37.231   9.738
75088ION    CL-46814   2.143  17.782   3.952
75089ION    CL-46815   4.186  43.705  11.961
75090ION    CL-46816  38.356  20.027   1.635
75091ION    CL-46817   9.137  29.241  11.172
75092ION    CL-46818  21.091   7.382  12.545
75093ION    CL-46819  38.475   2.386  14.062
75094ION    CL-46820  27.178  16.633   2.404
75095ION    CL-46821  28.073   1.494  12.003
75096ION    CL-46822   8.160  17.582   3.352
75097ION    CL-46823  16.494  17.299   3.285
75098ION    CL-46824  30.692  29.851   2.412
75099ION    CL-46825  34.986   1.802   0.276
75100ION    CL-46826  41.935  32.636   2.769
75101ION    CL-46827  35.362  11.537   3.275
75102ION    CL-46828  39.141  42.279   4.696
75103ION    CL-46829  22.601  25.026   1.270
75104ION    CL-46830  28.116   2.110  14.977
75105ION    CL-46831  21.829  33.917  11.590
75106ION    CL-46832  13.353  19.563  12.602
75107ION    CL-46833  36.903   2.529  14.458
75108ION    CL-46834  40.546  17.256  14.718
75109ION    CL-46835   4.442   6.878   1.256
75110ION    CL-46836  36.601  10.376  10.742
75111ION    CL-46837   8.992  21.366   3.731
75112ION    CL-46838   7.140  44.185  12.110
75113ION    CL-46839  20.498  25.453  14.054
75114ION    CL-46840  43.218  13.811   1.940
75115ION    CL-46841  36.045  11.820  14.326
75116ION    CL-46842  35.063   2.600   3.458
75117ION    CL-46843  32.969  41.873   2.682
75118ION    CL-46844   0.791   9.908   3.026
75119ION    CL-46845  11.479  34.042  14.132
75120ION    CL-46846  13.966  39.209   4.102
75121ION    CL-46847  11.405  25.188  14.051
75122ION    CL-46848  28.913  13.695   4.574
75123ION    CL-46849   3.544  44.248  11.655
75124ION    CL-46850  15.211   9.205  13.707
75125ION    CL-46851  36.238   6.111  12.881
75126ION    CL-46852  42.923  32.539   2.895
75127ION    CL-46853  33.598  33.466  13.780
75128ION    CL-46854   7.982   5.325   2.941
75129ION    CL-46855  13.528   7.859  12.782
75130ION    CL-46856   8.232  22.751  10.937
75131ION    CL-46857   8.072  23.147   3.335
75132ION    CL-46858  43.313  27.201  14.592
75133ION    CL-46859  42.129  34.629   2.444
75134ION    CL-46860  42.508   6.695  13.786
75135ION    CL-46861  37.106   2.462   2.894
75136ION    CL-46862  40.386  10.640   1.418
75137ION    CL-46863  16.831  28.172   3.602
75138ION    CL-46864  41.443  22.712  13.458
75139ION    CL-46865  20.949  24.796  12.794
75140ION    CL-46866  32.350  43.819   1.985
75141ION    CL-46867  42.725  24.486  14.517
75142ION    CL-46868  30.401  36.607  12.209
75143ION    CL-46869   3.845  30.048   0.138
75144ION    CL-46870  24.466   9.004   4.778
75145ION    CL-46871  38.413   7.917  14.982
75146ION    CL-46872  13.089  14.375  11.320
75147ION    CL-46873   5.512  40.549  10.947
75148ION    CL-46874  13.963  23.358   0.037
75149ION    CL-46875   3.720  38.399  14.524
75150ION    CL-46876  39.559  30.629  12.023
75151ION    CL-46877   9.765  33.157   3.250
75152ION    CL-46878  17.310  23.070  13.336
75153ION    CL-46879  41.720   2.481   4.205
75154ION    CL-46880  33.695   6.982   1.325
75155ION    CL-46881   6.414  41.269  11.408
75156ION    CL-46882  13.042  36.764  11.554
75157ION    CL-46883  34.647  20.151  11.012
75158ION    CL-46884  19.353   2.120  11.595
75159ION    CL-46885  29.071   5.977  10.203
75160ION    CL-46886  31.350  24.061   1.993
75161ION    CL-46887  36.068  22.687   1.270
75162ION    CL-46888   6.145  32.776   3.211
75163ION    CL-46889   1.366  14.356   1.167
75164ION    CL-46890  11.754  37.136   1.922
75165ION    CL-46891  20.246   5.616  12.501
75166ION    CL-46892  44.317  19.056   3.579
75167ION    CL-46893  25.655   0.468  12.218
75168ION    CL-46894   3.023  41.647   3.848
75169ION    CL-46895  11.042  27.396  12.873
75170ION    CL-46896   8.855  12.476  12.625
75171ION    CL-46897  36.872  20.673   1.754
75172ION    CL-46898   1.174  24.545   2.707
75173ION    CL-46899  21.170  12.149  10.980
75174ION    CL-46900  41.525  29.509   3.331
75175ION    CL-46901  29.775  13.936  11.489
75176ION    CL-46902  22.263  38.733  11.277
75177ION    CL-46903  39.346  39.024  13.484
75178ION    CL-46904   9.124  33.323   1.978
75179ION    CL-46905   4.147  32.529  13.296
75180ION    CL-46906   7.533  31.333   4.106
75181ION    CL-46907  21.245  14.888   9.938
75182ION    CL-46908  36.714   9.244   2.490
75183ION    CL-46909   2.081  42.839  10.618
75184ION    CL-46910  44.272  34.462   4.910
75185ION    CL-46911   7.238  21.999   2.692
75186ION    CL-46912  15.819  14.266   4.257
75187ION    CL-46913  12.030  27.390   3.711
75188ION    CL-46914  39.030  29.577  13.381
75189ION    CL-46915   5.440  18.241   3.639
75190ION    CL-46916  37.723  38.147  14.307
75191ION    CL-46917  15.447  24.720  10.384
75192ION    CL-46918   3.657   8.055   3.864
75193ION    CL-46919  32.040  10.165  11.024
75194ION    CL-46920  19.106  12.014   2.242
75195ION    CL-46921  43.778  36.467  10.985
75196ION    CL-46922  19.503  35.460  14.674
75197ION    CL-46923  18.974  29.365   2.143
75198ION    CL-46924  38.369  30.871  14.274
75199ION    CL-46925   0.969   4.691   1.349
75200ION    CL-46926  14.781  21.008   0.788
75201ION    CL-46927  32.188  31.788   5.095
75202ION    CL-46928   9.247  23.174   0.838
75203ION    CL-46929   1.936  29.525   3.366
75204ION    CL-46930  33.855  31.054   4.468
75205ION    CL-46931  39.156  13.087  14.210
75206ION    CL-46932  22.795   0.941  11.155
75207ION    CL-46933   2.162   5.014   3.709
75208ION    CL-46934  19.125  33.682   4.371
75209ION    CL-46935  27.641  17.307   2.802
75210ION    CL-46936  15.656  32.883   2.852
75211ION    CL-46937  44.889  44.909  10.906
75212ION    CL-46938   0.965  32.261   3.777
75213ION    CL-46939  31.975  13.835  11.037
75214ION    CL-46940  41.653   6.815  13.759
75215ION    CL-46941   5.913  10.937   3.909
75216ION    CL-46942   5.074  13.738  14.403
75217ION    CL-46943  16.560   5.645   3.743
75218ION    CL-46944  21.044  15.976  13.402
75219ION    CL-46945  11.449   5.452  14.470
75220ION    CL-46946  35.155  34.970  13.124
75221ION    CL-46947  22.156  39.440   2.635
75222ION    CL-46948  25.496  15.673  14.483
75223ION    CL-46949  30.509   2.213   1.168
75224ION    CL-46950  11.840  23.932  14.356
75225ION    CL-46951  13.569  11.447  13.134
75226ION    CL-46952  28.856  39.983   0.820
75227ION    CL-46953  31.255  32.918   3.239
75228ION    CL-46954  39.332  28.582  14.793
75229ION    CL-46955  39.617  27.759   4.594
75230ION    CL-46956  34.758  42.237  11.559
75231ION    CL-46957  39.629  15.626   3.559
75232ION    CL-46958  22.765  20.553   2.548
75233ION    CL-46959  27.965  33.508  14.373
75234ION    CL-46960   6.876  15.749  14.308
75235ION    CL-46961  17.785  16.297   1.758
75236ION    CL-46962   9.111  10.069   3.267
75237ION    CL-46963  32.894  43.370   3.282
75238ION    CL-46964  43.950  30.210   3.132
75239ION    CL-46965  37.013   6.218   2.246
75240ION    CL-46966  44.064  20.409  11.199
75241ION    CL-46967  19.492  35.114  12.928
75242ION    CL-46968  12.089   5.936  11.516
75243ION    CL-46969  37.504  35.153   0.950
75244ION    CL-46970   6.153   1.505  13.577
75245ION    CL-46971  13.407  15.735   3.182
75246ION    CL-46972  13.985  23.211   3.498
75247ION    CL-46973   1.955  39.383   4.241
75248ION    CL-46974  10.064  14.754   9.830
75249ION    CL-46975  12.390  41.558   1.559
75250ION    CL-46976  13.194  23.702  14.410
75251ION    CL-46977  20.104  42.508   3.559
75252ION    CL-46978  34.429  38.065   1.664
75253ION    CL-46979   5.730  42.124   1.723
75254ION    CL-46980  11.771  19.885  13.413
75255ION    CL-46981  39.898  34.083   3.167
75256ION    CL-46982  28.178  21.670  11.824
75257ION    CL-46983  26.303  35.292   3.020
75258ION    CL-46984  20.585  34.596   0.955
75259ION    CL-46985  16.940  21.304  14.706
75260ION    CL-46986  19.799   5.578  14.300
75261ION    CL-46987  16.506  13.243  13.266
75262ION    CL-46988  13.636  19.067   0.780
75263ION    CL-46989  41.297  28.078  12.006
75264ION    CL-46990  42.463  44.965   4.761
75265ION    CL-46991  24.535   5.734   0.894
75266ION    CL-46992   5.269   9.468  12.514
75267ION    CL-46993   0.587  23.909  14.453
75268ION    CL-46994  14.950   0.999  11.928
75269ION    CL-46995  28.798  30.791  12.115
75270ION    CL-46996  38.479  37.883  12.416
75271ION    CL-46997  44.759  30.730   1.119
75272ION    CL-46998  24.112  18.491  14.680
75273ION    CL-46999   4.830   1.345  13.785
75274ION    CL-47000  19.497  16.320  13.802
75275ION    CL-47001  19.962  32.287   3.044
75276ION    CL-47002  36.510  13.410  11.488
75277ION    CL-47003  21.453  18.749  13.726
75278ION    CL-47004   6.199  19.532   3.136
75279ION    CL-47005  10.646  20.262   4.852
75280ION    CL-47006  27.802  14.267  11.407
75281ION    CL-47007  38.481  39.766  12.023
75282ION    CL-47008   0.564  17.129  11.841
75283ION    CL-47009  26.595   8.599  10.321
75284ION    CL-47010  18.688   4.505  13.823
75285ION    CL-47011  12.668  34.685  10.731
75286ION    CL-47012  44.053  10.699   3.418
75287ION    CL-47013  16.854  25.638   4.879
75288ION    CL-47014  28.271  20.239  11.281
75289ION    CL-47015  20.820  31.117   2.344
75290ION    CL-47016   2.342  17.078   0.072
75291ION    CL-47017   7.340   0.051  11.645
75292ION    CL-47018  33.996  44.105   5.536
75293ION    CL-47019   3.795  33.941   4.487
75294ION    CL-47020  27.457  28.847  12.032
75295ION    CL-47021   0.825  38.011   5.021
75296ION    CL-47022  42.301   6.089   1.964
75297ION    CL-47023  35.577   6.759   2.771
75298ION    CL-47024  16.779  26.021  14.576
75299ION    CL-47025  43.815  44.370   2.418
75300ION    CL-47026  13.476   6.013  11.151
75301ION    CL-47027  19.132  26.659  11.418
75302ION    CL-47028  29.031  24.224  11.382
75303ION    CL-47029   4.156  32.134   0.918
75304ION    CL-47030   5.787   4.261   1.493
75305ION    CL-47031   9.611  27.540  13.438
75306ION    CL-47032  14.157  17.044   0.013
75307ION    CL-47033  24.691  26.477  11.870
75308ION    CL-47034  19.643  32.610  11.624
75309ION    CL-47035  28.874  34.667   2.147
75310ION    CL-47036  29.100  42.750  11.635
75311ION    CL-47037  33.870  28.751  11.411
75312ION    CL-47038   1.380  23.474  12.322
75313ION    CL-47039  22.507  10.329  11.529
75314ION    CL-47040  10.800  40.456  14.280
75315ION    CL-47041  12.329   1.684  10.812
75316ION    CL-47042  25.282  32.462   2.675
75317ION    CL-47043  10.707   4.584   4.567
75318ION    CL-47044  17.848  22.905   3.800
75319ION    CL-47045  37.554  17.505  12.086
75320ION    CL-47046   2.706  24.106  12.966
75321ION    CL-47047   7.044  26.718  11.259
75322ION    CL-47048   0.795  20.240  12.479
75323ION    CL-47049  38.652  31.875   4.982
75324ION    CL-47050   5.802  24.523  13.370
75325ION    CL-47051   7.179  44.775  13.827
75326ION    CL-47052  29.169  34.996  14.451
75327ION    CL-47053   5.330   5.331  10.185
75328ION    CL-47054   3.175  18.172   1.215
75329ION    CL-47055   3.739  27.219   4.243
75330ION    CL-47056   0.402  36.380  12.564
75331ION    CL-47057  38.117  43.518   0.808
75332ION    CL-47058  38.811   8.819  11.705
75333ION    CL-47059   2.371  38.125   1.768
75334ION    CL-47060   0.796  26.150   4.133
75335ION    CL-47061  17.888  35.192   1.442
75336ION    CL-47062  17.648  18.976   1.557
75337ION    CL-47063  10.570  33.927  14.128
75338ION    CL-47064  14.403   5.734  10.901
75339ION    CL-47065   5.899  37.588   4.174
75340ION    CL-47066  21.006   7.191   3.703
75341ION    CL-47067  32.299  16.806   4.608
75342ION    CL-47068  32.122  28.603  12.356
75343ION    CL-47069  23.562  33.832  12.068
75344ION    CL-47070   3.816  38.386   4.048
75345ION    CL-47071  12.128  15.200   0.969
75346ION    CL-47072  12.334   0.840   0.386
75347ION    CL-47073   7.216  39.116   3.803
75348ION    CL-47074   9.059  33.845  12.521
75349ION    CL-47075  14.481  24.738   3.020
75350ION    CL-47076  39.322  24.640  12.044
75351ION    CL-47077  13.163  35.316  10.269
75352ION    CL-47078  18.780  17.807   1.276
75353ION    CL-47079   6.084  18.425  11.974
75354ION    CL-47080  19.956  33.886  14.706
75355ION    CL-47081  19.961  18.734   0.528
75356ION    CL-47082  36.519   1.037   0.926
75357ION    CL-47083  31.492  25.094  12.560
75358ION    CL-47084   5.855  44.115  12.325
75359ION    CL-47085  30.394  25.912  10.757
75360ION    CL-47086  19.990  16.476  14.549
75361ION    CL-47087  13.447   3.907   3.332
75362ION    CL-47088  21.834   1.516   4.538
75363ION    CL-47089  12.046  28.844   2.310
75364ION    CL-47090   7.357  23.618   2.758
75365ION    CL-47091  10.873  19.363  14.675
75366ION    CL-47092  11.525   6.321   1.921
75367ION    CL-47093  13.737  30.188  13.027
75368ION    CL-47094  23.422  29.974  12.740
75369ION    CL-47095  37.470  32.004   2.260
75370ION    CL-47096  19.735  14.680   3.187
75371ION    CL-47097  30.220  33.888  12.773
75372ION    CL-47098  11.939   6.414  10.765
75373ION    CL-47099   5.920  11.931   2.231
75374ION    CL-47100  28.113   4.894   1.430
75375ION    CL-47101   5.760  23.880   3.469
75376ION    CL-47102   8.391   5.943  13.647
75377ION    CL-47103  16.648  19.299   1.919
75378ION    CL-47104  34.857  38.431  12.890
75379ION    CL-47105  26.934  11.427   4.251
75380ION    CL-47106  32.148  13.633  14.037
75381ION    CL-47107   2.284  11.845  11.035
75382ION    CL-47108  27.245  28.594   0.759
75383ION    CL-47109  33.403  16.308  13.383
75384ION    CL-47110  28.829   7.734  11.601
75385ION    CL-47111   6.162   3.977   0.271
75386ION    CL-47112  42.584  27.162   1.712
75387ION    CL-47113  22.156  28.587  14.813
75388ION    CL-47114  33.165  27.932   2.241
75389ION    CL-47115  26.761  31.964  13.854
75390ION    CL-47116  34.137  12.850   1.241
75391ION    CL-47117  31.150  30.494   3.260
75392ION    CL-47118  40.132   7.446   0.582
75393ION    CL-47119  39.985  22.214   1.573
75394ION    CL-47120  27.557   4.359   4.185
75395ION    CL-47121  28.329   8.080   1.613
75396ION    CL-47122  41.023  20.722   1.819
75397ION    CL-47123  31.568   5.764  14.818
75398ION    CL-47124  35.685  20.530  11.584
75399ION    CL-47125  39.377   9.741   3.486
75400ION    CL-47126   0.885   1.693  12.539
75401ION    CL-47127  18.528  25.006  12.977
75402ION    CL-47128  26.048  39.358  14.923
75403ION    CL-47129  41.866  30.869   3.010
75404ION    CL-47130  26.456  31.012  11.138
75405ION    CL-47131  41.707   6.767  12.744
75406ION    CL-47132  15.268   2.208   3.917
75407ION    CL-47133  40.291  26.281  12.704
75408ION    CL-47134  23.693  39.514   0.135
75409ION    CL-47135  26.662  42.506  12.130
75410ION    CL-47136  15.777   5.138  11.733
75411ION    CL-47137  29.211   7.375  14.638
75412ION    CL-47138  12.331  44.575   2.998
75413ION    CL-47139  21.934  11.784   2.159
75414ION    CL-47140  33.083  24.481  13.167
75415ION    CL-47141  44.805  29.815   1.521
75416ION    CL-47142  18.931  21.649  12.293
75417ION    CL-47143  21.351  42.914  11.551
75418ION    CL-47144  11.579   9.031  14.393
75419ION    CL-47145  13.117   3.110  11.615
75420ION    CL-47146  22.480  32.208   4.136
75421ION    CL-47147  25.129  37.446  11.612
75422ION    CL-47148   0.174  13.656   0.250
75423ION    CL-47149  16.815  39.513   1.334
75424ION    CL-47150   2.901  19.978   2.769
75425ION    CL-47151  22.949  25.628  13.760
75426ION    CL-47152  40.274  30.018  12.454
75427ION    CL-47153  16.628  17.144   4.645
75428ION    CL-47154  35.085  16.723   1.200
75429ION    CL-47155  13.718  43.820  11.243
75430ION    CL-47156  35.380  35.906   3.930
75431ION    CL-47157  44.490  16.602   3.813
75432ION    CL-47158   6.875  20.176   2.718
75433ION    CL-47159  21.256  40.312   0.459
75434ION    CL-47160  35.214  42.539   2.619
75435ION    CL-47161  31.576  44.477  14.256
75436ION    CL-47162  31.537  21.052  13.985
75437ION    CL-47163  13.040  23.271   1.622
75438ION    CL-47164  17.758  17.997   3.199
75439ION    CL-47165  11.907  35.001  11.424
75440ION    CL-47166  29.112  15.037   4.440
75441ION    CL-47167  31.045   3.051   1.533
75442ION    CL-47168  17.290  34.446   1.148
75443ION    CL-47169  10.393  12.681  12.000
75444ION    CL-47170   1.547  23.493  14.333
75445ION    CL-47171   2.044  19.763  12.720
75446ION    CL-47172  31.409   4.086   0.241
75447ION    CL-47173  28.924  29.519  14.131
75448ION    CL-47174  25.347  26.698   5.056
75449ION    CL-47175  32.294   9.423  11.828
75450ION    CL-47176  16.574  17.033  10.218
75451ION    CL-47177  39.261  22.472   1.105
75452ION    CL-47178  22.750  37.805  10.609
75453ION    CL-47179   3.317  36.448  13.077
75454ION    CL-47180   0.183  39.055   1.742
75455ION    CL-47181  16.581   2.661  11.226
75456ION    CL-47182  34.008   0.395   3.562
75457ION    CL-47183  41.860  11.892  11.500
75458ION    CL-47184  37.346   5.803   1.341
75459ION    CL-47185  41.355  39.456  12.338
75460ION    CL-47186  24.772   7.463  13.864
75461ION    CL-47187  25.468  31.449  13.209
75462ION    CL-47188  30.982  34.745   9.905
75463ION    CL-47189  37.383  41.796   0.033
75464ION    CL-47190  35.686  41.668  13.071
75465ION    CL-47191  20.375  18.623   1.431
75466ION    CL-47192  38.369   4.162   2.785
75467ION    CL-47193  30.405  27.447  11.778
75468ION    CL-47194  13.223  37.114  13.396
75469ION    CL-47195  17.103  19.557   0.773
75470ION    CL-47196   7.780   4.691   3.562
75471ION    CL-47197  16.738   7.147   2.774
75472ION    CL-47198   0.242  43.237   5.077
75473ION    CL-47199  34.402   4.520   0.778
75474ION    CL-47200  10.300   3.000  11.911
75475ION    CL-47201  30.667  43.318  12.429
75476ION    CL-47202  25.323  21.398   2.831
75477ION    CL-47203  32.041  27.317   0.897
75478ION    CL-47204  41.061   6.145   0.422
75479ION    CL-47205  30.335  29.410  13.959
75480ION    CL-47206  21.749  44.848  13.080
75481ION    CL-47207   8.994  42.653  13.058
75482ION    CL-47208  27.453   1.820   1.517
75483ION    CL-47209  40.440  41.009  11.795
75484ION    CL-47210  16.509  14.432  12.066
75485ION    CL-47211  26.487  31.002  14.891
75486ION    CL-47212  13.210  44.729  12.071
75487ION    CL-47213  25.815  27.412  13.826
75488ION    CL-47214  39.694   0.717   1.569
75489ION    CL-47215  30.629  44.507   3.406
75490ION    CL-47216  37.426   1.430  11.482
75491ION    CL-47217  13.186  12.140   0.235
75492ION    CL-47218  17.880  44.952   4.970
75493ION    CL-47219  13.673  16.517   3.746
75494ION    CL-47220  41.026  33.881  11.804
75495ION    CL-47221  34.635  41.271   3.547
75496ION    CL-47222   8.887  40.969   0.124
75497ION    CL-47223   7.195   0.866  10.974
75498ION    CL-47224   8.017   4.957  10.513
75499ION    CL-47225  35.675  36.825   1.505
75500ION    CL-47226   0.223  38.253   2.356
75501ION    CL-47227  22.718   3.254  13.068
75502ION    CL-47228  35.684   8.602   1.583
75503ION    CL-47229  33.066   7.544   0.762
75504ION    CL-47230  36.131   9.081  12.005
75505ION    CL-47231  14.846  20.736   3.340
75506ION    CL-47232  20.262  23.527  13.382
75507ION    CL-47233  17.226  26.661  11.597
75508ION    CL-47234  30.161  15.119   0.159
75509ION    CL-47235   0.914  32.744   3.032
75510ION    CL-47236  29.359  33.846   4.363
75511ION    CL-47237  37.971   9.921  12.469
75512ION    CL-47238   6.175  37.635  10.698
75513ION    CL-47239  39.081   6.306   0.159
75514ION    CL-47240  24.699  33.548   3.819
75515ION    CL-47241  43.293  14.557  12.869
75516ION    CL-47242  21.279  23.102   3.124
75517ION    CL-47243  31.903  15.784  12.199
75518ION    CL-47244  30.780  21.041   9.834
75519ION    CL-47245  30.565  15.755  12.686
75520ION    CL-47246  41.918  23.986  11.926
75521ION    CL-47247   4.837  33.093  13.243
75522ION    CL-47248  19.853  25.509   0.764
75523ION    CL-47249  18.627  12.777  12.988
75524ION    CL-47250  32.989  26.434  11.145
75525ION    CL-47251  11.266  22.178   2.331
75526ION    CL-47252  33.953  32.665   3.632
75527ION    CL-47253  30.521  26.390   2.824
75528ION    CL-47254   7.622   0.560   2.667
75529ION    CL-47255  36.835  41.215  11.172
75530ION    CL-47256  11.023  37.736  11.627
75531ION    CL-47257  24.700  20.102   0.241
75532ION    CL-47258  38.992  30.355   2.934
75533ION    CL-47259  40.915  17.178   3.951
75534ION    CL-47260   7.867   7.336  10.792
75535ION    CL-47261  35.122  16.523   2.411
75536ION    CL-47262   6.773   1.407   3.136
75537ION    CL-47263  22.922  39.165  10.961
75538ION    CL-47264  18.096  44.432   2.977
75539ION    CL-47265  27.342  13.416  13.571
75540ION    CL-47266  15.675   1.264   3.932
75541ION    CL-47267  35.000   4.099  12.725
75542ION    CL-47268  27.537  34.942   1.990
75543ION    CL-47269   5.260   8.020   0.039
75544ION    CL-47270  36.127   3.669  10.163
75545ION    CL-47271  16.190   8.324  12.710
75546ION    CL-47272  29.702  20.546   1.824
75547ION    CL-47273  15.220  15.570  12.802
75548ION    CL-47274  36.655  42.533  14.322
75549ION    CL-47275  26.991  23.246   0.649
75550ION    CL-47276  15.921   2.466  13.258
75551ION    CL-47277   5.662  39.940  13.050
75552ION    CL-47278  16.754  16.593   4.038
75553ION    CL-47279  20.656  14.987  11.096
75554ION    CL-47280  10.290  30.739   3.617
75555ION    CL-47281  20.635   8.667   0.905
75556ION    CL-47282  22.970  20.972  14.274
75557ION    CL-47283  16.041  42.989   3.756
75558ION    CL-47284  32.453  11.788  14.420
75559ION    CL-47285   1.159  36.043  13.123
75560ION    CL-47286  26.097   4.208  12.560
75561ION    CL-47287  38.151   3.958   4.019
75562ION    CL-47288  19.600   4.190   5.016
75563ION    CL-47289  23.209  17.939   3.560
75564ION    CL-47290   1.838  38.324  12.647
75565ION    CL-47291  29.511  32.426  13.978
75566ION    CL-47292  30.703  26.113  13.287
75567ION    CL-47293  20.272  22.436  12.892
75568ION    CL-47294  37.591  40.388   1.229
75569ION    CL-47295  14.043   4.784   2.117
75570ION    CL-47296  11.693  13.085   1.629
75571ION    CL-47297  19.805  11.765  12.133
75572ION    CL-47298  14.933   3.262   1.748
75573ION    CL-47299  14.572  29.976   2.191
75574ION    CL-47300   9.890  15.630  12.998
75575ION    CL-47301  35.242  18.243  11.613
75576ION    CL-47302  14.537  43.659   3.971
75577ION    CL-47303  37.624  24.721   5.104
75578ION    CL-47304   8.612  37.438   0.841
75579ION    CL-47305  23.871  27.984  10.381
75580ION    CL-47306   6.647  16.780   2.937
75581ION    CL-47307   9.639  33.445   0.720
75582ION    CL-47308   3.396  44.974  10.912
75583ION    CL-47309   8.097  20.924   3.664
75584ION    CL-47310  39.143  15.141   1.706
75585ION    CL-47311  29.649  19.542   4.871
75586ION    CL-47312  41.217  24.000  13.981
75587ION    CL-47313  12.842   6.168   2.057
75588ION    CL-47314  23.739  34.743  11.598
75589ION    CL-47315   6.722  14.375   0.944
75590ION    CL-47316  31.270  34.033  12.081
75591ION    CL-47317  30.110  30.230   4.206
75592ION    CL-47318   4.593   4.870  14.611
75593ION    CL-47319  35.922  27.957  11.501
75594ION    CL-47320  22.947  23.529   3.772
75595ION    CL-47321  24.693  23.324  13.575
75596ION    CL-47322  11.116  28.445   2.267
75597ION    CL-47323  26.216   6.859  14.137
75598ION    CL-47324  27.732  37.304   1.770
75599ION    CL-47325  40.349  35.045  12.772
75600ION    CL-47326  10.203  40.189  10.680
75601ION    CL-47327  20.461  22.448   2.275
75602ION    CL-47328   0.450  18.983   0.907
75603ION    CL-47329  19.736  22.376   0.962
75604ION    CL-47330   4.633  22.555   2.108
75605ION    CL-47331  22.657  27.897   4.081
75606ION    CL-47332   7.188  10.893  11.962
75607ION    CL-47333  34.219  36.528   2.797
75608ION    CL-47334  37.941  36.145  13.789
75609ION    CL-47335   1.859  25.519   4.400
75610ION    CL-47336  34.480  37.586   3.894
75611ION    CL-47337   4.758  12.634  13.919
75612ION    CL-47338   8.438  37.717  11.093
75613ION    CL-47339  22.240  28.432   1.891
75614ION    CL-47340  12.184  30.562  10.492
75615ION    CL-47341  26.114   4.906   0.427
75616ION    CL-47342   0.971  39.603  14.037
75617ION    CL-47343  13.040   9.590   0.100
75618ION    CL-47344  19.538  36.332   3.699
75619ION    CL-47345  29.902  36.530   0.804
75620ION    CL-47346  25.849  10.934  14.093
75621ION    CL-47347  17.972  39.946   4.680
75622ION    CL-47348  15.498  41.853   0.176
75623ION    CL-47349   6.015  24.081  12.258
75624ION    CL-47350  34.016  28.149   2.083
75625ION    CL-47351  35.181  43.645  14.997
75626ION    CL-47352  30.800  26.731   0.502
75627ION    CL-47353  22.311  17.782  11.066
75628ION    CL-47354  38.019  26.382   2.295
75629ION    CL-47355  26.381  44.959   0.917
75630ION    CL-47356   7.831  11.208  13.025
75631ION    CL-47357  30.486  24.771   1.874
75632ION    CL-47358   3.485  33.478   2.426
75633ION    CL-47359  40.810  30.553   0.096
75634ION    CL-47360  28.449  16.232  12.465
75635ION    CL-47361  24.833  25.863   5.255
75636ION    CL-47362  42.434  21.044   2.706
75637ION    CL-47363   6.420   3.309  14.572
75638ION    CL-47364   0.781  14.054   9.638
75639ION    CL-47365  44.022  18.811   0.155
75640ION    CL-47366   6.300  44.560  11.718
75641ION    CL-47367  36.985  16.795   3.215
75642ION    CL-47368   5.933  10.028   4.326
75643ION    CL-47369  28.154  12.034   4.277
75644ION    CL-47370  12.701  32.622  11.605
75645ION    CL-47371  22.075  32.659   4.953
75646ION    CL-47372  16.814  29.201  11.446
75647ION    CL-47373  26.416   8.679   2.387
75648ION    CL-47374  25.089  21.676  10.671
75649ION    CL-47375  41.614  16.693   2.929
75650ION    CL-47376  39.046  13.793  11.179
75651ION    CL-47377  37.623  33.916   2.736
75652ION    CL-47378   9.872  31.858   0.855
75653ION    CL-47379   3.453  15.805  11.501
75654ION    CL-47380  15.778   4.175   0.337
75655ION    CL-47381  10.676   4.928  12.880
75656ION    CL-47382  22.635   2.195  12.261
75657ION    CL-47383  44.139  14.171   4.214
75658ION    CL-47384  30.826  13.575   2.004
75659ION    CL-47385  37.327  40.833  12.660
75660ION    CL-47386  20.158   6.510  14.263
75661ION    CL-47387   2.827  17.053   2.522
75662ION    CL-47388  11.363  42.830   3.392
75663ION    CL-47389   9.708  33.249  12.488
75664ION    CL-47390  17.932   7.806  14.026
75665ION    CL-47391   6.025  20.373  11.078
75666ION    CL-47392   0.307   7.786   4.166
75667ION    CL-47393  11.649   6.244   5.019
75668ION    CL-47394  36.557  25.829   2.685
75669ION    CL-47395  19.767   8.503   4.097
75670ION    CL-47396   6.753  13.860  14.316
75671ION    CL-47397  16.261  19.832  11.526
75672ION    CL-47398  43.140  21.657   0.704
75673ION    CL-47399  42.363  23.943   0.474
75674ION    CL-47400  20.609   2.151   4.896
75675ION    CL-47401  17.461   2.797  13.323
75676ION    CL-47402  36.990  29.535   3.656
75677ION    CL-47403  21.520  35.624   2.880
75678ION    CL-47404  16.764  32.167   3.318
75679ION    CL-47405  32.156  16.887   3.505
75680ION    CL-47406  42.241  29.106  12.083
75681ION    CL-47407  31.139  40.357  10.869
75682ION    CL-47408  41.198  24.702   2.867
75683ION    CL-47409   2.250  19.790  11.838
75684ION    CL-47410  32.705  33.111  13.191
75685ION    CL-47411  34.222  36.893  14.835
75686ION    CL-47412  34.472   0.697   1.323
75687ION    CL-47413   2.441  37.348  10.892
75688ION    CL-47414   9.769  13.688  10.175
75689ION    CL-47415  38.721   3.802  13.812
75690ION    CL-47416  43.444  28.107  14.995
75691ION    CL-47417  35.531  28.162   5.097
75692ION    CL-47418   2.746  11.352   2.644
75693ION    CL-47419  10.178  39.993  13.842
75694ION    CL-47420  40.149  33.772  11.337
75695ION    CL-47421  27.448  44.272  14.210
75696ION    CL-47422  41.966  29.371  13.666
75697ION    CL-47423  30.766  17.070  13.883
75698ION    CL-47424  26.772  42.505   1.924
75699ION    CL-47425  41.752  31.364  12.966
75700ION    CL-47426   4.580  10.181   3.061
75701ION    CL-47427  16.580  41.539   3.321
75702ION    CL-47428  28.041   0.289  10.152
75703ION    CL-47429  10.653  37.018  14.931
75704ION    CL-47430  32.939  15.920  12.468
75705ION    CL-47431  24.346  39.697   2.752
75706ION    CL-47432  17.251  37.964   3.264
75707ION    CL-47433  29.610  30.665   1.703
75708ION    CL-47434  13.391  18.500  10.255
75709ION    CL-47435   4.235  15.611  14.354
75710ION    CL-47436  27.679  28.766  13.632
75711ION    CL-47437  20.603  34.951  13.753
75712ION    CL-47438   2.036  24.767   0.849
75713ION    CL-47439  38.346  28.748  13.733
75714ION    CL-47440   7.003  13.672   1.454
75715ION    CL-47441  20.333  34.594  14.987
75716ION    CL-47442   1.395  17.683  11.877
75717ION    CL-47443   4.791  22.913  13.495
75718ION    CL-47444  31.053  29.467  13.265
75719ION    CL-47445  14.255  35.817   0.706
75720ION    CL-47446   7.429   7.216   0.778
75721ION    CL-47447  24.579  20.996   0.841
75722ION    CL-47448  24.703   7.525   3.314
75723ION    CL-47449  42.331  22.370  14.982
75724ION    CL-47450  19.286  16.370   2.541
75725ION    CL-47451  20.018  32.680  13.677
75726ION    CL-47452  30.406   3.504   2.720
75727ION    CL-47453  25.754  16.765   1.964
75728ION    CL-47454   9.947   7.883  10.047
75729ION    CL-47455  17.785  23.292   2.996
75730ION    CL-47456  28.148   6.553   0.853
75731ION    CL-47457  16.620  24.057  10.395
75732ION    CL-47458  12.623   7.458   1.758
75733ION    CL-47459  20.241  41.622   3.529
75734ION    CL-47460  32.962  27.874  13.477
75735ION    CL-47461  34.218  20.376   3.373
75736ION    CL-47462  31.335   4.840  11.104
75737ION    CL-47463  37.973  33.900  14.809
75738ION    CL-47464  38.311  17.302   3.304
75739ION    CL-47465  21.721  41.135   0.784
75740ION    CL-47466  25.203  43.179   2.006
75741ION    CL-47467  20.825  17.028   0.776
75742ION    CL-47468  37.487  32.172  14.235
75743ION    CL-47469   1.025  30.281  14.871
75744ION    CL-47470   2.907  20.531   0.278
75745ION    CL-47471  31.878  22.089  13.346
75746ION    CL-47472   1.129  29.766  14.020
75747ION    CL-47473  32.050  41.893   0.625
75748ION    CL-47474  16.052  40.461  11.095
75749ION    CL-47475   5.986  41.102   0.529
75750ION    CL-47476  30.670   1.244  13.088
75751ION    CL-47477  32.330   5.629  10.157
75752ION    CL-47478  15.267  13.368  11.168
75753ION    CL-47479  17.187  21.300   3.310
75754ION    CL-47480  20.191  43.532  12.402
75755ION    CL-47481  23.256  43.588  11.413
75756ION    CL-47482  33.888  27.244  13.977
75757ION    CL-47483   5.876   1.947  11.003
75758ION    CL-47484  31.104  40.556  12.498
75759ION    CL-47485  16.755  22.264  11.130
75760ION    CL-47486  18.831  35.969  12.555
75761ION    CL-47487  29.742   6.743  12.047
75762ION    CL-47488  39.976  42.273  14.497
75763ION    CL-47489  38.373   1.489  13.001
75764ION    CL-47490  30.911  44.505  10.567
75765ION    CL-47491   0.198  36.114   4.197
75766ION    CL-47492  17.313   9.221   0.827
75767ION    CL-47493   2.718  17.104  10.853
75768ION    CL-47494   0.515  31.950   1.271
75769ION    CL-47495   4.606  34.705  12.927
75770ION    CL-47496  41.604  42.024  14.208
75771ION    CL-47497  18.633  38.973  13.470
75772ION    CL-47498   4.166  44.148   1.951
75773ION    CL-47499   3.383  18.675  13.556
75774ION    CL-47500  27.983  26.081   3.756
75775ION    CL-47501  19.223  19.251  12.072
75776ION    CL-47502  39.280  21.045   5.001
75777ION    CL-47503  41.526  41.908  11.163
75778ION    CL-47504   8.610   6.924   0.868
75779ION    CL-47505  13.189  11.007   3.217
75780ION    CL-47506   8.265  28.568  11.683
75781ION    CL-47507  23.486  15.347  11.494
75782ION    CL-47508  13.190  23.034   3.128
75783ION    CL-47509  39.667   7.260   2.121
75784ION    CL-47510  11.062  18.069   4.250
75785ION    CL-47511  39.300  32.526  10.783
75786ION    CL-47512  12.927  14.839   3.517
75787ION    CL-47513  20.986  23.732  14.075
75788ION    CL-47514  40.866  10.599  10.583
75789ION    CL-47515   3.801  33.919  14.403
75790ION    CL-47516  31.123  12.422  10.774
75791ION    CL-47517  36.942   9.477  12.914
75792ION    CL-47518  38.810   8.957   2.639
75793ION    CL-47519  23.196  29.894   4.531
75794ION    CL-47520   8.895  11.835  11.057
75795ION    CL-47521  30.229  15.027   2.759
75796ION    CL-47522  13.082  10.028   3.047
75797ION    CL-47523  43.189  25.239   5.058
75798ION    CL-47524  11.234  32.882  12.610
75799ION    CL-47525  12.500  27.626  12.393
75800ION    CL-47526  13.694   5.366   1.365
75801ION    CL-47527  44.482  29.498   0.629
75802ION    CL-47528  42.420  26.034  14.769
75803ION    CL-47529  12.115  26.691   2.337
75804ION    CL-47530  17.319   2.699   0.332
75805ION    CL-47531  22.284   4.614   0.699
75806ION    CL-47532  13.379  34.311   1.104
75807ION    CL-47533   7.410  21.869  11.286
75808ION    CL-47534   3.458  26.562   2.382
75809ION    CL-47535   2.584  28.157  14.370
75810ION    CL-47536   5.970  13.314  11.065
75811ION    CL-47537  11.384  24.136   2.534
75812ION    CL-47538  30.373  35.010  11.292
75813ION    CL-47539  44.035   8.070  12.535
75814ION    CL-47540  31.008   0.479   4.056
75815ION    CL-47541  38.730   0.798   1.259
75816ION    CL-47542  21.204   4.292  14.302
75817ION    CL-47543  13.111  21.628   3.236
75818ION    CL-47544  14.512   6.887   1.968
75819ION    CL-47545  24.563  10.525  13.503
75820ION    CL-47546  44.151  21.744  10.533
75821ION    CL-47547  23.646   8.605   2.756
75822ION    CL-47548  21.615   0.944   3.633
75823ION    CL-47549  26.429  25.566  14.043
75824ION    CL-47550  29.124  40.869   1.463
75825ION    CL-47551  24.052   8.473   0.892
75826ION    CL-47552  19.260   0.307  10.164
75827ION    CL-47553  26.164   1.847   2.345
75828ION    CL-47554  42.301  42.514   1.877
75829ION    CL-47555   1.387  18.350   2.452
75830ION    CL-47556  30.466  18.108   1.482
75831ION    CL-47557  10.510  42.644   3.139
75832ION    CL-47558  34.623  28.098  10.456
75833ION    CL-47559  20.994  36.690   2.461
75834ION    CL-47560  29.924   1.815  14.048
75835ION    CL-47561  18.261  23.290  14.754
75836ION    CL-47562  18.647  10.326   1.239
75837ION    CL-47563   2.940  33.424  14.519
75838ION    CL-47564  26.720  13.800   2.156
75839ION    CL-47565  37.202  10.424   0.353
75840ION    CL-47566   7.481  41.921   3.663
75841ION    CL-47567  22.657  18.767  12.555
75842ION    CL-47568  16.869   4.458   0.329
75843ION    CL-47569   0.691  44.246   0.178
75844ION    CL-47570  10.090  13.327   0.812
75845ION    CL-47571  39.063  26.547  11.675
75846ION    CL-47572  15.652   3.241   0.003
75847ION    CL-47573   5.026  27.952   0.421
75848ION    CL-47574   0.312  25.469  14.574
75849ION    CL-47575  19.070  38.539   2.280
75850ION    CL-47576  43.063  18.738  14.448
75851ION    CL-47577  16.768  13.183   0.920
75852ION    CL-47578  30.712  15.508   5.078
75853ION    CL-47579   8.352  42.770   3.237
75854ION    CL-47580  28.841  28.386  13.527
75855ION    CL-47581  29.186  19.898  11.066
75856ION    CL-47582  37.034   4.862   2.844
75857ION    CL-47583   9.703   4.852   1.211
75858ION    CL-47584  16.105  37.098   4.790
75859ION    CL-47585  19.164  25.569  13.883
75860ION    CL-47586  42.772  17.296  11.867
75861ION    CL-47587  24.539   0.458  10.282
75862ION    CL-47588   1.404  25.502   1.462
75863ION    CL-47589  36.426  14.835   0.328
75864ION    CL-47590  44.890  42.295   1.076
75865ION    CL-47591  29.878  16.925  13.376
75866ION    CL-47592  25.014  28.028  13.835
75867ION    CL-47593  32.939  33.054  11.122
75868ION    CL-47594  21.712  19.343  11.526
75869ION    CL-47595  24.893  13.775   3.713
75870ION    CL-47596  21.029  42.897   2.879
75871ION    CL-47597  21.177  44.701   3.466
75872ION    CL-47598  27.766  34.484   3.215
75873ION    CL-47599  31.865   7.159   3.266
75874ION    CL-47600   8.912  13.700  12.125
75875ION    CL-47601  32.199  35.839  11.404
75876ION    CL-47602  32.066  28.613   5.056
75877ION    CL-47603  42.200  27.162   4.080
75878ION    CL-47604  41.825  31.733   3.234
75879ION    CL-47605  21.896  11.893   9.672
75880ION    CL-47606  25.770  38.143   1.097
75881ION    CL-47607  37.382   3.722   4.612
75882ION    CL-47608  35.231  38.780  12.030
75883ION    CL-47609  25.813  16.661  11.013
75884ION    CL-47610  11.931  23.028  11.890
75885ION    CL-47611  24.728  26.427   9.854
75886ION    CL-47612  38.454  18.361   4.299
75887ION    CL-47613   0.013  31.757   4.078
75888ION    CL-47614  44.706  17.792   2.249
75889ION    CL-47615  17.691  16.714  12.559
75890ION    CL-47616   2.791  20.250   1.349
75891ION    CL-47617   5.356  17.031   9.990
75892ION    CL-47618   9.845  15.017   0.426
75893ION    CL-47619   4.259  11.165   1.552
75894ION    CL-47620  44.704   4.732  14.326
75895ION    CL-47621  42.000  32.447  14.259
75896ION    CL-47622   3.172  24.935  12.297
75897ION    CL-47623   1.862  15.602  13.486
75898ION    CL-47624  26.786   3.069   2.796
75899ION    CL-47625  24.487  26.259   2.190
75900ION    CL-47626  32.283  30.796   5.029
75901ION    CL-47627  37.847  19.724   5.060
75902ION    CL-47628  28.506  39.383  13.783
75903ION    CL-47629  44.322  39.063   1.234
75904ION    CL-47630  32.909  44.010   4.496
75905ION    CL-47631  31.180  21.497   0.012
75906ION    CL-47632  42.742  33.452   3.261
75907ION    CL-47633  32.818  32.346  14.416
75908ION    CL-47634  17.373   5.318  11.646
75909ION    CL-47635  11.077  35.641   4.794
75910ION    CL-47636   4.475  20.335  11.551
75911ION    CL-47637  33.552  37.109  13.459
75912ION    CL-47638  40.280  18.809  11.987
75913ION    CL-47639  23.712  20.684  14.879
75914ION    CL-47640  39.799   7.333   3.777
75915ION    CL-47641  14.780  42.490  10.660
75916ION    CL-47642  44.431   3.883  14.779
75917ION    CL-47643  26.729  14.197   1.221
75918ION    CL-47644  33.137  38.958   3.006
75919ION    CL-47645  32.350  33.092  14.630
75920ION    CL-47646  18.354   8.180   4.112
75921ION    CL-47647  29.387  28.078   9.897
75922ION    CL-47648  12.191  17.711   2.464
75923ION    CL-47649  11.688  19.177   1.866
75924ION    CL-47650   7.348   2.634  13.184
75925ION    CL-47651  22.636  33.564  11.116
75926ION    CL-47652  41.286  30.167  12.420
75927ION    CL-47653   5.293  29.419   3.220
75928ION    CL-47654   5.159  30.498  14.456
75929ION    CL-47655   0.970   5.114   3.197
75930ION    CL-47656  32.062  26.267   5.527
75931ION    CL-47657   1.447   8.445   1.481
75932ION    CL-47658  20.269  14.825  10.322
75933ION    CL-47659  27.609  24.877   4.654
75934ION    CL-47660   9.928  30.883   2.161
75935ION    CL-47661  37.020  34.763  12.284
75936ION    CL-47662  39.816  31.552  14.196
75937ION    CL-47663  36.003  18.601   4.759
75938ION    CL-47664  12.546  44.742   3.989
75939ION    CL-47665  24.506   2.369  11.479
75940ION    CL-47666  11.972  25.886   1.528
75941ION    CL-47667  23.647  30.456   2.264
75942ION    CL-47668  35.092  38.115  14.347
75943ION    CL-47669  24.821   2.292  10.533
75944ION    CL-47670  34.287  34.760  13.099
75945ION    CL-47671  24.279  41.725   4.170
75946ION    CL-47672  40.120  25.316  11.828
75947ION    CL-47673  29.723   1.145  12.782
75948ION    CL-47674  43.896  29.419  14.495
75949ION    CL-47675  33.079   2.146   4.043
75950ION    CL-47676   8.981  22.374   1.444
75951ION    CL-47677   0.812  33.573  14.381
75952ION    CL-47678  36.112  24.653   2.687
75953ION    CL-47679   1.986   0.140   4.213
75954ION    CL-47680   7.184   5.679   0.852
75955ION    CL-47681  19.431   1.273  11.888
75956ION    CL-47682  38.749  15.840  14.331
75957ION    CL-47683  31.563   0.662   4.758
75958ION    CL-47684  21.143  30.147  13.636
75959ION    CL-47685  24.966   6.931  11.631
75960ION    CL-47686  42.835  36.595   5.106
75961ION    CL-47687   2.356  32.633   1.265
75962ION    CL-47688  13.670  36.224  13.483
75963ION    CL-47689  43.822  42.139  11.448
75964ION    CL-47690   1.025  16.847  13.250
75965ION    CL-47691   0.110  17.879  12.016
75966ION    CL-47692  28.565   3.623  12.597
75967ION    CL-47693  14.172  41.114  14.006
75968ION    CL-47694  24.735  40.225  14.986
75969ION    CL-47695  42.675  35.964   2.886
75970ION    CL-47696  20.597  33.022   2.029
75971ION    CL-47697  43.712  40.940   1.768
75972ION    CL-47698  25.514  41.401   3.220
75973ION    CL-47699   8.639  31.093   5.242
75974ION    CL-47700  12.059  43.260   1.779
75975ION    CL-47701   1.268   3.934  12.023
75976ION    CL-47702  26.646  28.485   2.619
75977ION    CL-47703  14.355  14.645   2.697
75978ION    CL-47704  41.151  44.682   1.768
75979ION    CL-47705  13.286  35.389   2.484
75980ION    CL-47706   1.776  32.823  14.622
75981ION    CL-47707  36.402   5.990   4.867
75982ION    CL-47708  11.083  38.233   1.462
75983ION    CL-47709  22.051   8.755   3.950
75984ION    CL-47710  10.142  43.342  10.578
75985ION    CL-47711  15.735  18.791   1.692
75986ION    CL-47712   4.982  21.070   2.341
75987ION    CL-47713  41.896  25.834   0.597
75988ION    CL-47714  35.114  38.362  10.824
75989ION    CL-47715   3.946  25.110   1.971
75990ION    CL-47716  44.473  34.348  13.040
75991ION    CL-47717  19.806  34.161   1.060
75992ION    CL-47718  28.470  37.526  12.724
75993ION    CL-47719  31.669  22.494  12.088
75994ION    CL-47720  39.087  17.152  14.445
75995ION    CL-47721  36.455   2.414   9.946
75996ION    CL-47722  34.199  16.352   0.312
75997ION    CL-47723  43.275  28.410  11.572
75998ION    CL-47724   4.803   0.501  14.377
75999ION    CL-47725  18.231   0.276  12.646
76000ION    CL-47726  34.709  44.059   1.001
76001ION    CL-47727   5.305  10.829  11.850
76002ION    CL-47728  42.130  25.038   2.472
76003ION    CL-47729  28.248  18.492   3.093
76004ION    CL-47730  17.304  29.935   1.053
76005ION    CL-47731  13.930   0.600   2.867
76006ION    CL-47732  44.776  17.337  11.528
76007ION    CL-47733  27.824  21.417   3.226
76008ION    CL-47734  32.680   6.551   0.854
76009ION    CL-47735   3.972  28.313  10.361
76010ION    CL-47736   3.939  25.091  10.281
76011ION    CL-47737  20.299  32.222  10.395
76012ION    CL-47738  33.102  42.130  12.633
76013ION    CL-47739  34.296  32.879  10.512
76014ION    CL-47740   5.380  16.371  14.408
76015ION    CL-47741  18.207  43.652  14.119
76016ION    CL-47742   9.321  19.563   2.062
76017ION    CL-47743  37.276  14.930  13.742
76018ION    CL-47744  33.780  15.422  11.662
76019ION    CL-47745  14.747  35.169  11.956
76020ION    CL-47746  35.433  27.209   0.497
76021ION    CL-47747  31.680  41.250   2.753
76022ION    CL-47748  21.184   9.185  12.184
76023ION    CL-47749  14.888  32.313  12.061
76024ION    CL-47750  32.651  40.569  14.636
76025ION    CL-47751   7.352  34.422   2.836
76026ION    CL-47752  17.119  28.908   1.245
76027ION    CL-47753  12.774  10.119  14.417
76028ION    CL-47754  18.693  39.557  14.324
76029ION    CL-47755   7.157  25.734  11.127
76030ION    CL-47756  26.495  14.825  11.252
76031ION    CL-47757   8.660  23.791  13.364
76032ION    CL-47758  33.896  38.595   4.745
76033ION    CL-47759  29.180  32.144   0.780
76034ION    CL-47760  24.529  32.433  11.581
76035ION    CL-47761   0.779  29.536  12.295
76036ION    CL-47762  40.603   8.273   4.384
76037ION    CL-47763  20.005  28.929  13.869
76038ION    CL-47764  41.132  43.757   1.740
76039ION    CL-47765   7.451  35.107  14.380
76040ION    CL-47766  28.637  28.191  11.657
76041ION    CL-47767  30.180   5.374  10.567
76042ION    CL-47768  34.863  27.384  10.039
76043ION    CL-47769  20.480  27.460  10.385
76044ION    CL-47770   5.976  29.431  11.545
76045ION    CL-47771  32.006   9.422  14.087
76046ION    CL-47772  23.947  14.613  11.993
76047ION    CL-47773  12.353  10.849   3.743
76048ION    CL-47774  29.674   8.847   3.071
76049ION    CL-47775  38.482  26.916   0.300
76050ION    CL-47776  24.738  17.132   2.348
76051ION    CL-47777  27.043  30.095   3.679
76052ION    CL-47778  41.952   4.521   2.229
76053ION    CL-47779   8.283   2.972  13.078
76054ION    CL-47780  30.580  14.346   4.495
76055ION    CL-47781   7.939  28.211   4.954
76056ION    CL-47782  40.470  41.173  12.425
76057ION    CL-47783   9.432  15.012   5.026
76058ION    CL-47784  24.620  19.774   4.592
76059ION    CL-47785  31.867   5.162   2.887
76060ION    CL-47786   1.186  21.736   5.014
76061ION    CL-47787  41.976  28.239   3.458
76062ION    CL-47788   1.174   4.364   3.827
76063ION    CL-47789  17.938  27.293   3.902
76064ION    CL-47790  21.569  25.628  14.509
76065ION    CL-47791   7.127   0.860  14.609
76066ION    CL-47792  26.176  27.687   2.595
76067ION    CL-47793  38.919  39.341   3.789
76068ION    CL-47794  33.881  23.845  10.270
76069ION    CL-47795  21.834  40.682  11.899
76070ION    CL-47796  23.352  27.786   4.656
76071ION    CL-47797  12.896  16.639  12.627
76072ION    CL-47798  35.508   5.756  14.833
76073ION    CL-47799  19.650  22.444   2.661
76074ION    CL-47800   0.609  34.959   1.026
76075ION    CL-47801  43.681   7.104   0.643
76076ION    CL-47802  29.564  24.639  11.979
76077ION    CL-47803  15.711   4.996  13.014
76078ION    CL-47804   7.786   5.302  13.314
76079ION    CL-47805  12.576  14.270   9.879
76080ION    CL-47806   7.718  20.594  14.784
76081ION    CL-47807   0.068  35.213   4.021
76082ION    CL-47808  36.968  36.269   3.165
76083ION    CL-47809  33.483  17.629  10.223
76084ION    CL-47810  23.227   0.461  12.312
76085ION    CL-47811  29.433   8.345   3.955
76086ION    CL-47812   9.691  12.649   5.140
76087ION    CL-47813   4.340  38.122  11.588
76088ION    CL-47814   4.213   0.678  12.282
76089ION    CL-47815  14.066  15.803   0.247
76090ION    CL-47816  17.085  15.239   4.540
76091ION    CL-47817  32.879  23.678   3.399
76092ION    CL-47818  27.141  15.887  10.774
76093ION    CL-47819  40.786  10.349  14.993
76094ION    CL-47820  11.144  19.309  10.932
76095ION    CL-47821  36.487  42.789  12.107
76096ION    CL-47822  14.707   6.777  11.940
76097ION    CL-47823   2.506  16.332  14.332
76098ION    CL-47824  15.089  24.917   1.707
76099ION    CL-47825  27.419   9.432  13.378
76100ION    CL-47826   1.608  12.879   3.829
76101ION    CL-47827  44.423  32.381  11.768
76102ION    CL-47828  17.549  25.709  13.521
76103ION    CL-47829  13.566  21.187   4.654
76104ION    CL-47830  34.468  29.062   1.610
76105ION    CL-47831   2.926   5.568   3.230
76106ION    CL-47832  44.426  32.921  10.918
76107ION    CL-47833  15.131  42.250   3.270
76108ION    CL-47834  40.965  33.661  14.965
76109ION    CL-47835  39.764  13.629  11.890
76110ION    CL-47836  23.642   4.215   1.307
76111ION    CL-47837  25.258  25.644   2.356
76112ION    CL-47838  44.236  17.441   3.331
76113ION    CL-47839   3.830  25.627  11.998
76114ION    CL-47840  28.409  32.956  12.536
76115ION    CL-47841  14.019  16.284  13.472
76116ION    CL-47842   2.363   1.001  11.116
76117ION    CL-47843  26.196   2.575   1.659
76118ION    CL-47844  19.221   9.452  14.974
76119ION    CL-47845   8.302  12.354   2.169
76120ION    CL-47846   9.448  23.162   9.899
76121ION    CL-47847  20.643  29.624  12.115
76122ION    CL-47848  24.594  11.849  13.062
76123ION    CL-47849  24.107  28.218  12.516
76124ION    CL-47850   9.902  32.712   1.473
76125ION    CL-47851  26.192  11.493   3.308
76126ION    CL-47852  12.925  14.143   2.276
76127ION    CL-47853  44.313   3.192   1.951
76128ION    CL-47854  12.854   3.772   1.996
76129ION    CL-47855  24.511  20.316   3.758
76130ION    CL-47856  18.304  43.673   2.569
76131ION    CL-47857   7.236  27.063   2.140
76132ION    CL-47858  37.036   4.319  14.484
76133ION    CL-47859  18.721  34.130   0.353
76134ION    CL-47860  13.806  11.670  14.089
76135ION    CL-47861  43.272  23.147   3.607
76136ION    CL-47862   2.103  41.241   3.869
76137ION    CL-47863  42.345  21.520   4.533
76138ION    CL-47864  44.026  44.775   0.854
76139ION    CL-47865  44.487  36.182  12.211
76140ION    CL-47866  38.530  32.675  14.135
76141ION    CL-47867  12.061  16.884  12.058
76142ION    CL-47868  23.681  43.548   1.604
76143ION    CL-47869  28.996  39.787  11.087
76144ION    CL-47870  41.695   1.042   3.362
76145ION    CL-47871  13.930  30.958  13.635
76146ION    CL-47872  11.016   6.202   5.042
76147ION    CL-47873  13.566  34.515   3.774
76148ION    CL-47874   0.409  18.437   3.086
76149ION    CL-47875  21.118  38.154  13.108
76150ION    CL-47876  41.236  35.940   0.412
76151ION    CL-47877  13.190   6.336  14.459
76152ION    CL-47878  40.236  38.058   2.706
76153ION    CL-47879  40.476  19.283   4.128
76154ION    CL-47880  31.310   5.369   2.083
76155ION    CL-47881   1.204  13.751  11.704
76156ION    CL-47882  41.812  15.788   9.960
76157ION    CL-47883  41.233  19.827  13.850
76158ION    CL-47884   6.245  13.792   9.646
76159ION    CL-47885   9.178  13.223  14.079
76160ION    CL-47886  26.491  22.398  12.449
76161ION    CL-47887   3.644  11.353   0.906
76162ION    CL-47888  26.451  32.307  14.575
76163ION    CL-47889   3.112  10.254   5.147
76164ION    CL-47890  29.886   2.351   2.016
76165ION    CL-47891  23.826  34.011   3.965
76166ION    CL-47892  44.275  15.669   0.824
76167ION    CL-47893  38.304  40.915  12.466
76168ION    CL-47894  41.798   9.550   3.098
76169ION    CL-47895  40.356  35.361  13.959
76170ION    CL-47896   1.043  44.570  10.191
76171ION    CL-47897  28.677  42.413   0.426
76172ION    CL-47898  16.202  13.370  12.026
76173ION    CL-47899  35.601   7.380  11.512
76174ION    CL-47900  19.688   4.309   1.584
76175ION    CL-47901  25.422  44.266  12.712
76176ION    CL-47902  27.643  41.680   0.611
76177ION    CL-47903   6.388  17.932  14.002
76178ION    CL-47904  13.855   7.264   1.496
76179ION    CL-47905  27.522  11.030   0.277
76180ION    CL-47906  39.840  26.756   4.626
76181ION    CL-47907  26.200  27.982   0.420
76182ION    CL-47908  17.361  36.611   0.311
76183ION    CL-47909  37.677  10.810  14.696
76184ION    CL-47910   8.052  41.997   4.363
76185ION    CL-47911  34.113  19.116  11.326
76186ION    CL-47912  14.870   4.221   2.120
76187ION    CL-47913   1.592  23.070  13.097
76188ION    CL-47914  10.965  24.640   1.779
76189ION    CL-47915  17.959  26.594   4.501
76190ION    CL-47916  26.641  32.864   0.528
76191ION    CL-47917   6.607  19.244  10.263
76192ION    CL-47918  23.574  14.100  10.968
76193ION    CL-47919  36.740  40.294   1.787
76194ION    CL-47920  38.475   7.400   1.392
76195ION    CL-47921   9.275  32.284   3.330
76196ION    CL-47922  28.845  33.657   1.859
76197ION    CL-47923  43.545   6.164   0.986
76198ION    CL-47924  37.100   5.567  13.879
76199ION    CL-47925  11.044  22.803  14.633
76200ION    CL-47926  18.788  42.840   2.262
76201ION    CL-47927  36.605  24.590  12.830
76202ION    CL-47928  22.733  37.062   5.089
76203ION    CL-47929  26.412  20.813   1.890
76204ION    CL-47930   4.473  31.960   2.288
76205ION    CL-47931  19.020  10.083  13.074
76206ION    CL-47932  28.752   2.632   0.269
76207ION    CL-47933  40.162  23.533  12.399
76208ION    CL-47934  40.706   4.753   0.194
76209ION    CL-47935   9.457  26.206  12.020
76210ION    CL-47936  21.293  12.251  12.913
76211ION    CL-47937  13.660  21.849   2.026
76212ION    CL-47938  30.556  21.689  14.254
76213ION    CL-47939  19.269   4.628   3.181
76214ION    CL-47940   9.591   2.676  13.099
76215ION    CL-47941  34.023  17.929   4.942
76216ION    CL-47942  16.900  18.774  12.520
76217ION    CL-47943  22.473  43.611  13.843
76218ION    CL-47944  13.393  28.570  14.441
76219ION    CL-47945  43.424  27.340  11.354
76220ION    CL-47946  30.480   3.674  11.125
76221ION    CL-47947   1.690  15.934  11.252
76222ION    CL-47948  31.908  21.945   1.584
76223ION    CL-47949   4.308  41.845  12.301
76224ION    CL-47950  15.310  42.271  13.522
76225ION    CL-47951   4.295  37.072  11.550
76226ION    CL-47952  42.951  31.648  10.711
76227ION    CL-47953   0.826   2.866  13.202
76228ION    CL-47954  44.130  25.566   4.909
76229ION    CL-47955   9.884  15.304  11.616
76230ION    CL-47956  20.404  14.942   3.937
76231ION    CL-47957  44.219  12.713   0.094
76232ION    CL-47958   3.127  32.019  12.392
76233ION    CL-47959  43.066  41.492  11.351
76234ION    CL-47960  10.805  15.593  10.812
76235ION    CL-47961  28.076  34.039   2.372
76236ION    CL-47962  42.438  39.769   2.241
76237ION    CL-47963   8.899  16.342  13.328
76238ION    CL-47964  29.267   8.038   1.957
76239ION    CL-47965  17.248   8.467  13.630
76240ION    CL-47966  24.863  12.990   3.244
76241ION    CL-47967  10.647  38.393   0.576
76242ION    CL-47968   1.850  27.216  12.264
76243ION    CL-47969  18.565  44.446  10.232
76244ION    CL-47970  26.794   6.162   3.927
76245ION    CL-47971  21.683  14.360   1.333
76246ION    CL-47972  30.155   7.449  11.471
76247ION    CL-47973   8.747  19.925  14.845
76248ION    CL-47974   1.115  10.876   2.241
76249ION    CL-47975  11.638  42.042  12.121
76250ION    CL-47976  32.431  21.246   4.131
76251ION    CL-47977   1.380  26.541  14.725
76252ION    CL-47978  43.910  24.730  10.694
76253ION    CL-47979   3.476  24.505   3.201
76254ION    CL-47980  28.319  15.376   3.936
76255ION    CL-47981  26.036  38.256   4.870
76256ION    CL-47982  41.774   7.136  11.169
76257ION    CL-47983  16.170  37.397  13.380
76258ION    CL-47984  26.763  42.223  14.220
76259ION    CL-47985   3.276  42.949   2.323
76260ION    CL-47986  33.001  17.149  11.924
76261ION    CL-47987   2.183  16.746   4.251
76262ION    CL-47988  12.530  43.479  13.912
76263ION    CL-47989  20.866  40.793   2.248
76264ION    CL-47990  44.106   1.966   4.096
76265ION    CL-47991  31.433  42.011   2.152
76266ION    CL-47992  37.260   7.333   4.785
76267ION    CL-47993  32.000  32.120   1.904
76268ION    CL-47994   5.059  15.656  13.788
76269ION    CL-47995   7.164  29.347  11.808
76270ION    CL-47996  43.122   3.922   3.641
76271ION    CL-47997  18.552  36.481   2.176
76272ION    CL-47998   6.744   2.253  12.354
76273ION    CL-47999  15.008   1.018  13.752
76274ION    CL-48000  34.566  35.025   2.689
76275ION    CL-48001   4.995  40.890   0.353
76276ION    CL-48002  32.877   7.254   3.283
76277ION    CL-48003   3.507  43.501   3.186
76278ION    CL-48004  29.783  18.014   1.888
76279ION    CL-48005  44.149  35.589  14.206
76280ION    CL-48006   5.928   3.686   2.896
76281ION    CL-48007  34.373   8.428   0.638
76282ION    CL-48008   6.844  25.707  12.889
76283ION    CL-48009  13.058  39.125  14.268
76284ION    CL-48010   6.608  28.181   1.676
76285ION    CL-48011   7.120  30.211  12.013
76286ION    CL-48012  24.347  11.138   2.552
76287ION    CL-48013  17.491  16.076   0.078
76288ION    CL-48014   6.304  44.855   9.863
76289ION    CL-48015  25.849  32.441   0.362
76290ION    CL-48016   3.581  28.621   1.684
76291ION    CL-48017  12.033  28.687  10.938
76292ION    CL-48018  38.937  34.064  11.640
76293ION    CL-48019  10.776  38.806  14.358
76294ION    CL-48020   7.336  35.468   3.003
76295ION    CL-48021  12.284  14.789  12.060
76296ION    CL-48022  43.124   8.393   3.300
76297ION    CL-48023  25.932  14.339   1.808
76298ION    CL-48024  40.365  28.041   9.851
76299ION    CL-48025  21.097  26.705  12.244
76300ION    CL-48026  14.619  34.201  12.393
76301ION    CL-48027  14.092  30.066  14.694
76302ION    CL-48028  16.131  11.633   0.531
76303ION    CL-48029   9.961  34.284  12.347
76304ION    CL-48030  19.106  22.855   0.351
76305ION    CL-48031   7.445   4.842  12.584
76306ION    CL-48032  11.782   3.532  12.877
76307ION    CL-48033  18.790  22.112   4.221
76308ION    CL-48034  31.975  35.374   1.910
76309ION    CL-48035   5.882  26.318  10.941
76310ION    CL-48036   4.714  11.916   2.031
76311ION    CL-48037  17.260  26.038  12.449
76312ION    CL-48038  42.479  19.312   0.023
76313ION    CL-48039  37.141   7.476   1.842
76314ION    CL-48040   2.147  41.080  11.247
76315ION    CL-48041  33.955  40.564   2.121
76316ION    CL-48042   0.501  31.696   0.304
76317ION    CL-48043   5.223  24.541   2.120
76318ION    CL-48044   5.238  22.488   0.779
76319ION    CL-48045  43.692   1.886   3.185
76320ION    CL-48046  14.744  44.418   4.597
  45.00000  45.00000  15.00000
